FOO
138240
    1MOL0     O    1   6.414   8.074   6.303 -1.3181  0.0113  0.0967
    1MOL0     C    2   6.350   8.059   6.405  0.0697 -0.6220 -0.7416
    1MOL0     O    3   6.221   8.012   6.407 -0.0599  0.1758 -0.4448
    1MOL0     C    4   6.137   7.988   6.298 -1.3413 -0.1275 -0.3561
    1MOL0     C    5   6.149   8.047   6.172 -0.3468  0.7336  0.7893
    1MOL0     C    6   6.085   7.992   6.057  0.5027 -0.3115  0.3503
    1MOL0     C    7   6.014   7.876   6.066  1.0333  0.3046  0.3062
    1MOL0     O    8   5.945   7.814   5.967 -0.0521 -0.3049 -0.1578
    1MOL0     C    9   5.963   7.840   5.829  0.3312 -0.5904 -0.5741
    1MOL0     C   10   6.079   7.766   5.762 -1.2616 -0.2725  0.0069
    1MOL0     C   11   6.050   7.759   5.610 -0.0875 -0.3564  0.0883
    1MOL0     C   12   5.989   7.883   5.536  0.5741  0.0228  0.2402
    1MOL0     C   13   5.974   7.859   5.385 -0.1639 -0.4002 -0.1078
    1MOL0     C   14   6.092   7.895   5.296  0.4927  0.2263  0.9534
    1MOL0     C   15   6.080   7.855   5.146  0.9126  0.4282  0.7140
    1MOL0     C   16   5.988   7.942   5.067 -0.2201 -0.7358  0.8872
    1MOL0     N   17   5.972   7.888   4.928 -0.3920  0.8616 -0.5423
    1MOL0     C   18   5.987   7.755   4.886 -0.6834  0.2442 -0.0385
    1MOL0     C   19   5.979   7.759   4.753 -0.5343 -0.1265  0.2850
    1MOL0     C   20   5.975   7.650   4.648 -0.1355 -1.0893 -0.3209
    1MOL0     C   21   5.828   7.609   4.610 -0.6588 -0.3981  1.1647
    1MOL0     C   22   5.795   7.467   4.553 -0.6240 -0.2385  0.4060
    1MOL0     C   23   5.889   7.439   4.429  1.0752  0.3755 -0.6861
    1MOL0     O   24   5.896   7.294   4.413  0.1415  0.1314  1.0907
    1MOL0     C   25   5.808   7.230   4.325  0.1575 -0.1782 -1.6255
    1MOL0     C   26   5.828   7.094   4.294 -0.2658  0.5982 -0.3754
    1MOL0     C   27   5.742   7.028   4.212  0.2928 -0.4377  0.3326
    1MOL0     C   28   5.789   6.887   4.170 -0.4103 -0.5288  0.4249
    1MOL0     C   29   5.619   7.077   4.170  0.0625  0.9587 -0.5808
    1MOL0     C   30   5.511   7.008   4.095 -0.1006  0.3598 -0.2572
    1MOL0     O   31   5.426   7.092   4.026 -0.0501  0.5363 -0.0950
    1MOL0     C   32   5.314   7.043   3.961  0.1743  0.9740 -0.3844
    1MOL0     C   33   5.323   6.920   3.882 -0.0308  0.1315  0.2974
    1MOL0     C   34   5.210   6.875   3.818  1.1086  0.2771  0.1103
    1MOL0     C   35   5.093   6.951   3.822 -0.5292 -1.1416 -0.6926
    1MOL0     O   36   4.992   6.905   3.747  0.1305  0.1848 -0.0994
    1MOL0     C   37   4.861   6.924   3.796  0.0578 -0.6563  0.6063
    1MOL0     C   38   4.756   6.867   3.700  1.0825  0.0686  0.6952
    1MOL0     C   39   4.614   6.901   3.748 -0.6803  0.3050 -0.0108
    1MOL0     C   40   4.558   7.043   3.703 -0.3528  0.0590 -0.3075
    1MOL0     C   41   4.421   7.065   3.774 -0.4411 -1.2794 -0.9999
    1MOL0     C   42   4.308   6.978   3.720 -0.7904  0.4989 -0.2826
    1MOL0     C   43   4.248   7.028   3.591  0.0349 -0.7028 -0.0286
    1MOL0     C   44   4.099   7.003   3.585 -0.1374 -0.3189  0.2242
    1MOL0    Cl   45   4.072   6.830   3.549 -0.3554 -0.9729 -0.5824
    1MOL0     C   46   5.084   7.060   3.897  0.6658 -0.0213 -0.2496
    1MOL0     C   47   5.193   7.112   3.966  0.3797 -0.2172 -1.4596
    1MOL0     O   48   5.486   6.889   4.117  0.0574  0.0384  0.2046
    1MOL0     C   49   5.596   7.210   4.209  0.5259  0.4639 -0.1913
    1MOL0     C   50   5.689   7.283   4.270  0.0245  0.3179 -0.6932
    1MOL0     N   51   5.970   7.891   4.717  0.0361 -0.3160  0.2428
    1MOL0     N   52   5.959   7.969   4.822  0.5910  0.0871 -0.4534
    1MOL0     C   53   5.990   7.816   6.197 -0.4688  0.6762 -0.0265
    1MOL0     C   54   6.048   7.876   6.307 -0.7355 -0.0178  0.1815
    1MOL0     C   55   6.411   8.109   6.528 -0.2233  0.2276 -0.3415
    1MOL0     C   56   6.537   8.173   6.534  0.7479 -1.0659 -0.2018
    1MOL0     C   57   6.581   8.231   6.659  0.0613 -0.5717  0.0055
    1MOL0     C   58   6.507   8.217   6.781  0.3368 -0.2908 -0.3846
    1MOL0     O   59   6.547   8.270   6.902 -0.1298  0.0120  0.7203
    1MOL0     C   60   6.565   8.176   7.001  0.1691 -0.7162  0.1825
    1MOL0     C   61   6.533   8.247   7.142 -0.2873  0.6041  1.0652
    1MOL0     C   62   6.597   8.154   7.264 -0.1225 -0.4952  0.2389
    1MOL0     C   63   6.587   8.215   7.400 -0.5557  0.6954 -0.2311
    1MOL0     C   64   6.458   8.207   7.466  0.1023  0.3058  0.7527
    1MOL0     C   65   6.350   8.212   7.528 -0.5688  0.4350  0.9039
    1MOL0     C   66   6.377   8.158   6.771 -0.6667 -0.6620 -0.4494
    1MOL0     C   67   6.337   8.106   6.649 -0.3343  0.4593 -0.0432
    1MOL0     H   68   6.225   8.120   6.147  1.0401 -0.6663  0.7671
    1MOL0     H   69   6.088   8.046   5.963 -2.1674 -1.0577 -0.2335
    1MOL0     H   70   5.876   7.797   5.778  0.9189 -2.6002  0.0130
    1MOL0     H   71   5.976   7.946   5.806  0.0333 -0.6020 -0.8130
    1MOL0     H   72   6.171   7.823   5.782 -2.0915  0.0101  3.9120
    1MOL0     H   73   6.082   7.665   5.805 -1.6153  1.0050  3.3893
    1MOL0     H   74   6.146   7.737   5.562  0.5977 -1.1037  1.7326
    1MOL0     H   75   5.983   7.674   5.593  1.7150 -1.5694 -1.2866
    1MOL0     H   76   5.889   7.912   5.571 -0.3494 -3.7964  1.1835
    1MOL0     H   77   6.067   7.960   5.544  2.4182 -1.7629  0.1680
    1MOL0     H   78   5.943   7.755   5.371 -1.4418 -0.1133  0.4254
    1MOL0     H   79   5.888   7.901   5.332 -1.8301 -2.3691  0.8832
    1MOL0     H   80   6.121   8.001   5.301  0.7799  0.1058  3.2121
    1MOL0     H   81   6.172   7.838   5.343 -1.1735 -3.8459 -0.7190
    1MOL0     H   82   6.175   7.859   5.092 -0.1514 -1.1363 -1.4092
    1MOL0     H   83   6.059   7.748   5.137  1.4221  0.4078 -0.4553
    1MOL0     H   84   6.023   8.045   5.051 -2.3341 -0.3032 -1.7867
    1MOL0     H   85   5.893   7.935   5.121 -0.3757  0.4756  0.8070
    1MOL0     H   86   5.999   7.657   4.928  0.6715  0.2594 -0.3493
    1MOL0     H   87   6.019   7.685   4.554  3.5010 -2.3281  0.7467
    1MOL0     H   88   6.026   7.558   4.678  2.0643 -0.1805 -1.0972
    1MOL0     H   89   5.777   7.676   4.540 -1.6917  0.3280  2.5832
    1MOL0     H   90   5.772   7.608   4.703 -1.8991 -3.1594  0.4901
    1MOL0     H   91   5.687   7.454   4.536 -1.1739  2.3344  1.3214
    1MOL0     H   92   5.825   7.405   4.638 -0.8049 -1.6868 -0.5699
    1MOL0     H   93   5.986   7.466   4.473  1.4376 -0.6087 -0.8407
    1MOL0     H   94   5.869   7.494   4.337 -1.8986  0.3340 -0.1621
    1MOL0     H   95   5.899   7.033   4.349  0.4281  1.3615 -0.4001
    1MOL0     H   96   5.784   6.872   4.061  3.7960  2.3207 -0.4179
    1MOL0     H   97   5.894   6.869   4.193 -0.4873  0.0183  1.2208
    1MOL0     H   98   5.724   6.820   4.227  0.2816 -2.5613 -1.0637
    1MOL0     H   99   5.419   6.870   3.878  0.5631  1.3270 -1.3251
    1MOL0     H  100   5.205   6.790   3.751 -0.9830 -1.2679  2.0505
    1MOL0     H  101   4.847   6.885   3.897 -1.1004  0.4250  0.8939
    1MOL0     H  102   4.831   7.029   3.791 -1.7269 -1.1641 -4.2734
    1MOL0     H  103   4.780   6.915   3.605  1.6441  0.3450  0.9674
    1MOL0     H  104   4.768   6.759   3.701 -4.4196 -0.8300  2.4382
    1MOL0     H  105   4.598   6.887   3.855  0.1722  0.4676  0.1432
    1MOL0     H  106   4.556   6.826   3.692  0.6444 -0.3869 -0.4890
    1MOL0     H  107   4.623   7.126   3.732 -0.4116 -0.3881  1.1861
    1MOL0     H  108   4.552   7.032   3.594  0.4896 -3.1311 -0.1430
    1MOL0     H  109   4.398   7.171   3.759 -1.4872 -1.7523 -3.0070
    1MOL0     H  110   4.441   7.065   3.882  2.0825 -0.6197 -1.3919
    1MOL0     H  111   4.339   6.877   3.689  2.2966  1.7370 -1.5768
    1MOL0     H  112   4.236   6.953   3.799  1.8504 -1.2091  1.7618
    1MOL0     H  113   4.295   6.972   3.510  2.7593  1.5549 -0.1318
    1MOL0     H  114   4.264   7.135   3.580 -1.6198 -0.4170  0.0562
    1MOL0     H  115   4.052   7.051   3.498 -1.4338 -1.2463  0.3902
    1MOL0     H  116   4.054   7.033   3.680  0.2572 -3.6205  1.5540
    1MOL0     H  117   4.992   7.115   3.914  0.3035 -0.5901 -0.3174
    1MOL0     H  118   5.202   7.203   4.026  0.1994 -2.9427  3.2420
    1MOL0     H  119   5.497   7.255   4.201 -0.1436 -0.1872  2.9744
    1MOL0     H  120   5.673   7.387   4.295  1.7334  0.1753  1.2908
    1MOL0     H  121   5.945   7.718   6.201  3.0208 -1.0343  1.1802
    1MOL0     H  122   6.036   7.831   6.405 -4.0688 -1.7642 -0.8711
    1MOL0     H  123   6.583   8.199   6.439  2.2669  0.7913  0.9724
    1MOL0     H  124   6.676   8.284   6.653  0.0176 -0.6857 -3.9827
    1MOL0     H  125   6.502   8.087   6.991 -0.3800 -0.2676 -0.4552
    1MOL0     H  126   6.671   8.147   7.010  0.2388 -0.7623 -0.6579
    1MOL0     H  127   6.428   8.270   7.165 -1.2855 -1.6810 -0.7549
    1MOL0     H  128   6.594   8.338   7.142 -2.1472  1.9677 -1.1462
    1MOL0     H  129   6.702   8.136   7.240  0.2940  3.6178 -2.0039
    1MOL0     H  130   6.540   8.061   7.271 -0.6759 -0.0536  3.7027
    1MOL0     H  131   6.631   8.315   7.395 -0.5358  0.6461 -1.2501
    1MOL0     H  132   6.658   8.164   7.465 -0.9915  0.9632  0.4637
    1MOL0     H  133   6.260   8.215   7.587 -2.4128 -1.5660 -1.5840
    1MOL0     H  134   6.304   8.169   6.850 -0.9638 -2.1580 -0.4799
    1MOL0     H  135   6.236   8.066   6.649 -0.4136  0.6292  1.2245
    2MOL0     O  136   1.100   5.135   6.060 -0.1683  0.0987 -0.2208
    2MOL0     C  137   1.139   5.244   6.085  1.0330 -0.9745  0.0998
    2MOL0     O  138   1.182   5.294   6.211  0.1969 -0.8304 -0.0596
    2MOL0     C  139   1.206   5.216   6.323  0.1673 -0.8859  0.0919
    2MOL0     C  140   1.208   5.276   6.449  0.5189 -0.4235 -0.4387
    2MOL0     C  141   1.236   5.203   6.559  0.4565  0.5829 -0.3019
    2MOL0     C  142   1.273   5.068   6.535  0.4212  0.0255  0.2390
    2MOL0     O  143   1.295   4.995   6.646  0.1069 -0.4151  0.1545
    2MOL0     C  144   1.273   4.858   6.655 -0.5296  0.0789 -0.6985
    2MOL0     C  145   1.340   4.789   6.770  0.6734  0.8192 -1.3185
    2MOL0     C  146   1.365   4.632   6.747  0.4262  0.1705 -0.0413
    2MOL0     C  147   1.476   4.576   6.823 -0.1524  0.1214  0.4611
    2MOL0     C  148   1.454   4.444   6.906  0.1935  0.0462  0.6157
    2MOL0     C  149   1.589   4.400   6.957  0.1514  0.8259  0.1114
    2MOL0     C  150   1.570   4.270   7.044 -0.1471  0.2440  0.0104
    2MOL0     C  151   1.696   4.213   7.106  0.9229 -0.0856 -0.1505
    2MOL0     N  152   1.760   4.111   7.031 -0.9815  0.4171  1.3502
    2MOL0     C  153   1.822   4.127   6.908  0.2208 -0.9070  0.4289
    2MOL0     C  154   1.872   4.016   6.866 -0.8121  0.2027 -0.2850
    2MOL0     C  155   1.942   3.983   6.738 -0.1334 -0.1709 -0.1182
    2MOL0     C  156   2.100   4.002   6.743  0.4326 -0.0480  0.6968
    2MOL0     C  157   2.134   4.142   6.710  1.0906 -1.4329 -0.0252
    2MOL0     C  158   2.279   4.171   6.700  0.2212 -1.4205 -0.1873
    2MOL0     O  159   2.301   4.295   6.632  0.0323  0.1215  0.8691
    2MOL0     C  160   2.416   4.360   6.669 -0.6485 -0.9206 -0.2753
    2MOL0     C  161   2.413   4.503   6.668 -0.2782  0.1582 -0.0737
    2MOL0     C  162   2.533   4.575   6.699  1.8518 -0.0200 -0.4248
    2MOL0     C  163   2.519   4.730   6.691 -0.3977 -0.2532  0.0310
    2MOL0     C  164   2.644   4.505   6.754  0.5385  0.1242  0.8147
    2MOL0     C  165   2.749   4.577   6.821 -0.6909 -0.5875 -0.1828
    2MOL0     O  166   2.726   4.699   6.880  0.0144 -0.6748  0.0155
    2MOL0     C  167   2.803   4.762   6.977 -0.6707  0.0203  0.9214
    2MOL0     C  168   2.856   4.697   7.084  0.6166  0.6107 -0.2765
    2MOL0     C  169   2.915   4.773   7.193  0.3112  0.2702 -0.1943
    2MOL0     C  170   2.915   4.911   7.188  0.2484  0.9046 -0.2060
    2MOL0     O  171   2.953   4.974   7.300 -0.3377  0.3587  0.0137
    2MOL0     C  172   2.964   5.118   7.311 -0.0033 -0.0186 -1.0098
    2MOL0     C  173   3.094   5.163   7.267  0.0937  0.4027 -0.5754
    2MOL0     C  174   3.094   5.315   7.236  0.2223 -0.8723 -0.0074
    2MOL0     C  175   3.038   5.404   7.351  0.4904  0.5945 -0.3604
    2MOL0     C  176   3.030   5.556   7.309 -0.3828 -0.9634 -0.3862
    2MOL0     C  177   3.157   5.633   7.261  0.3331 -0.2784 -0.3269
    2MOL0     C  178   3.252   5.677   7.378  0.5888 -0.1305  0.1283
    2MOL0     C  179   3.181   5.774   7.480  0.3400 -0.1083  0.9458
    2MOL0    Cl  180   3.295   5.875   7.562 -0.3695 -0.4024  0.1491
    2MOL0     C  181   2.867   4.975   7.072 -0.4599 -0.2542 -0.3377
    2MOL0     C  182   2.817   4.904   6.969  0.5398 -0.5544  0.1305
    2MOL0     O  183   2.854   4.511   6.824  0.4756  0.6763 -0.3350
    2MOL0     C  184   2.650   4.366   6.732  0.6386 -0.0716 -0.3025
    2MOL0     C  185   2.535   4.297   6.692  0.1118 -0.2097  0.2326
    2MOL0     N  186   1.844   3.926   6.961 -0.4375 -0.2337 -0.0747
    2MOL0     N  187   1.787   3.982   7.064  0.1004  0.0780  0.1904
    2MOL0     C  188   1.282   5.012   6.411  0.6085 -0.2682  0.7121
    2MOL0     C  189   1.244   5.086   6.307 -0.4666  0.5899 -1.3611
    2MOL0     C  190   1.119   5.349   5.970  0.2664 -0.4432 -0.1318
    2MOL0     C  191   1.180   5.475   5.993  0.0352  0.2313  0.0617
    2MOL0     C  192   1.170   5.570   5.898  0.3672 -0.3766  0.1047
    2MOL0     C  193   1.102   5.549   5.780  1.3247  0.7003  0.0588
    2MOL0     O  194   1.096   5.657   5.691 -0.4309 -0.6227 -0.5808
    2MOL0     C  195   1.114   5.620   5.556 -0.0352  0.4644 -0.1312
    2MOL0     C  196   1.121   5.753   5.462  0.0518  0.0958  0.7581
    2MOL0     C  197   1.121   5.699   5.317  0.6660 -0.2698 -0.7887
    2MOL0     C  198   1.179   5.820   5.234  0.7361  0.1245  0.1708
    2MOL0     C  199   1.183   5.776   5.097 -0.1485  0.6624 -0.1585
    2MOL0     C  200   1.190   5.745   4.981  0.1037  0.4969  0.2509
    2MOL0     C  201   1.051   5.421   5.749 -0.2294  0.2696  0.0822
    2MOL0     C  202   1.061   5.314   5.847  0.5683 -0.6036 -0.3813
    2MOL0     H  203   1.167   5.377   6.451 -0.0311 -0.6120  2.8756
    2MOL0     H  204   1.212   5.237   6.659 -1.1619 -1.9359  0.2705
    2MOL0     H  205   1.167   4.831   6.662 -0.3413 -0.2967  1.2378
    2MOL0     H  206   1.324   4.807   6.573  2.6876 -0.2286  1.3056
    2MOL0     H  207   1.437   4.837   6.791  1.4033 -1.4192  0.9081
    2MOL0     H  208   1.287   4.794   6.865  3.7465 -2.5977  0.8250
    2MOL0     H  209   1.284   4.561   6.767  0.0978  0.0994 -1.5331
    2MOL0     H  210   1.396   4.618   6.643  1.0143 -0.8561  0.2545
    2MOL0     H  211   1.566   4.562   6.761  0.6648  1.6311  1.2470
    2MOL0     H  212   1.507   4.657   6.889 -1.2170  2.8093 -2.0924
    2MOL0     H  213   1.388   4.455   6.993  1.1417  1.8671  1.1687
    2MOL0     H  214   1.413   4.367   6.840  1.9683  1.2359 -2.0651
    2MOL0     H  215   1.648   4.375   6.868  1.6135  3.6118  0.1960
    2MOL0     H  216   1.640   4.478   7.014 -0.8477  2.2318 -0.8585
    2MOL0     H  217   1.503   4.296   7.127  1.0647  1.2865  0.6863
    2MOL0     H  218   1.522   4.188   6.989 -3.3474  2.4343 -0.7543
    2MOL0     H  219   1.672   4.176   7.206  1.0524  0.0388 -0.0722
    2MOL0     H  220   1.765   4.295   7.127  0.0994  0.8972 -1.1691
    2MOL0     H  221   1.853   4.220   6.861  0.7132 -1.3034 -0.0520
    2MOL0     H  222   1.924   3.877   6.717 -0.1954  0.1290 -1.6898
    2MOL0     H  223   1.894   4.041   6.659  1.5253 -0.9866 -1.7846
    2MOL0     H  224   2.134   3.943   6.657  0.4227  0.0687  0.6127
    2MOL0     H  225   2.153   3.953   6.825 -0.8983  0.9205  2.1916
    2MOL0     H  226   2.095   4.216   6.781  0.3685 -1.9326  0.1090
    2MOL0     H  227   2.082   4.172   6.618  0.9813 -0.4246  0.3551
    2MOL0     H  228   2.324   4.087   6.646 -1.3085 -3.3145  1.3292
    2MOL0     H  229   2.327   4.168   6.798 -1.7232 -1.6621  0.7991
    2MOL0     H  230   2.328   4.557   6.627  0.9561  0.9709 -1.6675
    2MOL0     H  231   2.428   4.771   6.648 -0.3526 -1.8503 -1.7647
    2MOL0     H  232   2.528   4.782   6.787  1.7212  0.2055 -0.3548
    2MOL0     H  233   2.593   4.772   6.622 -0.5896 -0.6752 -0.4415
    2MOL0     H  234   2.839   4.590   7.086 -3.3160  1.0522 -1.8509
    2MOL0     H  235   2.968   4.712   7.266  0.2807 -1.7599 -1.7858
    2MOL0     H  236   2.883   5.170   7.259 -0.2005 -0.1563 -0.8394
    2MOL0     H  237   2.969   5.152   7.414  1.8144  0.1440 -1.1241
    2MOL0     H  238   3.177   5.133   7.333  0.1926  1.1651 -0.3480
    2MOL0     H  239   3.103   5.109   7.172 -2.9062  0.3607 -0.9322
    2MOL0     H  240   3.043   5.329   7.140 -0.0765 -1.0367  0.1260
    2MOL0     H  241   3.198   5.344   7.223  0.1229  0.0582  1.0784
    2MOL0     H  242   2.941   5.365   7.382 -0.2331  0.1741 -2.9406
    2MOL0     H  243   3.105   5.402   7.438  1.4171 -0.0074 -1.0658
    2MOL0     H  244   2.977   5.625   7.375  0.4318  1.0601 -1.7514
    2MOL0     H  245   2.965   5.564   7.221  0.9145 -1.2240 -1.4004
    2MOL0     H  246   3.211   5.573   7.188 -2.2480 -3.2945  0.0512
    2MOL0     H  247   3.116   5.720   7.210  0.3797  2.3557  3.6472
    2MOL0     H  248   3.338   5.732   7.338  2.5246 -2.2818  1.1290
    2MOL0     H  249   3.292   5.590   7.431  1.1018  1.3011  2.2355
    2MOL0     H  250   3.125   5.719   7.556  2.7177 -3.5774  0.4481
    2MOL0     H  251   3.106   5.837   7.430 -0.8805  0.6678  3.5687
    2MOL0     H  252   2.872   5.080   7.047 -1.2185 -0.3506 -0.9608
    2MOL0     H  253   2.779   4.952   6.879  1.8649 -0.2996 -0.3246
    2MOL0     H  254   2.739   4.306   6.749 -1.4839 -3.4835 -0.5681
    2MOL0     H  255   2.552   4.190   6.691  0.2376 -0.1885 -0.7363
    2MOL0     H  256   1.312   4.910   6.389  0.4277 -0.3693  0.9348
    2MOL0     H  257   1.245   5.029   6.214  0.3311 -0.5268 -0.7002
    2MOL0     H  258   1.235   5.501   6.083 -0.2856  0.1481  0.2858
    2MOL0     H  259   1.218   5.664   5.921 -2.1099  0.7444  0.9868
    2MOL0     H  260   1.207   5.564   5.546  0.0450  0.4804  0.5029
    2MOL0     H  261   1.045   5.540   5.526  0.1769  0.1374  0.2449
    2MOL0     H  262   1.210   5.810   5.489  0.4713 -0.3055  0.2524
    2MOL0     H  263   1.032   5.815   5.478  0.4708  0.8107  0.3873
    2MOL0     H  264   1.027   5.656   5.281  0.1820  1.3388 -1.5202
    2MOL0     H  265   1.199   5.623   5.306  1.0219  0.2850 -2.3861
    2MOL0     H  266   1.276   5.853   5.272  2.6305 -0.1085 -3.8629
    2MOL0     H  267   1.115   5.908   5.245  0.7253  0.4840 -2.1126
    2MOL0     H  268   1.196   5.716   4.879  3.2608  2.3539 -0.2151
    2MOL0     H  269   0.978   5.391   5.675  0.5538 -1.4962 -0.0213
    2MOL0     H  270   1.018   5.217   5.824 -1.4049  0.8356 -3.4690
    3MOL0     O  271   0.363   9.999   1.665 -0.2934  0.0864  0.0969
    3MOL0     C  272   0.355  10.009   1.789  0.1382  0.8693  0.6309
    3MOL0     O  273   0.452   9.973   1.884  0.7544 -0.4473 -0.2947
    3MOL0     C  274   0.591   9.972   1.853 -0.0596  0.2207 -0.0166
    3MOL0     C  275   0.668   9.884   1.929  0.0854 -0.3809 -0.1675
    3MOL0     C  276   0.807   9.884   1.929 -0.1708  0.9386 -0.1440
    3MOL0     C  277   0.879   9.976   1.849 -0.6818  0.0696  0.1592
    3MOL0     O  278   1.011   9.964   1.843 -0.6397  0.3764 -0.7938
    3MOL0     C  279   1.075  10.040   1.745  0.0214 -0.1759  0.6658
    3MOL0     C  280   1.231  10.012   1.745  1.2007  0.1621 -0.1046
    3MOL0     C  281   1.306  10.046   1.873  0.6353  0.8293 -0.2162
    3MOL0     C  282   1.312  10.194   1.898  0.0505 -0.3863  0.2907
    3MOL0     C  283   1.369  10.285   1.784  0.2161  0.0938 -0.6140
    3MOL0     C  284   1.510  10.232   1.743  0.0204  0.1379 -0.1057
    3MOL0     C  285   1.598  10.344   1.695  0.4630 -0.0190 -0.1066
    3MOL0     C  286   1.736  10.302   1.663  0.8805  0.4992 -0.0687
    3MOL0     N  287   1.843  10.405   1.629  0.2864 -0.4280 -0.0232
    3MOL0     C  288   1.860  10.462   1.505 -0.2608 -0.6313  0.3182
    3MOL0     C  289   1.989  10.505   1.518 -0.6331  0.4329  0.5251
    3MOL0     C  290   2.075  10.550   1.396  0.0091  0.1770  1.0821
    3MOL0     C  291   2.097  10.705   1.383  0.5288 -0.5583 -0.0617
    3MOL0     C  292   1.974  10.792   1.427  0.4569 -0.5212  0.0558
    3MOL0     C  293   1.976  10.943   1.408 -0.5053 -0.3537  0.6796
    3MOL0     O  294   1.976  10.965   1.267  0.3716  0.3894 -0.7419
    3MOL0     C  295   2.057  11.070   1.218 -0.0906  0.0254  0.0528
    3MOL0     C  296   2.086  11.182   1.290 -0.4509  0.1262 -0.2123
    3MOL0     C  297   2.183  11.274   1.243 -0.1181  0.7177 -0.7274
    3MOL0     C  298   2.211  11.392   1.332 -0.1485 -0.7920  0.4850
    3MOL0     C  299   2.252  11.246   1.121  0.1264 -0.6939  0.2294
    3MOL0     C  300   2.375  11.329   1.074 -0.0281 -0.1721 -0.6021
    3MOL0     O  301   2.446  11.276   0.970 -0.2841  0.2255  0.0284
    3MOL0     C  302   2.538  11.351   0.898  1.1793 -0.4614 -0.6097
    3MOL0     C  303   2.518  11.350   0.765 -0.3811  0.2320  1.0241
    3MOL0     C  304   2.609  11.404   0.676  0.4389  0.0094 -0.3579
    3MOL0     C  305   2.720  11.478   0.722  0.1331 -0.0799  0.0871
    3MOL0     O  306   2.807  11.534   0.635  0.1587 -0.4242 -0.2840
    3MOL0     C  307   2.835  11.484   0.502  0.2217  0.8882  1.2891
    3MOL0     C  308   2.979  11.549   0.467  0.2493  0.3315 -0.0164
    3MOL0     C  309   2.955  11.702   0.468 -0.0803  0.5152 -0.3258
    3MOL0     C  310   3.080  11.781   0.424 -0.2201  0.5810 -0.7006
    3MOL0     C  311   3.027  11.913   0.386  0.1765 -0.4617 -0.5272
    3MOL0     C  312   3.136  12.001   0.357  0.0685 -0.9976  0.1531
    3MOL0     C  313   3.097  12.123   0.271  0.3356 -0.4997 -1.0438
    3MOL0     C  314   3.231  12.204   0.235  0.6302  0.8557  0.0756
    3MOL0    Cl  315   3.349  12.127   0.118  0.4219  0.3589  0.0596
    3MOL0     C  316   2.738  11.480   0.861  0.0378 -0.1535  0.0714
    3MOL0     C  317   2.650  11.411   0.943  0.2059 -0.0467  0.2318
    3MOL0     O  318   2.399  11.438   1.128  0.2775  0.2431 -0.2939
    3MOL0     C  319   2.226  11.132   1.047  0.4988  0.2041  0.7226
    3MOL0     C  320   2.133  11.042   1.103 -0.2902  0.3605 -0.4672
    3MOL0     N  321   2.027  10.502   1.654 -0.8282  0.2606 -0.5472
    3MOL0     N  322   1.935  10.439   1.718 -0.2829 -0.1915  0.0243
    3MOL0     C  323   0.802  10.063   1.764 -0.2527 -0.2434  0.5452
    3MOL0     C  324   0.661  10.060   1.765 -0.4305  0.4250  0.4885
    3MOL0     C  325   0.219  10.029   1.837  0.3189 -0.8508 -0.2078
    3MOL0     C  326   0.206  10.089   1.966 -0.3409 -0.5215 -0.7742
    3MOL0     C  327   0.083  10.113   2.018  0.1808  0.2841 -0.3889
    3MOL0     C  328  -0.040  10.062   1.970  0.2296  0.3881 -0.1440
    3MOL0     O  329  -0.173  10.077   2.026 -0.3967 -0.6204 -1.0754
    3MOL0     C  330  -0.171  10.156   2.145 -0.1555  0.2499 -0.0414
    3MOL0     C  331  -0.315  10.175   2.187  1.0294  0.2192 -0.1465
    3MOL0     C  332  -0.377  10.312   2.149  0.9465 -0.7201 -0.0017
    3MOL0     C  333  -0.521  10.330   2.179 -0.1302  0.9782 -0.6055
    3MOL0     C  334  -0.545  10.342   2.322  0.5971 -1.0523 -0.5854
    3MOL0     C  335  -0.574  10.381   2.430  0.0919  0.4794  1.2624
    3MOL0     C  336  -0.021   9.996   1.846 -0.4406 -0.3052  0.6274
    3MOL0     C  337   0.104   9.986   1.775 -0.4421  0.1155  0.1527
    3MOL0     H  338   0.616   9.821   2.000 -3.1143 -0.8584 -2.6697
    3MOL0     H  339   0.874   9.811   1.972  1.4188  0.8281 -2.5882
    3MOL0     H  340   1.024  10.021   1.649 -0.3289 -1.5029  1.0929
    3MOL0     H  341   1.055  10.146   1.765 -0.4771 -0.0586 -0.3449
    3MOL0     H  342   1.237   9.905   1.724  4.3989  0.6027 -1.9981
    3MOL0     H  343   1.270  10.067   1.659  0.6823  0.8914  0.1079
    3MOL0     H  344   1.279   9.988   1.962  0.5097 -2.3594 -2.2024
    3MOL0     H  345   1.406  10.014   1.844  0.9079  0.9098  0.6010
    3MOL0     H  346   1.209  10.220   1.925 -0.8662  1.8081 -4.3246
    3MOL0     H  347   1.364  10.198   1.994 -2.2293  0.6994  1.5674
    3MOL0     H  348   1.302  10.292   1.698 -1.1116  1.6707  0.4913
    3MOL0     H  349   1.387  10.383   1.830  2.2335 -0.9219  0.9005
    3MOL0     H  350   1.570  10.187   1.824  1.4040 -2.6499 -2.5055
    3MOL0     H  351   1.508  10.154   1.667  1.5899  0.3755 -0.4360
    3MOL0     H  352   1.556  10.389   1.604 -0.9942 -1.5823 -0.2675
    3MOL0     H  353   1.599  10.417   1.776 -0.4157 -0.8813  0.7124
    3MOL0     H  354   1.731  10.239   1.574  2.1371  1.5540 -0.9416
    3MOL0     H  355   1.772  10.234   1.740 -2.4334  0.8670  1.9541
    3MOL0     H  356   1.795  10.452   1.419 -1.0153  1.0114  0.6711
    3MOL0     H  357   2.169  10.494   1.408 -0.2826 -1.0243 -1.6328
    3MOL0     H  358   2.027  10.518   1.303  0.3344  1.4573  0.4597
    3MOL0     H  359   2.112  10.724   1.276 -1.7778 -0.6538 -0.4617
    3MOL0     H  360   2.185  10.743   1.435  0.8263 -0.9155 -0.2953
    3MOL0     H  361   1.952  10.775   1.533 -0.3322 -1.1179 -0.1963
    3MOL0     H  362   1.896  10.752   1.361  1.0274  0.0232 -0.9675
    3MOL0     H  363   2.066  10.985   1.454 -1.4409  0.2424  1.9973
    3MOL0     H  364   1.888  10.992   1.448 -0.3720 -0.2393  0.8340
    3MOL0     H  365   2.039  11.203   1.385  0.9424 -0.6536  0.6824
    3MOL0     H  366   2.199  11.488   1.280 -0.4341 -0.3349  1.3691
    3MOL0     H  367   2.130  11.397   1.405 -1.9433 -0.4581 -1.4375
    3MOL0     H  368   2.306  11.411   1.384 -0.3816  1.7149  0.1557
    3MOL0     H  369   2.425  11.321   0.717 -0.8919  0.9217  1.5714
    3MOL0     H  370   2.584  11.396   0.571  0.5549  0.2691 -0.4056
    3MOL0     H  371   2.839  11.375   0.509 -0.5932  0.8721  1.6427
    3MOL0     H  372   2.755  11.517   0.435  0.0091  0.8995  1.5470
    3MOL0     H  373   3.043  11.520   0.551 -2.2927 -4.1442  0.6820
    3MOL0     H  374   3.012  11.511   0.369 -1.0176  1.3253 -0.8591
    3MOL0     H  375   2.920  11.743   0.563 -1.0992  1.1505 -0.9559
    3MOL0     H  376   2.882  11.718   0.388 -0.6335 -0.2671  0.0117
    3MOL0     H  377   3.147  11.782   0.511  1.0249  1.8797 -1.6276
    3MOL0     H  378   3.130  11.739   0.336  1.3084 -0.5395  0.6377
    3MOL0     H  379   2.968  11.954   0.469  0.2392 -2.0867  0.3604
    3MOL0     H  380   2.957  11.912   0.302  2.0665  2.7042 -2.3293
    3MOL0     H  381   3.181  12.047   0.445  0.2087  1.1801 -0.9889
    3MOL0     H  382   3.216  11.945   0.308  0.6974 -0.5389  0.6351
    3MOL0     H  383   3.023  12.180   0.327 -0.7882 -1.0503 -1.9419
    3MOL0     H  384   3.044  12.080   0.187 -0.8118 -0.2775 -0.4529
    3MOL0     H  385   3.295  12.225   0.321 -1.0462  1.5742  1.2086
    3MOL0     H  386   3.192  12.295   0.188 -1.9363 -0.1337  0.1280
    3MOL0     H  387   2.825  11.527   0.905 -0.0563 -0.2410  0.3548
    3MOL0     H  388   2.678  11.400   1.048  1.8263 -0.6123 -0.2329
    3MOL0     H  389   2.279  11.111   0.954 -1.8252  1.7639 -1.0790
    3MOL0     H  390   2.122  10.951   1.044  1.0115  0.9252 -1.6603
    3MOL0     H  391   0.858  10.131   1.700 -0.0773 -0.0811  0.8676
    3MOL0     H  392   0.604  10.131   1.705 -0.0401  0.0543 -0.3450
    3MOL0     H  393   0.295  10.128   2.014 -0.7873  0.7272 -0.9129
    3MOL0     H  394   0.082  10.165   2.113  0.8477  0.4965 -0.4967
    3MOL0     H  395  -0.106  10.100   2.212 -0.0473 -1.9860 -1.9080
    3MOL0     H  396  -0.129  10.252   2.114 -2.8588  1.2778 -0.8699
    3MOL0     H  397  -0.327  10.160   2.295  1.3692 -0.3856 -0.1844
    3MOL0     H  398  -0.366  10.095   2.133  0.2881  0.7590 -0.2642
    3MOL0     H  399  -0.368  10.329   2.041 -1.1325 -1.2592 -0.3020
    3MOL0     H  400  -0.324  10.394   2.198  0.2088  0.8090 -1.6582
    3MOL0     H  401  -0.589  10.256   2.135  1.1751  0.3742 -1.6964
    3MOL0     H  402  -0.545  10.427   2.133  0.2235  1.3876  0.0666
    3MOL0     H  403  -0.587  10.431   2.524 -0.2333  0.8756  1.0121
    3MOL0     H  404  -0.101   9.948   1.791 -2.7809  0.1973  3.3498
    3MOL0     H  405   0.110   9.940   1.677 -2.3764  1.3028 -0.5873
    4MOL0     O  406   0.973   6.116   4.682 -0.8379 -0.9150 -0.1527
    4MOL0     C  407   0.987   6.063   4.792 -1.5656 -0.4101  0.5000
    4MOL0     O  408   1.094   5.992   4.818 -0.5699  0.0293 -0.5003
    4MOL0     C  409   1.187   5.965   4.723  0.1155 -0.3153  0.0064
    4MOL0     C  410   1.321   6.004   4.755  0.5592  0.7152  0.5889
    4MOL0     C  411   1.421   5.980   4.663 -0.5100 -0.2189  0.1181
    4MOL0     C  412   1.395   5.939   4.535 -0.6456 -1.1949 -1.0352
    4MOL0     O  413   1.498   5.939   4.453 -0.3341  0.0565 -0.2669
    4MOL0     C  414   1.568   6.057   4.415 -0.9498 -0.4815  0.4817
    4MOL0     C  415   1.665   6.040   4.289 -0.3215  0.5973  0.3957
    4MOL0     C  416   1.606   6.026   4.149 -0.4583 -0.3947 -0.1012
    4MOL0     C  417   1.699   6.045   4.034 -0.2283  0.1130 -0.6077
    4MOL0     C  418   1.653   6.016   3.897  0.1260 -0.2808  0.0879
    4MOL0     C  419   1.529   6.103   3.869 -0.7103 -0.2612 -0.0092
    4MOL0     C  420   1.475   6.084   3.726  0.5918  0.4350  0.1489
    4MOL0     C  421   1.552   6.163   3.623  0.0531  0.0751 -0.7636
    4MOL0     N  422   1.474   6.186   3.500  0.0684  0.1463 -0.3807
    4MOL0     C  423   1.474   6.100   3.389 -0.1787  1.0652 -0.0844
    4MOL0     C  424   1.391   6.158   3.300 -0.5903  1.1374  0.0260
    4MOL0     C  425   1.313   6.103   3.182 -1.3265 -0.2036  0.0988
    4MOL0     C  426   1.406   6.008   3.094  0.8811 -0.0273  0.9107
    4MOL0     C  427   1.308   5.930   3.001 -0.0807  0.8205  0.4212
    4MOL0     C  428   1.388   5.820   2.914  1.0505 -1.5878  0.1128
    4MOL0     O  429   1.497   5.877   2.838  0.0803 -0.0510 -0.8773
    4MOL0     C  430   1.563   5.797   2.747  0.2631  0.0161 -0.4871
    4MOL0     C  431   1.552   5.653   2.736  0.2697 -0.2446  0.7746
    4MOL0     C  432   1.614   5.584   2.633 -0.1367 -0.2126 -0.4043
    4MOL0     C  433   1.605   5.432   2.616 -0.2449  0.2461 -0.7519
    4MOL0     C  434   1.699   5.658   2.546 -0.0563 -0.0492 -0.0138
    4MOL0     C  435   1.768   5.587   2.444  0.3287 -0.1894  0.1549
    4MOL0     O  436   1.901   5.603   2.455 -0.1112 -0.4291  0.5116
    4MOL0     C  437   1.974   5.527   2.368  0.0394  0.3943  0.7158
    4MOL0     C  438   1.950   5.551   2.229 -0.7367  0.4057  0.0838
    4MOL0     C  439   2.030   5.484   2.130  0.6840 -0.6938  0.1108
    4MOL0     C  440   2.134   5.404   2.178 -0.3845 -0.2831 -0.7883
    4MOL0     O  441   2.218   5.346   2.090  0.5204  0.1700  0.3903
    4MOL0     C  442   2.252   5.432   1.979 -0.0117 -0.4936  1.3098
    4MOL0     C  443   2.371   5.352   1.928 -0.1512  0.4217  0.0988
    4MOL0     C  444   2.441   5.414   1.815 -0.1246 -0.8977  0.2608
    4MOL0     C  445   2.359   5.397   1.688  0.0977 -0.4121  0.4060
    4MOL0     C  446   2.438   5.432   1.560 -0.4537  0.2334 -0.3404
    4MOL0     C  447   2.343   5.438   1.442 -0.3843  0.8903 -0.4751
    4MOL0     C  448   2.275   5.305   1.410  0.1488  0.2410  0.1931
    4MOL0     C  449   2.365   5.193   1.346 -0.4167 -0.4917 -0.1913
    4MOL0    Cl  450   2.467   5.245   1.213 -0.6145  0.0227  0.1886
    4MOL0     C  451   2.162   5.388   2.312 -0.2122 -0.0801 -0.9276
    4MOL0     C  452   2.079   5.449   2.404 -0.0457 -0.0273 -0.1937
    4MOL0     O  453   1.709   5.545   2.347 -0.5731 -0.0595 -0.5515
    4MOL0     C  454   1.716   5.793   2.557  0.6869 -0.1939 -0.1528
    4MOL0     C  455   1.651   5.863   2.660  0.1903 -0.0694  0.0052
    4MOL0     N  456   1.355   6.285   3.352  0.2686  0.5102  0.2270
    4MOL0     N  457   1.408   6.299   3.466 -0.0801 -0.7855 -0.0674
    4MOL0     C  458   1.268   5.907   4.495 -0.7300  0.6434 -0.0900
    4MOL0     C  459   1.163   5.917   4.589  0.3658 -0.2677  0.8260
    4MOL0     C  460   0.884   6.075   4.899  0.3344 -0.0012  0.1494
    4MOL0     C  461   0.789   6.175   4.889 -0.0327  0.7193 -0.2831
    4MOL0     C  462   0.681   6.168   4.976  0.1551  0.0117 -0.1448
    4MOL0     C  463   0.677   6.074   5.085  1.0865 -0.1660  0.6898
    4MOL0     O  464   0.561   6.049   5.158 -0.0787 -0.2742 -0.2674
    4MOL0     C  465   0.572   5.973   5.279  1.0963  0.4640  0.5103
    4MOL0     C  466   0.448   5.989   5.367 -0.5980  0.0135 -0.5463
    4MOL0     C  467   0.310   5.974   5.294 -0.1527  0.1135  0.4494
    4MOL0     C  468   0.198   5.964   5.396 -0.7197  0.1182 -0.3072
    4MOL0     C  469   0.068   5.899   5.361 -0.4999 -0.9455  0.1173
    4MOL0     C  470  -0.041   5.841   5.339 -0.3079  0.4885  0.8926
    4MOL0     C  471   0.780   5.973   5.089 -0.0855  0.2345  0.1093
    4MOL0     C  472   0.881   5.980   5.001  0.6198  1.0656  0.3735
    4MOL0     H  473   1.350   6.043   4.852  1.4161 -1.8709  1.4553
    4MOL0     H  474   1.523   6.001   4.694 -0.6310  1.4907 -0.5374
    4MOL0     H  475   1.498   6.136   4.387  1.6789  1.7198 -0.3233
    4MOL0     H  476   1.624   6.093   4.501 -1.3772  2.9734 -0.5527
    4MOL0     H  477   1.733   6.125   4.285  3.6331 -2.2554 -3.3694
    4MOL0     H  478   1.729   5.952   4.307 -0.6315  0.5768  1.4599
    4MOL0     H  479   1.556   5.930   4.134  1.2970 -1.4111  0.2309
    4MOL0     H  480   1.528   6.103   4.147  2.7827  3.2244  0.6152
    4MOL0     H  481   1.730   6.149   4.050 -2.5174  0.7223  0.2730
    4MOL0     H  482   1.789   5.986   4.054  1.8348  1.8940 -3.7697
    4MOL0     H  483   1.738   6.026   3.828 -1.2100 -0.3219 -1.6460
    4MOL0     H  484   1.625   5.911   3.891 -2.6484  0.4162 -0.2577
    4MOL0     H  485   1.450   6.080   3.941  0.4789 -2.5362  0.6477
    4MOL0     H  486   1.557   6.206   3.892 -0.4241 -0.3652  0.1118
    4MOL0     H  487   1.459   5.978   3.703 -1.1056  0.8343 -0.6684
    4MOL0     H  488   1.380   6.137   3.738  0.5859 -0.1419  4.0596
    4MOL0     H  489   1.646   6.116   3.592 -0.8415 -1.7103 -0.9410
    4MOL0     H  490   1.578   6.258   3.670 -0.5080  0.0748 -0.4541
    4MOL0     H  491   1.525   6.004   3.391  1.4429  1.8803 -0.5818
    4MOL0     H  492   1.227   6.050   3.226 -2.0933  4.5611  5.4884
    4MOL0     H  493   1.274   6.183   3.119 -1.6939 -1.3809 -1.2342
    4MOL0     H  494   1.458   5.939   3.161 -0.4860 -0.4177  1.6024
    4MOL0     H  495   1.475   6.071   3.037 -0.7992  1.3436  0.2935
    4MOL0     H  496   1.279   6.000   2.922  2.3576 -0.7050 -2.0058
    4MOL0     H  497   1.223   5.877   3.045 -1.2249  0.5335 -1.9428
    4MOL0     H  498   1.312   5.782   2.844 -1.6311  0.1898  1.8539
    4MOL0     H  499   1.423   5.737   2.975  1.9963 -1.2890 -0.0115
    4MOL0     H  500   1.492   5.602   2.811  0.2692  0.1729  1.0580
    4MOL0     H  501   1.621   5.395   2.514  2.2437 -0.5760 -0.1120
    4MOL0     H  502   1.677   5.394   2.688  0.8843 -2.0977 -2.9503
    4MOL0     H  503   1.501   5.407   2.642 -1.7109  3.2199 -3.0468
    4MOL0     H  504   1.868   5.610   2.191 -1.5222  0.7127  2.1185
    4MOL0     H  505   2.003   5.507   2.028 -2.0686 -2.8365  0.2402
    4MOL0     H  506   2.174   5.419   1.903  1.2068  0.7166 -0.2078
    4MOL0     H  507   2.269   5.537   2.003 -0.4731  0.0541 -0.5985
    4MOL0     H  508   2.444   5.340   2.008  2.4203  1.5867 -1.9173
    4MOL0     H  509   2.329   5.253   1.906 -1.6754 -0.2483  4.8302
    4MOL0     H  510   2.536   5.359   1.810 -0.3450 -1.4124  1.4261
    4MOL0     H  511   2.455   5.521   1.830 -3.8798  0.7258 -4.9366
    4MOL0     H  512   2.339   5.289   1.693 -2.0852 -0.0457  0.8489
    4MOL0     H  513   2.272   5.464   1.688 -0.5446 -0.9397 -3.7290
    4MOL0     H  514   2.516   5.356   1.547 -2.8187 -2.4087  0.0492
    4MOL0     H  515   2.490   5.528   1.571  0.6043 -0.1466 -1.6946
    4MOL0     H  516   2.270   5.516   1.465 -1.8199 -0.9807  1.7887
    4MOL0     H  517   2.406   5.462   1.356  0.4057  1.8492  0.3482
    4MOL0     H  518   2.195   5.312   1.336  0.0386  0.6381  0.3449
    4MOL0     H  519   2.222   5.268   1.498 -1.6016  0.7581 -0.6096
    4MOL0     H  520   2.291   5.124   1.303 -2.7050  1.5086  0.2646
    4MOL0     H  521   2.420   5.137   1.421  0.1705  0.7867  0.3741
    4MOL0     H  522   2.255   5.340   2.344 -0.7149 -0.4135  0.0733
    4MOL0     H  523   2.092   5.458   2.512  0.4523  1.0683 -0.3367
    4MOL0     H  524   1.781   5.840   2.484  0.2040  2.9517  1.2498
    4MOL0     H  525   1.662   5.970   2.673 -2.3184  0.2159  0.4536
    4MOL0     H  526   1.253   5.885   4.390  2.4323 -1.9948 -0.1630
    4MOL0     H  527   1.059   5.893   4.567  0.8833 -0.9298 -1.1753
    4MOL0     H  528   0.805   6.257   4.819 -1.4335  0.6621 -0.7150
    4MOL0     H  529   0.594   6.232   4.970 -0.4320 -0.8479 -1.1825
    4MOL0     H  530   0.589   5.866   5.263 -0.1521  0.1802  1.0050
    4MOL0     H  531   0.656   6.012   5.338  0.5892  2.6074 -0.0998
    4MOL0     H  532   0.449   6.089   5.412 -3.3467 -0.2225  0.2053
    4MOL0     H  533   0.455   5.918   5.450 -6.9915 -0.6123 -0.1015
    4MOL0     H  534   0.314   5.882   5.236 -0.3723 -0.0337  0.6647
    4MOL0     H  535   0.301   6.057   5.223 -2.3363 -1.0533 -0.7236
    4MOL0     H  536   0.178   6.067   5.427  1.8503  0.8088 -0.7029
    4MOL0     H  537   0.230   5.912   5.487  0.0458  0.0843 -0.5884
    4MOL0     H  538  -0.138   5.797   5.330 -1.3704  2.9558 -1.1359
    4MOL0     H  539   0.773   5.890   5.158  1.8196 -0.8996 -0.9968
    4MOL0     H  540   0.946   5.894   4.996  3.1441  2.9287 -1.5040
    5MOL0     O  541   9.231   1.423   4.554  0.0342 -0.4132 -0.1234
    5MOL0     C  542   9.254   1.412   4.431 -0.4375  0.0536 -0.2257
    5MOL0     O  543   9.381   1.399   4.375 -0.6866  0.8508 -0.4079
    5MOL0     C  544   9.484   1.424   4.465 -0.0825 -0.0847  0.7953
    5MOL0     C  545   9.570   1.319   4.495  0.3910 -0.0214 -0.5001
    5MOL0     C  546   9.675   1.343   4.584  0.0151  0.2112  0.6157
    5MOL0     C  547   9.704   1.463   4.643  0.3854  0.6950  0.8630
    5MOL0     O  548   9.794   1.477   4.744 -0.0010  0.3813 -0.0677
    5MOL0     C  549   9.794   1.383   4.851  0.3252  0.5198 -0.4825
    5MOL0     C  550   9.847   1.454   4.974  0.5308  0.1184 -0.2460
    5MOL0     C  551   9.775   1.580   5.027  0.2684  0.2470  1.3312
    5MOL0     C  552   9.617   1.571   5.040 -0.4385 -0.4203  0.1539
    5MOL0     C  553   9.556   1.700   5.103 -0.2107  0.0699 -0.2442
    5MOL0     C  554   9.606   1.718   5.252 -0.1716  0.7728 -0.1905
    5MOL0     C  555   9.566   1.844   5.334 -0.1886 -0.4612  0.8962
    5MOL0     C  556   9.410   1.862   5.358  0.5399 -0.2146  0.6858
    5MOL0     N  557   9.342   1.896   5.231 -0.8328  0.6985 -0.1218
    5MOL0     C  558   9.241   1.828   5.173  0.1091  0.0028  0.1827
    5MOL0     C  559   9.182   1.926   5.095 -0.1034 -0.6745  0.1093
    5MOL0     C  560   9.060   1.901   5.023  0.3866 -0.4506  0.4161
    5MOL0     C  561   9.072   1.893   4.875  0.0324 -0.0612  0.0127
    5MOL0     C  562   9.144   1.764   4.814  0.7581 -0.3741  0.6715
    5MOL0     C  563   9.285   1.792   4.779  0.2833  0.4497  0.1023
    5MOL0     O  564   9.270   1.886   4.665 -0.1177  0.1942  0.0829
    5MOL0     C  565   9.383   1.910   4.591 -0.6608  0.3178  0.3507
    5MOL0     C  566   9.514   1.896   4.646  0.2941  0.9370 -0.0159
    5MOL0     C  567   9.624   1.912   4.571 -0.5895 -1.1476  1.6539
    5MOL0     C  568   9.764   1.900   4.639  1.0755  0.2096  0.1063
    5MOL0     C  569   9.615   1.974   4.435  0.9913 -1.0496 -0.2849
    5MOL0     C  570   9.725   2.026   4.345  0.3887  0.0965 -0.6202
    5MOL0     O  571   9.851   2.043   4.397  0.4715 -0.0771 -0.1348
    5MOL0     C  572   9.955   2.028   4.302  1.5974  0.8128 -0.7431
    5MOL0     C  573   9.962   1.914   4.217  0.3616 -0.3021 -0.5654
    5MOL0     C  574  10.071   1.916   4.120 -1.0992 -1.3485 -0.9240
    5MOL0     C  575  10.169   2.022   4.112 -0.3400 -0.7843 -0.2699
    5MOL0     O  576  10.265   2.014   4.011 -0.0700  0.4810 -0.2911
    5MOL0     C  577  10.358   2.125   3.988  0.2304  0.1738 -0.0034
    5MOL0     C  578  10.475   2.086   3.911  0.8095 -0.5943  0.3215
    5MOL0     C  579  10.565   1.989   3.996 -0.4288 -0.2785  0.5653
    5MOL0     C  580  10.697   1.977   3.917  0.4896 -0.6941 -0.0808
    5MOL0     C  581  10.798   2.087   3.938 -0.5829  0.0234  0.0134
    5MOL0     C  582  10.924   2.040   3.852 -1.1862 -0.9941  0.5451
    5MOL0     C  583  11.023   2.156   3.846 -0.5450  0.4191 -0.9968
    5MOL0     C  584  11.092   2.204   3.976  0.8721 -0.0465 -0.3313
    5MOL0    Cl  585  11.170   2.055   4.060  0.0958  0.1616 -0.5828
    5MOL0     C  586  10.151   2.137   4.189  1.2602  0.1290 -0.1926
    5MOL0     C  587  10.037   2.144   4.286 -0.5323  0.3325 -0.2464
    5MOL0     O  588   9.690   2.044   4.223  1.2610  0.3667  0.0562
    5MOL0     C  589   9.477   1.990   4.391  0.2104  0.2084  0.3739
    5MOL0     C  590   9.367   1.953   4.459  0.0134 -0.5154  0.2050
    5MOL0     N  591   9.258   2.044   5.110  0.4023  0.5196 -0.1553
    5MOL0     N  592   9.361   2.020   5.186  0.3244 -0.2634 -0.0939
    5MOL0     C  593   9.614   1.568   4.612  0.2772  0.7793 -1.0338
    5MOL0     C  594   9.507   1.548   4.522 -0.6630 -0.6120 -0.9773
    5MOL0     C  595   9.139   1.431   4.348 -0.8621  1.0807  0.0319
    5MOL0     C  596   9.013   1.453   4.398 -0.7241 -0.4378  0.0363
    5MOL0     C  597   8.913   1.489   4.307  1.2047  0.7095 -0.4703
    5MOL0     C  598   8.928   1.487   4.168 -0.4860  0.3251  1.2730
    5MOL0     O  599   8.832   1.537   4.077  0.6997  0.1453  0.4136
    5MOL0     C  600   8.721   1.614   4.125 -0.4390  0.1150 -0.3892
    5MOL0     C  601   8.605   1.520   4.151 -0.6916 -1.1205 -0.1262
    5MOL0     C  602   8.509   1.570   4.255  1.3027  0.2395 -0.0401
    5MOL0     C  603   8.509   1.501   4.392 -0.2389 -0.1523  0.1832
    5MOL0     C  604   8.395   1.553   4.470  0.4796  0.6238  0.3033
    5MOL0     C  605   8.314   1.613   4.538  0.8510  0.3371 -1.0727
    5MOL0     C  606   9.048   1.444   4.124 -0.4240  0.3779 -1.3173
    5MOL0     C  607   9.159   1.417   4.206  0.3588 -0.3969  0.2433
    5MOL0     H  608   9.551   1.223   4.448 -1.3074 -1.0141  2.0099
    5MOL0     H  609   9.740   1.258   4.598  2.7596  1.5817 -2.3285
    5MOL0     H  610   9.698   1.336   4.873  2.0541 -3.0398  0.3101
    5MOL0     H  611   9.854   1.299   4.814 -1.2471 -1.2841  0.8659
    5MOL0     H  612   9.861   1.376   5.049 -0.0642 -0.6306 -0.8955
    5MOL0     H  613   9.947   1.496   4.961  0.1255  1.0746 -0.3647
    5MOL0     H  614   9.819   1.599   5.126  0.9667  0.9174  0.9022
    5MOL0     H  615   9.807   1.664   4.965  2.0618  0.0335  1.9135
    5MOL0     H  616   9.567   1.566   4.943  1.3890 -1.7979 -0.7950
    5MOL0     H  617   9.591   1.482   5.099 -2.5854  0.5337  0.7442
    5MOL0     H  618   9.594   1.780   5.038  0.2068  1.0192  1.1296
    5MOL0     H  619   9.448   1.689   5.109 -0.1429 -0.1327  4.9632
    5MOL0     H  620   9.582   1.629   5.310  2.5950 -1.4478 -2.1854
    5MOL0     H  621   9.715   1.721   5.241  0.1648 -3.9212 -0.1117
    5MOL0     H  622   9.618   1.844   5.431 -0.8084 -0.8205  1.2338
    5MOL0     H  623   9.598   1.940   5.293 -1.9025 -0.8341 -1.5180
    5MOL0     H  624   9.387   1.932   5.440 -0.7130 -1.9769  1.9187
    5MOL0     H  625   9.381   1.760   5.384 -2.6650  0.5899  0.7173
    5MOL0     H  626   9.206   1.730   5.205 -2.2101  1.4894  2.5003
    5MOL0     H  627   9.016   1.818   5.079  1.3110 -0.8920  0.4996
    5MOL0     H  628   8.993   1.981   5.058 -1.5403 -1.9837  0.4051
    5MOL0     H  629   9.101   1.993   4.840  1.9140  0.1043  1.8532
    5MOL0     H  630   8.965   1.889   4.854  0.1010 -0.2268 -0.2993
    5MOL0     H  631   9.090   1.713   4.733 -0.0674 -1.7185  2.0254
    5MOL0     H  632   9.146   1.681   4.885  4.8949 -3.3072 -2.3954
    5MOL0     H  633   9.345   1.702   4.765  1.7771  1.4703 -0.2864
    5MOL0     H  634   9.329   1.849   4.861  0.2500  0.5408  0.0568
    5MOL0     H  635   9.531   1.864   4.748 -4.1170  2.1340  1.3149
    5MOL0     H  636   9.767   1.845   4.733 -1.1870 -1.6582 -0.8212
    5MOL0     H  637   9.825   1.852   4.562  0.3838 -1.3547  0.5035
    5MOL0     H  638   9.802   2.001   4.660  0.2258  0.0990  2.4872
    5MOL0     H  639   9.894   1.829   4.216  0.7422 -0.6048 -0.7752
    5MOL0     H  640  10.080   1.829   4.056  0.2675 -2.5419  0.7884
    5MOL0     H  641  10.317   2.209   3.931  1.5675  1.6429  1.0967
    5MOL0     H  642  10.388   2.158   4.087  1.0726 -2.1132  0.5699
    5MOL0     H  643  10.437   2.048   3.815 -0.3742  0.3214  0.3983
    5MOL0     H  644  10.535   2.175   3.889  1.7281 -1.3545 -0.3054
    5MOL0     H  645  10.527   1.887   4.007 -0.4754 -0.2177  0.9456
    5MOL0     H  646  10.578   2.034   4.094 -4.0290  0.4993  0.7956
    5MOL0     H  647  10.737   1.884   3.958 -3.5799 -1.6320  2.3077
    5MOL0     H  648  10.684   1.968   3.809  0.3912  0.8608 -0.2170
    5MOL0     H  649  10.826   2.090   4.044  1.9421  0.7905 -0.6230
    5MOL0     H  650  10.759   2.183   3.905  3.7498  1.1243 -2.7370
    5MOL0     H  651  10.977   1.953   3.892  1.4163 -0.5063 -1.6122
    5MOL0     H  652  10.895   2.010   3.751 -3.0298 -1.5473  1.1932
    5MOL0     H  653  10.966   2.240   3.806 -1.5423 -0.0715 -0.6453
    5MOL0     H  654  11.097   2.129   3.770  0.5042 -0.5203  0.3202
    5MOL0     H  655  11.023   2.262   4.038  0.0018  0.1406 -1.4406
    5MOL0     H  656  11.175   2.269   3.947  1.1133 -0.3107 -0.2392
    5MOL0     H  657  10.208   2.229   4.186  1.7672 -0.1615  0.3360
    5MOL0     H  658  10.020   2.239   4.336  0.6164 -0.1566  1.1519
    5MOL0     H  659   9.462   2.039   4.295 -0.1620 -3.9940 -1.9203
    5MOL0     H  660   9.269   1.964   4.414 -1.2131  1.6916  3.0828
    5MOL0     H  661   9.617   1.665   4.662 -0.6031 -0.6895  2.1007
    5MOL0     H  662   9.437   1.630   4.506 -0.0399 -0.0043 -0.6140
    5MOL0     H  663   8.988   1.463   4.503 -0.9157 -2.4291  0.2167
    5MOL0     H  664   8.816   1.525   4.339  1.3620 -0.9388  2.0776
    5MOL0     H  665   8.763   1.681   4.201  3.2847  0.3717 -2.4327
    5MOL0     H  666   8.690   1.687   4.049 -2.7996  0.9978  1.2966
    5MOL0     H  667   8.647   1.421   4.171  0.0450 -1.2009 -1.9173
    5MOL0     H  668   8.544   1.502   4.062  0.3043  1.0958 -1.3324
    5MOL0     H  669   8.413   1.563   4.204  2.5418  2.0686 -2.8347
    5MOL0     H  670   8.516   1.678   4.272 -0.2953  0.2437  0.7388
    5MOL0     H  671   8.605   1.525   4.437 -1.0061 -1.0448  2.3923
    5MOL0     H  672   8.504   1.393   4.376  0.3418 -0.2007  0.3036
    5MOL0     H  673   8.237   1.663   4.593 -0.7256 -2.2377 -0.8011
    5MOL0     H  674   9.063   1.439   4.017 -1.5831 -0.4704 -1.4556
    5MOL0     H  675   9.256   1.408   4.158  0.5131 -0.3850  0.5475
    6MOL0     O  676   5.549   4.387   5.258  0.0648 -0.7007 -0.0027
    6MOL0     C  677   5.439   4.346   5.235  0.1061 -0.1095 -0.8931
    6MOL0     O  678   5.380   4.346   5.111  0.3707  0.0296 -0.1620
    6MOL0     C  679   5.462   4.340   5.002 -1.3432  0.5051 -0.2896
    6MOL0     C  680   5.541   4.449   4.957 -0.2225 -0.2627  0.0518
    6MOL0     C  681   5.643   4.439   4.863 -0.6102  0.4135 -0.3781
    6MOL0     C  682   5.653   4.321   4.785 -0.2166 -0.3282 -0.2161
    6MOL0     O  683   5.735   4.322   4.678  0.2082 -0.5029  0.2557
    6MOL0     C  684   5.708   4.222   4.576  0.1810 -0.7392 -0.6321
    6MOL0     C  685   5.827   4.236   4.487  0.5678 -0.3881 -0.1946
    6MOL0     C  686   5.963   4.192   4.546 -0.4720  0.4267  0.0110
    6MOL0     C  687   6.065   4.213   4.435 -0.5690  0.1846 -0.4239
    6MOL0     C  688   6.202   4.201   4.506  0.6443  1.1745  0.7031
    6MOL0     C  689   6.317   4.209   4.399  0.6478 -0.1076 -0.9538
    6MOL0     C  690   6.460   4.210   4.460  0.1884  0.1142 -0.3799
    6MOL0     C  691   6.498   4.339   4.533  0.0651 -0.2587  0.1784
    6MOL0     N  692   6.484   4.338   4.680  0.2733  0.8529 -1.3579
    6MOL0     C  693   6.544   4.237   4.762  0.6106 -0.9151 -0.7628
    6MOL0     C  694   6.517   4.267   4.887 -0.2271 -0.9866  0.6810
    6MOL0     C  695   6.543   4.183   5.010  1.0887  0.4880  0.6905
    6MOL0     C  696   6.665   4.223   5.087  1.0973  0.8753 -0.5375
    6MOL0     C  697   6.670   4.148   5.220 -0.4165  0.0399 -0.7458
    6MOL0     C  698   6.584   4.202   5.332  0.3744 -1.0143  0.1295
    6MOL0     O  699   6.449   4.173   5.314 -0.1882 -0.2092 -0.1412
    6MOL0     C  700   6.397   4.054   5.341 -0.0730  1.0263 -0.3168
    6MOL0     C  701   6.468   3.945   5.394 -0.2966 -0.3404 -0.5468
    6MOL0     C  702   6.415   3.812   5.400 -1.2154 -0.0232  0.4095
    6MOL0     C  703   6.505   3.702   5.456  0.7685  0.0150  0.6228
    6MOL0     C  704   6.288   3.789   5.360 -0.3774  0.3299 -1.2176
    6MOL0     C  705   6.223   3.655   5.361 -0.2118  0.1869  0.0677
    6MOL0     O  706   6.085   3.659   5.379  1.0272 -0.1056 -0.0842
    6MOL0     C  707   6.002   3.560   5.334  0.0158  0.0236 -0.8730
    6MOL0     C  708   5.972   3.544   5.201  1.6890  0.2575  0.3207
    6MOL0     C  709   5.879   3.447   5.170  0.8178  0.1640 -0.2067
    6MOL0     C  710   5.829   3.350   5.264  0.6398  1.0804 -0.3726
    6MOL0     O  711   5.750   3.243   5.227  0.1874 -0.2829 -0.3300
    6MOL0     C  712   5.628   3.286   5.165  0.5457 -0.3789  0.0098
    6MOL0     C  713   5.528   3.165   5.156  0.7512 -0.3682 -0.2320
    6MOL0     C  714   5.488   3.136   5.296  0.8057  0.7445 -0.3446
    6MOL0     C  715   5.387   3.018   5.304  0.5109 -0.7941  0.9241
    6MOL0     C  716   5.370   2.987   5.454  0.7978 -0.1199 -1.1503
    6MOL0     C  717   5.280   3.094   5.532  0.6791 -0.0072 -0.4844
    6MOL0     C  718   5.296   3.095   5.686  0.0298 -0.2210 -0.3221
    6MOL0     C  719   5.415   3.169   5.726 -0.3341 -0.6260 -0.1032
    6MOL0    Cl  720   5.471   3.171   5.893  0.2824 -0.1410  0.1583
    6MOL0     C  721   5.870   3.356   5.392 -0.7615  0.8030  0.1312
    6MOL0     C  722   5.952   3.463   5.432  0.4958  0.0284  0.7256
    6MOL0     O  723   6.291   3.554   5.337 -0.2437  0.1439 -0.5626
    6MOL0     C  724   6.209   3.895   5.316 -0.9142 -0.4906  0.7337
    6MOL0     C  725   6.264   4.022   5.310 -0.6557  0.7020  0.6637
    6MOL0     N  726   6.460   4.396   4.884  0.1994 -0.3151  0.6518
    6MOL0     N  727   6.429   4.428   4.759  0.2201  0.1227 -0.5039
    6MOL0     C  728   5.571   4.216   4.827  0.6059 -0.4214  0.3721
    6MOL0     C  729   5.485   4.210   4.938 -0.4801 -0.2525  0.9008
    6MOL0     C  730   5.366   4.291   5.349  0.2601 -0.9253 -0.0406
    6MOL0     C  731   5.435   4.264   5.470 -0.7277 -0.2019 -0.4695
    6MOL0     C  732   5.362   4.226   5.580  1.2184  0.1661 -0.3039
    6MOL0     C  733   5.225   4.208   5.581 -0.7415 -0.2146 -0.4669
    6MOL0     O  734   5.147   4.164   5.685 -0.5306  0.1027  0.3122
    6MOL0     C  735   5.186   4.165   5.821  0.5215 -1.2742 -0.9872
    6MOL0     C  736   5.072   4.226   5.903 -0.7449  0.9502  0.2625
    6MOL0     C  737   4.942   4.144   5.913  0.4113  0.5569 -0.3720
    6MOL0     C  738   4.851   4.136   5.789  0.1649 -0.2769 -0.9791
    6MOL0     C  739   4.715   4.124   5.835  0.3137  0.2634  0.4435
    6MOL0     C  740   4.602   4.122   5.888 -0.0250 -0.2564 -0.2146
    6MOL0     C  741   5.164   4.212   5.458 -0.2273 -0.1558 -0.5095
    6MOL0     C  742   5.231   4.260   5.343  0.5597  0.0716  0.2797
    6MOL0     H  743   5.538   4.544   5.009  2.8532  0.5364 -1.0466
    6MOL0     H  744   5.706   4.524   4.841 -0.7816  1.0786  1.5431
    6MOL0     H  745   5.700   4.117   4.606 -1.2372 -0.1415  1.3447
    6MOL0     H  746   5.620   4.256   4.521 -0.6270  4.2257  3.0250
    6MOL0     H  747   5.793   4.172   4.404 -1.5072 -2.2308  1.9497
    6MOL0     H  748   5.837   4.341   4.460 -1.2821 -0.0407  0.4014
    6MOL0     H  749   5.993   4.239   4.640  2.0986 -2.2850  0.6549
    6MOL0     H  750   5.951   4.085   4.562  1.7715 -0.9607 -5.3822
    6MOL0     H  751   6.047   4.139   4.357  3.0217 -1.1945 -0.1311
    6MOL0     H  752   6.071   4.313   4.390  5.3187  1.9423  3.1329
    6MOL0     H  753   6.214   4.278   4.583  1.4023  1.1413  0.6291
    6MOL0     H  754   6.216   4.103   4.551  1.8436  0.3191 -1.3821
    6MOL0     H  755   6.307   4.118   4.338  0.3311 -2.5701  2.4453
    6MOL0     H  756   6.300   4.293   4.332  0.0550 -1.6721 -2.8467
    6MOL0     H  757   6.479   4.124   4.524  0.4604 -0.2981 -1.0105
    6MOL0     H  758   6.532   4.197   4.378  0.3031  0.7493 -0.3926
    6MOL0     H  759   6.449   4.424   4.484 -2.0025 -1.2554  0.3958
    6MOL0     H  760   6.606   4.346   4.521 -0.1446  0.1900 -1.7902
    6MOL0     H  761   6.602   4.148   4.739  2.0528  0.3373 -2.3560
    6MOL0     H  762   6.449   4.202   5.062  0.7419 -0.6285  0.5046
    6MOL0     H  763   6.543   4.080   4.973 -2.1427  0.6090  0.0591
    6MOL0     H  764   6.648   4.329   5.108 -1.3233  0.7204 -1.4057
    6MOL0     H  765   6.756   4.210   5.027  0.5595  2.2348 -1.7029
    6MOL0     H  766   6.766   4.166   5.271 -1.7442  0.9380  1.6195
    6MOL0     H  767   6.663   4.042   5.198  0.7418 -0.0916 -0.5613
    6MOL0     H  768   6.581   4.311   5.325 -0.7500 -0.8376  2.3202
    6MOL0     H  769   6.620   4.179   5.433 -0.8362  0.4038  0.9370
    6MOL0     H  770   6.573   3.961   5.419 -0.8300 -0.9503  2.5305
    6MOL0     H  771   6.445   3.662   5.538  2.0720  0.0908  1.6576
    6MOL0     H  772   6.533   3.618   5.392  0.2319  0.4375 -0.1776
    6MOL0     H  773   6.596   3.746   5.500  1.5399  3.7390 -3.9281
    6MOL0     H  774   6.026   3.617   5.141  0.3859  3.8636  3.1753
    6MOL0     H  775   5.845   3.434   5.067  0.5844  0.8921 -0.2307
    6MOL0     H  776   5.583   3.367   5.224 -3.1798 -1.2993 -1.2978
    6MOL0     H  777   5.637   3.320   5.061 -0.8030 -0.1331 -0.0561
    6MOL0     H  778   5.445   3.177   5.085  0.4268 -0.3085  0.1573
    6MOL0     H  779   5.585   3.081   5.114 -3.9158 -3.7537 -0.6866
    6MOL0     H  780   5.449   3.225   5.347  0.1484  0.1186  0.2540
    6MOL0     H  781   5.577   3.107   5.351  0.3963 -0.2926 -0.2123
    6MOL0     H  782   5.297   3.059   5.256  1.7299  0.7145 -0.1865
    6MOL0     H  783   5.428   2.933   5.250  2.5661 -1.2111  2.9791
    6MOL0     H  784   5.456   2.964   5.517  0.2779  1.7694  0.3277
    6MOL0     H  785   5.313   2.894   5.450  1.7472 -0.7542 -0.2544
    6MOL0     H  786   5.302   3.191   5.487  3.3579  0.9636  2.5641
    6MOL0     H  787   5.173   3.089   5.510 -0.0169  2.2230  1.9994
    6MOL0     H  788   5.312   2.997   5.732 -1.8621 -0.9109 -1.0152
    6MOL0     H  789   5.211   3.143   5.736  1.7036  2.4345  0.1825
    6MOL0     H  790   5.404   3.274   5.695  0.0801  0.5015  3.1318
    6MOL0     H  791   5.507   3.138   5.676 -0.1484  0.8363 -0.7414
    6MOL0     H  792   5.857   3.276   5.465 -0.5115 -0.9409 -1.6571
    6MOL0     H  793   5.981   3.470   5.536  0.5263  2.9842  0.6057
    6MOL0     H  794   6.103   3.882   5.295 -1.8838 -0.5571  4.8719
    6MOL0     H  795   6.198   4.092   5.259 -0.7496  0.4527  0.4457
    6MOL0     H  796   5.586   4.125   4.770 -0.6181 -0.0819 -0.5286
    6MOL0     H  797   5.437   4.117   4.966 -0.8979 -0.0421  0.8891
    6MOL0     H  798   5.543   4.274   5.472 -0.8691  1.8048 -0.9044
    6MOL0     H  799   5.428   4.235   5.666 -0.1571  0.4694  0.7424
    6MOL0     H  800   5.219   4.068   5.859  1.7732 -1.4531 -2.4125
    6MOL0     H  801   5.273   4.230   5.837 -2.6265  3.2690 -0.4544
    6MOL0     H  802   5.057   4.325   5.860  1.7803  1.0032 -0.6651
    6MOL0     H  803   5.095   4.238   6.009 -0.0166 -2.5482  0.6454
    6MOL0     H  804   4.880   4.191   5.991 -3.1679  0.2664 -2.8099
    6MOL0     H  805   4.961   4.045   5.956  3.2140  2.1190  2.4738
    6MOL0     H  806   4.879   4.057   5.719  0.1001 -2.9838  1.7931
    6MOL0     H  807   4.867   4.230   5.736  1.0215 -0.8577 -1.7722
    6MOL0     H  808   4.512   4.135   5.944 -1.5923 -1.2441 -2.3658
    6MOL0     H  809   5.055   4.210   5.454 -0.2326  1.0104 -1.6187
    6MOL0     H  810   5.166   4.272   5.256 -2.0733 -0.5550  2.0408
    7MOL0     O  811   0.964  10.939   2.884  0.0510 -0.1798 -0.8586
    7MOL0     C  812   0.887  11.021   2.931  0.0199  0.6223  0.2572
    7MOL0     O  813   0.901  11.156   2.913 -0.3467  0.2702  0.0651
    7MOL0     C  814   1.021  11.219   2.933 -0.2290 -0.3346 -0.1922
    7MOL0     C  815   1.109  11.195   3.036 -0.3446  0.5487  0.3108
    7MOL0     C  816   1.224  11.275   3.058 -0.0044  1.2032  0.0998
    7MOL0     C  817   1.258  11.382   2.971  0.2479 -0.4209  0.4395
    7MOL0     O  818   1.362  11.470   2.983  0.9504 -0.0394 -0.2536
    7MOL0     C  819   1.332  11.609   2.990 -0.1530 -1.1965 -0.0060
    7MOL0     C  820   1.460  11.689   2.975 -0.1963  0.4030 -0.0595
    7MOL0     C  821   1.443  11.839   2.991  0.5437  0.6438 -0.3182
    7MOL0     C  822   1.424  11.887   3.135 -0.1864  0.3531  0.5735
    7MOL0     C  823   1.541  11.856   3.237  0.5567  0.8922  0.2479
    7MOL0     C  824   1.527  11.723   3.317 -0.6361  0.0169 -0.7365
    7MOL0     C  825   1.656  11.694   3.391 -0.0996  0.1521  0.5049
    7MOL0     C  826   1.654  11.543   3.430  0.5733  0.3035 -0.1908
    7MOL0     N  827   1.745  11.497   3.540  0.2912  1.0155 -0.9250
    7MOL0     C  828   1.877  11.474   3.524  0.1634  0.0656 -0.4128
    7MOL0     C  829   1.921  11.449   3.647  0.1604 -0.4696  0.0410
    7MOL0     C  830   2.051  11.388   3.678  0.4331 -0.3972  0.4616
    7MOL0     C  831   2.112  11.445   3.796  0.2126 -0.5826  0.1811
    7MOL0     C  832   2.264  11.417   3.814  0.4065  0.0173 -0.0677
    7MOL0     C  833   2.318  11.428   3.958 -0.2443 -0.2649 -0.3315
    7MOL0     O  834   2.439  11.362   3.986  0.6417 -0.1016 -0.3803
    7MOL0     C  835   2.552  11.408   3.938  0.1096  0.4537 -0.2483
    7MOL0     C  836   2.570  11.541   3.899 -0.1728  0.9000  0.9101
    7MOL0     C  837   2.692  11.585   3.830  0.2733 -0.0022 -0.8459
    7MOL0     C  838   2.693  11.736   3.780 -0.1667  0.3207 -0.8832
    7MOL0     C  839   2.798  11.497   3.799  0.2709  0.1047  1.1955
    7MOL0     C  840   2.929  11.537   3.740 -0.6947  0.4172 -0.8005
    7MOL0     O  841   3.020  11.443   3.743 -0.4579  0.3683 -0.5402
    7MOL0     C  842   3.154  11.483   3.765 -0.3389 -0.3951 -0.5496
    7MOL0     C  843   3.193  11.543   3.888 -0.1074 -0.3450 -0.0514
    7MOL0     C  844   3.331  11.565   3.925  0.6637  0.8873  0.0751
    7MOL0     C  845   3.425  11.528   3.833 -0.1198 -0.3636  0.5170
    7MOL0     O  846   3.559  11.572   3.848  0.5443 -0.0035 -0.4052
    7MOL0     C  847   3.616  11.575   3.980  0.6354  0.0152  0.2988
    7MOL0     C  848   3.767  11.564   3.964 -0.2346  1.1200  0.0622
    7MOL0     C  849   3.852  11.605   4.089 -0.4216  0.7760  0.3231
    7MOL0     C  850   3.808  11.543   4.215 -0.2564  0.3521  0.2758
    7MOL0     C  851   3.908  11.562   4.335  0.4865 -0.6208  0.6277
    7MOL0     C  852   3.915  11.705   4.387  0.8598 -0.5075 -0.2468
    7MOL0     C  853   4.056  11.737   4.439  0.6103  0.2897 -0.3169
    7MOL0     C  854   4.068  11.651   4.563  0.7727  0.3107 -0.2456
    7MOL0    Cl  855   4.220  11.672   4.655  0.3004  0.2932 -0.4485
    7MOL0     C  856   3.392  11.467   3.716  0.5601 -0.4905  0.1033
    7MOL0     C  857   3.253  11.445   3.682 -0.6387 -0.7079 -0.0119
    7MOL0     O  858   2.955  11.654   3.717  0.2757 -0.6058 -0.3161
    7MOL0     C  859   2.782  11.360   3.848  0.7231  1.3705 -0.5277
    7MOL0     C  860   2.660  11.322   3.915  0.6436  0.0277  0.5417
    7MOL0     N  861   1.812  11.464   3.734 -0.5946  0.6988  0.0662
    7MOL0     N  862   1.710  11.503   3.669  0.0391  0.3836 -1.3592
    7MOL0     C  863   1.159  11.413   2.876 -0.1456  0.0530 -0.5544
    7MOL0     C  864   1.050  11.330   2.857  0.1214 -0.3633 -0.4476
    7MOL0     C  865   0.772  10.961   2.983 -0.2792 -0.4767 -0.6572
    7MOL0     C  866   0.690  11.048   3.059 -0.7054  1.1435 -0.5820
    7MOL0     C  867   0.578  11.003   3.124  0.2547 -0.8918  0.6869
    7MOL0     C  868   0.537  10.870   3.129 -1.1238  0.3246  0.1035
    7MOL0     O  869   0.420  10.828   3.173 -0.1521  0.5399 -0.1907
    7MOL0     C  870   0.382  10.864   3.305 -0.1765  0.5417  0.6907
    7MOL0     C  871   0.415  10.754   3.409  0.1611  0.0617  0.0351
    7MOL0     C  872   0.549  10.686   3.404 -0.4899 -0.2030 -0.6444
    7MOL0     C  873   0.574  10.599   3.533  0.1073 -0.4739  0.0230
    7MOL0     C  874   0.691  10.518   3.529  0.1440 -0.4427  0.8520
    7MOL0     C  875   0.786  10.442   3.532  0.4691  0.1395  0.1903
    7MOL0     C  876   0.614  10.780   3.052 -0.0068 -0.0070  0.7912
    7MOL0     C  877   0.740  10.821   2.986  0.6190 -0.4856 -0.4557
    7MOL0     H  878   1.096  11.118   3.111  1.7678  0.6754  0.8517
    7MOL0     H  879   1.296  11.262   3.138 -0.8253  1.8503  0.9678
    7MOL0     H  880   1.273  11.661   2.913  0.3298  3.8590  2.6093
    7MOL0     H  881   1.290  11.629   3.089  1.7470  0.3187  0.5456
    7MOL0     H  882   1.543  11.658   3.039  0.1364  2.4610  0.5943
    7MOL0     H  883   1.488  11.666   2.872  0.9208 -2.5004  0.8098
    7MOL0     H  884   1.538  11.881   2.954  2.1752 -3.3777 -1.2354
    7MOL0     H  885   1.357  11.877   2.935 -0.2147 -0.2900  0.1933
    7MOL0     H  886   1.419  11.997   3.128  0.6672  0.3244 -0.8799
    7MOL0     H  887   1.329  11.858   3.181 -0.3952  0.3085  0.1230
    7MOL0     H  888   1.638  11.843   3.188  0.0326 -0.8592 -0.4244
    7MOL0     H  889   1.550  11.940   3.307  0.3570  2.0051 -1.0241
    7MOL0     H  890   1.448  11.743   3.389  2.2245  2.1906  2.0973
    7MOL0     H  891   1.499  11.640   3.253  0.9074 -0.7857 -0.4279
    7MOL0     H  892   1.741  11.724   3.330 -0.6060 -0.9232 -0.7960
    7MOL0     H  893   1.657  11.758   3.479  2.3534  1.3522 -0.3191
    7MOL0     H  894   1.679  11.482   3.342  1.0708  1.8378 -1.1484
    7MOL0     H  895   1.552  11.521   3.461  1.3118 -0.4565  1.8907
    7MOL0     H  896   1.924  11.465   3.427 -2.3254 -5.7448 -1.5133
    7MOL0     H  897   2.023  11.284   3.701  1.1960 -0.6866  0.1216
    7MOL0     H  898   2.108  11.399   3.585 -1.5518  0.9064 -0.6479
    7MOL0     H  899   2.061  11.408   3.885  3.2748 -0.2589  2.2141
    7MOL0     H  900   2.096  11.553   3.796  1.7852 -0.2912 -1.6539
    7MOL0     H  901   2.323  11.482   3.748  0.5240  1.9038  1.8005
    7MOL0     H  902   2.271  11.310   3.792  0.1742 -0.2031  0.9062
    7MOL0     H  903   2.251  11.384   4.032  2.3436  1.5152  3.3807
    7MOL0     H  904   2.320  11.530   3.997 -1.5077 -2.0204  5.2107
    7MOL0     H  905   2.496  11.619   3.913 -0.5633  0.5914  0.5890
    7MOL0     H  906   2.606  11.788   3.822  0.6028  0.3217  0.8259
    7MOL0     H  907   2.785  11.775   3.826  0.7014 -2.5685  0.0564
    7MOL0     H  908   2.693  11.750   3.672 -2.9718  1.8632 -0.7685
    7MOL0     H  909   3.116  11.582   3.953 -1.0632  0.0133 -1.3669
    7MOL0     H  910   3.357  11.603   4.023 -0.6202 -0.6304  1.0622
    7MOL0     H  911   3.581  11.673   4.014 -2.5398 -0.1467 -1.9853
    7MOL0     H  912   3.568  11.494   4.035 -1.7589 -1.1474 -3.0998
    7MOL0     H  913   3.784  11.459   3.938  0.5857  1.9871 -3.3842
    7MOL0     H  914   3.801  11.633   3.886  2.5862  0.2528  0.4219
    7MOL0     H  915   3.848  11.715   4.092 -2.4260  0.7760 -0.6238
    7MOL0     H  916   3.958  11.579   4.083 -0.3536  0.6264  1.7350
    7MOL0     H  917   3.709  11.589   4.231 -1.0633 -1.2066 -0.0271
    7MOL0     H  918   3.797  11.436   4.198  0.7081  0.6597 -3.0176
    7MOL0     H  919   4.001  11.531   4.288 -0.6886 -0.4559 -1.9999
    7MOL0     H  920   3.891  11.489   4.415 -0.7612 -1.4839 -0.3873
    7MOL0     H  921   3.887  11.780   4.313 -0.6018  1.1366  1.8469
    7MOL0     H  922   3.844  11.712   4.471 -0.0858 -0.8111 -0.9963
    7MOL0     H  923   4.069  11.838   4.478  2.6345  0.1301 -0.4602
    7MOL0     H  924   4.133  11.724   4.362  0.4900 -3.9662  0.0473
    7MOL0     H  925   4.071  11.546   4.529 -1.2288  0.0471  0.3178
    7MOL0     H  926   3.984  11.663   4.630  1.6028  2.5028  0.4772
    7MOL0     H  927   3.466  11.440   3.642  0.8216  0.5527 -0.0315
    7MOL0     H  928   3.236  11.378   3.598  0.2268 -0.8355 -0.1013
    7MOL0     H  929   2.853  11.278   3.849  0.0658  0.7116 -2.7440
    7MOL0     H  930   2.651  11.220   3.950  0.2864  0.0018  0.3825
    7MOL0     H  931   1.168  11.498   2.809 -1.8301 -0.8189 -1.9734
    7MOL0     H  932   0.992  11.354   2.768  2.2614 -0.7653 -2.0414
    7MOL0     H  933   0.726  11.150   3.064  0.6413  0.8188 -2.5175
    7MOL0     H  934   0.523  11.086   3.168  0.2290 -0.9237  0.7157
    7MOL0     H  935   0.437  10.954   3.331  1.3048  0.9336 -3.2156
    7MOL0     H  936   0.273  10.880   3.304 -0.3083 -0.2250 -0.8248
    7MOL0     H  937   0.348  10.669   3.394  2.6174 -1.8001 -1.0909
    7MOL0     H  938   0.393  10.791   3.510  1.9884 -0.7752  0.7781
    7MOL0     H  939   0.628  10.761   3.403  0.0339 -0.6785  1.5977
    7MOL0     H  940   0.551  10.621   3.316 -2.8575  1.3882 -2.0378
    7MOL0     H  941   0.487  10.535   3.549  1.8595 -3.1952 -0.6053
    7MOL0     H  942   0.583  10.665   3.620 -0.2463  1.2711 -1.2008
    7MOL0     H  943   0.873  10.381   3.518  1.3371  0.7846  2.3354
    7MOL0     H  944   0.579  10.678   3.042  0.9122 -0.3414  0.8443
    7MOL0     H  945   0.808  10.741   2.959 -2.9170 -3.1519 -2.4966
    8MOL0     O  946   6.952   9.389   2.431 -0.4645  0.7689 -0.1426
    8MOL0     C  947   6.887   9.327   2.345 -0.4795 -0.3786 -0.8332
    8MOL0     O  948   6.945   9.271   2.240 -0.4801 -0.6205 -0.5771
    8MOL0     C  949   7.042   9.329   2.158  0.3644 -0.3065  0.0810
    8MOL0     C  950   7.070   9.246   2.050 -0.2594 -0.3239 -0.4398
    8MOL0     C  951   7.171   9.291   1.960  0.2328  1.3831 -0.8933
    8MOL0     C  952   7.220   9.422   1.961 -0.1381  0.3637  0.6328
    8MOL0     O  953   7.304   9.481   1.872  0.4718 -0.3983 -0.0965
    8MOL0     C  954   7.293   9.430   1.739  1.0377 -0.0323 -0.1489
    8MOL0     C  955   7.381   9.513   1.645  0.0851  0.0082  0.2861
    8MOL0     C  956   7.359   9.489   1.500  0.0216  0.2603  0.0889
    8MOL0     C  957   7.478   9.538   1.418 -0.5371 -0.2562 -0.3597
    8MOL0     C  958   7.480   9.510   1.274  0.0165 -0.0564 -0.4408
    8MOL0     C  959   7.473   9.638   1.186 -0.6493 -0.0937 -0.5384
    8MOL0     C  960   7.476   9.602   1.047  0.7731  0.3478  0.5231
    8MOL0     C  961   7.470   9.714   0.941 -0.6760  0.3015  0.1098
    8MOL0     N  962   7.567   9.820   0.986 -0.8025 -0.1502  0.1063
    8MOL0     C  963   7.533   9.946   1.034  0.6570  0.0247  0.3772
    8MOL0     C  964   7.646   9.999   1.094  0.0304  0.0568 -0.1963
    8MOL0     C  965   7.662  10.142   1.147 -0.3637  0.1220  0.2496
    8MOL0     C  966   7.784  10.209   1.078 -1.3294  0.6508 -0.2244
    8MOL0     C  967   7.794  10.364   1.098  0.2382  0.3642 -0.4264
    8MOL0     C  968   7.912  10.420   1.042 -0.1344  0.4289 -0.0952
    8MOL0     O  969   7.887  10.560   1.003  0.0735  0.0772 -0.3020
    8MOL0     C  970   7.849  10.644   1.107  0.4470  0.6091  0.3744
    8MOL0     C  971   7.714  10.674   1.115 -0.5883 -1.4580  0.4692
    8MOL0     C  972   7.666  10.752   1.214  0.3597  0.5692 -0.8856
    8MOL0     C  973   7.516  10.786   1.201 -0.7236  0.8197  0.9469
    8MOL0     C  974   7.754  10.809   1.315  0.1630 -0.5010  0.3547
    8MOL0     C  975   7.705  10.909   1.426  0.1627  0.6880  0.6635
    8MOL0     O  976   7.772  10.917   1.546  0.3085 -0.3628  0.5918
    8MOL0     C  977   7.734  11.015   1.630 -0.2415  0.9576  0.2068
    8MOL0     C  978   7.812  11.130   1.631  0.0416  0.3852 -0.2656
    8MOL0     C  979   7.777  11.231   1.718 -0.2764  0.0479  0.4678
    8MOL0     C  980   7.667  11.219   1.806  0.6443 -0.7990 -0.0598
    8MOL0     O  981   7.637  11.326   1.886  0.5445 -0.1492  0.0136
    8MOL0     C  982   7.515  11.321   1.970 -0.3253 -0.4495 -0.4391
    8MOL0     C  983   7.383  11.345   1.899  0.4068  0.9543 -0.1741
    8MOL0     C  984   7.341  11.485   1.857  0.6913  1.0027 -0.6837
    8MOL0     C  985   7.205  11.464   1.787 -0.2593  0.1962 -0.4139
    8MOL0     C  986   7.139  11.601   1.755  0.3116 -0.0244  0.2750
    8MOL0     C  987   7.183  11.651   1.616  0.4986  0.3183 -0.3031
    8MOL0     C  988   7.153  11.561   1.491  0.5538 -0.0700 -0.2664
    8MOL0     C  989   7.012  11.497   1.486  0.9559 -0.0403  1.1164
    8MOL0    Cl  990   7.013  11.408   1.336  0.1424  0.1229  0.6553
    8MOL0     C  991   7.583  11.102   1.803  0.2374  0.8799  0.2172
    8MOL0     C  992   7.624  10.999   1.716 -0.8515 -0.4373  0.5345
    8MOL0     O  993   7.608  10.983   1.394 -0.2479 -0.3063  0.3354
    8MOL0     C  994   7.888  10.765   1.315  0.7791  0.6728 -1.0791
    8MOL0     C  995   7.942  10.690   1.204  1.2424  0.4887  0.0758
    8MOL0     N  996   7.738   9.901   1.077  0.7562  0.2898  0.3238
    8MOL0     N  997   7.697   9.793   1.007 -0.0156 -0.4091 -0.3316
    8MOL0     C  998   7.181   9.501   2.078 -0.0813 -0.2035  1.0521
    8MOL0     C  999   7.098   9.447   2.178  0.6236 -0.2959 -0.3865
    8MOL0     C 1000   6.740   9.296   2.379 -0.7116 -0.6215  0.5734
    8MOL0     C 1001   6.656   9.265   2.276  0.2867  0.3379  0.5305
    8MOL0     C 1002   6.519   9.271   2.289  0.0200  0.4288  1.2656
    8MOL0     C 1003   6.461   9.293   2.416 -0.1589 -0.8078 -0.2926
    8MOL0     O 1004   6.334   9.278   2.446  0.2843  0.1797  0.6132
    8MOL0     C 1005   6.243   9.239   2.339 -0.0374 -0.0683  0.4748
    8MOL0     C 1006   6.107   9.195   2.391 -0.9251  0.5093 -0.0502
    8MOL0     C 1007   6.004   9.165   2.280  0.0343  0.0377  0.5537
    8MOL0     C 1008   6.035   9.054   2.181 -0.4154 -0.2670 -0.0584
    8MOL0     C 1009   6.107   8.951   2.243 -0.6903 -1.1874 -1.3192
    8MOL0     C 1010   6.171   8.873   2.310  0.3179 -0.1252 -0.6528
    8MOL0     C 1011   6.541   9.342   2.519 -0.5419  0.8151 -0.4544
    8MOL0     C 1012   6.678   9.332   2.505  0.2013  0.0948  0.2477
    8MOL0     H 1013   7.037   9.143   2.043  2.0317 -1.2640  1.0738
    8MOL0     H 1014   7.195   9.221   1.881 -1.8219  0.5405 -0.8442
    8MOL0     H 1015   7.338   9.332   1.752  1.9820  0.6675  2.7147
    8MOL0     H 1016   7.193   9.435   1.695  2.4185  3.0234 -3.4890
    8MOL0     H 1017   7.381   9.621   1.658 -0.4320  0.1407 -0.6913
    8MOL0     H 1018   7.480   9.477   1.673 -0.4752 -1.7730  0.0893
    8MOL0     H 1019   7.358   9.381   1.486  3.0568  0.3805 -1.9504
    8MOL0     H 1020   7.268   9.540   1.468  1.1114  2.8458  0.8496
    8MOL0     H 1021   7.475   9.646   1.434  0.2063 -0.4413  1.1494
    8MOL0     H 1022   7.573   9.507   1.461 -0.1678  0.3006 -0.7467
    8MOL0     H 1023   7.570   9.449   1.258  0.2391 -0.2158  1.1966
    8MOL0     H 1024   7.391   9.453   1.248 -0.6889  0.9940 -0.3626
    8MOL0     H 1025   7.378   9.689   1.203 -0.7118 -0.4247  0.1772
    8MOL0     H 1026   7.560   9.701   1.206 -0.6008  0.0011 -1.0408
    8MOL0     H 1027   7.565   9.541   1.031  0.0320 -0.0222 -2.8194
    8MOL0     H 1028   7.396   9.532   1.021  2.6074 -1.6809  0.0304
    8MOL0     H 1029   7.369   9.756   0.935 -0.1037  2.2061  2.3769
    8MOL0     H 1030   7.522   9.688   0.849  1.1112 -0.0358  1.1815
    8MOL0     H 1031   7.433   9.984   1.020  0.4278  1.8967  5.2812
    8MOL0     H 1032   7.575  10.206   1.131  1.3243  2.6217  0.5037
    8MOL0     H 1033   7.693  10.147   1.252  2.6326  0.1737 -0.5517
    8MOL0     H 1034   7.792  10.179   0.973 -2.2728  1.2715 -0.4887
    8MOL0     H 1035   7.868  10.166   1.133 -2.7402  0.6888  2.0822
    8MOL0     H 1036   7.785  10.392   1.204 -0.4248  2.8193 -1.0559
    8MOL0     H 1037   7.703  10.404   1.052 -0.1283 -0.7896 -0.7142
    8MOL0     H 1038   7.940  10.362   0.953 -2.4432  0.6271 -1.0204
    8MOL0     H 1039   7.995  10.407   1.112 -1.1576  0.5950  1.2083
    8MOL0     H 1040   7.661  10.627   1.033  0.6313  0.3240 -1.4500
    8MOL0     H 1041   7.463  10.701   1.158  2.5578  0.3241 -2.7718
    8MOL0     H 1042   7.481  10.808   1.302 -0.4638 -4.0736  2.4026
    8MOL0     H 1043   7.502  10.873   1.136 -0.5153  0.5598  0.5465
    8MOL0     H 1044   7.887  11.150   1.555  2.1614  0.8024  1.7785
    8MOL0     H 1045   7.815  11.333   1.708 -1.7789  0.6964  1.0147
    8MOL0     H 1046   7.509  11.222   2.017  0.8029 -1.8251 -2.9573
    8MOL0     H 1047   7.533  11.398   2.045 -1.6550  0.2973 -0.8421
    8MOL0     H 1048   7.391  11.288   1.806  0.2302 -1.5624  1.2589
    8MOL0     H 1049   7.301  11.316   1.965 -0.4495  2.3372 -0.5907
    8MOL0     H 1050   7.410  11.536   1.790  0.4504  4.7852  1.6545
    8MOL0     H 1051   7.319  11.543   1.947 -2.1823 -1.1727  0.1585
    8MOL0     H 1052   7.226  11.401   1.700  1.3000  1.4680 -1.0188
    8MOL0     H 1053   7.134  11.403   1.843  0.1313 -0.8541 -1.0344
    8MOL0     H 1054   7.163  11.684   1.822  1.9321 -0.1973 -0.0588
    8MOL0     H 1055   7.030  11.591   1.751  0.3374 -0.4117  0.5329
    8MOL0     H 1056   7.132  11.747   1.608  0.4698  0.6558  2.7484
    8MOL0     H 1057   7.292  11.659   1.623  0.6167 -0.9461 -0.5657
    8MOL0     H 1058   7.230  11.484   1.475 -1.9276 -1.9303 -5.0275
    8MOL0     H 1059   7.171  11.624   1.404  1.3936 -0.7172 -0.5848
    8MOL0     H 1060   6.936  11.574   1.500  2.5427  2.2969 -1.9628
    8MOL0     H 1061   6.997  11.430   1.571  1.4084  1.0956  2.1128
    8MOL0     H 1062   7.492  11.084   1.859 -0.6116 -2.9347 -2.0321
    8MOL0     H 1063   7.577  10.901   1.716  0.5220 -1.1180  0.1339
    8MOL0     H 1064   7.964  10.801   1.384  1.5308 -0.9643 -1.0227
    8MOL0     H 1065   8.048  10.669   1.210  0.9561 -0.8819  0.9626
    8MOL0     H 1066   7.244   9.587   2.100  1.2144 -0.2458 -1.9967
    8MOL0     H 1067   7.077   9.509   2.265 -0.4168 -0.1792 -0.7108
    8MOL0     H 1068   6.686   9.233   2.177  1.3824 -0.0304  0.9636
    8MOL0     H 1069   6.460   9.255   2.200  0.2211 -0.4580  1.2854
    8MOL0     H 1070   6.216   9.326   2.279 -1.2513  0.1812  1.3558
    8MOL0     H 1071   6.287   9.163   2.273 -1.2049  0.4701 -0.9847
    8MOL0     H 1072   6.068   9.272   2.459 -1.7890  0.7666 -0.8068
    8MOL0     H 1073   6.119   9.102   2.447  3.2073  0.2839 -1.0350
    8MOL0     H 1074   5.979   9.256   2.225 -0.8641  0.3084  1.3838
    8MOL0     H 1075   5.912   9.139   2.334  0.1047  0.3577  0.8369
    8MOL0     H 1076   6.103   9.098   2.107  0.9789  1.2531  2.0071
    8MOL0     H 1077   5.948   9.005   2.136  0.1743  1.2839 -3.2190
    8MOL0     H 1078   6.230   8.806   2.369 -2.0990  0.4770  2.7238
    8MOL0     H 1079   6.493   9.372   2.611 -2.7692  0.0849 -1.3204
    8MOL0     H 1080   6.735   9.361   2.594  1.2923 -0.8995 -0.0996
    9MOL0     O 1081   1.879   4.593   8.256  0.0977 -0.0534 -0.4192
    9MOL0     C 1082   1.894   4.680   8.344 -0.0010 -0.3461  0.0801
    9MOL0     O 1083   1.821   4.794   8.354 -0.5952  0.1358 -0.2349
    9MOL0     C 1084   1.701   4.803   8.286 -0.6141 -0.0344 -0.6644
    9MOL0     C 1085   1.579   4.818   8.349 -0.5339 -0.1618 -0.3586
    9MOL0     C 1086   1.461   4.834   8.277  1.4796 -0.1248 -0.1495
    9MOL0     C 1087   1.461   4.852   8.136  0.1133  0.6941  0.4937
    9MOL0     O 1088   1.354   4.865   8.058  0.3709  0.5334  0.8183
    9MOL0     C 1089   1.241   4.937   8.109 -0.4126 -0.2367  0.3053
    9MOL0     C 1090   1.113   4.918   8.024  0.0336  0.1139  0.3778
    9MOL0     C 1091   0.999   4.998   8.086  0.1813  0.0235 -0.3478
    9MOL0     C 1092   0.874   5.028   8.011  0.2830  0.1199 -0.2115
    9MOL0     C 1093   0.759   5.073   8.101 -0.3890 -0.8365  0.3498
    9MOL0     C 1094   0.670   4.961   8.166 -0.5603 -0.7457  0.5524
    9MOL0     C 1095   0.559   5.032   8.241 -0.8433  0.3706  0.1319
    9MOL0     C 1096   0.451   5.097   8.153 -0.2416 -0.4777 -0.1830
    9MOL0     N 1097   0.341   5.132   8.244 -0.3732 -0.2663  0.7928
    9MOL0     C 1098   0.309   5.258   8.289  0.1411 -0.2120 -0.4047
    9MOL0     C 1099   0.190   5.232   8.346  0.4230  0.0072  0.6763
    9MOL0     C 1100   0.103   5.333   8.417  0.0314  0.2486 -0.4338
    9MOL0     C 1101  -0.030   5.347   8.364  0.2654  0.7145 -0.4290
    9MOL0     C 1102  -0.041   5.386   8.211 -0.0989  0.5428  0.2796
    9MOL0     C 1103  -0.186   5.371   8.147 -0.7546 -0.2905 -1.6777
    9MOL0     O 1104  -0.263   5.480   8.205 -0.6123 -0.5496  0.1175
    9MOL0     C 1105  -0.400   5.484   8.165  0.1256 -0.3404 -0.1964
    9MOL0     C 1106  -0.483   5.369   8.159  0.2509  1.3366  0.1016
    9MOL0     C 1107  -0.623   5.385   8.130  0.3429 -0.3485 -0.1858
    9MOL0     C 1108  -0.710   5.263   8.143  0.3722 -0.8661  0.4215
    9MOL0     C 1109  -0.680   5.520   8.124 -0.9801 -0.7034  0.1635
    9MOL0     C 1110  -0.823   5.553   8.107  0.6493 -0.4261  1.0229
    9MOL0     O 1111  -0.850   5.679   8.072 -0.0996 -0.5307  0.1557
    9MOL0     C 1112  -0.974   5.744   8.074 -1.0685 -0.2621 -0.4114
    9MOL0     C 1113  -1.098   5.680   8.088 -0.7639  0.3607  0.1130
    9MOL0     C 1114  -1.216   5.745   8.085 -0.2058  0.7206 -0.1226
    9MOL0     C 1115  -1.220   5.885   8.074 -1.5724  0.0268  0.5626
    9MOL0     O 1116  -1.353   5.942   8.084 -1.1033 -1.0671  0.1510
    9MOL0     C 1117  -1.359   6.084   8.083  1.0009 -0.5946  0.7485
    9MOL0     C 1118  -1.501   6.122   8.128 -0.1333 -0.3391 -0.3245
    9MOL0     C 1119  -1.516   6.077   8.276 -0.2332 -0.7189  0.1678
    9MOL0     C 1120  -1.622   5.968   8.287 -1.0821  0.1756  0.3129
    9MOL0     C 1121  -1.656   5.923   8.433  0.7345  0.1648  0.4778
    9MOL0     C 1122  -1.760   5.814   8.418  0.5308 -0.4528  0.4127
    9MOL0     C 1123  -1.846   5.810   8.540  0.3156 -0.0046  0.6036
    9MOL0     C 1124  -1.955   5.701   8.522  0.3412  0.2825  0.4949
    9MOL0    Cl 1125  -2.049   5.713   8.668  0.0308  0.0639 -0.0387
    9MOL0     C 1126  -1.100   5.949   8.053  0.6449 -0.2653  0.7479
    9MOL0     C 1127  -0.979   5.887   8.051  0.4025  0.7206 -0.9400
    9MOL0     O 1128  -0.903   5.470   8.153 -0.4649  0.1911  0.4964
    9MOL0     C 1129  -0.595   5.626   8.134  0.0852  0.3374 -0.1788
    9MOL0     C 1130  -0.452   5.611   8.142 -0.2789 -0.4078 -0.7239
    9MOL0     N 1131   0.150   5.109   8.326 -0.7300  0.0431 -0.6520
    9MOL0     N 1132   0.244   5.043   8.271  0.1906 -1.1302  0.5375
    9MOL0     C 1133   1.580   4.823   8.070 -0.6340  0.2594 -0.2765
    9MOL0     C 1134   1.701   4.803   8.145 -0.7754 -0.4184 -0.8760
    9MOL0     C 1135   2.012   4.654   8.430  0.0584  0.1158  0.5278
    9MOL0     C 1136   2.033   4.728   8.545 -0.5877 -0.8054 -0.3051
    9MOL0     C 1137   2.130   4.702   8.640 -0.2850  0.9139  0.2524
    9MOL0     C 1138   2.217   4.593   8.617  0.1352  0.1610  0.1289
    9MOL0     O 1139   2.312   4.557   8.711 -0.2985  0.1132 -0.5375
    9MOL0     C 1140   2.344   4.659   8.815 -1.3555 -0.3790 -0.0864
    9MOL0     C 1141   2.471   4.630   8.885  0.4387 -1.0457 -0.0881
    9MOL0     C 1142   2.475   4.499   8.962 -0.3513  0.8575 -0.2960
    9MOL0     C 1143   2.626   4.485   8.992 -0.4659  0.0681 -0.2597
    9MOL0     C 1144   2.665   4.566   9.107  0.2565 -0.1414 -0.6389
    9MOL0     C 1145   2.682   4.627   9.205  0.2701 -0.6802  0.0124
    9MOL0     C 1146   2.201   4.514   8.503 -0.1864  1.0910  0.6865
    9MOL0     C 1147   2.097   4.540   8.413 -0.0778 -0.3800 -0.0929
    9MOL0     H 1148   1.573   4.828   8.457  0.1523 -0.9417 -0.2411
    9MOL0     H 1149   1.374   4.854   8.339  1.4043  1.8465 -0.8115
    9MOL0     H 1150   1.226   4.922   8.216  1.4061  3.8555  1.3355
    9MOL0     H 1151   1.260   5.044   8.096 -1.2175 -0.0094  0.8940
    9MOL0     H 1152   1.133   4.957   7.924  1.4611 -1.8097 -0.1311
    9MOL0     H 1153   1.090   4.812   8.016 -1.6394  0.5209 -0.9455
    9MOL0     H 1154   0.969   4.943   8.176  1.1509 -1.8823 -1.1393
    9MOL0     H 1155   1.048   5.092   8.114  0.2551  0.4984 -1.9952
    9MOL0     H 1156   0.905   5.108   7.943  2.8943 -0.6037  0.0145
    9MOL0     H 1157   0.842   4.942   7.951 -3.5974  0.7329  0.7102
    9MOL0     H 1158   0.806   5.141   8.173  1.3755 -1.0881 -0.4950
    9MOL0     H 1159   0.691   5.125   8.033  0.3599  0.2830  0.4198
    9MOL0     H 1160   0.612   4.910   8.088  0.7077 -4.5025  1.8358
    9MOL0     H 1161   0.728   4.889   8.224 -1.8370 -2.6585 -0.4228
    9MOL0     H 1162   0.513   4.967   8.317 -1.9651  2.3574  1.2562
    9MOL0     H 1163   0.616   5.098   8.307  0.5412 -0.8076  0.1618
    9MOL0     H 1164   0.418   5.028   8.075 -4.7254  0.1024  0.9348
    9MOL0     H 1165   0.485   5.182   8.093  1.7995 -0.5111  0.8422
    9MOL0     H 1166   0.374   5.344   8.273  3.7737 -2.7947 -0.6689
    9MOL0     H 1167   0.096   5.304   8.522  2.0764 -1.4965 -0.7067
    9MOL0     H 1168   0.150   5.426   8.385 -2.9449  1.1960 -2.5105
    9MOL0     H 1169  -0.087   5.413   8.428 -3.8098 -1.9624 -0.9511
    9MOL0     H 1170  -0.083   5.252   8.374 -0.9971  1.6170  2.4344
    9MOL0     H 1171   0.027   5.321   8.155 -1.7266 -4.2951  3.3475
    9MOL0     H 1172  -0.007   5.490   8.202  1.4295 -0.0491 -1.4544
    9MOL0     H 1173  -0.234   5.277   8.174 -0.9145  0.7289  2.1168
    9MOL0     H 1174  -0.177   5.394   8.040  3.2463  1.9952 -1.0463
    9MOL0     H 1175  -0.437   5.271   8.165 -2.2704  0.0561 -0.1596
    9MOL0     H 1176  -0.656   5.175   8.107 -0.1836 -0.1277 -2.4926
    9MOL0     H 1177  -0.737   5.252   8.249 -0.4227  0.6409  0.4069
    9MOL0     H 1178  -0.800   5.276   8.083  1.0906  1.8873 -0.1820
    9MOL0     H 1179  -1.105   5.572   8.098 -0.0819  0.3324  0.3804
    9MOL0     H 1180  -1.307   5.686   8.091 -0.2867  0.2911 -3.4877
    9MOL0     H 1181  -1.276   6.118   8.147  2.5474  2.2406 -2.4795
    9MOL0     H 1182  -1.351   6.130   7.985 -0.5877  0.7078  1.1758
    9MOL0     H 1183  -1.510   6.231   8.129 -2.2891 -0.4553  1.3970
    9MOL0     H 1184  -1.571   6.083   8.053  1.3112  1.1686 -2.5923
    9MOL0     H 1185  -1.554   6.157   8.340  0.1224  0.4831 -1.0656
    9MOL0     H 1186  -1.416   6.058   8.317  1.6132  2.9141 -2.0979
    9MOL0     H 1187  -1.708   6.013   8.237  0.3238  1.0027 -1.4547
    9MOL0     H 1188  -1.588   5.884   8.225  1.0150  1.7017 -0.7151
    9MOL0     H 1189  -1.709   6.009   8.476 -0.5981  0.1910 -1.0962
    9MOL0     H 1190  -1.576   5.892   8.500  0.5749  3.2185  2.2656
    9MOL0     H 1191  -1.825   5.833   8.331  0.4186 -1.7054  0.2126
    9MOL0     H 1192  -1.714   5.718   8.395  0.3877  0.1082 -2.6846
    9MOL0     H 1193  -1.902   5.903   8.555 -3.1893 -1.5393 -1.6113
    9MOL0     H 1194  -1.788   5.792   8.631  0.2340 -1.8429  0.3362
    9MOL0     H 1195  -1.894   5.611   8.518  0.8664  0.4460  2.9945
    9MOL0     H 1196  -2.016   5.717   8.433  0.5301 -1.6797 -0.0172
    9MOL0     H 1197  -1.097   6.057   8.036 -0.5460  0.3857  4.0268
    9MOL0     H 1198  -0.888   5.945   8.058  2.3820 -1.8158 -3.1546
    9MOL0     H 1199  -0.633   5.727   8.147  2.2414  0.9122  2.6035
    9MOL0     H 1200  -0.393   5.699   8.168 -0.2640  0.9705 -4.6396
    9MOL0     H 1201   1.591   4.799   7.964  2.1603 -1.1000  0.2506
    9MOL0     H 1202   1.787   4.791   8.080 -0.4917  2.0243 -1.0567
    9MOL0     H 1203   1.970   4.815   8.564  1.6243  1.5364 -2.8745
    9MOL0     H 1204   2.136   4.777   8.718 -1.0120 -0.4888  1.7160
    9MOL0     H 1205   2.356   4.755   8.764 -0.2937 -0.8519 -0.7565
    9MOL0     H 1206   2.261   4.667   8.886 -0.1214  0.8930  1.2801
    9MOL0     H 1207   2.489   4.720   8.944  0.6821 -0.2751 -1.2939
    9MOL0     H 1208   2.545   4.651   8.806 -1.2783  0.9512 -1.2831
    9MOL0     H 1209   2.442   4.419   8.895  1.3866  0.5940 -0.8981
    9MOL0     H 1210   2.415   4.511   9.053 -0.3558 -0.2267 -0.1467
    9MOL0     H 1211   2.691   4.511   8.908 -1.9784  0.4121 -1.3565
    9MOL0     H 1212   2.639   4.377   9.009 -0.3287 -1.0748 -5.6442
    9MOL0     H 1213   2.692   4.692   9.290  3.0332  0.2663 -0.9550
    9MOL0     H 1214   2.273   4.438   8.476  0.6529  3.0327 -3.2527
    9MOL0     H 1215   2.071   4.478   8.328 -1.1984 -2.9903  1.9964
   10MOL0     O 1216   5.307   7.165   1.281  0.6511 -0.2656 -0.0203
   10MOL0     C 1217   5.279   7.265   1.215  0.1863  0.3271 -0.0238
   10MOL0     O 1218   5.367   7.372   1.196  0.1220  0.1010  0.1317
   10MOL0     C 1219   5.499   7.365   1.236  0.1309 -0.1673 -0.3080
   10MOL0     C 1220   5.528   7.332   1.364 -0.1087  0.1862 -0.5404
   10MOL0     C 1221   5.658   7.346   1.417  0.2809 -0.1256  1.3823
   10MOL0     C 1222   5.764   7.402   1.352 -0.0355 -0.4663  0.6933
   10MOL0     O 1223   5.884   7.393   1.424 -0.1299  0.0287  0.6993
   10MOL0     C 1224   6.005   7.423   1.357 -0.0009  0.6223  0.4072
   10MOL0     C 1225   6.031   7.569   1.353  0.6188 -0.6097 -0.7193
   10MOL0     C 1226   6.183   7.618   1.326 -0.8949 -0.6258  0.0438
   10MOL0     C 1227   6.206   7.766   1.315  0.5560  0.6684 -0.0405
   10MOL0     C 1228   6.125   7.849   1.398 -0.2198  0.1329  0.3763
   10MOL0     C 1229   6.157   8.007   1.379  0.4979  0.3807  0.6561
   10MOL0     C 1230   6.095   8.102   1.479 -0.2037  0.5869 -0.3523
   10MOL0     C 1231   6.099   8.245   1.424  0.2980  0.3544 -0.3903
   10MOL0     N 1232   5.977   8.318   1.468  0.1756 -0.0009 -0.0743
   10MOL0     C 1233   5.897   8.389   1.385 -0.9749 -0.6633  0.1500
   10MOL0     C 1234   5.795   8.422   1.457 -0.6227 -0.4747 -0.8643
   10MOL0     C 1235   5.680   8.492   1.397 -0.0769  0.0261 -0.1074
   10MOL0     C 1236   5.547   8.417   1.398 -0.0643 -1.3718 -0.4803
   10MOL0     C 1237   5.440   8.504   1.332 -0.8107 -0.5301  0.3514
   10MOL0     C 1238   5.419   8.476   1.177 -0.3649 -0.1629  0.4499
   10MOL0     O 1239   5.535   8.535   1.110 -0.7051 -0.6521 -0.5173
   10MOL0     C 1240   5.539   8.522   0.972  0.4607 -0.9450 -0.7954
   10MOL0     C 1241   5.425   8.529   0.888  0.0870  1.2479  0.3206
   10MOL0     C 1242   5.426   8.554   0.748 -0.3764  0.0856 -0.8427
   10MOL0     C 1243   5.303   8.512   0.675 -1.3339  0.9409  0.4199
   10MOL0     C 1244   5.552   8.593   0.684 -0.2830  0.0536  0.4818
   10MOL0     C 1245   5.577   8.611   0.537 -0.2821  0.8885 -0.6314
   10MOL0     O 1246   5.706   8.612   0.485  0.2829 -0.1395 -0.5389
   10MOL0     C 1247   5.719   8.662   0.360 -0.8211 -0.7776 -0.5115
   10MOL0     C 1248   5.771   8.793   0.351 -0.1722 -0.1971  1.3442
   10MOL0     C 1249   5.782   8.855   0.224 -0.3645 -0.0135  0.3533
   10MOL0     C 1250   5.753   8.794   0.105  0.4697 -0.5091 -0.4884
   10MOL0     O 1251   5.780   8.824  -0.028  0.2027  0.5276  0.1136
   10MOL0     C 1252   5.865   8.931  -0.058  0.8339  0.1526 -0.9092
   10MOL0     C 1253   5.763   9.049  -0.101  0.5248  0.5480 -0.0762
   10MOL0     C 1254   5.699   9.024  -0.231 -0.5642 -0.7390 -0.3642
   10MOL0     C 1255   5.570   8.938  -0.222 -0.5812 -0.6306 -0.0740
   10MOL0     C 1256   5.484   8.920  -0.347 -0.6816 -0.7161  0.7599
   10MOL0     C 1257   5.384   9.044  -0.350  0.2965  1.2433  0.4245
   10MOL0     C 1258   5.261   8.992  -0.429 -1.0290 -0.2850  0.5224
   10MOL0     C 1259   5.153   9.103  -0.460 -0.4161  1.1538 -0.0134
   10MOL0    Cl 1260   5.202   9.247  -0.554  0.3787  0.3000 -0.6883
   10MOL0     C 1261   5.708   8.656   0.117 -0.3499 -0.5766 -0.0614
   10MOL0     C 1262   5.681   8.599   0.240 -0.0452  0.1645 -0.0015
   10MOL0     O 1263   5.473   8.639   0.469 -0.5371  0.2046 -1.4293
   10MOL0     C 1264   5.671   8.571   0.768  0.7077 -0.1065 -0.0075
   10MOL0     C 1265   5.663   8.542   0.906  0.6772  0.5128  0.5724
   10MOL0     N 1266   5.807   8.374   1.589  0.2480 -0.0697 -0.3808
   10MOL0     N 1267   5.919   8.307   1.595 -0.6196 -0.8020 -0.6388
   10MOL0     C 1268   5.737   7.455   1.225  0.0054  0.0020  0.2794
   10MOL0     C 1269   5.608   7.431   1.166 -0.4744  0.5514 -0.1166
   10MOL0     C 1270   5.145   7.263   1.151 -0.6185  0.5275  0.1757
   10MOL0     C 1271   5.047   7.153   1.158  0.1857  0.1769  0.6428
   10MOL0     C 1272   4.917   7.162   1.110  0.1884 -0.1676 -0.0077
   10MOL0     C 1273   4.874   7.279   1.051 -0.0168  0.3075  0.1096
   10MOL0     O 1274   4.755   7.277   0.981  0.4983  0.0500 -0.8155
   10MOL0     C 1275   4.650   7.303   1.068  0.0879 -0.1221  0.1575
   10MOL0     C 1276   4.519   7.306   0.996 -0.1617 -0.6285  0.4227
   10MOL0     C 1277   4.416   7.203   1.035 -0.9449  0.6337  0.6829
   10MOL0     C 1278   4.463   7.060   1.018 -0.6842  0.1828 -0.0218
   10MOL0     C 1279   4.372   6.963   1.091 -0.5200  0.5592  0.3322
   10MOL0     C 1280   4.285   6.917   1.155 -0.2190 -0.0792  0.3655
   10MOL0     C 1281   4.958   7.388   1.047 -1.3599  0.0258 -1.0349
   10MOL0     C 1282   5.092   7.386   1.092  0.8007 -0.7976 -1.1018
   10MOL0     H 1283   5.451   7.280   1.419 -2.0919  1.2706 -2.1733
   10MOL0     H 1284   5.672   7.314   1.519  0.6952 -0.8369  1.1070
   10MOL0     H 1285   6.090   7.374   1.408  0.9595  1.3424 -0.4676
   10MOL0     H 1286   6.004   7.374   1.259  3.1780 -2.3518  1.6100
   10MOL0     H 1287   5.967   7.618   1.280 -2.3463 -0.7771  1.6028
   10MOL0     H 1288   6.008   7.610   1.452 -0.1868  1.6415 -1.7903
   10MOL0     H 1289   6.248   7.580   1.405 -1.2714  2.1590  1.8549
   10MOL0     H 1290   6.226   7.578   1.235  1.2157  0.1778  0.6336
   10MOL0     H 1291   6.311   7.791   1.331  0.6856 -0.2580  0.6470
   10MOL0     H 1292   6.185   7.792   1.211 -2.5795  2.0677  0.8005
   10MOL0     H 1293   6.023   7.821   1.370  0.6126 -2.5178 -0.2866
   10MOL0     H 1294   6.140   7.820   1.502 -1.9256  0.3087  0.6978
   10MOL0     H 1295   6.266   8.012   1.385  0.8480 -3.7307  0.6879
   10MOL0     H 1296   6.131   8.022   1.274  0.1517 -3.2076  0.0864
   10MOL0     H 1297   5.992   8.063   1.481 -0.2668  0.4004 -2.9207
   10MOL0     H 1298   6.149   8.094   1.573  1.3291 -1.3363 -1.3191
   10MOL0     H 1299   6.097   8.245   1.315  3.9574  0.7594 -0.5935
   10MOL0     H 1300   6.193   8.285   1.465  0.8937 -1.5363  0.1828
   10MOL0     H 1301   5.910   8.409   1.279  2.4763  0.1793  0.6248
   10MOL0     H 1302   5.657   8.576   1.464 -1.5666 -2.3451  2.6013
   10MOL0     H 1303   5.700   8.527   1.296 -0.6799 -2.3086 -1.1158
   10MOL0     H 1304   5.514   8.400   1.501 -3.7262 -0.3127 -1.3429
   10MOL0     H 1305   5.551   8.317   1.354 -1.6575 -1.7699  0.2244
   10MOL0     H 1306   5.462   8.610   1.343 -0.9865 -0.3024 -1.2643
   10MOL0     H 1307   5.351   8.490   1.394 -3.0070 -1.9724 -2.8410
   10MOL0     H 1308   5.326   8.523   1.146  0.4444 -0.3431 -2.5818
   10MOL0     H 1309   5.412   8.370   1.153 -1.2551  0.2412 -1.2159
   10MOL0     H 1310   5.342   8.476   0.934  1.2011  0.5175  1.6030
   10MOL0     H 1311   5.322   8.453   0.585 -1.7250  3.7235 -1.6381
   10MOL0     H 1312   5.237   8.446   0.732  1.0289 -2.0412 -0.0694
   10MOL0     H 1313   5.246   8.600   0.643 -2.1036 -0.1001 -1.2231
   10MOL0     H 1314   5.794   8.850   0.441 -4.5568  1.9529  1.3724
   10MOL0     H 1315   5.830   8.952   0.217 -0.3593 -0.0583 -0.3315
   10MOL0     H 1316   5.912   8.969   0.033 -0.7123  1.0842 -0.4636
   10MOL0     H 1317   5.937   8.911  -0.138  0.8392 -1.0055 -0.6306
   10MOL0     H 1318   5.693   9.062  -0.018  0.2074 -2.0846  0.1507
   10MOL0     H 1319   5.821   9.141  -0.109 -0.2741  0.9134 -2.2823
   10MOL0     H 1320   5.768   8.977  -0.301 -0.3352 -1.8237  0.5474
   10MOL0     H 1321   5.681   9.120  -0.279  1.1391 -1.2690 -2.1660
   10MOL0     H 1322   5.610   8.836  -0.222 -0.0375 -0.4774  2.2486
   10MOL0     H 1323   5.517   8.959  -0.129  0.2790 -0.3031  0.3571
   10MOL0     H 1324   5.439   8.821  -0.348 -3.0277  0.2653 -1.3309
   10MOL0     H 1325   5.546   8.913  -0.436 -0.6203 -0.7985  0.8094
   10MOL0     H 1326   5.348   9.074  -0.251  1.2327  1.8417  0.5959
   10MOL0     H 1327   5.431   9.134  -0.390 -0.9468  1.5900 -0.2974
   10MOL0     H 1328   5.224   8.913  -0.363  0.7053 -0.9741  0.7200
   10MOL0     H 1329   5.292   8.940  -0.520 -1.8523  2.7051 -1.6447
   10MOL0     H 1330   5.111   9.148  -0.370  0.0700  2.9799 -0.6495
   10MOL0     H 1331   5.073   9.055  -0.516  0.8994 -0.2405 -0.7824
   10MOL0     H 1332   5.682   8.606   0.025  1.3602  0.9739 -1.4651
   10MOL0     H 1333   5.632   8.503   0.252 -0.9431  0.5622 -0.4250
   10MOL0     H 1334   5.773   8.588   0.738  0.7705  1.8963  1.1868
   10MOL0     H 1335   5.753   8.525   0.964  0.5136  2.4338  1.4738
   10MOL0     H 1336   5.818   7.506   1.174  0.1758 -1.0244 -0.5166
   10MOL0     H 1337   5.578   7.467   1.068  0.3670  0.2725 -0.4840
   10MOL0     H 1338   5.090   7.064   1.204  1.0618  0.2839  0.0373
   10MOL0     H 1339   4.852   7.075   1.115 -2.1284  1.3340 -1.8571
   10MOL0     H 1340   4.650   7.219   1.138 -2.8235 -0.6659 -0.3816
   10MOL0     H 1341   4.672   7.393   1.128  1.6210 -1.4277  1.6587
   10MOL0     H 1342   4.544   7.299   0.890 -2.6630  1.3587 -0.3820
   10MOL0     H 1343   4.483   7.408   1.007  0.7989 -0.4252  2.0913
   10MOL0     H 1344   4.327   7.228   0.977 -0.3725 -0.4491 -0.7135
   10MOL0     H 1345   4.389   7.211   1.141 -1.4430  0.3171  0.5882
   10MOL0     H 1346   4.564   7.046   1.056 -0.7167  3.5469  1.7461
   10MOL0     H 1347   4.464   7.029   0.913 -0.1927  0.7685 -0.1960
   10MOL0     H 1348   4.214   6.871   1.222 -0.3634 -2.1445 -1.0984
   10MOL0     H 1349   4.932   7.478   0.991  2.6813  3.9552  2.5982
   10MOL0     H 1350   5.150   7.475   1.071  2.1431 -1.8253 -1.9391
   11MOL0     O 1351   8.191   2.769   3.423  1.3177 -0.5723  0.7006
   11MOL0     C 1352   8.112   2.715   3.348  0.2341 -0.8897  0.9874
   11MOL0     O 1353   8.104   2.733   3.214  0.0188  0.2539  0.0899
   11MOL0     C 1354   8.189   2.829   3.152 -0.5215 -0.1978 -0.2009
   11MOL0     C 1355   8.210   2.815   3.013 -0.3579 -0.2441 -0.0556
   11MOL0     C 1356   8.288   2.904   2.942 -0.5355 -0.3455 -0.1648
   11MOL0     C 1357   8.349   3.018   3.006  0.5951  0.4201 -0.2823
   11MOL0     O 1358   8.421   3.105   2.934  0.0407 -0.1947  0.9594
   11MOL0     C 1359   8.550   3.062   2.886 -0.3986  0.1730  0.0495
   11MOL0     C 1360   8.635   3.177   2.842  0.1210  0.4077 -0.2792
   11MOL0     C 1361   8.758   3.134   2.761 -0.5145 -0.2383  0.3378
   11MOL0     C 1362   8.867   3.050   2.821  0.3242  0.1485 -0.1301
   11MOL0     C 1363   9.004   3.048   2.753 -0.3978 -0.2937  0.3425
   11MOL0     C 1364   9.008   2.977   2.624 -0.0850 -0.5879  1.1147
   11MOL0     C 1365   9.143   2.982   2.554 -0.2957  0.2732 -0.1862
   11MOL0     C 1366   9.157   2.900   2.424  0.3322 -0.1718  0.4535
   11MOL0     N 1367   9.283   2.910   2.356 -0.3513 -0.2143  0.3326
   11MOL0     C 1368   9.324   3.002   2.252 -1.2085 -0.3182  1.1085
   11MOL0     C 1369   9.444   2.954   2.203  0.1477 -0.1137 -0.8702
   11MOL0     C 1370   9.552   3.012   2.121 -0.4833  0.5347  0.7021
   11MOL0     C 1371   9.615   3.140   2.174 -0.2867  0.2999  0.6438
   11MOL0     C 1372   9.705   3.125   2.292  0.1067  0.3205 -1.1435
   11MOL0     C 1373   9.638   3.081   2.428 -1.3570  0.3722  0.0402
   11MOL0     O 1374   9.727   3.112   2.543  0.4658  1.3866 -0.1174
   11MOL0     C 1375   9.838   3.036   2.581 -0.3766 -0.1756  0.0905
   11MOL0     C 1376   9.939   3.091   2.660  0.7817 -0.1558 -0.0230
   11MOL0     C 1377  10.045   3.016   2.704  0.1727 -0.2334  0.3250
   11MOL0     C 1378  10.151   3.077   2.790  0.5454 -0.0204  0.3164
   11MOL0     C 1379  10.053   2.881   2.670 -0.0596 -0.3349 -0.6817
   11MOL0     C 1380  10.156   2.787   2.726  0.4294  0.1892  0.7138
   11MOL0     O 1381  10.116   2.653   2.722  0.9860  0.1950  0.5233
   11MOL0     C 1382  10.203   2.556   2.728 -0.5581 -1.0727 -0.4253
   11MOL0     C 1383  10.346   2.552   2.692  0.5874  0.0995 -0.3985
   11MOL0     C 1384  10.413   2.439   2.700  0.7812 -0.7840 -0.5256
   11MOL0     C 1385  10.354   2.320   2.754 -0.1600 -0.7845  0.0812
   11MOL0     O 1386  10.426   2.210   2.786 -0.2950  1.0034  0.5754
   11MOL0     C 1387  10.540   2.168   2.710 -0.3044  0.0561  0.2878
   11MOL0     C 1388  10.514   2.114   2.580  1.3644 -0.6136  0.1092
   11MOL0     C 1389  10.623   2.010   2.537 -0.4680 -0.1526  0.4448
   11MOL0     C 1390  10.632   2.016   2.389  0.1703 -0.3538 -0.5254
   11MOL0     C 1391  10.687   1.884   2.315  0.0486  0.6006 -1.4405
   11MOL0     C 1392  10.711   1.916   2.173 -0.2379  0.1746  0.0450
   11MOL0     C 1393  10.857   1.978   2.153  0.9466  0.3361  0.1452
   11MOL0     C 1394  10.894   1.986   2.005 -0.3591 -0.6430  0.2803
   11MOL0    Cl 1395  11.053   2.065   1.964  0.5054  0.6075  0.0906
   11MOL0     C 1396  10.222   2.323   2.796 -0.5908 -1.2057  0.3364
   11MOL0     C 1397  10.147   2.431   2.770 -0.1094 -0.0520  0.1960
   11MOL0     O 1398  10.272   2.826   2.761  0.8019  0.5928 -0.4837
   11MOL0     C 1399   9.951   2.832   2.587  0.7411  0.0051  0.7735
   11MOL0     C 1400   9.846   2.903   2.539 -0.2539 -1.2141 -0.3909
   11MOL0     N 1401   9.457   2.832   2.255  1.0309 -0.2598  1.0162
   11MOL0     N 1402   9.364   2.798   2.329 -0.6680 -1.1128  0.0705
   11MOL0     C 1403   8.317   3.043   3.138 -0.0918 -0.0377  0.2273
   11MOL0     C 1404   8.246   2.946   3.208  0.9753  0.3365  0.3741
   11MOL0     C 1405   8.024   2.611   3.404 -0.1673 -0.3104 -0.2791
   11MOL0     C 1406   7.916   2.569   3.333  1.2747  0.0513  0.2781
   11MOL0     C 1407   7.834   2.459   3.367  0.2328  0.5589 -0.5377
   11MOL0     C 1408   7.854   2.408   3.492 -0.5151  0.2363 -0.6193
   11MOL0     O 1409   7.796   2.296   3.548 -0.1320  0.2431 -0.2985
   11MOL0     C 1410   7.663   2.264   3.501  0.2361 -0.3158  0.7478
   11MOL0     C 1411   7.630   2.121   3.515 -0.2096  0.8279  0.2128
   11MOL0     C 1412   7.740   2.021   3.478  1.3826 -0.3671  0.2679
   11MOL0     C 1413   7.688   1.877   3.452  0.1731 -0.7987 -0.5997
   11MOL0     C 1414   7.724   1.813   3.580  0.9076  0.5070 -0.0002
   11MOL0     C 1415   7.744   1.763   3.690  1.1552  0.5315  0.3500
   11MOL0     C 1416   7.953   2.463   3.582 -0.7988  0.2355  0.6571
   11MOL0     C 1417   8.036   2.565   3.535  0.4141  0.5044  0.4428
   11MOL0     H 1418   8.156   2.733   2.968 -0.3496  0.2770 -1.0359
   11MOL0     H 1419   8.297   2.896   2.834  0.3765  1.5752 -0.2768
   11MOL0     H 1420   8.606   3.012   2.966  1.7169  1.6151 -0.4470
   11MOL0     H 1421   8.549   2.996   2.799 -0.2097  1.0188 -0.6017
   11MOL0     H 1422   8.576   3.241   2.775 -1.6189 -0.1981  0.6068
   11MOL0     H 1423   8.670   3.236   2.926  2.0335  1.2915 -1.6251
   11MOL0     H 1424   8.719   3.088   2.669  1.5763 -2.1005  0.2663
   11MOL0     H 1425   8.807   3.221   2.717  0.7036 -0.6141  0.9032
   11MOL0     H 1426   8.886   3.082   2.924 -1.9500  3.1861 -0.5047
   11MOL0     H 1427   8.825   2.951   2.838 -1.2788  0.9805  1.0709
   11MOL0     H 1428   9.026   3.154   2.740 -2.9545  0.4444  1.3955
   11MOL0     H 1429   9.076   3.006   2.824  0.9226 -0.4162 -0.9984
   11MOL0     H 1430   8.991   2.870   2.640  2.3175 -1.2079 -0.0790
   11MOL0     H 1431   8.933   3.016   2.555  1.1985 -0.1937 -0.1067
   11MOL0     H 1432   9.170   3.086   2.532 -1.5650  0.6384 -0.1237
   11MOL0     H 1433   9.216   2.937   2.621  0.1664 -2.9586 -2.5955
   11MOL0     H 1434   9.070   2.924   2.362  0.3517  0.2022  0.5710
   11MOL0     H 1435   9.158   2.795   2.453  0.9402  0.1478  1.6401
   11MOL0     H 1436   9.281   3.099   2.228 -2.6914 -1.6279 -2.1899
   11MOL0     H 1437   9.621   2.928   2.108  0.1409  1.4297 -3.2831
   11MOL0     H 1438   9.514   3.027   2.019  0.7008 -1.2781 -0.0408
   11MOL0     H 1439   9.533   3.206   2.204 -1.0820  0.2057 -1.2112
   11MOL0     H 1440   9.677   3.184   2.094  1.1539 -1.4438  0.7368
   11MOL0     H 1441   9.757   3.221   2.292  3.0094 -1.1488 -1.8866
   11MOL0     H 1442   9.789   3.057   2.277  1.5043  1.5834  0.5073
   11MOL0     H 1443   9.608   2.976   2.434  0.2782 -0.1279 -0.1079
   11MOL0     H 1444   9.551   3.146   2.439 -2.4279 -1.0736  0.4581
   11MOL0     H 1445   9.938   3.197   2.685  1.0660  0.5907 -2.7666
   11MOL0     H 1446  10.167   3.013   2.877 -0.6768 -1.4215 -0.4456
   11MOL0     H 1447  10.241   3.090   2.729  0.4626 -1.1896 -0.0744
   11MOL0     H 1448  10.122   3.177   2.823  1.1267 -0.2693  1.6368
   11MOL0     H 1449  10.406   2.635   2.656  3.4080 -1.1404  1.1094
   11MOL0     H 1450  10.516   2.441   2.666  0.1334 -0.2335 -2.6160
   11MOL0     H 1451  10.610   2.252   2.705 -0.0266  0.0513  2.8366
   11MOL0     H 1452  10.587   2.092   2.772 -1.7673 -0.3534  0.9297
   11MOL0     H 1453  10.411   2.078   2.578  1.2280 -0.2206 -1.1048
   11MOL0     H 1454  10.518   2.199   2.511  0.9647 -1.2916 -0.7660
   11MOL0     H 1455  10.613   1.902   2.553  1.6696 -0.2321  1.7144
   11MOL0     H 1456  10.717   2.039   2.585  1.6085  0.5724 -3.6587
   11MOL0     H 1457  10.531   2.021   2.348 -1.5736  0.7959  3.4242
   11MOL0     H 1458  10.695   2.099   2.357 -1.8775  1.4674 -0.0370
   11MOL0     H 1459  10.613   1.804   2.318  1.7394 -0.9883 -0.0479
   11MOL0     H 1460  10.774   1.846   2.368 -0.7928  0.2204 -0.2907
   11MOL0     H 1461  10.719   1.822   2.117 -0.0818  0.1590  0.0917
   11MOL0     H 1462  10.637   1.977   2.122 -2.3184 -1.8043  0.5517
   11MOL0     H 1463  10.934   1.926   2.211 -0.1818 -0.8250  0.6583
   11MOL0     H 1464  10.849   2.082   2.186  2.4389  1.4912 -2.7887
   11MOL0     H 1465  10.814   2.048   1.962  1.9482  2.1425 -0.2743
   11MOL0     H 1466  10.899   1.887   1.959  0.4013 -0.1921 -0.6351
   11MOL0     H 1467  10.177   2.236   2.843 -3.0805  0.3328  0.9942
   11MOL0     H 1468  10.044   2.424   2.804  0.1218  1.1572  1.2326
   11MOL0     H 1469   9.962   2.732   2.546 -0.6570 -1.5642  3.8866
   11MOL0     H 1470   9.781   2.862   2.462 -3.2660  0.5051  1.0433
   11MOL0     H 1471   8.354   3.133   3.185  2.3639 -1.3095  0.9126
   11MOL0     H 1472   8.222   2.972   3.310  1.7194  0.7873  0.4407
   11MOL0     H 1473   7.901   2.623   3.240 -2.1640 -0.0651  0.6238
   11MOL0     H 1474   7.754   2.447   3.295 -0.5640 -1.8083  0.6387
   11MOL0     H 1475   7.586   2.316   3.558 -2.2036 -2.2459 -0.5923
   11MOL0     H 1476   7.654   2.287   3.394  0.1560  0.0862  0.8376
   11MOL0     H 1477   7.551   2.105   3.441  0.6746  0.5826 -0.7015
   11MOL0     H 1478   7.586   2.091   3.611  2.5697  0.3602  1.4381
   11MOL0     H 1479   7.813   2.038   3.557  1.4159  3.0712 -0.3098
   11MOL0     H 1480   7.785   2.061   3.387  4.3697  3.5541  3.1179
   11MOL0     H 1481   7.732   1.810   3.378 -1.6126 -1.7579 -0.8619
   11MOL0     H 1482   7.581   1.862   3.436  0.7597 -4.5370 -2.0922
   11MOL0     H 1483   7.762   1.721   3.787 -0.1691  1.4467  1.0234
   11MOL0     H 1484   7.969   2.423   3.681 -1.4647  1.1028  1.1306
   11MOL0     H 1485   8.113   2.607   3.598  1.0948  1.4207 -0.9334
   12MOL0     O 1486   1.151  10.538   8.107  0.1787 -0.4077  0.3331
   12MOL0     C 1487   1.236  10.620   8.079 -0.2994  0.1613  0.4152
   12MOL0     O 1488   1.225  10.708   7.987 -0.5359 -0.3391 -0.1618
   12MOL0     C 1489   1.123  10.698   7.895 -0.2847  0.0318  0.0947
   12MOL0     C 1490   1.126  10.585   7.801  0.7782  0.0356 -0.3941
   12MOL0     C 1491   1.020  10.566   7.718  0.1992 -0.7277  0.0591
   12MOL0     C 1492   0.917  10.661   7.703  0.2364 -0.0080  0.0144
   12MOL0     O 1493   0.825  10.641   7.605  0.3139 -0.3303 -0.3363
   12MOL0     C 1494   0.691  10.686   7.627 -0.0192 -0.4022  0.8625
   12MOL0     C 1495   0.602  10.612   7.523 -0.2161  0.5448 -0.0166
   12MOL0     C 1496   0.610  10.474   7.552  0.5990  0.5032 -0.7863
   12MOL0     C 1497   0.511  10.366   7.502 -0.7616 -0.3358  0.8200
   12MOL0     C 1498   0.502  10.371   7.346  0.0925 -0.0074 -0.0605
   12MOL0     C 1499   0.635  10.370   7.279  0.1066 -0.4689  0.7230
   12MOL0     C 1500   0.619  10.324   7.132  0.0711 -0.0546  0.4484
   12MOL0     C 1501   0.529  10.408   7.038  0.3742 -0.7998 -0.4339
   12MOL0     N 1502   0.567  10.554   7.040 -0.0418 -0.3161 -0.5563
   12MOL0     C 1503   0.656  10.606   6.955  0.2263  0.2837  0.0100
   12MOL0     C 1504   0.627  10.743   6.953 -0.6752 -0.4811 -0.4352
   12MOL0     C 1505   0.687  10.856   6.868  0.2725 -0.6287  0.4864
   12MOL0     C 1506   0.657  10.845   6.720 -0.6699 -1.6702 -0.1553
   12MOL0     C 1507   0.710  10.964   6.648 -0.4427  0.3877  0.3878
   12MOL0     C 1508   0.719  10.918   6.498  0.1702  0.2764  0.1271
   12MOL0     O 1509   0.596  10.887   6.434 -0.3897  0.3015  0.2506
   12MOL0     C 1510   0.591  10.837   6.305  0.5100  0.2551 -0.5760
   12MOL0     C 1511   0.472  10.777   6.251 -0.1460  0.1977  0.5060
   12MOL0     C 1512   0.458  10.734   6.113 -0.3089  0.1169 -0.2582
   12MOL0     C 1513   0.323  10.682   6.078  0.3164 -0.8015  0.2503
   12MOL0     C 1514   0.574  10.742   6.035  1.0435 -0.1875 -0.0492
   12MOL0     C 1515   0.571  10.703   5.888 -0.2504 -0.5939  0.1267
   12MOL0     O 1516   0.685  10.695   5.831 -0.4151  0.2256 -1.1184
   12MOL0     C 1517   0.702  10.669   5.698 -0.3666  0.3695 -0.9272
   12MOL0     C 1518   0.619  10.713   5.589  0.5995 -1.1393 -0.8558
   12MOL0     C 1519   0.655  10.695   5.458 -0.0102  0.0777  0.2710
   12MOL0     C 1520   0.777  10.629   5.420 -0.1640  0.3821 -0.1117
   12MOL0     O 1521   0.806  10.621   5.281 -0.2376  0.3314  0.6034
   12MOL0     C 1522   0.942  10.585   5.240  0.2294  0.2476 -0.4454
   12MOL0     C 1523   1.018  10.727   5.227  1.1983  0.4023 -0.5125
   12MOL0     C 1524   1.153  10.708   5.148 -1.7430 -0.3198 -0.0218
   12MOL0     C 1525   1.215  10.850   5.105  0.9278  0.2909  0.6113
   12MOL0     C 1526   1.146  10.919   4.984  0.3778  1.1477 -0.0125
   12MOL0     C 1527   1.227  11.045   4.948  0.5327  0.1666  0.3888
   12MOL0     C 1528   1.169  11.135   4.845 -0.1393  0.3923 -0.3521
   12MOL0     C 1529   1.111  11.055   4.726  0.5636  0.5186 -0.1763
   12MOL0    Cl 1530   1.008  11.157   4.626  0.0431  0.2325  0.1418
   12MOL0     C 1531   0.854  10.575   5.526 -0.4918  0.2143  0.4147
   12MOL0     C 1532   0.821  10.592   5.662 -0.5267  0.0052  0.1386
   12MOL0     O 1533   0.469  10.666   5.843  0.0709  0.1457  0.7657
   12MOL0     C 1534   0.692  10.799   6.083  0.4430  1.0431  0.0239
   12MOL0     C 1535   0.706  10.842   6.217  0.0921  0.5764 -0.1839
   12MOL0     N 1536   0.534  10.769   7.053  0.2043  0.9982  0.5935
   12MOL0     N 1537   0.487  10.654   7.091 -1.0265 -0.2639  0.0347
   12MOL0     C 1538   0.916  10.771   7.794 -0.1701 -0.0951 -0.2155
   12MOL0     C 1539   1.010  10.784   7.897  0.1413  0.3513 -0.4306
   12MOL0     C 1540   1.358  10.624   8.160  0.3318  1.2247 -0.0559
   12MOL0     C 1541   1.397  10.506   8.244 -0.3162 -0.2389 -0.9894
   12MOL0     C 1542   1.492  10.516   8.340 -0.4076  0.5441  0.8962
   12MOL0     C 1543   1.586  10.617   8.329  0.6282 -0.6820 -0.5696
   12MOL0     O 1544   1.697  10.608   8.410  0.1874 -0.5350  0.5888
   12MOL0     C 1545   1.749  10.722   8.453  0.5061 -0.7119 -0.1701
   12MOL0     C 1546   1.860  10.701   8.568 -0.4630 -0.8498  0.5566
   12MOL0     C 1547   1.973  10.606   8.533 -0.4464 -0.0003 -0.1717
   12MOL0     C 1548   2.053  10.647   8.411 -0.2331  0.2134 -0.8101
   12MOL0     C 1549   2.140  10.770   8.438 -0.1297 -0.0455  0.6295
   12MOL0     C 1550   2.204  10.865   8.474 -0.0658  0.9620 -0.6862
   12MOL0     C 1551   1.551  10.725   8.250  0.9277  0.0135  0.3472
   12MOL0     C 1552   1.435  10.730   8.173  0.1750  0.5503  0.2815
   12MOL0     H 1553   1.199  10.511   7.832  0.0901  0.2378  1.9379
   12MOL0     H 1554   1.026  10.483   7.650 -1.0446 -0.0511 -0.9297
   12MOL0     H 1555   0.665  10.662   7.731  2.3798 -2.1223  1.1583
   12MOL0     H 1556   0.700  10.794   7.616  1.1328 -0.2245  2.9610
   12MOL0     H 1557   0.500  10.647   7.541  0.4397  2.3476  0.4146
   12MOL0     H 1558   0.624  10.644   7.420 -3.9131  1.3590 -0.6718
   12MOL0     H 1559   0.710  10.450   7.515  1.6924 -0.4507  2.4768
   12MOL0     H 1560   0.617  10.468   7.661  0.2762 -1.4763 -0.8418
   12MOL0     H 1561   0.550  10.269   7.533 -1.4285 -0.2469  2.0246
   12MOL0     H 1562   0.414  10.377   7.553  0.7950  1.5542  3.6228
   12MOL0     H 1563   0.441  10.287   7.310 -2.3345  2.1140 -1.1781
   12MOL0     H 1564   0.456  10.468   7.326  1.7611  1.1814  1.5810
   12MOL0     H 1565   0.679  10.471   7.281  0.5995 -0.6857  0.9226
   12MOL0     H 1566   0.696  10.294   7.328  0.1972 -0.1916  1.0408
   12MOL0     H 1567   0.721  10.326   7.092 -0.2611  5.0025 -0.8431
   12MOL0     H 1568   0.588  10.219   7.139  3.0187 -1.0460  0.1957
   12MOL0     H 1569   0.432  10.411   7.087  1.4003  1.2894  1.6931
   12MOL0     H 1570   0.528  10.368   6.936  1.7206  1.9834 -1.6561
   12MOL0     H 1571   0.729  10.560   6.889  0.7183  0.9259  0.1000
   12MOL0     H 1572   0.664  10.957   6.904  0.6870 -0.1505 -0.5429
   12MOL0     H 1573   0.794  10.835   6.871 -0.1912 -3.3982  3.2859
   12MOL0     H 1574   0.548  10.841   6.710 -0.6498 -0.7316 -0.9130
   12MOL0     H 1575   0.694  10.752   6.676  2.8761 -0.8848  0.8147
   12MOL0     H 1576   0.808  10.994   6.687  0.8187 -2.4852 -0.3042
   12MOL0     H 1577   0.637  11.045   6.651 -1.3139 -0.0507 -3.5803
   12MOL0     H 1578   0.791  10.836   6.487  1.2816  1.2687 -0.1800
   12MOL0     H 1579   0.753  11.002   6.436 -0.7378 -0.3306 -1.2530
   12MOL0     H 1580   0.388  10.774   6.319 -0.2230  3.0952  0.6538
   12MOL0     H 1581   0.342  10.576   6.060 -1.2088 -0.8752 -1.2133
   12MOL0     H 1582   0.258  10.709   6.163 -0.1560 -5.0215  1.4338
   12MOL0     H 1583   0.284  10.728   5.987  1.4580 -2.6062 -1.2024
   12MOL0     H 1584   0.528  10.764   5.616  0.4343 -1.3988 -0.9197
   12MOL0     H 1585   0.592  10.724   5.375  1.0535 -2.5562 -1.5778
   12MOL0     H 1586   0.991  10.514   5.306 -1.2309 -3.7576 -3.3048
   12MOL0     H 1587   0.929  10.533   5.145  1.0847 -2.5218  0.8609
   12MOL0     H 1588   0.958  10.796   5.169  0.2439  0.7410  0.8212
   12MOL0     H 1589   1.026  10.783   5.321 -0.5313  1.9309 -1.2262
   12MOL0     H 1590   1.132  10.646   5.060  2.9926 -0.8885 -1.0310
   12MOL0     H 1591   1.227  10.658   5.213 -0.5115  1.7587  0.2501
   12MOL0     H 1592   1.241  10.916   5.188  2.2944 -3.3205  3.3319
   12MOL0     H 1593   1.316  10.826   5.069 -0.1556 -1.7736 -1.3219
   12MOL0     H 1594   1.044  10.949   5.011 -0.5445 -0.5008 -1.4926
   12MOL0     H 1595   1.155  10.848   4.902  0.8099  3.2595 -1.9099
   12MOL0     H 1596   1.248  11.109   5.035 -0.5182  2.4352 -0.9390
   12MOL0     H 1597   1.327  11.021   4.911  1.6882 -1.3033  3.9935
   12MOL0     H 1598   1.239  11.209   4.805  0.1076 -0.7900 -2.2021
   12MOL0     H 1599   1.086  11.192   4.890  0.7819  3.3327 -2.1166
   12MOL0     H 1600   1.067  10.960   4.757  0.8366  0.9659  1.6985
   12MOL0     H 1601   1.192  11.019   4.662  1.3505  1.7700  0.0867
   12MOL0     H 1602   0.951  10.528   5.516 -0.9727 -0.9382  0.8551
   12MOL0     H 1603   0.888  10.557   5.740 -0.2388 -0.9890 -0.5340
   12MOL0     H 1604   0.774  10.822   6.014  0.6048  3.2631  0.8654
   12MOL0     H 1605   0.807  10.863   6.251 -0.3074 -0.1981  1.5928
   12MOL0     H 1606   0.834  10.840   7.784  1.6682  1.8785 -4.2033
   12MOL0     H 1607   0.996  10.867   7.965 -1.9161 -1.5957  1.7124
   12MOL0     H 1608   1.344  10.412   8.239  1.1664 -1.1727  0.0302
   12MOL0     H 1609   1.531  10.431   8.396  0.9467 -0.5817 -1.6273
   12MOL0     H 1610   1.788  10.773   8.365 -2.7210  0.7800 -0.8453
   12MOL0     H 1611   1.667  10.787   8.484 -0.3703 -0.7445 -2.3054
   12MOL0     H 1612   1.809  10.662   8.657  0.9446 -2.2526  0.7837
   12MOL0     H 1613   1.898  10.802   8.587 -3.7405  1.1754 -2.2991
   12MOL0     H 1614   1.932  10.505   8.521  1.1285 -0.5884 -0.7745
   12MOL0     H 1615   2.046  10.593   8.614  0.5052  0.7672 -0.8818
   12MOL0     H 1616   1.986  10.663   8.326  0.1979  0.4865 -1.1058
   12MOL0     H 1617   2.106  10.552   8.391 -1.3313 -0.9926  1.6559
   12MOL0     H 1618   2.272  10.947   8.490  2.0198 -0.9540  0.9710
   12MOL0     H 1619   1.611  10.816   8.254  1.6299 -0.4791  1.6941
   12MOL0     H 1620   1.405  10.827   8.136 -2.0040 -0.2532 -0.2397
   13MOL0     O 1621   2.415   2.929   4.414  0.0645 -0.2836 -0.0665
   13MOL0     C 1622   2.321   2.895   4.345 -0.1267  0.6377 -0.0657
   13MOL0     O 1623   2.275   2.967   4.237 -0.1215  1.1182 -0.1811
   13MOL0     C 1624   2.344   3.075   4.195 -0.3050  0.7254 -0.5126
   13MOL0     C 1625   2.487   3.077   4.185  0.0511  0.4086  0.2292
   13MOL0     C 1626   2.545   3.193   4.142 -0.5858  0.2387  0.2238
   13MOL0     C 1627   2.478   3.309   4.114 -0.1086 -0.8051 -0.4912
   13MOL0     O 1628   2.543   3.423   4.061 -0.3368 -0.0651  0.2629
   13MOL0     C 1629   2.481   3.552   4.069 -0.6522  0.4244  0.1668
   13MOL0     C 1630   2.594   3.652   4.064 -0.9993 -0.0762 -0.1554
   13MOL0     C 1631   2.657   3.663   3.930 -0.3803 -1.0279  0.6247
   13MOL0     C 1632   2.778   3.770   3.936 -1.1332 -0.5328  0.6837
   13MOL0     C 1633   2.869   3.754   3.810  0.0282  0.7043 -0.9312
   13MOL0     C 1634   2.960   3.623   3.820 -0.7223  0.3864  0.4598
   13MOL0     C 1635   3.058   3.604   3.705  1.1947 -0.5970  0.0956
   13MOL0     C 1636   3.143   3.484   3.713 -0.0934  0.3831  0.0108
   13MOL0     N 1637   3.253   3.513   3.798  0.4102 -0.0339 -0.2768
   13MOL0     C 1638   3.258   3.472   3.929 -0.5336 -0.2710 -0.2152
   13MOL0     C 1639   3.383   3.505   3.968  0.5138 -0.2425 -0.1818
   13MOL0     C 1640   3.442   3.484   4.110  1.0308  0.5742 -0.2065
   13MOL0     C 1641   3.569   3.573   4.129  0.0887  0.7582 -0.4335
   13MOL0     C 1642   3.635   3.561   4.271 -0.9512 -0.4117  0.2653
   13MOL0     C 1643   3.776   3.633   4.288  0.8035 -0.7474  0.9144
   13MOL0     O 1644   3.874   3.590   4.189 -0.5274 -0.5649 -0.2654
   13MOL0     C 1645   3.947   3.473   4.219 -0.2027 -0.8935 -0.3785
   13MOL0     C 1646   3.987   3.393   4.111 -0.6162 -0.5243  0.0050
   13MOL0     C 1647   4.042   3.269   4.137  0.4759 -0.3419  1.1852
   13MOL0     C 1648   4.107   3.204   4.014  0.2054  0.5244 -0.1972
   13MOL0     C 1649   4.029   3.206   4.266 -0.5515 -0.1376 -0.1745
   13MOL0     C 1650   4.050   3.060   4.296 -0.1292  0.2064  0.0061
   13MOL0     O 1651   4.089   3.022   4.421 -0.4460  0.9128  0.2642
   13MOL0     C 1652   4.096   2.885   4.457  0.3524 -0.6200  0.2122
   13MOL0     C 1653   4.053   2.769   4.388  0.0880 -0.0173 -0.3811
   13MOL0     C 1654   4.087   2.645   4.447  0.2369 -0.3804  0.5493
   13MOL0     C 1655   4.156   2.630   4.571  1.0604 -0.0053  0.5007
   13MOL0     O 1656   4.201   2.512   4.625 -0.1302  0.1815 -0.3520
   13MOL0     C 1657   4.224   2.494   4.762 -0.5524  0.5046 -0.6717
   13MOL0     C 1658   4.273   2.343   4.782 -0.4680  0.4887 -0.3866
   13MOL0     C 1659   4.274   2.304   4.931  0.2349  0.0979  0.4858
   13MOL0     C 1660   4.369   2.184   4.961  0.7208 -0.4322  0.9322
   13MOL0     C 1661   4.352   2.155   5.107  0.3909  0.0624 -0.8700
   13MOL0     C 1662   4.403   2.010   5.123 -1.1970 -0.3934 -0.0473
   13MOL0     C 1663   4.447   1.996   5.276 -0.1476 -0.1288  0.6646
   13MOL0     C 1664   4.337   2.044   5.370 -1.1239 -0.6932 -0.1315
   13MOL0    Cl 1665   4.405   1.978   5.532 -0.4680 -0.2174  0.0888
   13MOL0     C 1666   4.189   2.749   4.636  0.0899 -0.7183 -0.7244
   13MOL0     C 1667   4.159   2.876   4.577 -0.2588  0.2678 -0.7899
   13MOL0     O 1668   4.021   2.980   4.203 -0.3584 -0.1883 -0.3024
   13MOL0     C 1669   4.010   3.292   4.374 -0.2046  0.7073  0.0596
   13MOL0     C 1670   3.962   3.422   4.354 -0.3620 -0.1475  0.9413
   13MOL0     N 1671   3.450   3.550   3.861 -0.0036 -0.9491  0.5100
   13MOL0     N 1672   3.369   3.567   3.761  0.5951 -0.4862  0.2606
   13MOL0     C 1673   2.343   3.306   4.105 -0.0081  0.5057 -0.0920
   13MOL0     C 1674   2.278   3.191   4.154 -0.2094  0.0863 -0.3503
   13MOL0     C 1675   2.240   2.780   4.396 -0.1496 -0.7014 -0.2941
   13MOL0     C 1676   2.265   2.722   4.526  0.7970 -0.5026  0.2581
   13MOL0     C 1677   2.182   2.624   4.575  1.2890 -0.2980  0.7017
   13MOL0     C 1678   2.063   2.586   4.506  0.3190 -0.1821 -0.4467
   13MOL0     O 1679   1.988   2.486   4.555  0.2728  0.2924 -0.5557
   13MOL0     C 1680   1.847   2.489   4.531 -0.1365 -0.1148 -0.7206
   13MOL0     C 1681   1.780   2.398   4.648  0.6458 -0.6062  0.4331
   13MOL0     C 1682   1.776   2.482   4.776  0.6829  0.9283  0.6052
   13MOL0     C 1683   1.712   2.387   4.886  0.2460  0.2544 -0.3028
   13MOL0     C 1684   1.716   2.454   5.012  0.3281 -0.7828  1.2918
   13MOL0     C 1685   1.712   2.507   5.124  0.1309 -0.3940 -0.7869
   13MOL0     C 1686   2.046   2.645   4.385 -0.3184  0.0500  0.6665
   13MOL0     C 1687   2.129   2.743   4.321  0.5968 -0.1417 -0.3413
   13MOL0     H 1688   2.542   2.986   4.205 -0.4470  0.1663  0.5154
   13MOL0     H 1689   2.654   3.188   4.138 -0.5910 -0.5010  0.8276
   13MOL0     H 1690   2.419   3.573   3.981  1.0822  3.4561 -0.4824
   13MOL0     H 1691   2.420   3.563   4.159 -1.7797 -1.2938 -0.3470
   13MOL0     H 1692   2.561   3.753   4.090  2.9935  1.5861 -0.8579
   13MOL0     H 1693   2.669   3.628   4.140  1.6514 -0.8777 -2.8071
   13MOL0     H 1694   2.695   3.572   3.882  1.3379 -0.9982  1.8205
   13MOL0     H 1695   2.588   3.714   3.862  1.1956  1.7546  0.9202
   13MOL0     H 1696   2.739   3.871   3.947  0.2857 -0.0815  2.2059
   13MOL0     H 1697   2.832   3.761   4.032  0.4092  3.1002  0.3121
   13MOL0     H 1698   2.803   3.747   3.722  0.5209  0.1671 -1.2662
   13MOL0     H 1699   2.926   3.846   3.802  1.0694 -0.0069 -2.0334
   13MOL0     H 1700   3.020   3.623   3.912 -2.2263  0.4799  1.4677
   13MOL0     H 1701   2.895   3.536   3.831  0.1974 -0.3419  0.2302
   13MOL0     H 1702   3.020   3.589   3.604  0.3191  1.9198 -0.0285
   13MOL0     H 1703   3.125   3.691   3.708  0.6509 -0.1349  3.1981
   13MOL0     H 1704   3.172   3.453   3.613  1.3549 -0.4966  0.6653
   13MOL0     H 1705   3.089   3.398   3.756 -0.4556  0.4981 -0.2084
   13MOL0     H 1706   3.176   3.446   3.995 -0.3757 -2.4455 -0.8020
   13MOL0     H 1707   3.368   3.515   4.184 -2.8859 -1.4545 -2.9217
   13MOL0     H 1708   3.465   3.379   4.133  1.1672  0.4245 -0.9943
   13MOL0     H 1709   3.528   3.674   4.130  0.2538  0.9023  3.0097
   13MOL0     H 1710   3.647   3.567   4.051  1.3517 -1.9304  0.8995
   13MOL0     H 1711   3.646   3.460   4.310  1.2994  0.5569  2.4397
   13MOL0     H 1712   3.560   3.608   4.335 -1.5237  0.4231 -0.9762
   13MOL0     H 1713   3.818   3.639   4.389  1.0479 -5.0029  1.2382
   13MOL0     H 1714   3.763   3.741   4.272  1.7954 -0.8578 -0.9967
   13MOL0     H 1715   3.991   3.423   4.007  1.4182 -3.0168 -0.7520
   13MOL0     H 1716   4.114   3.262   3.921  1.4531 -0.9685 -1.0766
   13MOL0     H 1717   4.209   3.169   4.028  0.2640  0.0289 -1.6958
   13MOL0     H 1718   4.042   3.117   4.002 -0.0961  0.2525  2.6144
   13MOL0     H 1719   3.991   2.778   4.299  1.1013  2.7324 -0.9248
   13MOL0     H 1720   4.068   2.558   4.386  2.5003 -0.4994 -0.0485
   13MOL0     H 1721   4.304   2.561   4.794 -1.7203  1.3578  0.6037
   13MOL0     H 1722   4.135   2.516   4.823 -2.0163  1.0837 -2.8985
   13MOL0     H 1723   4.203   2.275   4.732  1.3195 -2.1887  0.5172
   13MOL0     H 1724   4.372   2.334   4.736  0.7651  0.2342  2.1729
   13MOL0     H 1725   4.169   2.290   4.957 -0.9859  1.8815 -2.8365
   13MOL0     H 1726   4.311   2.386   4.993 -1.3333 -0.3176  2.0199
   13MOL0     H 1727   4.336   2.100   4.899  2.3380  0.9908 -2.0872
   13MOL0     H 1728   4.474   2.205   4.939  1.3454 -4.5777 -0.8697
   13MOL0     H 1729   4.246   2.145   5.130  0.4825 -1.6257 -1.0419
   13MOL0     H 1730   4.394   2.239   5.162  0.8926 -1.5249  1.3273
   13MOL0     H 1731   4.325   1.935   5.105 -1.8644  0.7934 -2.5255
   13MOL0     H 1732   4.483   1.984   5.053 -1.5523  4.5579 -2.7611
   13MOL0     H 1733   4.547   2.038   5.296  0.4753 -1.3360  0.2098
   13MOL0     H 1734   4.455   1.890   5.302  0.4784  0.2475  2.1628
   13MOL0     H 1735   4.242   1.996   5.345 -1.0513 -1.2233  0.5915
   13MOL0     H 1736   4.318   2.152   5.370  1.5407 -0.1558  0.3717
   13MOL0     H 1737   4.243   2.743   4.730 -2.6806  1.4724  1.1865
   13MOL0     H 1738   4.193   2.970   4.618 -2.2963  1.0120 -0.7244
   13MOL0     H 1739   4.013   3.248   4.473 -2.9781 -0.0682 -0.1052
   13MOL0     H 1740   3.932   3.485   4.436  0.6745  0.0195  1.2144
   13MOL0     H 1741   2.280   3.387   4.070  0.5046  1.2047  0.5809
   13MOL0     H 1742   2.170   3.198   4.143 -0.2479  0.1681  0.0607
   13MOL0     H 1743   2.350   2.758   4.583  1.7497 -0.2514 -1.2721
   13MOL0     H 1744   2.201   2.584   4.674 -0.4324  0.3046  1.2969
   13MOL0     H 1745   1.812   2.592   4.531 -0.0215 -0.0587  0.2934
   13MOL0     H 1746   1.810   2.447   4.437 -1.2501 -1.0361  0.0815
   13MOL0     H 1747   1.838   2.306   4.639 -1.4156 -2.0313  0.9415
   13MOL0     H 1748   1.677   2.381   4.617 -0.5123  3.7745  1.2371
   13MOL0     H 1749   1.710   2.567   4.757 -1.8284 -0.6423  1.7562
   13MOL0     H 1750   1.882   2.502   4.793  1.2007 -0.5716 -0.6092
   13MOL0     H 1751   1.775   2.299   4.898  0.1549  0.0632 -1.1041
   13MOL0     H 1752   1.607   2.359   4.870  0.1968 -0.8017  1.6516
   13MOL0     H 1753   1.717   2.555   5.219  4.5458  2.7860 -2.2835
   13MOL0     H 1754   1.964   2.616   4.320 -0.7097  0.3162  1.0302
   13MOL0     H 1755   2.098   2.792   4.230  2.5692 -1.9815 -2.1385
   14MOL0     O 1756   9.589   6.636   2.449  0.2593  0.3626  0.6765
   14MOL0     C 1757   9.683   6.714   2.435  0.2907  0.0509 -0.5759
   14MOL0     O 1758   9.772   6.748   2.528 -0.6483  0.6787 -0.6870
   14MOL0     C 1759   9.758   6.714   2.658  0.2067  0.0991  0.0548
   14MOL0     C 1760   9.647   6.754   2.735  0.2826  0.7799  0.2288
   14MOL0     C 1761   9.630   6.710   2.871 -0.4024 -0.0383 -0.0935
   14MOL0     C 1762   9.725   6.619   2.924 -1.0011 -0.5597  0.1559
   14MOL0     O 1763   9.715   6.564   3.049  0.2225  0.4218  0.0871
   14MOL0     C 1764   9.622   6.610   3.144 -0.6663  0.2372  0.4247
   14MOL0     C 1765   9.633   6.518   3.265 -0.4975  0.6133 -0.2793
   14MOL0     C 1766   9.769   6.527   3.331  0.0978  0.2711 -0.7243
   14MOL0     C 1767   9.815   6.671   3.363 -0.1407 -0.6460  0.1007
   14MOL0     C 1768   9.961   6.678   3.423  0.1338  0.2009  0.4846
   14MOL0     C 1769   9.993   6.584   3.541  0.3750  0.6427 -0.1685
   14MOL0     C 1770   9.931   6.638   3.671 -0.0036 -0.2272 -0.4332
   14MOL0     C 1771   9.987   6.567   3.795  0.2164  0.4699  0.3380
   14MOL0     N 1772   9.888   6.484   3.864 -0.1571  0.4525  0.1042
   14MOL0     C 1773   9.802   6.539   3.958 -0.3153  0.2681  1.1877
   14MOL0     C 1774   9.714   6.436   3.992 -0.8220 -0.8527 -0.0615
   14MOL0     C 1775   9.595   6.439   4.091 -0.4617 -0.5373  0.7962
   14MOL0     C 1776   9.629   6.522   4.212  0.2044 -0.4382 -0.0358
   14MOL0     C 1777   9.542   6.466   4.328 -0.1475  0.1144  0.6026
   14MOL0     C 1778   9.508   6.580   4.433 -0.7587  0.1587  0.0187
   14MOL0     O 1779   9.406   6.535   4.529 -0.5001 -0.0707 -0.0695
   14MOL0     C 1780   9.281   6.511   4.484 -0.5499  0.2662 -0.0408
   14MOL0     C 1781   9.214   6.404   4.547  0.9652  0.0509  0.1886
   14MOL0     C 1782   9.079   6.367   4.521  0.3386 -0.2168  0.3547
   14MOL0     C 1783   9.038   6.250   4.612 -0.3847  0.0235 -0.1768
   14MOL0     C 1784   9.011   6.438   4.421  0.8316 -0.8240 -0.0952
   14MOL0     C 1785   8.872   6.401   4.371  0.2260 -0.0301  0.9975
   14MOL0     O 1786   8.816   6.472   4.271 -0.8722 -0.6737  0.5091
   14MOL0     C 1787   8.686   6.460   4.233 -0.6748 -0.2257 -1.3000
   14MOL0     C 1788   8.620   6.580   4.209 -0.6535  0.1719  0.3285
   14MOL0     C 1789   8.491   6.586   4.164  1.0601  0.6594  0.1898
   14MOL0     C 1790   8.421   6.466   4.127 -0.1086 -0.0342 -0.3053
   14MOL0     O 1791   8.298   6.451   4.069 -0.4299 -0.8518 -0.5699
   14MOL0     C 1792   8.239   6.563   4.011  0.7135  0.4769 -0.0954
   14MOL0     C 1793   8.168   6.650   4.124  0.4242  0.5289  0.1065
   14MOL0     C 1794   8.104   6.757   4.042 -0.3618 -0.4891 -0.1973
   14MOL0     C 1795   8.008   6.846   4.123  0.4409  0.6160 -1.2014
   14MOL0     C 1796   7.950   6.972   4.044  0.8664  0.6448  0.0115
   14MOL0     C 1797   7.874   6.934   3.910  0.2199  0.9280 -0.1000
   14MOL0     C 1798   7.831   7.060   3.840  0.1297  0.3179  0.3479
   14MOL0     C 1799   7.740   7.034   3.708 -0.7731  0.2972 -0.8911
   14MOL0    Cl 1800   7.698   7.186   3.628  0.6554  0.1683 -0.5893
   14MOL0     C 1801   8.489   6.340   4.151 -0.6136 -0.2529  0.2695
   14MOL0     C 1802   8.619   6.335   4.195 -0.4732  0.6232 -0.4412
   14MOL0     O 1803   8.814   6.315   4.439 -0.8553 -0.5726  0.0871
   14MOL0     C 1804   9.078   6.549   4.362  0.1322  0.8593 -0.3699
   14MOL0     C 1805   9.208   6.589   4.398  0.5556 -0.6946 -0.4184
   14MOL0     N 1806   9.742   6.330   3.901 -0.0767  0.1477 -0.6433
   14MOL0     N 1807   9.846   6.359   3.837 -1.3064 -0.5976 -0.2276
   14MOL0     C 1808   9.836   6.587   2.846  1.0544 -0.8231 -0.2111
   14MOL0     C 1809   9.853   6.634   2.715  0.8550 -0.0256  0.6615
   14MOL0     C 1810   9.694   6.774   2.303  0.1083 -0.4592 -0.7946
   14MOL0     C 1811   9.610   6.744   2.196  0.8555 -0.7538 -0.2963
   14MOL0     C 1812   9.617   6.809   2.069  0.1591 -0.0099 -0.2091
   14MOL0     C 1813   9.725   6.891   2.044  0.0346  0.0816 -0.1447
   14MOL0     O 1814   9.730   6.982   1.941 -0.3364 -0.0358  0.3399
   14MOL0     C 1815   9.643   6.971   1.827 -0.2452  0.7366 -0.6518
   14MOL0     C 1816   9.507   7.043   1.844  0.1741  1.0567  0.1309
   14MOL0     C 1817   9.512   7.154   1.951 -0.1731 -0.2278  0.8477
   14MOL0     C 1818   9.382   7.234   1.954 -0.2741 -1.1783 -0.2271
   14MOL0     C 1819   9.370   7.309   2.080  0.3795  0.0465  0.3155
   14MOL0     C 1820   9.356   7.352   2.191 -0.4569  1.1619  0.3432
   14MOL0     C 1821   9.825   6.907   2.137  0.6150  0.4573  0.4492
   14MOL0     C 1822   9.806   6.845   2.269 -0.0539 -0.2652  0.1998
   14MOL0     H 1823   9.562   6.811   2.698  0.3629  1.8646  1.6198
   14MOL0     H 1824   9.545   6.740   2.931 -1.1896  1.8594 -2.0203
   14MOL0     H 1825   9.647   6.714   3.166 -0.3878 -0.2416  2.6112
   14MOL0     H 1826   9.520   6.613   3.105 -0.5076 -1.0329 -0.1447
   14MOL0     H 1827   9.552   6.551   3.331  0.7353  2.4254  0.4075
   14MOL0     H 1828   9.623   6.415   3.230 -0.3111  1.4687 -3.1067
   14MOL0     H 1829   9.767   6.474   3.427  0.1886 -0.6280 -1.2063
   14MOL0     H 1830   9.845   6.476   3.271  1.5192  0.5030  0.8008
   14MOL0     H 1831   9.822   6.731   3.272  0.2571  0.4096  0.8062
   14MOL0     H 1832   9.756   6.716   3.444  1.3933  0.8714  0.4427
   14MOL0     H 1833  10.024   6.648   3.339  0.1280 -0.7192  0.8047
   14MOL0     H 1834   9.979   6.782   3.452  2.9350 -0.7717  2.6423
   14MOL0     H 1835   9.969   6.481   3.512  2.5081  0.9063 -3.3271
   14MOL0     H 1836  10.100   6.595   3.562 -0.3470  2.6752  3.1393
   14MOL0     H 1837   9.954   6.744   3.683 -0.1122 -0.0552 -1.6178
   14MOL0     H 1838   9.822   6.633   3.674 -0.0807  0.2219 -1.8004
   14MOL0     H 1839  10.038   6.632   3.866 -1.0895  0.4164  1.3713
   14MOL0     H 1840  10.062   6.500   3.753  0.3803  1.6985 -1.4275
   14MOL0     H 1841   9.794   6.643   3.989  2.3926  0.8593  0.1118
   14MOL0     H 1842   9.513   6.495   4.044  0.2043  0.9511  1.3322
   14MOL0     H 1843   9.575   6.334   4.113 -1.5423 -0.5097  0.0502
   14MOL0     H 1844   9.619   6.630   4.201  0.0934 -0.1039  2.6845
   14MOL0     H 1845   9.734   6.503   4.231  0.6415  1.3229 -0.4993
   14MOL0     H 1846   9.584   6.373   4.367 -0.1016  0.2910  0.9826
   14MOL0     H 1847   9.451   6.433   4.277  0.3866 -1.7928  0.8099
   14MOL0     H 1848   9.468   6.663   4.373 -0.4297 -0.6103 -1.3008
   14MOL0     H 1849   9.590   6.626   4.489 -1.0462  1.9796 -0.9633
   14MOL0     H 1850   9.258   6.340   4.623 -2.2034  0.2155  2.3768
   14MOL0     H 1851   8.930   6.253   4.628 -0.8911 -0.7737 -2.8736
   14MOL0     H 1852   9.050   6.160   4.551  2.4406 -0.3882  0.8641
   14MOL0     H 1853   9.091   6.227   4.704 -0.4063  1.6463  0.2726
   14MOL0     H 1854   8.668   6.669   4.247  0.2252 -0.4970  0.8217
   14MOL0     H 1855   8.454   6.687   4.151 -0.6691 -0.2139 -2.4304
   14MOL0     H 1856   8.315   6.617   3.954 -1.3171 -0.8085 -4.3763
   14MOL0     H 1857   8.176   6.526   3.930  3.0229  2.8342 -3.2123
   14MOL0     H 1858   8.097   6.585   4.175  0.5699  0.8455  0.7257
   14MOL0     H 1859   8.235   6.693   4.199  2.2928 -0.3810 -0.9505
   14MOL0     H 1860   8.055   6.707   3.959 -1.9964 -3.7170  2.4725
   14MOL0     H 1861   8.176   6.831   4.005 -0.3475  0.1615  1.0471
   14MOL0     H 1862   7.916   6.791   4.143  0.3734  1.4375  1.0605
   14MOL0     H 1863   8.050   6.879   4.219 -0.4634  2.5596 -1.4348
   14MOL0     H 1864   8.016   7.058   4.025  0.0266  1.3059  0.0130
   14MOL0     H 1865   7.862   7.006   4.099  0.8194  2.3313 -1.0232
   14MOL0     H 1866   7.936   6.881   3.837  0.1201  2.1084 -1.0906
   14MOL0     H 1867   7.780   6.882   3.928  1.3405 -0.2458  2.9635
   14MOL0     H 1868   7.923   7.115   3.817 -0.1022 -0.1834 -1.9368
   14MOL0     H 1869   7.778   7.121   3.914  2.3422 -0.1976  2.4904
   14MOL0     H 1870   7.638   7.000   3.732 -0.2260  0.3029  1.7633
   14MOL0     H 1871   7.788   6.963   3.640  1.1788 -0.2123  0.9225
   14MOL0     H 1872   8.431   6.253   4.123  1.1703 -1.4488  0.1341
   14MOL0     H 1873   8.674   6.242   4.189 -0.2842  0.6319  0.8872
   14MOL0     H 1874   9.042   6.624   4.292  2.9763  1.8317 -0.8992
   14MOL0     H 1875   9.234   6.685   4.353  0.3017 -0.6698 -0.5113
   14MOL0     H 1876   9.916   6.527   2.889  3.1325  0.6310 -1.8295
   14MOL0     H 1877   9.941   6.611   2.657  1.1756  0.6572  0.8736
   14MOL0     H 1878   9.531   6.674   2.222 -0.0960  0.9337  1.6625
   14MOL0     H 1879   9.532   6.806   2.002  0.5613  3.2708 -1.0413
   14MOL0     H 1880   9.689   7.020   1.741  2.6942 -1.4524 -0.4686
   14MOL0     H 1881   9.626   6.868   1.796  0.0746  0.8927 -1.3644
   14MOL0     H 1882   9.435   6.967   1.878 -1.2655 -0.4603 -5.2781
   14MOL0     H 1883   9.474   7.076   1.745 -0.4923  0.3786  0.1128
   14MOL0     H 1884   9.587   7.231   1.930 -1.9609  1.2561 -0.4272
   14MOL0     H 1885   9.543   7.105   2.044 -4.7965  0.4782  3.0263
   14MOL0     H 1886   9.294   7.170   1.937 -1.7245  0.8621 -0.8554
   14MOL0     H 1887   9.381   7.309   1.875 -1.7865  1.1663  1.8858
   14MOL0     H 1888   9.338   7.385   2.291 -0.7894  0.6537  0.4581
   14MOL0     H 1889   9.905   6.975   2.108 -0.5346  2.6887  2.1847
   14MOL0     H 1890   9.890   6.863   2.335  2.3431 -3.4126 -1.7052
   15MOL0     O 1891   0.415   1.923   2.493 -0.7410  0.9140 -0.4443
   15MOL0     C 1892   0.431   1.816   2.433  0.1333 -0.3359 -0.8713
   15MOL0     O 1893   0.364   1.698   2.462 -0.0581 -0.2624  0.9209
   15MOL0     C 1894   0.236   1.702   2.517 -0.0299  0.0726  0.4295
   15MOL0     C 1895   0.192   1.587   2.582 -0.3685  0.0407  0.2323
   15MOL0     C 1896   0.081   1.590   2.667  0.0265  0.1237 -0.6616
   15MOL0     C 1897   0.017   1.705   2.687  0.7087 -0.7923 -0.8032
   15MOL0     O 1898  -0.071   1.703   2.785  0.2862 -0.6599 -1.4764
   15MOL0     C 1899  -0.010   1.717   2.920 -0.0880 -0.0650  0.7141
   15MOL0     C 1900  -0.117   1.723   3.034  0.5184 -0.4462 -0.1660
   15MOL0     C 1901  -0.203   1.855   3.017 -0.1962 -1.3475  0.3987
   15MOL0     C 1902  -0.103   1.977   2.988  1.3797  0.1703  0.0635
   15MOL0     C 1903  -0.171   2.105   3.048  0.8323 -0.4609  0.3024
   15MOL0     C 1904  -0.105   2.233   2.994 -0.3178 -0.3388 -0.0391
   15MOL0     C 1905  -0.171   2.345   3.065 -0.3592  0.5104  0.2137
   15MOL0     C 1906  -0.128   2.482   3.020 -0.1526  0.0733 -0.3690
   15MOL0     N 1907   0.020   2.494   3.005 -0.2242 -0.3301 -0.2952
   15MOL0     C 1908   0.118   2.486   3.099  0.5581 -1.8448  0.2923
   15MOL0     C 1909   0.235   2.525   3.027  0.4783 -0.3411 -0.6059
   15MOL0     C 1910   0.378   2.543   3.075  0.2415 -0.3690 -0.3987
   15MOL0     C 1911   0.476   2.484   2.967  0.9012  0.7868 -0.3220
   15MOL0     C 1912   0.618   2.496   3.018  0.6857  0.3101 -0.0781
   15MOL0     C 1913   0.681   2.635   2.980  0.2664 -0.0394  0.2290
   15MOL0     O 1914   0.812   2.630   3.030  0.3629  0.5072 -0.3987
   15MOL0     C 1915   0.884   2.744   3.053 -0.3567  0.5764 -0.3253
   15MOL0     C 1916   0.855   2.869   3.014  0.3364 -0.5583 -0.4784
   15MOL0     C 1917   0.950   2.980   3.023 -0.6725 -0.0989 -0.1250
   15MOL0     C 1918   0.912   3.105   2.936 -0.6393  0.3104 -0.2141
   15MOL0     C 1919   1.065   2.963   3.100 -0.8249  0.5151  0.1338
   15MOL0     C 1920   1.182   3.060   3.112  0.1503  0.5034  0.5329
   15MOL0     O 1921   1.305   3.005   3.149 -0.2721 -0.3442  0.9341
   15MOL0     C 1922   1.421   3.084   3.149 -0.5423  0.1725  0.5979
   15MOL0     C 1923   1.454   3.181   3.242  0.1814 -0.6947 -0.0760
   15MOL0     C 1924   1.570   3.255   3.235  1.0060  0.0750 -0.2728
   15MOL0     C 1925   1.661   3.224   3.138  0.0409 -0.6495 -1.0419
   15MOL0     O 1926   1.777   3.315   3.150  0.4058  0.5970  0.1424
   15MOL0     C 1927   1.904   3.271   3.088 -0.0048  0.1546 -0.0459
   15MOL0     C 1928   2.024   3.362   3.126  0.0865  0.1123  1.0551
   15MOL0     C 1929   2.056   3.349   3.274 -0.7568 -0.2343 -1.4504
   15MOL0     C 1930   2.190   3.404   3.312  0.0290 -0.5165 -1.5335
   15MOL0     C 1931   2.183   3.495   3.449  0.0099 -0.3955 -0.0220
   15MOL0     C 1932   2.328   3.553   3.472  1.1656 -0.1771  0.0132
   15MOL0     C 1933   2.339   3.601   3.624 -0.7129  0.7693  0.6805
   15MOL0     C 1934   2.258   3.720   3.654 -0.4875  0.5021 -0.7863
   15MOL0    Cl 1935   2.254   3.744   3.830 -0.4174  0.2828  0.3794
   15MOL0     C 1936   1.645   3.116   3.049 -0.2428 -0.4331 -0.3001
   15MOL0     C 1937   1.521   3.046   3.061 -0.0591 -0.0818  0.0903
   15MOL0     O 1938   1.160   3.181   3.102  0.0277  0.0571 -0.6601
   15MOL0     C 1939   1.089   2.834   3.152 -0.8563 -0.7535  1.6037
   15MOL0     C 1940   0.998   2.731   3.133 -0.4773  0.2325 -0.7197
   15MOL0     N 1941   0.188   2.534   2.899 -0.3018  0.7179  0.2511
   15MOL0     N 1942   0.059   2.540   2.888 -0.7601 -0.6630 -0.8557
   15MOL0     C 1943   0.043   1.816   2.613  0.4330 -0.1791 -0.3142
   15MOL0     C 1944   0.157   1.810   2.532 -0.2339 -0.3348  0.0691
   15MOL0     C 1945   0.529   1.804   2.328 -0.0454 -0.2628  0.6478
   15MOL0     C 1946   0.622   1.912   2.311  0.5580 -0.1263 -0.6097
   15MOL0     C 1947   0.734   1.893   2.227  0.8143  0.4105  0.2891
   15MOL0     C 1948   0.754   1.781   2.153 -0.6864  0.1289 -0.1063
   15MOL0     O 1949   0.867   1.738   2.077  0.5338  0.1780  0.1751
   15MOL0     C 1950   0.991   1.804   2.104  0.1999 -1.2777 -0.2405
   15MOL0     C 1951   1.002   1.925   2.020  0.1514 -0.3164 -0.2568
   15MOL0     C 1952   1.119   2.016   2.064 -0.5805  0.5338 -0.0387
   15MOL0     C 1953   1.094   2.159   2.022 -0.0913 -0.0416  0.6265
   15MOL0     C 1954   1.101   2.178   1.877 -0.0743 -0.4302  0.1040
   15MOL0     C 1955   1.093   2.201   1.765  0.0274  0.5524 -0.1244
   15MOL0     C 1956   0.655   1.685   2.159 -0.9884  0.5731  0.1662
   15MOL0     C 1957   0.550   1.695   2.243  0.2492 -0.1243  0.1563
   15MOL0     H 1958   0.249   1.495   2.565  0.6699  0.8919 -1.0866
   15MOL0     H 1959   0.055   1.504   2.728  0.7546  0.7116  0.5206
   15MOL0     H 1960   0.041   1.621   2.933 -0.1480 -0.5046 -1.7317
   15MOL0     H 1961   0.074   1.787   2.919 -1.3675  1.5651 -1.4643
   15MOL0     H 1962  -0.194   1.644   3.032 -3.7076  3.2106  1.1679
   15MOL0     H 1963  -0.072   1.730   3.133  1.6023  1.4141 -0.7550
   15MOL0     H 1964  -0.273   1.860   2.933 -0.2925 -0.8867  0.4998
   15MOL0     H 1965  -0.265   1.872   3.106  0.4408 -1.3873  0.8586
   15MOL0     H 1966  -0.005   1.963   3.035  1.3497 -3.7154 -0.6779
   15MOL0     H 1967  -0.071   1.985   2.884  4.0272 -0.6976  0.7312
   15MOL0     H 1968  -0.278   2.110   3.028  0.3531 -5.0134  0.6970
   15MOL0     H 1969  -0.160   2.105   3.157  3.7520 -1.0103  0.1026
   15MOL0     H 1970   0.003   2.237   3.009 -0.5224  1.0912  1.2098
   15MOL0     H 1971  -0.127   2.246   2.888  0.2990  0.1194 -0.1114
   15MOL0     H 1972  -0.280   2.340   3.057 -0.3359 -1.6010  0.5580
   15MOL0     H 1973  -0.149   2.331   3.172 -0.2610 -1.2598 -0.0078
   15MOL0     H 1974  -0.160   2.558   3.092  0.6768  0.0556  0.0380
   15MOL0     H 1975  -0.173   2.505   2.923  2.6564 -0.3369 -1.8745
   15MOL0     H 1976   0.107   2.448   3.200 -1.6444  0.5575  1.0358
   15MOL0     H 1977   0.405   2.646   3.099  2.2750 -0.7823 -0.7313
   15MOL0     H 1978   0.388   2.477   3.162  2.0187  1.2049  0.6768
   15MOL0     H 1979   0.464   2.542   2.875 -2.8802  1.1016  0.2080
   15MOL0     H 1980   0.445   2.383   2.938  2.7082  0.5729 -1.6893
   15MOL0     H 1981   0.675   2.417   2.966 -2.1363 -0.5983 -2.0281
   15MOL0     H 1982   0.620   2.485   3.127  1.2923  2.6468  0.1946
   15MOL0     H 1983   0.622   2.724   3.005  2.4298  2.3945 -2.4994
   15MOL0     H 1984   0.693   2.644   2.872  1.8459  2.7613  0.5385
   15MOL0     H 1985   0.763   2.898   2.964  0.1403 -2.6287 -1.3930
   15MOL0     H 1986   0.946   3.198   2.982 -1.4517  0.0621  0.9462
   15MOL0     H 1987   0.960   3.094   2.839  0.0663 -0.3270  0.1956
   15MOL0     H 1988   0.805   3.116   2.916 -1.2035 -2.4246  0.7920
   15MOL0     H 1989   1.377   3.201   3.317  0.7835  1.1724  0.1119
   15MOL0     H 1990   1.576   3.350   3.287  2.0297  0.3158 -0.8190
   15MOL0     H 1991   1.913   3.164   3.109 -0.7098 -0.0258 -0.6617
   15MOL0     H 1992   1.894   3.277   2.980 -0.1918  1.2903  0.0176
   15MOL0     H 1993   2.110   3.337   3.064 -0.2707  1.4605 -0.0468
   15MOL0     H 1994   1.993   3.462   3.095  2.4856  0.3271 -0.9531
   15MOL0     H 1995   2.067   3.244   3.303  3.3590  0.2517 -0.5718
   15MOL0     H 1996   1.981   3.397   3.338 -1.9624 -4.4973  0.7150
   15MOL0     H 1997   2.251   3.313   3.314 -0.8346 -1.3080 -4.8494
   15MOL0     H 1998   2.216   3.474   3.232 -3.2119  0.6540 -1.7313
   15MOL0     H 1999   2.137   3.440   3.531 -1.5242 -0.8101 -1.1204
   15MOL0     H 2000   2.109   3.573   3.429 -2.5470 -2.2958  1.3703
   15MOL0     H 2001   2.406   3.478   3.452  4.4453  2.8552  0.5453
   15MOL0     H 2002   2.348   3.642   3.412  1.3847 -1.2707 -1.6134
   15MOL0     H 2003   2.439   3.644   3.637  0.0469 -0.3956 -1.0151
   15MOL0     H 2004   2.334   3.512   3.687 -0.5472 -0.4404 -0.9784
   15MOL0     H 2005   2.152   3.712   3.628  0.0879 -0.1282 -3.2202
   15MOL0     H 2006   2.290   3.807   3.597  0.0707  0.9843  0.2327
   15MOL0     H 2007   1.727   3.109   2.978  2.1198  0.1061  2.1952
   15MOL0     H 2008   1.504   2.963   2.992 -1.2732  0.0038  0.2784
   15MOL0     H 2009   1.167   2.818   3.226  0.4281 -0.4956  0.3521
   15MOL0     H 2010   1.018   2.641   3.189  5.1804  1.1945 -0.6425
   15MOL0     H 2011  -0.026   1.899   2.627 -1.0424 -1.1609 -1.5004
   15MOL0     H 2012   0.174   1.902   2.478 -1.3877  0.1174  0.4525
   15MOL0     H 2013   0.615   2.002   2.371 -0.2404  0.2974 -1.3133
   15MOL0     H 2014   0.808   1.973   2.226  3.3673 -1.8072  0.0369
   15MOL0     H 2015   0.991   1.839   2.208  2.1955  1.0089 -0.9269
   15MOL0     H 2016   1.068   1.730   2.082  0.8674 -0.7423  0.2796
   15MOL0     H 2017   0.905   1.975   2.026 -1.0144 -2.5605  1.1586
   15MOL0     H 2018   1.009   1.904   1.913 -1.7262 -0.9496 -0.2914
   15MOL0     H 2019   1.219   1.981   2.038 -0.4902 -1.1877  2.2515
   15MOL0     H 2020   1.127   2.007   2.173 -1.6302 -2.8222 -0.1205
   15MOL0     H 2021   1.181   2.219   2.052 -0.7884  1.9152 -1.0434
   15MOL0     H 2022   1.000   2.196   2.063  0.1492  3.2816 -1.4679
   15MOL0     H 2023   1.083   2.223   1.661 -0.1731 -2.1308 -0.7397
   15MOL0     H 2024   0.660   1.608   2.083  0.2955  1.2796 -0.5051
   15MOL0     H 2025   0.473   1.620   2.254  0.1528  0.2350  2.4855
   16MOL0     O 2026   8.588   2.873   4.124  0.2066 -0.1285 -0.4042
   16MOL0     C 2027   8.547   2.950   4.046  0.4333 -0.4533 -0.7904
   16MOL0     O 2028   8.419   2.942   3.983 -0.2200 -0.3110  0.4721
   16MOL0     C 2029   8.347   2.829   4.009  0.1712 -0.0920 -0.4712
   16MOL0     C 2030   8.321   2.733   3.903 -0.5186  0.1340 -0.8846
   16MOL0     C 2031   8.244   2.623   3.928  0.0766  0.3947 -0.2366
   16MOL0     C 2032   8.196   2.593   4.055  0.1651 -0.8836  0.7375
   16MOL0     O 2033   8.113   2.485   4.065 -0.2061  0.0006  0.0573
   16MOL0     C 2034   7.998   2.503   4.150 -0.3242  0.0834 -0.3874
   16MOL0     C 2035   7.947   2.372   4.233  0.8626  0.3583  0.1199
   16MOL0     C 2036   8.007   2.341   4.374 -0.5600 -0.0235  0.0706
   16MOL0     C 2037   7.981   2.443   4.476  0.0997  0.3602  0.5760
   16MOL0     C 2038   8.012   2.402   4.619 -0.2105 -0.1206 -0.5902
   16MOL0     C 2039   7.978   2.525   4.705 -0.1202  0.2746  0.1099
   16MOL0     C 2040   7.995   2.502   4.856 -0.8323 -0.2039 -0.1150
   16MOL0     C 2041   7.886   2.403   4.903  0.6518  0.6869 -0.2092
   16MOL0     N 2042   7.754   2.451   4.882  0.7077  0.0957 -0.5484
   16MOL0     C 2043   7.684   2.569   4.902  0.8487  0.3230  0.9662
   16MOL0     C 2044   7.552   2.538   4.904  0.3311 -0.0046 -0.7165
   16MOL0     C 2045   7.446   2.627   4.914  0.4515  0.0309 -0.6765
   16MOL0     C 2046   7.461   2.738   4.816 -0.1116 -0.0925 -0.6978
   16MOL0     C 2047   7.340   2.843   4.805  0.2329 -1.1858  0.0241
   16MOL0     C 2048   7.395   2.950   4.707  0.3788 -0.3434  0.6319
   16MOL0     O 2049   7.306   3.065   4.687 -0.4205 -0.3069  0.9389
   16MOL0     C 2050   7.189   3.037   4.625 -0.4504 -0.7936 -0.3693
   16MOL0     C 2051   7.172   2.942   4.520 -0.5510  0.6361  0.3136
   16MOL0     C 2052   7.044   2.913   4.463 -0.0557  0.1113  0.0105
   16MOL0     C 2053   7.037   2.797   4.364 -0.1718  0.2185  0.2072
   16MOL0     C 2054   6.929   2.987   4.509 -0.4440  0.1378 -0.6296
   16MOL0     C 2055   6.794   2.952   4.450 -0.2385  0.4307 -0.0680
   16MOL0     O 2056   6.770   2.987   4.321 -0.3246  0.4596 -0.5956
   16MOL0     C 2057   6.641   2.999   4.281  0.5282  0.3311  0.4512
   16MOL0     C 2058   6.594   2.951   4.152 -0.2512 -0.0783 -0.1951
   16MOL0     C 2059   6.462   2.953   4.112  0.7357  0.5133 -0.5120
   16MOL0     C 2060   6.375   3.031   4.186  0.1454  0.6575  0.1580
   16MOL0     O 2061   6.254   3.056   4.130  0.0351  0.2936 -0.3121
   16MOL0     C 2062   6.153   2.981   4.191 -0.1203 -0.1925  0.8812
   16MOL0     C 2063   6.027   3.008   4.105  0.5013  0.3806  0.0785
   16MOL0     C 2064   5.991   3.157   4.087  0.3755  0.3535  0.3218
   16MOL0     C 2065   5.885   3.186   3.979  0.5797  0.0516 -0.3814
   16MOL0     C 2066   5.813   3.324   4.002  0.4161  0.1307 -0.5740
   16MOL0     C 2067   5.691   3.344   3.918  0.3309 -0.3931  1.0017
   16MOL0     C 2068   5.602   3.468   3.958  1.0570  0.7675  0.2638
   16MOL0     C 2069   5.673   3.600   3.982 -0.1407  0.1264 -0.5713
   16MOL0    Cl 2070   5.750   3.638   3.824  0.4556 -0.2062 -0.3831
   16MOL0     C 2071   6.415   3.074   4.314 -0.1499  0.0221 -0.3805
   16MOL0     C 2072   6.548   3.070   4.360  0.3600  0.6984 -0.1967
   16MOL0     O 2073   6.713   2.909   4.529 -0.1537 -0.3700  0.4580
   16MOL0     C 2074   6.956   3.082   4.608  1.3557  0.1968 -0.5862
   16MOL0     C 2075   7.080   3.105   4.667  0.0171 -0.6540 -0.4524
   16MOL0     N 2076   7.543   2.407   4.895 -0.7872  0.3613  0.9835
   16MOL0     N 2077   7.660   2.359   4.878  0.4467 -0.1952  0.6633
   16MOL0     C 2078   8.229   2.670   4.158  0.0764  0.0636  0.4641
   16MOL0     C 2079   8.287   2.796   4.138 -0.2976 -0.2413  0.1317
   16MOL0     C 2080   8.636   3.069   4.024  0.0951  0.2496 -0.5278
   16MOL0     C 2081   8.598   3.169   3.932  0.4549  0.1533  0.2183
   16MOL0     C 2082   8.680   3.276   3.919 -0.3214 -0.1395 -1.0391
   16MOL0     C 2083   8.810   3.291   3.982  0.3350 -0.5061  0.6252
   16MOL0     O 2084   8.863   3.414   3.966 -0.9700  0.1275  0.0266
   16MOL0     C 2085   9.002   3.438   4.000 -0.5159 -0.2745 -0.4013
   16MOL0     C 2086   9.049   3.566   3.925  0.1390 -0.2619 -0.3709
   16MOL0     C 2087   9.204   3.571   3.884  0.5366  0.6766 -0.7916
   16MOL0     C 2088   9.244   3.715   3.840  0.6697  0.7752 -0.3401
   16MOL0     C 2089   9.383   3.734   3.860 -0.4886  0.5966 -0.4950
   16MOL0     C 2090   9.504   3.759   3.876 -1.3630 -0.0184  0.6720
   16MOL0     C 2091   8.837   3.204   4.086  0.3004  0.7290 -1.0421
   16MOL0     C 2092   8.768   3.087   4.090  0.9020  0.4936  0.0296
   16MOL0     H 2093   8.359   2.756   3.803  4.5299  1.2679  1.0179
   16MOL0     H 2094   8.217   2.560   3.843  1.6590  1.3713 -1.5116
   16MOL0     H 2095   7.999   2.586   4.222 -1.8248  0.3357 -0.6197
   16MOL0     H 2096   7.923   2.524   4.073 -0.3103  1.5173 -0.0459
   16MOL0     H 2097   7.838   2.377   4.240  0.8097 -1.9762  2.6088
   16MOL0     H 2098   7.974   2.286   4.172  1.0018  0.6952 -0.3039
   16MOL0     H 2099   7.957   2.250   4.407 -0.0800 -0.7212 -1.0645
   16MOL0     H 2100   8.112   2.317   4.356 -0.6909 -0.3001 -0.3551
   16MOL0     H 2101   8.039   2.530   4.443 -1.1384  1.4582  1.1989
   16MOL0     H 2102   7.881   2.487   4.472 -0.2935 -0.3016  2.5013
   16MOL0     H 2103   7.947   2.317   4.643 -4.2040  3.2537  1.9035
   16MOL0     H 2104   8.117   2.373   4.625 -0.5196 -1.2461 -0.3595
   16MOL0     H 2105   8.039   2.612   4.677 -2.7043  2.6098  1.2297
   16MOL0     H 2106   7.875   2.547   4.676  0.0384 -0.8119 -1.3772
   16MOL0     H 2107   8.096   2.464   4.875 -1.4091 -3.1398 -2.1828
   16MOL0     H 2108   7.981   2.601   4.901  0.7490  0.3368 -0.7424
   16MOL0     H 2109   7.911   2.385   5.007 -0.1615 -2.8258 -0.5148
   16MOL0     H 2110   7.897   2.303   4.861  0.9730 -0.6722  2.8490
   16MOL0     H 2111   7.711   2.674   4.912 -0.0944  0.5513  1.2215
   16MOL0     H 2112   7.357   2.565   4.904  0.4539  0.4097 -3.8136
   16MOL0     H 2113   7.439   2.671   5.014 -2.8345  0.1309 -0.8646
   16MOL0     H 2114   7.486   2.689   4.722 -3.1529 -3.1055 -0.1640
   16MOL0     H 2115   7.546   2.796   4.853 -1.7665  2.0253 -0.0412
   16MOL0     H 2116   7.321   2.900   4.896  2.4557 -1.5461  0.7951
   16MOL0     H 2117   7.248   2.796   4.770 -2.2563  3.0555  0.1679
   16MOL0     H 2118   7.426   2.903   4.613 -0.6211  2.5825 -1.2761
   16MOL0     H 2119   7.485   3.003   4.738  0.2673  0.9470 -1.1304
   16MOL0     H 2120   7.248   2.883   4.470  0.6736  0.8751  1.8331
   16MOL0     H 2121   6.980   2.848   4.286  0.2908 -0.0861 -0.3375
   16MOL0     H 2122   7.136   2.767   4.327 -0.1814  1.4069 -0.8555
   16MOL0     H 2123   6.985   2.715   4.415  1.6901 -0.3886  1.2440
   16MOL0     H 2124   6.651   2.884   4.089  2.6777 -0.4242  2.5397
   16MOL0     H 2125   6.439   2.925   4.010  1.9860  3.0402 -1.5745
   16MOL0     H 2126   6.188   2.877   4.201  0.3923 -0.1716 -0.5047
   16MOL0     H 2127   6.134   3.019   4.292  1.5739 -1.2434  1.6516
   16MOL0     H 2128   6.052   2.969   4.006  1.6475  0.8012  0.1898
   16MOL0     H 2129   5.934   2.965   4.142 -0.1992  0.9657 -0.9457
   16MOL0     H 2130   6.083   3.213   4.070  0.9074 -0.6925 -0.3969
   16MOL0     H 2131   5.960   3.180   4.189 -2.2100  1.4469 -0.6495
   16MOL0     H 2132   5.935   3.186   3.881 -1.9668 -0.4105 -1.7656
   16MOL0     H 2133   5.809   3.107   3.980 -2.5206  2.8204  1.0615
   16MOL0     H 2134   5.881   3.406   3.980  1.6819 -0.5896  0.4605
   16MOL0     H 2135   5.779   3.344   4.104  0.4288 -2.3807  0.0051
   16MOL0     H 2136   5.737   3.362   3.820  0.0167 -2.7576  0.3486
   16MOL0     H 2137   5.634   3.254   3.893  2.6928 -1.1346 -2.5257
   16MOL0     H 2138   5.545   3.448   4.050  1.4199  0.5843  0.4481
   16MOL0     H 2139   5.527   3.487   3.880 -1.6037  0.3782  2.5437
   16MOL0     H 2140   5.754   3.568   4.048 -2.2514 -1.4234  1.4083
   16MOL0     H 2141   5.603   3.671   4.027  2.1560 -0.3001  4.3686
   16MOL0     H 2142   6.350   3.142   4.369  1.8176  1.1296  0.6945
   16MOL0     H 2143   6.580   3.113   4.454  2.1495  0.7454 -0.7909
   16MOL0     H 2144   6.878   3.149   4.644  0.7974  0.5881 -2.3858
   16MOL0     H 2145   7.087   3.180   4.746 -3.5765  2.3132 -2.6106
   16MOL0     H 2146   8.205   2.627   4.254  0.5075  0.0898  0.5838
   16MOL0     H 2147   8.311   2.864   4.220  0.2774  1.1705 -1.1476
   16MOL0     H 2148   8.502   3.167   3.881  0.8192 -2.8977 -0.5456
   16MOL0     H 2149   8.649   3.365   3.865  0.3451  0.5414 -0.3269
   16MOL0     H 2150   9.006   3.456   4.108 -0.3818  0.1344 -0.4726
   16MOL0     H 2151   9.058   3.348   3.975 -2.1164 -1.6592  0.7401
   16MOL0     H 2152   9.027   3.654   3.985  4.3252  1.0458 -0.4669
   16MOL0     H 2153   8.987   3.555   3.835 -3.0638 -2.9468  1.9023
   16MOL0     H 2154   9.234   3.495   3.811  1.3751  0.2114  0.0213
   16MOL0     H 2155   9.251   3.545   3.979 -2.6131  0.2707  0.7636
   16MOL0     H 2156   9.188   3.792   3.896 -1.2326 -1.2791  0.7439
   16MOL0     H 2157   9.206   3.734   3.739 -2.7039 -1.7553  0.2698
   16MOL0     H 2158   9.606   3.786   3.891 -1.3611 -0.6110  1.8372
   16MOL0     H 2159   8.927   3.215   4.145 -0.4670  0.1042  0.3092
   16MOL0     H 2160   8.803   3.009   4.157 -1.6651 -0.3746  0.4948
   17MOL0     O 2161   2.825  10.213   6.508 -0.0612  0.2072 -0.2263
   17MOL0     C 2162   2.882  10.170   6.411  0.3859  1.0288 -0.2290
   17MOL0     O 2163   2.825  10.168   6.290  0.4813  0.3334  0.3339
   17MOL0     C 2164   2.697  10.222   6.267  0.2208  0.5406  0.3349
   17MOL0     C 2165   2.666  10.272   6.135 -0.0226 -0.1139 -0.3233
   17MOL0     C 2166   2.540  10.310   6.100 -0.2760  0.0791 -0.2781
   17MOL0     C 2167   2.436  10.315   6.199 -0.2559 -0.1475  1.0378
   17MOL0     O 2168   2.322  10.383   6.169 -0.2681 -0.1007  0.7070
   17MOL0     C 2169   2.337  10.522   6.120 -0.9971  0.0802  0.2924
   17MOL0     C 2170   2.419  10.603   6.226  0.1131  0.4449 -0.7162
   17MOL0     C 2171   2.334  10.631   6.358  0.3512 -0.0087 -0.4682
   17MOL0     C 2172   2.217  10.736   6.336  0.6995 -0.6735  0.1143
   17MOL0     C 2173   2.184  10.831   6.450  0.3351 -0.0481 -0.1634
   17MOL0     C 2174   2.152  10.756   6.584  0.0357  0.4701  0.3235
   17MOL0     C 2175   2.110  10.837   6.699  0.6269 -0.2654  0.4640
   17MOL0     C 2176   2.156  10.780   6.834  0.7049 -0.5933  1.3194
   17MOL0     N 2177   2.125  10.876   6.927  0.7126 -0.2623  0.7305
   17MOL0     C 2178   2.200  10.909   7.035 -0.0825 -0.3973  0.0810
   17MOL0     C 2179   2.145  11.012   7.102 -0.0121 -0.5198 -0.9465
   17MOL0     C 2180   2.192  11.087   7.224  0.2947  0.5438 -0.1324
   17MOL0     C 2181   2.256  11.236   7.206  0.2220 -0.4734 -0.1393
   17MOL0     C 2182   2.141  11.336   7.181  0.0712 -0.7383 -0.4544
   17MOL0     C 2183   2.202  11.456   7.091  0.8328 -0.4510  0.7858
   17MOL0     O 2184   2.313  11.526   7.148  0.8200  0.1970  0.1400
   17MOL0     C 2185   2.301  11.572   7.276  0.5937  0.2422 -0.8945
   17MOL0     C 2186   2.193  11.641   7.318 -1.4177 -0.3366 -1.1541
   17MOL0     C 2187   2.183  11.699   7.447 -0.1535 -0.6672  0.3993
   17MOL0     C 2188   2.064  11.800   7.483  0.0769  0.4487 -0.1788
   17MOL0     C 2189   2.287  11.667   7.534  0.0493 -0.1251 -0.5499
   17MOL0     C 2190   2.280  11.706   7.677  0.3480  0.1694 -0.5711
   17MOL0     O 2191   2.398  11.683   7.748 -0.0072  0.2687  0.1426
   17MOL0     C 2192   2.390  11.670   7.885 -0.6431 -0.5165  0.4162
   17MOL0     C 2193   2.472  11.753   7.949  0.0645 -0.8831 -0.7394
   17MOL0     C 2194   2.480  11.760   8.085  0.2701 -0.0255 -0.5404
   17MOL0     C 2195   2.407  11.677   8.169  0.4129 -0.2835  0.1269
   17MOL0     O 2196   2.441  11.693   8.300 -0.0115 -0.2440  0.5603
   17MOL0     C 2197   2.328  11.663   8.388  0.4676  0.4240  0.2171
   17MOL0     C 2198   2.336  11.727   8.531  0.3036 -0.3074  0.3630
   17MOL0     C 2199   2.472  11.745   8.606 -0.1986  0.5828 -0.4702
   17MOL0     C 2200   2.450  11.826   8.731 -0.6208 -0.4951 -0.2485
   17MOL0     C 2201   2.586  11.880   8.806 -0.0865  0.0746  0.4681
   17MOL0     C 2202   2.683  11.756   8.834  0.3315 -0.8450  0.7486
   17MOL0     C 2203   2.804  11.799   8.923  0.7560 -0.7741 -0.0939
   17MOL0     C 2204   2.893  11.692   8.977 -0.3613 -0.1617  0.3500
   17MOL0    Cl 2205   2.814  11.628   9.111 -0.1856  0.0464 -0.3294
   17MOL0     C 2206   2.313  11.592   8.109  0.0575 -0.0659  0.1682
   17MOL0     C 2207   2.301  11.597   7.961 -0.0598 -0.5398  1.0915
   17MOL0     O 2208   2.179  11.743   7.731 -0.0240 -0.7868  0.9541
   17MOL0     C 2209   2.392  11.590   7.494  0.6115  0.4936  0.3852
   17MOL0     C 2210   2.404  11.542   7.365 -1.1528 -0.9330  0.7086
   17MOL0     N 2211   2.036  11.055   7.024 -0.5974  0.1008 -1.6203
   17MOL0     N 2212   2.026  10.979   6.921 -1.2751  0.4938 -0.3292
   17MOL0     C 2213   2.462  10.256   6.320  0.0946  0.5866  0.0192
   17MOL0     C 2214   2.588  10.207   6.352  0.4264 -0.5318  0.0474
   17MOL0     C 2215   3.022  10.122   6.428 -0.7285  0.0273 -0.4501
   17MOL0     C 2216   3.071  10.030   6.337 -0.0614 -0.6868 -0.1601
   17MOL0     C 2217   3.185   9.955   6.360  0.1780 -0.9793  0.3073
   17MOL0     C 2218   3.254   9.974   6.475 -0.4113  0.0189 -0.2643
   17MOL0     O 2219   3.368   9.894   6.482  0.0658 -0.0816  0.2245
   17MOL0     C 2220   3.417   9.846   6.602  0.3633  0.5305 -0.4344
   17MOL0     C 2221   3.473   9.709   6.575 -0.1330 -0.4355 -0.8338
   17MOL0     C 2222   3.360   9.615   6.529  0.3029 -0.3081  0.0990
   17MOL0     C 2223   3.370   9.592   6.380 -0.3354  0.1038 -0.8618
   17MOL0     C 2224   3.480   9.509   6.344  0.2099 -0.3616 -0.3559
   17MOL0     C 2225   3.550   9.415   6.314 -0.2514 -0.0065  0.9058
   17MOL0     C 2226   3.218  10.069   6.571  0.0231 -0.7916 -0.4282
   17MOL0     C 2227   3.097  10.146   6.546 -0.0832  0.9716 -0.7188
   17MOL0     H 2228   2.749  10.281   6.065 -0.0834  0.1270 -0.3627
   17MOL0     H 2229   2.526  10.346   5.998 -1.0076  0.0321 -0.1970
   17MOL0     H 2230   2.383  10.513   6.020 -0.6915  0.2727  0.4145
   17MOL0     H 2231   2.238  10.567   6.104 -0.1352  1.3975 -1.9180
   17MOL0     H 2232   2.511  10.544   6.232 -1.6254 -3.1041 -4.0274
   17MOL0     H 2233   2.441  10.699   6.179 -2.8141 -0.0289 -3.3990
   17MOL0     H 2234   2.299  10.533   6.391  0.8758 -0.9503 -2.5155
   17MOL0     H 2235   2.401  10.672   6.434 -1.0784  1.5829 -0.0168
   17MOL0     H 2236   2.245  10.798   6.251  0.0969 -2.4275 -1.4303
   17MOL0     H 2237   2.129  10.677   6.308 -1.4726  2.6107 -0.6162
   17MOL0     H 2238   2.272  10.896   6.450 -1.5089  2.6275 -1.1081
   17MOL0     H 2239   2.095  10.888   6.420 -0.5922 -1.1563  0.3956
   17MOL0     H 2240   2.077  10.679   6.565  0.2386  0.6144 -1.1274
   17MOL0     H 2241   2.247  10.703   6.597  1.1809  1.6057 -2.6610
   17MOL0     H 2242   2.145  10.940   6.687  1.6329 -0.4455  1.6121
   17MOL0     H 2243   2.001  10.838   6.713  0.6840  0.1744  0.9007
   17MOL0     H 2244   2.264  10.761   6.835  0.9325  0.2467 -1.0440
   17MOL0     H 2245   2.105  10.684   6.847 -3.1557  1.0751 -0.2602
   17MOL0     H 2246   2.289  10.853   7.062  0.7373 -0.2672 -2.1646
   17MOL0     H 2247   2.117  11.099   7.302 -0.5266 -2.6766 -0.2794
   17MOL0     H 2248   2.272  11.027   7.269 -0.4720 -0.1046  0.3949
   17MOL0     H 2249   2.334  11.235   7.129 -0.1038 -1.0151 -0.4708
   17MOL0     H 2250   2.306  11.252   7.302 -0.9965 -3.5407  1.1274
   17MOL0     H 2251   2.108  11.364   7.281  2.2943 -0.2509  0.1963
   17MOL0     H 2252   2.050  11.290   7.138 -0.9029  0.8142 -0.1182
   17MOL0     H 2253   2.124  11.530   7.070  0.5854 -0.8548  0.2691
   17MOL0     H 2254   2.232  11.406   6.998 -0.6220  0.1416 -0.0521
   17MOL0     H 2255   2.119  11.671   7.245 -0.8534  1.1460 -1.1538
   17MOL0     H 2256   1.994  11.742   7.543  1.4981 -0.5961  0.5511
   17MOL0     H 2257   2.106  11.883   7.540 -1.9935  2.8282 -1.9479
   17MOL0     H 2258   2.011  11.829   7.392  0.1342  0.3495 -0.2444
   17MOL0     H 2259   2.540  11.829   7.911  0.8598  0.8157  3.5125
   17MOL0     H 2260   2.537  11.833   8.141 -0.6748 -0.4347  1.0109
   17MOL0     H 2261   2.240  11.705   8.338  0.4639  1.5525  1.1396
   17MOL0     H 2262   2.327  11.554   8.392  1.7384  0.3410 -0.9235
   17MOL0     H 2263   2.302  11.829   8.511  0.1979 -0.6189 -1.1109
   17MOL0     H 2264   2.259  11.682   8.595  0.3974 -0.4375  0.3872
   17MOL0     H 2265   2.547  11.776   8.533  0.8058 -2.6150 -0.9537
   17MOL0     H 2266   2.517  11.646   8.617 -1.2845 -0.3654 -3.5466
   17MOL0     H 2267   2.400  11.918   8.700  0.1941 -0.2780 -0.9861
   17MOL0     H 2268   2.384  11.785   8.808  1.2274 -1.3655  0.9517
   17MOL0     H 2269   2.565  11.926   8.903  1.6821  0.3369  0.7713
   17MOL0     H 2270   2.633  11.960   8.747  0.0859  1.5182  2.4601
   17MOL0     H 2271   2.625  11.678   8.883 -1.5958  0.4213  0.6342
   17MOL0     H 2272   2.717  11.715   8.738  3.5521  3.5529 -0.3468
   17MOL0     H 2273   2.758  11.855   9.005  0.0364 -0.7463 -0.5078
   17MOL0     H 2274   2.863  11.858   8.851 -1.6118  1.1390 -0.6176
   17MOL0     H 2275   2.990  11.738   8.996 -0.0095 -0.8684  0.3073
   17MOL0     H 2276   2.923  11.628   8.894  0.4714  1.8038 -0.9551
   17MOL0     H 2277   2.250  11.529   8.172 -1.5072  2.3276  1.1319
   17MOL0     H 2278   2.231  11.534   7.907  1.4427 -1.8127  0.5513
   17MOL0     H 2279   2.472  11.555   7.559  0.0107 -1.2955  0.1951
   17MOL0     H 2280   2.489  11.486   7.326 -0.3427 -0.8099  2.2104
   17MOL0     H 2281   2.382  10.241   6.392  0.9335 -2.1431  0.5150
   17MOL0     H 2282   2.602  10.168   6.452  1.4337  0.4615  0.3278
   17MOL0     H 2283   3.019  10.008   6.244 -2.9882 -2.9020  1.7825
   17MOL0     H 2284   3.214   9.891   6.277 -0.1374  0.9057 -1.3304
   17MOL0     H 2285   3.500   9.915   6.623  0.2333  0.6291 -0.2463
   17MOL0     H 2286   3.337   9.848   6.676 -0.1946 -2.0572 -0.8988
   17MOL0     H 2287   3.515   9.654   6.660 -3.5215 -4.6580 -1.4874
   17MOL0     H 2288   3.553   9.729   6.503 -1.5326 -0.0027 -2.3426
   17MOL0     H 2289   3.257   9.648   6.550  0.7977  2.0890 -0.8855
   17MOL0     H 2290   3.373   9.518   6.578 -3.3698 -0.9823  0.0585
   17MOL0     H 2291   3.380   9.694   6.340  2.4046  0.7398  1.0615
   17MOL0     H 2292   3.270   9.559   6.353 -0.1849 -0.9089 -0.2557
   17MOL0     H 2293   3.613   9.340   6.271 -0.4148 -0.2457  1.0774
   17MOL0     H 2294   3.273  10.098   6.660 -3.2066 -1.0484  1.8280
   17MOL0     H 2295   3.069  10.223   6.618  3.6802 -2.2772  5.0545
   18MOL0     O 2296   4.239  11.416   4.125  0.9378 -0.5482  0.6438
   18MOL0     C 2297   4.286  11.313   4.168  0.4638  0.2443  0.0353
   18MOL0     O 2298   4.414  11.306   4.218  0.4850 -0.3845  0.0031
   18MOL0     C 2299   4.479  11.424   4.256  0.1958 -0.0205  0.3689
   18MOL0     C 2300   4.410  11.524   4.319 -0.7476  0.6949 -0.1143
   18MOL0     C 2301   4.473  11.643   4.347  0.7702 -0.3596 -0.1714
   18MOL0     C 2302   4.607  11.660   4.323 -0.1869 -0.3143  0.6982
   18MOL0     O 2303   4.673  11.777   4.351  0.0241  0.3143  0.5472
   18MOL0     C 2304   4.639  11.886   4.260  0.4799  0.6055  0.0742
   18MOL0     C 2305   4.705  12.012   4.324  0.2853 -0.3276  0.0094
   18MOL0     C 2306   4.612  12.125   4.363 -0.1633 -0.0880 -0.3334
   18MOL0     C 2307   4.701  12.238   4.426  0.0018  0.8216  0.1929
   18MOL0     C 2308   4.625  12.348   4.487  0.1579 -1.5162  0.3878
   18MOL0     C 2309   4.715  12.450   4.560 -0.5252  0.1790  0.0545
   18MOL0     C 2310   4.754  12.401   4.700  0.2896  0.1306  0.9482
   18MOL0     C 2311   4.832  12.508   4.789  0.4466  0.7609 -0.3626
   18MOL0     N 2312   4.742  12.616   4.829 -1.0640  0.0433  0.5461
   18MOL0     C 2313   4.651  12.603   4.930 -0.2542  0.2573  0.4875
   18MOL0     C 2314   4.577  12.720   4.930  0.1212  0.2964 -0.0086
   18MOL0     C 2315   4.463  12.740   5.027  0.8264 -0.8993 -0.6915
   18MOL0     C 2316   4.516  12.812   5.156 -0.3463  0.0087 -0.2666
   18MOL0     C 2317   4.546  12.963   5.127  0.0953  0.0273 -0.5032
   18MOL0     C 2318   4.597  13.030   5.262 -1.0273  0.8760  0.3893
   18MOL0     O 2319   4.648  13.167   5.239 -0.2330 -0.0698  0.1523
   18MOL0     C 2320   4.752  13.185   5.321  0.2254  0.2216 -0.2733
   18MOL0     C 2321   4.727  13.235   5.445 -0.4141 -0.3281 -1.4366
   18MOL0     C 2322   4.823  13.230   5.543  0.0744  0.3422 -1.2826
   18MOL0     C 2323   4.792  13.302   5.676 -0.6142 -0.8130  0.5897
   18MOL0     C 2324   4.949  13.186   5.519  0.2501 -0.6098 -0.7148
   18MOL0     C 2325   5.070  13.186   5.612 -0.1936 -0.9288 -0.6602
   18MOL0     O 2326   5.194  13.167   5.555  0.2459  0.3646  0.2295
   18MOL0     C 2327   5.300  13.148   5.638 -0.7927 -0.0283 -0.2056
   18MOL0     C 2328   5.368  13.246   5.712 -0.1049  0.5335 -0.2355
   18MOL0     C 2329   5.479  13.219   5.791 -1.1813 -0.1650 -0.1848
   18MOL0     C 2330   5.524  13.085   5.790 -0.8070  0.0099  0.0422
   18MOL0     O 2331   5.631  13.052   5.862 -0.5755  0.2688 -0.0639
   18MOL0     C 2332   5.724  12.964   5.793  0.3560 -0.2494 -0.2381
   18MOL0     C 2333   5.866  12.968   5.861 -0.7327 -1.2053 -0.4215
   18MOL0     C 2334   5.941  12.843   5.818  1.2710  0.2169  0.7353
   18MOL0     C 2335   6.088  12.839   5.856 -0.3179 -1.1154 -1.2118
   18MOL0     C 2336   6.194  12.914   5.773  0.2371 -0.1280  0.5082
   18MOL0     C 2337   6.336  12.874   5.825  0.9698  0.4072  0.3252
   18MOL0     C 2338   6.434  12.911   5.711 -0.6367  0.1566  0.6664
   18MOL0     C 2339   6.452  12.814   5.602  0.4199 -0.5494  0.0958
   18MOL0    Cl 2340   6.591  12.856   5.517  0.2844 -0.5020  0.4410
   18MOL0     C 2341   5.453  12.985   5.727  0.2462 -0.6127  0.3930
   18MOL0     C 2342   5.343  13.019   5.648 -0.2403  0.0346 -0.4619
   18MOL0     O 2343   5.053  13.193   5.732  0.6363 -0.3774  0.4533
   18MOL0     C 2344   4.976  13.132   5.392  0.7642 -0.4957 -0.1293
   18MOL0     C 2345   4.885  13.132   5.296 -0.0538 -0.6834  0.2474
   18MOL0     N 2346   4.646  12.799   4.840 -0.2549  0.1373 -0.6884
   18MOL0     N 2347   4.736  12.747   4.777 -0.4887  0.3037 -0.2701
   18MOL0     C 2348   4.679  11.552   4.263  0.7663 -0.5563 -0.7909
   18MOL0     C 2349   4.617  11.438   4.232 -1.0732  0.0218 -0.0704
   18MOL0     C 2350   4.211  11.180   4.151  0.1165 -0.7327  0.0488
   18MOL0     C 2351   4.071  11.180   4.108 -0.2699 -0.2619 -0.2516
   18MOL0     C 2352   4.012  11.055   4.095  0.6694 -0.3068 -0.1614
   18MOL0     C 2353   4.071  10.929   4.119  0.2661 -0.3110 -1.2013
   18MOL0     O 2354   4.005  10.812   4.091 -0.4772 -0.3819  0.2396
   18MOL0     C 2355   4.064  10.680   4.096 -0.6110 -1.2336  1.5422
   18MOL0     C 2356   4.027  10.606   4.222  0.3856  0.2699 -1.1406
   18MOL0     C 2357   4.076  10.460   4.237  0.2396 -0.5927 -0.1883
   18MOL0     C 2358   4.020  10.395   4.363  0.3147  0.1959 -0.1646
   18MOL0     C 2359   4.107  10.422   4.483 -0.4931  0.4888  0.1503
   18MOL0     C 2360   4.172  10.443   4.587 -0.2778  0.4985  1.0515
   18MOL0     C 2361   4.207  10.946   4.159  0.0553 -0.5896 -0.1118
   18MOL0     C 2362   4.273  11.059   4.181  1.1496 -1.0333  0.3337
   18MOL0     H 2363   4.308  11.501   4.346 -0.2516  0.3668  1.6331
   18MOL0     H 2364   4.415  11.719   4.398  1.0562 -1.1480  1.4103
   18MOL0     H 2365   4.683  11.865   4.162 -0.8252 -0.9359 -0.2323
   18MOL0     H 2366   4.531  11.888   4.238  0.6910 -3.2372 -2.2511
   18MOL0     H 2367   4.755  11.978   4.416  0.8340  3.5949  1.3727
   18MOL0     H 2368   4.783  12.045   4.255 -0.2635 -3.6101 -2.3995
   18MOL0     H 2369   4.545  12.164   4.285  1.0882  2.6695 -0.1472
   18MOL0     H 2370   4.551  12.084   4.444  1.7484  3.3547  3.1618
   18MOL0     H 2371   4.772  12.199   4.500  0.3443 -2.5059 -1.6483
   18MOL0     H 2372   4.764  12.285   4.350 -1.2063 -2.4614 -3.1593
   18MOL0     H 2373   4.560  12.398   4.414 -0.0210  1.0917  2.2065
   18MOL0     H 2374   4.543  12.318   4.552 -4.4016  0.7264 -3.6560
   18MOL0     H 2375   4.800  12.460   4.491 -2.5163 -3.3829 -3.3175
   18MOL0     H 2376   4.668  12.546   4.582  2.5194  1.4020  1.9871
   18MOL0     H 2377   4.666  12.356   4.747 -2.0856 -1.7976 -4.5304
   18MOL0     H 2378   4.813  12.310   4.691 -0.0395 -0.0705  0.8180
   18MOL0     H 2379   4.922  12.542   4.738  2.1618 -0.8684  1.4289
   18MOL0     H 2380   4.860  12.459   4.882  0.1526  2.9650  0.9570
   18MOL0     H 2381   4.635  12.530   5.009  1.8686 -0.6988  0.1179
   18MOL0     H 2382   4.382  12.789   4.971  1.9721 -0.4320 -2.0060
   18MOL0     H 2383   4.418  12.650   5.069  1.1712 -0.3711  0.8761
   18MOL0     H 2384   4.602  12.757   5.193 -0.5912  0.1595  0.5455
   18MOL0     H 2385   4.444  12.815   5.238 -0.7643  3.4790 -0.5991
   18MOL0     H 2386   4.454  13.010   5.090 -0.6660 -1.8539 -1.1416
   18MOL0     H 2387   4.620  12.974   5.047  0.3918 -0.8248 -0.3573
   18MOL0     H 2388   4.671  12.958   5.296  0.8059 -0.4854 -5.4024
   18MOL0     H 2389   4.518  13.024   5.338 -1.2248 -0.6578  0.0861
   18MOL0     H 2390   4.635  13.290   5.465  0.2417  0.6175 -0.9482
   18MOL0     H 2391   4.860  13.378   5.716  1.7806 -2.4656 -0.1196
   18MOL0     H 2392   4.700  13.361   5.672  0.2997  0.7724  1.7584
   18MOL0     H 2393   4.791  13.219   5.746  0.7830 -2.6773 -1.4654
   18MOL0     H 2394   5.322  13.344   5.701  0.0929  0.6002 -0.4858
   18MOL0     H 2395   5.530  13.296   5.848 -0.9172  0.0074 -0.6564
   18MOL0     H 2396   5.676  12.866   5.792  0.6140 -0.3991  0.8606
   18MOL0     H 2397   5.726  13.005   5.692  1.0005  0.0473 -0.1114
   18MOL0     H 2398   5.922  13.056   5.827 -3.3187  0.5928 -0.3897
   18MOL0     H 2399   5.859  12.985   5.969  1.8320  2.6643 -0.6478
   18MOL0     H 2400   5.929  12.825   5.710 -2.6985  1.0414  0.8793
   18MOL0     H 2401   5.885  12.759   5.861  0.2975  1.4250  1.8668
   18MOL0     H 2402   6.091  12.879   5.958 -0.8800  2.3993 -2.4301
   18MOL0     H 2403   6.127  12.738   5.869  1.5937 -0.7752 -3.4595
   18MOL0     H 2404   6.184  13.023   5.778  1.0222 -0.0802  1.1138
   18MOL0     H 2405   6.178  12.896   5.666  0.4018 -1.0436  0.6360
   18MOL0     H 2406   6.371  12.918   5.919  0.6692 -0.3349  0.7886
   18MOL0     H 2407   6.350  12.768   5.849 -0.3525  0.3619  0.9744
   18MOL0     H 2408   6.527  12.916   5.769 -0.4759 -3.1604  0.9146
   18MOL0     H 2409   6.415  13.011   5.672 -0.2355  0.2953  0.8187
   18MOL0     H 2410   6.367  12.830   5.536 -1.8114 -0.8098  2.7008
   18MOL0     H 2411   6.467  12.711   5.638  0.6764 -0.6645 -0.3311
   18MOL0     H 2412   5.472  12.882   5.753  2.0799 -0.5920 -0.6831
   18MOL0     H 2413   5.280  12.941   5.606  2.3749 -2.4367 -0.0492
   18MOL0     H 2414   5.071  13.084   5.370  0.8434 -0.6439  0.4934
   18MOL0     H 2415   4.895  13.093   5.196 -3.0018 -0.6075 -0.1531
   18MOL0     H 2416   4.788  11.554   4.260  1.0518  0.1396  3.8052
   18MOL0     H 2417   4.668  11.355   4.185  4.7545  0.8514  3.7002
   18MOL0     H 2418   4.029  11.277   4.083  1.0896  0.7059  1.0783
   18MOL0     H 2419   3.907  11.055   4.066  1.6363  1.3304 -4.4185
   18MOL0     H 2420   4.044  10.621   4.006  3.6112 -2.4528  1.1992
   18MOL0     H 2421   4.173  10.685   4.094 -0.6396  3.4540  0.7042
   18MOL0     H 2422   3.919  10.596   4.228  0.5974 -1.5508  1.0868
   18MOL0     H 2423   4.060  10.667   4.306  1.7019 -0.2384 -1.2524
   18MOL0     H 2424   4.183  10.437   4.248  0.0904 -0.4133  2.2109
   18MOL0     H 2425   4.027  10.407   4.154 -0.2941 -2.0597  1.0107
   18MOL0     H 2426   4.013  10.288   4.342 -0.9425  0.5258 -1.5423
   18MOL0     H 2427   3.914  10.421   4.363  0.5361  1.1295 -0.2330
   18MOL0     H 2428   4.222  10.463   4.679 -0.2071  1.5342  0.8047
   18MOL0     H 2429   4.251  10.850   4.185  2.0941  0.1126 -0.7619
   18MOL0     H 2430   4.373  11.057   4.224  1.4891 -0.5251 -0.4000
   19MOL0     O 2431   5.274   9.266   4.007  0.1958 -0.0763  0.3273
   19MOL0     C 2432   5.379   9.225   4.067  0.3580 -0.1662  0.6826
   19MOL0     O 2433   5.488   9.166   4.012  0.2377  0.5646  0.7649
   19MOL0     C 2434   5.480   9.125   3.882 -0.0289 -0.5317  0.4781
   19MOL0     C 2435   5.382   9.026   3.838 -0.9999 -0.1602 -0.2788
   19MOL0     C 2436   5.376   8.978   3.704  0.4765  0.2292  0.2792
   19MOL0     C 2437   5.482   9.014   3.620  0.0395  0.3725 -0.8175
   19MOL0     O 2438   5.489   8.957   3.496  0.2352 -0.1428 -0.0431
   19MOL0     C 2439   5.606   8.970   3.408  1.2786 -0.4417  1.2334
   19MOL0     C 2440   5.580   8.886   3.281  1.4244  0.6887  0.4366
   19MOL0     C 2441   5.704   8.872   3.195 -0.8067  0.1652 -0.8043
   19MOL0     C 2442   5.708   8.989   3.092 -0.6375 -0.3202 -0.0314
   19MOL0     C 2443   5.854   9.024   3.049  0.5700  0.2695  0.1518
   19MOL0     C 2444   5.864   9.151   2.964 -0.0028 -0.0089 -0.4619
   19MOL0     C 2445   5.770   9.140   2.843 -0.6626  0.0285 -0.6690
   19MOL0     C 2446   5.793   9.256   2.751  0.1893 -0.1797 -0.1316
   19MOL0     N 2447   5.702   9.289   2.643  0.0325 -0.2944 -0.0182
   19MOL0     C 2448   5.581   9.352   2.661 -0.0817 -0.2344 -0.7474
   19MOL0     C 2449   5.528   9.363   2.532  0.0493 -0.1956  0.5387
   19MOL0     C 2450   5.408   9.446   2.524  0.0570 -0.3902 -0.2596
   19MOL0     C 2451   5.278   9.382   2.575 -0.2487  0.1873 -0.0884
   19MOL0     C 2452   5.249   9.247   2.501  0.2187 -0.6883  0.0635
   19MOL0     C 2453   5.115   9.182   2.543 -0.2362  0.7450  0.3724
   19MOL0     O 2454   5.148   9.124   2.672 -0.1506  0.3240  1.0184
   19MOL0     C 2455   5.192   8.994   2.673  0.3986 -1.1756  0.0599
   19MOL0     C 2456   5.105   8.892   2.638 -0.3179 -0.4851 -0.3661
   19MOL0     C 2457   5.138   8.754   2.641 -0.1855 -0.5287 -0.4248
   19MOL0     C 2458   5.033   8.663   2.612  0.4495 -0.2174 -0.2500
   19MOL0     C 2459   5.267   8.723   2.695 -0.0908  0.0374 -0.1455
   19MOL0     C 2460   5.314   8.585   2.726 -0.1518 -0.0662 -0.3706
   19MOL0     O 2461   5.401   8.589   2.836 -0.0160  0.2905  0.0863
   19MOL0     C 2462   5.450   8.481   2.897  1.0018  0.1890 -0.2443
   19MOL0     C 2463   5.566   8.495   2.969  0.2973  0.0163  0.6633
   19MOL0     C 2464   5.627   8.397   3.052  0.4917 -0.2418  0.0151
   19MOL0     C 2465   5.565   8.273   3.058  1.2388  1.6228 -0.4138
   19MOL0     O 2466   5.646   8.179   3.120  0.3563 -0.3104 -0.1918
   19MOL0     C 2467   5.593   8.057   3.153 -0.1670 -0.1918 -0.0224
   19MOL0     C 2468   5.629   7.945   3.046  0.4234  0.1646 -0.1699
   19MOL0     C 2469   5.773   7.942   2.995  0.7447 -0.5110  0.0263
   19MOL0     C 2470   5.803   7.829   2.899 -0.0134  0.5661  0.0929
   19MOL0     C 2471   5.708   7.799   2.786  0.5858 -0.5049 -0.1845
   19MOL0     C 2472   5.703   7.914   2.679 -0.0192  0.0150 -0.2676
   19MOL0     C 2473   5.584   7.889   2.586 -0.2242 -0.1406  0.1873
   19MOL0     C 2474   5.552   7.997   2.488 -0.3505  0.1458  0.1427
   19MOL0    Cl 2475   5.542   8.156   2.577 -0.5577 -0.4646  0.4549
   19MOL0     C 2476   5.441   8.257   2.979 -0.2004  0.0841 -0.5345
   19MOL0     C 2477   5.385   8.355   2.908  0.4242  0.3966  0.5840
   19MOL0     O 2478   5.267   8.483   2.668  0.1790  0.1393  0.0492
   19MOL0     C 2479   5.356   8.828   2.723  0.6452 -0.2520  0.9015
   19MOL0     C 2480   5.322   8.965   2.708 -0.5689  0.1937 -0.1541
   19MOL0     N 2481   5.599   9.296   2.443  0.6160 -0.1226  0.3405
   19MOL0     N 2482   5.711   9.262   2.508 -0.1164 -0.1195  0.3331
   19MOL0     C 2483   5.581   9.110   3.664  0.0310  0.8231 -0.6659
   19MOL0     C 2484   5.576   9.170   3.791 -0.7754  0.6210  0.8604
   19MOL0     C 2485   5.382   9.234   4.214  0.3151  0.2301  0.2784
   19MOL0     C 2486   5.285   9.299   4.286  0.7619 -0.0059  0.3030
   19MOL0     C 2487   5.273   9.310   4.422  0.3341 -0.2516  0.2507
   19MOL0     C 2488   5.388   9.262   4.487  0.4451 -0.9413 -0.1976
   19MOL0     O 2489   5.381   9.283   4.628 -0.0963 -0.8694 -0.1759
   19MOL0     C 2490   5.489   9.285   4.722 -0.2250  0.1928 -0.0259
   19MOL0     C 2491   5.484   9.170   4.826 -0.5195  0.8238 -0.0838
   19MOL0     C 2492   5.367   9.150   4.921 -0.2090  0.3651 -0.1883
   19MOL0     C 2493   5.363   9.028   5.007  0.5350  0.2906  0.1282
   19MOL0     C 2494   5.483   8.998   5.088  0.7519 -0.1589 -0.6100
   19MOL0     C 2495   5.576   8.986   5.168  0.1272  0.0615  0.2250
   19MOL0     C 2496   5.500   9.197   4.430  0.1257 -0.6468  0.3064
   19MOL0     C 2497   5.491   9.184   4.289  0.5635  0.1212 -0.6669
   19MOL0     H 2498   5.303   8.999   3.907 -4.9078  4.3253 -2.4123
   19MOL0     H 2499   5.287   8.920   3.678  0.1964  1.2053 -1.0269
   19MOL0     H 2500   5.625   9.073   3.378  1.2576 -1.0748 -1.0854
   19MOL0     H 2501   5.698   8.926   3.450  3.0754  1.3896 -0.5237
   19MOL0     H 2502   5.548   8.787   3.314  1.1793  2.0794  4.9831
   19MOL0     H 2503   5.507   8.938   3.217 -0.8634 -1.7609  0.8641
   19MOL0     H 2504   5.794   8.860   3.255 -0.4242 -2.9339 -1.8271
   19MOL0     H 2505   5.692   8.780   3.138  1.8997 -0.9473  0.2651
   19MOL0     H 2506   5.653   8.964   3.001  0.9235 -2.2706 -0.4992
   19MOL0     H 2507   5.658   9.074   3.139 -0.9390 -1.7746  2.4602
   19MOL0     H 2508   5.918   9.036   3.137 -1.3149  1.1063  1.4597
   19MOL0     H 2509   5.892   8.941   2.989 -1.8924 -1.2663  0.5754
   19MOL0     H 2510   5.836   9.241   3.019  2.1356  1.4891 -1.6517
   19MOL0     H 2511   5.970   9.165   2.941  0.6971 -1.8593  1.3323
   19MOL0     H 2512   5.799   9.052   2.784  3.4737 -0.6964  2.0381
   19MOL0     H 2513   5.662   9.137   2.859 -0.8014  0.2060 -1.5229
   19MOL0     H 2514   5.880   9.220   2.695 -3.0301 -3.4045 -3.7062
   19MOL0     H 2515   5.812   9.336   2.823  1.3731 -1.0763  0.5801
   19MOL0     H 2516   5.542   9.387   2.756  0.0324 -2.7648  0.2972
   19MOL0     H 2517   5.429   9.539   2.577 -1.7597 -0.4084  0.5340
   19MOL0     H 2518   5.398   9.473   2.418 -2.7103 -1.9265 -0.4842
   19MOL0     H 2519   5.198   9.454   2.553 -0.8709  0.1806  1.9241
   19MOL0     H 2520   5.283   9.370   2.683  1.2754  1.2517 -0.0007
   19MOL0     H 2521   5.339   9.184   2.509  0.8291 -0.0497 -1.4533
   19MOL0     H 2522   5.250   9.259   2.393  1.7596 -2.4616 -0.1948
   19MOL0     H 2523   5.080   9.104   2.475 -1.7006  0.4344  1.4322
   19MOL0     H 2524   5.027   9.244   2.557 -0.1077  0.8523  0.7145
   19MOL0     H 2525   5.004   8.922   2.609  0.0089  0.9291 -0.1055
   19MOL0     H 2526   5.002   8.666   2.506  0.2239 -0.9856 -0.2151
   19MOL0     H 2527   5.047   8.556   2.629 -1.8764 -0.4933  0.2693
   19MOL0     H 2528   4.950   8.697   2.675  0.3035  2.5517 -1.7708
   19MOL0     H 2529   5.606   8.595   2.955  0.1454 -0.0407 -0.2312
   19MOL0     H 2530   5.718   8.411   3.108  0.4609  1.7488 -0.3687
   19MOL0     H 2531   5.631   8.028   3.251 -0.2621  1.1329  0.4261
   19MOL0     H 2532   5.486   8.054   3.171 -0.0532 -1.3582  0.5469
   19MOL0     H 2533   5.607   7.849   3.094  3.9006  0.2271  1.8835
   19MOL0     H 2534   5.577   7.965   2.952  1.1842  0.5632 -0.5089
   19MOL0     H 2535   5.843   7.934   3.079  3.9661  4.3518 -1.7289
   19MOL0     H 2536   5.811   8.031   2.943  0.6202 -0.1313  0.5738
   19MOL0     H 2537   5.908   7.843   2.871  0.2400  0.6832  1.0591
   19MOL0     H 2538   5.802   7.735   2.955  0.3773 -0.2950 -1.2922
   19MOL0     H 2539   5.610   7.784   2.833  1.2523 -2.4175  0.7175
   19MOL0     H 2540   5.752   7.709   2.743  3.8562  0.7380  0.2977
   19MOL0     H 2541   5.710   8.014   2.724  1.5829 -2.8295  7.4635
   19MOL0     H 2542   5.796   7.921   2.623 -0.9545 -0.0354 -1.8847
   19MOL0     H 2543   5.489   7.884   2.640  0.1987  0.4149  1.0166
   19MOL0     H 2544   5.602   7.793   2.537 -0.1991  0.6468 -1.4072
   19MOL0     H 2545   5.460   7.979   2.432 -1.4446 -1.0961  2.2191
   19MOL0     H 2546   5.633   8.003   2.415 -2.1363  2.3226 -1.8175
   19MOL0     H 2547   5.391   8.161   2.972 -1.1967  0.6415 -1.2616
   19MOL0     H 2548   5.296   8.324   2.854  1.2460 -3.0919  0.9809
   19MOL0     H 2549   5.455   8.810   2.764 -0.2701 -0.0571  3.3734
   19MOL0     H 2550   5.392   9.045   2.730 -1.2730  1.0413 -0.8976
   19MOL0     H 2551   5.669   9.137   3.605  0.6474  1.2664  0.4293
   19MOL0     H 2552   5.644   9.251   3.817  0.1682  0.6036 -1.3210
   19MOL0     H 2553   5.213   9.366   4.240 -0.3726 -0.9220  0.6665
   19MOL0     H 2554   5.194   9.356   4.480  1.6853 -0.1227  2.0589
   19MOL0     H 2555   5.584   9.264   4.672  1.0540 -0.4609  2.5413
   19MOL0     H 2556   5.495   9.378   4.780 -1.3087 -3.1063  6.2083
   19MOL0     H 2557   5.578   9.183   4.881 -0.0337  2.6117 -1.2732
   19MOL0     H 2558   5.491   9.069   4.783  0.2819  1.2103 -0.8969
   19MOL0     H 2559   5.281   9.131   4.856  0.6191 -2.3908 -0.6002
   19MOL0     H 2560   5.349   9.246   4.970 -1.9178  1.5453 -2.8685
   19MOL0     H 2561   5.348   8.943   4.940 -1.8484 -0.0925  1.0431
   19MOL0     H 2562   5.272   9.036   5.068  0.0386 -0.0384 -0.5558
   19MOL0     H 2563   5.666   8.986   5.226  1.6677  3.0748 -1.8839
   19MOL0     H 2564   5.581   9.146   4.481 -0.2701 -0.5716  1.0290
   19MOL0     H 2565   5.571   9.128   4.240 -0.4135  1.3385 -3.8957
   20MOL0     O 2566   2.002   8.370   7.480  0.4523  0.2226 -0.8116
   20MOL0     C 2567   2.086   8.447   7.523 -0.0963  0.4962  0.3502
   20MOL0     O 2568   2.151   8.437   7.646 -0.1592  0.7474  0.4889
   20MOL0     C 2569   2.161   8.320   7.719 -0.2661  0.6511  0.3758
   20MOL0     C 2570   2.281   8.263   7.722 -0.5308  0.1443 -0.2543
   20MOL0     C 2571   2.304   8.154   7.810 -0.8247  0.2436  0.7277
   20MOL0     C 2572   2.199   8.097   7.880 -0.1142  0.5185 -0.6489
   20MOL0     O 2573   2.229   7.980   7.952  0.6990  0.2329  0.2060
   20MOL0     C 2574   2.134   7.934   8.048  0.1763  0.0422 -0.7028
   20MOL0     C 2575   2.188   7.815   8.128  0.2917 -0.3378 -0.1096
   20MOL0     C 2576   2.078   7.735   8.187  0.1939  0.4676 -0.5788
   20MOL0     C 2577   2.082   7.743   8.340 -0.0790 -0.7235 -0.6918
   20MOL0     C 2578   1.957   7.687   8.415  0.6737  0.1663  0.0316
   20MOL0     C 2579   1.942   7.710   8.569 -0.7159  0.3621 -0.4063
   20MOL0     C 2580   2.066   7.675   8.658 -0.0499 -0.6335  0.3691
   20MOL0     C 2581   2.066   7.522   8.684 -0.9090 -0.4442  1.0537
   20MOL0     N 2582   2.178   7.467   8.762 -0.3860  0.4115 -0.9324
   20MOL0     C 2583   2.307   7.426   8.713 -0.2203  0.4906  0.1441
   20MOL0     C 2584   2.362   7.343   8.809  0.7171  0.4582  0.4287
   20MOL0     C 2585   2.492   7.268   8.810  0.2357 -1.1412 -0.6572
   20MOL0     C 2586   2.479   7.113   8.785 -0.4208  0.7923 -0.2771
   20MOL0     C 2587   2.470   7.027   8.908  0.4581 -0.1132  1.0839
   20MOL0     C 2588   2.609   6.965   8.942 -0.5331  0.4103  0.5422
   20MOL0     O 2589   2.591   6.916   9.074 -0.2316  0.5267 -0.1778
   20MOL0     C 2590   2.703   6.864   9.135  0.3161  0.5519 -0.5200
   20MOL0     C 2591   2.678   6.820   9.271  0.5427 -0.0384 -0.0608
   20MOL0     C 2592   2.781   6.764   9.347 -0.1152 -0.9384 -0.8241
   20MOL0     C 2593   2.730   6.714   9.484  0.0041  0.7111 -0.0165
   20MOL0     C 2594   2.910   6.766   9.291 -0.5452 -1.0897 -0.2272
   20MOL0     C 2595   3.033   6.703   9.357 -0.1359 -0.3768  0.0732
   20MOL0     O 2596   3.147   6.675   9.278  0.3569 -0.2237 -0.3976
   20MOL0     C 2597   3.263   6.649   9.341  0.1937 -0.2135 -0.1305
   20MOL0     C 2598   3.340   6.545   9.299  0.2476  1.0075  1.1919
   20MOL0     C 2599   3.467   6.522   9.347 -1.0397  0.0238 -0.2489
   20MOL0     C 2600   3.521   6.597   9.448 -0.3718  0.5058  0.6934
   20MOL0     O 2601   3.644   6.556   9.498  0.2755 -0.0175 -0.0114
   20MOL0     C 2602   3.772   6.581   9.432  0.0776  0.3757 -1.1425
   20MOL0     C 2603   3.873   6.469   9.454  0.0333 -0.7517  0.2554
   20MOL0     C 2604   3.823   6.330   9.391  0.1091  0.2190  0.1953
   20MOL0     C 2605   3.933   6.232   9.402  0.7603 -0.0211  0.2175
   20MOL0     C 2606   3.881   6.111   9.319 -0.6987 -0.0889 -0.1734
   20MOL0     C 2607   3.991   5.996   9.313 -0.8418  0.0203  0.6531
   20MOL0     C 2608   3.944   5.905   9.204 -1.3487 -0.7875  0.0691
   20MOL0     C 2609   3.826   5.815   9.242  0.3018  0.4126  0.3796
   20MOL0    Cl 2610   3.670   5.913   9.212 -0.0010  0.0526  0.1357
   20MOL0     C 2611   3.442   6.693   9.505  0.1495 -0.8027  0.0246
   20MOL0     C 2612   3.319   6.732   9.445  0.9648  0.6638  0.8666
   20MOL0     O 2613   3.026   6.678   9.476  0.0046  0.5453 -0.0575
   20MOL0     C 2614   2.940   6.820   9.164 -0.4863 -0.0906  0.0409
   20MOL0     C 2615   2.831   6.861   9.081 -0.6782  0.1781  0.3132
   20MOL0     N 2616   2.273   7.341   8.918 -0.4029 -0.4660 -0.1287
   20MOL0     N 2617   2.170   7.416   8.892  0.2675  1.0454 -0.3387
   20MOL0     C 2618   2.074   8.162   7.887 -0.2093  0.3874  0.0906
   20MOL0     C 2619   2.063   8.272   7.807 -0.3646 -0.2027  0.4854
   20MOL0     C 2620   2.106   8.569   7.448  0.0908  0.1330 -0.1416
   20MOL0     C 2621   2.023   8.598   7.337  0.1230 -0.1976 -0.1570
   20MOL0     C 2622   2.034   8.725   7.282 -0.5334  0.4318  0.2823
   20MOL0     C 2623   2.121   8.821   7.316 -0.6000 -0.0514 -0.1982
   20MOL0     O 2624   2.109   8.940   7.251  0.0957 -0.9744 -0.5700
   20MOL0     C 2625   2.160   8.947   7.117  0.1741  0.5750 -0.1844
   20MOL0     C 2626   2.076   8.897   7.016 -0.7604 -0.1970 -0.6215
   20MOL0     C 2627   1.937   8.968   7.005  0.6176 -0.1258 -1.0377
   20MOL0     C 2628   1.872   8.939   6.868 -0.0498 -0.0806  0.3170
   20MOL0     C 2629   1.935   9.024   6.768  0.2402 -0.0515  0.6649
   20MOL0     C 2630   1.992   9.099   6.693 -0.0792  0.1556  0.6164
   20MOL0     C 2631   2.208   8.791   7.426  0.2206  0.6012  0.0752
   20MOL0     C 2632   2.200   8.667   7.486  0.0455 -0.4162 -0.1624
   20MOL0     H 2633   2.365   8.311   7.672 -0.1491 -1.8609 -1.6382
   20MOL0     H 2634   2.404   8.117   7.832 -0.0573  2.4652  1.1774
   20MOL0     H 2635   2.085   8.006   8.115 -1.8957 -1.9815  0.1158
   20MOL0     H 2636   2.049   7.897   7.990  0.8002 -4.6763  0.9932
   20MOL0     H 2637   2.246   7.756   8.056 -1.4747 -0.1337 -1.7643
   20MOL0     H 2638   2.252   7.846   8.211 -0.4167  0.4081  0.1726
   20MOL0     H 2639   1.980   7.767   8.149  0.0864 -1.3157 -1.9694
   20MOL0     H 2640   2.077   7.631   8.151  1.5231 -0.2245  1.2615
   20MOL0     H 2641   2.163   7.682   8.381  0.3623  0.4518  0.2485
   20MOL0     H 2642   2.094   7.843   8.382 -0.4505 -1.5377  1.5048
   20MOL0     H 2643   1.869   7.740   8.377  1.7411  3.0594  1.3358
   20MOL0     H 2644   1.966   7.584   8.379  1.1531 -0.3383  1.5421
   20MOL0     H 2645   1.925   7.815   8.597  1.2402  0.1312  1.9879
   20MOL0     H 2646   1.857   7.653   8.608 -2.3342  2.1147 -1.2105
   20MOL0     H 2647   2.158   7.695   8.602  0.1420 -2.7883 -0.1769
   20MOL0     H 2648   2.067   7.733   8.751 -1.0215 -1.0564  0.6512
   20MOL0     H 2649   2.067   7.461   8.593 -1.2297 -1.6515  1.8278
   20MOL0     H 2650   1.979   7.502   8.748 -1.6362  2.5627  1.1634
   20MOL0     H 2651   2.360   7.435   8.618 -1.2147  1.4836 -0.3460
   20MOL0     H 2652   2.557   7.313   8.734  0.0262  0.2572 -0.0477
   20MOL0     H 2653   2.537   7.268   8.909 -1.6386 -7.4440  0.6429
   20MOL0     H 2654   2.559   7.076   8.719 -0.4337 -0.4830  0.3862
   20MOL0     H 2655   2.389   7.099   8.725 -0.1304  1.0700 -0.7885
   20MOL0     H 2656   2.398   6.947   8.886  1.1649 -0.6920  0.8534
   20MOL0     H 2657   2.428   7.089   8.988  0.8018 -2.3687  3.1081
   20MOL0     H 2658   2.683   7.045   8.929  1.9870 -1.5821  1.7789
   20MOL0     H 2659   2.632   6.887   8.869  1.5841 -0.3151  1.8896
   20MOL0     H 2660   2.576   6.826   9.308  0.7715  0.5820  0.4829
   20MOL0     H 2661   2.621   6.720   9.496  0.1867  3.3927  0.9157
   20MOL0     H 2662   2.763   6.609   9.479 -0.6489  0.5444 -1.5255
   20MOL0     H 2663   2.786   6.775   9.555  3.0537  1.6410 -2.9369
   20MOL0     H 2664   3.291   6.485   9.223  0.5188  0.1222  1.7045
   20MOL0     H 2665   3.520   6.439   9.301 -0.5835 -1.9007  3.4109
   20MOL0     H 2666   3.752   6.577   9.325  0.0943 -0.7073 -1.1230
   20MOL0     H 2667   3.810   6.675   9.473  0.5555 -0.4541  0.4205
   20MOL0     H 2668   3.971   6.499   9.418 -0.5952  0.1756 -0.7310
   20MOL0     H 2669   3.882   6.430   9.556  0.5988 -4.0739 -0.9315
   20MOL0     H 2670   3.794   6.356   9.289  0.6143  2.2309  0.5227
   20MOL0     H 2671   3.740   6.297   9.455 -1.1051 -0.8354 -1.8311
   20MOL0     H 2672   4.030   6.268   9.366  0.1797 -0.4231 -1.8863
   20MOL0     H 2673   3.941   6.209   9.509 -2.5805  1.8757  0.9948
   20MOL0     H 2674   3.847   6.148   9.221  0.7949  1.7760 -0.0332
   20MOL0     H 2675   3.794   6.062   9.365 -1.4553 -1.5088 -2.8817
   20MOL0     H 2676   4.083   6.046   9.281 -1.7694  2.3834  1.5213
   20MOL0     H 2677   3.996   5.937   9.405  3.4491 -2.6082 -0.9509
   20MOL0     H 2678   4.032   5.850   9.169 -2.1643 -0.8865 -1.9334
   20MOL0     H 2679   3.908   5.953   9.113  2.6072 -1.5857 -2.1232
   20MOL0     H 2680   3.836   5.779   9.345 -1.6106  1.1559  0.8703
   20MOL0     H 2681   3.820   5.731   9.171 -0.6104  2.9165 -2.7362
   20MOL0     H 2682   3.484   6.746   9.590 -3.3470  0.1227  1.3332
   20MOL0     H 2683   3.267   6.824   9.469  0.2988  0.4287  0.3363
   20MOL0     H 2684   3.035   6.822   9.113  0.4133  1.5188  1.6565
   20MOL0     H 2685   2.840   6.896   8.978 -3.3633 -1.5326 -0.5826
   20MOL0     H 2686   2.003   8.155   7.969  1.2923  2.2155  1.6566
   20MOL0     H 2687   1.967   8.322   7.819 -1.2131 -2.1120  2.3200
   20MOL0     H 2688   1.960   8.518   7.300  1.2568 -0.5649 -1.4061
   20MOL0     H 2689   1.960   8.741   7.204 -2.5895 -0.0649  2.0449
   20MOL0     H 2690   2.189   9.051   7.100  1.2570  0.3101 -0.0244
   20MOL0     H 2691   2.247   8.882   7.110 -0.3561 -0.0917 -0.7165
   20MOL0     H 2692   2.057   8.789   7.021 -2.3117  0.0919  0.4125
   20MOL0     H 2693   2.139   8.912   6.928  1.9618  0.4416  1.3162
   20MOL0     H 2694   1.942   9.076   7.022  0.9254 -0.2267 -0.4685
   20MOL0     H 2695   1.874   8.927   7.085  0.5116  0.1902 -0.9574
   20MOL0     H 2696   1.765   8.950   6.852 -0.1308 -1.0915  0.0832
   20MOL0     H 2697   1.905   8.836   6.851  2.3335  0.4895  1.0239
   20MOL0     H 2698   2.055   9.164   6.635  1.5845 -0.8823  1.1644
   20MOL0     H 2699   2.277   8.871   7.453 -0.9360  1.8770 -0.6419
   20MOL0     H 2700   2.270   8.649   7.567 -2.4340  0.9614  2.4789
   21MOL0     O 2701  11.184   5.102   8.970 -0.1217 -1.4205  0.1806
   21MOL0     C 2702  11.238   5.136   8.860  0.0133 -0.8712 -0.5625
   21MOL0     O 2703  11.216   5.248   8.792  1.1548  0.3761 -0.2806
   21MOL0     C 2704  11.147   5.359   8.829 -0.8070 -0.0236 -1.1756
   21MOL0     C 2705  11.046   5.355   8.924 -0.0686 -0.1794  0.0112
   21MOL0     C 2706  10.969   5.465   8.950 -1.4028 -0.1099 -0.6326
   21MOL0     C 2707  11.012   5.589   8.922  0.0464 -0.2328  0.7945
   21MOL0     O 2708  10.965   5.708   8.979  0.5610 -0.3938  1.0956
   21MOL0     C 2709  10.824   5.709   9.030 -0.0578 -0.7307  0.3084
   21MOL0     C 2710  10.752   5.834   8.975  0.9811 -0.2623  0.4755
   21MOL0     C 2711  10.602   5.825   8.986 -0.7104 -0.6687 -0.4006
   21MOL0     C 2712  10.528   5.820   8.851  0.1521 -0.5254 -0.1915
   21MOL0     C 2713  10.383   5.765   8.865 -0.2488  0.0819  0.7698
   21MOL0     C 2714  10.360   5.621   8.882  0.2956  0.7504  0.2223
   21MOL0     C 2715  10.384   5.537   8.757  0.4197  0.0145  0.3911
   21MOL0     C 2716  10.339   5.381   8.767 -0.2184  0.2668 -0.0959
   21MOL0     N 2717  10.428   5.315   8.848 -0.2353  0.0322  0.5619
   21MOL0     C 2718  10.551   5.276   8.801  0.6332 -0.4959 -0.1629
   21MOL0     C 2719  10.603   5.206   8.904 -1.2649  0.0702 -0.4447
   21MOL0     C 2720  10.742   5.150   8.890  0.2241 -0.3776 -0.1289
   21MOL0     C 2721  10.740   5.008   8.817  0.9358 -0.9309 -1.4492
   21MOL0     C 2722  10.871   4.935   8.823  0.2267  0.4066 -0.3567
   21MOL0     C 2723  10.923   4.912   8.967 -0.3778  0.0703 -0.0147
   21MOL0     O 2724  10.822   4.839   9.035 -0.2375  0.2587 -0.3147
   21MOL0     C 2725  10.842   4.704   9.075  0.6968  0.7072 -0.2075
   21MOL0     C 2726  10.720   4.638   9.114  0.0541 -0.0993 -0.8769
   21MOL0     C 2727  10.720   4.505   9.141  0.5492 -0.2712 -0.8400
   21MOL0     C 2728  10.582   4.439   9.136 -1.0874 -0.4040  0.4528
   21MOL0     C 2729  10.839   4.435   9.163  0.4039  0.0888 -0.5346
   21MOL0     C 2730  10.848   4.300   9.236  0.8322 -0.2674  0.5059
   21MOL0     O 2731  10.970   4.234   9.219  0.1614  0.6433 -0.2744
   21MOL0     C 2732  10.988   4.108   9.276 -0.8342  0.4370  1.3226
   21MOL0     C 2733  10.973   4.073   9.410  0.4905 -0.2422  0.4016
   21MOL0     C 2734  11.000   3.940   9.451 -0.2994  0.8794 -0.0337
   21MOL0     C 2735  11.015   3.842   9.353 -0.2078 -0.5620  0.7381
   21MOL0     O 2736  11.040   3.710   9.395  0.2020 -0.5719  0.1025
   21MOL0     C 2737  11.163   3.641   9.341 -0.4025 -0.2757 -0.2682
   21MOL0     C 2738  11.168   3.492   9.332  0.0103 -0.0996  0.4477
   21MOL0     C 2739  11.218   3.443   9.469  0.6565 -0.7291  1.7325
   21MOL0     C 2740  11.122   3.477   9.583  0.4095  0.2480 -0.3773
   21MOL0     C 2741  11.156   3.388   9.701 -0.0916  0.0890 -0.5997
   21MOL0     C 2742  11.058   3.416   9.819 -0.6961 -0.3042  1.1546
   21MOL0     C 2743  11.093   3.320   9.939  0.3664  0.2530  0.1350
   21MOL0     C 2744  10.972   3.211   9.971 -0.2089  0.6970  0.2223
   21MOL0    Cl 2745  10.923   3.102   9.826  0.0435 -0.0162 -0.0730
   21MOL0     C 2746  11.024   3.881   9.218  0.4022 -0.1005  0.4964
   21MOL0     C 2747  11.015   4.011   9.181  0.0719  0.0927 -0.1546
   21MOL0     O 2748  10.745   4.256   9.284 -0.0216 -0.7322  0.0018
   21MOL0     C 2749  10.957   4.499   9.134 -0.2755 -0.1508  0.3378
   21MOL0     C 2750  10.964   4.627   9.084 -0.4949  0.3563 -0.9019
   21MOL0     N 2751  10.515   5.194   9.012 -0.3167 -0.3447  0.7893
   21MOL0     N 2752  10.409   5.257   8.966 -0.0483 -0.1894  0.4142
   21MOL0     C 2753  11.130   5.604   8.841  0.7214  0.2133 -0.0275
   21MOL0     C 2754  11.194   5.487   8.787 -0.5434 -0.4057 -0.5944
   21MOL0     C 2755  11.342   5.040   8.811  0.1636 -0.0561 -0.4600
   21MOL0     C 2756  11.429   5.081   8.712 -0.5355  0.1795  0.6612
   21MOL0     C 2757  11.538   4.996   8.680  0.1955  1.2189 -0.7622
   21MOL0     C 2758  11.552   4.873   8.744 -0.9672  0.9770  0.0195
   21MOL0     O 2759  11.649   4.777   8.711 -0.3991 -0.2798 -0.1544
   21MOL0     C 2760  11.745   4.808   8.611 -0.2248  0.1606 -0.2081
   21MOL0     C 2761  11.686   4.799   8.467  0.3201 -0.0133  1.2098
   21MOL0     C 2762  11.677   4.652   8.422  0.7419 -0.4336 -0.3151
   21MOL0     C 2763  11.810   4.578   8.429  0.3310 -0.8492  0.2246
   21MOL0     C 2764  11.781   4.435   8.383  0.1822 -0.7443  0.3082
   21MOL0     C 2765  11.758   4.327   8.332  0.0009  0.6147 -0.0542
   21MOL0     C 2766  11.468   4.836   8.847 -0.5824  0.0878  0.3208
   21MOL0     C 2767  11.376   4.927   8.894  0.1316  0.5063 -0.1278
   21MOL0     H 2768  11.009   5.256   8.949  1.4900 -0.8972 -0.4076
   21MOL0     H 2769  10.897   5.442   9.027 -1.8699  0.1189 -0.9981
   21MOL0     H 2770  10.773   5.623   8.985  0.5417 -1.3592  0.8077
   21MOL0     H 2771  10.825   5.702   9.139  0.7549  1.9467  0.5472
   21MOL0     H 2772  10.793   5.923   9.025  1.0078 -1.2761  2.3504
   21MOL0     H 2773  10.777   5.844   8.869  0.6236 -2.4841  0.1311
   21MOL0     H 2774  10.576   5.737   9.045  2.4592 -0.4362  1.5696
   21MOL0     H 2775  10.568   5.913   9.041  1.0276  2.4369 -3.8695
   21MOL0     H 2776  10.518   5.917   8.802  0.4430 -2.1824 -3.7841
   21MOL0     H 2777  10.573   5.773   8.764 -1.9772 -0.6497 -1.2730
   21MOL0     H 2778  10.337   5.817   8.950  1.6986  0.8587  1.4256
   21MOL0     H 2779  10.320   5.791   8.779 -2.5606  1.8724  2.8383
   21MOL0     H 2780  10.423   5.579   8.962  2.5591  1.4587 -1.1037
   21MOL0     H 2781  10.257   5.603   8.915  1.3080  1.1010  4.0067
   21MOL0     H 2782  10.320   5.574   8.676 -0.9018 -3.6407 -0.3929
   21MOL0     H 2783  10.491   5.546   8.737  0.4735  0.7752  0.9807
   21MOL0     H 2784  10.331   5.331   8.670  2.6344 -0.9719  0.1839
   21MOL0     H 2785  10.236   5.386   8.803  0.1507 -0.9035  1.1905
   21MOL0     H 2786  10.594   5.309   8.707  3.9652  1.2203  1.7646
   21MOL0     H 2787  10.805   5.212   8.825 -1.7786 -1.3303 -3.2144
   21MOL0     H 2788  10.780   5.141   8.992 -0.1928 -1.0462 -0.0273
   21MOL0     H 2789  10.726   5.045   8.715  0.7035  4.3189  0.1675
   21MOL0     H 2790  10.650   4.952   8.844  0.0512  1.5774  1.3870
   21MOL0     H 2791  10.946   4.975   8.754 -0.2867 -1.6539 -2.2472
   21MOL0     H 2792  10.851   4.839   8.773 -3.2760  0.7831  0.1067
   21MOL0     H 2793  10.950   5.002   9.023 -1.1470  0.3009 -0.0130
   21MOL0     H 2794  11.008   4.846   8.947 -0.7518 -1.0719  1.8659
   21MOL0     H 2795  10.627   4.693   9.113  0.1549  0.1713  0.9091
   21MOL0     H 2796  10.504   4.508   9.104 -1.8756 -0.6502  1.7914
   21MOL0     H 2797  10.596   4.359   9.062  2.6326  1.5346 -1.2500
   21MOL0     H 2798  10.557   4.401   9.236  3.3704  0.1129  1.9989
   21MOL0     H 2799  10.943   4.141   9.490  0.1378 -0.7055  0.6670
   21MOL0     H 2800  10.993   3.926   9.558 -1.8909 -3.6232 -0.4871
   21MOL0     H 2801  11.179   3.687   9.244  1.6156  0.4094  0.3352
   21MOL0     H 2802  11.250   3.675   9.398  2.0924 -2.4999 -2.4472
   21MOL0     H 2803  11.067   3.456   9.309  0.7347 -2.6294  0.9323
   21MOL0     H 2804  11.240   3.471   9.253  4.3851  1.1088  3.6877
   21MOL0     H 2805  11.320   3.468   9.498  2.1084 -2.1220 -1.7502
   21MOL0     H 2806  11.213   3.334   9.461 -1.1616 -0.5679 -0.4524
   21MOL0     H 2807  11.116   3.583   9.609 -3.3173  0.1927 -0.3840
   21MOL0     H 2808  11.019   3.444   9.562 -0.8305 -0.2506  4.9880
   21MOL0     H 2809  11.261   3.387   9.731 -0.1328  0.3487 -0.4479
   21MOL0     H 2810  11.146   3.283   9.670 -1.0390 -0.0578  0.1675
   21MOL0     H 2811  11.082   3.517   9.854 -0.0294 -0.3646  0.8875
   21MOL0     H 2812  10.954   3.405   9.786 -1.2919  2.1579  1.9595
   21MOL0     H 2813  11.124   3.380  10.025 -0.0802 -1.2952  1.4291
   21MOL0     H 2814  11.178   3.256   9.917 -0.5701  0.2242 -4.1909
   21MOL0     H 2815  10.882   3.263  10.004 -1.4569 -1.0902 -0.2196
   21MOL0     H 2816  10.994   3.153  10.060 -3.3469 -0.4510  0.3839
   21MOL0     H 2817  11.041   3.812   9.136 -2.2635  0.4765 -0.6321
   21MOL0     H 2818  11.041   4.037   9.079  0.3936 -1.3840 -0.4673
   21MOL0     H 2819  11.056   4.457   9.150  1.1036  3.1691  1.4202
   21MOL0     H 2820  11.061   4.663   9.051 -0.7417  0.4171 -1.5796
   21MOL0     H 2821  11.181   5.699   8.833  2.4223 -0.8161 -3.2326
   21MOL0     H 2822  11.281   5.489   8.722 -0.5030 -2.0933 -0.6280
   21MOL0     H 2823  11.425   5.177   8.661  2.8804  0.8819  1.4654
   21MOL0     H 2824  11.607   5.042   8.610  1.2092  2.0054  0.6930
   21MOL0     H 2825  11.781   4.911   8.627 -2.6452  0.6520  3.1975
   21MOL0     H 2826  11.830   4.742   8.626  0.1840  0.6199 -0.4493
   21MOL0     H 2827  11.762   4.845   8.403  0.7158 -0.0066  1.6770
   21MOL0     H 2828  11.591   4.854   8.462  1.5017  2.1917  1.5515
   21MOL0     H 2829  11.650   4.652   8.316  0.3257 -0.1739 -0.2138
   21MOL0     H 2830  11.599   4.606   8.483 -0.6861  4.0523  1.7504
   21MOL0     H 2831  11.842   4.564   8.533 -2.4602  1.8229  1.6159
   21MOL0     H 2832  11.890   4.631   8.377 -0.6439  1.4732  0.9891
   21MOL0     H 2833  11.740   4.230   8.290 -2.6048  0.8792  0.2866
   21MOL0     H 2834  11.490   4.743   8.897  1.5694  0.0540 -0.5727
   21MOL0     H 2835  11.319   4.893   8.980 -1.3872  2.6337 -0.2244
   22MOL0     O 2836   5.966   6.998   5.434  0.2440  1.0918 -0.4718
   22MOL0     C 2837   6.085   6.984   5.401  0.7286  0.2916 -0.0144
   22MOL0     O 2838   6.131   6.930   5.290  0.7316  0.5117 -0.0074
   22MOL0     C 2839   6.041   6.860   5.221 -0.3264 -0.5378  0.6208
   22MOL0     C 2840   5.987   6.923   5.107  0.1636 -1.3852  0.4749
   22MOL0     C 2841   5.900   6.854   5.024  0.8713 -0.4065 -0.4728
   22MOL0     C 2842   5.875   6.717   5.035  0.1674 -0.3004 -0.1373
   22MOL0     O 2843   5.800   6.640   4.952 -0.3851  0.0293  0.6586
   22MOL0     C 2844   5.811   6.666   4.818 -0.7527  0.0638  0.4308
   22MOL0     C 2845   5.745   6.562   4.731  0.1894 -0.1112  0.2930
   22MOL0     C 2846   5.806   6.422   4.757 -0.4796 -0.0124 -0.4578
   22MOL0     C 2847   5.705   6.320   4.698  0.2334 -0.1961 -0.5331
   22MOL0     C 2848   5.772   6.187   4.668 -0.1579 -0.1459  0.9738
   22MOL0     C 2849   5.661   6.087   4.627 -0.2573 -0.2031  0.1548
   22MOL0     C 2850   5.708   5.937   4.602 -0.4090  0.2962 -0.6913
   22MOL0     C 2851   5.590   5.838   4.588  0.1917  0.3906  0.7095
   22MOL0     N 2852   5.552   5.805   4.448 -0.0679  0.4273 -0.5985
   22MOL0     C 2853   5.432   5.766   4.407  0.0280 -1.2589 -0.1907
   22MOL0     C 2854   5.420   5.810   4.277  0.9963 -0.2090  0.3393
   22MOL0     C 2855   5.299   5.806   4.192 -0.3396 -0.3902  0.4720
   22MOL0     C 2856   5.195   5.897   4.264  0.4524 -0.4401  0.4481
   22MOL0     C 2857   5.051   5.836   4.270  0.4186 -0.3758 -0.6978
   22MOL0     C 2858   4.972   5.918   4.368 -0.4035 -0.4301  0.4907
   22MOL0     O 2859   4.840   5.865   4.364  0.3841 -0.7441 -0.6014
   22MOL0     C 2860   4.760   5.884   4.479 -0.0714  0.2619  0.4619
   22MOL0     C 2861   4.650   5.795   4.487  0.1445  0.5442  0.0891
   22MOL0     C 2862   4.562   5.803   4.601 -0.4935  0.2193  0.2853
   22MOL0     C 2863   4.448   5.706   4.610 -0.2083  1.0597  0.4824
   22MOL0     C 2864   4.588   5.906   4.706 -0.2358  0.5736 -0.3456
   22MOL0     C 2865   4.519   5.919   4.843  0.6459  0.3327 -0.0279
   22MOL0     O 2866   4.579   6.005   4.929  0.1945  0.2096 -0.0181
   22MOL0     C 2867   4.535   6.009   5.056  0.3551  0.1188 -0.2906
   22MOL0     C 2868   4.644   5.998   5.153  0.2295  0.7564 -0.3454
   22MOL0     C 2869   4.619   6.024   5.287  0.5520 -0.3818 -1.5872
   22MOL0     C 2870   4.485   6.056   5.327 -0.5997  0.8068 -0.7624
   22MOL0     O 2871   4.458   6.080   5.455  0.1903  0.3010 -0.7701
   22MOL0     C 2872   4.549   6.170   5.519  0.0044 -0.5756  0.3751
   22MOL0     C 2873   4.470   6.272   5.610  1.1817  0.0274  0.2181
   22MOL0     C 2874   4.404   6.201   5.722  0.8070 -0.1305 -1.4007
   22MOL0     C 2875   4.355   6.307   5.828  0.5855  0.6990  0.5487
   22MOL0     C 2876   4.244   6.251   5.917 -0.2894 -0.5934  0.5256
   22MOL0     C 2877   4.287   6.125   6.001  0.9513 -0.5043 -0.2899
   22MOL0     C 2878   4.161   6.084   6.072 -0.4393  0.0704  0.3740
   22MOL0     C 2879   4.048   6.031   5.995 -0.3664 -0.4016  0.2761
   22MOL0    Cl 2880   3.920   5.943   6.076 -0.2786 -0.1242 -0.0471
   22MOL0     C 2881   4.379   6.050   5.239  0.9288  0.0165  0.1222
   22MOL0     C 2882   4.405   6.019   5.106 -0.6228 -0.0728 -0.2199
   22MOL0     O 2883   4.420   5.847   4.859  0.5511  0.0184 -0.3191
   22MOL0     C 2884   4.687   6.001   4.683 -0.7125 -0.1641 -0.5036
   22MOL0     C 2885   4.777   5.989   4.568  0.8486  0.3054 -0.5605
   22MOL0     N 2886   5.540   5.864   4.241 -0.3810  0.2830  0.5941
   22MOL0     N 2887   5.612   5.864   4.345 -0.8838 -0.7936 -0.3613
   22MOL0     C 2888   5.935   6.658   5.149  0.7573  0.0789  0.7992
   22MOL0     C 2889   6.006   6.730   5.243 -0.0318 -0.5469 -0.4743
   22MOL0     C 2890   6.185   7.022   5.510 -0.5715  0.3244 -0.0421
   22MOL0     C 2891   6.320   7.016   5.469  0.3350  0.0072 -0.1763
   22MOL0     C 2892   6.417   7.049   5.562  0.8792  0.4577 -0.2584
   22MOL0     C 2893   6.390   7.084   5.696  0.1857 -0.2783  0.8223
   22MOL0     O 2894   6.497   7.117   5.780  0.4936 -0.0288  0.3399
   22MOL0     C 2895   6.482   7.169   5.916 -0.6606 -0.9347  0.2904
   22MOL0     C 2896   6.631   7.208   5.963  0.7042  0.2353 -0.5013
   22MOL0     C 2897   6.725   7.085   5.951  0.4455 -0.4498  0.5272
   22MOL0     C 2898   6.699   6.970   6.055  0.0229  0.1755 -0.0649
   22MOL0     C 2899   6.753   7.001   6.184 -0.3146 -0.1008  0.2620
   22MOL0     C 2900   6.789   7.000   6.294  0.0394 -0.2231 -0.0311
   22MOL0     C 2901   6.252   7.071   5.735 -0.6282 -0.2839  1.0781
   22MOL0     C 2902   6.146   7.060   5.647 -0.1100  0.8606 -0.3241
   22MOL0     H 2903   6.013   7.027   5.092 -0.2893 -1.2905  0.3395
   22MOL0     H 2904   5.869   6.897   4.929 -2.8980 -0.8130  0.3919
   22MOL0     H 2905   5.779   6.763   4.780  2.6491  0.7400 -1.0682
   22MOL0     H 2906   5.919   6.662   4.802 -0.6806  0.8098  0.7357
   22MOL0     H 2907   5.636   6.567   4.747 -0.5082  2.3569 -3.9915
   22MOL0     H 2908   5.751   6.589   4.626  3.0350  1.0625  0.6650
   22MOL0     H 2909   5.900   6.409   4.703  0.1590 -0.0190  0.6359
   22MOL0     H 2910   5.815   6.410   4.865  1.0766  2.0408 -0.3159
   22MOL0     H 2911   5.623   6.301   4.768 -0.1750  0.3565 -0.8584
   22MOL0     H 2912   5.661   6.363   4.607 -0.1921  1.7604  0.5502
   22MOL0     H 2913   5.846   6.209   4.591 -1.4120 -2.1333 -0.9051
   22MOL0     H 2914   5.822   6.156   4.760  1.1907  3.1589  1.5074
   22MOL0     H 2915   5.581   6.087   4.701  2.0305  1.3833  2.8559
   22MOL0     H 2916   5.626   6.134   4.534  0.7941  1.1451  0.4086
   22MOL0     H 2917   5.780   5.931   4.519  2.1081  0.4074  1.3658
   22MOL0     H 2918   5.766   5.902   4.687 -3.4787 -1.4903  0.8447
   22MOL0     H 2919   5.508   5.873   4.650  0.8466  0.3858  1.6067
   22MOL0     H 2920   5.625   5.742   4.627  1.1200  0.8479  1.0414
   22MOL0     H 2921   5.364   5.708   4.469  2.6075 -0.0552  4.2434
   22MOL0     H 2922   5.315   5.833   4.087  2.9110 -2.4878  0.2988
   22MOL0     H 2923   5.274   5.701   4.178 -2.3328  0.3615 -2.5909
   22MOL0     H 2924   5.175   5.989   4.210 -1.5612  0.0066  1.8362
   22MOL0     H 2925   5.233   5.923   4.364 -2.2952  0.3003  1.3836
   22MOL0     H 2926   5.064   5.732   4.301  3.0395 -0.0598 -0.4435
   22MOL0     H 2927   5.012   5.848   4.169  2.1336 -0.8011 -1.4537
   22MOL0     H 2928   4.974   6.025   4.344 -2.9132 -0.0929  1.4369
   22MOL0     H 2929   5.011   5.917   4.470  0.3023  1.1814  0.2700
   22MOL0     H 2930   4.646   5.709   4.421 -0.0125  2.0903 -2.0045
   22MOL0     H 2931   4.475   5.625   4.679  2.4296 -0.3081 -1.9781
   22MOL0     H 2932   4.354   5.757   4.634  1.2331  4.5659 -0.7609
   22MOL0     H 2933   4.431   5.665   4.511 -2.5838 -0.5402  1.4579
   22MOL0     H 2934   4.745   5.962   5.137  0.0337 -0.7506  1.4934
   22MOL0     H 2935   4.688   6.005   5.368 -2.1660 -1.5986  0.6102
   22MOL0     H 2936   4.629   6.118   5.572  1.0364  0.6687  0.0935
   22MOL0     H 2937   4.591   6.232   5.440  3.8599 -2.2975  0.8611
   22MOL0     H 2938   4.549   6.339   5.645 -0.5209  0.9579  2.5267
   22MOL0     H 2939   4.393   6.327   5.557 -0.2813  4.1691  5.6945
   22MOL0     H 2940   4.483   6.134   5.759 -0.3002 -3.1399 -4.0240
   22MOL0     H 2941   4.323   6.137   5.686  2.2855 -3.5808  0.8597
   22MOL0     H 2942   4.435   6.350   5.889 -0.6799  3.2802  0.5358
   22MOL0     H 2943   4.322   6.394   5.770 -2.0794 -0.3123  0.4007
   22MOL0     H 2944   4.181   6.207   5.839  2.6622 -3.9505 -0.1889
   22MOL0     H 2945   4.194   6.332   5.971 -1.7169  1.1834 -3.1170
   22MOL0     H 2946   4.339   6.045   5.948  1.6091  0.2089 -0.7416
   22MOL0     H 2947   4.350   6.159   6.084  3.3296 -0.1147 -2.1314
   22MOL0     H 2948   4.125   6.169   6.131 -1.9520  0.3475 -0.8802
   22MOL0     H 2949   4.192   6.013   6.149 -2.1901  0.3105  1.3580
   22MOL0     H 2950   4.091   5.978   5.910  0.6567  1.6543 -0.5508
   22MOL0     H 2951   4.013   6.124   5.949  1.2534  0.4715  0.7321
   22MOL0     H 2952   4.273   6.057   5.260 -0.0450 -1.6382 -3.3062
   22MOL0     H 2953   4.331   6.018   5.026 -0.6218 -2.2445 -0.2612
   22MOL0     H 2954   4.711   6.080   4.753  0.7557  0.8804 -2.0911
   22MOL0     H 2955   4.861   6.055   4.548 -1.0762  2.5487 -1.6309
   22MOL0     H 2956   5.914   6.555   5.177 -4.1524  1.4023  2.9118
   22MOL0     H 2957   6.034   6.671   5.330 -1.4095 -4.1090 -2.2096
   22MOL0     H 2958   6.357   6.994   5.369  1.1871  0.3516  0.0532
   22MOL0     H 2959   6.521   7.045   5.532  0.7613  1.3095 -0.8398
   22MOL0     H 2960   6.418   7.257   5.921  0.2041 -0.0702 -2.3490
   22MOL0     H 2961   6.437   7.093   5.981  1.1500 -0.8757  1.6859
   22MOL0     H 2962   6.627   7.246   6.066  0.6911  0.5689 -0.6238
   22MOL0     H 2963   6.665   7.284   5.893  0.1229 -0.5053 -1.6063
   22MOL0     H 2964   6.819   7.140   5.946 -2.3352  4.8969 -0.6375
   22MOL0     H 2965   6.710   7.042   5.851 -0.7929  0.6695  0.2015
   22MOL0     H 2966   6.743   6.877   6.019  0.1371 -0.2882  1.2102
   22MOL0     H 2967   6.592   6.950   6.065  0.2210 -2.1900 -1.8949
   22MOL0     H 2968   6.823   7.020   6.393  0.4342 -0.3225 -0.1477
   22MOL0     H 2969   6.228   7.080   5.840  0.7073  2.0498  1.2650
   22MOL0     H 2970   6.040   7.053   5.671  0.6054 -0.6797  3.0683
   23MOL0     O 2971   5.465  11.116   3.839 -0.5671  0.3864 -0.2866
   23MOL0     C 2972   5.443  11.229   3.799  0.3433 -0.0423  0.3631
   23MOL0     O 2973   5.507  11.293   3.689  0.0313  0.3825  0.1021
   23MOL0     C 2974   5.642  11.282   3.669 -0.9027  0.1557 -0.5745
   23MOL0     C 2975   5.691  11.315   3.542  0.6536 -0.2682 -0.2441
   23MOL0     C 2976   5.827  11.323   3.522  0.1582  0.8670 -0.2784
   23MOL0     C 2977   5.921  11.290   3.624 -1.0635 -0.9273  0.1452
   23MOL0     O 2978   6.056  11.318   3.611  0.3184  0.4798  0.2064
   23MOL0     C 2979   6.116  11.404   3.709 -0.4760 -0.1895 -0.6741
   23MOL0     C 2980   6.026  11.524   3.771  0.0005  0.6844 -0.8239
   23MOL0     C 2981   6.040  11.669   3.699  0.1256  0.2480 -1.3225
   23MOL0     C 2982   5.969  11.675   3.569  0.2325  0.1477 -0.4030
   23MOL0     C 2983   5.826  11.730   3.567 -1.0407 -0.7602  0.0682
   23MOL0     C 2984   5.728  11.673   3.666  0.4278 -0.5117  0.6663
   23MOL0     C 2985   5.605  11.752   3.662 -0.1535 -0.3862  0.9401
   23MOL0     C 2986   5.486  11.667   3.691 -0.0141 -0.0232 -0.8343
   23MOL0     N 2987   5.358  11.737   3.703 -0.1450  0.1393 -0.2694
   23MOL0     C 2988   5.304  11.793   3.823 -0.3464 -0.7232 -0.0902
   23MOL0     C 2989   5.176  11.832   3.799 -1.2447  0.5206 -0.0058
   23MOL0     C 2990   5.076  11.885   3.893  0.3417 -0.2438 -0.3284
   23MOL0     C 2991   5.075  12.039   3.899  0.6351  0.0239  0.1783
   23MOL0     C 2992   4.953  12.096   3.976 -0.6197  0.3784 -0.5705
   23MOL0     C 2993   4.922  12.239   3.920  0.7483  0.1786 -0.0100
   23MOL0     O 2994   4.816  12.297   3.995  0.3458 -0.2407  0.1910
   23MOL0     C 2995   4.688  12.261   3.971 -0.1118 -0.3371 -0.0714
   23MOL0     C 2996   4.596  12.322   4.054  0.6498 -0.2816  0.8402
   23MOL0     C 2997   4.458  12.313   4.020  0.1045  1.3493  0.7668
   23MOL0     C 2998   4.376  12.405   4.090 -0.4899 -0.3122 -0.6594
   23MOL0     C 2999   4.410  12.230   3.915 -0.3275 -0.3783  1.1069
   23MOL0     C 3000   4.267  12.214   3.881 -0.6705 -0.5685  0.9299
   23MOL0     O 3001   4.241  12.171   3.757 -0.5449  1.0843  0.5425
   23MOL0     C 3002   4.115  12.130   3.728  0.4612 -0.0720  0.7654
   23MOL0     C 3003   4.057  12.171   3.605  0.2389  0.3809  0.1193
   23MOL0     C 3004   3.929  12.129   3.551  0.8596  0.3549 -0.4445
   23MOL0     C 3005   3.854  12.040   3.629 -0.0793 -0.3177  0.0556
   23MOL0     O 3006   3.729  12.009   3.584 -0.7808 -0.3015  0.2249
   23MOL0     C 3007   3.636  12.011   3.687  0.5642  0.4002 -1.1305
   23MOL0     C 3008   3.483  11.996   3.649 -0.3333 -0.3796 -0.1527
   23MOL0     C 3009   3.394  11.975   3.774  0.7537  0.5403  0.3057
   23MOL0     C 3010   3.412  12.086   3.874  0.4054  0.8750 -0.0362
   23MOL0     C 3011   3.279  12.118   3.963  0.1164 -0.3369 -0.7622
   23MOL0     C 3012   3.320  12.213   4.075  0.8355 -0.2081 -0.4371
   23MOL0     C 3013   3.196  12.257   4.158 -0.9506  0.6650 -1.0566
   23MOL0     C 3014   3.231  12.367   4.267  0.1278  0.1650 -0.1377
   23MOL0    Cl 3015   3.337  12.321   4.413 -0.2100  0.6453 -0.0643
   23MOL0     C 3016   3.914  11.990   3.746 -0.1166 -1.2309  0.5094
   23MOL0     C 3017   4.045  12.031   3.787 -0.4812  0.0412  0.5394
   23MOL0     O 3018   4.184  12.228   3.970 -0.1454  0.7072 -0.0306
   23MOL0     C 3019   4.502  12.153   3.838 -0.0760 -0.3475 -0.1528
   23MOL0     C 3020   4.641  12.179   3.863 -0.1240 -0.6995 -0.5893
   23MOL0     N 3021   5.150  11.792   3.667  0.0953  0.4912 -0.5625
   23MOL0     N 3022   5.255  11.738   3.612  1.2749 -0.4888 -0.1172
   23MOL0     C 3023   5.868  11.249   3.744 -0.8526  0.3586  0.2553
   23MOL0     C 3024   5.734  11.237   3.767  0.3247 -0.7261 -0.2948
   23MOL0     C 3025   5.308  11.290   3.820  0.4912  0.7191  0.1147
   23MOL0     C 3026   5.254  11.382   3.735  0.3023  0.3574 -0.6118
   23MOL0     C 3027   5.132  11.445   3.766 -0.1120  0.7938 -0.2223
   23MOL0     C 3028   5.060  11.408   3.872  0.0362  0.6334  0.3977
   23MOL0     O 3029   4.935  11.463   3.898  0.1646  0.2103 -0.8874
   23MOL0     C 3030   4.871  11.565   3.827  0.3913 -0.6450  0.2030
   23MOL0     C 3031   4.737  11.517   3.770  0.0396 -0.2982  0.0301
   23MOL0     C 3032   4.640  11.472   3.881  0.4294  0.1010 -0.6349
   23MOL0     C 3033   4.502  11.445   3.826  0.5650 -0.0180  0.1425
   23MOL0     C 3034   4.433  11.571   3.785  0.1511  0.3121  0.4672
   23MOL0     C 3035   4.371  11.680   3.774  0.6445 -0.0874 -0.3123
   23MOL0     C 3036   5.115  11.328   3.969  0.8435 -0.3896  0.6510
   23MOL0     C 3037   5.231  11.258   3.935  0.0518 -0.1518 -0.1257
   23MOL0     H 3038   5.615  11.332   3.466  0.9258  1.0233 -0.2462
   23MOL0     H 3039   5.872  11.366   3.433  0.1566  0.8694 -0.2779
   23MOL0     H 3040   6.137  11.338   3.794 -4.3236  0.4952  0.9870
   23MOL0     H 3041   6.217  11.437   3.681  0.1927 -0.8839  0.7955
   23MOL0     H 3042   5.922  11.495   3.756 -0.5719  2.5967 -0.7550
   23MOL0     H 3043   6.044  11.535   3.878  0.2948  1.9915 -0.9938
   23MOL0     H 3044   5.992  11.741   3.766 -2.6660 -1.9985 -0.6972
   23MOL0     H 3045   6.144  11.692   3.675  0.0213 -0.8543 -2.9540
   23MOL0     H 3046   6.022  11.726   3.488 -2.2670 -1.1036 -3.0219
   23MOL0     H 3047   5.971  11.571   3.533 -0.2809  0.4615 -1.3826
   23MOL0     H 3048   5.840  11.835   3.591 -0.7634 -0.6863 -0.4165
   23MOL0     H 3049   5.785  11.727   3.466 -1.0543 -0.0430  0.0507
   23MOL0     H 3050   5.707  11.569   3.641  2.0854 -0.8063  0.4493
   23MOL0     H 3051   5.770  11.669   3.767  0.0138  0.5788  0.8976
   23MOL0     H 3052   5.622  11.832   3.735 -4.7595  2.2271 -0.4694
   23MOL0     H 3053   5.590  11.795   3.563 -1.5145 -0.7036  0.9962
   23MOL0     H 3054   5.515  11.620   3.785  2.4279  3.5111  0.3857
   23MOL0     H 3055   5.477  11.594   3.610  0.6224 -0.8540 -0.1728
   23MOL0     H 3056   5.351  11.816   3.919  0.3631 -0.2176 -0.5496
   23MOL0     H 3057   4.978  11.855   3.857  0.2644 -0.3828 -0.0113
   23MOL0     H 3058   5.099  11.844   3.993 -1.2632  1.0165  0.6008
   23MOL0     H 3059   5.055  12.074   3.797 -1.7653 -1.4563  0.0715
   23MOL0     H 3060   5.173  12.075   3.932  0.9221 -0.1919 -0.4092
   23MOL0     H 3061   4.977  12.097   4.082 -0.2530 -1.1098 -0.6179
   23MOL0     H 3062   4.865  12.033   3.970 -0.6953  0.1077  2.1239
   23MOL0     H 3063   4.897  12.228   3.814  1.6467 -0.2996 -0.1797
   23MOL0     H 3064   5.001  12.313   3.936 -0.9289  2.0596 -0.1033
   23MOL0     H 3065   4.622  12.389   4.136 -0.1138  0.2499  0.6581
   23MOL0     H 3066   4.427  12.474   4.158  0.6351 -2.2817  0.5644
   23MOL0     H 3067   4.324  12.457   4.009 -0.3366 -1.1176 -1.2818
   23MOL0     H 3068   4.299  12.366   4.158  0.1687  1.1082  0.9821
   23MOL0     H 3069   4.114  12.251   3.558  2.6273  1.2201  4.0792
   23MOL0     H 3070   3.893  12.152   3.452 -1.4486 -1.8673 -0.2090
   23MOL0     H 3071   3.653  11.938   3.766  0.2934  0.7424 -0.7499
   23MOL0     H 3072   3.655  12.104   3.742 -0.3469  1.3544 -2.3568
   23MOL0     H 3073   3.447  12.085   3.596 -1.5683 -1.5537 -1.3606
   23MOL0     H 3074   3.468  11.912   3.582  1.0348 -0.9596  0.2439
   23MOL0     H 3075   3.409  11.877   3.820  0.3650 -1.0293 -2.7188
   23MOL0     H 3076   3.291  11.974   3.737  1.3349 -0.7493 -1.3899
   23MOL0     H 3077   3.493  12.040   3.931  0.9107  2.1677  0.3051
   23MOL0     H 3078   3.451  12.173   3.821  2.1796 -0.5091 -1.1001
   23MOL0     H 3079   3.247  12.018   3.994  1.0078 -0.1461  0.9232
   23MOL0     H 3080   3.202  12.161   3.899 -0.2136 -0.0791 -0.2005
   23MOL0     H 3081   3.379  12.154   4.146 -0.6780 -1.1000  0.1495
   23MOL0     H 3082   3.382  12.290   4.029  1.5387 -1.8120 -2.2984
   23MOL0     H 3083   3.157  12.165   4.202  2.0124 -0.6873 -1.0030
   23MOL0     H 3084   3.120  12.287   4.086 -0.7176 -1.9213 -2.4968
   23MOL0     H 3085   3.139  12.414   4.304  1.0366  0.4446  1.8877
   23MOL0     H 3086   3.281  12.442   4.206 -1.7773  1.2159 -0.4974
   23MOL0     H 3087   3.866  11.913   3.806 -3.5637  2.5516  3.1004
   23MOL0     H 3088   4.074  11.990   3.883  3.4030 -1.9321 -1.2737
   23MOL0     H 3089   4.475  12.096   3.750  2.0012  1.4184 -2.0722
   23MOL0     H 3090   4.720  12.149   3.794  1.6305 -1.1189  1.4876
   23MOL0     H 3091   5.921  11.225   3.836 -3.7936 -1.7875  1.5352
   23MOL0     H 3092   5.701  11.190   3.860  0.5289 -0.6374 -0.1772
   23MOL0     H 3093   5.315  11.418   3.652  1.6596  0.9422  0.5784
   23MOL0     H 3094   5.096  11.532   3.712 -0.6397  0.1144 -0.9926
   23MOL0     H 3095   4.858  11.648   3.896 -0.5034 -2.2692  2.0854
   23MOL0     H 3096   4.928  11.600   3.740  2.6789  0.1129  1.9263
   23MOL0     H 3097   4.751  11.429   3.706  1.1589 -1.4289  1.7264
   23MOL0     H 3098   4.700  11.605   3.716  0.4412 -0.0657  0.1218
   23MOL0     H 3099   4.624  11.550   3.955 -0.3544 -1.0951  0.5029
   23MOL0     H 3100   4.665  11.385   3.942 -1.6872 -0.3636 -0.3526
   23MOL0     H 3101   4.436  11.395   3.898  1.2847  0.1377  0.9226
   23MOL0     H 3102   4.508  11.387   3.734 -1.6804  0.1119 -0.1536
   23MOL0     H 3103   4.311  11.768   3.761 -1.9336 -2.0672 -3.4562
   23MOL0     H 3104   5.047  11.295   4.048 -2.2284  2.6639 -0.4587
   23MOL0     H 3105   5.252  11.169   3.994 -2.6176 -0.0981  1.0561
   24MOL0     O 3106   5.656   3.919   2.746 -0.8331 -0.4574 -0.4346
   24MOL0     C 3107   5.725   3.828   2.801 -0.0538 -0.2960  0.0593
   24MOL0     O 3108   5.866   3.831   2.810  0.6548 -0.1001  0.6421
   24MOL0     C 3109   5.950   3.898   2.721 -1.4059  0.3520  0.1084
   24MOL0     C 3110   5.922   4.017   2.648 -0.0501  0.2863 -0.0249
   24MOL0     C 3111   6.006   4.060   2.553 -0.3927 -0.0022  0.0106
   24MOL0     C 3112   6.117   3.986   2.514 -0.5013 -0.1253  1.5696
   24MOL0     O 3113   6.207   4.033   2.418  0.0153 -0.9199  0.1403
   24MOL0     C 3114   6.207   3.964   2.292 -0.5768  0.1238  0.3402
   24MOL0     C 3115   6.299   4.021   2.180  0.2017  0.5703 -0.0061
   24MOL0     C 3116   6.273   4.005   2.036  0.9304 -0.2682  0.4132
   24MOL0     C 3117   6.148   4.088   1.996  0.7017 -0.2992  0.4096
   24MOL0     C 3118   6.088   4.045   1.861 -0.1041 -0.1687  0.3001
   24MOL0     C 3119   5.976   4.142   1.824  0.8217 -0.2336 -0.0020
   24MOL0     C 3120   5.897   4.096   1.707  0.4484  0.0660  0.0972
   24MOL0     C 3121   5.768   4.175   1.677  0.2078  0.4329 -0.0995
   24MOL0     N 3122   5.661   4.167   1.775  0.4074  0.2514 -0.1123
   24MOL0     C 3123   5.539   4.110   1.774 -0.2620  0.2440 -0.1764
   24MOL0     C 3124   5.471   4.172   1.870  0.3982 -0.6380 -0.1788
   24MOL0     C 3125   5.327   4.150   1.895  0.2785  0.1052  0.5072
   24MOL0     C 3126   5.246   4.281   1.923 -0.3376  0.0998 -0.3251
   24MOL0     C 3127   5.243   4.336   2.070 -0.2883 -0.6908 -0.1434
   24MOL0     C 3128   5.171   4.244   2.174  0.0876 -0.1368  0.1833
   24MOL0     O 3129   5.030   4.230   2.144  1.0064  0.0725  0.2302
   24MOL0     C 3130   4.951   4.150   2.223 -0.5732  0.2325 -0.0980
   24MOL0     C 3131   5.006   4.087   2.337  0.2660 -1.0009 -0.3437
   24MOL0     C 3132   4.922   4.001   2.416  1.2905 -0.1895 -0.9085
   24MOL0     C 3133   4.985   3.937   2.541  0.2008 -0.8268  0.5935
   24MOL0     C 3134   4.780   3.996   2.394  0.4383  0.7198  0.7697
   24MOL0     C 3135   4.681   3.916   2.475 -0.1048  0.7919 -0.1255
   24MOL0     O 3136   4.572   3.873   2.416  0.2632  0.4433 -0.0080
   24MOL0     C 3137   4.472   3.811   2.493  0.0561  0.2583  0.2941
   24MOL0     C 3138   4.409   3.865   2.609 -0.3357 -0.0116  1.2361
   24MOL0     C 3139   4.299   3.799   2.662  1.4484 -0.8820  0.7943
   24MOL0     C 3140   4.246   3.686   2.606  0.5415  0.0302  0.2722
   24MOL0     O 3141   4.123   3.635   2.653  0.2817  0.1121  0.6761
   24MOL0     C 3142   4.057   3.692   2.764  0.5298 -0.0173  0.1966
   24MOL0     C 3143   3.915   3.621   2.759 -0.3630 -0.0460 -0.2388
   24MOL0     C 3144   3.824   3.665   2.649 -0.1689 -0.5127  1.1959
   24MOL0     C 3145   3.684   3.592   2.636  0.0895  0.1431 -0.0046
   24MOL0     C 3146   3.587   3.642   2.520 -0.4467 -0.0053 -0.7210
   24MOL0     C 3147   3.641   3.611   2.383  0.2179 -0.2244 -0.9083
   24MOL0     C 3148   3.527   3.582   2.286 -0.3058 -0.0311 -0.2068
   24MOL0     C 3149   3.453   3.695   2.227  0.3527 -0.2508  0.4517
   24MOL0    Cl 3150   3.326   3.754   2.332  0.8227 -0.2036 -0.2348
   24MOL0     C 3151   4.312   3.634   2.494 -0.5443 -0.9948  0.3999
   24MOL0     C 3152   4.418   3.698   2.437  0.2505 -0.2210 -0.4443
   24MOL0     O 3153   4.712   3.894   2.596  0.0808  0.3819 -0.0660
   24MOL0     C 3154   4.732   4.062   2.285  0.2548  0.1787 -0.6080
   24MOL0     C 3155   4.815   4.139   2.202 -0.1357  0.1252  0.6578
   24MOL0     N 3156   5.551   4.272   1.926 -0.3714  0.3149  0.7179
   24MOL0     N 3157   5.663   4.271   1.856  0.0917 -0.2536  0.1080
   24MOL0     C 3158   6.150   3.877   2.583 -0.4038 -0.2429  0.2033
   24MOL0     C 3159   6.077   3.830   2.692 -0.1678 -0.5186  0.6997
   24MOL0     C 3160   5.658   3.738   2.891 -0.4832 -0.6532  0.1581
   24MOL0     C 3161   5.731   3.677   2.994  1.0019 -0.4766 -0.0954
   24MOL0     C 3162   5.668   3.610   3.096  0.0791 -0.3241 -1.5480
   24MOL0     C 3163   5.527   3.598   3.098  0.4055 -0.0556 -1.0690
   24MOL0     O 3164   5.464   3.504   3.180  1.6719  0.0121 -0.7817
   24MOL0     C 3165   5.408   3.555   3.299 -1.3615 -0.5342 -0.6527
   24MOL0     C 3166   5.271   3.627   3.287 -0.9527  0.2249 -0.4549
   24MOL0     C 3167   5.255   3.749   3.384  0.2542 -0.3314  0.6019
   24MOL0     C 3168   5.145   3.836   3.342  0.8311  0.8352  0.3005
   24MOL0     C 3169   5.156   3.981   3.378 -1.0806  0.9554  0.2718
   24MOL0     C 3170   5.192   4.094   3.407 -0.1486  0.7574  0.4298
   24MOL0     C 3171   5.454   3.667   2.995  0.0420  0.4420 -0.3214
   24MOL0     C 3172   5.521   3.722   2.892 -1.5917  0.0758  0.1985
   24MOL0     H 3173   5.832   4.076   2.664 -0.1912 -0.1977  1.0866
   24MOL0     H 3174   5.981   4.149   2.497 -0.1254  0.6203  0.8717
   24MOL0     H 3175   6.234   3.859   2.294 -1.5948 -0.3050 -2.6520
   24MOL0     H 3176   6.105   3.980   2.253  0.4343  1.0536 -2.1639
   24MOL0     H 3177   6.330   4.124   2.202  1.2273 -0.1185  2.0579
   24MOL0     H 3178   6.386   3.956   2.193 -1.6664 -2.2759 -0.9378
   24MOL0     H 3179   6.357   4.032   1.971 -1.3891  2.0491 -1.9123
   24MOL0     H 3180   6.251   3.899   2.019  0.6949  0.1086 -2.0770
   24MOL0     H 3181   6.069   4.076   2.071  0.7214  0.3735  0.5396
   24MOL0     H 3182   6.172   4.193   1.982 -3.3163  0.5115 -2.0545
   24MOL0     H 3183   6.161   4.055   1.779 -1.1863 -0.6303 -0.7431
   24MOL0     H 3184   6.056   3.941   1.869  4.1896 -1.5493  4.0949
   24MOL0     H 3185   5.913   4.162   1.911  1.7185  0.7696  0.4538
   24MOL0     H 3186   6.010   4.241   1.791  0.4925 -0.5711 -1.4159
   24MOL0     H 3187   5.965   4.101   1.622 -0.0325  4.1735 -0.2515
   24MOL0     H 3188   5.871   3.991   1.721  0.3059 -0.3413 -2.6782
   24MOL0     H 3189   5.738   4.133   1.580  1.7220 -1.4234  0.1706
   24MOL0     H 3190   5.794   4.281   1.663 -3.4634  1.3746 -0.8612
   24MOL0     H 3191   5.496   4.031   1.714  1.1186 -1.4158  0.9183
   24MOL0     H 3192   5.284   4.106   1.804 -0.8122  0.2449  0.9476
   24MOL0     H 3193   5.317   4.077   1.976  5.6463  1.1145  2.5442
   24MOL0     H 3194   5.141   4.265   1.896 -0.6947 -3.6405  2.4063
   24MOL0     H 3195   5.268   4.365   1.857  0.7734 -0.1348 -0.2627
   24MOL0     H 3196   5.181   4.426   2.066 -0.2809 -0.5075  2.2124
   24MOL0     H 3197   5.340   4.365   2.112 -0.8185  2.5949 -0.9250
   24MOL0     H 3198   5.176   4.300   2.268 -4.2379  1.0280 -0.0635
   24MOL0     H 3199   5.220   4.148   2.194 -1.1862 -0.5456  1.4657
   24MOL0     H 3200   5.108   4.099   2.372  1.1415  1.3988 -3.2694
   24MOL0     H 3201   5.094   3.947   2.535 -0.0215  2.2664  0.1583
   24MOL0     H 3202   4.970   3.997   2.631  4.3312  0.2198  0.7662
   24MOL0     H 3203   4.960   3.834   2.567  0.3135 -0.3799  2.7013
   24MOL0     H 3204   4.444   3.955   2.660  2.8803 -1.2909  1.5661
   24MOL0     H 3205   4.273   3.832   2.763  1.2916  0.9947  0.1773
   24MOL0     H 3206   4.115   3.665   2.853  0.9314 -3.6235 -0.9894
   24MOL0     H 3207   4.049   3.801   2.759 -1.2242 -0.1308 -0.2154
   24MOL0     H 3208   3.937   3.514   2.751  1.0302 -0.1079  2.9981
   24MOL0     H 3209   3.852   3.646   2.845 -0.7837  1.3278 -0.9121
   24MOL0     H 3210   3.871   3.659   2.551  0.8321  0.7831  1.5662
   24MOL0     H 3211   3.796   3.771   2.652  2.0472  0.1764  0.0404
   24MOL0     H 3212   3.697   3.485   2.617 -0.6840 -0.1039  0.8190
   24MOL0     H 3213   3.636   3.603   2.733  0.5191  1.9332  0.0401
   24MOL0     H 3214   3.565   3.749   2.528 -2.2964 -0.1871 -2.5802
   24MOL0     H 3215   3.495   3.586   2.542 -0.8648  1.1531  0.6586
   24MOL0     H 3216   3.707   3.691   2.346  0.4434  1.0813  2.0319
   24MOL0     H 3217   3.699   3.518   2.387  0.7989  0.1664  1.7839
   24MOL0     H 3218   3.450   3.519   2.330 -0.3030 -1.3296 -1.9768
   24MOL0     H 3219   3.574   3.534   2.200 -1.4174 -0.7161 -0.4525
   24MOL0     H 3220   3.399   3.661   2.138  2.5858 -0.3094 -0.9736
   24MOL0     H 3221   3.530   3.768   2.200 -2.3030  2.0121 -1.5446
   24MOL0     H 3222   4.280   3.537   2.457  0.6402 -0.0606 -3.6617
   24MOL0     H 3223   4.477   3.670   2.351 -0.5047  0.8394 -1.3421
   24MOL0     H 3224   4.636   4.031   2.244  0.9494 -1.6230 -0.9888
   24MOL0     H 3225   4.767   4.189   2.119  0.9353  6.6928  3.3812
   24MOL0     H 3226   6.241   3.833   2.545 -0.0836  0.3468  0.2741
   24MOL0     H 3227   6.123   3.742   2.735  1.4063  0.2932  0.7469
   24MOL0     H 3228   5.839   3.679   3.000  0.9616  1.1531  0.7857
   24MOL0     H 3229   5.736   3.571   3.170  0.2494  1.8334 -0.4871
   24MOL0     H 3230   5.387   3.478   3.374 -1.9861 -1.1964 -1.4901
   24MOL0     H 3231   5.485   3.616   3.347 -2.1003 -2.2259  3.0419
   24MOL0     H 3232   5.198   3.547   3.298 -1.4182  0.6988 -0.0365
   24MOL0     H 3233   5.268   3.660   3.183 -0.3859 -2.7474 -1.5278
   24MOL0     H 3234   5.348   3.803   3.370 -1.0748  2.4434  1.7006
   24MOL0     H 3235   5.251   3.726   3.491  2.2542  2.1486  1.2991
   24MOL0     H 3236   5.055   3.796   3.391  1.2780 -2.0018 -0.9663
   24MOL0     H 3237   5.126   3.834   3.234  1.8624  1.0943  0.1010
   24MOL0     H 3238   5.210   4.193   3.443 -1.7004  1.7396 -1.2943
   24MOL0     H 3239   5.346   3.664   2.988 -0.2496 -5.3740  1.4428
   24MOL0     H 3240   5.462   3.764   2.811 -0.3444 -1.8946 -1.8515
   25MOL0     O 3241  10.102  10.537   9.613 -0.0074 -0.7305 -0.6221
   25MOL0     C 3242  10.057  10.577   9.511  0.2352  0.8436  0.0550
   25MOL0     O 3243   9.950  10.528   9.442  0.0304  0.3400  0.1388
   25MOL0     C 3244   9.862  10.438   9.473  0.2874  0.5932 -0.1134
   25MOL0     C 3245   9.799  10.390   9.357 -0.5969 -0.4660 -0.5698
   25MOL0     C 3246   9.709  10.289   9.369  0.1623 -1.1907 -0.0107
   25MOL0     C 3247   9.676  10.227   9.497  1.0171  0.6511 -0.3363
   25MOL0     O 3248   9.597  10.114   9.504 -0.3384 -0.2662 -0.3417
   25MOL0     C 3249   9.600  10.027   9.623 -0.6816  0.5220 -0.9974
   25MOL0     C 3250   9.709   9.913   9.628 -0.0432  0.1054 -0.8451
   25MOL0     C 3251   9.710   9.834   9.501 -0.0520  0.6451  0.7861
   25MOL0     C 3252   9.839   9.746   9.468  0.2832  0.3649 -0.4497
   25MOL0     C 3253   9.840   9.722   9.319  0.0697  0.3467 -0.3796
   25MOL0     C 3254   9.965   9.667   9.266 -0.2659 -0.3723 -0.2238
   25MOL0     C 3255  10.024   9.547   9.338 -0.5632 -0.4399 -0.5768
   25MOL0     C 3256   9.938   9.417   9.348  0.2378 -1.2723  1.2645
   25MOL0     N 3257   9.891   9.381   9.211 -0.1790  0.4537 -0.8807
   25MOL0     C 3258   9.976   9.364   9.103 -1.1784  0.1747 -0.0364
   25MOL0     C 3259   9.900   9.342   9.001 -0.7963  1.6422  0.0254
   25MOL0     C 3260   9.937   9.296   8.865 -0.3316  0.6457 -0.2361
   25MOL0     C 3261   9.861   9.374   8.749  0.5241 -0.2768 -0.1063
   25MOL0     C 3262   9.888   9.522   8.754  1.2637  0.3653 -0.7144
   25MOL0     C 3263   9.859   9.588   8.624 -0.8530  0.9292  0.0173
   25MOL0     O 3264   9.894   9.730   8.631 -0.3683  0.5740  0.1211
   25MOL0     C 3265   9.845   9.811   8.540  0.3031  1.7069 -0.3708
   25MOL0     C 3266   9.801   9.773   8.412  0.1927  0.2322  0.1555
   25MOL0     C 3267   9.765   9.871   8.318 -0.4896  1.1659 -0.0311
   25MOL0     C 3268   9.715   9.818   8.184 -0.3335  0.4000  0.7707
   25MOL0     C 3269   9.758  10.012   8.349  0.6758 -0.0271 -0.4700
   25MOL0     C 3270   9.718  10.118   8.257 -0.1480  0.1831  0.9563
   25MOL0     O 3271   9.637  10.213   8.302 -0.3037 -1.2383  0.3418
   25MOL0     C 3272   9.571  10.284   8.210  0.5770 -0.1475 -0.1691
   25MOL0     C 3273   9.473  10.223   8.138  0.0962 -0.4950  0.5904
   25MOL0     C 3274   9.384  10.297   8.054  0.1048 -0.1561 -0.7379
   25MOL0     C 3275   9.392  10.438   8.047 -0.0131  0.5414 -0.2604
   25MOL0     O 3276   9.297  10.512   7.979 -0.9022 -0.1360  0.7330
   25MOL0     C 3277   9.235  10.624   8.033  0.6213 -0.4654 -0.3333
   25MOL0     C 3278   9.095  10.585   8.072  0.6280  0.1643 -0.3160
   25MOL0     C 3279   9.042  10.655   8.192 -0.6490  0.2621  0.7085
   25MOL0     C 3280   9.109  10.616   8.329  0.6541  0.6944  0.5840
   25MOL0     C 3281   9.095  10.457   8.358 -0.0731 -0.4518  0.6333
   25MOL0     C 3282   9.101  10.437   8.512  0.1050  0.4548 -0.1888
   25MOL0     C 3283   9.238  10.469   8.566 -0.4921 -0.0765  0.0070
   25MOL0     C 3284   9.241  10.535   8.693  0.1253  0.3061 -0.6279
   25MOL0    Cl 3285   9.178  10.451   8.834  0.0387  0.5707  0.2509
   25MOL0     C 3286   9.495  10.505   8.125 -0.8582  0.1880 -0.6170
   25MOL0     C 3287   9.580  10.429   8.206 -0.7612 -0.1793 -0.4320
   25MOL0     O 3288   9.782  10.115   8.153 -0.3803  0.4253  0.1235
   25MOL0     C 3289   9.795  10.043   8.477  0.1261  0.2896  0.4785
   25MOL0     C 3290   9.845   9.949   8.567  0.0559 -0.3151  0.4664
   25MOL0     N 3291   9.770   9.355   9.035  0.8825 -0.8004  0.2495
   25MOL0     N 3292   9.764   9.379   9.164 -0.0275 -0.2076 -0.0541
   25MOL0     C 3293   9.738  10.276   9.614  0.6469 -1.0556 -0.5773
   25MOL0     C 3294   9.836  10.377   9.601 -0.0212 -0.1886  0.1218
   25MOL0     C 3295  10.122  10.706   9.459  0.4849 -0.4174 -0.1948
   25MOL0     C 3296  10.210  10.787   9.541  0.2294 -0.3297 -1.0557
   25MOL0     C 3297  10.259  10.903   9.481  0.8296  0.8498 -0.0674
   25MOL0     C 3298  10.222  10.948   9.353 -0.1525 -0.1417  0.0489
   25MOL0     O 3299  10.277  11.068   9.318 -0.3788 -0.1574 -0.0750
   25MOL0     C 3300  10.284  11.121   9.197  0.4986  0.4811 -0.1134
   25MOL0     C 3301  10.356  11.024   9.098  0.2977 -0.4310 -0.3285
   25MOL0     C 3302  10.494  10.964   9.151  0.9077 -0.2812  0.2321
   25MOL0     C 3303  10.611  11.045   9.108 -0.0978 -0.7334  0.4631
   25MOL0     C 3304  10.627  11.049   8.963  0.0540 -0.7439  0.8845
   25MOL0     C 3305  10.647  11.059   8.842  0.4564  0.1483  0.6551
   25MOL0     C 3306  10.130  10.878   9.279  0.2310 -0.6215 -0.1076
   25MOL0     C 3307  10.083  10.760   9.340  0.5999  0.4304  0.7246
   25MOL0     H 3308   9.817  10.437   9.261 -1.1361  2.8575  0.8288
   25MOL0     H 3309   9.662  10.249   9.279  0.8003  0.6570 -1.2111
   25MOL0     H 3310   9.598  10.073   9.722  0.0829 -1.0573 -0.2058
   25MOL0     H 3311   9.503   9.977   9.620 -0.4755  0.0587 -0.2867
   25MOL0     H 3312   9.809   9.956   9.643 -0.7836  1.5025  0.3424
   25MOL0     H 3313   9.696   9.843   9.711 -1.5184  0.3070 -0.8904
   25MOL0     H 3314   9.625   9.765   9.505 -0.8989  1.5678 -0.3771
   25MOL0     H 3315   9.684   9.910   9.426  2.5191  0.1013 -0.8050
   25MOL0     H 3316   9.931   9.798   9.496 -0.1462 -0.7275  3.5293
   25MOL0     H 3317   9.844   9.648   9.517  2.0976  1.8455  2.6170
   25MOL0     H 3318   9.760   9.648   9.303 -0.5357  0.3171  2.3004
   25MOL0     H 3319   9.807   9.810   9.263  1.9379  1.7166  0.5749
   25MOL0     H 3320   9.945   9.634   9.163  1.3426 -1.0440 -0.3539
   25MOL0     H 3321  10.042   9.744   9.267 -0.2292 -0.2563  3.9311
   25MOL0     H 3322  10.115   9.535   9.279  0.2579 -2.1424  0.9436
   25MOL0     H 3323  10.049   9.583   9.438  1.4282 -1.1037 -0.7956
   25MOL0     H 3324   9.865   9.434   9.428  0.2563  1.7848  0.7542
   25MOL0     H 3325  10.009   9.344   9.387  1.3627 -2.2282 -2.2187
   25MOL0     H 3326  10.084   9.358   9.113 -1.3171  0.2597  1.9457
   25MOL0     H 3327  10.044   9.307   8.850 -0.6194 -0.0008 -3.4798
   25MOL0     H 3328   9.898   9.194   8.863 -1.7088  1.1554 -2.4383
   25MOL0     H 3329   9.752   9.358   8.750  0.2174  1.3619 -1.6059
   25MOL0     H 3330   9.885   9.326   8.653 -3.6332 -0.1376 -1.4313
   25MOL0     H 3331   9.993   9.536   8.779  1.2660 -1.8145  0.6993
   25MOL0     H 3332   9.818   9.562   8.828  2.0120 -0.9785  0.7705
   25MOL0     H 3333   9.755   9.568   8.594  0.3709 -1.8338 -2.9383
   25MOL0     H 3334   9.919   9.526   8.558  0.7962  1.5864  0.8356
   25MOL0     H 3335   9.804   9.669   8.381  0.1822  0.6239 -1.2023
   25MOL0     H 3336   9.773   9.877   8.112 -1.1898  0.7293  0.3464
   25MOL0     H 3337   9.738   9.711   8.174 -1.3133  0.3505 -1.5214
   25MOL0     H 3338   9.608   9.834   8.176 -0.3348  1.3405  2.3039
   25MOL0     H 3339   9.466  10.115   8.145 -1.5865 -0.3812  1.0310
   25MOL0     H 3340   9.304  10.241   8.007  2.4559 -3.2628 -1.3541
   25MOL0     H 3341   9.284  10.651   8.127  1.3999 -1.9602 -0.2819
   25MOL0     H 3342   9.230  10.707   7.962 -3.6477 -1.2764 -1.2563
   25MOL0     H 3343   9.029  10.609   7.988  1.7505  1.3072 -0.8969
   25MOL0     H 3344   9.099  10.480   8.104  1.4308  0.7830  1.7518
   25MOL0     H 3345   8.934  10.646   8.179 -0.3890 -3.8934 -0.1164
   25MOL0     H 3346   9.078  10.753   8.160 -2.4769  0.9805  0.7445
   25MOL0     H 3347   9.212  10.654   8.334  0.3728  1.5313  0.2878
   25MOL0     H 3348   9.054  10.663   8.412  0.4122 -2.0369  2.0787
   25MOL0     H 3349   9.168  10.396   8.303 -1.5490 -1.1288 -0.6357
   25MOL0     H 3350   8.998  10.427   8.319 -0.2537  0.0034  0.7223
   25MOL0     H 3351   9.020  10.500   8.550 -1.2969 -0.9396 -0.7659
   25MOL0     H 3352   9.085  10.335   8.546  2.7829  0.1111  0.2333
   25MOL0     H 3353   9.297  10.535   8.502 -0.9720  1.4483  1.0899
   25MOL0     H 3354   9.296  10.377   8.578  3.5101  2.4201  2.0522
   25MOL0     H 3355   9.193  10.633   8.693  0.3934  0.6022  3.1133
   25MOL0     H 3356   9.345  10.560   8.714  0.4366 -0.8599 -0.6937
   25MOL0     H 3357   9.501  10.613   8.134 -1.0940  0.0642  1.5881
   25MOL0     H 3358   9.660  10.485   8.253  0.1451 -1.5067 -0.3402
   25MOL0     H 3359   9.772  10.146   8.503 -1.8170 -0.2846  1.1739
   25MOL0     H 3360   9.886   9.996   8.657  1.3624 -0.2381 -0.1481
   25MOL0     H 3361   9.727  10.241   9.716  2.2869  1.9619  0.7768
   25MOL0     H 3362   9.884  10.397   9.696  0.2092 -0.8019  0.1413
   25MOL0     H 3363  10.250  10.760   9.638  0.6554  0.2346 -1.0700
   25MOL0     H 3364  10.322  10.957   9.552  2.7558 -0.5682 -0.6362
   25MOL0     H 3365  10.180  11.146   9.173 -0.0703  2.2237  3.4996
   25MOL0     H 3366  10.339  11.213   9.219  1.0154 -0.2872  2.0419
   25MOL0     H 3367  10.370  11.092   9.014 -0.5413  1.8880  1.3104
   25MOL0     H 3368  10.284  10.948   9.066 -1.4817  0.6327  0.9392
   25MOL0     H 3369  10.490  10.868   9.100 -4.6119  0.7709 -2.0818
   25MOL0     H 3370  10.500  10.957   9.260 -3.9074  1.1870  0.8509
   25MOL0     H 3371  10.707  11.018   9.153 -0.3634 -0.7139  1.0551
   25MOL0     H 3372  10.602  11.146   9.147 -2.4722 -0.6729 -0.1219
   25MOL0     H 3373  10.673  11.070   8.739  2.2290 -0.3729  1.0241
   25MOL0     H 3374  10.087  10.910   9.184  3.6511  0.8957 -1.3023
   25MOL0     H 3375  10.019  10.688   9.291  3.5351 -2.5398  0.9232
   26MOL0     O 3376   5.045   7.672   0.806 -0.1748 -1.3348  0.3233
   26MOL0     C 3377   5.126   7.751   0.769  0.5808 -0.0497 -0.7333
   26MOL0     O 3378   5.257   7.720   0.740  0.0125  0.4604 -0.3507
   26MOL0     C 3379   5.333   7.610   0.764  0.4006 -0.9070  1.6788
   26MOL0     C 3380   5.469   7.615   0.751 -0.4018 -0.3219  0.1603
   26MOL0     C 3381   5.559   7.508   0.792  0.1434 -0.2808 -0.1911
   26MOL0     C 3382   5.502   7.383   0.834 -0.8105 -0.1907  0.0278
   26MOL0     O 3383   5.593   7.288   0.865 -0.4878  0.4656 -0.1109
   26MOL0     C 3384   5.540   7.159   0.899 -0.5885  0.6365  0.8547
   26MOL0     C 3385   5.658   7.066   0.940 -0.3712 -0.3072  0.4470
   26MOL0     C 3386   5.785   7.088   0.855  0.0293  0.5063 -0.0828
   26MOL0     C 3387   5.896   6.983   0.900 -0.2997 -0.0894  0.4956
   26MOL0     C 3388   6.001   7.060   0.974 -0.0884  0.6939  0.5464
   26MOL0     C 3389   6.110   7.106   0.881 -1.0681  0.4389  0.2979
   26MOL0     C 3390   6.230   7.176   0.938  0.3183 -0.4007 -0.4214
   26MOL0     C 3391   6.196   7.300   1.016 -0.4703 -0.3814 -0.5932
   26MOL0     N 3392   6.117   7.405   0.945  0.1936  0.1340 -0.6039
   26MOL0     C 3393   6.141   7.438   0.808  0.1616 -0.7102 -1.1145
   26MOL0     C 3394   6.031   7.497   0.767 -0.7959  0.6889  0.5668
   26MOL0     C 3395   6.002   7.554   0.637  0.3533 -0.0679 -0.3099
   26MOL0     C 3396   5.937   7.698   0.638 -0.9106 -0.0194  0.0177
   26MOL0     C 3397   5.917   7.753   0.501  0.6642  0.0018  0.4976
   26MOL0     C 3398   5.830   7.679   0.404  0.3224  1.2507 -0.1265
   26MOL0     O 3399   5.717   7.765   0.377  0.5940  0.0322  0.2346
   26MOL0     C 3400   5.716   7.830   0.263 -0.0137 -0.5959  0.2086
   26MOL0     C 3401   5.825   7.897   0.210 -0.3042  0.5801  0.4531
   26MOL0     C 3402   5.810   7.966   0.084 -0.5260  0.0187 -0.5947
   26MOL0     C 3403   5.944   8.022   0.025  0.5336  1.1237 -0.5312
   26MOL0     C 3404   5.694   7.968   0.011  0.2666 -0.0064  0.8014
   26MOL0     C 3405   5.662   8.033  -0.126 -1.2104  0.3166  0.3057
   26MOL0     O 3406   5.758   8.052  -0.218  0.2408  1.0785  0.0231
   26MOL0     C 3407   5.723   8.093  -0.345  0.0780 -0.3598  1.5211
   26MOL0     C 3408   5.639   8.011  -0.431 -0.3707 -0.2467  0.5499
   26MOL0     C 3409   5.598   8.054  -0.557  0.5545  0.1408 -0.6491
   26MOL0     C 3410   5.638   8.187  -0.594 -0.1290  0.3223  0.9253
   26MOL0     O 3411   5.596   8.255  -0.703 -0.0441  0.2080 -1.2549
   26MOL0     C 3412   5.463   8.209  -0.748  0.0366 -1.1927 -0.1793
   26MOL0     C 3413   5.396   8.323  -0.829 -0.7564  0.6340  1.3694
   26MOL0     C 3414   5.446   8.332  -0.969 -0.8191 -0.1402  0.0120
   26MOL0     C 3415   5.413   8.204  -1.048 -0.9015  0.3877  0.1533
   26MOL0     C 3416   5.400   8.221  -1.198  0.3537 -0.5903  0.5940
   26MOL0     C 3417   5.267   8.295  -1.241 -0.5118 -0.1596  0.4448
   26MOL0     C 3418   5.143   8.258  -1.168  0.1322  0.3138 -0.3305
   26MOL0     C 3419   5.022   8.287  -1.245 -0.5537  0.3745 -0.1070
   26MOL0    Cl 3420   5.009   8.438  -1.355 -0.4786  0.1491  0.4327
   26MOL0     C 3421   5.745   8.260  -0.526  0.2995  0.5615 -0.7561
   26MOL0     C 3422   5.780   8.214  -0.397  0.5872  0.6570 -0.3194
   26MOL0     O 3423   5.545   8.064  -0.144 -0.2452  0.1763 -0.0496
   26MOL0     C 3424   5.588   7.906   0.070  1.0367  0.2147 -1.5591
   26MOL0     C 3425   5.590   7.835   0.197  0.0519 -0.4054 -0.0764
   26MOL0     N 3426   5.940   7.497   0.870  0.5595 -0.0144 -0.4988
   26MOL0     N 3427   5.985   7.441   0.973 -0.0512  0.7335  0.1351
   26MOL0     C 3428   5.360   7.372   0.816  0.5141  0.3063 -0.6452
   26MOL0     C 3429   5.278   7.485   0.795 -0.3054  0.5555 -0.8183
   26MOL0     C 3430   5.079   7.898   0.746  0.3773 -1.1412  0.0791
   26MOL0     C 3431   5.159   8.009   0.760 -0.0586  0.0134  0.4538
   26MOL0     C 3432   5.109   8.143   0.760 -0.1746  1.2967 -0.5192
   26MOL0     C 3433   4.979   8.170   0.723  0.9637 -0.6473 -0.2719
   26MOL0     O 3434   4.941   8.303   0.727  0.7776  0.0806  0.1451
   26MOL0     C 3435   4.825   8.347   0.644 -0.2382 -0.3896 -0.3066
   26MOL0     C 3436   4.859   8.486   0.591  1.0080 -0.9765 -0.0434
   26MOL0     C 3437   4.980   8.480   0.502 -0.2108 -0.3257  0.3084
   26MOL0     C 3438   4.965   8.546   0.361 -0.4745 -0.1430 -0.3905
   26MOL0     C 3439   4.929   8.688   0.371 -0.2114  0.0268  0.5496
   26MOL0     C 3440   4.894   8.803   0.396 -0.6155 -0.1830  0.2146
   26MOL0     C 3441   4.892   8.051   0.710 -0.7579 -0.8032 -0.8698
   26MOL0     C 3442   4.943   7.924   0.731 -0.0897  0.2082 -1.3171
   26MOL0     H 3443   5.509   7.708   0.714 -3.6453  1.5431  0.9101
   26MOL0     H 3444   5.666   7.520   0.775  0.3189 -0.0445  0.9493
   26MOL0     H 3445   5.464   7.151   0.977 -1.7257  0.3308 -0.2508
   26MOL0     H 3446   5.496   7.116   0.808 -0.0897 -1.1212  1.4088
   26MOL0     H 3447   5.686   7.095   1.041  1.9891  0.5693 -0.3949
   26MOL0     H 3448   5.641   6.958   0.945  1.5951 -0.7095 -0.4824
   26MOL0     H 3449   5.762   7.063   0.751  2.8373  0.8115 -0.8832
   26MOL0     H 3450   5.814   7.193   0.855 -0.4471  0.7423 -3.1880
   26MOL0     H 3451   5.844   6.916   0.969  0.2855 -0.1072  0.9253
   26MOL0     H 3452   5.932   6.921   0.817  2.5624  1.5841  0.3515
   26MOL0     H 3453   5.961   7.145   1.029 -1.1981  2.3872 -2.6248
   26MOL0     H 3454   6.058   6.997   1.043 -0.1223  1.3816  1.2108
   26MOL0     H 3455   6.159   7.020   0.833  0.3263  0.4662  1.6002
   26MOL0     H 3456   6.079   7.177   0.804 -0.1832  1.3089  0.7232
   26MOL0     H 3457   6.287   7.101   0.993 -2.0432 -1.3930  0.8161
   26MOL0     H 3458   6.283   7.205   0.847 -0.7605  1.6344 -0.4677
   26MOL0     H 3459   6.292   7.346   1.043 -0.9719  1.2913 -1.5511
   26MOL0     H 3460   6.137   7.259   1.099 -3.3454  0.5625 -2.0638
   26MOL0     H 3461   6.231   7.416   0.751  0.3664 -0.9536 -0.7080
   26MOL0     H 3462   6.096   7.552   0.580  0.0441  1.3632 -0.9145
   26MOL0     H 3463   5.921   7.491   0.602  0.8366  0.5473 -2.7117
   26MOL0     H 3464   6.002   7.769   0.691 -0.9621  2.3085 -2.8120
   26MOL0     H 3465   5.835   7.698   0.678 -0.6250  0.7256  0.7921
   26MOL0     H 3466   6.011   7.777   0.450 -0.2064  1.8630 -0.3445
   26MOL0     H 3467   5.882   7.856   0.519 -1.2136 -0.5468  0.1369
   26MOL0     H 3468   5.803   7.585   0.453  2.3653  0.7083  0.0418
   26MOL0     H 3469   5.887   7.637   0.321  0.9462  0.5286  0.6500
   26MOL0     H 3470   5.925   7.870   0.243  0.7545 -0.8195 -3.4211
   26MOL0     H 3471   5.974   7.967  -0.065 -2.2314  1.4174 -1.7309
   26MOL0     H 3472   5.934   8.130   0.012 -2.9794  0.9327 -0.4680
   26MOL0     H 3473   6.032   8.011   0.088  0.2571 -0.6870 -0.3989
   26MOL0     H 3474   5.600   7.917  -0.392  0.8181 -0.6113  0.9000
   26MOL0     H 3475   5.526   8.002  -0.620 -0.3279 -0.6718  0.9814
   26MOL0     H 3476   5.470   8.114  -0.801  0.5792 -1.7549  0.8740
   26MOL0     H 3477   5.403   8.180  -0.662  0.3622 -1.6817 -0.1135
   26MOL0     H 3478   5.289   8.301  -0.837 -0.3471 -1.0146 -0.1791
   26MOL0     H 3479   5.408   8.424  -0.790 -0.4090  1.7913 -1.4617
   26MOL0     H 3480   5.555   8.338  -0.975 -0.8803  0.9535 -0.1288
   26MOL0     H 3481   5.408   8.422  -1.019  1.2461  1.0882  0.5224
   26MOL0     H 3482   5.493   8.131  -1.033 -0.2104  0.7125 -1.6500
   26MOL0     H 3483   5.319   8.165  -1.009 -0.1327 -1.3665  0.3525
   26MOL0     H 3484   5.381   8.120  -1.237 -1.0472  0.3445 -1.2801
   26MOL0     H 3485   5.490   8.257  -1.248 -1.7679  1.8164 -1.7762
   26MOL0     H 3486   5.282   8.403  -1.236  3.6635 -0.5442 -0.3139
   26MOL0     H 3487   5.248   8.261  -1.344 -3.8367 -1.8440  1.4770
   26MOL0     H 3488   5.124   8.316  -1.077 -1.1264 -1.4021  0.5641
   26MOL0     H 3489   5.144   8.151  -1.145 -2.7124 -0.3330 -2.6486
   26MOL0     H 3490   4.934   8.288  -1.180  0.2063  0.2693  0.9532
   26MOL0     H 3491   5.014   8.200  -1.312 -1.7147 -0.3878  0.9691
   26MOL0     H 3492   5.772   8.343  -0.589 -3.6394  0.7170 -2.5657
   26MOL0     H 3493   5.845   8.261  -0.324 -2.7631  2.9764  1.4069
   26MOL0     H 3494   5.487   7.904   0.030  0.2628  0.4612  0.2785
   26MOL0     H 3495   5.503   7.786   0.239  0.5958 -0.8938  0.5175
   26MOL0     H 3496   5.320   7.273   0.831  0.9670  0.3030  0.7063
   26MOL0     H 3497   5.171   7.470   0.806  0.0094 -0.8765  0.8536
   26MOL0     H 3498   5.266   8.010   0.777  0.2188  3.0707 -0.7416
   26MOL0     H 3499   5.181   8.217   0.794  0.8037  0.3364 -0.4407
   26MOL0     H 3500   4.806   8.270   0.569  1.9795 -0.0327 -1.3127
   26MOL0     H 3501   4.739   8.338   0.712 -1.3601 -0.6308 -1.7113
   26MOL0     H 3502   4.875   8.561   0.669  1.7956 -0.4743 -0.6728
   26MOL0     H 3503   4.777   8.516   0.526  1.8056 -1.2989 -1.2369
   26MOL0     H 3504   5.015   8.377   0.484  2.0913 -0.2117  3.3270
   26MOL0     H 3505   5.051   8.540   0.560 -1.5227 -0.8707  2.5932
   26MOL0     H 3506   4.900   8.477   0.307 -1.3340 -0.3972  0.9183
   26MOL0     H 3507   5.057   8.552   0.302  0.1165 -2.2084  0.2574
   26MOL0     H 3508   4.868   8.904   0.421  0.7162  0.2089  0.0430
   26MOL0     H 3509   4.788   8.058   0.680  0.0118  1.5716 -3.3413
   26MOL0     H 3510   4.871   7.843   0.734  1.2271 -0.9906  1.2068
   27MOL0     O 3511  10.718   6.626   4.753 -0.2376 -0.2394 -0.4365
   27MOL0     C 3512  10.657   6.532   4.790  1.1485  0.8658 -0.7364
   27MOL0     O 3513  10.635   6.501   4.921  0.0427  0.1872  0.1811
   27MOL0     C 3514  10.656   6.602   5.017 -0.4509  0.4066  0.3894
   27MOL0     C 3515  10.778   6.605   5.090  1.1713 -0.2453  0.4175
   27MOL0     C 3516  10.792   6.707   5.193 -1.4403  0.3354  0.2673
   27MOL0     C 3517  10.707   6.812   5.197 -0.2117 -0.3197  0.1839
   27MOL0     O 3518  10.732   6.918   5.279 -0.5338  0.1254 -0.5786
   27MOL0     C 3519  10.829   7.008   5.229  0.2318 -0.1338 -0.9969
   27MOL0     C 3520  10.759   7.146   5.210  0.3748  0.9239  0.5206
   27MOL0     C 3521  10.708   7.198   5.338  0.1165  0.3362 -0.5489
   27MOL0     C 3522  10.685   7.352   5.336 -0.3297  1.3124 -0.1765
   27MOL0     C 3523  10.650   7.403   5.472 -0.1321  0.5153  0.1491
   27MOL0     C 3524  10.527   7.326   5.530  0.8648 -0.2507 -0.8600
   27MOL0     C 3525  10.400   7.319   5.435  0.0348  0.1955 -0.3765
   27MOL0     C 3526  10.276   7.274   5.505 -0.3152  0.5690  1.1564
   27MOL0     N 3527  10.290   7.134   5.557 -0.6447 -0.4098 -0.0776
   27MOL0     C 3528  10.316   7.030   5.469 -0.8827  0.6405 -0.7136
   27MOL0     C 3529  10.318   6.925   5.550  0.2654 -0.6653 -0.2065
   27MOL0     C 3530  10.319   6.772   5.535 -0.3979  0.3743  0.9069
   27MOL0     C 3531  10.385   6.727   5.406 -0.1721  1.0529  0.5961
   27MOL0     C 3532  10.376   6.571   5.403  0.4318 -0.0234  0.0524
   27MOL0     C 3533  10.441   6.504   5.282  0.9127  0.0084  0.4134
   27MOL0     O 3534  10.406   6.363   5.296 -0.6968  0.3325 -0.9119
   27MOL0     C 3535  10.460   6.277   5.210  0.1797  0.3758  0.4035
   27MOL0     C 3536  10.595   6.268   5.170  0.6912  1.4193  0.0848
   27MOL0     C 3537  10.638   6.168   5.074  0.0860 -0.2483 -0.5137
   27MOL0     C 3538  10.783   6.167   5.042  0.3216  0.1624 -0.0595
   27MOL0     C 3539  10.541   6.083   5.012  0.0413 -0.2595  0.0271
   27MOL0     C 3540  10.570   5.998   4.889  0.9245 -0.0502 -1.4076
   27MOL0     O 3541  10.464   5.966   4.819  0.2168 -0.4656  0.1641
   27MOL0     C 3542  10.476   5.911   4.702  0.4431  0.7231 -0.3056
   27MOL0     C 3543  10.577   5.928   4.604  0.2466  0.5433 -0.0055
   27MOL0     C 3544  10.550   5.857   4.483 -0.4271 -0.1753  0.0112
   27MOL0     C 3545  10.445   5.777   4.453  0.7772  0.2383  0.0646
   27MOL0     O 3546  10.408   5.739   4.322 -0.4547 -0.7489  0.4308
   27MOL0     C 3547  10.480   5.635   4.263  0.6416  0.2300 -0.8012
   27MOL0     C 3548  10.398   5.576   4.140 -1.1388 -0.0861 -0.3260
   27MOL0     C 3549  10.434   5.666   4.019  0.9492 -0.2253 -0.0676
   27MOL0     C 3550  10.348   5.631   3.900  0.1882  0.8756 -0.8325
   27MOL0     C 3551  10.372   5.700   3.774 -0.8679  0.4741 -0.5987
   27MOL0     C 3552  10.271   5.660   3.669  0.2724 -0.6918 -0.4796
   27MOL0     C 3553  10.302   5.524   3.602  0.1655 -1.0223  0.2039
   27MOL0     C 3554  10.204   5.466   3.508  0.3560 -0.3386 -0.9622
   27MOL0    Cl 3555  10.264   5.311   3.434  0.0809 -0.0624 -0.2897
   27MOL0     C 3556  10.352   5.755   4.555  0.4970 -0.3991 -0.4305
   27MOL0     C 3557  10.369   5.823   4.675  0.1786 -0.2030 -0.1656
   27MOL0     O 3558  10.684   5.962   4.877  0.6151 -0.5844  0.4555
   27MOL0     C 3559  10.412   6.100   5.054 -0.0214  0.2814  0.3015
   27MOL0     C 3560  10.373   6.188   5.152 -0.6642 -0.2813 -0.1078
   27MOL0     N 3561  10.287   6.955   5.678 -0.2982  0.0864 -0.3076
   27MOL0     N 3562  10.270   7.084   5.684 -0.4244 -0.8201  0.5650
   27MOL0     C 3563  10.593   6.818   5.115 -0.5934  0.9969 -1.0600
   27MOL0     C 3564  10.565   6.711   5.033 -0.5003 -1.0324  0.3869
   27MOL0     C 3565  10.590   6.450   4.692 -0.9607 -0.1959  0.7992
   27MOL0     C 3566  10.590   6.490   4.552  0.1813  0.4898  0.1858
   27MOL0     C 3567  10.545   6.407   4.451  1.5128 -1.1597 -0.4696
   27MOL0     C 3568  10.464   6.291   4.484  0.2366 -0.0266  0.0455
   27MOL0     O 3569  10.401   6.204   4.392 -0.3264 -0.3988  0.0277
   27MOL0     C 3570  10.401   6.254   4.258  1.0987  0.4312  1.1776
   27MOL0     C 3571  10.306   6.166   4.185  0.1521  0.0783 -1.0040
   27MOL0     C 3572  10.319   6.173   4.031  0.5031 -0.6728  0.0297
   27MOL0     C 3573  10.248   6.301   3.981  0.8110  0.6286 -0.0776
   27MOL0     C 3574  10.297   6.359   3.848  0.2982  0.6572 -0.3368
   27MOL0     C 3575  10.330   6.429   3.752 -0.0046  0.3926 -0.0923
   27MOL0     C 3576  10.462   6.263   4.626 -0.1825 -0.6918 -1.1307
   27MOL0     C 3577  10.522   6.336   4.725  0.7496  0.5087 -0.2369
   27MOL0     H 3578  10.850   6.524   5.078 -0.0576 -1.3338  0.2755
   27MOL0     H 3579  10.879   6.718   5.256 -2.9001  4.4289  1.8971
   27MOL0     H 3580  10.909   7.025   5.302  1.9089  2.3806 -3.2049
   27MOL0     H 3581  10.883   6.980   5.138 -2.4875 -3.4347 -1.7783
   27MOL0     H 3582  10.845   7.209   5.182  1.9041 -0.9289  0.8420
   27MOL0     H 3583  10.693   7.149   5.123 -0.5852 -1.5432  1.0852
   27MOL0     H 3584  10.611   7.152   5.361 -0.5096  2.1786  0.6720
   27MOL0     H 3585  10.779   7.164   5.414  0.1584 -3.0250 -1.8932
   27MOL0     H 3586  10.774   7.406   5.304  0.7659 -1.1784 -1.5999
   27MOL0     H 3587  10.605   7.370   5.263 -1.8911 -1.4112  0.6931
   27MOL0     H 3588  10.739   7.388   5.533 -0.3207 -0.8705  0.1139
   27MOL0     H 3589  10.639   7.511   5.466 -0.7805  0.4951  0.8868
   27MOL0     H 3590  10.549   7.223   5.561 -3.1554 -1.0466 -0.0778
   27MOL0     H 3591  10.486   7.376   5.618 -0.9223  1.9642 -2.8070
   27MOL0     H 3592  10.374   7.421   5.406  1.6240  1.3104  1.7401
   27MOL0     H 3593  10.415   7.264   5.342  0.6368  0.8754 -0.6974
   27MOL0     H 3594  10.195   7.262   5.433 -0.4166 -3.4188  1.6592
   27MOL0     H 3595  10.246   7.337   5.589  2.9035  0.9312  2.1643
   27MOL0     H 3596  10.308   7.035   5.361 -1.0917  3.7222 -0.6635
   27MOL0     H 3597  10.364   6.717   5.618  1.8675 -1.1944 -1.2201
   27MOL0     H 3598  10.215   6.741   5.523  0.1467 -1.2341  0.0225
   27MOL0     H 3599  10.491   6.753   5.399  0.7698 -2.6019 -1.4122
   27MOL0     H 3600  10.342   6.772   5.317  1.2892 -0.7580 -1.1216
   27MOL0     H 3601  10.273   6.539   5.388 -0.3687  2.5348 -0.3928
   27MOL0     H 3602  10.419   6.526   5.493  0.9079 -1.5605 -0.9065
   27MOL0     H 3603  10.550   6.517   5.283  1.1184 -1.1086 -1.7891
   27MOL0     H 3604  10.405   6.529   5.182  4.7080  1.3139 -0.8286
   27MOL0     H 3605  10.665   6.332   5.222 -1.0443  3.6554 -0.1698
   27MOL0     H 3606  10.838   6.211   5.127 -1.4349  0.8700  0.7612
   27MOL0     H 3607  10.805   6.060   5.041  0.8711  0.2769 -0.8366
   27MOL0     H 3608  10.804   6.211   4.944  1.6889  0.6219  0.4084
   27MOL0     H 3609  10.668   5.987   4.609  0.4413  0.1487  2.2947
   27MOL0     H 3610  10.613   5.874   4.396  0.5415  1.2180  0.9480
   27MOL0     H 3611  10.579   5.672   4.233  1.1236 -1.6487 -1.6380
   27MOL0     H 3612  10.482   5.560   4.342  1.2249  1.1199  0.0511
   27MOL0     H 3613  10.432   5.476   4.113 -2.3244 -0.8183  0.8119
   27MOL0     H 3614  10.290   5.575   4.158 -0.9137 -2.9113  1.2929
   27MOL0     H 3615  10.539   5.667   3.989  0.7333  0.2234 -0.8213
   27MOL0     H 3616  10.421   5.772   4.042 -1.6630 -0.5414  0.2590
   27MOL0     H 3617  10.359   5.526   3.872  0.4454  1.1336 -1.7611
   27MOL0     H 3618  10.242   5.631   3.926 -0.2413 -0.7112 -2.3900
   27MOL0     H 3619  10.478   5.687   3.750 -0.9955 -0.4278 -0.7156
   27MOL0     H 3620  10.377   5.806   3.801  1.5166  0.7041 -1.7447
   27MOL0     H 3621  10.175   5.665   3.720 -0.8576  0.0192 -2.5666
   27MOL0     H 3622  10.264   5.731   3.586 -3.3585 -1.0057 -0.5739
   27MOL0     H 3623  10.323   5.443   3.672 -2.8370 -0.9956  1.2566
   27MOL0     H 3624  10.393   5.531   3.540 -0.5731 -1.6419 -0.9775
   27MOL0     H 3625  10.173   5.539   3.433 -0.7115 -1.0694 -1.2582
   27MOL0     H 3626  10.109   5.451   3.560 -0.0209 -2.1580 -2.0959
   27MOL0     H 3627  10.262   5.696   4.542  0.8990 -0.9181 -0.9412
   27MOL0     H 3628  10.292   5.804   4.749  0.7139 -0.8357  0.2423
   27MOL0     H 3629  10.334   6.034   5.018  2.4122 -1.4598 -2.1715
   27MOL0     H 3630  10.273   6.192   5.194 -0.5964  1.1019 -0.0035
   27MOL0     H 3631  10.527   6.902   5.135 -0.8148  0.9705 -1.6498
   27MOL0     H 3632  10.466   6.703   4.991 -0.4783 -0.1273  0.1349
   27MOL0     H 3633  10.634   6.587   4.533  3.3896 -0.8319  0.3871
   27MOL0     H 3634  10.555   6.449   4.351  1.4338 -0.3004 -0.1173
   27MOL0     H 3635  10.379   6.360   4.244  0.8821 -0.0010 -2.4931
   27MOL0     H 3636  10.504   6.246   4.222  0.3338 -0.0765 -1.0015
   27MOL0     H 3637  10.203   6.186   4.215  0.2984  1.2852 -1.2509
   27MOL0     H 3638  10.323   6.062   4.214  2.3351  0.5676 -0.3727
   27MOL0     H 3639  10.262   6.088   3.993 -0.0670  0.7008 -2.4201
   27MOL0     H 3640  10.423   6.163   3.998  0.2704 -1.3766 -0.5003
   27MOL0     H 3641  10.254   6.382   4.054 -0.5810 -1.2927  2.3509
   27MOL0     H 3642  10.140   6.284   3.973  0.9134  0.2179 -0.7222
   27MOL0     H 3643  10.364   6.481   3.665  0.3650  1.0318  0.4239
   27MOL0     H 3644  10.411   6.175   4.663 -2.4266 -0.0635 -2.5422
   27MOL0     H 3645  10.516   6.287   4.822  0.5874  0.5709 -0.2157
   28MOL0     O 3646  11.280   2.518   3.872 -0.3177  0.4962 -0.1147
   28MOL0     C 3647  11.330   2.614   3.817 -0.7824 -0.1667  0.1323
   28MOL0     O 3648  11.256   2.716   3.761  0.2175  0.3005 -0.2701
   28MOL0     C 3649  11.124   2.712   3.758  0.3166  0.8312  0.0343
   28MOL0     C 3650  11.053   2.781   3.862  0.1472  0.1798 -0.4026
   28MOL0     C 3651  10.917   2.757   3.873  0.1346 -0.5841  0.0172
   28MOL0     C 3652  10.850   2.677   3.781  0.1742  0.9608  0.6711
   28MOL0     O 3653  10.707   2.686   3.763  0.2041 -0.0159 -0.2660
   28MOL0     C 3654  10.626   2.677   3.875  0.2414 -0.2789 -0.4446
   28MOL0     C 3655  10.478   2.673   3.850  0.2001  0.3553 -0.6209
   28MOL0     C 3656  10.405   2.804   3.831  0.0308 -0.0122 -0.0597
   28MOL0     C 3657  10.402   2.840   3.682  0.4682 -1.3000 -0.7053
   28MOL0     C 3658  10.336   2.987   3.670  0.0286 -0.9089  0.2196
   28MOL0     C 3659  10.413   3.109   3.738  0.1840 -0.2782 -0.3242
   28MOL0     C 3660  10.565   3.121   3.691  0.5954  0.8715 -0.4350
   28MOL0     C 3661  10.587   3.136   3.551 -0.0484 -0.6834 -0.2248
   28MOL0     N 3662  10.723   3.121   3.511 -0.0447  0.7975 -0.2628
   28MOL0     C 3663  10.789   3.002   3.506  0.7638  0.0498 -0.2546
   28MOL0     C 3664  10.905   3.026   3.441 -0.1368  1.5116 -0.0228
   28MOL0     C 3665  10.998   2.921   3.426 -0.6772  0.7063  0.2083
   28MOL0     C 3666  10.973   2.806   3.314 -0.0423  0.5037 -1.4314
   28MOL0     C 3667  10.935   2.874   3.177 -0.1643  0.0661 -0.1741
   28MOL0     C 3668  10.994   2.805   3.056  0.4567  0.5202  0.5306
   28MOL0     O 3669  10.917   2.862   2.945  0.1916  0.4149 -0.6419
   28MOL0     C 3670  10.894   2.768   2.848 -0.0531  0.6808  0.2861
   28MOL0     C 3671  10.996   2.684   2.795  0.4885  0.7688  0.2021
   28MOL0     C 3672  10.969   2.597   2.687 -0.4637 -0.5804 -0.4283
   28MOL0     C 3673  11.081   2.521   2.628 -0.5940 -0.7232  0.5572
   28MOL0     C 3674  10.841   2.584   2.630  0.1506 -0.8743  0.4653
   28MOL0     C 3675  10.799   2.485   2.530 -0.1850  0.2897 -0.6795
   28MOL0     O 3676  10.708   2.520   2.442 -0.3171  0.1174  0.2686
   28MOL0     C 3677  10.684   2.445   2.331  0.6487  0.2386 -0.0919
   28MOL0     C 3678  10.545   2.426   2.290 -0.6880  0.6872 -0.2025
   28MOL0     C 3679  10.516   2.350   2.177 -0.0881 -0.2828 -0.9717
   28MOL0     C 3680  10.618   2.300   2.091  0.0797 -0.5044 -1.2215
   28MOL0     O 3681  10.586   2.227   1.984  0.5999  0.8341 -0.2771
   28MOL0     C 3682  10.634   2.267   1.854 -0.2628 -0.0375  0.1320
   28MOL0     C 3683  10.645   2.420   1.826 -0.1812  0.3627 -1.3893
   28MOL0     C 3684  10.499   2.481   1.836  0.2405  1.1727 -0.0715
   28MOL0     C 3685  10.433   2.467   1.700 -0.0874  0.7812 -0.0335
   28MOL0     C 3686  10.286   2.512   1.704  0.2464  0.9320  0.8979
   28MOL0     C 3687  10.227   2.523   1.562  0.0814  0.0049  0.8795
   28MOL0     C 3688  10.070   2.511   1.557 -0.7290  0.2621 -0.4988
   28MOL0     C 3689  10.004   2.648   1.576  0.4431 -0.6881  0.3098
   28MOL0    Cl 3690  10.023   2.742   1.428  0.2338 -0.0711  0.2873
   28MOL0     C 3691  10.750   2.332   2.131  0.2199  0.7711  0.1129
   28MOL0     C 3692  10.788   2.404   2.248 -0.3229  0.2005 -0.5297
   28MOL0     O 3693  10.850   2.374   2.539  0.1402  0.0007  0.4564
   28MOL0     C 3694  10.742   2.662   2.695  0.0129 -0.3735  0.3498
   28MOL0     C 3695  10.769   2.759   2.797  0.2272 -0.1398  1.0081
   28MOL0     N 3696  10.911   3.156   3.409  0.3656 -0.1135  0.0812
   28MOL0     N 3697  10.800   3.213   3.453 -0.3519 -0.3578 -0.3016
   28MOL0     C 3698  10.923   2.610   3.682 -0.0371 -0.9279 -0.3261
   28MOL0     C 3699  11.057   2.630   3.673  0.1000 -0.5134  0.1885
   28MOL0     C 3700  11.483   2.635   3.828 -0.4102 -0.1355  0.9775
   28MOL0     C 3701  11.536   2.769   3.820  0.1569 -0.2461  0.4409
   28MOL0     C 3702  11.673   2.779   3.829 -0.6425  0.0597 -0.1295
   28MOL0     C 3703  11.756   2.669   3.842  0.0182  0.6181  0.5618
   28MOL0     O 3704  11.891   2.703   3.846 -0.2147  0.2601 -0.3600
   28MOL0     C 3705  11.988   2.597   3.894 -0.5805  0.0820  0.4841
   28MOL0     C 3706  12.126   2.664   3.880 -0.1035  0.2555  0.2756
   28MOL0     C 3707  12.186   2.683   3.728  1.2637  0.5364 -0.6520
   28MOL0     C 3708  12.265   2.812   3.707  0.1934  0.3128 -0.7980
   28MOL0     C 3709  12.396   2.796   3.775 -0.9302  0.1205 -0.7339
   28MOL0     C 3710  12.513   2.781   3.824  1.0249 -0.5034 -0.5405
   28MOL0     C 3711  11.705   2.543   3.860 -0.4713  0.4203  1.4395
   28MOL0     C 3712  11.567   2.524   3.850 -0.0179 -0.3637  0.6098
   28MOL0     H 3713  11.112   2.846   3.926  3.3202 -1.1047 -1.8388
   28MOL0     H 3714  10.871   2.804   3.960  0.8699  3.1999 -1.4431
   28MOL0     H 3715  10.651   2.588   3.933 -0.0861  0.2076  0.4710
   28MOL0     H 3716  10.639   2.766   3.938  0.1264  0.7531 -1.8537
   28MOL0     H 3717  10.457   2.596   3.775  2.6332 -0.7325 -0.3142
   28MOL0     H 3718  10.435   2.650   3.948 -0.0733  3.8305  0.1744
   28MOL0     H 3719  10.300   2.801   3.863 -1.0571  0.7960 -3.1635
   28MOL0     H 3720  10.464   2.876   3.889 -0.4607  0.0142  0.4265
   28MOL0     H 3721  10.502   2.846   3.640  1.5705 -1.0801  1.7836
   28MOL0     H 3722  10.353   2.766   3.619  0.3838 -0.4215 -1.7132
   28MOL0     H 3723  10.328   3.006   3.562 -0.5216 -1.2265  0.2021
   28MOL0     H 3724  10.231   2.978   3.699  0.0068  1.5134  1.1245
   28MOL0     H 3725  10.346   3.192   3.714  0.2545 -0.1658 -0.1300
   28MOL0     H 3726  10.404   3.099   3.846 -1.2325 -0.1145 -0.4119
   28MOL0     H 3727  10.614   3.203   3.746  2.5513 -0.6802  0.2512
   28MOL0     H 3728  10.614   3.030   3.727  1.6095  0.4946 -2.6285
   28MOL0     H 3729  10.561   3.240   3.530 -0.9249 -0.8489  0.0019
   28MOL0     H 3730  10.516   3.071   3.498 -2.3616 -0.1304  2.0296
   28MOL0     H 3731  10.751   2.907   3.539 -3.2889  1.0889 -1.4380
   28MOL0     H 3732  11.092   2.972   3.401  1.2290 -2.8273 -0.5813
   28MOL0     H 3733  11.017   2.866   3.518  0.8667 -1.5778 -1.3514
   28MOL0     H 3734  10.891   2.742   3.349  0.1766  1.2502  0.5748
   28MOL0     H 3735  11.054   2.732   3.314 -1.9404 -1.7493 -3.6319
   28MOL0     H 3736  10.962   2.980   3.173 -3.5393  1.0473  0.2376
   28MOL0     H 3737  10.826   2.867   3.179 -0.1061 -3.3144 -1.4925
   28MOL0     H 3738  10.975   2.699   3.072  2.0725  0.4099  2.0070
   28MOL0     H 3739  11.102   2.809   3.038  0.1735  0.5585 -1.4230
   28MOL0     H 3740  11.098   2.695   2.831  0.2844 -0.2776  1.1617
   28MOL0     H 3741  11.069   2.413   2.641  1.4521 -0.9389  0.9900
   28MOL0     H 3742  11.084   2.554   2.524 -0.9099  1.1366  1.1030
   28MOL0     H 3743  11.174   2.546   2.680 -0.8814 -0.8906  1.1639
   28MOL0     H 3744  10.471   2.474   2.354 -2.8464  0.4028 -2.3316
   28MOL0     H 3745  10.413   2.325   2.154  0.3219 -1.8094 -1.2766
   28MOL0     H 3746  10.734   2.224   1.845 -0.3492 -0.2532  0.1890
   28MOL0     H 3747  10.579   2.217   1.774 -0.0906 -0.5280  0.3221
   28MOL0     H 3748  10.709   2.477   1.894 -1.3876  2.1745 -1.7128
   28MOL0     H 3749  10.681   2.442   1.726  0.4846  2.2983 -0.7659
   28MOL0     H 3750  10.498   2.583   1.877 -0.4440  0.6091  1.3751
   28MOL0     H 3751  10.435   2.428   1.908  1.5996  0.1976  0.4463
   28MOL0     H 3752  10.485   2.529   1.627  1.0796  0.5182  0.5449
   28MOL0     H 3753  10.453   2.365   1.667 -0.3995 -0.1345  2.4173
   28MOL0     H 3754  10.262   2.607   1.751  1.6659  1.0992  1.3063
   28MOL0     H 3755  10.218   2.441   1.752 -0.0113 -1.2644 -2.3377
   28MOL0     H 3756  10.250   2.613   1.503 -2.4465 -0.1993 -0.5797
   28MOL0     H 3757  10.256   2.441   1.495  0.2348  0.5092  0.3188
   28MOL0     H 3758  10.051   2.431   1.629  4.0472 -2.4455 -1.8158
   28MOL0     H 3759  10.041   2.478   1.457  1.2705 -0.3381 -0.9285
   28MOL0     H 3760  10.049   2.704   1.659 -0.1333 -1.3113  1.0544
   28MOL0     H 3761   9.901   2.626   1.608  0.8016 -1.7724  0.7632
   28MOL0     H 3762  10.830   2.299   2.066 -0.3622  0.4179 -0.4410
   28MOL0     H 3763  10.891   2.416   2.280  0.1335 -2.5015 -0.7865
   28MOL0     H 3764  10.646   2.679   2.648  1.3723  2.6345 -1.6439
   28MOL0     H 3765  10.689   2.826   2.825 -1.0216 -1.0273 -0.3158
   28MOL0     H 3766  10.877   2.548   3.606 -0.8603  0.5124 -1.0469
   28MOL0     H 3767  11.114   2.578   3.597  1.2538  1.7392 -0.5908
   28MOL0     H 3768  11.475   2.858   3.805 -2.2374 -1.7894  0.4432
   28MOL0     H 3769  11.715   2.879   3.818 -0.7652 -0.1011 -3.0163
   28MOL0     H 3770  11.975   2.576   4.001  2.7271  1.6595  1.3128
   28MOL0     H 3771  11.996   2.508   3.831 -1.2493  1.3179 -1.4185
   28MOL0     H 3772  12.188   2.602   3.945 -1.6750 -3.5245 -1.5196
   28MOL0     H 3773  12.100   2.760   3.926 -0.9389  0.8022 -1.2583
   28MOL0     H 3774  12.093   2.692   3.672 -0.1886 -0.1894  1.5106
   28MOL0     H 3775  12.242   2.596   3.691 -0.6751 -0.1384 -2.1475
   28MOL0     H 3776  12.205   2.894   3.749 -2.6952 -1.9051 -0.3341
   28MOL0     H 3777  12.260   2.821   3.598  0.5595 -0.5558 -0.8924
   28MOL0     H 3778  12.610   2.774   3.867  1.4693  1.1887 -1.1944
   28MOL0     H 3779  11.772   2.460   3.875  1.8067  1.3168 -2.4134
   28MOL0     H 3780  11.515   2.430   3.858 -2.2863  0.8324  0.8414
   29MOL0     O 3781   8.291   0.466   9.928  0.0646 -0.7627  0.0541
   29MOL0     C 3782   8.272   0.454   9.806 -0.1328  0.1193 -0.3764
   29MOL0     O 3783   8.152   0.437   9.743  0.6763 -0.3110  0.0558
   29MOL0     C 3784   8.033   0.426   9.815 -0.2151 -0.3188 -0.1852
   29MOL0     C 3785   7.919   0.474   9.756 -0.2319  0.4531 -0.7345
   29MOL0     C 3786   7.805   0.495   9.836  0.1930  0.7782 -0.1933
   29MOL0     C 3787   7.797   0.459   9.967  0.7225  0.6996  0.4301
   29MOL0     O 3788   7.679   0.491  10.039 -0.0181 -0.2057 -0.2687
   29MOL0     C 3789   7.691   0.500  10.181 -0.1099  0.6363 -0.0697
   29MOL0     C 3790   7.559   0.573  10.230 -0.2914 -0.6669 -0.1949
   29MOL0     C 3791   7.553   0.596  10.380 -0.0845  0.6668 -0.7460
   29MOL0     C 3792   7.414   0.651  10.424  0.1111  0.1187 -0.2919
   29MOL0     C 3793   7.407   0.661  10.583 -0.0855 -0.0954  1.1864
   29MOL0     C 3794   7.289   0.736  10.643  0.7465  0.3762 -1.3139
   29MOL0     C 3795   7.282   0.721  10.789 -0.2524  0.6625 -0.1293
   29MOL0     C 3796   7.174   0.810  10.865  0.2233  0.5106 -0.4471
   29MOL0     N 3797   7.120   0.768  10.997  0.6427 -0.9073 -0.1338
   29MOL0     C 3798   6.995   0.723  11.014  1.1179  0.0288  0.4235
   29MOL0     C 3799   6.998   0.699  11.148 -0.2017  0.4911  0.0219
   29MOL0     C 3800   6.886   0.632  11.214  0.6683 -0.1697  0.2863
   29MOL0     C 3801   6.817   0.518  11.155  0.4920  0.0347 -0.2060
   29MOL0     C 3802   6.921   0.405  11.143 -0.4240 -0.5047  0.6892
   29MOL0     C 3803   6.846   0.285  11.099 -0.4989  0.5768 -0.1816
   29MOL0     O 3804   6.782   0.292  10.968 -0.2489 -0.3495  0.5801
   29MOL0     C 3805   6.870   0.294  10.857  0.1736 -0.5362  0.1538
   29MOL0     C 3806   6.861   0.395  10.770  1.1022  0.3333  0.0975
   29MOL0     C 3807   6.942   0.395  10.655 -0.7515 -0.0089 -0.1597
   29MOL0     C 3808   6.926   0.511  10.571  0.4141  0.0346  0.3148
   29MOL0     C 3809   7.042   0.299  10.632 -0.4456  0.9800  0.1971
   29MOL0     C 3810   7.142   0.292  10.518  1.3224  0.8473 -0.9231
   29MOL0     O 3811   7.170   0.171  10.469  0.0566  0.2311 -0.6338
   29MOL0     C 3812   7.288   0.145  10.395  0.1830  0.3422 -0.0025
   29MOL0     C 3813   7.403   0.225  10.398  0.9763  0.1146 -0.2533
   29MOL0     C 3814   7.515   0.177  10.332 -0.2819 -0.9240 -0.3198
   29MOL0     C 3815   7.513   0.056  10.266 -0.1310  0.1190  0.0013
   29MOL0     O 3816   7.612  -0.013  10.207 -0.2629 -0.2947  0.5742
   29MOL0     C 3817   7.716   0.069  10.158 -0.7333 -0.1699 -0.1420
   29MOL0     C 3818   7.802   0.005  10.044  1.2424  0.5277  0.6349
   29MOL0     C 3819   7.882  -0.106  10.094 -0.0986  0.0161  0.5695
   29MOL0     C 3820   7.956  -0.177   9.974  0.2001 -0.2708  0.0202
   29MOL0     C 3821   8.087  -0.109   9.934 -0.2729  0.3868 -0.6308
   29MOL0     C 3822   8.143  -0.176   9.806 -0.4604  0.1400  0.2150
   29MOL0     C 3823   8.180  -0.326   9.824  0.4433 -0.0054 -0.4929
   29MOL0     C 3824   8.263  -0.378   9.700  0.6864 -0.6821 -0.1369
   29MOL0    Cl 3825   8.150  -0.449   9.566 -0.6596 -0.2529 -0.1527
   29MOL0     C 3826   7.397  -0.018  10.267  0.9382 -0.7925 -0.7840
   29MOL0     C 3827   7.281   0.024  10.326  0.1509  0.3909 -0.4727
   29MOL0     O 3828   7.179   0.398  10.475  0.5520  0.4607  0.4182
   29MOL0     C 3829   7.051   0.185  10.717 -0.4013 -0.8901 -0.4446
   29MOL0     C 3830   6.963   0.184  10.828 -0.5281 -0.3716 -0.3443
   29MOL0     N 3831   7.106   0.749  11.208  0.3800 -0.1136  0.0575
   29MOL0     N 3832   7.180   0.802  11.116  0.0199 -0.5492 -0.0968
   29MOL0     C 3833   7.905   0.387  10.016 -0.1855  0.3667 -0.3044
   29MOL0     C 3834   8.019   0.371   9.943 -1.0773 -0.5839 -0.0291
   29MOL0     C 3835   8.386   0.462   9.712 -0.2251  0.4540 -0.8015
   29MOL0     C 3836   8.371   0.480   9.578  0.4038 -0.0842  0.4025
   29MOL0     C 3837   8.473   0.496   9.490  0.0945 -1.0813 -0.3436
   29MOL0     C 3838   8.605   0.496   9.533  0.9082  0.8312  0.2001
   29MOL0     O 3839   8.714   0.508   9.450  0.2039  0.1049 -0.2260
   29MOL0     C 3840   8.700   0.519   9.305  0.4060  0.0179 -0.2935
   29MOL0     C 3841   8.658   0.663   9.271 -0.1076 -1.1275 -0.6353
   29MOL0     C 3842   8.755   0.772   9.335 -0.0029  0.7995  0.3062
   29MOL0     C 3843   8.734   0.908   9.282 -0.7245  0.1932 -0.6904
   29MOL0     C 3844   8.799   0.916   9.150  0.4990 -0.0973 -0.0970
   29MOL0     C 3845   8.852   0.920   9.038 -0.3466 -1.0239  0.9467
   29MOL0     C 3846   8.629   0.460   9.667  0.8581  0.4853  0.4396
   29MOL0     C 3847   8.523   0.449   9.756 -0.6074  0.5535 -0.1184
   29MOL0     H 3848   7.929   0.492   9.649  1.6756  0.4351 -0.5817
   29MOL0     H 3849   7.721   0.555   9.802 -0.6644 -0.5768 -0.5247
   29MOL0     H 3850   7.694   0.401  10.227 -0.7288  0.6689  0.0419
   29MOL0     H 3851   7.783   0.548  10.214  0.3939 -0.8071  0.7007
   29MOL0     H 3852   7.563   0.663  10.168  2.8301 -2.4940 -2.9808
   29MOL0     H 3853   7.470   0.513  10.207  0.7032 -2.0688 -0.4714
   29MOL0     H 3854   7.568   0.505  10.438  0.0232  1.3163  0.2804
   29MOL0     H 3855   7.626   0.673  10.409 -2.0766  2.0626  0.9005
   29MOL0     H 3856   7.393   0.749  10.382 -0.0752 -0.3289 -1.2568
   29MOL0     H 3857   7.334   0.581  10.399  0.1771  0.3908 -1.3005
   29MOL0     H 3858   7.402   0.555  10.609  1.7263 -0.5444 -0.0960
   29MOL0     H 3859   7.503   0.698  10.619  0.4368  0.1822 -0.3999
   29MOL0     H 3860   7.303   0.843  10.624  0.8984 -0.0667 -4.0751
   29MOL0     H 3861   7.193   0.710  10.597 -0.6102  1.8778  0.5353
   29MOL0     H 3862   7.263   0.615  10.806 -2.3355  1.1869  1.1487
   29MOL0     H 3863   7.382   0.747  10.826  0.9871  0.1121 -2.7554
   29MOL0     H 3864   7.084   0.825  10.806 -1.2581  3.8566  2.2709
   29MOL0     H 3865   7.212   0.912  10.881 -0.0259  0.3275  1.6816
   29MOL0     H 3866   6.915   0.699  10.945  0.2643  2.1100  0.6357
   29MOL0     H 3867   6.939   0.594  11.301  2.3502  2.8516  0.7464
   29MOL0     H 3868   6.818   0.711  11.246  0.2802 -1.0435  1.6773
   29MOL0     H 3869   6.784   0.539  11.053  1.3147 -1.0214 -0.7069
   29MOL0     H 3870   6.731   0.499  11.221 -0.9954  0.6221 -1.8939
   29MOL0     H 3871   6.958   0.392  11.245 -0.9304 -0.0823  0.9312
   29MOL0     H 3872   6.995   0.417  11.064 -1.2337 -3.3903 -0.6438
   29MOL0     H 3873   6.766   0.280  11.173  0.4365 -0.0639  0.8081
   29MOL0     H 3874   6.912   0.198  11.104  1.7653  2.2945  1.9981
   29MOL0     H 3875   6.782   0.466  10.792  0.1627 -0.5532 -0.3403
   29MOL0     H 3876   6.821   0.543  10.573  1.1135  2.5668  2.4465
   29MOL0     H 3877   6.986   0.592  10.614  1.7681 -1.4808  1.3978
   29MOL0     H 3878   6.951   0.499  10.465 -2.2106  0.9345 -0.4786
   29MOL0     H 3879   7.413   0.316  10.456  2.5254  0.1608 -0.5669
   29MOL0     H 3880   7.611   0.224  10.354 -0.9282  1.0630 -1.4320
   29MOL0     H 3881   7.675   0.159  10.111 -0.2316 -0.7043 -1.6667
   29MOL0     H 3882   7.776   0.108  10.240  0.3804 -0.2562 -0.8949
   29MOL0     H 3883   7.733  -0.032   9.968  0.8483  2.2284  0.1056
   29MOL0     H 3884   7.858   0.087   9.996  1.4119 -0.3648 -0.7675
   29MOL0     H 3885   7.822  -0.187  10.136 -1.6555  1.1017  0.5098
   29MOL0     H 3886   7.935  -0.070  10.183 -1.3900  1.3425  0.8299
   29MOL0     H 3887   7.976  -0.280  10.005  0.2612  0.8728  4.5119
   29MOL0     H 3888   7.889  -0.181   9.889  1.1392  0.0242 -0.7558
   29MOL0     H 3889   8.160  -0.108  10.016 -2.3762  1.9681  1.3863
   29MOL0     H 3890   8.065  -0.005   9.910 -1.2897  0.4021  0.2642
   29MOL0     H 3891   8.061  -0.173   9.733 -0.1515  0.2624 -0.1284
   29MOL0     H 3892   8.226  -0.120   9.763 -0.0875 -1.3551 -1.1277
   29MOL0     H 3893   8.093  -0.391   9.816  1.2053 -0.8591 -5.3214
   29MOL0     H 3894   8.233  -0.356   9.915  0.1467 -1.2544 -0.7135
   29MOL0     H 3895   8.334  -0.451   9.741 -0.5764 -0.2588  3.0985
   29MOL0     H 3896   8.325  -0.299   9.656  1.9816 -2.0883 -0.9776
   29MOL0     H 3897   7.398  -0.105  10.203 -3.5353 -1.1368 -0.6740
   29MOL0     H 3898   7.189  -0.031  10.314  0.2734  0.0989 -0.0923
   29MOL0     H 3899   7.114   0.099  10.697  3.0501  1.4294 -0.4710
   29MOL0     H 3900   6.971   0.095  10.890  0.1018 -0.1308 -0.0750
   29MOL0     H 3901   7.899   0.333  10.110 -0.7596 -0.0601 -0.5802
   29MOL0     H 3902   8.099   0.309   9.984 -1.7196 -2.3971 -1.3674
   29MOL0     H 3903   8.273   0.489   9.533  0.8218  0.0428 -0.5071
   29MOL0     H 3904   8.445   0.525   9.389 -4.5231  1.4698  1.4031
   29MOL0     H 3905   8.798   0.488   9.266  0.4117 -1.1980  0.6296
   29MOL0     H 3906   8.627   0.451   9.260 -2.2303  2.2512  0.3893
   29MOL0     H 3907   8.551   0.671   9.293 -0.3317 -0.5925 -1.8456
   29MOL0     H 3908   8.660   0.666   9.162  0.5397 -0.5072 -0.6081
   29MOL0     H 3909   8.860   0.744   9.324 -0.3475  0.1590 -1.6453
   29MOL0     H 3910   8.726   0.783   9.440  2.4055 -0.4297  1.1520
   29MOL0     H 3911   8.784   0.985   9.341 -0.3912 -0.2492 -0.4007
   29MOL0     H 3912   8.627   0.934   9.277 -1.3630 -2.2392 -0.8824
   29MOL0     H 3913   8.885   0.925   8.936  1.0063 -1.5849  1.3385
   29MOL0     H 3914   8.730   0.446   9.705  0.1175 -1.5008  1.8374
   29MOL0     H 3915   8.542   0.424   9.860 -4.0771  1.4789  0.8344
   30MOL0     O 3916  10.122  11.127  10.694  0.0879 -0.3037  0.3818
   30MOL0     C 3917  10.238  11.161  10.725 -0.2375  0.3145  0.6796
   30MOL0     O 3918  10.281  11.291  10.746 -0.4927  0.4885  0.2186
   30MOL0     C 3919  10.179  11.376  10.793 -0.0445  1.3298  0.5294
   30MOL0     C 3920  10.188  11.503  10.740 -0.2276  0.0939 -0.0499
   30MOL0     C 3921  10.090  11.605  10.778  0.6101 -0.3565  0.4552
   30MOL0     C 3922   9.986  11.575  10.866 -0.1484  0.2216 -0.2710
   30MOL0     O 3923   9.879  11.653  10.891 -0.5063  0.2665  0.1184
   30MOL0     C 3924   9.878  11.788  10.863  0.6538  0.0664 -0.2176
   30MOL0     C 3925   9.819  11.803  10.720  0.2602  0.3563  0.3707
   30MOL0     C 3926   9.665  11.779  10.710 -0.3394 -0.2168 -0.3525
   30MOL0     C 3927   9.619  11.848  10.576 -0.0707 -1.1343  0.2182
   30MOL0     C 3928   9.468  11.876  10.578 -0.3791 -0.2489 -1.1096
   30MOL0     C 3929   9.420  11.907  10.442  0.8659  0.0961  0.2453
   30MOL0     C 3930   9.289  11.832  10.419 -0.5811  0.8500  0.7723
   30MOL0     C 3931   9.237  11.845  10.276  0.2444  0.0330  0.0330
   30MOL0     N 3932   9.197  11.976  10.240  0.6941 -0.0593 -0.1240
   30MOL0     C 3933   9.067  12.026  10.232 -0.0409 -0.6684  0.5068
   30MOL0     C 3934   9.078  12.156  10.191 -0.3104  0.0390 -0.1789
   30MOL0     C 3935   8.967  12.262  10.175 -0.7499 -0.4380 -0.6702
   30MOL0     C 3936   8.958  12.353  10.310 -0.4451 -0.7338  1.3067
   30MOL0     C 3937   8.956  12.254  10.430  0.0547  0.5037  0.3133
   30MOL0     C 3938   8.938  12.337  10.551  0.7343  0.0280 -0.8792
   30MOL0     O 3939   8.949  12.245  10.660  0.7514  0.7770  0.2250
   30MOL0     C 3940   8.965  12.302  10.782  0.1037  0.2952 -0.4501
   30MOL0     C 3941   8.929  12.214  10.891 -0.7014  0.5505 -0.7258
   30MOL0     C 3942   8.935  12.246  11.031 -0.8053 -0.1635  0.7163
   30MOL0     C 3943   8.882  12.142  11.131  0.6702  0.8909  0.3689
   30MOL0     C 3944   8.997  12.371  11.063 -0.4085 -0.7218  0.2375
   30MOL0     C 3945   9.011  12.429  11.201  1.2208  0.7834 -0.4678
   30MOL0     O 3946   9.001  12.353  11.312 -0.1575 -0.3029 -0.3213
   30MOL0     C 3947   9.011  12.416  11.426 -0.0417  0.8284 -0.8944
   30MOL0     C 3948   9.141  12.400  11.489  0.9908 -0.0729 -0.0738
   30MOL0     C 3949   9.165  12.488  11.601  0.0495 -0.6681  0.0540
   30MOL0     C 3950   9.073  12.567  11.662  0.1397  1.3379  0.9398
   30MOL0     O 3951   9.100  12.644  11.769 -0.4650 -0.0241 -0.5706
   30MOL0     C 3952   9.220  12.627  11.846  0.4501 -0.3891  0.9349
   30MOL0     C 3953   9.224  12.696  11.972  0.5296 -0.1185  0.6249
   30MOL0     C 3954   9.127  12.608  12.068  0.6744 -0.0997  0.6060
   30MOL0     C 3955   9.101  12.695  12.191 -0.0826  0.0231 -0.8267
   30MOL0     C 3956   9.018  12.618  12.293 -0.1857 -0.1130 -0.0584
   30MOL0     C 3957   9.101  12.565  12.410 -0.1376 -0.2403  0.2286
   30MOL0     C 3958   9.203  12.445  12.375  0.7904 -0.5093 -0.2015
   30MOL0     C 3959   9.128  12.319  12.338 -0.2749 -0.7381  0.8644
   30MOL0    Cl 3960   9.257  12.207  12.288  0.4737  0.0693  0.4446
   30MOL0     C 3961   8.949  12.566  11.599 -0.5588 -0.7034  1.0039
   30MOL0     C 3962   8.911  12.482  11.492 -0.7851 -0.8151  0.1111
   30MOL0     O 3963   9.004  12.550  11.205 -0.3047 -0.0888 -0.5464
   30MOL0     C 3964   9.018  12.465  10.959 -0.6120  0.7558  0.1072
   30MOL0     C 3965   9.013  12.432  10.822  0.8353  0.2229  0.0746
   30MOL0     N 3966   9.215  12.180  10.176 -0.3980  0.2144 -0.1181
   30MOL0     N 3967   9.284  12.073  10.200  0.1720  0.4592 -0.0481
   30MOL0     C 3968   9.979  11.444  10.923 -0.0792  0.6152  0.3212
   30MOL0     C 3969  10.076  11.346  10.888  0.3220 -0.0909  1.3294
   30MOL0     C 3970  10.335  11.052  10.754 -0.8278  0.1141 -0.1375
   30MOL0     C 3971  10.342  10.930  10.685  0.0573 -0.0471 -0.7698
   30MOL0     C 3972  10.437  10.829  10.716 -0.7890  0.8611 -0.2702
   30MOL0     C 3973  10.519  10.843  10.833  0.0532  0.1232  0.2712
   30MOL0     O 3974  10.613  10.752  10.873 -0.2378  0.9436 -0.0034
   30MOL0     C 3975  10.610  10.619  10.820 -0.0450 -0.4419  0.6689
   30MOL0     C 3976  10.716  10.536  10.889 -0.9884  0.2722  0.2736
   30MOL0     C 3977  10.860  10.581  10.843  0.0391 -0.3731  0.6143
   30MOL0     C 3978  10.889  10.561  10.692  0.5763  0.1865 -0.2091
   30MOL0     C 3979  10.856  10.419  10.660  0.1225  0.9994 -1.2612
   30MOL0     C 3980  10.853  10.297  10.631  0.7307 -0.5765 -0.3942
   30MOL0     C 3981  10.521  10.971  10.893 -0.2506 -0.3342 -0.7239
   30MOL0     C 3982  10.438  11.072  10.851 -1.0067 -0.2503  0.2506
   30MOL0     H 3983  10.259  11.528  10.662  0.2567  1.0079  0.6679
   30MOL0     H 3984  10.112  11.699  10.729  4.7722 -1.0877  0.5135
   30MOL0     H 3985   9.818  11.846  10.934  1.2707 -0.7092  0.9744
   30MOL0     H 3986   9.981  11.826  10.870  0.9487 -0.3360 -2.0092
   30MOL0     H 3987   9.842  11.908  10.696  3.2580 -0.1622  0.6368
   30MOL0     H 3988   9.865  11.737  10.647 -1.2094 -0.0255 -0.2356
   30MOL0     H 3989   9.639  11.674  10.727  1.4807 -0.6493 -0.0534
   30MOL0     H 3990   9.619  11.842  10.787  0.9202  0.2648  0.0260
   30MOL0     H 3991   9.678  11.938  10.557 -1.1845 -0.1641  1.1371
   30MOL0     H 3992   9.644  11.778  10.496  3.1295 -0.2556  0.3328
   30MOL0     H 3993   9.421  11.792  10.628 -1.1217  0.5499 -0.4276
   30MOL0     H 3994   9.435  11.958  10.643  0.2469 -2.8040  2.6739
   30MOL0     H 3995   9.409  12.013  10.421  0.7834  0.3712  1.5860
   30MOL0     H 3996   9.492  11.862  10.373  0.6056 -1.2779  0.8326
   30MOL0     H 3997   9.316  11.726  10.426  3.2595  1.6644  0.2322
   30MOL0     H 3998   9.217  11.855  10.498 -1.2072 -2.2733  1.2445
   30MOL0     H 3999   9.145  11.785  10.273 -0.0619  0.4262 -4.1040
   30MOL0     H 4000   9.301  11.808  10.196 -1.1423  0.1734 -1.1835
   30MOL0     H 4001   8.974  11.974  10.252 -2.1425  2.7159  0.2524
   30MOL0     H 4002   9.005  12.333  10.101  0.0866 -0.5488 -0.3663
   30MOL0     H 4003   8.883  12.203  10.138 -0.3317 -1.0136 -0.7106
   30MOL0     H 4004   8.865  12.406  10.287 -0.5490 -2.9484 -5.6032
   30MOL0     H 4005   9.036  12.428  10.302 -2.2641  1.2661  1.2636
   30MOL0     H 4006   9.053  12.203  10.438 -0.7925 -1.2628 -0.2353
   30MOL0     H 4007   8.882  12.174  10.418  2.3795 -1.5369 -1.4869
   30MOL0     H 4008   8.839  12.384  10.554  0.8706  0.4171 -1.8968
   30MOL0     H 4009   9.017  12.412  10.545  1.4829 -0.5672  0.8687
   30MOL0     H 4010   8.895  12.116  10.858 -1.2532  1.6222 -3.5911
   30MOL0     H 4011   8.956  12.121  11.208 -2.3808 -3.4505  2.5302
   30MOL0     H 4012   8.792  12.188  11.172  2.4369  2.7331  2.3746
   30MOL0     H 4013   8.861  12.044  11.088  1.8238  0.9820 -0.4436
   30MOL0     H 4014   9.218  12.337  11.444  1.1765 -0.7504  1.1487
   30MOL0     H 4015   9.267  12.489  11.638  0.6075  1.0573 -1.3665
   30MOL0     H 4016   9.234  12.523  11.876 -0.9371 -0.7960  0.2630
   30MOL0     H 4017   9.308  12.654  11.787 -0.2698  1.7976  0.7379
   30MOL0     H 4018   9.326  12.688  12.011  1.4916  2.7373 -1.0083
   30MOL0     H 4019   9.190  12.800  11.967 -2.2579 -0.9562  0.5705
   30MOL0     H 4020   9.189  12.519  12.086  3.3345  1.7040  0.9840
   30MOL0     H 4021   9.032  12.585  12.019  0.0907  0.9030  1.2336
   30MOL0     H 4022   9.201  12.732  12.218 -0.7339  1.5234 -0.3997
   30MOL0     H 4023   9.049  12.790  12.181  1.2070  0.6418 -1.9760
   30MOL0     H 4024   8.954  12.546  12.241 -0.4458  0.1011 -0.0409
   30MOL0     H 4025   8.951  12.692  12.337 -1.7132 -0.1697 -2.1117
   30MOL0     H 4026   9.157  12.643  12.462  0.5649 -0.1077 -0.6908
   30MOL0     H 4027   9.027  12.531  12.482  0.2712  1.9567  1.7934
   30MOL0     H 4028   9.255  12.430  12.470 -1.2268  1.3731  1.3148
   30MOL0     H 4029   9.272  12.480  12.298  1.0137 -0.0695  0.1916
   30MOL0     H 4030   9.061  12.326  12.252 -1.9453 -0.9987  2.0837
   30MOL0     H 4031   9.066  12.288  12.423  0.6137 -0.1071  1.7654
   30MOL0     H 4032   8.875  12.637  11.633 -0.8861  0.0127 -1.0350
   30MOL0     H 4033   8.816  12.482  11.440  0.1437  0.4707 -1.7198
   30MOL0     H 4034   9.069  12.560  10.966 -1.5529  1.9051 -4.8092
   30MOL0     H 4035   9.033  12.517  10.758  1.0400  1.9247  2.2812
   30MOL0     H 4036   9.902  11.411  10.993 -1.5308  2.9689 -0.0812
   30MOL0     H 4037  10.063  11.243  10.917  1.3256 -1.1434 -1.5474
   30MOL0     H 4038  10.277  10.919  10.598 -2.5131 -1.8159  1.2177
   30MOL0     H 4039  10.445  10.738  10.658 -0.9198  0.1426  0.8125
   30MOL0     H 4040  10.508  10.586  10.843 -1.6709  0.9486 -3.5464
   30MOL0     H 4041  10.608  10.620  10.711 -0.8202 -0.6469  0.6794
   30MOL0     H 4042  10.697  10.429  10.872 -0.9762  0.4020 -0.5848
   30MOL0     H 4043  10.711  10.561  10.996  1.0615 -2.3477  1.0848
   30MOL0     H 4044  10.933  10.516  10.892  1.5171 -0.5932 -1.7320
   30MOL0     H 4045  10.873  10.685  10.874 -3.6830 -0.0839  1.7403
   30MOL0     H 4046  10.998  10.567  10.684  0.6504  0.4175  0.8411
   30MOL0     H 4047  10.843  10.631  10.621 -0.2929  0.3092  0.4647
   30MOL0     H 4048  10.830  10.195  10.607 -1.1110 -0.5452  1.0300
   30MOL0     H 4049  10.591  10.984  10.975 -0.6288  0.7982 -0.5611
   30MOL0     H 4050  10.427  11.162  10.910  0.8401 -1.7529  3.1320
   31MOL0     O 4051   6.357   7.835  10.410 -0.2901  0.5306  0.0609
   31MOL0     C 4052   6.278   7.766  10.477  0.1570  0.1633 -0.0948
   31MOL0     O 4053   6.302   7.737  10.601  0.3558  0.6719 -0.6827
   31MOL0     C 4054   6.417   7.765  10.668 -0.4998  0.9333  0.4599
   31MOL0     C 4055   6.463   7.890  10.677  0.1295 -0.0864  0.7102
   31MOL0     C 4056   6.587   7.918  10.750 -0.4465 -0.0222  0.1200
   31MOL0     C 4057   6.658   7.813  10.817 -0.2731 -0.5960  0.7774
   31MOL0     O 4058   6.769   7.843  10.896 -0.5858 -0.1455  0.6815
   31MOL0     C 4059   6.766   7.780  11.032  1.1104  0.0330 -0.2714
   31MOL0     C 4060   6.880   7.683  11.062 -0.1424 -1.2658  0.1481
   31MOL0     C 4061   6.898   7.645  11.206  0.6828 -0.3456 -0.1775
   31MOL0     C 4062   7.017   7.546  11.210  0.1652  0.5588 -0.0065
   31MOL0     C 4063   7.069   7.518  11.347 -0.2147 -0.0943  0.8976
   31MOL0     C 4064   7.166   7.405  11.319 -0.3510  0.0220  0.3416
   31MOL0     C 4065   7.245   7.361  11.440 -0.3867  0.2719 -0.1997
   31MOL0     C 4066   7.196   7.244  11.528  0.4565  0.0902  0.2659
   31MOL0     N 4067   7.312   7.155  11.570 -0.3236  0.3495  0.5145
   31MOL0     C 4068   7.437   7.203  11.588  1.1793  0.2732 -0.1402
   31MOL0     C 4069   7.509   7.103  11.637  1.1348 -0.1000  0.2078
   31MOL0     C 4070   7.648   7.111  11.689  0.7878 -0.0308 -0.4018
   31MOL0     C 4071   7.720   6.984  11.640  0.5055  0.2026 -0.2385
   31MOL0     C 4072   7.730   6.874  11.750  0.1459 -0.5746  1.1350
   31MOL0     C 4073   7.796   6.751  11.684 -0.3899  0.1501 -0.6696
   31MOL0     O 4074   7.772   6.628  11.752  1.0461 -0.0425  0.5298
   31MOL0     C 4075   7.816   6.622  11.881  0.1249  0.1815 -0.9159
   31MOL0     C 4076   7.949   6.650  11.909 -0.2894  0.0790  0.2380
   31MOL0     C 4077   7.994   6.657  12.040 -0.9282 -0.7803 -0.6296
   31MOL0     C 4078   8.137   6.680  12.066  0.6791 -0.3304 -0.0177
   31MOL0     C 4079   7.905   6.620  12.149  0.6277 -0.2736 -1.2167
   31MOL0     C 4080   7.951   6.577  12.295  0.9852  0.1029  0.3877
   31MOL0     O 4081   7.869   6.498  12.372  0.4374  0.8613  0.2474
   31MOL0     C 4082   7.908   6.468  12.499 -0.1020 -0.4389  0.6039
   31MOL0     C 4083   8.010   6.374  12.532 -1.0568 -0.3839 -0.0836
   31MOL0     C 4084   8.046   6.354  12.666  0.3130  0.5743  0.2358
   31MOL0     C 4085   7.968   6.420  12.771 -0.0301  0.3676 -0.1618
   31MOL0     O 4086   7.962   6.385  12.903  0.2598  0.6602 -0.5898
   31MOL0     C 4087   8.042   6.274  12.948  0.0769  0.6257  0.1569
   31MOL0     C 4088   8.068   6.278  13.100 -0.5038  0.1031 -0.5254
   31MOL0     C 4089   8.122   6.141  13.145 -0.8413 -0.2458  0.8008
   31MOL0     C 4090   8.012   6.032  13.169  0.1646  0.6942 -0.1648
   31MOL0     C 4091   8.050   5.944  13.294  0.3700  0.3872  0.0301
   31MOL0     C 4092   7.929   5.883  13.374 -0.2763 -0.4652 -0.3344
   31MOL0     C 4093   7.953   5.755  13.467 -0.5789  0.7435  0.2531
   31MOL0     C 4094   7.918   5.621  13.401 -0.3929  0.5418 -0.4918
   31MOL0    Cl 4095   7.894   5.518  13.542 -0.3101 -0.1472  0.2038
   31MOL0     C 4096   7.878   6.518  12.740 -0.0540 -0.3975  0.0164
   31MOL0     C 4097   7.846   6.544  12.601 -0.1810  0.4659 -0.2075
   31MOL0     O 4098   8.050   6.627  12.340 -0.5780 -0.4592  0.1202
   31MOL0     C 4099   7.771   6.584  12.119 -0.1732 -0.3857  0.5971
   31MOL0     C 4100   7.729   6.609  11.987 -0.6459 -0.8451 -0.1334
   31MOL0     N 4101   7.425   6.987  11.650  0.5761  0.1208 -1.0794
   31MOL0     N 4102   7.310   7.022  11.612  0.2994  0.4458 -0.3151
   31MOL0     C 4103   6.608   7.685  10.803  0.3962 -0.2018  0.0778
   31MOL0     C 4104   6.488   7.669  10.730  0.9087 -0.8606  0.1868
   31MOL0     C 4105   6.139   7.746  10.427  0.3997 -0.0855 -0.5637
   31MOL0     C 4106   6.055   7.655  10.487 -0.2650  0.6034  0.0504
   31MOL0     C 4107   5.927   7.624  10.441 -0.3634  0.1856  0.2260
   31MOL0     C 4108   5.877   7.685  10.334 -0.6370 -0.0314 -0.1511
   31MOL0     O 4109   5.753   7.663  10.276 -0.5391  0.7483 -0.0325
   31MOL0     C 4110   5.715   7.530  10.269 -0.1555  0.6120  0.4466
   31MOL0     C 4111   5.635   7.512  10.141  0.6699  0.9926  0.7917
   31MOL0     C 4112   5.629   7.371  10.093  0.6852  1.4009 -0.0482
   31MOL0     C 4113   5.546   7.347   9.969  0.0214 -0.4232  0.1254
   31MOL0     C 4114   5.542   7.205   9.938 -0.5030 -0.7677  0.3804
   31MOL0     C 4115   5.537   7.090   9.910  0.3151  1.0344 -0.1337
   31MOL0     C 4116   5.957   7.787  10.280  0.5708 -0.4681 -0.5111
   31MOL0     C 4117   6.083   7.825  10.324 -0.4110 -0.7106 -0.6087
   31MOL0     H 4118   6.426   7.975  10.621  0.4686  1.1780  2.2958
   31MOL0     H 4119   6.625   8.018  10.766 -0.3360 -0.3958  2.4551
   31MOL0     H 4120   6.760   7.857  11.109  1.0163 -0.6550  0.4308
   31MOL0     H 4121   6.674   7.725  11.054  2.0239 -0.1453  3.8276
   31MOL0     H 4122   6.863   7.592  11.005  2.7389 -2.1108  0.4629
   31MOL0     H 4123   6.969   7.738  11.031 -0.0735  1.7594  4.7058
   31MOL0     H 4124   6.917   7.732  11.270 -0.8543  0.6985 -1.0816
   31MOL0     H 4125   6.808   7.607  11.254 -0.1261 -0.2289 -1.5703
   31MOL0     H 4126   6.978   7.451  11.173  4.5459 -1.5924  0.1735
   31MOL0     H 4127   7.098   7.577  11.144  0.2718  0.3645  0.0304
   31MOL0     H 4128   7.102   7.606  11.403  0.1408 -0.6223  1.5322
   31MOL0     H 4129   6.989   7.475  11.409  0.6346  0.6098  2.5196
   31MOL0     H 4130   7.114   7.318  11.279  1.1677  0.0060 -1.7004
   31MOL0     H 4131   7.245   7.440  11.253  2.3271 -1.0531  2.7444
   31MOL0     H 4132   7.333   7.325  11.387  0.1466  1.8715 -0.4735
   31MOL0     H 4133   7.271   7.450  11.499 -1.1233 -0.0469  0.6365
   31MOL0     H 4134   7.121   7.190  11.468 -1.9526  1.7223  1.6295
   31MOL0     H 4135   7.143   7.293  11.611 -0.3356  0.0824 -0.2184
   31MOL0     H 4136   7.473   7.305  11.580  2.6442  0.0080  2.0888
   31MOL0     H 4137   7.700   7.199  11.649 -0.6985 -0.7104 -4.2269
   31MOL0     H 4138   7.641   7.138  11.795 -3.6194 -3.3335  0.4501
   31MOL0     H 4139   7.816   7.011  11.596 -1.1718  1.2800 -3.6555
   31MOL0     H 4140   7.671   6.940  11.553 -1.7595  0.5741  0.7747
   31MOL0     H 4141   7.632   6.842  11.786  0.6714 -3.8486 -0.0301
   31MOL0     H 4142   7.796   6.906  11.831  1.5864 -1.3262  0.3059
   31MOL0     H 4143   7.905   6.756  11.674 -0.4372  0.2972 -1.1487
   31MOL0     H 4144   7.744   6.737  11.589 -0.4174 -1.3158 -0.4647
   31MOL0     H 4145   8.019   6.666  11.827 -0.3629 -2.8079 -0.4842
   31MOL0     H 4146   8.156   6.762  12.135 -1.4666 -1.4554  2.0202
   31MOL0     H 4147   8.173   6.589  12.115  1.4069  1.5275  3.1871
   31MOL0     H 4148   8.193   6.707  11.976 -0.2248  0.5593 -0.3299
   31MOL0     H 4149   8.061   6.319  12.453  1.2192  0.4146  0.7612
   31MOL0     H 4150   8.121   6.277  12.676  1.3683  1.5593  0.0551
   31MOL0     H 4151   7.981   6.184  12.929  3.0980 -1.6717  0.6093
   31MOL0     H 4152   8.139   6.264  12.901 -0.5133 -0.0575 -0.9518
   31MOL0     H 4153   8.155   6.344  13.099  0.3613 -0.8983 -3.2503
   31MOL0     H 4154   7.987   6.315  13.163 -0.2991 -1.3306  0.6355
   31MOL0     H 4155   8.180   6.156  13.236  0.1744 -1.3009  0.3638
   31MOL0     H 4156   8.185   6.104  13.063 -1.7382  1.7579 -0.8867
   31MOL0     H 4157   7.916   6.074  13.199 -0.4957 -1.7644  1.5434
   31MOL0     H 4158   7.985   5.973  13.081 -1.2142  0.3269  0.4813
   31MOL0     H 4159   8.087   6.004  13.377 -3.8220  1.8545  1.0502
   31MOL0     H 4160   8.115   5.860  13.265 -2.7343 -1.7301 -1.3365
   31MOL0     H 4161   7.875   5.957  13.435 -1.6079 -1.7652  0.1403
   31MOL0     H 4162   7.870   5.847  13.289 -1.2003 -0.4433  0.2757
   31MOL0     H 4163   7.907   5.776  13.564  1.0553 -0.8494  1.4503
   31MOL0     H 4164   8.057   5.755  13.500  0.0310 -5.5192 -0.4572
   31MOL0     H 4165   7.998   5.581  13.339  0.6267 -3.1905  2.8177
   31MOL0     H 4166   7.822   5.628  13.350 -1.7263  0.2164  1.8032
   31MOL0     H 4167   7.839   6.573  12.825  1.5671 -2.8952  2.5552
   31MOL0     H 4168   7.766   6.612  12.575 -0.9514  0.4363  1.8630
   31MOL0     H 4169   7.692   6.558  12.188  0.9949 -3.4531  0.9392
   31MOL0     H 4170   7.622   6.618  11.977 -0.4905  0.6079 -0.6501
   31MOL0     H 4171   6.658   7.609  10.863  2.9770  1.8938  0.7436
   31MOL0     H 4172   6.433   7.575  10.734 -2.3997  0.8839 -0.8496
   31MOL0     H 4173   6.078   7.575  10.557 -3.9665 -1.1363 -0.4794
   31MOL0     H 4174   5.876   7.553  10.506  2.3813  0.5558  3.0285
   31MOL0     H 4175   5.798   7.460  10.274 -1.2231 -0.6115  1.9451
   31MOL0     H 4176   5.655   7.507  10.357  0.7567 -0.3089  0.8455
   31MOL0     H 4177   5.671   7.576  10.060  2.9517 -0.5509  0.5082
   31MOL0     H 4178   5.536   7.552  10.166  0.2954  0.4223  0.2560
   31MOL0     H 4179   5.585   7.313  10.175  2.2270  1.2258  0.6838
   31MOL0     H 4180   5.727   7.323  10.093 -1.1536 -2.8691  0.9559
   31MOL0     H 4181   5.587   7.412   9.892 -0.8987 -0.5914 -0.5187
   31MOL0     H 4182   5.445   7.389   9.969  0.7475  2.0790 -5.1677
   31MOL0     H 4183   5.532   6.984   9.896 -3.3298  1.1210 -0.4828
   31MOL0     H 4184   5.917   7.834  10.191 -0.2260 -1.1604 -0.5303
   31MOL0     H 4185   6.126   7.917  10.286  0.1548 -0.9606 -0.5813
   32MOL0     O 4186   4.979   4.322   9.431  0.3675 -0.8935  0.3904
   32MOL0     C 4187   4.924   4.430   9.432  0.3149 -0.7976 -0.4215
   32MOL0     O 4188   4.933   4.515   9.545 -0.1329 -0.9936  0.4167
   32MOL0     C 4189   5.005   4.474   9.647 -0.8206  0.1495 -0.3641
   32MOL0     C 4190   5.081   4.575   9.714  0.4847 -0.2789 -0.2355
   32MOL0     C 4191   5.143   4.559   9.843  0.3046  0.8291  0.7261
   32MOL0     C 4192   5.141   4.430   9.902  0.7250  0.6302 -0.2210
   32MOL0     O 4193   5.222   4.397  10.017  0.1735 -0.1248  0.4567
   32MOL0     C 4194   5.227   4.494  10.119  0.2998 -1.2867 -0.3304
   32MOL0     C 4195   5.299   4.445  10.247  0.1078 -0.7964 -0.0941
   32MOL0     C 4196   5.225   4.487  10.373  0.3877  0.4596  1.2217
   32MOL0     C 4197   5.305   4.442  10.498  0.1693 -1.0309  0.2760
   32MOL0     C 4198   5.217   4.420  10.619 -0.3308  0.0217 -1.3711
   32MOL0     C 4199   5.306   4.395  10.747  0.8638  0.3308 -0.1705
   32MOL0     C 4200   5.235   4.306  10.859 -0.1225  0.1460  0.0605
   32MOL0     C 4201   5.317   4.252  10.970  0.3495 -0.2292 -0.0466
   32MOL0     N 4202   5.374   4.351  11.061 -0.2720 -0.2418 -0.3111
   32MOL0     C 4203   5.504   4.410  11.054  0.2370  0.4929 -0.3042
   32MOL0     C 4204   5.516   4.466  11.176 -1.0996 -0.5106 -1.1244
   32MOL0     C 4205   5.636   4.553  11.211  0.8733 -0.0371  1.0641
   32MOL0     C 4206   5.580   4.683  11.277  0.2369  0.2190 -0.4823
   32MOL0     C 4207   5.572   4.781  11.169 -0.7816  0.4064  0.0863
   32MOL0     C 4208   5.532   4.919  11.227 -0.3188  0.5098  0.0930
   32MOL0     O 4209   5.514   5.010  11.117  0.4691 -0.2099  0.2289
   32MOL0     C 4210   5.395   4.995  11.040  0.5816 -0.0296 -0.2365
   32MOL0     C 4211   5.292   4.901  11.071 -0.4494  0.8146 -0.3543
   32MOL0     C 4212   5.172   4.888  10.999 -0.3792  0.2869  0.1512
   32MOL0     C 4213   5.066   4.800  11.056  0.1045 -0.3512 -0.0818
   32MOL0     C 4214   5.162   4.970  10.888  0.5413 -0.0712 -0.2648
   32MOL0     C 4215   5.057   4.950  10.785  0.2298 -0.8731 -0.1230
   32MOL0     O 4216   5.057   5.037  10.671  0.5335 -0.5320  0.6949
   32MOL0     C 4217   4.985   5.000  10.556  0.2127  0.0019  0.0683
   32MOL0     C 4218   4.887   5.091  10.513 -0.2440  0.5337 -1.1950
   32MOL0     C 4219   4.822   5.078  10.395 -0.1673 -0.3586 -0.6795
   32MOL0     C 4220   4.841   4.965  10.309 -0.6031 -1.0699  0.7084
   32MOL0     O 4221   4.777   4.941  10.191 -0.1237  0.3559  0.3078
   32MOL0     C 4222   4.696   5.042  10.130 -0.2306 -0.0763 -0.4573
   32MOL0     C 4223   4.673   4.999   9.985 -0.2456  0.0183 -0.2943
   32MOL0     C 4224   4.614   5.104   9.899  0.3014  0.1114  1.1686
   32MOL0     C 4225   4.727   5.201   9.865 -0.5260 -0.4052 -0.4080
   32MOL0     C 4226   4.678   5.319   9.773  0.2973 -0.2527 -0.5308
   32MOL0     C 4227   4.794   5.363   9.682  0.1032  0.1873  0.1877
   32MOL0     C 4228   4.764   5.504   9.630  1.1936  0.4918  0.7392
   32MOL0     C 4229   4.843   5.534   9.496 -0.6783  0.4560 -0.7133
   32MOL0    Cl 4230   5.004   5.544   9.545 -0.0467 -0.2903  0.0607
   32MOL0     C 4231   4.942   4.878  10.349  0.1815 -0.3662  0.6839
   32MOL0     C 4232   5.014   4.886  10.469  1.4084  0.1182 -0.4535
   32MOL0     O 4233   4.969   4.865  10.799 -0.8772  0.2174  1.4980
   32MOL0     C 4234   5.249   5.079  10.868 -0.2497 -0.2771  0.0412
   32MOL0     C 4235   5.368   5.088  10.938 -0.3537 -0.3826  0.4599
   32MOL0     N 4236   5.410   4.420  11.262 -0.3163 -0.3290  0.8234
   32MOL0     N 4237   5.332   4.356  11.194  1.1978  0.5600  0.0094
   32MOL0     C 4238   5.064   4.332   9.840  0.4625 -0.1348  0.2673
   32MOL0     C 4239   4.991   4.351   9.720  0.3531  0.6679 -1.5376
   32MOL0     C 4240   4.838   4.477   9.318 -0.2723 -0.1520 -0.3641
   32MOL0     C 4241   4.818   4.388   9.214 -0.5865  0.1767 -0.0310
   32MOL0     C 4242   4.724   4.419   9.111 -0.4633 -0.0453 -0.2201
   32MOL0     C 4243   4.665   4.549   9.105  0.5288  1.1156  0.2969
   32MOL0     O 4244   4.564   4.570   9.019  0.3587  0.5391 -1.3335
   32MOL0     C 4245   4.594   4.579   8.880 -0.6490 -0.0363 -0.5621
   32MOL0     C 4246   4.611   4.729   8.826  0.8486 -0.1692 -0.4638
   32MOL0     C 4247   4.738   4.803   8.861  0.5196 -0.0672 -0.1058
   32MOL0     C 4248   4.719   4.962   8.847 -0.0395  0.8507  0.2643
   32MOL0     C 4249   4.729   5.006   8.709  0.1376  0.8395 -0.2206
   32MOL0     C 4250   4.740   5.044   8.596 -0.7363 -0.0223  0.9733
   32MOL0     C 4251   4.695   4.643   9.198  0.0092 -0.0012  0.8620
   32MOL0     C 4252   4.770   4.602   9.314 -0.5099  0.1240  0.4105
   32MOL0     H 4253   5.069   4.678   9.682 -2.8922 -0.0954  1.1872
   32MOL0     H 4254   5.186   4.650   9.883  0.9435  1.0983 -0.5191
   32MOL0     H 4255   5.280   4.580  10.076 -0.4215 -0.8226 -0.3192
   32MOL0     H 4256   5.125   4.529  10.135  0.4455 -1.7699  2.1505
   32MOL0     H 4257   5.305   4.336  10.256 -0.1034 -0.6466  2.6497
   32MOL0     H 4258   5.392   4.502  10.237 -0.7802  0.7184 -0.0661
   32MOL0     H 4259   5.200   4.593  10.385  0.7340  0.5452  1.1876
   32MOL0     H 4260   5.129   4.436  10.384  0.2034  0.9342  1.8935
   32MOL0     H 4261   5.353   4.347  10.471 -0.0212 -0.7238 -1.2078
   32MOL0     H 4262   5.387   4.513  10.509 -2.4860  2.3086  0.0228
   32MOL0     H 4263   5.151   4.507  10.620 -1.1947 -0.5959  0.5988
   32MOL0     H 4264   5.159   4.329  10.599 -1.7984 -0.0581  2.5311
   32MOL0     H 4265   5.407   4.362  10.720  0.7180  1.4448 -2.3406
   32MOL0     H 4266   5.316   4.490  10.799  0.1892 -0.4723  1.5036
   32MOL0     H 4267   5.154   4.358  10.911 -1.1961 -1.4055 -0.0129
   32MOL0     H 4268   5.185   4.222  10.809  0.6645 -0.1159 -0.3051
   32MOL0     H 4269   5.403   4.201  10.926  0.4500  1.4531 -1.8826
   32MOL0     H 4270   5.255   4.181  11.027 -2.8756  2.9358  0.7383
   32MOL0     H 4271   5.567   4.409  10.966 -2.3742 -2.9436 -2.3966
   32MOL0     H 4272   5.695   4.499  11.286  0.3347  1.9097  2.9745
   32MOL0     H 4273   5.693   4.571  11.120 -0.0405  1.5961  0.7874
   32MOL0     H 4274   5.643   4.701  11.365 -0.3398 -1.4890  0.3473
   32MOL0     H 4275   5.485   4.664  11.329  0.1314 -0.9036 -1.0465
   32MOL0     H 4276   5.507   4.757  11.084  0.5346  0.6892 -1.0436
   32MOL0     H 4277   5.673   4.802  11.134 -0.6719 -0.0063  0.1520
   32MOL0     H 4278   5.610   4.962  11.290 -0.4934 -0.6226  1.1231
   32MOL0     H 4279   5.446   4.909  11.294  0.9219  1.3831  1.8910
   32MOL0     H 4280   5.307   4.841  11.160 -1.5377 -0.2662 -0.8727
   32MOL0     H 4281   5.089   4.787  11.162 -1.6424  2.1167  0.6885
   32MOL0     H 4282   4.964   4.840  11.057 -0.0817 -0.7881 -0.6473
   32MOL0     H 4283   5.070   4.706  11.001  0.3812 -0.3747 -0.0233
   32MOL0     H 4284   4.871   5.175  10.580  1.8598 -2.0613  3.0263
   32MOL0     H 4285   4.744   5.146  10.363 -0.2561 -1.5553 -3.2622
   32MOL0     H 4286   4.603   5.053  10.186 -0.0219  2.6833 -0.5301
   32MOL0     H 4287   4.751   5.136  10.145 -0.2707 -0.3509  1.7061
   32MOL0     H 4288   4.759   4.949   9.940 -2.6780 -4.8229 -0.2184
   32MOL0     H 4289   4.603   4.915   9.986 -0.5284  0.1868 -2.1141
   32MOL0     H 4290   4.532   5.152   9.954  1.2812  0.4676  2.3810
   32MOL0     H 4291   4.570   5.070   9.805 -0.6886  1.1174  1.2458
   32MOL0     H 4292   4.759   5.248   9.959  1.4617 -0.4832 -0.9909
   32MOL0     H 4293   4.814   5.147   9.827  0.2454 -1.0808  2.1411
   32MOL0     H 4294   4.628   5.397   9.831  0.1410  0.9735 -2.2113
   32MOL0     H 4295   4.602   5.279   9.705  0.2226  0.1166 -0.6683
   32MOL0     H 4296   4.886   5.366   9.742 -0.5432  0.4780  1.1980
   32MOL0     H 4297   4.813   5.284   9.608 -0.6369 -0.9109  1.1280
   32MOL0     H 4298   4.797   5.576   9.706  1.4716  0.0162  1.0746
   32MOL0     H 4299   4.657   5.514   9.611  1.2069  0.1182  0.4452
   32MOL0     H 4300   4.816   5.632   9.457 -0.0886  0.4561 -1.1273
   32MOL0     H 4301   4.835   5.455   9.421 -0.0307  2.2055 -2.7258
   32MOL0     H 4302   4.958   4.794  10.282 -0.2893 -0.9076  1.2364
   32MOL0     H 4303   5.094   4.814  10.484  1.7419  0.0520 -2.2970
   32MOL0     H 4304   5.217   5.162  10.805  3.6745 -0.3541 -2.3848
   32MOL0     H 4305   5.441   5.167  10.926 -2.6817  1.8414 -0.0644
   32MOL0     H 4306   5.069   4.228   9.869  1.0501 -1.4455 -3.8529
   32MOL0     H 4307   4.939   4.263   9.682 -1.5563  0.1571  1.8298
   32MOL0     H 4308   4.872   4.296   9.197 -2.7522 -0.8023 -2.1394
   32MOL0     H 4309   4.689   4.354   9.032 -4.2357  2.0420 -0.4853
   32MOL0     H 4310   4.689   4.528   8.858 -1.9271 -2.7559 -0.1436
   32MOL0     H 4311   4.515   4.532   8.821 -1.1057 -1.2775  0.9672
   32MOL0     H 4312   4.533   4.787   8.875  1.7446  3.2524 -2.7112
   32MOL0     H 4313   4.602   4.731   8.717  1.7420 -0.8473 -0.5585
   32MOL0     H 4314   4.815   4.768   8.792  0.7171  1.2272 -0.5588
   32MOL0     H 4315   4.771   4.765   8.958  0.3257 -0.2108 -0.0945
   32MOL0     H 4316   4.799   5.002   8.909  1.8670 -2.0016 -0.1932
   32MOL0     H 4317   4.622   4.992   8.888  0.0173 -3.0755  3.9209
   32MOL0     H 4318   4.752   5.066   8.492 -0.9933  0.6549  1.0823
   32MOL0     H 4319   4.657   4.744   9.205  0.5625  0.1188  4.6062
   32MOL0     H 4320   4.794   4.675   9.391  0.3682 -0.5013  0.7429
   33MOL0     O 4321   4.013   6.595   0.229 -0.4801  0.1235  0.3444
   33MOL0     C 4322   4.000   6.540   0.337  0.6878  0.1007  0.0661
   33MOL0     O 4323   3.914   6.583   0.436  0.1180 -0.0890 -0.7487
   33MOL0     C 4324   3.808   6.673   0.420  0.3103  0.0184 -0.4189
   33MOL0     C 4325   3.786   6.745   0.306  0.6584 -0.9645  0.2163
   33MOL0     C 4326   3.680   6.831   0.306 -1.2812 -0.5913  1.1783
   33MOL0     C 4327   3.599   6.855   0.411 -1.5695  0.7047 -0.0523
   33MOL0     O 4328   3.513   6.962   0.389  0.0341 -0.3143 -0.1567
   33MOL0     C 4329   3.470   7.011   0.510  0.3549 -0.0449 -0.6808
   33MOL0     C 4330   3.413   7.150   0.479  0.3424  0.3088  0.0074
   33MOL0     C 4331   3.381   7.233   0.612 -0.0160 -0.2762  0.1312
   33MOL0     C 4332   3.367   7.381   0.603  0.5184 -0.3305  0.2950
   33MOL0     C 4333   3.482   7.469   0.541 -0.0383 -0.4811  0.6729
   33MOL0     C 4334   3.455   7.615   0.509 -0.4368 -0.9301 -0.5022
   33MOL0     C 4335   3.417   7.700   0.631  0.2525 -0.0749  0.6317
   33MOL0     C 4336   3.537   7.734   0.718 -0.9188  0.0928 -0.1449
   33MOL0     N 4337   3.496   7.789   0.845 -0.5541 -0.7030 -0.7695
   33MOL0     C 4338   3.388   7.739   0.924  0.7431 -0.0387  0.9652
   33MOL0     C 4339   3.382   7.824   1.022  0.3269 -0.3154 -0.1117
   33MOL0     C 4340   3.297   7.804   1.149  0.0296 -0.7307 -0.5594
   33MOL0     C 4341   3.299   7.928   1.227 -0.1684 -0.2286 -0.5325
   33MOL0     C 4342   3.198   7.921   1.341 -0.7692 -0.3782  0.4661
   33MOL0     C 4343   3.227   7.815   1.457 -0.3797  0.9881 -0.1490
   33MOL0     O 4344   3.214   7.871   1.588  0.2220  1.1015 -0.2366
   33MOL0     C 4345   3.315   7.839   1.683  0.9703 -0.5109  0.5926
   33MOL0     C 4346   3.405   7.941   1.711 -0.5239  0.2218 -0.2310
   33MOL0     C 4347   3.500   7.925   1.812 -0.4523  0.8407 -1.0518
   33MOL0     C 4348   3.586   8.040   1.834 -0.4512  0.2763 -0.1479
   33MOL0     C 4349   3.510   7.801   1.886 -0.5552  0.0930  0.3891
   33MOL0     C 4350   3.598   7.768   1.999 -0.2657 -0.8634 -0.3667
   33MOL0     O 4351   3.560   7.685   2.097 -1.0659  0.6866 -0.0750
   33MOL0     C 4352   3.628   7.574   2.132  0.7765  0.3982 -0.4698
   33MOL0     C 4353   3.731   7.522   2.060  0.6157 -0.5927 -0.1786
   33MOL0     C 4354   3.804   7.412   2.098 -0.3459  0.1781  0.3673
   33MOL0     C 4355   3.764   7.343   2.213  0.1926 -0.3091  0.6995
   33MOL0     O 4356   3.826   7.225   2.263  0.2196  0.2394  0.5489
   33MOL0     C 4357   3.895   7.137   2.167 -0.3107 -1.2381 -0.3074
   33MOL0     C 4358   3.905   6.995   2.219  0.2428  0.6444  0.1114
   33MOL0     C 4359   3.764   6.941   2.236 -0.1458 -0.5783  0.2227
   33MOL0     C 4360   3.762   6.799   2.269 -0.4526  0.5692  0.1760
   33MOL0     C 4361   3.615   6.747   2.274 -0.6625 -0.4898 -0.5990
   33MOL0     C 4362   3.595   6.625   2.367 -0.4348 -1.5157  0.0155
   33MOL0     C 4363   3.627   6.502   2.288 -0.2808  1.1474  0.3353
   33MOL0     C 4364   3.677   6.384   2.367 -0.0123  0.7623  0.2517
   33MOL0    Cl 4365   3.572   6.377   2.516  0.0138 -0.4337 -0.0516
   33MOL0     C 4366   3.653   7.385   2.287  0.3735 -0.4243  0.4894
   33MOL0     C 4367   3.588   7.505   2.241  0.5350  0.4288  0.3185
   33MOL0     O 4368   3.709   7.810   1.983  0.0083  0.7314  0.7781
   33MOL0     C 4369   3.416   7.706   1.848  0.0645  0.1283 -0.4836
   33MOL0     C 4370   3.323   7.721   1.746 -0.4312  0.1390  1.0267
   33MOL0     N 4371   3.468   7.930   1.000  0.7549  0.1517 -0.9210
   33MOL0     N 4372   3.536   7.911   0.895 -1.4152 -0.0014 -0.0993
   33MOL0     C 4373   3.610   6.777   0.527 -0.4811 -0.6851 -0.3950
   33MOL0     C 4374   3.715   6.683   0.529 -0.0727 -1.2315  0.9124
   33MOL0     C 4375   4.069   6.421   0.356 -0.2907  0.2817 -1.1441
   33MOL0     C 4376   4.091   6.365   0.483  0.5300 -0.8999 -1.1110
   33MOL0     C 4377   4.160   6.243   0.494  0.4290 -0.9156  0.6566
   33MOL0     C 4378   4.216   6.176   0.390  0.6295  0.0477 -0.7443
   33MOL0     O 4379   4.265   6.053   0.426 -1.0757  0.0869 -0.3577
   33MOL0     C 4380   4.340   5.976   0.330  0.2782  0.2233  0.5140
   33MOL0     C 4381   4.256   5.865   0.258 -0.0074 -0.1228 -0.5841
   33MOL0     C 4382   4.237   5.731   0.331 -0.5577 -0.4923  0.1752
   33MOL0     C 4383   4.209   5.752   0.484  0.3981  0.5232  0.0519
   33MOL0     C 4384   4.076   5.815   0.498 -0.0708 -0.4130 -0.0310
   33MOL0     C 4385   3.963   5.862   0.480 -0.2942 -1.0159 -0.4005
   33MOL0     C 4386   4.193   6.222   0.261 -0.2413  0.6788  0.6549
   33MOL0     C 4387   4.126   6.349   0.247 -0.2043 -0.4608 -0.1870
   33MOL0     H 4388   3.847   6.745   0.216 -1.4010 -0.2281 -1.2312
   33MOL0     H 4389   3.675   6.878   0.209  3.1697 -0.5985  0.7602
   33MOL0     H 4390   3.403   6.943   0.561  2.0596 -1.8653 -0.7430
   33MOL0     H 4391   3.552   7.026   0.581 -0.1995  0.5576 -0.1521
   33MOL0     H 4392   3.493   7.198   0.423 -0.3655 -0.8081 -2.0818
   33MOL0     H 4393   3.324   7.144   0.415  1.0755  0.5138 -1.0463
   33MOL0     H 4394   3.290   7.197   0.661  0.0887  1.5727  1.8149
   33MOL0     H 4395   3.451   7.222   0.695 -0.3687  0.4523  0.5379
   33MOL0     H 4396   3.278   7.393   0.541  0.0635 -0.7677  0.8535
   33MOL0     H 4397   3.340   7.414   0.703  1.5747  1.2750  0.0823
   33MOL0     H 4398   3.571   7.465   0.605  0.7507 -1.4206 -0.4397
   33MOL0     H 4399   3.526   7.427   0.450  3.1955  0.4182  1.6546
   33MOL0     H 4400   3.537   7.665   0.457 -0.1318 -0.4239  0.4289
   33MOL0     H 4401   3.381   7.623   0.429 -0.3274 -0.0747 -0.5268
   33MOL0     H 4402   3.380   7.794   0.589 -0.0952 -0.2602  0.5217
   33MOL0     H 4403   3.338   7.640   0.678  0.1378 -1.2624 -0.9874
   33MOL0     H 4404   3.596   7.815   0.673  2.8704 -2.4147 -0.1318
   33MOL0     H 4405   3.602   7.648   0.734 -2.3376 -0.8501  0.8107
   33MOL0     H 4406   3.338   7.644   0.933 -1.8796  1.0068 -1.1824
   33MOL0     H 4407   3.191   7.804   1.125 -0.6201 -0.5933  2.0439
   33MOL0     H 4408   3.329   7.716   1.205 -0.2002  0.1521  1.0107
   33MOL0     H 4409   3.281   8.016   1.165 -1.1372 -0.1672 -0.1907
   33MOL0     H 4410   3.401   7.932   1.265  1.4298 -1.8340 -4.1680
   33MOL0     H 4411   3.097   7.905   1.303 -1.1392 -1.6737  1.8959
   33MOL0     H 4412   3.209   8.018   1.391  1.8776  1.1883 -2.7287
   33MOL0     H 4413   3.326   7.772   1.434  0.1922  2.0731  0.2362
   33MOL0     H 4414   3.156   7.731   1.458  0.9808 -0.2310  1.3768
   33MOL0     H 4415   3.411   8.038   1.663  1.2544  0.4124  0.3168
   33MOL0     H 4416   3.587   8.120   1.759  2.1643  0.2480 -0.2248
   33MOL0     H 4417   3.573   8.079   1.935 -1.5747 -0.4711  0.0192
   33MOL0     H 4418   3.689   8.004   1.822 -0.6425  0.1801 -1.7078
   33MOL0     H 4419   3.759   7.565   1.965 -0.2436 -1.4662 -0.8409
   33MOL0     H 4420   3.888   7.390   2.034 -0.4725  5.8518 -2.3253
   33MOL0     H 4421   3.853   7.144   2.066 -0.3337  3.0239 -0.1951
   33MOL0     H 4422   3.995   7.180   2.173 -0.6477 -0.5349  0.4352
   33MOL0     H 4423   3.964   6.945   2.142  2.5028  2.8018  0.3284
   33MOL0     H 4424   3.965   6.996   2.310  2.2073 -2.4993 -0.9883
   33MOL0     H 4425   3.728   6.950   2.133 -1.0256 -2.6574  0.2971
   33MOL0     H 4426   3.700   6.998   2.303 -0.5497  1.3036 -1.6715
   33MOL0     H 4427   3.814   6.736   2.196  1.8185  2.6379 -0.1530
   33MOL0     H 4428   3.813   6.791   2.365 -1.1875 -0.3365  0.4981
   33MOL0     H 4429   3.579   6.731   2.172 -1.3160  2.8898 -1.0340
   33MOL0     H 4430   3.564   6.832   2.322  1.5160  0.2026  0.6143
   33MOL0     H 4431   3.669   6.641   2.446 -1.6980  0.0681  0.9493
   33MOL0     H 4432   3.489   6.621   2.396 -0.2248 -0.8931  0.9177
   33MOL0     H 4433   3.691   6.524   2.203  1.7989  0.8124  1.7306
   33MOL0     H 4434   3.535   6.467   2.240  1.7439 -3.7648 -0.5379
   33MOL0     H 4435   3.781   6.393   2.399  0.5300 -3.6555  0.3177
   33MOL0     H 4436   3.667   6.295   2.304 -1.7283  0.8490  0.3572
   33MOL0     H 4437   3.623   7.344   2.383  2.8549 -0.2857  1.4006
   33MOL0     H 4438   3.521   7.559   2.307  2.1005  2.2208  0.5363
   33MOL0     H 4439   3.425   7.611   1.901 -1.1546  1.7232  2.8576
   33MOL0     H 4440   3.254   7.643   1.715 -0.0280 -0.0091  0.5022
   33MOL0     H 4441   3.551   6.792   0.617  3.2625  0.4126  2.1255
   33MOL0     H 4442   3.724   6.611   0.610 -0.7140 -2.3152  0.0475
   33MOL0     H 4443   4.061   6.423   0.569  0.9575  0.7534 -2.0343
   33MOL0     H 4444   4.176   6.210   0.596  2.0742 -0.8596  0.4306
   33MOL0     H 4445   4.389   6.050   0.266 -0.6699 -0.0671 -0.5835
   33MOL0     H 4446   4.435   5.937   0.369  1.0333  1.2894 -0.1969
   33MOL0     H 4447   4.320   5.847   0.172  1.9128 -1.5156  1.0209
   33MOL0     H 4448   4.158   5.899   0.222 -0.8988 -1.6663  0.2505
   33MOL0     H 4449   4.330   5.676   0.319  0.1166  0.7312 -0.4298
   33MOL0     H 4450   4.162   5.676   0.274 -0.8024 -0.6139  0.6157
   33MOL0     H 4451   4.289   5.794   0.545  0.1631 -0.5635  1.1645
   33MOL0     H 4452   4.204   5.648   0.518  3.8398 -0.8218 -2.9598
   33MOL0     H 4453   3.866   5.905   0.463  0.0434 -0.0545  0.0056
   33MOL0     H 4454   4.225   6.175   0.169 -0.0865  1.6866  0.1840
   33MOL0     H 4455   4.122   6.384   0.144 -0.1868 -2.6962 -0.9815
   34MOL0     O 4456   6.833   3.384   0.644  0.1346 -0.6525 -0.4554
   34MOL0     C 4457   6.784   3.285   0.599  0.1796  0.5665 -0.1901
   34MOL0     O 4458   6.751   3.269   0.467 -0.3599  0.0477 -0.4278
   34MOL0     C 4459   6.827   3.332   0.366  0.5158  0.4934 -0.7696
   34MOL0     C 4460   6.954   3.294   0.343 -0.2508 -0.1113 -0.4409
   34MOL0     C 4461   7.028   3.345   0.235 -0.6521  0.0819  0.9437
   34MOL0     C 4462   6.986   3.458   0.175 -0.8952  0.6090 -0.1229
   34MOL0     O 4463   7.069   3.519   0.084  0.5512 -0.0982 -0.0965
   34MOL0     C 4464   7.009   3.621   0.004  0.3473 -0.3705  0.6203
   34MOL0     C 4465   7.105   3.633  -0.116 -0.1744 -0.0769  0.4294
   34MOL0     C 4466   7.068   3.738  -0.213 -0.3760 -0.0098 -1.0539
   34MOL0     C 4467   7.127   3.710  -0.349  1.0128  0.4119 -0.2930
   34MOL0     C 4468   7.089   3.810  -0.453 -0.4465 -0.1956  0.5409
   34MOL0     C 4469   7.132   3.761  -0.587  0.0510  0.3473 -0.8053
   34MOL0     C 4470   7.088   3.826  -0.716  0.3011 -0.1711 -0.3261
   34MOL0     C 4471   6.943   3.799  -0.744 -0.5684 -0.0346 -0.0638
   34MOL0     N 4472   6.916   3.677  -0.820 -0.0240 -0.5404 -0.2906
   34MOL0     C 4473   6.866   3.558  -0.770 -0.0708 -0.0397 -0.1532
   34MOL0     C 4474   6.888   3.461  -0.872  0.1551 -0.5364  0.3746
   34MOL0     C 4475   6.853   3.317  -0.879  0.0627  1.6036 -0.0632
   34MOL0     C 4476   6.845   3.251  -0.740 -0.4418  0.8571 -0.5952
   34MOL0     C 4477   6.748   3.141  -0.754  0.7943  0.7137 -0.4785
   34MOL0     C 4478   6.600   3.185  -0.759  1.2618  0.8568 -0.0058
   34MOL0     O 4479   6.515   3.083  -0.718 -0.2984  0.1168  0.1434
   34MOL0     C 4480   6.477   2.986  -0.803 -0.4873 -0.2215  0.2351
   34MOL0     C 4481   6.423   2.872  -0.746  0.7659 -0.1672 -0.5821
   34MOL0     C 4482   6.396   2.755  -0.809 -0.7203  0.0991  0.8302
   34MOL0     C 4483   6.338   2.640  -0.727 -0.0537 -0.3450  0.5986
   34MOL0     C 4484   6.402   2.747  -0.961  0.4644 -0.7343 -0.3509
   34MOL0     C 4485   6.356   2.634  -1.052 -0.2673  0.9285  0.1641
   34MOL0     O 4486   6.380   2.652  -1.185  0.7505 -0.9490  0.3439
   34MOL0     C 4487   6.345   2.553  -1.272  0.2330  0.5094  0.6809
   34MOL0     C 4488   6.214   2.516  -1.292 -0.0854  0.1849  0.3923
   34MOL0     C 4489   6.183   2.428  -1.400 -0.0855 -0.3616 -0.1361
   34MOL0     C 4490   6.288   2.374  -1.481 -0.8023 -0.1952  0.8290
   34MOL0     O 4491   6.273   2.271  -1.570  0.3378 -0.7777 -0.4157
   34MOL0     C 4492   6.229   2.150  -1.516  0.2739 -0.0423 -0.0900
   34MOL0     C 4493   6.185   2.061  -1.643  0.3985 -1.1035 -0.6090
   34MOL0     C 4494   6.284   2.051  -1.756 -0.3371 -0.4226 -0.9501
   34MOL0     C 4495   6.240   1.949  -1.862  0.2681 -0.5344  0.3871
   34MOL0     C 4496   6.311   1.972  -1.997 -0.6087 -0.5319 -0.0560
   34MOL0     C 4497   6.277   1.863  -2.107 -0.3430 -0.7466 -0.4824
   34MOL0     C 4498   6.324   1.923  -2.231 -0.2078  0.0179 -0.3825
   34MOL0     C 4499   6.347   1.824  -2.343 -0.1316  0.1179  1.5705
   34MOL0    Cl 4500   6.395   1.921  -2.474  0.2751  0.0941  0.6986
   34MOL0     C 4501   6.422   2.414  -1.452 -0.4934  0.1773  0.5525
   34MOL0     C 4502   6.440   2.518  -1.357 -0.0562 -0.0601  0.3976
   34MOL0     O 4503   6.304   2.534  -0.998  0.0408 -0.1035  0.0590
   34MOL0     C 4504   6.459   2.864  -1.013  0.9964 -0.8714 -0.4295
   34MOL0     C 4505   6.491   2.981  -0.939 -0.4500 -0.5582  0.1726
   34MOL0     N 4506   6.958   3.530  -0.968  0.3043  0.5561 -0.5183
   34MOL0     N 4507   6.966   3.651  -0.940  0.4259 -0.4919 -0.7178
   34MOL0     C 4508   6.870   3.524   0.221  0.9088  0.0099 -0.1537
   34MOL0     C 4509   6.792   3.454   0.318  0.0451 -0.3427  1.0652
   34MOL0     C 4510   6.751   3.175   0.685  1.3247  0.6692 -0.7771
   34MOL0     C 4511   6.807   3.175   0.820  0.3092 -0.8029 -0.4975
   34MOL0     C 4512   6.766   3.068   0.899 -0.1889  0.4631 -0.5402
   34MOL0     C 4513   6.682   2.959   0.859 -0.5153  0.3775 -0.3204
   34MOL0     O 4514   6.640   2.861   0.938 -0.1556 -0.0548  0.8519
   34MOL0     C 4515   6.699   2.828   1.068  0.3683 -0.2305 -0.4267
   34MOL0     C 4516   6.841   2.761   1.056 -0.3845  0.7397 -0.9253
   34MOL0     C 4517   6.912   2.751   1.200 -0.4641 -0.2233 -0.3778
   34MOL0     C 4518   7.045   2.672   1.182 -0.0373 -0.3448  0.1593
   34MOL0     C 4519   7.150   2.735   1.107 -1.4292 -0.2201  0.5655
   34MOL0     C 4520   7.232   2.802   1.053 -0.3358 -0.8818 -0.3767
   34MOL0     C 4521   6.623   2.959   0.733  0.0530 -0.7123 -0.0036
   34MOL0     C 4522   6.661   3.069   0.650  0.8973 -0.4069  0.5094
   34MOL0     H 4523   7.008   3.208   0.382  1.1614  0.0638 -1.8869
   34MOL0     H 4524   7.127   3.308   0.210 -1.1004 -1.3539  1.2164
   34MOL0     H 4525   6.911   3.587  -0.032 -0.2370 -0.1514  1.9650
   34MOL0     H 4526   7.007   3.715   0.059  2.7983  0.7594 -1.0776
   34MOL0     H 4527   7.209   3.642  -0.084 -0.8375  0.3695  2.6367
   34MOL0     H 4528   7.100   3.543  -0.177 -1.9246  1.0582 -1.2229
   34MOL0     H 4529   6.958   3.738  -0.216 -0.6390 -4.0744  1.4454
   34MOL0     H 4530   7.105   3.831  -0.168  1.1252 -1.1451  0.1475
   34MOL0     H 4531   7.236   3.701  -0.343  0.8356 -1.3900  0.9041
   34MOL0     H 4532   7.093   3.612  -0.382  0.3191  1.5458 -3.2350
   34MOL0     H 4533   6.980   3.817  -0.457 -0.2746  3.7753 -1.8171
   34MOL0     H 4534   7.129   3.906  -0.421  4.7432 -2.3045  1.3146
   34MOL0     H 4535   7.241   3.760  -0.581 -0.0235  0.0334  2.6234
   34MOL0     H 4536   7.099   3.659  -0.608 -1.2117  0.8316 -1.2486
   34MOL0     H 4537   7.110   3.932  -0.699  0.8274 -0.4708  1.0515
   34MOL0     H 4538   7.149   3.806  -0.805 -1.1850 -0.1353 -1.3812
   34MOL0     H 4539   6.903   3.881  -0.805  1.2907  0.0605 -1.2452
   34MOL0     H 4540   6.890   3.801  -0.649 -1.1831  0.8184 -0.4007
   34MOL0     H 4541   6.808   3.541  -0.680 -1.2159 -0.6418 -0.9789
   34MOL0     H 4542   6.755   3.308  -0.928 -0.0981 -2.4236  0.6994
   34MOL0     H 4543   6.929   3.261  -0.933 -3.3620 -3.6116 -0.1961
   34MOL0     H 4544   6.807   3.319  -0.662  1.7938  0.3878  1.0151
   34MOL0     H 4545   6.937   3.207  -0.700 -1.0200 -1.9964 -2.1762
   34MOL0     H 4546   6.763   3.076  -0.667  0.6024 -1.4131 -1.9655
   34MOL0     H 4547   6.763   3.071  -0.837  1.6298 -0.9642  1.0129
   34MOL0     H 4548   6.569   3.212  -0.860  1.0244 -1.7632 -0.7140
   34MOL0     H 4549   6.578   3.269  -0.692 -2.5908  0.8461 -0.9930
   34MOL0     H 4550   6.397   2.869  -0.641 -0.5489  2.5118 -0.7288
   34MOL0     H 4551   6.404   2.552  -0.728  3.5387  2.1096  0.5986
   34MOL0     H 4552   6.338   2.667  -0.621  0.3922 -2.4109  1.1686
   34MOL0     H 4553   6.239   2.614  -0.764 -1.8187  3.1637  2.4226
   34MOL0     H 4554   6.142   2.558  -1.224 -0.9724 -3.5311  1.9805
   34MOL0     H 4555   6.079   2.402  -1.414 -0.2014  0.0704 -0.0935
   34MOL0     H 4556   6.304   2.095  -1.457 -1.7408 -1.6273  1.1149
   34MOL0     H 4557   6.136   2.166  -1.462 -1.0625  2.9740 -2.9600
   34MOL0     H 4558   6.163   1.965  -1.595 -0.7451  0.5659  2.5021
   34MOL0     H 4559   6.092   2.104  -1.682 -1.2426 -2.0760  1.9770
   34MOL0     H 4560   6.374   2.009  -1.710  0.7256  1.8274 -0.8348
   34MOL0     H 4561   6.304   2.154  -1.785 -1.1231 -0.3577 -1.3011
   34MOL0     H 4562   6.252   1.848  -1.823  0.2564  0.2462  2.5226
   34MOL0     H 4563   6.131   1.955  -1.871  0.4084 -0.7991 -2.4911
   34MOL0     H 4564   6.419   1.978  -1.979 -0.7215  0.5985  0.3344
   34MOL0     H 4565   6.269   2.066  -2.034 -2.4274 -0.8453  1.0841
   34MOL0     H 4566   6.323   1.769  -2.076  3.2824  1.1348  0.3474
   34MOL0     H 4567   6.168   1.859  -2.099 -0.4659  0.1663 -1.5164
   34MOL0     H 4568   6.422   1.969  -2.218 -0.9140  1.0539  1.8115
   34MOL0     H 4569   6.261   2.007  -2.262  0.3041  0.7370  0.4720
   34MOL0     H 4570   6.256   1.769  -2.368 -0.8885  2.0345 -0.1614
   34MOL0     H 4571   6.436   1.764  -2.323 -1.4583 -2.6679 -0.2512
   34MOL0     H 4572   6.500   2.377  -1.517  1.3791  2.7527  1.1809
   34MOL0     H 4573   6.531   2.576  -1.344 -1.8854  2.8834  1.2464
   34MOL0     H 4574   6.466   2.884  -1.120  0.7219  2.8606  0.1301
   34MOL0     H 4575   6.531   3.064  -0.997 -1.1437 -0.4730 -0.2038
   34MOL0     H 4576   6.828   3.611   0.172 -2.5883 -1.5063 -0.1145
   34MOL0     H 4577   6.703   3.509   0.345 -0.4775 -1.4173  1.6057
   34MOL0     H 4578   6.873   3.252   0.858 -0.8222  0.1454 -0.4122
   34MOL0     H 4579   6.805   3.060   1.000 -1.1191 -2.1814 -0.3256
   34MOL0     H 4580   6.698   2.913   1.137  1.5681  1.0142 -1.8828
   34MOL0     H 4581   6.635   2.763   1.128 -0.3976  2.0254  1.3750
   34MOL0     H 4582   6.907   2.807   0.982  0.3882  0.5685 -0.3628
   34MOL0     H 4583   6.823   2.658   1.022  1.4321  0.5871 -1.5494
   34MOL0     H 4584   6.847   2.691   1.265  1.6311 -3.2749 -0.8423
   34MOL0     H 4585   6.934   2.839   1.261 -0.4610 -1.1611  1.0363
   34MOL0     H 4586   7.022   2.579   1.129 -0.8677 -1.1891  1.8870
   34MOL0     H 4587   7.088   2.651   1.281  1.4877  2.2477  0.1503
   34MOL0     H 4588   7.303   2.871   1.011 -1.2646  1.7952  2.1418
   34MOL0     H 4589   6.553   2.884   0.697 -0.1341 -0.2615 -0.5971
   34MOL0     H 4590   6.611   3.067   0.553  0.4642 -0.8235  0.7347
   35MOL0     O 4591   6.704   8.927   5.325 -0.2501 -0.3009 -0.0794
   35MOL0     C 4592   6.767   8.819   5.337 -0.8027 -0.5529  0.0026
   35MOL0     O 4593   6.767   8.741   5.454  0.1814  0.4438  0.1145
   35MOL0     C 4594   6.653   8.760   5.531 -0.3889 -0.7182  0.0321
   35MOL0     C 4595   6.671   8.779   5.666  0.3558 -0.5903 -0.3484
   35MOL0     C 4596   6.561   8.769   5.755 -0.6028  0.7324 -0.8885
   35MOL0     C 4597   6.430   8.742   5.711 -0.0074  0.1907 -0.8671
   35MOL0     O 4598   6.313   8.742   5.782  0.1323 -0.4003 -0.2947
   35MOL0     C 4599   6.331   8.774   5.926  0.2930  0.6518  0.2927
   35MOL0     C 4600   6.186   8.762   5.994  0.2469  0.5881  0.5097
   35MOL0     C 4601   6.170   8.852   6.115  0.2975  0.6853 -0.4120
   35MOL0     C 4602   6.158   9.005   6.078 -0.4717 -0.1513  0.1073
   35MOL0     C 4603   6.015   9.042   6.024 -0.5895  0.4767  0.2034
   35MOL0     C 4604   6.016   9.179   5.965  0.6557  0.3300 -0.4344
   35MOL0     C 4605   6.098   9.190   5.836  0.4269  0.0449 -0.4824
   35MOL0     C 4606   6.074   9.321   5.763  0.3274  0.6056 -0.1423
   35MOL0     N 4607   6.088   9.442   5.855  0.1573 -0.3110 -1.1706
   35MOL0     C 4608   6.212   9.498   5.899 -0.1327  0.0991  1.4928
   35MOL0     C 4609   6.173   9.613   5.957  0.0839  0.6457 -0.3231
   35MOL0     C 4610   6.256   9.722   6.022  0.2239 -0.2031 -0.1162
   35MOL0     C 4611   6.275   9.686   6.165 -0.5507  0.0817 -0.1911
   35MOL0     C 4612   6.358   9.794   6.242  0.1291  0.7777 -0.8268
   35MOL0     C 4613   6.395   9.754   6.388 -1.0213  0.3157  1.0335
   35MOL0     O 4614   6.508   9.661   6.369 -0.6424 -0.0346  0.3432
   35MOL0     C 4615   6.586   9.634   6.479  0.1497  1.3749 -0.7386
   35MOL0     C 4616   6.529   9.596   6.604  0.3951  0.2437 -0.1727
   35MOL0     C 4617   6.605   9.581   6.714 -0.1881 -0.8658 -0.8315
   35MOL0     C 4618   6.525   9.559   6.840 -0.9809 -0.9261  0.7681
   35MOL0     C 4619   6.750   9.581   6.705 -0.2219 -0.4084 -0.1559
   35MOL0     C 4620   6.853   9.547   6.812  0.0329  0.4899 -0.0905
   35MOL0     O 4621   6.816   9.535   6.941 -0.0853 -0.6994  0.6286
   35MOL0     C 4622   6.919   9.525   7.028 -1.2536  0.7267 -1.0159
   35MOL0     C 4623   6.985   9.403   7.057  1.3933 -0.6640 -0.9913
   35MOL0     C 4624   7.075   9.391   7.166 -1.2799  0.1042 -0.7609
   35MOL0     C 4625   7.119   9.508   7.233  0.3438  0.3232 -0.6340
   35MOL0     O 4626   7.210   9.507   7.330  0.6268 -0.0343 -0.0585
   35MOL0     C 4627   7.347   9.527   7.284  0.5344 -0.2649 -0.4697
   35MOL0     C 4628   7.397   9.399   7.223  0.2713 -0.4082 -0.3025
   35MOL0     C 4629   7.547   9.415   7.186  0.6274 -0.4069  0.6081
   35MOL0     C 4630   7.561   9.412   7.027 -0.6158 -0.6954 -0.1187
   35MOL0     C 4631   7.684   9.492   6.987 -0.5725  1.2477  0.1492
   35MOL0     C 4632   7.696   9.497   6.834 -0.8406  0.0906  0.3644
   35MOL0     C 4633   7.818   9.585   6.803  0.4107  0.2501 -0.7990
   35MOL0     C 4634   7.817   9.737   6.806 -0.0596 -0.0466 -0.0420
   35MOL0    Cl 4635   7.706   9.804   6.681 -0.1540  0.0420  0.2170
   35MOL0     C 4636   7.054   9.631   7.207  0.7295  0.4587 -0.3023
   35MOL0     C 4637   6.957   9.638   7.103 -0.6966 -0.5875 -0.1375
   35MOL0     O 4638   6.968   9.537   6.771  0.2845 -0.6153 -0.9458
   35MOL0     C 4639   6.803   9.624   6.584 -0.1185  0.5073  0.2901
   35MOL0     C 4640   6.722   9.643   6.468 -0.3955 -0.2784 -0.0939
   35MOL0     N 4641   6.031   9.623   5.947 -0.3356 -0.5720 -0.0429
   35MOL0     N 4642   5.986   9.522   5.894  0.3122 -0.0680  0.6287
   35MOL0     C 4643   6.417   8.725   5.573  0.5810 -0.3652 -0.4024
   35MOL0     C 4644   6.523   8.739   5.490 -0.4873 -0.3113  0.0518
   35MOL0     C 4645   6.851   8.771   5.231 -0.4618  0.5600  0.1267
   35MOL0     C 4646   6.977   8.703   5.261  0.2052  0.4400 -0.4668
   35MOL0     C 4647   7.073   8.668   5.162  0.0871  0.4694  1.2515
   35MOL0     C 4648   7.040   8.699   5.024  0.5443  0.5256  0.6229
   35MOL0     O 4649   7.127   8.666   4.929  0.1851 -0.1960 -0.0021
   35MOL0     C 4650   7.182   8.530   4.934  0.7647 -0.8216 -0.4393
   35MOL0     C 4651   7.066   8.428   4.926  0.2821  0.2422  0.5183
   35MOL0     C 4652   7.118   8.280   4.940 -0.0349  0.2683  0.1418
   35MOL0     C 4653   7.153   8.238   5.080  0.0647  0.7228  0.5458
   35MOL0     C 4654   7.103   8.110   5.124 -0.0281 -0.3115 -0.4243
   35MOL0     C 4655   7.078   7.990   5.137 -0.5187 -0.5070  0.1625
   35MOL0     C 4656   6.926   8.774   5.001 -0.3771 -0.1021  0.1437
   35MOL0     C 4657   6.830   8.810   5.099 -0.0180 -0.0394  0.5836
   35MOL0     H 4658   6.772   8.803   5.699  0.7707 -1.5996 -0.8405
   35MOL0     H 4659   6.589   8.783   5.859  4.3507 -0.6828 -1.7350
   35MOL0     H 4660   6.407   8.717   5.980 -0.7092 -0.5900  0.4348
   35MOL0     H 4661   6.361   8.879   5.931  0.6678  0.5049  1.5180
   35MOL0     H 4662   6.104   8.783   5.925 -1.1753 -1.5638  1.4336
   35MOL0     H 4663   6.177   8.654   6.011  2.5130  0.2096 -0.2939
   35MOL0     H 4664   6.081   8.824   6.172 -0.1441  2.0108 -0.3956
   35MOL0     H 4665   6.254   8.832   6.182 -1.9955  0.0275  2.4891
   35MOL0     H 4666   6.169   9.072   6.164  1.4632  0.7681 -0.7926
   35MOL0     H 4667   6.231   9.040   6.005  0.0907 -0.2445  0.6138
   35MOL0     H 4668   5.990   8.970   5.946 -0.0199  2.6505 -2.1252
   35MOL0     H 4669   5.951   9.037   6.112 -0.0145 -0.4839  0.5807
   35MOL0     H 4670   5.910   9.201   5.952  0.1037 -1.0566  1.3763
   35MOL0     H 4671   6.058   9.261   6.024  0.0508  2.7963 -3.1718
   35MOL0     H 4672   6.206   9.197   5.854  0.9323 -2.4189 -2.0477
   35MOL0     H 4673   6.090   9.107   5.765 -1.4510  0.9473 -1.3704
   35MOL0     H 4674   5.977   9.329   5.714  0.3822 -3.4499 -1.2835
   35MOL0     H 4675   6.148   9.336   5.683  0.5620  0.4493  0.0437
   35MOL0     H 4676   6.306   9.446   5.884 -0.2177  0.7692 -3.0026
   35MOL0     H 4677   6.353   9.733   5.974 -0.6422  0.5949 -1.7844
   35MOL0     H 4678   6.201   9.817   6.024  1.1480  0.3723 -1.0892
   35MOL0     H 4679   6.324   9.588   6.170 -1.0134 -0.1088  2.6536
   35MOL0     H 4680   6.175   9.685   6.209 -0.7683  4.2228 -0.1730
   35MOL0     H 4681   6.304   9.888   6.236  0.7595  1.1515 -0.7946
   35MOL0     H 4682   6.450   9.798   6.183  0.2121 -3.3821 -1.3219
   35MOL0     H 4683   6.307   9.707   6.433 -0.6373  0.5390  2.0458
   35MOL0     H 4684   6.417   9.838   6.454 -1.5176 -0.3836  2.1256
   35MOL0     H 4685   6.422   9.577   6.605  0.1840  1.4158  0.0298
   35MOL0     H 4686   6.504   9.453   6.856 -1.6488 -0.4462  3.5849
   35MOL0     H 4687   6.572   9.602   6.929  3.3920 -3.1492 -0.1562
   35MOL0     H 4688   6.427   9.607   6.831  0.8488  2.9364 -0.4912
   35MOL0     H 4689   6.950   9.314   7.007 -2.1796 -1.0045  1.7059
   35MOL0     H 4690   7.123   9.297   7.191  0.0708  1.3828  1.9025
   35MOL0     H 4691   7.353   9.607   7.209 -0.6980 -1.5436 -2.0262
   35MOL0     H 4692   7.406   9.547   7.373 -1.4567 -3.4756  1.7727
   35MOL0     H 4693   7.382   9.321   7.298  2.2690 -0.0541  0.5502
   35MOL0     H 4694   7.342   9.367   7.134  0.0274  0.2449 -0.3935
   35MOL0     H 4695   7.607   9.337   7.234  2.4691  1.4982  1.5494
   35MOL0     H 4696   7.598   9.500   7.231  1.6831 -0.8983  0.3539
   35MOL0     H 4697   7.569   9.306   7.001 -0.2811 -0.2840 -1.8754
   35MOL0     H 4698   7.476   9.458   6.975 -0.1248 -2.0416 -2.2402
   35MOL0     H 4699   7.777   9.459   7.033 -0.7577 -0.7227 -0.7661
   35MOL0     H 4700   7.664   9.592   7.026  0.6735  0.2170  3.7690
   35MOL0     H 4701   7.717   9.394   6.804  3.6473  0.8822  0.1405
   35MOL0     H 4702   7.614   9.536   6.773  0.3870  1.4693 -0.4628
   35MOL0     H 4703   7.830   9.557   6.698 -0.0556 -0.9706 -0.5414
   35MOL0     H 4704   7.897   9.558   6.873 -0.4658  1.9052  0.9129
   35MOL0     H 4705   7.915   9.771   6.771 -0.4461  0.9184 -0.2178
   35MOL0     H 4706   7.792   9.763   6.909 -0.2350  0.9127 -0.3237
   35MOL0     H 4707   7.069   9.713   7.276 -4.1896  1.5714 -0.2080
   35MOL0     H 4708   6.900   9.730   7.092  0.1766 -0.1607 -1.3855
   35MOL0     H 4709   6.910   9.631   6.565 -0.2252  1.7490  0.1085
   35MOL0     H 4710   6.774   9.678   6.380 -1.5110  1.0866 -0.2624
   35MOL0     H 4711   6.320   8.700   5.531  0.7288  0.0223 -0.9866
   35MOL0     H 4712   6.498   8.711   5.388 -1.4197  0.3618  0.0820
   35MOL0     H 4713   6.996   8.670   5.362 -1.2860  0.2657 -0.2108
   35MOL0     H 4714   7.170   8.633   5.196  0.5237  1.9534  1.6273
   35MOL0     H 4715   7.251   8.512   4.851  1.6399  3.6476 -0.9292
   35MOL0     H 4716   7.245   8.520   5.023  1.4881 -2.1566 -1.0835
   35MOL0     H 4717   7.017   8.432   4.828  0.1415  1.8528  0.6233
   35MOL0     H 4718   6.994   8.446   5.006 -2.7262 -1.1928 -1.6620
   35MOL0     H 4719   7.205   8.258   4.877 -2.1644 -2.5763 -2.0909
   35MOL0     H 4720   7.037   8.217   4.902 -0.1768  0.8458 -0.5184
   35MOL0     H 4721   7.114   8.308   5.155 -0.8189 -1.0351  1.7773
   35MOL0     H 4722   7.261   8.241   5.096  0.2486 -1.1927 -0.1197
   35MOL0     H 4723   7.070   7.887   5.166  2.0028 -0.6889  0.4242
   35MOL0     H 4724   6.896   8.804   4.901 -0.9257 -0.8863  0.0572
   35MOL0     H 4725   6.738   8.861   5.072 -2.2891 -1.4423  4.9085
   36MOL0     O 4726  10.075   7.185  10.810 -0.0548  0.5955 -0.4774
   36MOL0     C 4727  10.046   7.061  10.806  0.0230 -1.0066 -0.4894
   36MOL0     O 4728  10.006   6.988  10.697  0.1120  0.9005 -0.4121
   36MOL0     C 4729   9.988   7.037  10.570  0.2656 -0.0498  0.4377
   36MOL0     C 4730   9.967   6.934  10.472  0.9542 -0.0930 -0.1166
   36MOL0     C 4731   9.968   6.961  10.337 -0.4085  0.0983  0.3513
   36MOL0     C 4732   9.989   7.094  10.286  0.6609 -0.4164  0.8343
   36MOL0     O 4733   9.984   7.121  10.144 -0.0849  0.0588  0.0589
   36MOL0     C 4734   9.933   7.246  10.100  0.5288 -0.0704 -0.4149
   36MOL0     C 4735   9.786   7.285  10.150  0.6779 -0.2864  0.7116
   36MOL0     C 4736   9.779   7.409  10.243 -0.3670  0.3140 -0.7635
   36MOL0     C 4737   9.651   7.399  10.320 -0.2304  0.1976  0.2468
   36MOL0     C 4738   9.619   7.525  10.408  0.0609 -0.7128 -0.5998
   36MOL0     C 4739   9.564   7.648  10.326  0.7837 -0.2555 -0.7177
   36MOL0     C 4740   9.419   7.620  10.275 -0.4683 -0.4968  0.7152
   36MOL0     C 4741   9.346   7.742  10.210 -0.0423  0.8052  0.0477
   36MOL0     N 4742   9.195   7.718  10.224  0.3724  0.0285 -0.3684
   36MOL0     C 4743   9.112   7.630  10.159 -0.0422  0.1487  0.9690
   36MOL0     C 4744   8.984   7.646  10.192 -0.2059  0.7261  0.5910
   36MOL0     C 4745   8.859   7.580  10.135 -1.1134  1.0180  1.0099
   36MOL0     C 4746   8.743   7.675  10.126 -0.2066  1.0349  0.3513
   36MOL0     C 4747   8.613   7.607  10.084 -0.5847 -0.2043  1.1430
   36MOL0     C 4748   8.493   7.687  10.143  0.5199  0.8579 -0.0441
   36MOL0     O 4749   8.495   7.822  10.093 -0.3620 -0.4695  1.3172
   36MOL0     C 4750   8.444   7.922  10.164 -0.7501  0.4543  0.4530
   36MOL0     C 4751   8.517   7.986  10.270 -0.0483  0.2247  0.9652
   36MOL0     C 4752   8.471   8.094  10.345 -0.1420  0.7448  0.1580
   36MOL0     C 4753   8.557   8.130  10.466  0.2056  0.7348 -0.1219
   36MOL0     C 4754   8.335   8.147  10.320 -0.2553 -0.2745 -0.3508
   36MOL0     C 4755   8.279   8.263  10.387  0.0797  0.0434 -0.1688
   36MOL0     O 4756   8.359   8.323  10.475 -0.4674  0.4884  0.1508
   36MOL0     C 4757   8.311   8.434  10.539  0.1664  0.3923  0.7287
   36MOL0     C 4758   8.264   8.550  10.467  0.1354 -0.3966  0.0733
   36MOL0     C 4759   8.223   8.660  10.542 -1.1111  0.1443  0.0063
   36MOL0     C 4760   8.245   8.663  10.682 -0.3259  0.3062 -0.3012
   36MOL0     O 4761   8.232   8.773  10.757 -0.1747 -0.0439  0.1949
   36MOL0     C 4762   8.272   8.899  10.698 -0.5813 -0.1577  0.1908
   36MOL0     C 4763   8.148   8.983  10.723  0.4089 -0.7919  0.4132
   36MOL0     C 4764   8.107   9.005  10.866 -0.0436  0.1299  0.1519
   36MOL0     C 4765   7.974   9.070  10.875  0.0868 -0.7089 -0.7050
   36MOL0     C 4766   7.924   9.104  11.021 -0.2304  0.3089  1.1561
   36MOL0     C 4767   7.789   9.179  11.000 -0.0756 -0.5548 -0.7807
   36MOL0     C 4768   7.719   9.191  11.136 -0.3479  0.0598 -0.5788
   36MOL0     C 4769   7.581   9.236  11.132  1.3541 -1.1653 -1.1683
   36MOL0    Cl 4770   7.481   9.105  11.075 -0.0432  0.2117 -0.1734
   36MOL0     C 4771   8.287   8.552  10.752 -0.7107  0.3833 -0.3391
   36MOL0     C 4772   8.329   8.441  10.681  1.7278 -0.2971  1.1674
   36MOL0     O 4773   8.171   8.296  10.356  0.0158 -0.6279 -0.2319
   36MOL0     C 4774   8.263   8.083  10.217  0.5474 -0.0706 -1.1803
   36MOL0     C 4775   8.318   7.979  10.144  0.3620  0.6463 -0.2653
   36MOL0     N 4776   8.987   7.737  10.297 -0.2258 -0.2280 -0.3767
   36MOL0     N 4777   9.108   7.778  10.316 -0.9046  1.4424  0.0631
   36MOL0     C 4778  10.011   7.197  10.378  0.3169 -0.4215  0.0250
   36MOL0     C 4779  10.012   7.169  10.517  0.2072  0.4113  0.2458
   36MOL0     C 4780  10.033   6.984  10.940 -1.0777 -1.5545 -0.1683
   36MOL0     C 4781  10.002   7.059  11.062 -1.2390 -0.3010  0.6506
   36MOL0     C 4782   9.967   7.008  11.187 -0.8453 -0.4533  0.1120
   36MOL0     C 4783   9.960   6.872  11.187 -0.3540 -0.5186  0.2204
   36MOL0     O 4784   9.944   6.789  11.302 -0.5120  0.0781 -0.1477
   36MOL0     C 4785   9.902   6.846  11.432 -0.0071  0.6138  0.7308
   36MOL0     C 4786   9.766   6.787  11.474  0.2528 -1.3970  0.4078
   36MOL0     C 4787   9.659   6.843  11.375 -1.2677  0.3231  0.4784
   36MOL0     C 4788   9.525   6.781  11.402  0.2832  0.6019  0.0131
   36MOL0     C 4789   9.467   6.831  11.527 -0.5969  0.4377 -0.8321
   36MOL0     C 4790   9.412   6.871  11.631 -0.5459 -0.9563  0.4717
   36MOL0     C 4791   9.996   6.798  11.076 -0.5459  0.5419  0.4463
   36MOL0     C 4792  10.022   6.848  10.947 -0.0273  0.4288 -0.2079
   36MOL0     H 4793   9.961   6.831  10.506  0.0788  0.3428  1.1038
   36MOL0     H 4794   9.962   6.879  10.266 -1.9297  2.3308 -2.3246
   36MOL0     H 4795   9.995   7.328  10.137  0.7554  0.1746 -1.3099
   36MOL0     H 4796   9.943   7.236   9.991  0.2860 -1.6624 -0.3175
   36MOL0     H 4797   9.722   7.312  10.065  2.5108  1.7663 -0.1440
   36MOL0     H 4798   9.744   7.201  10.205  2.2400  0.5882  3.3911
   36MOL0     H 4799   9.857   7.403  10.319  0.8724 -0.9899 -2.0639
   36MOL0     H 4800   9.802   7.499  10.185  0.6148 -0.8632 -2.2854
   36MOL0     H 4801   9.565   7.387  10.254  0.0011  2.8446 -0.6665
   36MOL0     H 4802   9.659   7.308  10.380 -0.6252 -1.2809 -1.8553
   36MOL0     H 4803   9.547   7.494  10.484  1.2773 -2.9691 -0.2870
   36MOL0     H 4804   9.718   7.546  10.450  0.6540 -0.9265 -1.8429
   36MOL0     H 4805   9.570   7.733  10.394  3.4197 -0.5734 -0.4226
   36MOL0     H 4806   9.625   7.664  10.236  1.6404 -0.6465 -0.2234
   36MOL0     H 4807   9.426   7.546  10.195  0.6459 -0.1064  0.4290
   36MOL0     H 4808   9.374   7.579  10.366  1.1661 -1.9291  0.9247
   36MOL0     H 4809   9.364   7.770  10.106  0.3932  2.2668  0.4960
   36MOL0     H 4810   9.377   7.824  10.275 -0.9820  0.2819  1.2243
   36MOL0     H 4811   9.143   7.565  10.079  1.3917  0.0383  1.5944
   36MOL0     H 4812   8.878   7.536  10.037  1.9937  4.6109 -0.2618
   36MOL0     H 4813   8.824   7.514  10.215  0.6378  0.0352  1.0049
   36MOL0     H 4814   8.776   7.769  10.080 -1.1557  3.1457  3.6110
   36MOL0     H 4815   8.733   7.724  10.224 -1.4665  0.0205  0.7478
   36MOL0     H 4816   8.599   7.510  10.132 -1.3860  0.4622  2.3136
   36MOL0     H 4817   8.594   7.609   9.976 -2.1064  1.4355  1.3911
   36MOL0     H 4818   8.499   7.696  10.251  3.4451  0.1500 -0.0550
   36MOL0     H 4819   8.396   7.645  10.116 -0.2419  3.0160 -0.8672
   36MOL0     H 4820   8.613   7.940  10.293 -0.6623 -0.7108  1.7315
   36MOL0     H 4821   8.486   8.146  10.547 -2.4928 -4.0026 -1.1638
   36MOL0     H 4822   8.625   8.047  10.487  2.5804  1.7628 -3.0266
   36MOL0     H 4823   8.631   8.206  10.440  0.2795  0.7760  0.2102
   36MOL0     H 4824   8.263   8.551  10.359 -1.3900 -0.6756  0.0610
   36MOL0     H 4825   8.179   8.740  10.484  0.1149  0.3064 -0.7333
   36MOL0     H 4826   8.347   8.951  10.759 -2.1215  1.4614  0.7740
   36MOL0     H 4827   8.300   8.894  10.592  1.4782 -3.1810  0.7590
   36MOL0     H 4828   8.163   9.080  10.674 -1.2438 -0.9254 -0.4304
   36MOL0     H 4829   8.062   8.940  10.672  1.1072 -0.2281 -1.3376
   36MOL0     H 4830   8.175   9.063  10.930 -0.0458 -2.3087  2.5398
   36MOL0     H 4831   8.095   8.910  10.917 -3.1818 -0.1347 -0.8608
   36MOL0     H 4832   7.984   9.165  10.822 -0.1256 -2.1686 -3.5562
   36MOL0     H 4833   7.900   9.007  10.826 -1.2602 -0.1715  0.5856
   36MOL0     H 4834   8.005   9.162  11.067 -0.4194 -0.5801  2.6756
   36MOL0     H 4835   7.919   9.006  11.069 -1.3878  0.8337  2.1602
   36MOL0     H 4836   7.799   9.277  10.951  1.4293  0.0694  0.6869
   36MOL0     H 4837   7.730   9.112  10.937  0.8193 -2.7811  0.6035
   36MOL0     H 4838   7.773   9.260  11.203 -0.8159  0.0219 -0.1604
   36MOL0     H 4839   7.729   9.099  11.193  0.2899 -0.2286 -1.1374
   36MOL0     H 4840   7.577   9.329  11.073  3.2094 -2.7199 -3.9704
   36MOL0     H 4841   7.552   9.266  11.234  5.3249  3.4893 -1.0356
   36MOL0     H 4842   8.299   8.565  10.859 -2.4936  1.5993 -0.2518
   36MOL0     H 4843   8.374   8.364  10.744 -0.3035 -0.1701  2.9149
   36MOL0     H 4844   8.167   8.129  10.200  0.7090  1.4557  1.4437
   36MOL0     H 4845   8.250   7.937  10.071 -1.1745  2.0279  0.3140
   36MOL0     H 4846  10.028   7.300  10.351 -1.7967  0.6486  2.4105
   36MOL0     H 4847  10.040   7.242  10.593 -2.2512  0.3113  1.3417
   36MOL0     H 4848   9.986   7.166  11.047 -0.4927 -0.3859 -1.0669
   36MOL0     H 4849   9.942   7.079  11.266 -4.6998 -2.0421  0.5582
   36MOL0     H 4850   9.971   6.811  11.510  0.0090 -0.0916  0.4035
   36MOL0     H 4851   9.894   6.954  11.423  2.2425  0.6715 -2.0797
   36MOL0     H 4852   9.745   6.805  11.580 -1.8608 -0.5604 -0.0962
   36MOL0     H 4853   9.759   6.680  11.451  0.9784 -1.5299  0.7936
   36MOL0     H 4854   9.683   6.825  11.269 -0.0235 -0.3503  0.8522
   36MOL0     H 4855   9.670   6.951  11.387 -1.4361  0.3093  0.7540
   36MOL0     H 4856   9.531   6.673  11.411 -0.4997  0.3776 -1.7544
   36MOL0     H 4857   9.452   6.794  11.322 -0.0960 -0.0458  0.2537
   36MOL0     H 4858   9.380   6.924  11.718 -1.4358  5.0786 -2.9611
   36MOL0     H 4859   9.991   6.690  11.073 -2.7698  0.5480  1.4424
   36MOL0     H 4860  10.030   6.768  10.874  2.8220 -1.6169  2.0904
   37MOL0     O 4861   1.345   9.873   4.324 -0.2235  1.0814  0.1475
   37MOL0     C 4862   1.444   9.805   4.312 -0.9960 -0.4279 -0.7267
   37MOL0     O 4863   1.443   9.666   4.309 -0.2479 -0.8061  0.4681
   37MOL0     C 4864   1.339   9.584   4.329  0.5365  0.0460 -0.5992
   37MOL0     C 4865   1.212   9.593   4.257 -0.6807 -0.4421 -0.2990
   37MOL0     C 4866   1.112   9.492   4.285  0.5548 -0.1200  0.2224
   37MOL0     C 4867   1.129   9.405   4.388  0.6359 -0.6100 -0.1325
   37MOL0     O 4868   1.044   9.294   4.396  0.4131  0.3752  0.0003
   37MOL0     C 4869   1.086   9.171   4.461  0.6873 -0.2423  0.3031
   37MOL0     C 4870   1.181   9.102   4.371 -0.7285  0.5056  0.9048
   37MOL0     C 4871   1.119   9.019   4.262  0.5365 -1.0536 -0.9062
   37MOL0     C 4872   1.032   8.903   4.308  0.3949 -1.0456 -1.1104
   37MOL0     C 4873   0.929   8.879   4.191 -0.3619  0.6283 -0.1613
   37MOL0     C 4874   0.838   8.758   4.216  0.0378 -0.0587 -0.6120
   37MOL0     C 4875   0.737   8.738   4.109 -0.5761 -0.2989 -0.1758
   37MOL0     C 4876   0.618   8.641   4.146  0.2593  0.7089 -0.3211
   37MOL0     N 4877   0.637   8.511   4.089 -0.8197  0.2642  0.5357
   37MOL0     C 4878   0.732   8.411   4.108  0.2539 -0.7160 -0.7699
   37MOL0     C 4879   0.741   8.344   4.000  0.7571 -0.1244  0.9159
   37MOL0     C 4880   0.823   8.218   3.979  1.1698 -0.4263  0.7898
   37MOL0     C 4881   0.972   8.218   3.969  0.2206  0.6135 -0.7511
   37MOL0     C 4882   1.012   8.282   3.830  0.9235 -0.0998 -0.6201
   37MOL0     C 4883   1.162   8.274   3.799  1.1896  0.5142 -0.0191
   37MOL0     O 4884   1.233   8.309   3.918  0.1870 -0.0167  0.3400
   37MOL0     C 4885   1.374   8.336   3.906 -1.5860  0.3255 -0.3557
   37MOL0     C 4886   1.447   8.278   3.802 -0.8215 -0.0376  0.2102
   37MOL0     C 4887   1.589   8.314   3.782  0.5456  0.6649 -0.1856
   37MOL0     C 4888   1.674   8.243   3.677  0.3685  0.0741  0.2728
   37MOL0     C 4889   1.637   8.419   3.861  0.0579 -0.5636  0.1490
   37MOL0     C 4890   1.771   8.478   3.849 -0.3358 -1.0900 -0.1756
   37MOL0     O 4891   1.878   8.388   3.866 -0.1868 -0.1225 -0.1935
   37MOL0     C 4892   2.004   8.437   3.862 -0.2064  0.1394  0.6643
   37MOL0     C 4893   2.086   8.420   3.972  0.4023 -0.1753 -0.2512
   37MOL0     C 4894   2.218   8.453   3.973 -0.9072 -0.5227  0.6357
   37MOL0     C 4895   2.272   8.522   3.862 -0.3685 -0.0956 -1.1737
   37MOL0     O 4896   2.402   8.558   3.879 -0.0762 -0.0271 -1.0782
   37MOL0     C 4897   2.477   8.601   3.764 -0.0145  0.1516 -0.5952
   37MOL0     C 4898   2.597   8.663   3.834 -0.1601  1.0970  0.7335
   37MOL0     C 4899   2.704   8.735   3.744  0.1288 -0.4369 -0.5316
   37MOL0     C 4900   2.711   8.678   3.602  0.7426  0.1879  0.6271
   37MOL0     C 4901   2.837   8.746   3.534  0.3206 -0.2173  0.7380
   37MOL0     C 4902   2.851   8.677   3.392  0.0554 -0.2724  0.5124
   37MOL0     C 4903   2.939   8.767   3.308 -0.2781  1.2681 -0.3396
   37MOL0     C 4904   2.995   8.689   3.195  1.1339  0.1288 -0.3820
   37MOL0    Cl 4905   2.866   8.658   3.067  0.4366 -0.0451  0.3665
   37MOL0     C 4906   2.195   8.529   3.741 -0.7590 -0.5010 -0.7965
   37MOL0     C 4907   2.069   8.477   3.741  0.1858  0.6317 -0.1422
   37MOL0     O 4908   1.777   8.597   3.832  0.4622 -0.0870 -0.0865
   37MOL0     C 4909   1.552   8.481   3.959 -0.2129 -0.5910 -0.5532
   37MOL0     C 4910   1.426   8.429   3.989  0.9906  0.6223 -0.4293
   37MOL0     N 4911   0.650   8.403   3.900  0.2416 -0.0817 -0.0192
   37MOL0     N 4912   0.589   8.497   3.959  0.8784  0.0399 -0.4402
   37MOL0     C 4913   1.242   9.417   4.470 -0.5662  0.0384  0.2247
   37MOL0     C 4914   1.357   9.505   4.440 -0.1901  0.6361 -0.0956
   37MOL0     C 4915   1.578   9.864   4.323  0.5938  0.1313  0.3230
   37MOL0     C 4916   1.595   9.997   4.373 -0.3603  0.0674 -0.5108
   37MOL0     C 4917   1.721  10.058   4.388  0.2946 -0.3717 -1.0047
   37MOL0     C 4918   1.831   9.984   4.362 -0.3775 -0.8939 -0.4955
   37MOL0     O 4919   1.955  10.031   4.372  0.5630  0.1454 -0.5996
   37MOL0     C 4920   1.978  10.164   4.403 -1.0471 -0.7752  0.1926
   37MOL0     C 4921   2.130  10.192   4.409 -0.3564  0.2239  0.6476
   37MOL0     C 4922   2.185  10.165   4.542  0.2096 -0.8722  0.2639
   37MOL0     C 4923   2.334  10.190   4.546  0.2425  0.8185  0.0616
   37MOL0     C 4924   2.380  10.166   4.684 -0.2302 -0.2913  0.1954
   37MOL0     C 4925   2.390  10.156   4.813  0.6021 -0.4676 -0.5684
   37MOL0     C 4926   1.820   9.855   4.308  0.0506 -0.5797  0.2354
   37MOL0     C 4927   1.697   9.797   4.288 -0.1541  0.0172  0.0889
   37MOL0     H 4928   1.189   9.677   4.193 -0.9071  0.9122  1.4961
   37MOL0     H 4929   1.036   9.479   4.209  0.1066 -0.3848  0.7099
   37MOL0     H 4930   1.128   9.195   4.560 -0.5483 -4.2311  1.9884
   37MOL0     H 4931   0.991   9.121   4.481 -0.7710  2.1627 -0.1112
   37MOL0     H 4932   1.243   9.179   4.325 -0.0674 -0.1883  0.6058
   37MOL0     H 4933   1.250   9.047   4.436  0.2576  2.2877  1.4353
   37MOL0     H 4934   1.050   9.077   4.200 -3.0333 -0.8337  2.8946
   37MOL0     H 4935   1.204   9.002   4.195  1.4627  3.1624 -1.1109
   37MOL0     H 4936   1.083   8.808   4.326 -0.7308 -1.5608 -0.4778
   37MOL0     H 4937   0.984   8.928   4.403 -1.4905  0.2567 -2.3377
   37MOL0     H 4938   0.866   8.969   4.187 -1.9654 -0.3860  0.8974
   37MOL0     H 4939   0.980   8.874   4.094  2.9498 -1.8720  1.4987
   37MOL0     H 4940   0.903   8.673   4.238  0.3803  0.6024  1.1427
   37MOL0     H 4941   0.784   8.762   4.311 -0.9953 -1.1401 -1.1244
   37MOL0     H 4942   0.699   8.836   4.078 -0.7333 -0.3135 -0.0315
   37MOL0     H 4943   0.782   8.693   4.020 -3.7145  0.7477 -2.4721
   37MOL0     H 4944   0.518   8.669   4.110 -1.2293 -0.5075  2.5639
   37MOL0     H 4945   0.617   8.623   4.254  0.4861 -2.8444 -0.7860
   37MOL0     H 4946   0.792   8.397   4.197 -0.6395  0.4424  0.0530
   37MOL0     H 4947   0.796   8.162   4.069 -2.6331  2.1184  1.4450
   37MOL0     H 4948   0.778   8.167   3.893 -1.3271  1.3014  0.9516
   37MOL0     H 4949   1.000   8.113   3.963 -0.1619  0.5216 -0.9984
   37MOL0     H 4950   1.019   8.272   4.052  0.0976 -1.9081  1.0501
   37MOL0     H 4951   0.980   8.386   3.843  4.7797  0.9109  3.3502
   37MOL0     H 4952   0.955   8.229   3.753 -1.3059  1.4267 -0.1179
   37MOL0     H 4953   1.179   8.338   3.712  0.5593  0.2878 -0.3177
   37MOL0     H 4954   1.186   8.171   3.774 -0.4750  0.0807  0.0433
   37MOL0     H 4955   1.413   8.204   3.730  2.7709 -2.2371  0.5122
   37MOL0     H 4956   1.625   8.150   3.648 -1.2414  0.4350  1.6944
   37MOL0     H 4957   1.676   8.306   3.588 -1.2406 -0.5016 -0.1928
   37MOL0     H 4958   1.772   8.223   3.723 -0.3370 -2.4003  0.8465
   37MOL0     H 4959   2.031   8.378   4.056  0.2070 -0.5150 -0.5453
   37MOL0     H 4960   2.276   8.434   4.062  0.5661 -0.9740 -0.3953
   37MOL0     H 4961   2.515   8.513   3.712  2.9909  1.7418 -1.3680
   37MOL0     H 4962   2.418   8.679   3.715  1.8671  2.7800  1.0637
   37MOL0     H 4963   2.572   8.736   3.912  1.7045  2.1891  0.3595
   37MOL0     H 4964   2.644   8.586   3.896 -1.1801  0.9974  1.4155
   37MOL0     H 4965   2.802   8.722   3.790  0.1397  1.3389  0.0002
   37MOL0     H 4966   2.677   8.841   3.748  0.3474 -0.4064  0.1972
   37MOL0     H 4967   2.712   8.569   3.596 -0.4460  0.1394  1.0063
   37MOL0     H 4968   2.616   8.703   3.554  0.4005 -0.1466  1.1117
   37MOL0     H 4969   2.927   8.734   3.594  0.6331  0.5277  0.4287
   37MOL0     H 4970   2.829   8.852   3.510 -0.5405 -0.2366  0.8955
   37MOL0     H 4971   2.877   8.571   3.401 -1.7572 -0.6194  2.2738
   37MOL0     H 4972   2.755   8.667   3.341  1.6482 -0.3169 -2.7368
   37MOL0     H 4973   3.024   8.808   3.363 -0.3914 -0.3938  1.1823
   37MOL0     H 4974   2.889   8.856   3.271  0.8744  1.1751 -2.2475
   37MOL0     H 4975   3.027   8.587   3.221  2.3382  0.6895  0.4240
   37MOL0     H 4976   3.078   8.745   3.151  0.9538  0.3118 -0.4884
   37MOL0     H 4977   2.237   8.565   3.647 -0.6724 -2.9392 -1.7602
   37MOL0     H 4978   2.014   8.469   3.648 -1.0113  0.4351  0.5670
   37MOL0     H 4979   1.577   8.569   4.017 -1.4036 -0.2945 -0.4704
   37MOL0     H 4980   1.369   8.465   4.074  2.8835  1.0941  0.7012
   37MOL0     H 4981   1.275   9.339   4.539 -0.0076  0.6153  0.6246
   37MOL0     H 4982   1.443   9.503   4.506  0.0953  0.7953 -0.4631
   37MOL0     H 4983   1.503  10.054   4.386 -0.4135  0.2226 -1.5105
   37MOL0     H 4984   1.716  10.163   4.418  1.4038 -0.1692 -1.4437
   37MOL0     H 4985   1.927  10.224   4.327 -3.5779 -3.3183 -0.3017
   37MOL0     H 4986   1.925  10.190   4.495  0.0284  0.9310  0.3846
   37MOL0     H 4987   2.135  10.296   4.377  1.8944 -1.1965 -4.5783
   37MOL0     H 4988   2.193  10.139   4.337  1.9723  1.0302  1.9963
   37MOL0     H 4989   2.190  10.056   4.548  0.8627 -0.8854 -0.3546
   37MOL0     H 4990   2.130  10.215   4.622 -3.1315 -2.3912 -0.9184
   37MOL0     H 4991   2.352  10.295   4.522 -2.4480  1.0266 -1.5378
   37MOL0     H 4992   2.389  10.128   4.475  2.9913 -1.3528  3.7632
   37MOL0     H 4993   2.387  10.172   4.919  0.3107 -2.9695 -0.1488
   37MOL0     H 4994   1.899   9.784   4.284 -1.0854 -2.4281  1.6294
   37MOL0     H 4995   1.705   9.697   4.248  2.3514  0.8776 -1.8334
   38MOL0     O 4996  10.334   9.026   9.993  0.1797 -0.1089  1.3992
   38MOL0     C 4997  10.456   9.024   9.976 -0.3904 -0.6728 -0.0389
   38MOL0     O 4998  10.551   9.020  10.073 -0.0156  0.2219 -0.4445
   38MOL0     C 4999  10.515   9.049  10.201 -0.4429 -0.5568  0.3562
   38MOL0     C 5000  10.408   9.140  10.236  0.3768 -0.1489 -0.0882
   38MOL0     C 5001  10.375   9.161  10.370 -0.0354 -0.2388 -0.4655
   38MOL0     C 5002  10.458   9.094  10.471 -0.0278 -0.6020 -0.1934
   38MOL0     O 5003  10.429   9.122  10.605  0.0639  1.4955  0.1529
   38MOL0     C 5004  10.295   9.133  10.646  0.0085  0.7234  0.3745
   38MOL0     C 5005  10.269   9.051  10.773  0.0135  0.1298  0.2128
   38MOL0     C 5006  10.135   9.094  10.840 -0.9993  0.3344 -0.3141
   38MOL0     C 5007  10.125   9.036  10.980  0.3096  0.2992 -0.5360
   38MOL0     C 5008  10.003   9.098  11.052 -0.7802  0.3626  0.2634
   38MOL0     C 5009  10.018   9.053  11.202 -0.8179  0.3267  0.2922
   38MOL0     C 5010   9.991   8.907  11.222  0.1731  0.7907 -0.3076
   38MOL0     C 5011   9.875   8.874  11.324 -0.1108 -0.0590 -0.0084
   38MOL0     N 5012   9.852   8.732  11.334 -0.7916 -0.5507  0.3114
   38MOL0     C 5013   9.917   8.647  11.417  0.9519  0.1589  0.4276
   38MOL0     C 5014   9.839   8.527  11.404  0.0173 -0.0498  0.2044
   38MOL0     C 5015   9.857   8.399  11.481  0.3919 -0.2915  0.7051
   38MOL0     C 5016   9.732   8.360  11.560  0.4303  0.6710 -0.7750
   38MOL0     C 5017   9.745   8.237  11.660  0.5672  0.4605 -0.0187
   38MOL0     C 5018   9.836   8.251  11.778 -0.2483 -0.3042  0.5080
   38MOL0     O 5019   9.865   8.130  11.841  0.2766  0.8904 -0.3509
   38MOL0     C 5020   9.900   8.120  11.977 -0.6434  0.2593 -0.1531
   38MOL0     C 5021   9.944   8.234  12.053 -0.0812  0.8979 -0.2130
   38MOL0     C 5022   9.982   8.213  12.190 -0.4319 -0.4398 -0.3808
   38MOL0     C 5023  10.028   8.336  12.266  0.5280  0.5508  0.8098
   38MOL0     C 5024   9.988   8.080  12.238 -0.2102  0.5628 -1.1252
   38MOL0     C 5025  10.040   8.046  12.376  0.3538 -0.9389 -0.1727
   38MOL0     O 5026  10.074   8.149  12.465 -0.0533  0.2255  0.0589
   38MOL0     C 5027  10.109   8.119  12.596  0.5695  0.5840 -1.2391
   38MOL0     C 5028  10.206   8.205  12.654  0.5493  0.3487 -0.3886
   38MOL0     C 5029  10.244   8.201  12.788 -0.8333  0.1784 -1.5936
   38MOL0     C 5030  10.164   8.116  12.873 -0.3610 -0.2044  0.3002
   38MOL0     O 5031  10.190   8.126  13.008  0.6866 -0.3450  0.0221
   38MOL0     C 5032  10.153   8.012  13.085  0.2698  0.0124 -0.7727
   38MOL0     C 5033  10.188   8.021  13.230  0.3182 -0.4874  0.3901
   38MOL0     C 5034  10.128   8.146  13.306  0.2601  1.1709 -0.2576
   38MOL0     C 5035  10.208   8.154  13.441 -0.5574 -0.9732 -0.5892
   38MOL0     C 5036  10.342   8.219  13.433  0.2374 -0.2315  0.7016
   38MOL0     C 5037  10.413   8.222  13.567 -0.3790  0.2440  0.2490
   38MOL0     C 5038  10.366   8.331  13.663  0.8962 -0.6301  0.4022
   38MOL0     C 5039  10.401   8.478  13.622 -0.1347 -0.4386 -1.2385
   38MOL0    Cl 5040  10.292   8.578  13.725  0.3562 -0.0212  0.1627
   38MOL0     C 5041  10.065   8.028  12.814  0.8289 -0.5740  0.0914
   38MOL0     C 5042  10.038   8.031  12.679 -0.2211 -0.9548  0.5928
   38MOL0     O 5043  10.036   7.931  12.404 -0.1220  0.5243  0.8635
   38MOL0     C 5044   9.937   7.971  12.151  0.2208 -0.1924 -0.0125
   38MOL0     C 5045   9.901   7.990  12.022  0.8564 -0.3380 -0.0755
   38MOL0     N 5046   9.735   8.547  11.324 -0.1037 -0.9043 -0.5392
   38MOL0     N 5047   9.751   8.663  11.274 -0.1565 -0.4566 -0.1888
   38MOL0     C 5048  10.560   9.017  10.437 -0.3726 -0.4413  0.3519
   38MOL0     C 5049  10.594   9.000  10.305  1.1926  0.6540 -0.6159
   38MOL0     C 5050  10.507   9.034   9.838  0.7591  0.6431  0.5555
   38MOL0     C 5051  10.429   9.030   9.720  0.2360 -0.1833 -0.0500
   38MOL0     C 5052  10.482   8.993   9.596 -0.8509  0.2173 -0.5819
   38MOL0     C 5053  10.616   8.959   9.578 -0.0648  0.7288  0.0530
   38MOL0     O 5054  10.686   8.940   9.458 -0.0787  0.0606 -0.0148
   38MOL0     C 5055  10.627   8.995   9.338 -0.2573  0.5483  0.6850
   38MOL0     C 5056  10.743   9.045   9.249  0.1872  1.1741 -0.0360
   38MOL0     C 5057  10.839   8.931   9.223 -1.1470 -0.0235 -0.0415
   38MOL0     C 5058  10.972   8.972   9.158 -0.2884 -0.6525  0.0592
   38MOL0     C 5059  10.941   9.051   9.038 -0.5895  0.3898  0.6095
   38MOL0     C 5060  10.924   9.135   8.947  0.7374 -0.4235  0.2457
   38MOL0     C 5061  10.696   8.966   9.692 -0.4120 -0.5570  0.0181
   38MOL0     C 5062  10.643   9.001   9.814 -0.5054 -0.8339 -1.0384
   38MOL0     H 5063  10.341   9.190  10.167 -2.0527 -0.4381  1.9160
   38MOL0     H 5064  10.302   9.241  10.382  0.9791  0.7093 -0.4033
   38MOL0     H 5065  10.279   9.240  10.659  1.1677  0.7754  1.5991
   38MOL0     H 5066  10.224   9.104  10.568  2.3776  0.8630 -1.9762
   38MOL0     H 5067  10.258   8.945  10.748 -0.6975  0.2643 -0.0648
   38MOL0     H 5068  10.355   9.065  10.839  0.9069 -0.8722 -0.7104
   38MOL0     H 5069  10.137   9.203  10.840  2.0876  0.3830  0.3763
   38MOL0     H 5070  10.048   9.046  10.794 -2.4283  1.5664  0.9836
   38MOL0     H 5071  10.105   8.929  10.975 -3.0219  0.8481 -2.6077
   38MOL0     H 5072  10.215   9.050  11.041  0.0790 -1.4420  0.2504
   38MOL0     H 5073  10.000   9.207  11.044 -1.2746  0.2835 -0.7368
   38MOL0     H 5074   9.910   9.060  11.010 -1.3494  1.8127  0.1763
   38MOL0     H 5075  10.120   9.076  11.234 -0.6764  1.4131 -0.8368
   38MOL0     H 5076   9.951   9.114  11.263  1.0672 -0.3781  3.2680
   38MOL0     H 5077   9.973   8.869  11.122 -0.6830 -1.6958  0.7171
   38MOL0     H 5078  10.087   8.871  11.261 -0.1215  2.2568  1.9933
   38MOL0     H 5079   9.779   8.925  11.315  0.6566  1.2335 -1.4485
   38MOL0     H 5080   9.907   8.913  11.421 -2.5713 -1.0005  1.2757
   38MOL0     H 5081  10.007   8.670  11.473  0.9189 -1.4194  1.2040
   38MOL0     H 5082   9.875   8.318  11.409  1.5084 -1.5819  2.3747
   38MOL0     H 5083   9.950   8.399  11.537  0.8037  1.3906  0.0619
   38MOL0     H 5084   9.646   8.344  11.494  0.0940 -0.5178 -0.0893
   38MOL0     H 5085   9.706   8.445  11.624  0.0442 -0.9681  1.3522
   38MOL0     H 5086   9.771   8.159  11.589  1.6382  0.7952 -0.0052
   38MOL0     H 5087   9.647   8.222  11.707  0.9223  0.7749  0.8451
   38MOL0     H 5088   9.784   8.320  11.845 -3.1874 -1.1169 -0.7742
   38MOL0     H 5089   9.930   8.295  11.743 -1.3657  1.4641 -0.4064
   38MOL0     H 5090   9.932   8.328  12.000 -2.2696  1.2835  0.8667
   38MOL0     H 5091   9.987   8.336  12.367  1.7712  1.4228  1.3441
   38MOL0     H 5092  10.136   8.346  12.280  0.4225  1.4779  1.0570
   38MOL0     H 5093   9.999   8.424  12.208  4.1576  0.1027 -2.0212
   38MOL0     H 5094  10.237   8.287  12.590 -0.5342  1.6263  0.6504
   38MOL0     H 5095  10.319   8.261  12.840 -0.3107 -3.1110  1.9282
   38MOL0     H 5096  10.045   7.994  13.077  0.1564 -0.6319  1.5742
   38MOL0     H 5097  10.201   7.923  13.044 -1.4938  0.0705 -3.1923
   38MOL0     H 5098  10.154   7.925  13.271 -1.3269 -1.2085 -2.3627
   38MOL0     H 5099  10.296   8.034  13.223  0.2369  0.5470  0.8831
   38MOL0     H 5100  10.029   8.110  13.333  1.3830 -2.7483 -0.8194
   38MOL0     H 5101  10.128   8.243  13.256 -1.3641  0.8358 -0.9297
   38MOL0     H 5102  10.153   8.210  13.518  0.1191  1.5514 -1.8130
   38MOL0     H 5103  10.222   8.052  13.478 -0.9394 -0.8197 -0.0061
   38MOL0     H 5104  10.337   8.319  13.388  0.3833 -1.1604 -1.5094
   38MOL0     H 5105  10.396   8.159  13.360 -2.3914 -1.1580 -0.6271
   38MOL0     H 5106  10.388   8.129  13.620 -1.5935  0.2049 -0.3598
   38MOL0     H 5107  10.523   8.221  13.561 -0.4410 -0.2963 -0.9441
   38MOL0     H 5108  10.416   8.318  13.760  2.0040 -4.1011 -0.5087
   38MOL0     H 5109  10.259   8.310  13.670 -0.0204  2.5016 -1.7254
   38MOL0     H 5110  10.372   8.497  13.518 -3.1616  0.6122 -0.3042
   38MOL0     H 5111  10.508   8.501  13.627 -0.5124  1.9218 -2.4186
   38MOL0     H 5112  10.003   7.964  12.876  1.6193  0.4856  2.0333
   38MOL0     H 5113   9.959   7.970  12.636 -1.2240  0.8703 -0.2725
   38MOL0     H 5114   9.913   7.872  12.187  1.3836 -1.2889 -2.1099
   38MOL0     H 5115   9.857   7.915  11.957 -0.7434  0.3050  0.2080
   38MOL0     H 5116  10.609   8.964  10.519 -0.1432 -1.8072 -0.6315
   38MOL0     H 5117  10.670   8.929  10.277 -0.7090 -1.6350 -0.2745
   38MOL0     H 5118  10.324   9.056   9.728  0.8621  2.2823  1.0858
   38MOL0     H 5119  10.413   8.982   9.512  0.3559  3.7069 -2.2000
   38MOL0     H 5120  10.564   8.919   9.291 -0.4185  1.2468 -0.2465
   38MOL0     H 5121  10.554   9.075   9.355 -0.1275  0.4940  1.5917
   38MOL0     H 5122  10.795   9.121   9.307  1.3588  0.4115 -0.0571
   38MOL0     H 5123  10.694   9.072   9.155 -2.2284  2.3576  1.4414
   38MOL0     H 5124  10.800   8.844   9.170  0.1137 -0.2301 -0.6723
   38MOL0     H 5125  10.877   8.889   9.317 -0.0419 -2.1674 -1.3841
   38MOL0     H 5126  11.036   8.889   9.128  1.4795 -0.4759  3.0121
   38MOL0     H 5127  11.035   9.040   9.216  0.0367  1.9149 -3.0078
   38MOL0     H 5128  10.922   9.208   8.868  0.3880  1.1159  1.6316
   38MOL0     H 5129  10.804   8.963   9.682 -0.3418  0.2179  0.4637
   38MOL0     H 5130  10.711   9.005   9.899 -1.6283  1.6749 -0.1559
   39MOL0     O 5131   3.410   9.113  11.419 -0.5892  0.3585 -0.0506
   39MOL0     C 5132   3.345   9.210  11.451 -0.4988 -0.4401  0.2389
   39MOL0     O 5133   3.231   9.256  11.392 -0.0204  0.0793  0.1247
   39MOL0     C 5134   3.172   9.183  11.291 -0.6656 -0.1501  0.7893
   39MOL0     C 5135   3.168   9.050  11.287  0.8370 -0.4021  0.4869
   39MOL0     C 5136   3.096   8.985  11.186 -0.6182 -0.1434  0.4889
   39MOL0     C 5137   3.028   9.054  11.092  0.8702  0.7603  0.8276
   39MOL0     O 5138   2.964   8.984  10.989  0.1394  0.1159 -0.5145
   39MOL0     C 5139   2.911   9.049  10.870  0.7346  0.0869 -1.0265
   39MOL0     C 5140   3.017   9.080  10.774  0.0802 -0.5491  0.1785
   39MOL0     C 5141   3.089   8.959  10.731  0.0317  0.4345  0.1153
   39MOL0     C 5142   3.231   8.997  10.683  0.2534  1.1074 -0.4483
   39MOL0     C 5143   3.319   8.885  10.629  1.4137  0.5804 -0.3263
   39MOL0     C 5144   3.410   8.932  10.526  0.0134 -0.1905 -0.1261
   39MOL0     C 5145   3.502   8.824  10.470 -1.3269 -0.8309  0.1624
   39MOL0     C 5146   3.590   8.888  10.356 -0.3655  0.0294  0.9338
   39MOL0     N 5147   3.683   8.785  10.325 -0.3574 -0.5281  0.1360
   39MOL0     C 5148   3.667   8.656  10.279  0.0195 -0.3027  0.0391
   39MOL0     C 5149   3.783   8.594  10.286  0.7221 -0.3925  0.2876
   39MOL0     C 5150   3.817   8.452  10.249 -0.0828 -1.2130 -0.6863
   39MOL0     C 5151   3.754   8.341  10.338 -0.2116 -0.6325  0.9727
   39MOL0     C 5152   3.829   8.206  10.347 -1.0095 -0.3913 -0.3685
   39MOL0     C 5153   3.850   8.139  10.213  0.3459  0.6362  0.4195
   39MOL0     O 5154   3.818   7.997  10.225  0.5778  0.1168 -0.2705
   39MOL0     C 5155   3.811   7.916  10.115  0.2525 -0.0658  0.4952
   39MOL0     C 5156   3.840   7.953   9.981  0.1297 -0.3113 -0.0652
   39MOL0     C 5157   3.799   7.886   9.872 -0.2281  0.0505  0.0382
   39MOL0     C 5158   3.853   7.944   9.737 -0.1765  0.5518  0.2268
   39MOL0     C 5159   3.714   7.775   9.886 -0.0770 -1.0313  1.0345
   39MOL0     C 5160   3.659   7.699   9.773 -0.4752  0.1987  0.9067
   39MOL0     O 5161   3.537   7.679   9.779  0.6790  0.2948 -0.4583
   39MOL0     C 5162   3.464   7.580   9.709 -0.1711  0.0317 -0.0661
   39MOL0     C 5163   3.507   7.503   9.595  0.1939  0.3609 -0.1778
   39MOL0     C 5164   3.431   7.389   9.560  0.8715  0.1761  0.1643
   39MOL0     C 5165   3.317   7.351   9.629 -0.3616 -0.6417 -1.0856
   39MOL0     O 5166   3.263   7.228   9.588 -0.1137 -0.3590  0.0116
   39MOL0     C 5167   3.188   7.148   9.677  0.1888 -0.1277  0.5345
   39MOL0     C 5168   3.080   7.077   9.600 -1.1048 -0.3414  0.0902
   39MOL0     C 5169   3.001   7.179   9.517 -0.6160  0.0702 -0.3398
   39MOL0     C 5170   2.881   7.125   9.448  0.3309 -0.5176 -0.1487
   39MOL0     C 5171   2.810   7.241   9.368  0.4529 -0.3633  0.1791
   39MOL0     C 5172   2.682   7.204   9.292 -0.7283  0.1318 -0.3966
   39MOL0     C 5173   2.573   7.142   9.398  0.3572  0.2632  0.3765
   39MOL0     C 5174   2.430   7.152   9.343 -0.1434 -0.5186 -0.8612
   39MOL0    Cl 5175   2.325   7.121   9.481 -0.4577 -0.2029 -0.1516
   39MOL0     C 5176   3.266   7.449   9.716  0.9602 -0.4281 -0.4292
   39MOL0     C 5177   3.342   7.558   9.761 -0.0193  0.9652  1.2006
   39MOL0     O 5178   3.733   7.662   9.681  0.3744  0.4774 -0.4093
   39MOL0     C 5179   3.684   7.723  10.011  0.9994  0.4711 -0.2631
   39MOL0     C 5180   3.729   7.800  10.121 -0.4682 -0.9351 -0.3175
   39MOL0     N 5181   3.874   8.682  10.337  0.5151  0.7026 -0.2656
   39MOL0     N 5182   3.816   8.800  10.350  0.0089  0.5029 -1.2752
   39MOL0     C 5183   3.048   9.192  11.090  0.1780  0.8600  0.3178
   39MOL0     C 5184   3.120   9.265  11.190  0.0079  1.0866 -0.5822
   39MOL0     C 5185   3.411   9.295  11.554 -0.4477  0.4999 -0.4180
   39MOL0     C 5186   3.345   9.407  11.600  0.3873 -0.6320  0.3932
   39MOL0     C 5187   3.389   9.502  11.695 -0.0729  0.6363  0.2830
   39MOL0     C 5188   3.522   9.485  11.739 -0.3637 -0.1585 -0.3981
   39MOL0     O 5189   3.567   9.572  11.839  1.1618  0.1963 -1.0201
   39MOL0     C 5190   3.695   9.547  11.899 -0.6227  0.0741  1.1145
   39MOL0     C 5191   3.817   9.612  11.819  0.2403 -0.6691 -0.1371
   39MOL0     C 5192   3.946   9.573  11.881  0.4609 -1.1946  0.1189
   39MOL0     C 5193   3.970   9.604  12.027 -0.3581  0.3110 -0.3533
   39MOL0     C 5194   4.118   9.594  12.062 -0.0595 -0.4827  0.1857
   39MOL0     C 5195   4.218   9.570  12.126  0.1983 -0.1994  0.5897
   39MOL0     C 5196   3.593   9.366  11.699 -0.6234  0.4074 -0.1199
   39MOL0     C 5197   3.535   9.271  11.604  0.4414  0.2960  0.3007
   39MOL0     H 5198   3.215   8.997  11.370 -0.2157  1.4397  2.3433
   39MOL0     H 5199   3.100   8.878  11.173 -0.3938  0.1592 -2.5868
   39MOL0     H 5200   2.823   9.003  10.824 -0.5597  2.7502 -1.4329
   39MOL0     H 5201   2.872   9.148  10.897  3.2512  1.1939 -1.2074
   39MOL0     H 5202   2.980   9.138  10.690  3.7393  2.2541  0.2434
   39MOL0     H 5203   3.088   9.142  10.830  0.2203 -2.2265  1.9766
   39MOL0     H 5204   3.089   8.883  10.810  1.9672  0.9675  0.6821
   39MOL0     H 5205   3.040   8.908  10.647  0.6186  0.0565 -0.0001
   39MOL0     H 5206   3.210   9.074  10.609  1.0984  3.9378  2.0843
   39MOL0     H 5207   3.284   9.045  10.766 -4.1888  2.7515  1.7793
   39MOL0     H 5208   3.367   8.841  10.718  0.6288 -2.5872 -1.3192
   39MOL0     H 5209   3.253   8.804  10.595  1.2356 -0.1600  1.6034
   39MOL0     H 5210   3.345   8.948  10.440  0.2725  2.2130  0.0775
   39MOL0     H 5211   3.459   9.023  10.561 -2.1568  0.6313  0.9602
   39MOL0     H 5212   3.572   8.794  10.548  0.9072 -2.4045 -2.2670
   39MOL0     H 5213   3.442   8.734  10.450 -2.2628  0.1213 -1.5658
   39MOL0     H 5214   3.635   8.974  10.407  1.7605 -0.6208  0.2575
   39MOL0     H 5215   3.528   8.919  10.271 -1.3873  0.6460  1.8760
   39MOL0     H 5216   3.572   8.618  10.241  0.6703  0.5509 -2.7104
   39MOL0     H 5217   3.793   8.448  10.142  1.5737  4.3039 -1.5980
   39MOL0     H 5218   3.924   8.451  10.269 -0.6123  1.5506  3.4134
   39MOL0     H 5219   3.652   8.323  10.304  0.3469  1.3117 -2.1284
   39MOL0     H 5220   3.749   8.377  10.441  0.8164 -1.9822  1.5299
   39MOL0     H 5221   3.765   8.141  10.407  1.3693 -2.3316  0.2875
   39MOL0     H 5222   3.929   8.217  10.390 -0.8122 -1.4106 -0.5291
   39MOL0     H 5223   3.953   8.147  10.175  0.2602 -0.4873 -0.0881
   39MOL0     H 5224   3.779   8.187  10.145  1.5754 -1.4893 -2.6001
   39MOL0     H 5225   3.878   8.054   9.970 -0.9486 -0.1212 -3.2649
   39MOL0     H 5226   3.945   7.996   9.767 -1.7022  1.4411  3.8724
   39MOL0     H 5227   3.877   7.865   9.665  1.9359  0.5769  0.8104
   39MOL0     H 5228   3.784   8.020   9.702 -0.8927  0.2860  1.0386
   39MOL0     H 5229   3.605   7.508   9.550  3.2386 -0.1492  5.5514
   39MOL0     H 5230   3.450   7.319   9.479  0.1793 -1.1902  1.1406
   39MOL0     H 5231   3.259   7.085   9.731  1.1627  1.0451  0.6821
   39MOL0     H 5232   3.133   7.200   9.756  0.9463  1.1514  0.2591
   39MOL0     H 5233   3.115   7.010   9.521  0.0590  2.9014 -2.3729
   39MOL0     H 5234   3.024   7.017   9.673  1.8058  1.3485  4.1217
   39MOL0     H 5235   3.065   7.222   9.439  2.4886 -1.2133  1.2961
   39MOL0     H 5236   2.981   7.256   9.592  1.1392  0.6932 -0.4583
   39MOL0     H 5237   2.904   7.039   9.384 -0.1458  0.1132 -1.1926
   39MOL0     H 5238   2.815   7.088   9.527 -0.2975  0.4298 -0.2217
   39MOL0     H 5239   2.885   7.285   9.301 -0.5854 -1.4469 -1.7741
   39MOL0     H 5240   2.791   7.320   9.442 -0.6752 -1.7904  1.4806
   39MOL0     H 5241   2.640   7.294   9.246  1.2064  1.6998  0.7556
   39MOL0     H 5242   2.701   7.140   9.205 -1.7732 -0.2204 -0.3849
   39MOL0     H 5243   2.569   7.198   9.492 -2.1713  2.2261 -0.7827
   39MOL0     H 5244   2.591   7.037   9.419  2.1358 -0.1881 -2.8768
   39MOL0     H 5245   2.411   7.078   9.265 -2.3046  0.0876 -0.9759
   39MOL0     H 5246   2.401   7.251   9.307 -5.1855 -0.5192  2.3219
   39MOL0     H 5247   3.166   7.421   9.749  1.7677 -2.7049  0.3149
   39MOL0     H 5248   3.296   7.623   9.833 -1.5676  1.1749  0.0722
   39MOL0     H 5249   3.644   7.623  10.026 -1.1878  0.9492 -2.2894
   39MOL0     H 5250   3.703   7.763  10.220 -0.3306  1.2044  0.5663
   39MOL0     H 5251   2.989   9.254  11.023 -2.3078 -0.2949  1.3190
   39MOL0     H 5252   3.135   9.372  11.195 -0.1144  1.0790  3.6182
   39MOL0     H 5253   3.251   9.430  11.551  1.7427  1.8163 -1.2663
   39MOL0     H 5254   3.335   9.590  11.728  1.1793  0.2352  3.8189
   39MOL0     H 5255   3.700   9.592  11.999  1.8072 -1.2798  1.6990
   39MOL0     H 5256   3.728   9.446  11.927  1.3925  0.0280 -1.1413
   39MOL0     H 5257   3.806   9.721  11.831 -2.3779 -0.9145  0.1812
   39MOL0     H 5258   3.809   9.585  11.713 -4.2443  1.8786 -0.6816
   39MOL0     H 5259   4.031   9.628  11.838 -2.3323  2.6292 -1.0287
   39MOL0     H 5260   3.963   9.468  11.856 -1.1724 -1.1653 -1.2527
   39MOL0     H 5261   3.917   9.530  12.088  0.7010 -0.4157 -0.2844
   39MOL0     H 5262   3.935   9.707  12.044 -0.2393  0.9674 -3.5129
   39MOL0     H 5263   4.306   9.553  12.185 -0.9971 -1.6753  2.0227
   39MOL0     H 5264   3.696   9.349  11.730 -0.0819  1.2002 -1.3790
   39MOL0     H 5265   3.580   9.176  11.576  0.0649  0.3471 -0.5298
   40MOL0     O 5266   3.162   8.559   3.935  0.6938  0.0303 -0.5335
   40MOL0     C 5267   3.089   8.513   3.842 -0.0107  0.0980  0.4796
   40MOL0     O 5268   3.102   8.559   3.709  0.0706  0.1529 -0.2170
   40MOL0     C 5269   3.196   8.655   3.688 -0.2531  0.6387  0.6418
   40MOL0     C 5270   3.303   8.640   3.598  0.3753  0.1830 -0.1454
   40MOL0     C 5271   3.390   8.741   3.554 -0.2893 -0.7589 -1.0393
   40MOL0     C 5272   3.376   8.868   3.613  0.2321 -0.6080 -0.1139
   40MOL0     O 5273   3.472   8.963   3.578 -0.1997 -0.2014  0.1261
   40MOL0     C 5274   3.481   9.093   3.641  0.9580 -1.0417  0.6441
   40MOL0     C 5275   3.562   9.090   3.757  0.1128 -0.2680  0.5125
   40MOL0     C 5276   3.708   9.050   3.729 -0.4486 -0.0570 -0.9074
   40MOL0     C 5277   3.786   9.026   3.859  0.3425 -0.3880  0.5364
   40MOL0     C 5278   3.781   8.891   3.926  0.2790  0.5055 -0.1666
   40MOL0     C 5279   3.885   8.860   4.031  0.2425  0.3988  0.1204
   40MOL0     C 5280   3.874   8.945   4.157  0.7819  0.4438  0.9638
   40MOL0     C 5281   3.976   8.897   4.266 -0.3048 -0.1877  0.1112
   40MOL0     N 5282   3.921   8.818   4.378 -0.2242  0.1960  0.5819
   40MOL0     C 5283   3.916   8.685   4.380  0.2320 -0.2044 -0.0404
   40MOL0     C 5284   3.859   8.656   4.498 -0.0323  0.2177 -0.8338
   40MOL0     C 5285   3.852   8.518   4.549  0.5641 -0.4748  0.1209
   40MOL0     C 5286   3.711   8.466   4.519 -0.6044  0.0960 -0.4511
   40MOL0     C 5287   3.677   8.330   4.582  0.5172 -0.1113 -0.1598
   40MOL0     C 5288   3.739   8.206   4.532 -0.4362 -0.7940 -0.0934
   40MOL0     O 5289   3.713   8.089   4.596  0.8957  0.5610  0.3619
   40MOL0     C 5290   3.616   8.005   4.557 -0.2212 -0.2794  0.6031
   40MOL0     C 5291   3.500   8.037   4.481  0.6869 -0.0309 -0.0202
   40MOL0     C 5292   3.403   7.939   4.459  0.6321 -0.3086 -0.0761
   40MOL0     C 5293   3.296   7.977   4.350 -1.0217  0.0799 -0.6757
   40MOL0     C 5294   3.404   7.813   4.529 -0.4446 -0.0633  0.5003
   40MOL0     C 5295   3.295   7.713   4.513 -0.5132 -0.1918 -0.7801
   40MOL0     O 5296   3.338   7.575   4.486 -0.0628 -0.9564  0.0834
   40MOL0     C 5297   3.240   7.484   4.467 -0.8076  0.5934 -0.3738
   40MOL0     C 5298   3.265   7.366   4.525 -0.2430 -0.8554 -0.8442
   40MOL0     C 5299   3.171   7.254   4.510 -0.4528 -0.8997 -0.5146
   40MOL0     C 5300   3.060   7.266   4.431 -0.0318 -0.5946 -0.4112
   40MOL0     O 5301   2.975   7.155   4.435  0.3814  0.3919  1.0728
   40MOL0     C 5302   2.858   7.148   4.348 -0.6247  0.4096  0.2090
   40MOL0     C 5303   2.741   7.224   4.410  0.1096  0.0898  0.1323
   40MOL0     C 5304   2.612   7.225   4.327  1.3500  0.2355 -0.7965
   40MOL0     C 5305   2.560   7.081   4.298  0.1108 -0.4266 -0.8705
   40MOL0     C 5306   2.422   7.063   4.231  0.6381 -0.2036  0.0972
   40MOL0     C 5307   2.408   7.140   4.094 -0.4817  0.8044 -0.6799
   40MOL0     C 5308   2.262   7.131   4.054  0.3118  0.5172  0.6187
   40MOL0     C 5309   2.215   6.987   4.021  0.7911 -0.3779  0.2102
   40MOL0    Cl 5310   2.329   6.868   3.931  0.4727  0.3578  0.2134
   40MOL0     C 5311   3.040   7.385   4.356 -0.2923 -0.1582 -0.3971
   40MOL0     C 5312   3.138   7.486   4.379 -0.4034  1.1862  0.2077
   40MOL0     O 5313   3.181   7.754   4.515 -0.7183  1.2428  0.4471
   40MOL0     C 5314   3.512   7.779   4.604 -0.5637  0.9630  0.6942
   40MOL0     C 5315   3.616   7.877   4.619  0.2380 -0.1307 -0.3443
   40MOL0     N 5316   3.831   8.771   4.570  0.3152 -0.0027  0.3597
   40MOL0     N 5317   3.886   8.862   4.504 -0.7117 -0.6111  0.9294
   40MOL0     C 5318   3.278   8.877   3.708  0.1441 -0.3967 -0.1435
   40MOL0     C 5319   3.179   8.783   3.741 -1.0035  1.1377 -0.0436
   40MOL0     C 5320   2.992   8.417   3.875  0.2381 -0.2604  1.5716
   40MOL0     C 5321   2.979   8.348   4.008  0.1467 -0.2407  0.1469
   40MOL0     C 5322   2.865   8.268   4.046 -0.2789 -0.4680  0.3384
   40MOL0     C 5323   2.756   8.250   3.961 -0.8918 -0.0278  0.0675
   40MOL0     O 5324   2.653   8.173   4.009 -0.1769  0.1118  0.3117
   40MOL0     C 5325   2.550   8.135   3.914 -0.6074 -0.3069 -0.6981
   40MOL0     C 5326   2.433   8.063   3.986 -0.1040 -0.1746 -1.3307
   40MOL0     C 5327   2.325   8.016   3.882 -1.1545  0.8022  0.2621
   40MOL0     C 5328   2.215   7.945   3.960  0.2071 -0.0474  0.1714
   40MOL0     C 5329   2.083   7.951   3.894 -0.8338 -0.2566 -0.5528
   40MOL0     C 5330   1.981   7.960   3.828  0.5348  0.6179  0.0061
   40MOL0     C 5331   2.768   8.314   3.829  0.2009  0.5466 -0.2719
   40MOL0     C 5332   2.876   8.394   3.790 -0.5706  0.9149 -0.1626
   40MOL0     H 5333   3.317   8.542   3.554 -0.4131  1.4213 -3.5057
   40MOL0     H 5334   3.471   8.726   3.483 -0.2188  0.1170 -1.1529
   40MOL0     H 5335   3.530   9.161   3.571 -0.0002 -3.2311 -2.3825
   40MOL0     H 5336   3.379   9.128   3.661  0.8463 -1.2270  0.4168
   40MOL0     H 5337   3.558   9.194   3.792 -2.2150  0.7821 -2.4727
   40MOL0     H 5338   3.512   9.030   3.834  0.5274 -0.0905  0.9310
   40MOL0     H 5339   3.711   8.964   3.661  0.2933 -0.1098 -0.8185
   40MOL0     H 5340   3.757   9.140   3.689  3.8863 -0.7663  2.1353
   40MOL0     H 5341   3.890   9.038   3.826 -0.4584 -1.3617 -2.7323
   40MOL0     H 5342   3.775   9.118   3.917  0.1605  1.7626 -2.6314
   40MOL0     H 5343   3.680   8.886   3.967 -0.1045  1.9630 -0.8726
   40MOL0     H 5344   3.778   8.817   3.845 -1.3880 -0.3136  0.5947
   40MOL0     H 5345   3.877   8.754   4.058  1.4928 -0.7804 -3.5084
   40MOL0     H 5346   3.987   8.880   3.997  0.5191 -0.5134  0.3878
   40MOL0     H 5347   3.891   9.050   4.130 -4.2306  1.3849  0.4602
   40MOL0     H 5348   3.775   8.950   4.202 -0.1020  0.8654 -0.9375
   40MOL0     H 5349   4.029   8.987   4.299  0.2972 -1.5728  3.2944
   40MOL0     H 5350   4.057   8.838   4.222  1.1615  0.0834  2.2903
   40MOL0     H 5351   3.936   8.609   4.305 -1.9902 -0.7946 -0.0867
   40MOL0     H 5352   3.922   8.453   4.495  2.3296 -1.2600  3.1270
   40MOL0     H 5353   3.885   8.510   4.653  0.4174 -0.4681  0.1675
   40MOL0     H 5354   3.691   8.455   4.412 -1.3689 -5.5128 -0.0577
   40MOL0     H 5355   3.641   8.544   4.547 -0.7465  0.0539 -0.6918
   40MOL0     H 5356   3.569   8.321   4.597  0.6427  1.1798  1.8970
   40MOL0     H 5357   3.706   8.342   4.686 -1.6779 -2.9559  0.9144
   40MOL0     H 5358   3.846   8.229   4.536 -0.6736  0.4430 -0.4204
   40MOL0     H 5359   3.726   8.201   4.424  0.7038 -0.7368 -0.2377
   40MOL0     H 5360   3.490   8.127   4.422  0.8882 -0.1288 -0.2112
   40MOL0     H 5361   3.245   7.895   4.299 -0.3858 -0.4028 -0.5401
   40MOL0     H 5362   3.223   8.051   4.384  0.2331  0.6299  0.9135
   40MOL0     H 5363   3.350   8.032   4.272 -0.3138  0.6082  0.1710
   40MOL0     H 5364   3.351   7.367   4.591  1.0234 -1.7951 -2.3933
   40MOL0     H 5365   3.188   7.162   4.565 -3.0862 -0.8579  0.5592
   40MOL0     H 5366   2.883   7.185   4.248  1.5961 -2.6570 -0.5038
   40MOL0     H 5367   2.838   7.042   4.330  1.1866 -0.1603  1.2674
   40MOL0     H 5368   2.716   7.179   4.506  1.2567  0.5372  0.6532
   40MOL0     H 5369   2.764   7.331   4.417  0.0903  0.0952  0.1136
   40MOL0     H 5370   2.623   7.282   4.234  1.6312 -1.1210 -1.6195
   40MOL0     H 5371   2.540   7.283   4.385  1.6861  0.1112 -0.2492
   40MOL0     H 5372   2.631   7.044   4.223 -1.5514 -0.4996 -2.4917
   40MOL0     H 5373   2.569   7.021   4.389  2.1797  0.8283 -0.1874
   40MOL0     H 5374   2.354   7.108   4.303  1.3496 -0.7103  1.1070
   40MOL0     H 5375   2.407   6.956   4.218  2.2085 -0.7091  1.9870
   40MOL0     H 5376   2.436   7.244   4.115 -0.3443  0.5228  0.6215
   40MOL0     H 5377   2.476   7.099   4.019 -1.1254 -0.7470 -0.4369
   40MOL0     H 5378   2.236   7.194   3.968 -0.6370 -1.7414 -0.8608
   40MOL0     H 5379   2.188   7.158   4.130 -2.1109 -0.6264 -1.1711
   40MOL0     H 5380   2.117   6.999   3.973  0.3548  0.1789  1.2105
   40MOL0     H 5381   2.192   6.929   4.111 -1.6594 -0.2304 -0.2425
   40MOL0     H 5382   2.963   7.391   4.280 -0.0760 -0.4878 -0.6479
   40MOL0     H 5383   3.129   7.573   4.315 -1.4514  0.1798 -1.0600
   40MOL0     H 5384   3.528   7.683   4.650 -1.5754  0.0122 -0.8421
   40MOL0     H 5385   3.710   7.850   4.668 -0.0338 -0.5066 -0.0200
   40MOL0     H 5386   3.263   8.970   3.763 -1.2439 -1.6249  1.7186
   40MOL0     H 5387   3.102   8.805   3.815  0.4054  0.3839  1.7262
   40MOL0     H 5388   3.056   8.371   4.081  0.8194 -0.2722 -0.5275
   40MOL0     H 5389   2.872   8.218   4.142  1.6987  0.8075  0.9388
   40MOL0     H 5390   2.504   8.220   3.864 -1.3551  1.5751  2.8409
   40MOL0     H 5391   2.600   8.069   3.842  3.1334  1.6649 -0.1425
   40MOL0     H 5392   2.398   8.124   4.069  4.1063 -0.4517  0.9132
   40MOL0     H 5393   2.478   7.977   4.038  3.6644  3.3698  1.9752
   40MOL0     H 5394   2.374   7.953   3.808 -1.9201  0.8299 -0.2785
   40MOL0     H 5395   2.285   8.094   3.816  0.5801  0.1772 -1.6211
   40MOL0     H 5396   2.204   7.995   4.057  1.7282  2.7371 -0.9790
   40MOL0     H 5397   2.250   7.842   3.975  1.2918  0.1284 -0.9796
   40MOL0     H 5398   1.891   7.968   3.770 -0.0505 -0.9731  0.6236
   40MOL0     H 5399   2.683   8.295   3.766  0.8909  0.0716 -1.0767
   40MOL0     H 5400   2.873   8.449   3.696 -0.3189  0.7061 -0.2948
   41MOL0     O 5401  10.197   5.153  10.151  0.8479  0.2639  0.1672
   41MOL0     C 5402  10.139   5.189  10.253 -0.5517  0.9131 -0.8655
   41MOL0     O 5403  10.127   5.317  10.300  0.5356 -0.0181 -0.5343
   41MOL0     C 5404  10.185   5.425  10.234 -0.3265 -1.0395  0.3350
   41MOL0     C 5405  10.119   5.550  10.227  0.3228  0.4197  0.7039
   41MOL0     C 5406  10.185   5.663  10.170  0.0266  0.5780 -0.0601
   41MOL0     C 5407  10.312   5.646  10.125  0.1298  0.3891  0.5243
   41MOL0     O 5408  10.387   5.752  10.071 -0.0464  0.4402 -0.4685
   41MOL0     C 5409  10.333   5.887  10.068  0.0658  0.1827 -0.4423
   41MOL0     C 5410  10.433   6.000  10.033  0.0413  0.7777 -0.1125
   41MOL0     C 5411  10.352   6.133  10.027 -0.3734  0.2648 -0.4524
   41MOL0     C 5412  10.461   6.248  10.027  0.5059  0.1817  0.1435
   41MOL0     C 5413  10.544   6.239   9.896 -0.7245 -1.7314  0.5420
   41MOL0     C 5414  10.633   6.360   9.897 -0.1725 -0.1503  1.2153
   41MOL0     C 5415  10.754   6.347   9.801 -0.2448  0.2582 -0.6066
   41MOL0     C 5416  10.806   6.494   9.794 -0.4596  0.0684  0.2130
   41MOL0     N 5417  10.939   6.506   9.738  0.1313  0.2156 -0.9150
   41MOL0     C 5418  11.022   6.408   9.683 -0.4152 -0.2933  0.2881
   41MOL0     C 5419  11.118   6.476   9.616  0.2640  0.1130 -0.4248
   41MOL0     C 5420  11.229   6.420   9.541  0.1258  0.4308 -0.4285
   41MOL0     C 5421  11.252   6.472   9.402  0.6671 -0.1097  0.2705
   41MOL0     C 5422  11.382   6.420   9.334  0.1493 -0.2240 -0.0509
   41MOL0     C 5423  11.511   6.491   9.370  0.7943 -0.9162 -0.8235
   41MOL0     O 5424  11.613   6.445   9.284  0.2949 -0.0626 -0.2064
   41MOL0     C 5425  11.738   6.489   9.292  0.4495  0.3208 -0.5259
   41MOL0     C 5426  11.833   6.418   9.220  0.5361 -0.4478  0.1242
   41MOL0     C 5427  11.968   6.451   9.212 -0.4751  0.8630 -0.5230
   41MOL0     C 5428  12.060   6.344   9.136  0.3533  0.1344 -0.3453
   41MOL0     C 5429  12.008   6.565   9.288  0.3166 -0.1877  0.0862
   41MOL0     C 5430  12.146   6.616   9.299  0.1298 -0.2724  0.3707
   41MOL0     O 5431  12.178   6.710   9.391 -0.3890 -0.1594 -0.3990
   41MOL0     C 5432  12.285   6.790   9.365 -0.2347  0.9827  0.0074
   41MOL0     C 5433  12.304   6.865   9.251 -0.3185 -0.2194  0.5326
   41MOL0     C 5434  12.412   6.950   9.239 -0.2558 -0.5416  0.1788
   41MOL0     C 5435  12.504   6.972   9.339  0.0045 -0.2571 -0.6206
   41MOL0     O 5436  12.609   7.051   9.346 -0.4685  0.1030  0.4090
   41MOL0     C 5437  12.613   7.182   9.286 -0.1630 -0.3174 -0.5057
   41MOL0     C 5438  12.720   7.252   9.360 -0.6855  0.3405 -0.4556
   41MOL0     C 5439  12.733   7.399   9.310 -0.4301  0.2384  0.2621
   41MOL0     C 5440  12.635   7.498   9.374  0.7463  1.1104  1.0181
   41MOL0     C 5441  12.655   7.640   9.335  0.1140  0.4331  0.5669
   41MOL0     C 5442  12.778   7.696   9.388 -0.3217 -0.7003 -0.4131
   41MOL0     C 5443  12.801   7.669   9.543 -0.8616 -0.0968  0.4488
   41MOL0     C 5444  12.929   7.738   9.584  0.3090 -0.2054  0.1752
   41MOL0    Cl 5445  12.926   7.771   9.769  0.0365 -0.1014  0.1702
   41MOL0     C 5446  12.491   6.889   9.454  0.7452 -0.6999 -0.0395
   41MOL0     C 5447  12.380   6.799   9.468  0.1540 -0.0600  0.8770
   41MOL0     O 5448  12.234   6.558   9.235  0.2294  0.3616  0.0801
   41MOL0     C 5449  11.912   6.635   9.363 -1.2347  0.0210 -0.1652
   41MOL0     C 5450  11.778   6.599   9.365  0.6065 -0.4723 -0.2555
   41MOL0     N 5451  11.104   6.615   9.639  0.4997  0.1315  0.3926
   41MOL0     N 5452  11.006   6.623   9.720  0.8255  0.0252 -1.2231
   41MOL0     C 5453  10.378   5.524  10.126  0.5558 -0.1667 -0.0023
   41MOL0     C 5454  10.319   5.417  10.193 -0.4252  0.4640  0.5721
   41MOL0     C 5455  10.050   5.077  10.313  0.8018 -0.7159 -0.2319
   41MOL0     C 5456   9.969   5.103  10.427 -0.5423 -0.0943 -0.1067
   41MOL0     C 5457   9.875   5.005  10.463  0.0465  0.2331  0.3567
   41MOL0     C 5458   9.862   4.876  10.399  0.5617 -1.0105 -0.3863
   41MOL0     O 5459   9.776   4.777  10.434 -0.2498  0.0917  0.2799
   41MOL0     C 5460   9.663   4.796  10.526  0.5640  0.1349 -0.5879
   41MOL0     C 5461   9.548   4.879  10.460  0.3800 -0.1366 -0.5559
   41MOL0     C 5462   9.427   4.887  10.547 -0.6449 -0.2018 -0.1774
   41MOL0     C 5463   9.374   5.029  10.560  0.4085 -0.2022  0.9082
   41MOL0     C 5464   9.474   5.112  10.624  0.0276  0.1189  0.5793
   41MOL0     C 5465   9.551   5.196  10.681  0.2166  0.1058  0.3133
   41MOL0     C 5466   9.951   4.846  10.294  0.4575 -1.5945  0.3643
   41MOL0     C 5467  10.044   4.950  10.257  0.6666  0.7231  0.7948
   41MOL0     H 5468  10.018   5.573  10.258  0.2957  2.1225 -0.5517
   41MOL0     H 5469  10.125   5.753  10.166 -0.2809  0.3359 -2.7406
   41MOL0     H 5470  10.250   5.903   9.998  1.3788  2.7632 -1.5816
   41MOL0     H 5471  10.287   5.902  10.166 -1.7244 -0.8552 -1.0921
   41MOL0     H 5472  10.497   6.003  10.122 -0.0245 -3.5446  0.2860
   41MOL0     H 5473  10.490   5.969   9.945  1.5482 -2.2359  1.7330
   41MOL0     H 5474  10.303   6.139   9.929  2.6482 -1.3233 -2.2087
   41MOL0     H 5475  10.289   6.140  10.116 -5.7505 -3.6573 -3.2978
   41MOL0     H 5476  10.411   6.341  10.053  1.3499  0.0781  2.3805
   41MOL0     H 5477  10.531   6.239  10.110 -2.2096  2.2070  2.8527
   41MOL0     H 5478  10.600   6.146   9.892  0.9708 -0.7083 -1.9647
   41MOL0     H 5479  10.481   6.247   9.807  1.1599 -2.2367 -0.8973
   41MOL0     H 5480  10.571   6.447   9.872  0.0506  0.3206  2.2504
   41MOL0     H 5481  10.684   6.370   9.993  1.3662  5.8133  0.1551
   41MOL0     H 5482  10.831   6.282   9.844  1.1749 -0.4687 -3.9562
   41MOL0     H 5483  10.724   6.313   9.701 -0.0379 -0.2123 -0.5115
   41MOL0     H 5484  10.805   6.542   9.892 -1.1624  3.7022 -1.4203
   41MOL0     H 5485  10.743   6.556   9.729  0.8410  0.5801 -0.6118
   41MOL0     H 5486  11.012   6.299   9.685 -0.5939 -0.2702  0.8259
   41MOL0     H 5487  11.319   6.444   9.599 -0.2971 -1.7148  1.2534
   41MOL0     H 5488  11.213   6.312   9.530 -1.5402  0.4917  0.9994
   41MOL0     H 5489  11.260   6.581   9.410 -0.2095 -0.1196  1.6912
   41MOL0     H 5490  11.166   6.450   9.338  0.4669 -0.7547  0.7425
   41MOL0     H 5491  11.366   6.400   9.228  0.5508 -1.6047  0.1289
   41MOL0     H 5492  11.401   6.317   9.364 -1.6811 -0.4011  0.5967
   41MOL0     H 5493  11.543   6.464   9.472  1.0662  3.6398  0.5279
   41MOL0     H 5494  11.511   6.600   9.373  1.1523 -0.8440  3.2221
   41MOL0     H 5495  11.790   6.333   9.167 -2.7616  1.1331 -0.0087
   41MOL0     H 5496  12.132   6.397   9.073 -1.9187  2.7529 -0.9791
   41MOL0     H 5497  12.113   6.276   9.203 -0.1381 -3.2770 -3.1522
   41MOL0     H 5498  11.994   6.286   9.071 -1.2178  0.2766  1.0564
   41MOL0     H 5499  12.234   6.856   9.169 -2.1206 -1.0945  2.0659
   41MOL0     H 5500  12.423   6.988   9.138 -0.7169 -3.2222 -0.9668
   41MOL0     H 5501  12.639   7.176   9.180 -0.0468  1.1913 -0.5829
   41MOL0     H 5502  12.517   7.233   9.283 -1.3075 -2.3951 -1.5025
   41MOL0     H 5503  12.697   7.252   9.467  2.3959 -2.7787  0.3678
   41MOL0     H 5504  12.822   7.214   9.365 -0.3228  1.4135  1.7601
   41MOL0     H 5505  12.720   7.395   9.201  0.5208 -2.7799  0.1882
   41MOL0     H 5506  12.837   7.432   9.319  0.7044 -1.9004 -3.0631
   41MOL0     H 5507  12.534   7.472   9.342  1.0109  0.3041  0.8230
   41MOL0     H 5508  12.622   7.481   9.481 -2.3027 -4.2011  0.1573
   41MOL0     H 5509  12.562   7.687   9.370 -1.7961 -1.9302 -1.0132
   41MOL0     H 5510  12.667   7.657   9.228 -1.8158  1.2154  0.4254
   41MOL0     H 5511  12.869   7.658   9.340  0.2004  1.2951 -1.1227
   41MOL0     H 5512  12.780   7.804   9.371 -2.4976  0.5855  5.2282
   41MOL0     H 5513  12.802   7.563   9.569 -1.7074  0.4290  2.9576
   41MOL0     H 5514  12.715   7.702   9.602 -0.2940 -1.9007  2.4204
   41MOL0     H 5515  12.940   7.834   9.533 -1.0225 -0.1424 -0.0221
   41MOL0     H 5516  13.012   7.672   9.556  1.2811  0.8984  0.3755
   41MOL0     H 5517  12.561   6.884   9.537  0.4175  3.1371  0.6201
   41MOL0     H 5518  12.369   6.731   9.552 -1.7917  0.4096  1.0441
   41MOL0     H 5519  11.947   6.726   9.411 -2.5705 -0.3860  1.6776
   41MOL0     H 5520  11.712   6.665   9.421  4.1937  1.4225  2.1557
   41MOL0     H 5521  10.479   5.520  10.088 -0.0240 -0.3423 -1.5770
   41MOL0     H 5522  10.374   5.323  10.188 -0.5359  0.4431 -0.5781
   41MOL0     H 5523   9.976   5.195  10.483 -2.3405  0.7116 -1.1396
   41MOL0     H 5524   9.827   5.025  10.559 -0.0454 -1.9327  0.8046
   41MOL0     H 5525   9.615   4.699  10.543  0.1534  0.7475  2.3990
   41MOL0     H 5526   9.697   4.831  10.624  4.3189  0.0181 -1.6906
   41MOL0     H 5527   9.523   4.810  10.379  0.4700 -2.6681  1.4362
   41MOL0     H 5528   9.574   4.969  10.404 -3.7939 -1.0153 -4.4488
   41MOL0     H 5529   9.446   4.854  10.650  0.6480 -1.6279 -0.8222
   41MOL0     H 5530   9.358   4.812  10.507  2.6208 -2.9573 -1.2080
   41MOL0     H 5531   9.291   5.028  10.631 -0.9804 -0.7475 -0.6838
   41MOL0     H 5532   9.345   5.065  10.461  5.1970 -3.5782 -2.2168
   41MOL0     H 5533   9.606   5.271  10.733  2.6718 -1.6034  0.4029
   41MOL0     H 5534   9.924   4.761  10.231 -0.5793  0.5981 -2.3919
   41MOL0     H 5535  10.105   4.935  10.168  2.3924 -2.8392  2.3836
   42MOL0     O 5536   0.628   8.385   2.437 -0.0123  0.7510  0.0029
   42MOL0     C 5537   0.653   8.471   2.525  1.3155  0.4923  0.2605
   42MOL0     O 5538   0.546   8.543   2.590 -0.8542 -0.4107  0.6521
   42MOL0     C 5539   0.430   8.481   2.595  0.9112  1.5869 -1.1550
   42MOL0     C 5540   0.398   8.411   2.711  0.0893  0.2845 -0.0428
   42MOL0     C 5541   0.280   8.343   2.738 -1.2499  0.0940  0.2774
   42MOL0     C 5542   0.192   8.332   2.631 -0.2738 -0.0575 -0.5670
   42MOL0     O 5543   0.078   8.262   2.655 -0.4302 -0.1357  0.2070
   42MOL0     C 5544  -0.052   8.290   2.591  0.4840 -0.4274  0.5601
   42MOL0     C 5545  -0.165   8.208   2.666 -0.0284  1.0804  0.1928
   42MOL0     C 5546  -0.294   8.228   2.583  0.3600 -0.1263  0.2527
   42MOL0     C 5547  -0.412   8.125   2.616 -0.4621 -0.4481 -0.5210
   42MOL0     C 5548  -0.551   8.158   2.569 -0.9484  0.0650 -0.4233
   42MOL0     C 5549  -0.603   8.285   2.627 -0.1142  0.3884  0.1848
   42MOL0     C 5550  -0.757   8.301   2.610 -0.2467 -0.2237 -0.7318
   42MOL0     C 5551  -0.797   8.309   2.463 -0.6981 -0.4926 -0.2350
   42MOL0     N 5552  -0.756   8.430   2.394 -0.0847  0.0171  0.2528
   42MOL0     C 5553  -0.831   8.549   2.389  0.0738  0.6298  0.7960
   42MOL0     C 5554  -0.748   8.631   2.314 -0.4736  0.4381 -0.7688
   42MOL0     C 5555  -0.786   8.772   2.282  0.0689 -0.1023 -0.4845
   42MOL0     C 5556  -0.926   8.788   2.224  0.2144  1.2650  0.5788
   42MOL0     C 5557  -0.945   8.932   2.159 -1.6363  1.1688  1.0271
   42MOL0     C 5558  -1.096   8.953   2.139  1.4799 -0.2454 -0.1180
   42MOL0     O 5559  -1.116   9.064   2.048 -0.6059  0.1787  0.7946
   42MOL0     C 5560  -1.248   9.082   2.024 -0.1810 -0.6560  0.2637
   42MOL0     C 5561  -1.340   9.120   2.127 -0.2800 -0.1094  0.2599
   42MOL0     C 5562  -1.472   9.139   2.092  0.0260  0.2878  1.1920
   42MOL0     C 5563  -1.563   9.172   2.205  1.1085 -0.0382 -0.2009
   42MOL0     C 5564  -1.515   9.148   1.951  0.2744 -0.1727 -0.4948
   42MOL0     C 5565  -1.653   9.189   1.908  0.4479  0.3254 -2.2665
   42MOL0     O 5566  -1.736   9.253   2.003  0.3932 -0.5664 -0.0306
   42MOL0     C 5567  -1.872   9.271   1.988 -0.3739 -0.1235  0.4515
   42MOL0     C 5568  -1.950   9.261   1.875  0.2641 -0.0845  0.5830
   42MOL0     C 5569  -2.088   9.259   1.883  0.7817 -0.0434 -0.2767
   42MOL0     C 5570  -2.149   9.284   2.007  0.1918 -0.6288 -0.6685
   42MOL0     O 5571  -2.284   9.296   2.010  0.5075 -0.2080 -0.2863
   42MOL0     C 5572  -2.351   9.372   2.105 -0.8817 -0.7263  0.4740
   42MOL0     C 5573  -2.508   9.373   2.086  0.3845  0.8942  0.1786
   42MOL0     C 5574  -2.573   9.228   2.094 -0.3018  0.3118 -0.2019
   42MOL0     C 5575  -2.579   9.159   1.959 -0.1258  0.1367 -0.0523
   42MOL0     C 5576  -2.678   9.049   1.944 -0.0333  0.1671  0.2462
   42MOL0     C 5577  -2.807   9.047   2.012  0.1762 -0.8364 -1.1167
   42MOL0     C 5578  -2.886   9.166   1.991  0.2705  0.1468 -0.0646
   42MOL0     C 5579  -3.011   9.174   2.086 -0.0580 -0.0949  0.6450
   42MOL0    Cl 5580  -3.134   9.243   1.978  0.5505  0.2435  0.1759
   42MOL0     C 5581  -2.065   9.311   2.120  0.2999  0.2846 -0.0292
   42MOL0     C 5582  -1.925   9.294   2.106  0.9626 -1.4523 -0.9537
   42MOL0     O 5583  -1.680   9.170   1.791  0.6217  0.4457  0.3605
   42MOL0     C 5584  -1.414   9.116   1.850  0.2347 -0.3749  0.3370
   42MOL0     C 5585  -1.284   9.073   1.891  0.3332 -0.2749 -0.9865
   42MOL0     N 5586  -0.639   8.556   2.266  0.8661  0.5790 -1.4003
   42MOL0     N 5587  -0.653   8.436   2.304  0.1489  0.5445 -0.5053
   42MOL0     C 5588   0.224   8.379   2.504  0.7148  0.0739 -0.2935
   42MOL0     C 5589   0.335   8.470   2.491  0.2199 -0.5563 -0.0896
   42MOL0     C 5590   0.785   8.538   2.549 -0.1990  0.4805  0.7132
   42MOL0     C 5591   0.898   8.481   2.488  0.2469  0.0979 -0.0053
   42MOL0     C 5592   1.028   8.540   2.503  0.4947 -0.7413  0.5721
   42MOL0     C 5593   1.043   8.656   2.571 -0.2039  0.7410 -0.2448
   42MOL0     O 5594   1.166   8.713   2.594  0.1603  0.5880  0.2753
   42MOL0     C 5595   1.227   8.732   2.469 -0.2122  0.0191  0.2400
   42MOL0     C 5596   1.316   8.851   2.493  0.0416 -0.7581  0.5537
   42MOL0     C 5597   1.248   8.969   2.584  0.8820  0.3310 -0.4470
   42MOL0     C 5598   1.133   9.042   2.505  0.6053  0.5427  0.7483
   42MOL0     C 5599   1.010   9.063   2.581 -0.1623 -0.1229  0.1600
   42MOL0     C 5600   0.912   9.072   2.658  0.6502  0.6511  0.1323
   42MOL0     C 5601   0.926   8.712   2.626  0.3034 -0.0929  0.0340
   42MOL0     C 5602   0.804   8.659   2.612  0.2067  0.9451  0.6116
   42MOL0     H 5603   0.475   8.389   2.784  2.0204  1.6112 -1.5527
   42MOL0     H 5604   0.256   8.286   2.827 -1.0771 -3.1421 -1.6113
   42MOL0     H 5605  -0.080   8.396   2.589  0.5966 -0.3348 -3.0130
   42MOL0     H 5606  -0.045   8.257   2.487  1.6311  1.4354 -0.0022
   42MOL0     H 5607  -0.143   8.101   2.656 -0.3769  1.2459 -5.0495
   42MOL0     H 5608  -0.173   8.233   2.772  1.1426 -1.8837  1.0852
   42MOL0     H 5609  -0.325   8.332   2.600 -0.1539 -0.4362  1.2980
   42MOL0     H 5610  -0.269   8.230   2.476  0.5808  2.5736  0.2880
   42MOL0     H 5611  -0.391   8.029   2.568  1.7834  0.3760 -1.3155
   42MOL0     H 5612  -0.416   8.103   2.723  0.2221  3.3850  0.4525
   42MOL0     H 5613  -0.550   8.151   2.460 -0.7652 -2.3429 -0.3075
   42MOL0     H 5614  -0.610   8.076   2.611 -0.6434 -1.9968 -3.6483
   42MOL0     H 5615  -0.566   8.296   2.729  1.5315  0.2544 -0.3666
   42MOL0     H 5616  -0.560   8.370   2.572  0.0930  1.8484  2.4756
   42MOL0     H 5617  -0.818   8.223   2.655 -1.4596  2.3297  2.3719
   42MOL0     H 5618  -0.786   8.398   2.652 -1.2507 -0.3396 -1.1204
   42MOL0     H 5619  -0.904   8.331   2.454  0.1095  5.4666  0.6265
   42MOL0     H 5620  -0.772   8.218   2.409 -2.7676 -1.6498  0.5930
   42MOL0     H 5621  -0.923   8.576   2.441 -0.9780  1.2152 -1.2744
   42MOL0     H 5622  -0.786   8.824   2.378  0.3822 -2.3731  0.8274
   42MOL0     H 5623  -0.711   8.815   2.214  1.3122 -1.6024 -0.1297
   42MOL0     H 5624  -0.989   8.767   2.311  0.6733 -2.0990  0.2262
   42MOL0     H 5625  -0.952   8.705   2.157 -0.1587 -0.2246  2.4777
   42MOL0     H 5626  -0.880   8.942   2.072 -0.4558  0.0673  1.7364
   42MOL0     H 5627  -0.905   8.996   2.238  0.5163  0.4366  0.5954
   42MOL0     H 5628  -1.142   8.974   2.236  1.5959  1.1358 -0.3416
   42MOL0     H 5629  -1.142   8.861   2.100  0.7919 -0.3898  0.9800
   42MOL0     H 5630  -1.310   9.103   2.230  2.9718 -1.4622 -0.7816
   42MOL0     H 5631  -1.591   9.278   2.195  0.2019 -0.1144  1.2026
   42MOL0     H 5632  -1.645   9.102   2.225  2.3149 -1.3540  0.3082
   42MOL0     H 5633  -1.510   9.172   2.301 -0.5166  2.3433  0.7977
   42MOL0     H 5634  -1.916   9.256   1.772  0.2329 -0.1589  0.5765
   42MOL0     H 5635  -2.156   9.228   1.804  1.4109 -1.4189 -0.3183
   42MOL0     H 5636  -2.330   9.356   2.211 -0.9747  2.1576  1.0102
   42MOL0     H 5637  -2.327   9.477   2.085 -0.0940 -0.4541  2.6270
   42MOL0     H 5638  -2.557   9.447   2.149 -0.4738 -0.5421  1.2662
   42MOL0     H 5639  -2.524   9.410   1.985  0.9414 -1.6598 -0.9428
   42MOL0     H 5640  -2.676   9.231   2.133  0.1141 -4.1859  1.8785
   42MOL0     H 5641  -2.521   9.165   2.167 -0.7591 -0.6471 -0.6898
   42MOL0     H 5642  -2.603   9.232   1.882  0.7067 -0.0720 -0.5135
   42MOL0     H 5643  -2.478   9.125   1.936 -0.9935 -2.1926 -0.7098
   42MOL0     H 5644  -2.630   8.965   1.996 -1.9983 -0.9869  0.3146
   42MOL0     H 5645  -2.676   9.014   1.841  0.4842  0.6740  0.0811
   42MOL0     H 5646  -2.859   8.955   1.984 -1.5314  0.2210 -1.4972
   42MOL0     H 5647  -2.795   9.043   2.120  0.0858  1.8824 -0.9549
   42MOL0     H 5648  -2.924   9.170   1.888  0.5108  1.1438 -0.1318
   42MOL0     H 5649  -2.829   9.258   2.007  0.0413  0.1803  0.5684
   42MOL0     H 5650  -2.997   9.229   2.180  2.8083  4.1921 -1.9893
   42MOL0     H 5651  -3.058   9.080   2.118  0.4549 -0.0558  1.5617
   42MOL0     H 5652  -2.114   9.333   2.214 -0.5738  0.4975 -0.5171
   42MOL0     H 5653  -1.861   9.301   2.194 -0.3977  2.3525 -0.0711
   42MOL0     H 5654  -1.445   9.119   1.746  0.0230  0.9979  0.4250
   42MOL0     H 5655  -1.209   9.053   1.816  0.9146  3.8190 -1.7554
   42MOL0     H 5656   0.147   8.362   2.429 -0.8119 -0.4979  1.3296
   42MOL0     H 5657   0.347   8.526   2.399 -0.0003 -0.1740  0.1151
   42MOL0     H 5658   0.886   8.395   2.422  0.5220  1.3494 -1.7700
   42MOL0     H 5659   1.106   8.499   2.439 -1.3587 -1.8115 -1.1155
   42MOL0     H 5660   1.284   8.645   2.437 -2.6259 -1.6276  0.1160
   42MOL0     H 5661   1.161   8.763   2.387  2.6537  1.0729 -1.8558
   42MOL0     H 5662   1.345   8.907   2.403  1.4981 -2.4252 -0.0684
   42MOL0     H 5663   1.410   8.814   2.535  0.7446  3.0732  2.8809
   42MOL0     H 5664   1.327   9.045   2.586  1.1279  0.0582  0.6011
   42MOL0     H 5665   1.221   8.924   2.680 -4.5080  0.8668 -1.4254
   42MOL0     H 5666   1.091   8.983   2.424 -1.1609 -0.8121  2.5605
   42MOL0     H 5667   1.175   9.135   2.466 -2.6089  0.6985 -2.9888
   42MOL0     H 5668   0.847   9.062   2.742  1.1514 -1.0944  0.3616
   42MOL0     H 5669   0.922   8.804   2.684  1.4873 -1.1680  1.9395
   42MOL0     H 5670   0.714   8.707   2.649  0.2063  2.6505 -1.4095
   43MOL0     O 5671   1.858   0.872   9.541 -0.1477  0.9397  0.2725
   43MOL0     C 5672   1.951   0.844   9.616  1.3359  0.3078  0.0442
   43MOL0     O 5673   2.004   0.931   9.712  1.2355 -0.4676  0.4490
   43MOL0     C 5674   1.912   1.030   9.760  0.6368 -0.4539  0.2581
   43MOL0     C 5675   1.940   1.164   9.732  0.8013  0.4299 -0.7076
   43MOL0     C 5676   1.864   1.263   9.787 -0.0799  0.4949 -0.5738
   43MOL0     C 5677   1.763   1.235   9.876  0.0140 -0.2675 -0.2091
   43MOL0     O 5678   1.683   1.332   9.931  0.0244 -0.8801 -0.9088
   43MOL0     C 5679   1.725   1.365  10.070  0.9994  0.1510  0.5119
   43MOL0     C 5680   1.633   1.480  10.117  0.8409  0.1552 -0.0264
   43MOL0     C 5681   1.487   1.470  10.054 -0.8488 -0.0560 -0.2435
   43MOL0     C 5682   1.411   1.598  10.085 -0.5392  0.3664 -0.1957
   43MOL0     C 5683   1.259   1.601  10.064  0.1857  0.6758  1.3518
   43MOL0     C 5684   1.215   1.535   9.940  0.7830  0.8691  0.3396
   43MOL0     C 5685   1.077   1.599   9.889 -0.4036 -0.3146 -0.0908
   43MOL0     C 5686   0.953   1.548   9.970  0.4396  0.3222 -0.2871
   43MOL0     N 5687   0.948   1.397   9.970  0.9512 -0.1876 -0.7228
   43MOL0     C 5688   0.890   1.320   9.872 -0.8868 -0.0698 -0.7566
   43MOL0     C 5689   0.907   1.192   9.907 -1.1404 -0.6300 -0.6083
   43MOL0     C 5690   0.845   1.067   9.843  0.4725 -0.1287  0.3748
   43MOL0     C 5691   0.934   0.949   9.822 -0.2148 -0.5993 -0.7002
   43MOL0     C 5692   0.866   0.832   9.742  0.0059 -0.0833 -0.5092
   43MOL0     C 5693   0.973   0.722   9.747 -0.1040  0.3617 -0.5550
   43MOL0     O 5694   0.959   0.624   9.642 -0.7354 -0.0924  0.0505
   43MOL0     C 5695   1.040   0.516   9.643 -0.1669 -0.5564 -0.7522
   43MOL0     C 5696   1.123   0.479   9.745  0.6719 -0.6853 -1.0039
   43MOL0     C 5697   1.189   0.360   9.746  0.1554 -0.0697 -0.0153
   43MOL0     C 5698   1.271   0.330   9.873 -0.4223  0.5993 -0.0510
   43MOL0     C 5699   1.181   0.275   9.633  1.2784 -0.7907 -0.0644
   43MOL0     C 5700   1.280   0.156   9.608 -0.5184  0.5142 -0.2040
   43MOL0     O 5701   1.392   0.174   9.675  1.1072 -0.5217  0.8169
   43MOL0     C 5702   1.465   0.065   9.685  0.3130  0.6704  1.2174
   43MOL0     C 5703   1.448  -0.017   9.798  0.9085  0.6143  0.4635
   43MOL0     C 5704   1.533  -0.135   9.817  0.1484  0.4390  0.0631
   43MOL0     C 5705   1.641  -0.159   9.736  0.5277 -0.3404  0.8016
   43MOL0     O 5706   1.733  -0.256   9.788 -0.3869 -0.1017  0.8507
   43MOL0     C 5707   1.826  -0.309   9.693  0.4478  0.5469  0.1211
   43MOL0     C 5708   1.927  -0.401   9.773 -0.0600  0.0110  0.6109
   43MOL0     C 5709   2.041  -0.448   9.687  0.3881 -0.0873  0.8884
   43MOL0     C 5710   2.003  -0.476   9.538 -0.5837  0.8036  0.1498
   43MOL0     C 5711   2.102  -0.575   9.462 -1.0478 -0.0146 -0.5758
   43MOL0     C 5712   2.042  -0.604   9.327 -0.8034 -0.0798 -0.5383
   43MOL0     C 5713   2.152  -0.650   9.225  0.3968 -0.4137 -0.0835
   43MOL0     C 5714   2.202  -0.797   9.236  0.1368 -0.4222  0.5597
   43MOL0    Cl 5715   2.367  -0.815   9.168 -0.0436  0.0519 -0.3019
   43MOL0     C 5716   1.654  -0.079   9.619  0.0961 -0.1979 -0.0098
   43MOL0     C 5717   1.574   0.034   9.605  0.2035 -0.6277 -0.7533
   43MOL0     O 5718   1.256   0.067   9.527  0.9414 -0.5841  0.2558
   43MOL0     C 5719   1.092   0.316   9.527  0.5352 -0.0520 -0.3085
   43MOL0     C 5720   1.022   0.437   9.535 -0.3341  0.2287  0.4958
   43MOL0     N 5721   0.952   1.193  10.038  0.4364 -0.5756  0.4493
   43MOL0     N 5722   0.979   1.315  10.072  0.3526 -0.4604  0.0373
   43MOL0     C 5723   1.727   1.099   9.896  0.5968  0.1366 -0.9714
   43MOL0     C 5724   1.796   0.993   9.839  0.7975 -0.3054 -0.1055
   43MOL0     C 5725   2.018   0.712   9.605 -0.7435 -0.5200 -0.9978
   43MOL0     C 5726   1.982   0.629   9.498  0.3558  0.1221  0.6817
   43MOL0     C 5727   2.063   0.510   9.479  1.1005  0.6456  0.3260
   43MOL0     C 5728   2.144   0.460   9.581 -0.5120 -0.2882  0.0444
   43MOL0     O 5729   2.193   0.340   9.541 -0.2068  0.6646 -0.1647
   43MOL0     C 5730   2.270   0.269   9.634  0.0597 -0.8763  0.1987
   43MOL0     C 5731   2.212   0.131   9.659 -0.0054  0.8254  0.5103
   43MOL0     C 5732   2.075   0.127   9.712 -0.5739 -0.6971 -0.4446
   43MOL0     C 5733   2.016  -0.011   9.722  0.3784 -0.4990 -0.6229
   43MOL0     C 5734   2.070  -0.079   9.843  0.1597  0.5818  0.2461
   43MOL0     C 5735   2.107  -0.127   9.938 -0.0210  0.8439 -0.5256
   43MOL0     C 5736   2.178   0.544   9.690 -0.3696 -0.4216 -0.2813
   43MOL0     C 5737   2.110   0.666   9.698 -0.0202  0.3974 -0.3342
   43MOL0     H 5738   2.028   1.201   9.680 -1.1329  2.1599 -2.9943
   43MOL0     H 5739   1.892   1.364   9.760  0.4769  0.1974 -1.1480
   43MOL0     H 5740   1.706   1.281  10.138  0.6266  1.0028  1.4741
   43MOL0     H 5741   1.830   1.391  10.063  1.0542 -0.3926 -0.9838
   43MOL0     H 5742   1.618   1.475  10.225 -0.9849  0.2873 -0.2540
   43MOL0     H 5743   1.678   1.571  10.075 -1.9224  0.3933 -2.7905
   43MOL0     H 5744   1.483   1.461   9.945 -1.1948  0.1580 -0.2499
   43MOL0     H 5745   1.447   1.381  10.103  0.4635 -1.8697 -2.2930
   43MOL0     H 5746   1.418   1.612  10.193 -1.7104  0.9618 -0.1838
   43MOL0     H 5747   1.463   1.676  10.029  2.2341 -2.4276 -1.8275
   43MOL0     H 5748   1.202   1.542  10.137 -1.3382 -0.4612 -0.6539
   43MOL0     H 5749   1.233   1.707  10.069 -0.5872  0.4707  1.9190
   43MOL0     H 5750   1.286   1.559   9.860  2.6257 -0.0074  1.6469
   43MOL0     H 5751   1.206   1.426   9.945 -3.5206  0.9757 -0.6703
   43MOL0     H 5752   1.072   1.708   9.892 -1.0117 -0.2867 -1.4863
   43MOL0     H 5753   1.076   1.564   9.785  4.0731  1.8105 -1.1082
   43MOL0     H 5754   0.862   1.578   9.918 -0.5106 -3.7955 -1.3276
   43MOL0     H 5755   0.978   1.582  10.071  0.1884 -0.2219 -0.0414
   43MOL0     H 5756   0.836   1.366   9.790 -1.1556  1.0634  0.0394
   43MOL0     H 5757   0.775   1.029   9.917 -0.7885  1.8584  0.2924
   43MOL0     H 5758   0.808   1.093   9.743  3.5244 -2.4942 -1.5286
   43MOL0     H 5759   0.979   0.928   9.919 -2.8870  0.1042  0.7863
   43MOL0     H 5760   1.008   0.985   9.750 -0.4691 -1.7949 -1.5910
   43MOL0     H 5761   0.849   0.856   9.637  3.1853  1.5345 -0.7927
   43MOL0     H 5762   0.780   0.797   9.799  1.1907 -1.3686  0.5662
   43MOL0     H 5763   0.961   0.669   9.842 -2.3281 -0.1723 -1.0666
   43MOL0     H 5764   1.071   0.769   9.734 -1.4276  3.3579 -0.4229
   43MOL0     H 5765   1.144   0.543   9.830 -2.1028 -1.8572  0.6820
   43MOL0     H 5766   1.376   0.361   9.866 -0.1497  0.1898  1.7953
   43MOL0     H 5767   1.245   0.383   9.964  4.1954  0.2947  1.7240
   43MOL0     H 5768   1.271   0.221   9.880 -2.6762  0.5778  0.3174
   43MOL0     H 5769   1.359  -0.012   9.861 -0.0871  0.8930 -0.9166
   43MOL0     H 5770   1.524  -0.210   9.896  0.7176 -0.9719 -1.1745
   43MOL0     H 5771   1.772  -0.372   9.622 -3.0806 -0.4708  3.3956
   43MOL0     H 5772   1.878  -0.223   9.648  2.3362 -1.3333 -1.5428
   43MOL0     H 5773   1.971  -0.345   9.856 -0.7523  1.1956  0.2003
   43MOL0     H 5774   1.875  -0.489   9.813  1.9706 -1.7436 -0.3627
   43MOL0     H 5775   2.087  -0.540   9.724 -1.1934 -1.4127 -0.2711
   43MOL0     H 5776   2.127  -0.380   9.692  0.4920  0.5412 -4.1007
   43MOL0     H 5777   1.916  -0.541   9.543  1.4019 -2.2457 -1.7047
   43MOL0     H 5778   1.997  -0.376   9.492  0.1405  1.3461  1.1957
   43MOL0     H 5779   2.127  -0.660   9.527 -0.7005  0.7572  0.3307
   43MOL0     H 5780   2.203  -0.532   9.454 -0.9271  0.0732  1.1187
   43MOL0     H 5781   1.969  -0.685   9.327  0.5603 -1.3653 -1.3876
   43MOL0     H 5782   1.985  -0.516   9.294 -0.7182 -0.6960 -2.4969
   43MOL0     H 5783   2.237  -0.586   9.252 -0.0107 -1.0645  3.1202
   43MOL0     H 5784   2.122  -0.630   9.122  1.0937  1.6457  0.0676
   43MOL0     H 5785   2.140  -0.866   9.178  0.3567  1.2719 -1.8225
   43MOL0     H 5786   2.204  -0.826   9.341 -0.1363  0.2375  0.7534
   43MOL0     H 5787   1.725  -0.093   9.539  0.7739 -0.4394  0.6228
   43MOL0     H 5788   1.586   0.094   9.515  0.8926 -0.8102 -0.7906
   43MOL0     H 5789   1.084   0.254   9.438  1.1477 -1.4702  0.5860
   43MOL0     H 5790   0.946   0.462   9.462 -1.2881  1.4552  1.8280
   43MOL0     H 5791   1.648   1.072   9.965 -0.6763  1.0331 -2.0363
   43MOL0     H 5792   1.777   0.889   9.864  2.8233 -0.7715 -0.3211
   43MOL0     H 5793   1.921   0.668   9.417  0.0684  1.9561  1.7198
   43MOL0     H 5794   2.042   0.437   9.403  0.6064 -0.3308  1.3798
   43MOL0     H 5795   2.373   0.260   9.598  0.4638  0.7163  0.8630
   43MOL0     H 5796   2.278   0.308   9.736  1.5355 -1.4796  0.3465
   43MOL0     H 5797   2.275   0.071   9.725 -0.2872  0.1844  0.2052
   43MOL0     H 5798   2.200   0.082   9.562 -0.5602  1.1742  0.3997
   43MOL0     H 5799   2.014   0.185   9.641 -1.1160 -0.5028  0.1726
   43MOL0     H 5800   2.077   0.179   9.808  0.1375 -2.0855  0.3100
   43MOL0     H 5801   2.024  -0.062   9.625 -0.6708 -1.8030 -0.0607
   43MOL0     H 5802   1.909  -0.011   9.742  0.5597 -4.1467  1.3197
   43MOL0     H 5803   2.132  -0.174  10.031 -1.3718 -1.1690 -1.0997
   43MOL0     H 5804   2.250   0.511   9.764  0.1687  3.8147  1.4212
   43MOL0     H 5805   2.122   0.741   9.775 -4.0902 -0.3787  1.3101
   44MOL0     O 5806  10.451   2.571   9.329 -0.5705 -0.4028  0.0916
   44MOL0     C 5807  10.514   2.598   9.229  0.1899  0.1146 -0.6182
   44MOL0     O 5808  10.649   2.583   9.219 -0.1695 -0.0711 -0.3720
   44MOL0     C 5809  10.713   2.541   9.332  0.4303  1.1863  0.0316
   44MOL0     C 5810  10.686   2.414   9.382 -1.0837  0.2593 -0.1596
   44MOL0     C 5811  10.758   2.371   9.495 -0.0160 -0.1890  0.2394
   44MOL0     C 5812  10.850   2.443   9.553 -2.1956 -1.1274 -0.6538
   44MOL0     O 5813  10.924   2.387   9.666  0.0325  0.2997  0.1195
   44MOL0     C 5814  11.061   2.423   9.688  0.6459  0.5356  0.1982
   44MOL0     C 5815  11.146   2.414   9.565 -0.7449 -0.5138  0.4474
   44MOL0     C 5816  11.162   2.281   9.482 -0.5041  0.2204 -0.0902
   44MOL0     C 5817  11.219   2.174   9.562 -0.8487  0.0941 -0.0526
   44MOL0     C 5818  11.331   2.109   9.495  0.0307  0.1257 -0.3530
   44MOL0     C 5819  11.424   2.037   9.589 -0.7719  0.1280 -0.0984
   44MOL0     C 5820  11.396   1.879   9.573  0.1081  0.5282 -0.0849
   44MOL0     C 5821  11.438   1.796   9.694 -0.8001 -0.1942 -0.3958
   44MOL0     N 5822  11.584   1.774   9.710 -0.2964  0.8866  0.4600
   44MOL0     C 5823  11.665   1.696   9.630 -0.4191  0.1575 -0.0195
   44MOL0     C 5824  11.791   1.723   9.679  0.0390 -0.2951 -0.6000
   44MOL0     C 5825  11.918   1.669   9.619  0.0921  0.5577  0.9463
   44MOL0     C 5826  12.042   1.655   9.714  0.0144  0.0957 -0.4126
   44MOL0     C 5827  12.039   1.537   9.814  0.0502  0.1741  0.4664
   44MOL0     C 5828  11.986   1.402   9.763  0.8850 -1.4640  0.7334
   44MOL0     O 5829  12.078   1.343   9.674  0.2307  0.5723 -0.3038
   44MOL0     C 5830  12.039   1.222   9.622  0.2631 -0.9214  0.3070
   44MOL0     C 5831  11.903   1.165   9.643 -0.3106 -0.6087 -0.5885
   44MOL0     C 5832  11.863   1.044   9.580 -0.2714 -1.6165 -0.1716
   44MOL0     C 5833  11.731   0.993   9.612  0.8168 -0.0910 -0.4612
   44MOL0     C 5834  11.950   0.979   9.484  0.5972 -0.2534 -0.5094
   44MOL0     C 5835  11.922   0.865   9.400  0.9927 -0.0582  0.6710
   44MOL0     O 5836  12.029   0.808   9.342 -0.0550 -0.7918  1.1879
   44MOL0     C 5837  12.006   0.714   9.244  0.1281 -0.0409  0.1702
   44MOL0     C 5838  11.974   0.757   9.116 -0.4127  0.6497 -0.6375
   44MOL0     C 5839  11.944   0.661   9.020  0.5230 -0.7472  0.6409
   44MOL0     C 5840  11.935   0.525   9.053 -1.5491  0.6767 -0.3417
   44MOL0     O 5841  11.924   0.420   8.965 -0.9409 -0.0688  0.0763
   44MOL0     C 5842  11.999   0.444   8.847  0.1267 -0.3426  0.0841
   44MOL0     C 5843  11.936   0.410   8.708  0.3075 -0.9450 -0.7941
   44MOL0     C 5844  11.900   0.256   8.722 -0.4507 -0.1722 -0.6377
   44MOL0     C 5845  11.812   0.218   8.606 -0.0021  0.7537  0.9164
   44MOL0     C 5846  11.895   0.204   8.488 -0.5938  0.0505 -0.2842
   44MOL0     C 5847  11.814   0.150   8.367 -0.7209 -0.1537 -0.2241
   44MOL0     C 5848  11.883   0.207   8.237  0.5848  0.0738 -0.1217
   44MOL0     C 5849  12.018   0.148   8.208  0.9668 -0.6732 -0.1952
   44MOL0    Cl 5850  12.073   0.169   8.040 -0.2083  0.5735  0.1522
   44MOL0     C 5851  11.963   0.482   9.180  0.7548  0.8111 -0.4924
   44MOL0     C 5852  11.996   0.578   9.275  0.4862  0.1337 -0.4933
   44MOL0     O 5853  11.805   0.828   9.382  0.0219 -0.1612 -0.0188
   44MOL0     C 5854  12.078   1.042   9.471 -0.2311  0.2935 -0.2078
   44MOL0     C 5855  12.127   1.161   9.540  0.0357 -0.3647 -0.1911
   44MOL0     N 5856  11.774   1.829   9.773 -0.3219  0.3227  0.3115
   44MOL0     N 5857  11.659   1.855   9.796  0.3109 -0.4509 -0.2654
   44MOL0     C 5858  10.874   2.578   9.506  0.6232  0.4129  0.8388
   44MOL0     C 5859  10.808   2.619   9.399 -0.5129 -0.5152  0.5328
   44MOL0     C 5860  10.434   2.650   9.116 -0.2049  0.1234  1.0134
   44MOL0     C 5861  10.499   2.692   8.996 -0.0858  0.0605  0.1933
   44MOL0     C 5862  10.428   2.750   8.882  0.2970 -0.6045  0.5148
   44MOL0     C 5863  10.287   2.771   8.899 -1.1203 -0.8134  0.4499
   44MOL0     O 5864  10.200   2.829   8.806  0.6460 -0.9076  0.0323
   44MOL0     C 5865  10.244   2.940   8.724 -0.0009  0.2951 -1.1588
   44MOL0     C 5866  10.146   2.956   8.612 -0.4518 -0.0504 -0.6451
   44MOL0     C 5867  10.038   3.064   8.644 -0.2179  0.0141  0.1591
   44MOL0     C 5868   9.936   3.075   8.538  0.4702  0.3255 -0.1234
   44MOL0     C 5869   9.844   2.962   8.535 -1.2426 -0.6004  0.1306
   44MOL0     C 5870   9.762   2.876   8.511 -0.6897 -0.4725 -0.2672
   44MOL0     C 5871  10.224   2.728   9.014  0.3857 -0.6152  0.0692
   44MOL0     C 5872  10.292   2.662   9.114 -0.1798 -0.0931 -0.2084
   44MOL0     H 5873  10.612   2.357   9.328 -0.1413 -0.4906 -0.6828
   44MOL0     H 5874  10.720   2.277   9.531 -3.8922  0.9030 -0.5447
   44MOL0     H 5875  11.063   2.525   9.727 -0.9932  1.8922 -2.9072
   44MOL0     H 5876  11.084   2.358   9.773  0.9805 -1.1497 -1.1315
   44MOL0     H 5877  11.098   2.483   9.495 -3.6030 -0.3199  2.4579
   44MOL0     H 5878  11.246   2.448   9.595 -0.4306 -2.0182  1.2455
   44MOL0     H 5879  11.063   2.247   9.449 -0.7397  0.7058  0.0997
   44MOL0     H 5880  11.217   2.307   9.390 -1.6606  0.3690 -0.7604
   44MOL0     H 5881  11.246   2.212   9.661  0.7623 -1.3451  0.1087
   44MOL0     H 5882  11.143   2.102   9.592  0.7911 -2.0353 -0.8068
   44MOL0     H 5883  11.284   2.043   9.421  0.7274  0.1270 -0.8143
   44MOL0     H 5884  11.391   2.184   9.442  0.2529  0.6184  0.5712
   44MOL0     H 5885  11.528   2.050   9.561  0.2634 -5.1197  0.2262
   44MOL0     H 5886  11.421   2.076   9.691  0.5910  1.8660 -0.6721
   44MOL0     H 5887  11.289   1.859   9.559  0.1049 -1.3306  1.9953
   44MOL0     H 5888  11.456   1.840   9.491  0.8558  1.0241  0.2141
   44MOL0     H 5889  11.409   1.691   9.689  1.8673 -0.9248 -2.3695
   44MOL0     H 5890  11.389   1.839   9.782  1.1464  1.9311 -0.2381
   44MOL0     H 5891  11.642   1.627   9.550 -0.5667  1.7345 -1.3749
   44MOL0     H 5892  11.899   1.572   9.571 -0.2744  3.0167 -4.7691
   44MOL0     H 5893  11.946   1.735   9.536  2.2545  0.3309  1.4506
   44MOL0     H 5894  12.055   1.748   9.770 -0.9072  1.2685 -2.0569
   44MOL0     H 5895  12.135   1.634   9.661 -0.4629 -2.6320 -0.3288
   44MOL0     H 5896  11.975   1.578   9.893  0.2085  3.3033 -0.9057
   44MOL0     H 5897  12.128   1.529   9.877 -0.9209  2.5670  2.3584
   44MOL0     H 5898  11.890   1.420   9.714  1.0044  1.7676  1.5160
   44MOL0     H 5899  11.972   1.332   9.846 -1.3271  1.1410  2.7371
   44MOL0     H 5900  11.833   1.200   9.718  1.8314 -1.9476  2.2302
   44MOL0     H 5901  11.702   0.972   9.508  3.2341  0.3291 -1.2821
   44MOL0     H 5902  11.738   0.901   9.669  3.1244 -0.5343 -1.3701
   44MOL0     H 5903  11.663   1.062   9.663  2.1586  1.8809 -1.2243
   44MOL0     H 5904  11.995   0.859   9.085  1.0775  1.2835  2.1572
   44MOL0     H 5905  11.918   0.707   8.926 -0.5989 -0.3133  1.1451
   44MOL0     H 5906  12.058   0.536   8.837  1.8003 -1.3869 -0.1354
   44MOL0     H 5907  12.082   0.377   8.872 -0.1964  0.0689  2.3971
   44MOL0     H 5908  11.850   0.474   8.687  0.7532 -0.4968 -1.2893
   44MOL0     H 5909  12.013   0.435   8.634  0.2462  1.5003 -0.1215
   44MOL0     H 5910  11.838   0.253   8.812 -2.2316  2.3241 -1.6773
   44MOL0     H 5911  11.996   0.206   8.739  0.3442  2.1524  2.8363
   44MOL0     H 5912  11.781   0.118   8.638  0.2652  0.3592 -0.0118
   44MOL0     H 5913  11.733   0.293   8.599 -0.1807  0.3964 -2.5934
   44MOL0     H 5914  11.985   0.144   8.503  1.3830  2.8590 -0.2405
   44MOL0     H 5915  11.934   0.304   8.470 -0.7387 -0.0212 -1.0294
   44MOL0     H 5916  11.829   0.043   8.378 -2.0656 -0.3166  0.1701
   44MOL0     H 5917  11.713   0.193   8.372 -1.6033 -2.0446 -1.0094
   44MOL0     H 5918  11.886   0.315   8.253 -1.4710 -0.2676  3.7955
   44MOL0     H 5919  11.819   0.176   8.153 -1.3684 -2.1153  2.0409
   44MOL0     H 5920  12.037   0.041   8.224  2.2121 -0.4996 -0.3664
   44MOL0     H 5921  12.090   0.198   8.274  0.4241  1.1387 -0.9060
   44MOL0     H 5922  11.950   0.376   9.200  1.7821  0.6763 -0.4926
   44MOL0     H 5923  12.006   0.543   9.377 -1.3141  1.4264  0.1783
   44MOL0     H 5924  12.152   1.000   9.405  0.5501 -0.4000  1.0727
   44MOL0     H 5925  12.226   1.203   9.524 -0.9748  2.4488  0.3882
   44MOL0     H 5926  10.944   2.641   9.561 -0.0873  0.9721  1.1195
   44MOL0     H 5927  10.828   2.716   9.356 -3.3577 -0.1457 -0.2148
   44MOL0     H 5928  10.606   2.674   8.998  0.2611  1.9808  0.7548
   44MOL0     H 5929  10.481   2.777   8.791 -0.7390  1.5807  0.4961
   44MOL0     H 5930  10.259   3.025   8.790  2.3484 -0.2796 -0.8470
   44MOL0     H 5931  10.338   2.903   8.679  0.1369  0.0480 -0.6734
   44MOL0     H 5932  10.105   2.866   8.567  1.1058 -1.2041  0.1487
   44MOL0     H 5933  10.213   2.999   8.537  1.8185  2.4128  2.5164
   44MOL0     H 5934  10.085   3.163   8.642  0.7910 -0.4466 -2.3051
   44MOL0     H 5935   9.995   3.047   8.744  1.4456  1.2058  1.1256
   44MOL0     H 5936   9.977   3.083   8.437 -1.7465  1.2815 -1.0166
   44MOL0     H 5937   9.889   3.173   8.546  0.7313  0.3750  0.9774
   44MOL0     H 5938   9.689   2.800   8.490  0.3061 -1.1053 -1.5780
   44MOL0     H 5939  10.122   2.762   9.028  1.0464  0.8690  1.7113
   44MOL0     H 5940  10.224   2.633   9.194 -2.2022  0.7211 -1.5503
   45MOL0     O 5941  10.215   3.380   3.309 -0.0547  0.5073 -0.3371
   45MOL0     C 5942  10.228   3.490   3.265  0.1919 -0.0922  0.2582
   45MOL0     O 5943  10.199   3.607   3.330  0.6621 -1.2942  0.3905
   45MOL0     C 5944  10.145   3.609   3.458 -0.0430  1.1885  0.7125
   45MOL0     C 5945  10.186   3.530   3.567 -0.7195  0.9623 -0.1520
   45MOL0     C 5946  10.119   3.540   3.685  0.3566 -0.0645 -0.6282
   45MOL0     C 5947   9.996   3.608   3.696 -0.3313 -0.2314 -0.3754
   45MOL0     O 5948   9.921   3.619   3.812 -0.0705 -0.0527 -0.4810
   45MOL0     C 5949   9.970   3.548   3.929  0.0994  0.8581 -0.0670
   45MOL0     C 5950   9.853   3.538   4.023  0.5073 -0.1241  0.3392
   45MOL0     C 5951   9.895   3.488   4.160 -0.1989  0.3690 -0.0539
   45MOL0     C 5952   9.799   3.516   4.280 -0.1079  0.5020  0.2947
   45MOL0     C 5953   9.857   3.459   4.408  0.0759 -0.4485  0.0938
   45MOL0     C 5954   9.776   3.473   4.533  0.2492 -0.3333  0.5392
   45MOL0     C 5955   9.778   3.599   4.600 -0.1837 -1.2989 -0.0734
   45MOL0     C 5956   9.671   3.609   4.709 -0.2206  0.5794  0.3262
   45MOL0     N 5957   9.692   3.731   4.798 -0.7006  0.3557  0.4098
   45MOL0     C 5958   9.732   3.711   4.927  0.2083  0.8071 -0.5303
   45MOL0     C 5959   9.744   3.828   4.977  0.6292  0.0192 -0.0919
   45MOL0     C 5960   9.788   3.866   5.116 -0.0923 -0.3836  0.7364
   45MOL0     C 5961   9.675   3.941   5.184  0.4397 -0.2960 -0.6808
   45MOL0     C 5962   9.730   4.017   5.313  0.1460  0.1593  0.4387
   45MOL0     C 5963   9.793   3.923   5.418 -1.6043  0.3425 -0.2311
   45MOL0     O 5964   9.887   4.011   5.486 -0.4559  0.4161 -0.2724
   45MOL0     C 5965   9.834   4.085   5.589 -0.0270 -0.0095  0.5908
   45MOL0     C 5966   9.775   4.209   5.560 -0.0857  0.1345  0.3665
   45MOL0     C 5967   9.698   4.271   5.661  0.3153 -1.3114  0.3070
   45MOL0     C 5968   9.623   4.390   5.611 -1.0130 -0.7905  0.1219
   45MOL0     C 5969   9.687   4.224   5.793 -0.8348 -0.0978  0.4616
   45MOL0     C 5970   9.652   4.299   5.917 -0.0068  0.5768 -0.2173
   45MOL0     O 5971   9.653   4.222   6.028  0.6765 -0.1460 -0.0867
   45MOL0     C 5972   9.616   4.275   6.150  0.7377  0.7372 -0.2852
   45MOL0     C 5973   9.673   4.398   6.189 -0.9465  0.0998  0.6865
   45MOL0     C 5974   9.664   4.442   6.316 -0.0050 -1.0631  0.9967
   45MOL0     C 5975   9.586   4.369   6.404 -0.6293 -0.3594 -0.0722
   45MOL0     O 5976   9.574   4.397   6.537  0.9666 -0.6671 -0.1191
   45MOL0     C 5977   9.549   4.536   6.578 -0.2956 -0.2758  0.5306
   45MOL0     C 5978   9.402   4.564   6.607  0.8486 -0.0440  0.2383
   45MOL0     C 5979   9.358   4.508   6.743 -0.7294  0.4641 -0.8924
   45MOL0     C 5980   9.355   4.353   6.741  0.5938  0.2463 -0.7908
   45MOL0     C 5981   9.287   4.293   6.866  0.4671 -0.4119  0.0346
   45MOL0     C 5982   9.291   4.138   6.867  0.6265  0.0631 -0.1727
   45MOL0     C 5983   9.206   4.080   6.990  0.9276 -0.4086  0.2320
   45MOL0     C 5984   9.244   3.949   7.065 -0.2581  0.3954 -0.6367
   45MOL0    Cl 5985   9.425   3.922   7.096  0.5605 -0.4588  0.5211
   45MOL0     C 5986   9.509   4.258   6.363  0.2997 -0.2754 -0.0797
   45MOL0     C 5987   9.527   4.200   6.235  0.5356 -0.5075  0.5000
   45MOL0     O 5988   9.583   4.399   5.904  0.3445 -0.6817 -0.0612
   45MOL0     C 5989   9.740   4.096   5.810  0.1314 -0.6852 -0.4637
   45MOL0     C 5990   9.815   4.031   5.713  0.2598 -0.2286 -0.3560
   45MOL0     N 5991   9.722   3.920   4.878  0.4505  0.1595 -0.0426
   45MOL0     N 5992   9.694   3.862   4.764  0.7493 -0.2744 -0.1906
   45MOL0     C 5993   9.944   3.666   3.581  0.1561  0.0872 -0.0443
   45MOL0     C 5994  10.026   3.679   3.468  0.5070  0.0571  0.7527
   45MOL0     C 5995  10.278   3.496   3.120 -0.9943  0.0925  0.1703
   45MOL0     C 5996  10.311   3.626   3.071 -0.2629 -0.9368 -0.3725
   45MOL0     C 5997  10.362   3.641   2.942 -0.9050  0.6668  0.4597
   45MOL0     C 5998  10.386   3.531   2.858  0.4627 -0.1949  0.1982
   45MOL0     O 5999  10.448   3.563   2.739  1.4412 -0.1847  0.6681
   45MOL0     C 6000  10.507   3.455   2.660 -0.0395  0.1550  0.0646
   45MOL0     C 6001  10.410   3.375   2.566  0.1525 -0.3569 -0.8768
   45MOL0     C 6002  10.479   3.241   2.538 -0.0341  0.4469  1.0252
   45MOL0     C 6003  10.378   3.148   2.458  0.6406  0.7101  0.0358
   45MOL0     C 6004  10.323   3.212   2.344  1.0395 -1.4880  0.0215
   45MOL0     C 6005  10.255   3.255   2.249  0.0920 -0.3020  0.1560
   45MOL0     C 6006  10.353   3.408   2.909 -0.0518  0.2565  0.1606
   45MOL0     C 6007  10.310   3.386   3.039 -0.0573 -0.2459  0.4665
   45MOL0     H 6008  10.280   3.476   3.559 -0.5639  1.4055 -1.5549
   45MOL0     H 6009  10.171   3.488   3.764 -1.8351 -2.8604 -0.8610
   45MOL0     H 6010   9.999   3.450   3.889  3.6128  2.0932 -0.9143
   45MOL0     H 6011  10.051   3.599   3.983 -1.0881 -1.8119  4.8170
   45MOL0     H 6012   9.799   3.633   4.038  0.6830  0.0026  0.1787
   45MOL0     H 6013   9.783   3.464   3.984 -0.4829 -0.2328  2.2334
   45MOL0     H 6014   9.915   3.381   4.152  1.3764  0.4224  2.1220
   45MOL0     H 6015   9.991   3.536   4.182 -0.6718  2.0904 -1.5850
   45MOL0     H 6016   9.792   3.625   4.285  4.4915  1.0273 -0.1739
   45MOL0     H 6017   9.702   3.474   4.249  0.0175 -0.0201  0.5899
   45MOL0     H 6018   9.883   3.353   4.397  3.4432  0.0093  2.1400
   45MOL0     H 6019   9.960   3.494   4.420 -0.0156 -0.0394 -0.2402
   45MOL0     H 6020   9.672   3.450   4.507 -0.3439  0.0306  2.4473
   45MOL0     H 6021   9.819   3.407   4.609  1.1400  0.6952  0.9484
   45MOL0     H 6022   9.876   3.612   4.647 -1.4243  2.6418  1.8679
   45MOL0     H 6023   9.762   3.680   4.528  1.3774 -0.0331  0.9376
   45MOL0     H 6024   9.679   3.515   4.764 -0.8110  2.1436  3.2372
   45MOL0     H 6025   9.569   3.605   4.669 -0.1052  1.8485 -0.1424
   45MOL0     H 6026   9.751   3.620   4.983  0.2785  0.8468 -0.4899
   45MOL0     H 6027   9.815   3.772   5.165 -0.8850 -2.5525 -2.6660
   45MOL0     H 6028   9.882   3.922   5.113  0.2385 -0.9543 -1.5402
   45MOL0     H 6029   9.605   3.865   5.219 -1.8968  1.9748 -0.1967
   45MOL0     H 6030   9.614   4.007   5.122  0.4714  0.0678 -0.3267
   45MOL0     H 6031   9.652   4.084   5.350 -0.3905 -0.0751 -0.2345
   45MOL0     H 6032   9.807   4.082   5.271 -1.4545  1.0833 -1.2337
   45MOL0     H 6033   9.854   3.845   5.372 -0.5990  1.3101 -0.5945
   45MOL0     H 6034   9.725   3.871   5.487  0.4092 -1.7111  0.3489
   45MOL0     H 6035   9.788   4.245   5.458 -0.5255 -2.5573 -0.7407
   45MOL0     H 6036   9.621   4.394   5.501 -0.4451  1.0675  0.1340
   45MOL0     H 6037   9.521   4.406   5.647 -0.3003  3.6163  0.7749
   45MOL0     H 6038   9.679   4.482   5.630 -2.1246  0.5050 -2.3348
   45MOL0     H 6039   9.756   4.447   6.140 -0.1302  1.6109  3.3390
   45MOL0     H 6040   9.722   4.528   6.348 -2.4465  1.7420 -1.4227
   45MOL0     H 6041   9.598   4.559   6.673 -1.6304 -0.9404  1.3980
   45MOL0     H 6042   9.596   4.604   6.506  0.2177 -0.5290  0.6186
   45MOL0     H 6043   9.370   4.669   6.610 -1.0036 -0.6001  1.8283
   45MOL0     H 6044   9.337   4.516   6.534 -0.5022 -2.6028  2.9254
   45MOL0     H 6045   9.254   4.534   6.766 -1.1713 -2.2858  0.5828
   45MOL0     H 6046   9.424   4.552   6.818 -1.8610  1.1267 -0.2634
   45MOL0     H 6047   9.293   4.320   6.657  1.6071 -2.0215 -0.7043
   45MOL0     H 6048   9.452   4.303   6.730 -0.9401 -3.5252  1.1725
   45MOL0     H 6049   9.183   4.325   6.874  0.8441  0.9037 -0.1580
   45MOL0     H 6050   9.342   4.321   6.956 -0.4901 -0.7420  0.7413
   45MOL0     H 6051   9.251   4.092   6.776  1.1550  0.9536 -0.8716
   45MOL0     H 6052   9.397   4.118   6.884  0.5553 -0.2121 -0.0319
   45MOL0     H 6053   9.106   4.048   6.958 -0.1692 -0.4189  3.3174
   45MOL0     H 6054   9.208   4.157   7.067  1.9782 -1.1300  0.9487
   45MOL0     H 6055   9.220   3.864   6.999 -1.5699 -0.5836  1.0160
   45MOL0     H 6056   9.185   3.925   7.154  3.5983 -2.3524  1.5046
   45MOL0     H 6057   9.454   4.217   6.447  0.7432 -1.2424 -0.2394
   45MOL0     H 6058   9.485   4.109   6.192 -1.0283  1.1901 -1.8144
   45MOL0     H 6059   9.741   4.045   5.906  0.7953 -2.8400 -1.5357
   45MOL0     H 6060   9.873   3.940   5.730 -1.0696 -1.3470 -1.4858
   45MOL0     H 6061   9.850   3.719   3.594  0.6511  0.2856  4.4729
   45MOL0     H 6062   9.988   3.716   3.374 -2.7140 -4.3238  0.0027
   45MOL0     H 6063  10.293   3.716   3.129 -1.3790 -1.2066 -0.2870
   45MOL0     H 6064  10.387   3.741   2.907 -0.9628  0.7118  0.5455
   45MOL0     H 6065  10.592   3.496   2.606 -0.7629 -0.5749 -1.6989
   45MOL0     H 6066  10.562   3.384   2.723  1.8336  0.8741 -0.6950
   45MOL0     H 6067  10.384   3.425   2.472 -0.3176 -1.2068 -1.2082
   45MOL0     H 6068  10.318   3.350   2.620 -0.1237  0.3117 -1.0279
   45MOL0     H 6069  10.505   3.190   2.631  1.0712 -2.2339 -0.6451
   45MOL0     H 6070  10.574   3.260   2.489  1.7068 -0.3187  3.8959
   45MOL0     H 6071  10.296   3.124   2.526 -0.3323 -0.3198 -1.4367
   45MOL0     H 6072  10.431   3.058   2.427 -0.1837  0.1050  0.3489
   45MOL0     H 6073  10.183   3.301   2.183 -1.1592 -0.2894  1.4769
   45MOL0     H 6074  10.373   3.317   2.852 -0.1117  0.0403  0.4818
   45MOL0     H 6075  10.282   3.289   3.079  0.4272  0.5785  2.9858
   46MOL0     O 6076   3.011   5.348  11.208  0.3497 -0.0254 -0.0513
   46MOL0     C 6077   2.945   5.327  11.310 -0.5643  0.7671  0.2203
   46MOL0     O 6078   2.812   5.326  11.311 -0.3283  0.3361 -0.5777
   46MOL0     C 6079   2.731   5.337  11.203  1.7552 -0.1671 -0.1503
   46MOL0     C 6080   2.628   5.255  11.196 -0.0709 -0.1353 -0.1982
   46MOL0     C 6081   2.542   5.255  11.081 -0.2914 -0.0015  0.4249
   46MOL0     C 6082   2.564   5.344  10.981 -0.2716  0.1509  0.4405
   46MOL0     O 6083   2.479   5.353  10.871  0.4031 -0.3887 -0.1507
   46MOL0     C 6084   2.338   5.312  10.901  0.0444  0.8230 -0.4981
   46MOL0     C 6085   2.243   5.390  10.809 -0.8618 -0.1396 -0.5233
   46MOL0     C 6086   2.233   5.319  10.672 -0.0257 -1.0773  0.3811
   46MOL0     C 6087   2.347   5.367  10.586 -0.0089 -0.7139  0.2539
   46MOL0     C 6088   2.333   5.316  10.450  0.3111 -0.0519  0.8231
   46MOL0     C 6089   2.368   5.166  10.435  0.4268 -0.4687  0.2044
   46MOL0     C 6090   2.367   5.142  10.280  0.2876  0.7351  0.2725
   46MOL0     C 6091   2.346   5.006  10.229 -0.6050  1.0931 -1.1979
   46MOL0     N 6092   2.323   4.978  10.084 -0.4057  0.4748  0.1132
   46MOL0     C 6093   2.203   5.017  10.027  0.5205 -0.1568  0.4203
   46MOL0     C 6094   2.215   4.994   9.892  0.7555  0.0365 -0.0259
   46MOL0     C 6095   2.110   5.041   9.797 -0.1628  0.1050 -0.0573
   46MOL0     C 6096   2.090   5.190   9.787 -0.3767  0.1204  0.9020
   46MOL0     C 6097   2.195   5.263   9.706  0.6023  0.5700 -0.1814
   46MOL0     C 6098   2.155   5.407   9.696  0.1313 -0.1617 -0.5877
   46MOL0     O 6099   2.041   5.427   9.610  0.3199  0.1798 -0.6815
   46MOL0     C 6100   1.997   5.559   9.602 -0.2932 -0.1810 -0.2846
   46MOL0     C 6101   2.069   5.664   9.661  0.5186  0.0773  0.5803
   46MOL0     C 6102   2.035   5.805   9.638  0.2031  0.6581  0.2849
   46MOL0     C 6103   2.125   5.908   9.704  0.1599  0.8230 -0.6227
   46MOL0     C 6104   1.931   5.844   9.558  0.4069 -0.5904 -0.0930
   46MOL0     C 6105   1.898   5.974   9.508  0.3840 -0.0531 -0.2801
   46MOL0     O 6106   1.780   5.983   9.430 -1.1507  0.3365 -0.3437
   46MOL0     C 6107   1.756   6.106   9.370  0.1077 -0.0426 -0.0266
   46MOL0     C 6108   1.654   6.186   9.423  0.1940  0.5275 -0.5382
   46MOL0     C 6109   1.609   6.304   9.375  0.4711 -0.2605 -0.4867
   46MOL0     C 6110   1.673   6.352   9.264  0.7176 -0.4409  1.2873
   46MOL0     O 6111   1.633   6.474   9.204 -0.1218  0.0240  0.6178
   46MOL0     C 6112   1.687   6.587   9.271  0.6112  0.8501 -0.7195
   46MOL0     C 6113   1.684   6.732   9.203  0.4004  1.1886  0.6323
   46MOL0     C 6114   1.734   6.830   9.315 -0.2702 -0.2232  0.5491
   46MOL0     C 6115   1.729   6.982   9.276  0.0104  0.3878 -0.6334
   46MOL0     C 6116   1.758   7.068   9.399 -0.1585  0.0070 -0.3600
   46MOL0     C 6117   1.646   7.059   9.506  0.0856  1.0228  0.0040
   46MOL0     C 6118   1.662   7.166   9.607 -0.6397 -0.1384  0.1421
   46MOL0     C 6119   1.577   7.288   9.565 -0.3156  0.1269 -0.8209
   46MOL0    Cl 6120   1.574   7.391   9.712  0.7845 -0.4930  0.0966
   46MOL0     C 6121   1.770   6.270   9.198  0.0734  0.0008  0.0865
   46MOL0     C 6122   1.816   6.154   9.253  0.5967 -0.2194  0.7426
   46MOL0     O 6123   1.974   6.067   9.518 -0.3145 -0.2696 -0.3759
   46MOL0     C 6124   1.841   5.730   9.517  0.3433 -0.6733 -0.5174
   46MOL0     C 6125   1.892   5.600   9.529  0.6662 -0.1808  0.5017
   46MOL0     N 6126   2.344   4.946   9.876 -0.1358  0.1107  0.8429
   46MOL0     N 6127   2.405   4.925   9.984  0.2440  0.2647 -0.4052
   46MOL0     C 6128   2.685   5.423  10.985  0.3351  0.3599 -0.7005
   46MOL0     C 6129   2.764   5.429  11.098  0.1878 -0.0888  0.7445
   46MOL0     C 6130   3.009   5.322  11.443  0.0852 -0.1840  0.0062
   46MOL0     C 6131   3.134   5.383  11.464  0.2846  0.8639 -0.3728
   46MOL0     C 6132   3.190   5.369  11.590  0.3652 -0.4848  0.4350
   46MOL0     C 6133   3.124   5.298  11.693 -0.5638 -0.7069 -0.3837
   46MOL0     O 6134   3.184   5.287  11.823  0.0470 -0.0499  0.3031
   46MOL0     C 6135   3.317   5.229  11.832 -0.6632  0.7851 -0.1237
   46MOL0     C 6136   3.335   5.168  11.971  0.3791  0.1732 -0.2891
   46MOL0     C 6137   3.339   5.286  12.069  0.4385 -0.4108 -0.3649
   46MOL0     C 6138   3.325   5.245  12.218 -0.0225  0.5359  0.6000
   46MOL0     C 6139   3.442   5.188  12.280  0.1406  0.0787 -0.3142
   46MOL0     C 6140   3.527   5.125  12.330  0.7518 -0.7342 -0.6959
   46MOL0     C 6141   2.995   5.253  11.670  0.3036 -0.9817  0.0289
   46MOL0     C 6142   2.936   5.261  11.543 -0.5547  0.4969  0.7888
   46MOL0     H 6143   2.614   5.192  11.283  2.2798  1.5814  1.5466
   46MOL0     H 6144   2.460   5.185  11.090 -0.8561  0.5135 -0.5363
   46MOL0     H 6145   2.329   5.204  10.890 -2.2644  1.1216 -2.3539
   46MOL0     H 6146   2.313   5.327  11.006  1.8504 -0.5346  0.1807
   46MOL0     H 6147   2.141   5.391  10.848 -0.6524  0.5419  0.0379
   46MOL0     H 6148   2.264   5.498  10.810 -1.7699  0.1045  2.2180
   46MOL0     H 6149   2.258   5.213  10.686  0.3266 -1.3597 -1.8663
   46MOL0     H 6150   2.133   5.337  10.633 -0.1098 -0.4303  0.8827
   46MOL0     H 6151   2.336   5.476  10.580 -2.3428 -0.9369 -0.5839
   46MOL0     H 6152   2.443   5.334  10.627  1.6012  0.6782 -2.1142
   46MOL0     H 6153   2.240   5.332  10.394  0.9632 -0.2533 -0.3465
   46MOL0     H 6154   2.410   5.371  10.395 -0.8058 -0.1629 -0.9622
   46MOL0     H 6155   2.467   5.134  10.467  1.2888  0.5315 -1.3006
   46MOL0     H 6156   2.299   5.096  10.482 -2.5704  1.9928 -0.1355
   46MOL0     H 6157   2.273   5.187  10.246  0.6413  0.0386 -1.8114
   46MOL0     H 6158   2.446   5.199  10.230 -0.8225 -0.8034 -3.6249
   46MOL0     H 6159   2.256   4.968  10.279  0.2721 -1.1111 -1.2132
   46MOL0     H 6160   2.421   4.939  10.272 -3.0483  0.3398  2.3243
   46MOL0     H 6161   2.119   5.052  10.086  1.0675  1.5838  0.2073
   46MOL0     H 6162   2.127   4.985   9.705 -0.1574 -2.3209  1.3396
   46MOL0     H 6163   2.016   4.997   9.831 -0.9219  0.7794 -1.2357
   46MOL0     H 6164   2.083   5.237   9.886 -3.2252  0.3183  0.6886
   46MOL0     H 6165   1.994   5.199   9.736  0.5940 -0.3315 -1.1139
   46MOL0     H 6166   2.206   5.219   9.607  1.2913  0.2674  0.0221
   46MOL0     H 6167   2.286   5.251   9.766  1.2196 -0.1886 -1.2285
   46MOL0     H 6168   2.235   5.477   9.671  0.3062 -0.7774 -1.8610
   46MOL0     H 6169   2.138   5.440   9.798  2.3825 -3.7597  1.1753
   46MOL0     H 6170   2.166   5.668   9.711  1.1112  2.3493 -0.6021
   46MOL0     H 6171   2.179   5.945   9.616  0.6763 -1.6085 -1.4049
   46MOL0     H 6172   2.060   5.986   9.744 -1.4361 -1.5008  1.6499
   46MOL0     H 6173   2.187   5.857   9.777 -2.6789 -0.5314  1.0188
   46MOL0     H 6174   1.587   6.152   9.501 -0.5557 -0.7339 -1.6778
   46MOL0     H 6175   1.529   6.359   9.423  0.3032 -1.5434  0.8139
   46MOL0     H 6176   1.627   6.591   9.362  1.4401  1.3277 -0.1792
   46MOL0     H 6177   1.786   6.554   9.305 -0.4725 -1.2757  0.6740
   46MOL0     H 6178   1.740   6.738   9.110 -2.3011 -0.3571 -1.2534
   46MOL0     H 6179   1.580   6.744   9.169  0.6846 -0.2958 -0.9251
   46MOL0     H 6180   1.837   6.801   9.335  0.7637  0.5513 -3.0416
   46MOL0     H 6181   1.687   6.806   9.411 -0.1999 -2.2951  0.1303
   46MOL0     H 6182   1.791   6.998   9.187 -1.6883 -1.3042 -2.2004
   46MOL0     H 6183   1.628   7.008   9.243 -0.7586 -1.3444  0.2499
   46MOL0     H 6184   1.762   7.173   9.367 -0.9802 -0.4708 -2.1695
   46MOL0     H 6185   1.856   7.037   9.437 -0.0349  0.9152  0.0958
   46MOL0     H 6186   1.546   7.059   9.463 -0.2471  1.1329  0.7625
   46MOL0     H 6187   1.674   6.968   9.559  1.1767 -0.2767 -2.6123
   46MOL0     H 6188   1.769   7.183   9.623 -0.4879 -1.4132  0.5591
   46MOL0     H 6189   1.608   7.132   9.696 -3.7034  2.0926 -0.6879
   46MOL0     H 6190   1.474   7.265   9.537 -0.5381 -0.0736  0.1101
   46MOL0     H 6191   1.628   7.337   9.482  1.3461 -2.3038 -1.3613
   46MOL0     H 6192   1.803   6.309   9.103  0.7194 -0.8300 -0.0336
   46MOL0     H 6193   1.890   6.093   9.201 -1.1921 -1.5057 -0.3901
   46MOL0     H 6194   1.751   5.743   9.458 -0.4930  0.3965  0.9335
   46MOL0     H 6195   1.843   5.515   9.481  0.1833 -1.6888  3.4283
   46MOL0     H 6196   2.691   5.497  10.906 -0.7681  0.0345 -1.1184
   46MOL0     H 6197   2.843   5.503  11.101  0.3253 -0.1872 -0.1549
   46MOL0     H 6198   3.186   5.426  11.378 -2.0831  0.5043 -2.0962
   46MOL0     H 6199   3.292   5.399  11.609  1.1219 -1.0457 -2.2159
   46MOL0     H 6200   3.324   5.156  11.751 -0.7068 -0.0065  0.5779
   46MOL0     H 6201   3.390   5.308  11.813  0.7272  0.6173  3.7900
   46MOL0     H 6202   3.437   5.133  11.989  0.4777  1.8152  3.0983
   46MOL0     H 6203   3.269   5.082  11.985 -0.8402  0.6778 -2.4479
   46MOL0     H 6204   3.259   5.356  12.045  0.9460  0.0829 -0.6336
   46MOL0     H 6205   3.430   5.343  12.052 -0.4605  0.5880 -2.1226
   46MOL0     H 6206   3.243   5.173  12.217  0.8838 -0.5391 -0.1378
   46MOL0     H 6207   3.297   5.328  12.283  0.5451 -0.4215  2.1070
   46MOL0     H 6208   3.588   5.060  12.390 -0.8362 -0.7105  1.0282
   46MOL0     H 6209   2.945   5.207  11.755  0.4040  0.7094  1.0425
   46MOL0     H 6210   2.837   5.219  11.529 -0.2534  0.0377 -0.0206
   47MOL0     O 6211   1.768   4.098  11.012 -0.1164 -0.2542  0.8970
   47MOL0     C 6212   1.729   4.117  10.897  0.2025  0.8973 -0.2517
   47MOL0     O 6213   1.682   4.021  10.810 -0.0775  0.7053 -0.7262
   47MOL0     C 6214   1.703   3.888  10.834 -0.1472  0.4075 -0.1578
   47MOL0     C 6215   1.610   3.788  10.800 -0.2164  0.9890 -0.3949
   47MOL0     C 6216   1.620   3.654  10.837  0.0180  0.3630  1.1934
   47MOL0     C 6217   1.734   3.608  10.896  0.0248  1.0498  0.3108
   47MOL0     O 6218   1.757   3.479  10.946 -0.0240  0.2694  0.0197
   47MOL0     C 6219   1.737   3.377  10.851  0.3584 -0.8642 -0.3063
   47MOL0     C 6220   1.798   3.251  10.912  0.9019  0.3868 -0.5525
   47MOL0     C 6221   1.826   3.141  10.815 -0.6601  0.1847  0.4297
   47MOL0     C 6222   1.882   3.018  10.884  0.7401  0.7402 -0.9264
   47MOL0     C 6223   2.040   3.037  10.911 -0.0606 -0.3541 -0.1519
   47MOL0     C 6224   2.105   2.912  10.954  0.1546  0.2349 -0.0243
   47MOL0     C 6225   2.107   2.794  10.849 -0.1836  0.1484 -0.1361
   47MOL0     C 6226   2.170   2.848  10.720 -0.4161  0.2110  0.8039
   47MOL0     N 6227   2.309   2.882  10.728  0.0669  0.2688  0.4471
   47MOL0     C 6228   2.370   3.007  10.711  0.2385 -0.6767  0.2882
   47MOL0     C 6229   2.502   2.974  10.716 -0.4258 -0.2026  0.1074
   47MOL0     C 6230   2.613   3.068  10.680 -0.0789  0.1341 -0.3526
   47MOL0     C 6231   2.585   3.211  10.733 -0.0605  0.9153 -0.3577
   47MOL0     C 6232   2.700   3.302  10.706  0.2771  0.9332  0.6258
   47MOL0     C 6233   2.707   3.441  10.772  0.0453  0.4573 -0.5393
   47MOL0     O 6234   2.734   3.431  10.914 -0.7398 -0.1523 -0.9042
   47MOL0     C 6235   2.822   3.520  10.977 -0.9822 -0.1445 -0.2988
   47MOL0     C 6236   2.903   3.625  10.915  0.8551 -0.1452 -0.0260
   47MOL0     C 6237   2.983   3.713  10.983 -0.3527 -0.3833  0.0626
   47MOL0     C 6238   3.080   3.792  10.898 -0.0335 -0.2411 -0.3293
   47MOL0     C 6239   2.988   3.713  11.129 -0.2379 -0.4513  0.4817
   47MOL0     C 6240   3.064   3.800  11.202 -0.5509  0.4207 -0.2130
   47MOL0     O 6241   3.098   3.760  11.334  0.6825 -0.5951 -0.1911
   47MOL0     C 6242   3.147   3.852  11.430  0.7445  0.4093 -0.0869
   47MOL0     C 6243   3.213   3.781  11.523 -0.6911 -0.3063  0.1863
   47MOL0     C 6244   3.279   3.851  11.622 -0.1756 -0.6255 -0.0374
   47MOL0     C 6245   3.258   3.991  11.637  0.7781  0.1612  1.4512
   47MOL0     O 6246   3.327   4.065  11.727 -0.3370 -0.1211 -0.1627
   47MOL0     C 6247   3.258   4.103  11.849  0.1953  0.0512  0.2468
   47MOL0     C 6248   3.353   4.122  11.961 -0.5166  1.3527 -0.6932
   47MOL0     C 6249   3.455   4.226  11.945 -0.5657 -1.5842 -0.4871
   47MOL0     C 6250   3.399   4.368  11.976  0.3127 -0.2770  1.0654
   47MOL0     C 6251   3.507   4.477  11.932  0.3165  0.4212 -0.3924
   47MOL0     C 6252   3.455   4.610  11.991  0.1338 -0.0665 -0.0695
   47MOL0     C 6253   3.565   4.713  11.949  0.8785 -0.3524  0.5573
   47MOL0     C 6254   3.543   4.845  12.035  0.2128  0.3715 -0.1009
   47MOL0    Cl 6255   3.611   4.806  12.193  0.3615  0.0136  0.3648
   47MOL0     C 6256   3.185   4.059  11.540  0.5296 -0.3318  0.2434
   47MOL0     C 6257   3.128   3.990  11.436 -0.9816 -0.7801 -0.3354
   47MOL0     O 6258   3.072   3.915  11.162  0.0183 -0.0606 -0.5719
   47MOL0     C 6259   2.914   3.610  11.193  0.8737 -0.6143 -0.1575
   47MOL0     C 6260   2.838   3.511  11.120  0.5099  0.7447 -0.2120
   47MOL0     N 6261   2.526   2.838  10.719  0.0223  0.1308 -0.5968
   47MOL0     N 6262   2.408   2.788  10.728 -0.2495  0.0443 -0.1922
   47MOL0     C 6263   1.838   3.695  10.917 -0.2202 -0.6226 -0.1562
   47MOL0     C 6264   1.820   3.836  10.898  0.7801  0.4493 -0.3882
   47MOL0     C 6265   1.719   4.258  10.857 -0.1267 -0.3804  0.0441
   47MOL0     C 6266   1.672   4.305  10.729 -1.0861 -0.0017 -0.6330
   47MOL0     C 6267   1.679   4.442  10.698 -1.3899 -0.2852 -0.2370
   47MOL0     C 6268   1.695   4.540  10.796 -0.3042  0.1727  0.4878
   47MOL0     O 6269   1.699   4.673  10.784 -0.2593  0.3504 -0.3710
   47MOL0     C 6270   1.619   4.732  10.683 -0.1292  0.9429 -0.0329
   47MOL0     C 6271   1.657   4.881  10.690 -0.3815 -0.1515  0.3698
   47MOL0     C 6272   1.596   4.966  10.576  0.2937  0.8365 -0.7214
   47MOL0     C 6273   1.639   5.108  10.584  0.0550 -0.6264 -0.8004
   47MOL0     C 6274   1.783   5.126  10.565  0.4543 -0.1554 -0.2264
   47MOL0     C 6275   1.902   5.137  10.565  0.2138  0.2967  0.9046
   47MOL0     C 6276   1.743   4.492  10.917  1.1310 -0.2274  0.1954
   47MOL0     C 6277   1.764   4.363  10.942  0.6168  0.4077  0.0187
   47MOL0     H 6278   1.517   3.812  10.751 -1.8646  1.9900  2.9239
   47MOL0     H 6279   1.536   3.600  10.795  0.2436 -1.1739  2.6321
   47MOL0     H 6280   1.630   3.361  10.832  0.1396 -1.1231  1.0505
   47MOL0     H 6281   1.790   3.398  10.758 -0.1462 -1.3772 -0.7209
   47MOL0     H 6282   1.889   3.281  10.965  0.1881  2.0548 -0.2103
   47MOL0     H 6283   1.722   3.205  10.975  2.2474  0.1090  0.9337
   47MOL0     H 6284   1.743   3.134  10.745  1.7260  0.5961 -2.6240
   47MOL0     H 6285   1.906   3.169  10.747  1.2254 -0.8877  2.0812
   47MOL0     H 6286   1.829   2.986  10.974  0.8050 -1.1368 -1.5206
   47MOL0     H 6287   1.888   2.935  10.814  1.0089 -1.4438  1.5406
   47MOL0     H 6288   2.076   3.079  10.817  1.1039 -1.6622 -0.3335
   47MOL0     H 6289   2.057   3.111  10.990 -1.2259 -2.8067  2.5925
   47MOL0     H 6290   2.206   2.928  10.992  0.7629 -1.5030 -0.7734
   47MOL0     H 6291   2.048   2.878  11.041 -1.2169 -1.5212 -1.5088
   47MOL0     H 6292   2.156   2.708  10.896 -2.8922  0.7219  4.2340
   47MOL0     H 6293   2.009   2.757  10.820  0.1604  0.9024 -2.4406
   47MOL0     H 6294   2.127   2.935  10.669 -2.0747 -1.0875 -0.1022
   47MOL0     H 6295   2.162   2.767  10.646  0.1658  0.4584  0.4620
   47MOL0     H 6296   2.322   3.102  10.691  0.6237 -0.5534 -0.0652
   47MOL0     H 6297   2.708   3.029  10.718 -0.0816 -2.5659 -2.7890
   47MOL0     H 6298   2.618   3.070  10.571  1.1060 -1.7715 -0.3629
   47MOL0     H 6299   2.568   3.200  10.841  2.6703 -2.1619 -0.0986
   47MOL0     H 6300   2.505   3.255  10.673 -0.8451 -0.2009 -0.1564
   47MOL0     H 6301   2.691   3.323  10.599 -2.6631  1.3356  0.8617
   47MOL0     H 6302   2.796   3.251  10.720  0.4801  0.7326 -1.3176
   47MOL0     H 6303   2.618   3.503  10.761  2.4700  4.1945 -1.1177
   47MOL0     H 6304   2.785   3.498  10.721 -0.8280  1.4362 -0.8183
   47MOL0     H 6305   2.901   3.628  10.807 -2.5018 -2.6876 -0.1978
   47MOL0     H 6306   3.090   3.748  10.799 -5.1554 -1.0813 -0.7693
   47MOL0     H 6307   3.040   3.894  10.895 -1.3145 -0.5619  2.4392
   47MOL0     H 6308   3.181   3.790  10.938 -0.7637  0.0921  1.6442
   47MOL0     H 6309   3.219   3.672  11.521  0.2827 -0.2608 -1.6214
   47MOL0     H 6310   3.344   3.792  11.685 -1.4862  0.7503  2.7952
   47MOL0     H 6311   3.195   4.188  11.820  1.0528  0.1477 -1.4678
   47MOL0     H 6312   3.193   4.020  11.876 -0.8303  1.1817  1.4032
   47MOL0     H 6313   3.292   4.153  12.046 -0.7697 -3.5129  1.2257
   47MOL0     H 6314   3.393   4.023  11.987 -0.5766  1.7816  1.1150
   47MOL0     H 6315   3.480   4.233  11.839 -1.2531  4.9701 -0.6408
   47MOL0     H 6316   3.546   4.213  12.004  0.9560 -0.8931 -2.5812
   47MOL0     H 6317   3.310   4.401  11.922 -0.0150  1.4834  2.5829
   47MOL0     H 6318   3.370   4.381  12.081 -2.5584  3.0796  0.0202
   47MOL0     H 6319   3.506   4.495  11.824 -0.5715 -0.1048 -0.4839
   47MOL0     H 6320   3.604   4.458  11.977  0.3431  2.8469  0.7822
   47MOL0     H 6321   3.358   4.637  11.949 -0.3572 -2.6129 -0.7201
   47MOL0     H 6322   3.448   4.591  12.098  2.5257 -0.7472  0.0270
   47MOL0     H 6323   3.564   4.737  11.843 -2.5459 -0.5185  0.4396
   47MOL0     H 6324   3.669   4.681  11.944  1.4882  1.6689 -1.4742
   47MOL0     H 6325   3.441   4.869  12.065  0.1317  0.3936 -0.3862
   47MOL0     H 6326   3.586   4.929  11.979 -1.3476 -0.9600 -3.6382
   47MOL0     H 6327   3.181   4.167  11.543  1.9023 -0.2456 -0.2927
   47MOL0     H 6328   3.076   4.041  11.355 -4.9133 -3.0837  0.4693
   47MOL0     H 6329   2.909   3.589  11.299  1.0965 -2.0298 -0.3975
   47MOL0     H 6330   2.785   3.428  11.166  0.6182  0.3005 -0.8746
   47MOL0     H 6331   1.943   3.678  10.940  0.6106  0.5661 -2.7240
   47MOL0     H 6332   1.894   3.913  10.919 -1.1835  2.2926  0.0740
   47MOL0     H 6333   1.642   4.241  10.647 -3.4975  1.7045 -1.1824
   47MOL0     H 6334   1.658   4.482  10.599 -0.4380 -1.7340 -1.0677
   47MOL0     H 6335   1.636   4.692  10.583 -1.4145 -0.4566  0.2646
   47MOL0     H 6336   1.516   4.709  10.711  0.4361 -3.3560 -0.8447
   47MOL0     H 6337   1.766   4.895  10.693 -0.1748  0.4988 -4.0300
   47MOL0     H 6338   1.628   4.923  10.787  1.8550  1.4287  0.4286
   47MOL0     H 6339   1.488   4.961  10.592  0.4535  0.5782  0.3663
   47MOL0     H 6340   1.627   4.924  10.480  1.8570  0.4899 -0.0997
   47MOL0     H 6341   1.622   5.144  10.686  2.9568  1.4513 -0.9181
   47MOL0     H 6342   1.574   5.170  10.522  2.8732  3.6531  0.0468
   47MOL0     H 6343   2.008   5.148  10.555 -0.0217  3.3882  0.7784
   47MOL0     H 6344   1.779   4.572  10.981  0.0262  2.1035 -1.9093
   47MOL0     H 6345   1.809   4.345  11.039  1.1489 -0.0821 -0.3138
   48MOL0     O 6346   5.297   5.829   5.481  0.6478 -0.5662  0.0171
   48MOL0     C 6347   5.407   5.777   5.492  0.7044 -1.3198  0.7149
   48MOL0     O 6348   5.433   5.647   5.493 -0.2518  0.3124 -1.3098
   48MOL0     C 6349   5.337   5.559   5.475  0.8756  0.1383 -0.2189
   48MOL0     C 6350   5.208   5.553   5.540 -0.2753 -0.2260  0.2385
   48MOL0     C 6351   5.111   5.463   5.499  0.6025 -0.8957 -0.0715
   48MOL0     C 6352   5.137   5.358   5.417 -0.4637  0.1288 -0.0518
   48MOL0     O 6353   5.052   5.261   5.368  0.4385  0.2020 -0.5087
   48MOL0     C 6354   4.915   5.292   5.395  0.5605  0.1637 -0.2392
   48MOL0     C 6355   4.816   5.184   5.357 -0.5450  0.1072 -0.5072
   48MOL0     C 6356   4.679   5.251   5.389  1.1221  0.2503 -0.2461
   48MOL0     C 6357   4.565   5.165   5.332  0.0967 -0.3772  0.2059
   48MOL0     C 6358   4.541   5.056   5.436 -0.3977  0.3019  0.5611
   48MOL0     C 6359   4.405   4.998   5.405  0.2324 -0.1052  0.1985
   48MOL0     C 6360   4.363   4.884   5.505  0.7167 -0.9484 -0.0734
   48MOL0     C 6361   4.460   4.759   5.523 -0.8071  0.0697 -0.3342
   48MOL0     N 6362   4.547   4.792   5.633  0.5491 -0.9246 -0.1342
   48MOL0     C 6363   4.681   4.820   5.616  0.0088 -0.1384 -0.0608
   48MOL0     C 6364   4.716   4.853   5.739  0.3227  0.0275  0.0342
   48MOL0     C 6365   4.853   4.895   5.784 -0.1754  0.6786 -0.5772
   48MOL0     C 6366   4.872   5.039   5.745 -0.5547 -0.5327 -1.0795
   48MOL0     C 6367   5.017   5.084   5.771 -0.1980  0.3718 -0.4005
   48MOL0     C 6368   5.083   5.034   5.893 -0.2116  0.2926  0.1702
   48MOL0     O 6369   5.210   5.114   5.924  0.6028 -0.8148  0.0110
   48MOL0     C 6370   5.313   5.126   5.836  0.6966  0.0562  0.1834
   48MOL0     C 6371   5.342   5.022   5.741 -0.9280 -0.2734  0.3044
   48MOL0     C 6372   5.447   5.038   5.648  0.1682  0.8096  0.1247
   48MOL0     C 6373   5.468   4.907   5.560  0.1248 -0.3977  0.5471
   48MOL0     C 6374   5.517   5.162   5.639  0.0075  0.2187 -0.2135
   48MOL0     C 6375   5.625   5.186   5.544 -0.1602  0.0980  0.4309
   48MOL0     O 6376   5.690   5.077   5.492  0.7075  0.1950  0.3942
   48MOL0     C 6377   5.794   5.098   5.401  0.2239 -0.1616 -0.9404
   48MOL0     C 6378   5.901   5.004   5.403  0.6087 -0.2241 -0.8300
   48MOL0     C 6379   6.000   5.004   5.311  0.0928 -0.2219 -0.2519
   48MOL0     C 6380   5.992   5.104   5.214 -0.6283  0.7453  1.0323
   48MOL0     O 6381   6.072   5.091   5.095  1.8502  0.2586 -0.6161
   48MOL0     C 6382   6.178   5.001   5.103 -0.6397  0.1550  0.6511
   48MOL0     C 6383   6.273   5.007   4.978 -0.3776 -0.0365 -0.4911
   48MOL0     C 6384   6.201   4.954   4.848 -0.2395  0.2434  0.6102
   48MOL0     C 6385   6.292   4.967   4.732 -0.9031  0.0636  0.4521
   48MOL0     C 6386   6.387   4.851   4.699  0.1655  0.6396  0.3043
   48MOL0     C 6387   6.510   4.893   4.608 -0.2488 -0.8969 -0.3219
   48MOL0     C 6388   6.612   4.773   4.589  0.0248 -0.2466  0.7465
   48MOL0     C 6389   6.748   4.840   4.557  0.3554  0.9685  0.5842
   48MOL0    Cl 6390   6.860   4.719   4.480 -0.2528 -0.0766 -0.0813
   48MOL0     C 6391   5.894   5.202   5.208  0.4238  0.0702 -0.3376
   48MOL0     C 6392   5.788   5.199   5.302  0.0570 -0.4071  0.7976
   48MOL0     O 6393   5.653   5.302   5.519  0.4016 -0.0262 -0.6407
   48MOL0     C 6394   5.497   5.262   5.743  0.2733  0.2349 -0.2604
   48MOL0     C 6395   5.394   5.242   5.836 -0.0324 -0.5894 -0.3523
   48MOL0     N 6396   4.609   4.854   5.825  0.1248  0.1048  0.0120
   48MOL0     N 6397   4.506   4.816   5.758  0.0245 -1.1074 -0.4218
   48MOL0     C 6398   5.269   5.348   5.365 -0.0785 -0.7581 -0.2373
   48MOL0     C 6399   5.358   5.443   5.399 -1.1257  0.0344  0.4888
   48MOL0     C 6400   5.519   5.879   5.509  0.6807  0.7313 -0.2708
   48MOL0     C 6401   5.646   5.822   5.477 -0.0702 -0.6559  0.4451
   48MOL0     C 6402   5.763   5.890   5.528  0.4939 -0.2410  0.2706
   48MOL0     C 6403   5.742   6.008   5.602  0.1317  0.0981 -0.8009
   48MOL0     O 6404   5.856   6.065   5.649  0.2136 -1.1005 -0.1185
   48MOL0     C 6405   5.878   6.050   5.786  0.2271 -0.1672 -0.5260
   48MOL0     C 6406   5.993   5.947   5.807  0.1430  0.6968  0.7851
   48MOL0     C 6407   6.132   5.989   5.739  0.3921  0.1453  0.0288
   48MOL0     C 6408   6.218   5.877   5.688 -0.4654  0.4417 -0.4458
   48MOL0     C 6409   6.289   5.803   5.801 -0.4914 -0.2909  0.1172
   48MOL0     C 6410   6.346   5.718   5.861 -0.0431 -0.2404  1.2505
   48MOL0     C 6411   5.613   6.067   5.617 -0.8597  0.1279  0.4646
   48MOL0     C 6412   5.499   6.003   5.563 -0.2105 -0.8101 -0.5407
   48MOL0     H 6413   5.186   5.627   5.617  0.2388 -1.1017  1.2482
   48MOL0     H 6414   5.009   5.473   5.537  0.9858  0.2096  0.7197
   48MOL0     H 6415   4.899   5.321   5.499  0.0433  0.8003 -0.4938
   48MOL0     H 6416   4.892   5.375   5.328  0.5398 -2.9980 -4.5992
   48MOL0     H 6417   4.819   5.160   5.251 -0.3374  1.4039 -0.8139
   48MOL0     H 6418   4.824   5.088   5.410 -0.8974 -0.1750 -0.9557
   48MOL0     H 6419   4.675   5.265   5.498  1.4766 -0.7045 -0.1002
   48MOL0     H 6420   4.667   5.353   5.350 -0.9008  1.1008  2.2737
   48MOL0     H 6421   4.483   5.235   5.316 -0.6016 -1.1088  0.5300
   48MOL0     H 6422   4.587   5.119   5.236 -0.3886  1.1533 -0.6698
   48MOL0     H 6423   4.619   4.979   5.427  0.5802  1.1285  1.6803
   48MOL0     H 6424   4.547   5.102   5.535  0.3657  2.0066 -0.2329
   48MOL0     H 6425   4.328   5.076   5.415 -0.6553 -1.0902  1.2985
   48MOL0     H 6426   4.395   4.948   5.308 -1.3792  2.0877 -0.8540
   48MOL0     H 6427   4.345   4.929   5.603 -0.2496  2.6751 -1.7505
   48MOL0     H 6428   4.261   4.856   5.476  1.1638  0.3138 -3.2120
   48MOL0     H 6429   4.512   4.743   5.428 -0.5593  1.7884 -0.5157
   48MOL0     H 6430   4.393   4.674   5.540 -1.2879  0.1357 -1.7098
   48MOL0     H 6431   4.741   4.817   5.526  1.3280  0.3701  0.7557
   48MOL0     H 6432   4.867   4.896   5.893  1.7150  1.3817 -0.7806
   48MOL0     H 6433   4.928   4.835   5.732 -0.6703 -0.2642 -0.2261
   48MOL0     H 6434   4.805   5.103   5.803  0.0608  1.6634 -2.6155
   48MOL0     H 6435   4.843   5.051   5.640  0.1010 -2.1098 -1.4581
   48MOL0     H 6436   5.020   5.192   5.786  1.9224  0.2782  0.1063
   48MOL0     H 6437   5.080   5.065   5.683  1.5320 -0.2367  0.9305
   48MOL0     H 6438   5.098   4.927   5.879 -2.2355  0.2202 -1.9401
   48MOL0     H 6439   5.016   5.045   5.979 -0.9933  1.0776 -0.5170
   48MOL0     H 6440   5.288   4.929   5.749  0.0094 -0.7893  0.9246
   48MOL0     H 6441   5.488   4.926   5.454 -3.0509 -0.1977 -0.1161
   48MOL0     H 6442   5.556   4.853   5.597 -2.1651 -1.5759  4.9830
   48MOL0     H 6443   5.376   4.848   5.570  0.1661 -0.8682 -1.3901
   48MOL0     H 6444   5.879   4.923   5.472 -0.5752  2.0435  1.6483
   48MOL0     H 6445   6.079   4.930   5.303  1.0526  0.7388  0.1173
   48MOL0     H 6446   6.253   5.012   5.182  1.6944 -2.5473 -0.9596
   48MOL0     H 6447   6.149   4.895   5.101  3.0372 -0.9988  0.5246
   48MOL0     H 6448   6.304   5.108   4.950  2.6984 -1.2369 -1.9925
   48MOL0     H 6449   6.361   4.944   4.996 -0.9489  0.0062  3.1043
   48MOL0     H 6450   6.112   5.015   4.829  2.1286  4.6686  2.1033
   48MOL0     H 6451   6.175   4.849   4.860 -0.5120  0.0383 -1.3885
   48MOL0     H 6452   6.218   4.974   4.651 -1.4227 -4.2984  0.3141
   48MOL0     H 6453   6.350   5.059   4.736 -1.5395  0.5457 -0.6993
   48MOL0     H 6454   6.338   4.768   4.647  1.0524  0.1695  0.1921
   48MOL0     H 6455   6.433   4.818   4.793  1.8866  1.3127 -0.2608
   48MOL0     H 6456   6.474   4.930   4.512  0.3938  3.6364  0.9872
   48MOL0     H 6457   6.566   4.975   4.652 -0.3434  0.8423 -3.2006
   48MOL0     H 6458   6.561   4.712   4.513  1.0873  0.8472 -0.9103
   48MOL0     H 6459   6.614   4.714   4.681 -1.1501 -1.7726 -0.1447
   48MOL0     H 6460   6.786   4.875   4.654  1.1041  1.4301  0.1360
   48MOL0     H 6461   6.740   4.928   4.493  0.6020  1.2112  0.8791
   48MOL0     H 6462   5.911   5.274   5.129 -0.2943 -0.9979 -1.4968
   48MOL0     H 6463   5.705   5.265   5.280 -0.3563 -1.4388 -1.0457
   48MOL0     H 6464   5.566   5.345   5.737  2.3338 -1.2711  1.0689
   48MOL0     H 6465   5.376   5.325   5.903 -1.0940  0.2653 -1.6486
   48MOL0     H 6466   5.291   5.270   5.294  4.4746 -2.3460  2.4879
   48MOL0     H 6467   5.459   5.444   5.359  0.0634 -0.4074  3.2475
   48MOL0     H 6468   5.654   5.728   5.425 -1.9391 -0.4897 -0.2101
   48MOL0     H 6469   5.864   5.865   5.499  0.2240  0.6822 -1.6117
   48MOL0     H 6470   5.905   6.149   5.823  0.1482 -0.3106 -0.0828
   48MOL0     H 6471   5.798   6.008   5.848  1.4831 -0.9533  0.6148
   48MOL0     H 6472   5.949   5.850   5.781  0.4251  0.5000  1.0319
   48MOL0     H 6473   6.029   5.940   5.910  0.4952 -0.3353  0.6041
   48MOL0     H 6474   6.199   6.040   5.809  0.8500  0.1739 -0.4249
   48MOL0     H 6475   6.112   6.047   5.649  4.4976  0.3862 -0.9138
   48MOL0     H 6476   6.292   5.928   5.626  2.7369 -3.3015 -0.0309
   48MOL0     H 6477   6.167   5.813   5.615  1.2629  0.5980 -1.8398
   48MOL0     H 6478   6.410   5.637   5.892 -0.0007 -0.8137 -0.2396
   48MOL0     H 6479   5.615   6.162   5.669 -1.4271  0.7604 -0.6574
   48MOL0     H 6480   5.408   6.060   5.577 -0.0863 -0.8953  0.7138
   49MOL0     O 6481   5.732   3.307   0.614  0.6616  0.3127 -0.0365
   49MOL0     C 6482   5.858   3.304   0.620 -0.0642 -0.5970 -0.4974
   49MOL0     O 6483   5.931   3.209   0.558 -0.1072 -0.1162  0.0434
   49MOL0     C 6484   5.858   3.118   0.478  0.6599 -0.2333 -0.5818
   49MOL0     C 6485   5.845   3.138   0.341 -1.6237 -0.0886  0.2652
   49MOL0     C 6486   5.772   3.047   0.269  0.3008  0.8813  0.6133
   49MOL0     C 6487   5.703   2.939   0.334 -0.2554 -1.1212  0.0610
   49MOL0     O 6488   5.626   2.851   0.273  1.1931 -0.0450 -1.0687
   49MOL0     C 6489   5.557   2.890   0.151  0.6614  0.4763 -0.2076
   49MOL0     C 6490   5.459   3.008   0.156  0.1398  0.5736  0.9226
   49MOL0     C 6491   5.398   3.033   0.015  0.4475  0.1546  1.1105
   49MOL0     C 6492   5.292   2.927  -0.021  0.0623 -0.2075  0.0439
   49MOL0     C 6493   5.236   2.964  -0.160  0.5000 -0.0542  0.4073
   49MOL0     C 6494   5.133   2.862  -0.200  0.4283  0.0092  0.8764
   49MOL0     C 6495   5.036   2.923  -0.292 -0.6947  0.6501  0.0240
   49MOL0     C 6496   4.926   2.824  -0.318  0.7157  0.4172 -0.0951
   49MOL0     N 6497   4.800   2.851  -0.238 -0.4842 -0.8326 -0.7747
   49MOL0     C 6498   4.742   2.762  -0.144 -0.4673 -0.2574  0.1739
   49MOL0     C 6499   4.628   2.820  -0.093 -0.3562  0.0305  0.5003
   49MOL0     C 6500   4.517   2.748  -0.019 -0.4802 -1.1817 -0.2973
   49MOL0     C 6501   4.438   2.854   0.063 -0.8429 -0.2177  0.1383
   49MOL0     C 6502   4.325   2.793   0.142 -0.6145  0.1872 -0.1625
   49MOL0     C 6503   4.267   2.898   0.231 -0.2035 -0.0516  0.3209
   49MOL0     O 6504   4.247   3.015   0.152 -0.2329 -0.1727  0.4365
   49MOL0     C 6505   4.137   3.033   0.069 -0.3473 -0.0197 -0.2946
   49MOL0     C 6506   4.143   3.135  -0.022  0.2308 -0.7141  0.2408
   49MOL0     C 6507   4.038   3.160  -0.109 -0.0684  0.7276 -0.7402
   49MOL0     C 6508   4.063   3.279  -0.192  0.0185  0.4415 -1.0042
   49MOL0     C 6509   3.918   3.078  -0.107 -0.6741 -0.5986 -0.1573
   49MOL0     C 6510   3.807   3.094  -0.210 -0.3249  1.7570  0.4422
   49MOL0     O 6511   3.711   2.993  -0.186 -0.1557 -0.5207  0.0686
   49MOL0     C 6512   3.620   2.967  -0.291  0.1962  0.5934 -0.4913
   49MOL0     C 6513   3.648   2.860  -0.378  0.2344 -0.1630 -1.0436
   49MOL0     C 6514   3.566   2.847  -0.491  0.2558  0.7989 -0.4302
   49MOL0     C 6515   3.458   2.929  -0.517 -0.1689  0.8438  0.5608
   49MOL0     O 6516   3.370   2.879  -0.607  0.6998  0.4716 -0.4580
   49MOL0     C 6517   3.325   2.985  -0.695  0.1410  0.3136 -0.0994
   49MOL0     C 6518   3.250   2.931  -0.819 -0.2923 -1.4819 -0.6198
   49MOL0     C 6519   3.151   2.829  -0.781  1.2473 -0.1164 -0.5498
   49MOL0     C 6520   3.032   2.838  -0.878  0.0019  0.1087 -0.3125
   49MOL0     C 6521   2.940   2.714  -0.884  0.1517  1.0478 -0.9775
   49MOL0     C 6522   2.806   2.740  -0.958  0.2866  0.0758  0.2879
   49MOL0     C 6523   2.705   2.628  -0.954 -0.2146  0.4134 -0.5689
   49MOL0     C 6524   2.573   2.664  -1.017  0.5079  0.3924  0.1507
   49MOL0    Cl 6525   2.545   2.576  -1.170 -0.3429  0.0542  0.1428
   49MOL0     C 6526   3.436   3.038  -0.425 -0.7019  0.7078 -0.0174
   49MOL0     C 6527   3.513   3.049  -0.314 -0.6243  0.2329  0.4615
   49MOL0     O 6528   3.804   3.173  -0.308  0.5235 -0.2946 -0.2895
   49MOL0     C 6529   3.908   2.967  -0.014  0.0488  0.2289 -0.7149
   49MOL0     C 6530   4.017   2.953   0.080  0.5509  0.1745  0.1398
   49MOL0     N 6531   4.613   2.936  -0.172 -0.0672  0.0796 -0.2251
   49MOL0     N 6532   4.708   2.953  -0.257  0.3286  0.0369 -0.0583
   49MOL0     C 6533   5.711   2.926   0.471 -0.4636 -0.8555 -0.0627
   49MOL0     C 6534   5.788   3.017   0.544 -0.4902 -1.2232 -0.2689
   49MOL0     C 6535   5.924   3.413   0.694  0.1085  0.0807  0.0494
   49MOL0     C 6536   6.057   3.399   0.726 -0.0695  1.5987 -0.8969
   49MOL0     C 6537   6.119   3.489   0.809 -0.0702 -0.3865  0.3892
   49MOL0     C 6538   6.057   3.610   0.849  1.2936 -0.4651  0.1165
   49MOL0     O 6539   6.103   3.696   0.938 -0.6354 -0.7672  0.1621
   49MOL0     C 6540   6.201   3.634   1.029  0.1068  0.5041 -0.6057
   49MOL0     C 6541   6.274   3.736   1.122  0.1390  0.7609 -0.1372
   49MOL0     C 6542   6.366   3.660   1.230 -0.0610  0.5382  0.2831
   49MOL0     C 6543   6.446   3.736   1.336 -0.2331 -0.4414 -0.0335
   49MOL0     C 6544   6.523   3.848   1.282 -0.0382  0.4530  0.2334
   49MOL0     C 6545   6.568   3.952   1.240 -0.6316 -0.3256 -0.8471
   49MOL0     C 6546   5.923   3.624   0.815  0.3648  0.7136  0.8557
   49MOL0     C 6547   5.858   3.528   0.739  0.3635  0.0279  0.7232
   49MOL0     H 6548   5.896   3.216   0.286 -2.1369 -1.6819 -2.7027
   49MOL0     H 6549   5.763   3.061   0.162 -0.3177  0.4555  0.6043
   49MOL0     H 6550   5.637   2.896   0.076  3.1202  0.2187  2.2105
   49MOL0     H 6551   5.487   2.815   0.112  0.3318  1.3018 -1.2332
   49MOL0     H 6552   5.381   2.988   0.229 -1.7662  0.2396 -1.1093
   49MOL0     H 6553   5.522   3.091   0.189  1.5611 -0.5560  1.1422
   49MOL0     H 6554   5.354   3.134   0.015  1.4953  0.6498 -0.5850
   49MOL0     H 6555   5.475   3.034  -0.062 -2.9818 -2.3783 -2.7778
   49MOL0     H 6556   5.329   2.824  -0.024 -0.6479 -0.5149  1.2008
   49MOL0     H 6557   5.217   2.922   0.059 -1.9707  0.7066 -1.6911
   49MOL0     H 6558   5.201   3.066  -0.141 -0.1567 -0.0667 -0.6385
   49MOL0     H 6559   5.313   2.958  -0.237  0.2912  0.3484  0.1576
   49MOL0     H 6560   5.184   2.769  -0.224  1.3998  0.7800 -0.1726
   49MOL0     H 6561   5.077   2.846  -0.107  1.0924  1.2210  1.5201
   49MOL0     H 6562   4.990   3.010  -0.244 -4.2122 -0.3709 -1.1556
   49MOL0     H 6563   5.096   2.948  -0.380 -0.4630 -2.3432 -0.7960
   49MOL0     H 6564   4.948   2.722  -0.287 -0.7250 -0.5495 -2.0621
   49MOL0     H 6565   4.918   2.831  -0.427  0.5954 -3.1123 -0.4391
   49MOL0     H 6566   4.783   2.664  -0.121 -3.4403 -1.2415  1.7626
   49MOL0     H 6567   4.464   2.683  -0.089  1.5256 -3.9438  0.5560
   49MOL0     H 6568   4.563   2.679   0.052  0.0830 -1.1222 -0.5922
   49MOL0     H 6569   4.404   2.928  -0.011 -0.9093 -1.8379 -1.5392
   49MOL0     H 6570   4.504   2.902   0.136 -1.8686 -0.2177  1.0744
   49MOL0     H 6571   4.375   2.712   0.197  0.0138 -0.1596 -1.2045
   49MOL0     H 6572   4.257   2.745   0.071  2.2260 -2.0581 -1.5800
   49MOL0     H 6573   4.344   2.920   0.306  2.3159 -0.6905 -1.9034
   49MOL0     H 6574   4.177   2.854   0.274 -0.0274 -1.1565 -0.4009
   49MOL0     H 6575   4.236   3.189  -0.033 -0.2290  0.4938  1.9320
   49MOL0     H 6576   4.172   3.289  -0.201  0.7566 -2.9186  2.0127
   49MOL0     H 6577   4.012   3.275  -0.289  0.0722 -0.2442 -1.0038
   49MOL0     H 6578   4.020   3.361  -0.133  1.2703 -1.8818  3.6075
   49MOL0     H 6579   3.738   2.798  -0.370 -0.5619 -1.1467  1.4998
   49MOL0     H 6580   3.583   2.760  -0.554  0.2308 -2.9387  4.1374
   49MOL0     H 6581   3.262   3.052  -0.636  0.2262  0.2444  0.0723
   49MOL0     H 6582   3.411   3.039  -0.736  0.3659 -1.5621 -2.2916
   49MOL0     H 6583   3.200   3.019  -0.860 -0.4785  1.5143  4.9845
   49MOL0     H 6584   3.322   2.890  -0.890  0.0730  0.3552 -1.3656
   49MOL0     H 6585   3.104   2.861  -0.687 -1.2092  3.5094 -2.7440
   49MOL0     H 6586   3.199   2.732  -0.785  0.0611 -0.8807  1.8550
   49MOL0     H 6587   2.985   2.932  -0.847 -1.6036 -0.6099 -0.5238
   49MOL0     H 6588   3.048   2.852  -0.986 -3.8003  0.1430 -0.9930
   49MOL0     H 6589   2.913   2.694  -0.780  3.7546 -0.4734 -0.1807
   49MOL0     H 6590   2.996   2.631  -0.929  0.4535  1.4803 -1.4094
   49MOL0     H 6591   2.757   2.830  -0.919 -1.5218 -0.9911  0.5512
   49MOL0     H 6592   2.840   2.757  -1.061  2.8682 -0.7961  0.9107
   49MOL0     H 6593   2.696   2.588  -0.853  1.3781 -0.2911 -0.6829
   49MOL0     H 6594   2.744   2.540  -1.005  1.0857  0.2642  0.6292
   49MOL0     H 6595   2.586   2.766  -1.056  1.3699  0.8923  1.6605
   49MOL0     H 6596   2.484   2.665  -0.953 -1.5785 -3.6555 -2.2620
   49MOL0     H 6597   3.351   3.104  -0.442  1.0538  3.0200 -0.2864
   49MOL0     H 6598   3.500   3.137  -0.252 -0.8894  1.0517 -0.7112
   49MOL0     H 6599   3.838   2.885  -0.004  1.9973 -1.2988  1.5526
   49MOL0     H 6600   4.001   2.872   0.152  1.5126  0.8633  1.1534
   49MOL0     H 6601   5.660   2.842   0.519 -0.4955  0.0024  1.4903
   49MOL0     H 6602   5.799   3.000   0.650  4.2296  0.9901 -0.1404
   49MOL0     H 6603   6.112   3.313   0.689 -0.6198  1.4962 -1.4956
   49MOL0     H 6604   6.222   3.467   0.837  0.8960  1.1352 -1.6597
   49MOL0     H 6605   6.149   3.562   1.093  1.9653  1.0866  1.7100
   49MOL0     H 6606   6.283   3.574   0.988 -2.1014 -3.3869  0.1342
   49MOL0     H 6607   6.206   3.803   1.176  0.1664  1.0129 -0.4130
   49MOL0     H 6608   6.341   3.793   1.058  0.0575  1.8773  0.7208
   49MOL0     H 6609   6.435   3.590   1.180  0.2891 -2.0192  3.9099
   49MOL0     H 6610   6.300   3.596   1.288 -2.6999  1.8244 -1.1445
   49MOL0     H 6611   6.505   3.655   1.381  0.8687  1.5926  2.4503
   49MOL0     H 6612   6.384   3.787   1.410 -0.8948  0.8764 -1.4573
   49MOL0     H 6613   6.618   4.042   1.210 -1.7596 -0.5887 -3.8590
   49MOL0     H 6614   5.875   3.718   0.842  1.2038  1.0718  1.1413
   49MOL0     H 6615   5.751   3.538   0.726  0.4092 -1.3867 -1.0729
   50MOL0     O 6616   4.682   9.684   1.283  0.0346 -0.3490  0.6687
   50MOL0     C 6617   4.627   9.787   1.239  0.4728  0.1764 -0.1681
   50MOL0     O 6618   4.613   9.812   1.106 -0.0573  0.1592 -0.3979
   50MOL0     C 6619   4.676   9.724   1.019 -0.2116 -0.2652 -0.1756
   50MOL0     C 6620   4.602   9.668   0.924  0.7459 -0.0249 -0.0270
   50MOL0     C 6621   4.657   9.583   0.832 -0.0903 -0.0897  0.2384
   50MOL0     C 6622   4.795   9.558   0.831  1.0739  0.5900  0.0282
   50MOL0     O 6623   4.850   9.483   0.731 -0.2346  0.2809  0.2665
   50MOL0     C 6624   4.913   9.358   0.759 -1.1627  1.0927  0.2618
   50MOL0     C 6625   5.048   9.339   0.676  0.2398  0.0779 -0.3428
   50MOL0     C 6626   5.161   9.440   0.730 -0.4383  0.7253  0.0141
   50MOL0     C 6627   5.190   9.557   0.626  0.5802  0.5488 -0.5151
   50MOL0     C 6628   5.298   9.651   0.681  0.1824  0.2811 -0.1321
   50MOL0     C 6629   5.447   9.606   0.684  0.8737 -0.1618  0.0313
   50MOL0     C 6630   5.540   9.730   0.741  0.6545 -0.0960  0.7214
   50MOL0     C 6631   5.523   9.741   0.898 -0.4961 -0.3005  0.6914
   50MOL0     N 6632   5.622   9.828   0.962 -0.8202 -0.3387  0.9782
   50MOL0     C 6633   5.744   9.791   1.021 -0.6142  0.1102  0.0588
   50MOL0     C 6634   5.797   9.910   1.063  1.1508  1.2844  0.3904
   50MOL0     C 6635   5.921   9.914   1.142 -0.1114  0.1477  0.3639
   50MOL0     C 6636   6.045   9.859   1.070  0.9541 -0.5155  0.2889
   50MOL0     C 6637   6.171   9.841   1.148  0.1757  0.6755 -0.0659
   50MOL0     C 6638   6.162   9.724   1.241  0.2700 -0.6526  0.1402
   50MOL0     O 6639   6.287   9.688   1.297 -0.3390 -0.8738  0.2090
   50MOL0     C 6640   6.281   9.581   1.381 -0.0542 -0.7402 -0.0732
   50MOL0     C 6641   6.170   9.520   1.441  0.2300  0.3435 -0.5442
   50MOL0     C 6642   6.180   9.416   1.540  0.1973 -0.5452 -0.1493
   50MOL0     C 6643   6.048   9.366   1.593  0.8350  0.6204 -0.2052
   50MOL0     C 6644   6.305   9.380   1.588 -0.3125  0.2546  0.0950
   50MOL0     C 6645   6.329   9.279   1.693  0.0872 -0.0119  0.3343
   50MOL0     O 6646   6.445   9.292   1.762  0.8787  0.0065  2.1082
   50MOL0     C 6647   6.478   9.188   1.846 -0.1456 -0.2025  0.6823
   50MOL0     C 6648   6.403   9.143   1.960 -0.8185  0.3640 -0.0517
   50MOL0     C 6649   6.435   9.027   2.029  0.3711  0.4465 -0.2559
   50MOL0     C 6650   6.545   8.954   1.985 -0.4209 -0.2132 -0.1425
   50MOL0     O 6651   6.590   8.850   2.068  0.0187 -0.5392  0.3466
   50MOL0     C 6652   6.484   8.760   2.088  0.0185  0.0887 -0.4434
   50MOL0     C 6653   6.528   8.617   2.071 -0.1785 -0.0612 -0.2518
   50MOL0     C 6654   6.557   8.578   1.924 -0.7839  0.1591 -0.1417
   50MOL0     C 6655   6.608   8.427   1.916 -0.6664 -0.2727  0.3635
   50MOL0     C 6656   6.652   8.381   1.777  0.2191 -0.3167 -0.1566
   50MOL0     C 6657   6.772   8.454   1.725  0.2974  0.4276  0.6379
   50MOL0     C 6658   6.815   8.406   1.584 -0.3748 -0.2082 -0.3083
   50MOL0     C 6659   6.961   8.447   1.536  0.0715 -0.0937 -0.7779
   50MOL0    Cl 6660   6.984   8.621   1.574  0.6178  0.3852 -0.4638
   50MOL0     C 6661   6.629   9.002   1.891 -0.2520  0.9489 -0.7845
   50MOL0     C 6662   6.597   9.110   1.810  1.0746  0.0549  0.9289
   50MOL0     O 6663   6.240   9.199   1.730 -0.1617 -0.2791  0.9692
   50MOL0     C 6664   6.418   9.440   1.520 -0.1283 -0.1529  0.0149
   50MOL0     C 6665   6.405   9.530   1.411  0.3103  1.0768  0.5095
   50MOL0     N 6666   5.710  10.013   1.029  0.2372 -0.7463 -1.1683
   50MOL0     N 6667   5.606   9.957   0.970 -0.5685  0.1764  0.4496
   50MOL0     C 6668   4.878   9.619   0.919 -0.8072 -0.5854 -0.4296
   50MOL0     C 6669   4.819   9.707   1.018  0.3492  0.0909 -0.7998
   50MOL0     C 6670   4.562   9.884   1.328 -0.5104  0.3713  0.3839
   50MOL0     C 6671   4.578   9.869   1.470  0.2277  0.2833  1.6786
   50MOL0     C 6672   4.500   9.925   1.563  0.2063 -0.0349  0.7179
   50MOL0     C 6673   4.420  10.028   1.512 -0.2294 -0.2995 -0.4447
   50MOL0     O 6674   4.340  10.089   1.609 -0.2508 -0.1071  0.7421
   50MOL0     C 6675   4.191  10.097   1.600  0.1750 -0.4096  0.2847
   50MOL0     C 6676   4.110  10.064   1.729 -0.0155 -0.0224  0.4515
   50MOL0     C 6677   4.136   9.920   1.776 -0.2016 -0.9830  0.6058
   50MOL0     C 6678   4.026   9.875   1.874  0.2178  0.0568 -0.6929
   50MOL0     C 6679   3.896   9.844   1.811 -0.1455  1.7181 -1.0141
   50MOL0     C 6680   3.791   9.816   1.756  0.4064 -0.2729 -0.3789
   50MOL0     C 6681   4.404  10.051   1.376  1.0744 -0.1048  0.5591
   50MOL0     C 6682   4.467   9.972   1.279  1.0524 -0.2749 -0.1366
   50MOL0     H 6683   4.496   9.692   0.925  0.5984 -0.6509  0.6621
   50MOL0     H 6684   4.598   9.540   0.752 -1.1752  1.0821  0.3725
   50MOL0     H 6685   4.935   9.357   0.866 -3.6228  1.2368  0.8296
   50MOL0     H 6686   4.854   9.273   0.723  1.8960  0.4419 -3.8624
   50MOL0     H 6687   5.089   9.243   0.708 -1.7148  0.5115  4.1733
   50MOL0     H 6688   5.033   9.346   0.568  0.7705 -1.3709 -0.5305
   50MOL0     H 6689   5.126   9.482   0.825 -2.1567 -1.4488  0.4060
   50MOL0     H 6690   5.252   9.382   0.748 -2.0257 -2.2554 -0.9826
   50MOL0     H 6691   5.211   9.513   0.528 -0.2614 -1.2783  0.0838
   50MOL0     H 6692   5.102   9.620   0.611  0.6021  0.1096 -2.9744
   50MOL0     H 6693   5.285   9.740   0.619 -0.5158 -0.1031 -0.5557
   50MOL0     H 6694   5.294   9.661   0.790  2.1148 -1.2036  0.1374
   50MOL0     H 6695   5.446   9.515   0.745 -3.6497  0.1077  0.7423
   50MOL0     H 6696   5.483   9.570   0.587  1.0761  0.1847 -0.0231
   50MOL0     H 6697   5.648   9.716   0.725  0.9183  1.6583  0.8269
   50MOL0     H 6698   5.507   9.819   0.687  1.6016 -0.7027 -0.9472
   50MOL0     H 6699   5.526   9.639   0.937  1.1738 -0.9420 -0.9971
   50MOL0     H 6700   5.428   9.792   0.919 -1.0322 -0.6492 -0.8048
   50MOL0     H 6701   5.780   9.692   1.048 -1.3150 -0.4331 -0.8885
   50MOL0     H 6702   5.937  10.018   1.172  2.3037 -0.4337  1.3188
   50MOL0     H 6703   5.917   9.862   1.239  3.0684  1.5836  1.3951
   50MOL0     H 6704   6.069   9.921   0.983  0.0642 -3.5245 -2.3135
   50MOL0     H 6705   6.019   9.758   1.035  1.8968 -0.3597 -0.9333
   50MOL0     H 6706   6.210   9.935   1.187  1.8248  0.0079 -0.0081
   50MOL0     H 6707   6.241   9.805   1.072 -2.7388 -3.1392 -1.3046
   50MOL0     H 6708   6.121   9.631   1.201 -0.9869 -1.1697  2.4561
   50MOL0     H 6709   6.090   9.753   1.318  1.2004  2.3872 -0.0054
   50MOL0     H 6710   6.071   9.562   1.435  0.5643  1.5619  1.5811
   50MOL0     H 6711   6.049   9.395   1.699  1.4009 -0.2400  0.0267
   50MOL0     H 6712   5.965   9.402   1.531 -0.0085 -1.3117 -0.2494
   50MOL0     H 6713   6.036   9.258   1.599  3.4545  0.2462  5.7547
   50MOL0     H 6714   6.312   9.196   1.985 -2.0914 -2.0734  0.7890
   50MOL0     H 6715   6.380   8.980   2.109  1.2875 -1.1887 -0.5494
   50MOL0     H 6716   6.446   8.786   2.188 -2.9316 -0.5202 -1.3134
   50MOL0     H 6717   6.404   8.776   2.015 -0.3231  0.3533 -0.0225
   50MOL0     H 6718   6.614   8.603   2.138  0.2663  0.7709 -0.6364
   50MOL0     H 6719   6.446   8.547   2.092  0.0083 -1.1192 -2.7317
   50MOL0     H 6720   6.633   8.644   1.881  1.0899 -0.9958  1.2274
   50MOL0     H 6721   6.469   8.589   1.860  1.2539  0.4229 -3.1417
   50MOL0     H 6722   6.690   8.408   1.986 -0.0349 -0.6407 -0.4609
   50MOL0     H 6723   6.530   8.354   1.939  0.0961 -1.8951 -1.8359
   50MOL0     H 6724   6.572   8.426   1.718  2.6333  2.5898 -1.5542
   50MOL0     H 6725   6.660   8.272   1.774 -1.4094 -0.5174  1.6110
   50MOL0     H 6726   6.746   8.560   1.727 -1.5499 -0.0022  0.6201
   50MOL0     H 6727   6.853   8.442   1.798  1.3601 -1.7969 -0.7960
   50MOL0     H 6728   6.735   8.440   1.519 -3.6801  0.1518  3.5268
   50MOL0     H 6729   6.809   8.297   1.579 -0.6688 -0.2567  0.7309
   50MOL0     H 6730   6.981   8.430   1.430  0.7247 -2.5232 -0.3198
   50MOL0     H 6731   7.027   8.384   1.597  0.6287  0.3969 -0.8524
   50MOL0     H 6732   6.721   8.954   1.861 -1.5573 -1.4743 -1.1785
   50MOL0     H 6733   6.650   9.144   1.722 -1.1151 -1.5806 -1.1685
   50MOL0     H 6734   6.521   9.429   1.554 -1.1862 -0.7556  3.3087
   50MOL0     H 6735   6.482   9.574   1.348 -2.5895  3.8316 -1.4088
   50MOL0     H 6736   4.984   9.596   0.914 -0.5538 -0.5464  2.7847
   50MOL0     H 6737   4.886   9.768   1.079 -0.4011 -0.1469  0.3018
   50MOL0     H 6738   4.645   9.788   1.499  2.6396  1.2323 -0.7562
   50MOL0     H 6739   4.500   9.890   1.666  0.3527 -3.1292 -0.2111
   50MOL0     H 6740   4.166  10.188   1.544 -0.1892 -1.4572 -1.3413
   50MOL0     H 6741   4.153  10.034   1.520  2.5222  0.1945 -1.4253
   50MOL0     H 6742   4.003  10.067   1.709 -0.1837  3.7047  1.3258
   50MOL0     H 6743   4.119  10.141   1.806  1.5963  0.7872 -0.4820
   50MOL0     H 6744   4.237   9.936   1.814 -0.6534  0.6641  1.1754
   50MOL0     H 6745   4.145   9.853   1.689  2.5993 -1.2145  0.9726
   50MOL0     H 6746   4.013   9.958   1.944  2.8112 -1.7806  2.1963
   50MOL0     H 6747   4.061   9.784   1.923  0.5370 -0.6595 -2.1914
   50MOL0     H 6748   3.703   9.784   1.704 -0.2208 -1.7432  1.4973
   50MOL0     H 6749   4.332  10.127   1.348 -0.9183 -1.3438  2.0228
   50MOL0     H 6750   4.446   9.984   1.173  2.3190  0.8567 -0.2784
   51MOL0     O 6751   7.111   4.368   7.361 -1.0067  0.4486  0.1119
   51MOL0     C 6752   7.016   4.363   7.281  1.0070 -0.3417 -0.7284
   51MOL0     O 6753   6.945   4.247   7.254  0.0263 -0.2954  0.8012
   51MOL0     C 6754   6.980   4.144   7.341  0.2019 -0.0178 -0.7195
   51MOL0     C 6755   7.097   4.068   7.317  0.2176 -0.5609 -0.6287
   51MOL0     C 6756   7.143   3.973   7.408  0.6064  0.0902  0.0720
   51MOL0     C 6757   7.067   3.938   7.529  0.2149  0.1151  0.1227
   51MOL0     O 6758   7.116   3.831   7.597 -0.2765 -0.4172  0.5319
   51MOL0     C 6759   7.113   3.830   7.741  0.2734 -0.9000  0.0720
   51MOL0     C 6760   7.195   3.708   7.800 -0.7742  0.3820 -0.0200
   51MOL0     C 6761   7.193   3.677   7.961  0.6498  0.8115  1.0591
   51MOL0     C 6762   7.204   3.803   8.052  0.0968  0.2294  0.6097
   51MOL0     C 6763   7.190   3.761   8.202  0.4721  0.3799  0.4288
   51MOL0     C 6764   7.202   3.899   8.275 -1.2520 -0.1905 -0.0629
   51MOL0     C 6765   7.197   3.888   8.429  0.0520  0.3985 -0.4859
   51MOL0     C 6766   7.149   4.010   8.499 -0.1482 -0.7163  0.4014
   51MOL0     N 6767   7.094   3.987   8.634 -0.4247 -0.3381 -0.9591
   51MOL0     C 6768   6.976   4.047   8.678 -0.1105  0.3363  0.0799
   51MOL0     C 6769   6.963   4.003   8.802 -0.1355 -0.7747  0.0710
   51MOL0     C 6770   6.867   4.044   8.908  0.4318 -0.9231  0.6372
   51MOL0     C 6771   6.734   3.981   8.886 -0.9273  0.9894  0.5987
   51MOL0     C 6772   6.655   4.000   9.009  0.3144 -0.1009  1.0707
   51MOL0     C 6773   6.510   3.969   8.975  0.7735 -0.2906  0.4564
   51MOL0     O 6774   6.471   3.862   9.068  0.8799  0.7516 -0.5555
   51MOL0     C 6775   6.349   3.799   9.039 -0.7800 -0.7180  0.3271
   51MOL0     C 6776   6.238   3.866   9.005  0.1465  0.5259  0.5987
   51MOL0     C 6777   6.123   3.795   8.963  0.3981  0.0938 -0.5422
   51MOL0     C 6778   6.002   3.886   8.935 -0.3592 -0.4617  0.6940
   51MOL0     C 6779   6.123   3.658   8.945  0.1018  0.1829 -0.1696
   51MOL0     C 6780   6.025   3.582   8.882  0.0066 -0.0376  0.1404
   51MOL0     O 6781   6.010   3.455   8.940  0.4423 -0.0496 -0.1327
   51MOL0     C 6782   5.931   3.361   8.878 -0.0235 -1.3842  0.6119
   51MOL0     C 6783   5.789   3.371   8.882  0.0415 -0.7054  0.1177
   51MOL0     C 6784   5.724   3.269   8.820  0.4319  1.0385  0.5026
   51MOL0     C 6785   5.782   3.147   8.769 -0.8046 -0.5659 -0.0969
   51MOL0     O 6786   5.702   3.041   8.736  0.1635  0.3514  0.2040
   51MOL0     C 6787   5.764   2.937   8.654  0.0845 -0.0472 -0.5993
   51MOL0     C 6788   5.640   2.877   8.585  0.5138 -0.5075 -0.7039
   51MOL0     C 6789   5.588   2.963   8.476 -0.1956 -0.0656 -0.0122
   51MOL0     C 6790   5.454   2.888   8.427 -0.4311 -0.2883  0.1230
   51MOL0     C 6791   5.398   2.952   8.301 -0.5194  0.3800  0.6263
   51MOL0     C 6792   5.489   2.949   8.173  0.0612 -0.3272 -0.2542
   51MOL0     C 6793   5.569   2.813   8.156 -0.0456 -0.1925  0.5675
   51MOL0     C 6794   5.658   2.822   8.031 -0.0494  0.2291 -0.3151
   51MOL0    Cl 6795   5.547   2.798   7.899  0.1177 -0.5739 -0.2404
   51MOL0     C 6796   5.926   3.132   8.774  0.0983  0.1810  1.1993
   51MOL0     C 6797   5.995   3.244   8.821 -0.3928  0.4949 -0.7476
   51MOL0     O 6798   5.969   3.616   8.779 -0.4991 -0.0495  0.3865
   51MOL0     C 6799   6.239   3.587   8.981 -0.8459 -0.2525 -1.0085
   51MOL0     C 6800   6.345   3.663   9.030 -0.7943 -0.0658 -0.3627
   51MOL0     N 6801   7.068   3.910   8.828  0.1882 -0.0548  0.3192
   51MOL0     N 6802   7.129   3.892   8.713 -0.3021 -0.4778 -0.7567
   51MOL0     C 6803   6.948   4.008   7.552 -0.6633  0.4766  0.5063
   51MOL0     C 6804   6.906   4.122   7.465  0.4509  0.3638 -0.4020
   51MOL0     C 6805   6.992   4.483   7.204 -0.1448  0.0816  0.0115
   51MOL0     C 6806   7.052   4.600   7.242  0.7636 -0.7090  0.4298
   51MOL0     C 6807   7.014   4.734   7.195  0.2514 -0.4141  1.0279
   51MOL0     C 6808   6.923   4.737   7.095  0.4016 -0.6604  0.2918
   51MOL0     O 6809   6.857   4.844   7.046 -0.4681 -0.4319 -0.7806
   51MOL0     C 6810   6.839   4.952   7.144  0.6722 -1.0330 -0.6147
   51MOL0     C 6811   6.719   5.034   7.100  0.2412  0.1898  0.0798
   51MOL0     C 6812   6.662   5.134   7.204 -0.4314  0.3499  0.7453
   51MOL0     C 6813   6.538   5.199   7.146 -0.4145  0.3377 -0.2552
   51MOL0     C 6814   6.567   5.324   7.071 -0.6775 -0.2465 -0.1087
   51MOL0     C 6815   6.589   5.423   6.996  0.1551 -0.8802  0.1427
   51MOL0     C 6816   6.876   4.610   7.047  0.8537 -0.3825  0.2221
   51MOL0     C 6817   6.907   4.489   7.101  0.2675 -0.2998  0.4246
   51MOL0     H 6818   7.152   4.094   7.226 -0.4295  1.2459 -0.5473
   51MOL0     H 6819   7.235   3.925   7.377  0.7982  0.2896  0.3223
   51MOL0     H 6820   7.142   3.931   7.772 -1.7047  0.5044 -2.2513
   51MOL0     H 6821   7.010   3.819   7.776  0.3179  0.2201  0.5800
   51MOL0     H 6822   7.160   3.618   7.748  0.5562 -1.0926  1.5154
   51MOL0     H 6823   7.302   3.711   7.780 -0.7184 -3.3013 -0.8550
   51MOL0     H 6824   7.095   3.635   7.987 -0.3780  2.5541  0.2113
   51MOL0     H 6825   7.265   3.599   7.987  0.8919  0.3742 -0.7515
   51MOL0     H 6826   7.299   3.853   8.029  0.0646  0.0255  0.0408
   51MOL0     H 6827   7.127   3.877   8.033 -0.4944 -0.0233  1.9141
   51MOL0     H 6828   7.095   3.709   8.216 -0.7320  2.3119 -0.2149
   51MOL0     H 6829   7.269   3.693   8.235  1.0368  0.2088 -1.1693
   51MOL0     H 6830   7.294   3.948   8.243 -2.0366  0.9333 -0.6679
   51MOL0     H 6831   7.114   3.958   8.248 -2.0079 -2.5017 -3.1280
   51MOL0     H 6832   7.134   3.803   8.456  1.2404  0.1580  1.7271
   51MOL0     H 6833   7.298   3.863   8.462  0.3287  2.3659  0.2984
   51MOL0     H 6834   7.067   4.060   8.447 -0.2958  1.4457  2.5053
   51MOL0     H 6835   7.232   4.080   8.508 -0.1810 -0.8424  1.9054
   51MOL0     H 6836   6.906   4.109   8.622 -2.8231 -3.3638 -1.0220
   51MOL0     H 6837   6.911   4.016   9.004  1.0053  0.4104  0.7917
   51MOL0     H 6838   6.864   4.153   8.905 -1.8245 -0.9169 -2.4122
   51MOL0     H 6839   6.750   3.874   8.871  0.0118  1.4666 -2.3425
   51MOL0     H 6840   6.673   4.027   8.808 -0.0752 -1.2847 -1.5273
   51MOL0     H 6841   6.651   4.108   9.025 -0.7372  0.2802 -1.3785
   51MOL0     H 6842   6.689   3.961   9.106 -1.8110 -1.2618  1.4238
   51MOL0     H 6843   6.505   3.938   8.871 -0.0809 -0.0897  0.4276
   51MOL0     H 6844   6.449   4.058   8.995  1.4777  0.3795 -0.2972
   51MOL0     H 6845   6.233   3.975   9.011  1.9698  1.1211 -4.0872
   51MOL0     H 6846   5.947   3.837   8.855  1.5003  0.0510 -0.9743
   51MOL0     H 6847   5.939   3.899   9.023 -1.5720 -2.0471  0.1042
   51MOL0     H 6848   6.039   3.986   8.909  0.3102 -1.1052 -0.9315
   51MOL0     H 6849   5.747   3.458   8.932  4.0404  2.8676 -2.0780
   51MOL0     H 6850   5.616   3.279   8.820  0.5257  2.4043  1.5303
   51MOL0     H 6851   5.823   2.975   8.570 -1.0115  1.3379 -0.7971
   51MOL0     H 6852   5.821   2.869   8.717 -1.0102  2.3376  3.2960
   51MOL0     H 6853   5.664   2.780   8.540  1.7021 -0.6325  0.1648
   51MOL0     H 6854   5.565   2.854   8.661  1.6496 -2.8911 -0.2141
   51MOL0     H 6855   5.665   2.968   8.398 -0.8506  2.3483 -0.6006
   51MOL0     H 6856   5.571   3.065   8.512 -1.4006  0.1608 -1.1081
   51MOL0     H 6857   5.482   2.787   8.396 -2.9818 -1.2242  0.6298
   51MOL0     H 6858   5.384   2.895   8.511  0.8215  0.3446  1.1537
   51MOL0     H 6859   5.381   3.058   8.321  1.2469  0.1734  3.9225
   51MOL0     H 6860   5.305   2.896   8.292  0.0340 -1.0408  2.9742
   51MOL0     H 6861   5.422   2.964   8.087 -0.2848 -0.0713  0.0571
   51MOL0     H 6862   5.558   3.033   8.185 -0.4081  0.3615 -2.0747
   51MOL0     H 6863   5.495   2.734   8.143  0.3324 -0.1763 -2.5524
   51MOL0     H 6864   5.639   2.798   8.239  1.5638  1.3423 -0.4423
   51MOL0     H 6865   5.729   2.739   8.046 -2.4407 -1.2702  4.8641
   51MOL0     H 6866   5.701   2.922   8.022  0.1093  0.0927 -1.2924
   51MOL0     H 6867   5.980   3.042   8.746  0.9576  0.0857  3.0447
   51MOL0     H 6868   6.104   3.240   8.822 -0.3973  0.0369 -1.3946
   51MOL0     H 6869   6.265   3.482   8.973  1.6330  0.2349 -0.1092
   51MOL0     H 6870   6.437   3.617   9.064 -1.9114 -1.5131  0.8330
   51MOL0     H 6871   6.908   3.992   7.652 -1.8097 -0.2604 -0.0423
   51MOL0     H 6872   6.817   4.182   7.478 -1.2199 -1.3300 -3.2410
   51MOL0     H 6873   7.127   4.605   7.321  3.1730  2.9981 -1.8103
   51MOL0     H 6874   7.055   4.825   7.235  0.6032  0.0751 -0.3739
   51MOL0     H 6875   6.806   4.911   7.240 -0.0075  0.0782 -0.3545
   51MOL0     H 6876   6.923   5.020   7.162 -1.8458  1.6639  2.0228
   51MOL0     H 6877   6.634   4.979   7.060  0.1240  1.3613 -1.3774
   51MOL0     H 6878   6.761   5.086   7.013  0.4890 -3.2695 -2.0503
   51MOL0     H 6879   6.732   5.213   7.234  0.7499 -0.7801  1.0757
   51MOL0     H 6880   6.637   5.075   7.293  3.0882 -0.7121  1.1729
   51MOL0     H 6881   6.468   5.217   7.228 -0.5349  1.1172 -0.5233
   51MOL0     H 6882   6.486   5.129   7.079 -3.5859 -1.6861  3.8876
   51MOL0     H 6883   6.582   5.512   6.939 -3.5775  0.8016  2.8011
   51MOL0     H 6884   6.812   4.633   6.962 -0.0969 -1.7735  0.5442
   51MOL0     H 6885   6.863   4.403   7.051  0.1336  1.0401 -1.9002
   52MOL0     O 6886  10.286   3.246   4.842 -0.4335  0.2805 -0.4059
   52MOL0     C 6887  10.238   3.339   4.772  0.2089 -0.4787  1.0219
   52MOL0     O 6888  10.186   3.458   4.811 -0.0597  0.4707  0.2424
   52MOL0     C 6889  10.190   3.486   4.943  0.7342 -0.2640  0.2334
   52MOL0     C 6890  10.083   3.553   4.997 -0.5760 -0.5507 -0.4654
   52MOL0     C 6891  10.090   3.601   5.128 -0.1849 -0.8943  0.3088
   52MOL0     C 6892  10.199   3.595   5.205  0.1155  0.4012 -0.2057
   52MOL0     O 6893  10.210   3.675   5.318  0.3878  0.3147  0.8296
   52MOL0     C 6894  10.238   3.594   5.440 -0.0592  0.1457 -0.3457
   52MOL0     C 6895  10.191   3.683   5.559 -0.4464  0.3865  0.6874
   52MOL0     C 6896  10.291   3.773   5.619  0.0469  0.0810  0.5821
   52MOL0     C 6897  10.413   3.807   5.537  0.9985  0.9810  0.0716
   52MOL0     C 6898  10.496   3.903   5.618 -0.7082 -0.3500 -0.4376
   52MOL0     C 6899  10.639   3.877   5.598  0.2291 -0.7010 -0.5730
   52MOL0     C 6900  10.715   3.987   5.664  0.1720 -0.0054 -0.1209
   52MOL0     C 6901  10.869   3.979   5.680  1.1827  0.1070  0.3021
   52MOL0     N 6902  10.936   3.951   5.549 -0.4898 -0.6152  0.2816
   52MOL0     C 6903  10.951   3.824   5.489 -0.4218  0.3316  0.3226
   52MOL0     C 6904  10.998   3.838   5.357  0.0329  0.9890 -1.7022
   52MOL0     C 6905  11.030   3.733   5.258  0.9426 -0.4952  0.0346
   52MOL0     C 6906  10.897   3.658   5.217 -0.5532  0.9963  0.2027
   52MOL0     C 6907  10.862   3.696   5.071  0.7064  0.2938  0.0408
   52MOL0     C 6908  10.721   3.655   5.023 -0.2463  0.5308 -0.7615
   52MOL0     O 6909  10.721   3.518   4.985 -0.0755  0.8818  0.0310
   52MOL0     C 6910  10.745   3.505   4.853 -0.1982  0.5541 -0.0617
   52MOL0     C 6911  10.651   3.521   4.755  0.0449 -0.6945 -0.2544
   52MOL0     C 6912  10.678   3.491   4.620 -0.6288  0.3121 -0.4943
   52MOL0     C 6913  10.564   3.506   4.527 -0.1713 -0.0449 -0.0377
   52MOL0     C 6914  10.812   3.456   4.592 -0.2775 -0.8855  1.1387
   52MOL0     C 6915  10.859   3.429   4.455  1.5823  0.3583  0.2584
   52MOL0     O 6916  10.988   3.460   4.425  0.1769 -0.5227  0.4515
   52MOL0     C 6917  11.033   3.452   4.298 -0.2155  0.3631 -0.1563
   52MOL0     C 6918  11.115   3.556   4.243  0.2153  0.3386  0.0735
   52MOL0     C 6919  11.149   3.550   4.105 -0.4038  0.3117 -0.0247
   52MOL0     C 6920  11.122   3.434   4.021 -0.3877 -0.1394 -0.5331
   52MOL0     O 6921  11.163   3.416   3.888  0.4683 -0.2008 -0.1180
   52MOL0     C 6922  11.103   3.312   3.809 -0.0802  0.3962 -0.1587
   52MOL0     C 6923  11.121   3.331   3.654  0.1028  0.0660 -0.0481
   52MOL0     C 6924  11.268   3.330   3.620 -0.5976  0.6193  0.3452
   52MOL0     C 6925  11.310   3.192   3.567  0.0845 -0.1185  0.1884
   52MOL0     C 6926  11.449   3.201   3.507 -0.7607  0.0850  0.1893
   52MOL0     C 6927  11.562   3.162   3.615 -0.5454  0.7064  0.3166
   52MOL0     C 6928  11.708   3.179   3.550 -1.0649  0.0000  0.1727
   52MOL0     C 6929  11.773   3.316   3.569 -0.2991 -0.5462  0.5047
   52MOL0    Cl 6930  11.785   3.377   3.736  0.9645  0.4213  0.5833
   52MOL0     C 6931  11.057   3.333   4.095 -0.4678  0.0375 -0.1989
   52MOL0     C 6932  11.008   3.344   4.224  0.5063  0.0836  0.3660
   52MOL0     O 6933  10.775   3.366   4.383  0.7410 -0.4272 -0.2461
   52MOL0     C 6934  10.909   3.448   4.695  0.3777  1.0209  0.2707
   52MOL0     C 6935  10.871   3.460   4.832  0.0747  0.7231  0.3452
   52MOL0     N 6936  10.991   3.969   5.337  0.9889  0.5333  0.4608
   52MOL0     N 6937  10.947   4.037   5.438  0.4755  0.4170  0.9282
   52MOL0     C 6938  10.305   3.526   5.147 -1.1218  0.3547 -0.1760
   52MOL0     C 6939  10.310   3.469   5.022  0.3005 -0.0350 -0.1188
   52MOL0     C 6940  10.234   3.328   4.621 -0.2220  0.1532  0.5316
   52MOL0     C 6941  10.225   3.441   4.540 -0.2883  0.6042  1.2400
   52MOL0     C 6942  10.211   3.428   4.403 -0.6624 -0.6230  0.3536
   52MOL0     C 6943  10.215   3.297   4.343 -0.4426  0.2474  0.0670
   52MOL0     O 6944  10.199   3.280   4.206  0.1147  0.5244 -0.4729
   52MOL0     C 6945  10.322   3.278   4.134 -0.1615  0.5862 -0.1757
   52MOL0     C 6946  10.397   3.407   4.142  0.5156 -0.9761  0.4361
   52MOL0     C 6947  10.541   3.400   4.113 -0.5331 -0.4502 -0.6027
   52MOL0     C 6948  10.582   3.352   3.976 -0.3351  0.6972  0.4303
   52MOL0     C 6949  10.521   3.419   3.859 -0.5327 -0.6282  0.0728
   52MOL0     C 6950  10.476   3.456   3.755  0.2518  0.1694  0.5310
   52MOL0     C 6951  10.224   3.183   4.422  0.7214 -0.8946  0.4353
   52MOL0     C 6952  10.230   3.197   4.559 -0.7025 -1.2468 -0.0770
   52MOL0     H 6953   9.991   3.562   4.941 -0.4014  0.3791 -0.6206
   52MOL0     H 6954  10.019   3.673   5.168 -0.7650 -1.9061  1.1409
   52MOL0     H 6955  10.172   3.507   5.434  0.9274 -0.5619 -1.2158
   52MOL0     H 6956  10.344   3.571   5.446 -0.3944 -1.3112  0.4482
   52MOL0     H 6957  10.121   3.761   5.530 -0.3858  0.5206  0.9004
   52MOL0     H 6958  10.139   3.613   5.625 -2.1784  0.5863 -0.4006
   52MOL0     H 6959  10.233   3.864   5.639 -3.2491 -0.9956 -2.9833
   52MOL0     H 6960  10.322   3.729   5.715 -1.0258 -1.0788  0.4252
   52MOL0     H 6961  10.464   3.711   5.525 -4.2591 -1.9970 -1.9924
   52MOL0     H 6962  10.395   3.843   5.435 -0.8741 -0.2555 -0.0789
   52MOL0     H 6963  10.471   4.006   5.594  2.3594  0.8857  1.1532
   52MOL0     H 6964  10.465   3.906   5.723 -4.3392  0.6381 -1.3935
   52MOL0     H 6965  10.670   3.784   5.645  1.3611  0.9737  2.3028
   52MOL0     H 6966  10.673   3.884   5.495  1.8625  3.7788  0.0374
   52MOL0     H 6967  10.690   4.077   5.607 -3.6578 -1.6544 -1.3147
   52MOL0     H 6968  10.685   4.005   5.768 -0.0489  2.3136 -0.5256
   52MOL0     H 6969  10.894   3.896   5.746 -1.1767  0.5581  1.8835
   52MOL0     H 6970  10.900   4.077   5.718  0.9154 -0.3828  1.8396
   52MOL0     H 6971  10.938   3.735   5.549 -1.0031  1.0550  1.2950
   52MOL0     H 6972  11.078   3.791   5.179  2.6434 -1.0897  0.5834
   52MOL0     H 6973  11.104   3.662   5.297  0.1287 -1.0031  0.7004
   52MOL0     H 6974  10.819   3.678   5.291 -2.5962  1.8916 -2.0584
   52MOL0     H 6975  10.912   3.550   5.217 -0.3227  0.9909 -1.5052
   52MOL0     H 6976  10.932   3.641   5.006 -1.9268 -2.8278 -0.4112
   52MOL0     H 6977  10.872   3.804   5.065 -2.2971  0.6050 -0.9762
   52MOL0     H 6978  10.682   3.714   4.940  3.5891  2.5189 -1.3571
   52MOL0     H 6979  10.655   3.670   5.110 -3.1807  0.0596 -2.7489
   52MOL0     H 6980  10.553   3.554   4.788  0.8506  1.1920  0.3922
   52MOL0     H 6981  10.618   3.555   4.445  1.5927 -0.8807  0.5601
   52MOL0     H 6982  10.519   3.414   4.489 -3.7735  0.1635  3.1502
   52MOL0     H 6983  10.487   3.578   4.558  1.3505  0.4381  3.0471
   52MOL0     H 6984  11.148   3.640   4.302 -1.3094  0.6463  0.5296
   52MOL0     H 6985  11.210   3.625   4.055  0.4916 -0.7988 -0.6506
   52MOL0     H 6986  11.144   3.213   3.831 -1.6426 -0.5759 -1.3603
   52MOL0     H 6987  10.995   3.306   3.827  0.2538 -1.0634  1.6106
   52MOL0     H 6988  11.061   3.259   3.598  1.3386  0.0097 -1.3819
   52MOL0     H 6989  11.074   3.423   3.619 -3.5284 -1.7898 -0.4552
   52MOL0     H 6990  11.331   3.359   3.704 -0.3662 -0.4550  0.5605
   52MOL0     H 6991  11.289   3.394   3.534  2.6749 -2.6777 -1.5797
   52MOL0     H 6992  11.302   3.114   3.643 -2.8414 -2.1704 -2.0059
   52MOL0     H 6993  11.242   3.165   3.485  3.1692 -2.0112 -1.9332
   52MOL0     H 6994  11.470   3.301   3.467 -0.1101  0.7967  2.1749
   52MOL0     H 6995  11.453   3.130   3.424 -2.3739 -1.1419  1.0980
   52MOL0     H 6996  11.567   3.229   3.701  1.9695  0.2518  0.5832
   52MOL0     H 6997  11.540   3.065   3.662  2.6525  0.3517  1.2844
   52MOL0     H 6998  11.689   3.160   3.444  0.1374  3.4263 -0.7945
   52MOL0     H 6999  11.773   3.102   3.592 -3.3357 -0.5477  3.0031
   52MOL0     H 7000  11.714   3.392   3.519 -2.6985 -4.2710 -2.9150
   52MOL0     H 7001  11.872   3.319   3.523  0.8795  1.5430  2.9440
   52MOL0     H 7002  11.060   3.232   4.056 -1.5746 -0.2267  0.3545
   52MOL0     H 7003  10.954   3.254   4.254  1.3872 -0.3619  0.6333
   52MOL0     H 7004  11.011   3.414   4.680 -0.0920  0.2217 -1.3780
   52MOL0     H 7005  10.936   3.440   4.917  0.0011  0.2614  0.2975
   52MOL0     H 7006  10.398   3.541   5.202  0.0214 -1.0575 -1.6121
   52MOL0     H 7007  10.409   3.446   4.983  1.1523  1.7830  0.8639
   52MOL0     H 7008  10.219   3.540   4.585  1.5084  0.6470  1.4544
   52MOL0     H 7009  10.202   3.510   4.332  3.2575  0.9019  1.3497
   52MOL0     H 7010  10.383   3.196   4.173 -1.8309 -0.0193  1.3121
   52MOL0     H 7011  10.298   3.256   4.030  0.0853 -0.8261  0.0426
   52MOL0     H 7012  10.400   3.444   4.245 -2.1478 -0.8922  0.5323
   52MOL0     H 7013  10.358   3.485   4.077 -2.5257 -3.1845 -0.6341
   52MOL0     H 7014  10.584   3.344   4.196 -1.4065  1.3804  1.1732
   52MOL0     H 7015  10.590   3.497   4.124  0.2356 -0.8725 -0.2193
   52MOL0     H 7016  10.569   3.244   3.959  1.7571  0.3839  0.4605
   52MOL0     H 7017  10.690   3.365   3.960  0.5604 -3.4767  1.6896
   52MOL0     H 7018  10.437   3.492   3.662 -2.0674 -1.6385  0.7048
   52MOL0     H 7019  10.222   3.086   4.374 -0.9540 -1.3102  1.2559
   52MOL0     H 7020  10.234   3.102   4.612 -0.4830 -1.8669 -1.1723
   53MOL0     O 7021  11.467   1.901   7.670  0.3650 -0.3374  0.2896
   53MOL0     C 7022  11.545   1.969   7.737 -0.1784  0.4210  0.3597
   53MOL0     O 7023  11.536   1.989   7.870 -0.5929  0.0195  0.2758
   53MOL0     C 7024  11.436   1.933   7.938  0.6033  0.4370  0.1667
   53MOL0     C 7025  11.367   2.012   8.034  0.3049 -0.6408  0.5272
   53MOL0     C 7026  11.258   1.960   8.099  0.3527  0.0198  0.0256
   53MOL0     C 7027  11.216   1.830   8.081  0.9785  0.4271 -0.8552
   53MOL0     O 7028  11.104   1.787   8.148 -0.2239 -0.2063 -0.3620
   53MOL0     C 7029  11.031   1.667   8.124 -0.5364 -0.3451 -0.3824
   53MOL0     C 7030  10.963   1.630   8.257  0.4930  0.7690  0.2102
   53MOL0     C 7031  10.861   1.525   8.214  0.7416  0.2094  1.0608
   53MOL0     C 7032  10.937   1.397   8.163  0.5697 -0.1473  0.4887
   53MOL0     C 7033  10.828   1.288   8.145  0.2214  0.5277 -0.1335
   53MOL0     C 7034  10.879   1.144   8.119  0.1431  0.2858 -0.1892
   53MOL0     C 7035  10.886   1.057   8.253 -0.4540 -0.5009  0.6122
   53MOL0     C 7036  10.968   0.924   8.248 -1.4107 -0.6410  0.0490
   53MOL0     N 7037  11.105   0.933   8.193 -0.0734  0.1241  0.1506
   53MOL0     C 7038  11.217   1.008   8.229 -0.4621 -0.4299  0.2757
   53MOL0     C 7039  11.322   0.964   8.155  0.7662  1.0023  0.0136
   53MOL0     C 7040  11.475   1.016   8.181  0.1554  0.4581 -0.2474
   53MOL0     C 7041  11.552   1.023   8.047 -0.0114 -0.9375 -0.8743
   53MOL0     C 7042  11.601   0.885   8.011 -0.5863  0.8056  0.1749
   53MOL0     C 7043  11.736   0.850   8.092  0.0201  0.7332  0.6857
   53MOL0     O 7044  11.777   0.729   8.041  0.2050  0.0761  1.0561
   53MOL0     C 7045  11.912   0.732   7.998  0.4272 -0.6695 -0.2748
   53MOL0     C 7046  11.957   0.827   7.911 -0.2599  0.0499  0.1203
   53MOL0     C 7047  12.093   0.824   7.874 -0.2931  0.2270 -0.5002
   53MOL0     C 7048  12.143   0.930   7.770 -0.2260  0.5324  0.5688
   53MOL0     C 7049  12.183   0.724   7.924  0.0424  1.2093  0.4088
   53MOL0     C 7050  12.331   0.705   7.899  0.4822  0.5424 -0.4517
   53MOL0     O 7051  12.393   0.829   7.884  0.7250 -0.1079  0.3151
   53MOL0     C 7052  12.527   0.861   7.883 -0.6822  0.2565 -0.0274
   53MOL0     C 7053  12.626   0.799   7.965 -0.5621 -0.1632  0.0746
   53MOL0     C 7054  12.760   0.836   7.956 -0.0608 -0.4231  0.5744
   53MOL0     C 7055  12.803   0.922   7.858 -0.1138 -0.5151 -0.4517
   53MOL0     O 7056  12.942   0.938   7.845 -0.0501  0.2706  0.0243
   53MOL0     C 7057  12.986   1.045   7.762 -0.8457 -0.6698  0.2783
   53MOL0     C 7058  13.139   1.038   7.762  0.1217  0.1381 -0.6842
   53MOL0     C 7059  13.196   1.178   7.749 -0.7343  0.1390 -0.1953
   53MOL0     C 7060  13.348   1.168   7.733  1.1093 -0.0816 -0.0586
   53MOL0     C 7061  13.414   1.298   7.693 -0.4598  0.3100  0.5951
   53MOL0     C 7062  13.560   1.291   7.676  0.1028  0.0379  0.5619
   53MOL0     C 7063  13.614   1.416   7.624  0.2374 -0.8751 -0.1696
   53MOL0     C 7064  13.759   1.383   7.579 -0.5243  0.4405  0.2479
   53MOL0    Cl 7065  13.753   1.296   7.421 -0.2281 -0.0015  0.3957
   53MOL0     C 7066  12.706   0.982   7.775 -0.2090  0.4391  0.2830
   53MOL0     C 7067  12.573   0.951   7.784  0.6389 -0.2901  0.4540
   53MOL0     O 7068  12.388   0.598   7.915 -0.3009  0.2007  0.2485
   53MOL0     C 7069  12.119   0.616   8.001 -0.7413  0.0828 -0.3801
   53MOL0     C 7070  11.990   0.631   8.045 -0.5736 -1.6949  0.5213
   53MOL0     N 7071  11.286   0.849   8.092  0.6795 -0.3754  0.1626
   53MOL0     N 7072  11.162   0.843   8.099  0.0583 -0.8545 -0.7183
   53MOL0     C 7073  11.286   1.748   8.007 -0.2606 -0.4174 -0.9386
   53MOL0     C 7074  11.395   1.791   7.928  0.9854 -0.3507  0.6770
   53MOL0     C 7075  11.648   2.048   7.672 -0.4479 -1.1485 -0.6448
   53MOL0     C 7076  11.616   2.107   7.550  0.9379  0.5393 -0.4648
   53MOL0     C 7077  11.694   2.203   7.489 -0.2594  1.5296 -0.0760
   53MOL0     C 7078  11.807   2.259   7.551 -0.2778 -0.4206 -0.1924
   53MOL0     O 7079  11.895   2.350   7.490 -0.3372  1.0809 -0.0480
   53MOL0     C 7080  11.860   2.407   7.364 -0.1908  0.6053 -0.0273
   53MOL0     C 7081  11.916   2.325   7.247  0.7951  1.2274 -0.4160
   53MOL0     C 7082  12.071   2.307   7.255  1.2446  1.3299  0.5967
   53MOL0     C 7083  12.134   2.252   7.122  0.8145 -0.9100 -0.3474
   53MOL0     C 7084  12.146   2.108   7.126 -0.3384 -0.2521  0.5450
   53MOL0     C 7085  12.170   1.994   7.126 -0.5169  0.2098 -0.2129
   53MOL0     C 7086  11.841   2.201   7.671  0.1324  0.1472  0.2856
   53MOL0     C 7087  11.760   2.104   7.730 -0.3781  0.7644 -0.9310
   53MOL0     H 7088  11.393   2.114   8.059 -2.2842  0.1555  0.3355
   53MOL0     H 7089  11.183   2.027   8.139 -0.9964 -0.0631 -2.2123
   53MOL0     H 7090  10.952   1.683   8.050  0.9376 -0.6795 -2.0973
   53MOL0     H 7091  11.093   1.580   8.101 -0.5075 -0.1934 -0.8723
   53MOL0     H 7092  11.033   1.587   8.329 -1.4124 -1.9910  0.5589
   53MOL0     H 7093  10.915   1.713   8.309  1.8291 -0.2798  3.3222
   53MOL0     H 7094  10.799   1.490   8.297 -0.2915 -1.4602 -0.3497
   53MOL0     H 7095  10.787   1.558   8.141 -1.3591 -1.1839  2.4611
   53MOL0     H 7096  10.987   1.413   8.067  0.8633  1.9674  0.9419
   53MOL0     H 7097  11.012   1.359   8.234 -0.1232 -1.5259  0.5138
   53MOL0     H 7098  10.754   1.278   8.224 -0.7128  0.3359 -1.0122
   53MOL0     H 7099  10.769   1.316   8.057  0.4950  0.4842 -0.3344
   53MOL0     H 7100  10.813   1.095   8.047  2.0935  3.2717 -4.4740
   53MOL0     H 7101  10.979   1.146   8.075 -0.1478 -0.5652 -0.9100
   53MOL0     H 7102  10.939   1.125   8.320 -0.1738  1.9819 -1.9502
   53MOL0     H 7103  10.791   1.022   8.295 -1.1113  0.0849 -0.3505
   53MOL0     H 7104  10.911   0.848   8.194  1.1034 -3.3553  0.9220
   53MOL0     H 7105  10.983   0.891   8.351  1.1678  2.4798  0.8382
   53MOL0     H 7106  11.225   1.087   8.303  1.9442  0.0637 -0.4109
   53MOL0     H 7107  11.478   1.113   8.233  1.9594  0.9565 -1.1914
   53MOL0     H 7108  11.527   0.968   8.265 -2.5696  0.4674  1.5812
   53MOL0     H 7109  11.634   1.096   8.049 -0.2538 -0.4154 -4.0639
   53MOL0     H 7110  11.486   1.065   7.970  2.3968  2.7040 -1.2010
   53MOL0     H 7111  11.628   0.886   7.905 -1.0830  1.9101  0.0416
   53MOL0     H 7112  11.522   0.814   8.036 -0.6854  1.0821  0.6809
   53MOL0     H 7113  11.719   0.844   8.200 -0.3074 -3.2408  0.5600
   53MOL0     H 7114  11.808   0.931   8.080  2.6667 -1.5100  0.3251
   53MOL0     H 7115  11.896   0.909   7.875 -3.5275 -1.3398  2.0055
   53MOL0     H 7116  12.066   1.006   7.753  0.6873  2.1723  3.2407
   53MOL0     H 7117  12.236   0.980   7.795 -0.0230  0.0210  0.8491
   53MOL0     H 7118  12.165   0.874   7.679 -1.5470  2.4944 -1.0463
   53MOL0     H 7119  12.603   0.717   8.032  5.6924  0.4825  3.7775
   53MOL0     H 7120  12.840   0.798   8.020  2.2607  1.2134 -1.1795
   53MOL0     H 7121  12.951   1.039   7.658  2.3449  0.3249 -0.9636
   53MOL0     H 7122  12.956   1.138   7.812  0.1546 -0.7972  1.1408
   53MOL0     H 7123  13.189   0.997   7.850  3.0435  4.9001  0.2620
   53MOL0     H 7124  13.158   0.969   7.680 -3.8540  0.1681 -1.8448
   53MOL0     H 7125  13.185   1.225   7.847  1.6044 -0.1518  0.2458
   53MOL0     H 7126  13.151   1.241   7.671 -2.3599 -0.8029 -0.0840
   53MOL0     H 7127  13.391   1.121   7.822 -0.3337 -2.5979 -0.6046
   53MOL0     H 7128  13.378   1.097   7.655  1.5165  0.7334 -0.6577
   53MOL0     H 7129  13.386   1.376   7.764 -2.3777  0.2955 -0.0863
   53MOL0     H 7130  13.357   1.332   7.606 -2.0471 -0.0079  1.4790
   53MOL0     H 7131  13.613   1.266   7.768  0.4063 -1.5959 -0.0077
   53MOL0     H 7132  13.585   1.200   7.620 -1.4841  1.3351 -2.5230
   53MOL0     H 7133  13.623   1.495   7.699 -0.5367 -0.6566 -0.2978
   53MOL0     H 7134  13.559   1.460   7.540 -0.4098  2.0992  1.6580
   53MOL0     H 7135  13.815   1.326   7.654  1.2883 -2.2374 -2.8946
   53MOL0     H 7136  13.810   1.479   7.566  0.3757 -0.4314 -4.0303
   53MOL0     H 7137  12.734   1.041   7.688 -1.8938 -0.5896 -1.0307
   53MOL0     H 7138  12.503   0.985   7.709  1.9700 -3.3153 -2.4148
   53MOL0     H 7139  12.172   0.528   8.035 -1.2693 -0.7402 -1.6102
   53MOL0     H 7140  11.938   0.562   8.112 -1.5788 -0.6518  0.8356
   53MOL0     H 7141  11.263   1.643   7.992 -0.8948 -0.5818  0.8808
   53MOL0     H 7142  11.458   1.734   7.860  5.8099  3.2930  1.4876
   53MOL0     H 7143  11.533   2.068   7.492  0.3806 -0.2119  0.7854
   53MOL0     H 7144  11.655   2.236   7.393 -2.9823 -3.6720 -1.1225
   53MOL0     H 7145  11.756   2.441   7.351  0.3026  1.1556 -4.0201
   53MOL0     H 7146  11.909   2.504   7.359 -1.8080  1.4210 -2.9769
   53MOL0     H 7147  11.875   2.369   7.156 -1.7445 -1.2608 -0.6144
   53MOL0     H 7148  11.868   2.226   7.245 -0.7716  1.7725  2.6755
   53MOL0     H 7149  12.098   2.246   7.342 -2.3529 -1.4836  0.0010
   53MOL0     H 7150  12.104   2.411   7.260 -2.0742  2.4233  4.6540
   53MOL0     H 7151  12.237   2.287   7.127  0.9010 -1.3802  2.4378
   53MOL0     H 7152  12.093   2.293   7.029 -0.9974  1.0570  1.2426
   53MOL0     H 7153  12.211   1.896   7.141 -0.2031  0.4053  0.2204
   53MOL0     H 7154  11.928   2.222   7.732 -1.9097  1.7946  2.8575
   53MOL0     H 7155  11.796   2.059   7.822 -0.2879  1.1748 -0.7624
   54MOL0     O 7156   3.784   4.759   6.439  1.0638 -0.8085  0.5784
   54MOL0     C 7157   3.842   4.737   6.541  0.0576 -0.4175  0.1354
   54MOL0     O 7158   3.819   4.799   6.655 -0.8078  0.9134  0.1084
   54MOL0     C 7159   3.717   4.887   6.674  0.4409  1.1554 -0.1122
   54MOL0     C 7160   3.589   4.873   6.627  0.4278 -0.2502  0.0009
   54MOL0     C 7161   3.496   4.963   6.656 -0.2995 -0.8040 -0.2886
   54MOL0     C 7162   3.515   5.073   6.739  0.7067 -0.3580  0.6856
   54MOL0     O 7163   3.403   5.151   6.758 -0.8655  0.0256  0.1393
   54MOL0     C 7164   3.402   5.267   6.830  0.1768 -0.8335  0.7120
   54MOL0     C 7165   3.274   5.275   6.901  0.2821  0.4919 -0.3032
   54MOL0     C 7166   3.159   5.293   6.804 -0.3692 -0.6148 -0.1951
   54MOL0     C 7167   3.090   5.173   6.735  0.0697 -0.0666  0.4281
   54MOL0     C 7168   2.967   5.209   6.657  0.7590 -0.2598 -0.0104
   54MOL0     C 7169   2.839   5.231   6.740  0.3059 -0.0624 -0.1722
   54MOL0     C 7170   2.726   5.245   6.646 -0.1022  0.2372 -0.0638
   54MOL0     C 7171   2.597   5.313   6.704 -0.0508  0.1010 -0.2538
   54MOL0     N 7172   2.539   5.219   6.801  1.2022 -0.2149  0.2303
   54MOL0     C 7173   2.571   5.228   6.931  0.1675  0.0766 -0.2682
   54MOL0     C 7174   2.504   5.126   6.984 -0.2030 -0.7114 -0.2562
   54MOL0     C 7175   2.505   5.115   7.137  0.3410  0.3232  0.0102
   54MOL0     C 7176   2.409   5.001   7.190 -0.8642 -0.0641  0.6357
   54MOL0     C 7177   2.433   4.856   7.144 -0.0314 -0.0041 -0.1584
   54MOL0     C 7178   2.548   4.794   7.226 -0.1749 -0.7928 -0.2153
   54MOL0     O 7179   2.501   4.762   7.357 -0.7866  0.3796 -0.2789
   54MOL0     C 7180   2.597   4.753   7.463  0.4050 -0.1466  0.4440
   54MOL0     C 7181   2.590   4.656   7.560 -0.5649  0.1023 -0.5481
   54MOL0     C 7182   2.689   4.631   7.651 -0.3159  0.7183  0.1024
   54MOL0     C 7183   2.681   4.497   7.720 -0.2880 -0.1886  0.3118
   54MOL0     C 7184   2.802   4.716   7.669 -0.8334 -0.6910  0.4214
   54MOL0     C 7185   2.903   4.699   7.777  0.6810 -0.3024  0.9156
   54MOL0     O 7186   2.938   4.581   7.836  0.6235  0.3434  0.2252
   54MOL0     C 7187   3.038   4.577   7.930 -1.3211 -0.3510 -0.2017
   54MOL0     C 7188   3.177   4.565   7.896  0.6640 -0.3531  0.2826
   54MOL0     C 7189   3.278   4.561   7.996  0.0660  0.3174 -0.2007
   54MOL0     C 7190   3.250   4.579   8.129  0.0242 -0.2529 -0.1990
   54MOL0     O 7191   3.361   4.587   8.214  0.5921 -0.1047 -0.5700
   54MOL0     C 7192   3.326   4.603   8.354 -0.1598  0.0629  0.2937
   54MOL0     C 7193   3.450   4.669   8.415  0.0397 -0.2297  0.2796
   54MOL0     C 7194   3.429   4.685   8.573 -0.3902 -0.3005  0.8896
   54MOL0     C 7195   3.467   4.561   8.646 -0.3143  0.9417 -0.3259
   54MOL0     C 7196   3.509   4.590   8.790 -0.4804 -0.3369 -0.3120
   54MOL0     C 7197   3.529   4.472   8.889 -0.2795 -0.0239  1.2411
   54MOL0     C 7198   3.668   4.424   8.917 -0.4742 -0.1547  0.2440
   54MOL0     C 7199   3.759   4.536   8.979 -0.3417  1.2782  0.4245
   54MOL0    Cl 7200   3.728   4.578   9.153  0.3485 -0.0565 -0.1094
   54MOL0     C 7201   3.112   4.602   8.172 -0.1867  0.7989 -0.5867
   54MOL0     C 7202   3.014   4.595   8.076  0.1337 -0.1488 -0.0577
   54MOL0     O 7203   2.956   4.809   7.802 -0.2516  0.2579  0.4001
   54MOL0     C 7204   2.807   4.824   7.574  0.4993  0.8103 -0.0637
   54MOL0     C 7205   2.708   4.837   7.476  0.2664 -1.2307  0.6955
   54MOL0     N 7206   2.438   5.053   6.892 -0.0724  0.3997 -0.3144
   54MOL0     N 7207   2.464   5.108   6.775  1.2360  0.5841 -0.4548
   54MOL0     C 7208   3.644   5.095   6.786 -0.5405 -0.6634 -0.3418
   54MOL0     C 7209   3.745   5.009   6.749  0.6072  0.7723 -0.8730
   54MOL0     C 7210   3.925   4.624   6.548 -0.5208  0.8049 -0.0582
   54MOL0     C 7211   3.961   4.557   6.430  0.2841 -0.2832 -0.4201
   54MOL0     C 7212   4.055   4.453   6.433  0.8176 -0.4234  0.1195
   54MOL0     C 7213   4.109   4.404   6.551 -0.0593 -0.1932  0.4854
   54MOL0     O 7214   4.209   4.312   6.566 -0.3418 -0.0194 -0.4842
   54MOL0     C 7215   4.190   4.190   6.509 -0.0732 -0.4233 -0.3761
   54MOL0     C 7216   4.254   4.173   6.365 -1.1310 -0.4643 -1.0511
   54MOL0     C 7217   4.245   4.038   6.298 -0.2910 -0.0033  0.6857
   54MOL0     C 7218   4.321   4.048   6.170  0.3575 -0.4181  0.8858
   54MOL0     C 7219   4.351   3.919   6.109  0.4160  0.1173 -0.5493
   54MOL0     C 7220   4.373   3.804   6.069  1.4079 -0.8188  0.3968
   54MOL0     C 7221   4.072   4.471   6.669 -0.0629  1.2018 -0.1281
   54MOL0     C 7222   3.976   4.568   6.664  0.2603  0.9026  0.5964
   54MOL0     H 7223   3.554   4.784   6.575 -1.6328 -0.2427  1.2468
   54MOL0     H 7224   3.399   4.953   6.608  0.2758 -2.6361 -1.1557
   54MOL0     H 7225   3.490   5.276   6.894  0.2042  1.3138  0.4733
   54MOL0     H 7226   3.412   5.350   6.759 -0.3550 -1.5886 -0.2548
   54MOL0     H 7227   3.260   5.191   6.970  0.7565 -2.8108 -3.8680
   54MOL0     H 7228   3.276   5.372   6.952  2.8142  0.2361  0.1851
   54MOL0     H 7229   3.085   5.352   6.860  3.3126  1.9481  2.4661
   54MOL0     H 7230   3.193   5.356   6.722 -1.1618 -2.4281 -2.0014
   54MOL0     H 7231   3.164   5.124   6.672 -0.9999  1.2660 -1.9834
   54MOL0     H 7232   3.056   5.096   6.806 -1.8482  0.5849  0.2688
   54MOL0     H 7233   2.985   5.302   6.603  1.9709  0.7784  2.0656
   54MOL0     H 7234   2.948   5.129   6.584  0.6700 -2.8760  2.6788
   54MOL0     H 7235   2.814   5.149   6.808 -0.5143  1.0555  0.9122
   54MOL0     H 7236   2.853   5.322   6.798  1.5247 -0.3493  0.0217
   54MOL0     H 7237   2.753   5.296   6.553 -0.0043 -3.8452 -2.5326
   54MOL0     H 7238   2.708   5.142   6.614 -2.7454  0.3486  0.8197
   54MOL0     H 7239   2.523   5.346   6.630  0.2785  1.4527 -0.0125
   54MOL0     H 7240   2.617   5.408   6.754 -2.2952 -0.4020  1.7749
   54MOL0     H 7241   2.636   5.294   6.987 -0.1928  0.9579 -0.8747
   54MOL0     H 7242   2.603   5.090   7.179 -0.5300 -1.7986  0.8849
   54MOL0     H 7243   2.474   5.209   7.183 -0.9717  0.3235 -0.8226
   54MOL0     H 7244   2.307   5.032   7.163 -0.5226  0.1035 -0.4791
   54MOL0     H 7245   2.419   4.998   7.299 -1.5504  3.0037  0.8640
   54MOL0     H 7246   2.450   4.846   7.036 -2.5135  1.4314 -0.7696
   54MOL0     H 7247   2.336   4.806   7.155 -0.1409 -0.8214 -3.6500
   54MOL0     H 7248   2.629   4.867   7.238 -0.2638 -0.7318  0.0115
   54MOL0     H 7249   2.590   4.712   7.168  2.7160  0.6208 -0.3122
   54MOL0     H 7250   2.499   4.597   7.559 -0.9199  0.6363 -1.2554
   54MOL0     H 7251   2.584   4.451   7.701 -1.2645  2.2885 -1.3219
   54MOL0     H 7252   2.758   4.427   7.689  0.0208 -0.4547  1.6306
   54MOL0     H 7253   2.683   4.527   7.825 -2.3397 -0.9562  0.6276
   54MOL0     H 7254   3.219   4.549   7.797  0.4976  2.1556 -0.2763
   54MOL0     H 7255   3.383   4.557   7.968 -0.2737  1.6689 -1.7654
   54MOL0     H 7256   3.242   4.672   8.359 -1.5494 -0.9579 -4.3246
   54MOL0     H 7257   3.319   4.508   8.409  0.8352 -0.4486 -0.4184
   54MOL0     H 7258   3.541   4.618   8.382  0.2233  2.6518 -4.7358
   54MOL0     H 7259   3.455   4.767   8.367 -1.2126 -0.3534 -0.1567
   54MOL0     H 7260   3.328   4.720   8.596 -1.4855  0.2073 -3.7131
   54MOL0     H 7261   3.498   4.764   8.603 -1.2831 -0.0416  2.3474
   54MOL0     H 7262   3.384   4.490   8.636  0.8817 -0.5512 -0.0155
   54MOL0     H 7263   3.554   4.516   8.597 -0.5889  0.4030 -0.3193
   54MOL0     H 7264   3.419   4.631   8.837 -1.2015 -3.9510  1.8232
   54MOL0     H 7265   3.584   4.670   8.794 -1.3279  0.4317  2.2570
   54MOL0     H 7266   3.476   4.488   8.984 -0.2496 -0.0526  1.2636
   54MOL0     H 7267   3.461   4.398   8.846 -1.8321  1.4018  1.1462
   54MOL0     H 7268   3.722   4.397   8.826 -0.7499  2.0270 -0.6292
   54MOL0     H 7269   3.662   4.336   8.981 -2.3109  1.8036  2.9754
   54MOL0     H 7270   3.753   4.631   8.926 -0.9251  2.3481  2.2910
   54MOL0     H 7271   3.865   4.512   8.970 -0.4944  1.4282 -2.9753
   54MOL0     H 7272   3.076   4.615   8.274  1.4918 -1.3981  0.3676
   54MOL0     H 7273   2.913   4.603   8.114  0.7252  1.0345  1.3426
   54MOL0     H 7274   2.891   4.893   7.582  1.3316 -0.3036  1.3967
   54MOL0     H 7275   2.731   4.914   7.403 -1.9921  0.8263  2.0085
   54MOL0     H 7276   3.660   5.187   6.841 -1.7327 -2.5337  3.4666
   54MOL0     H 7277   3.844   5.039   6.783 -0.1679 -0.6806  3.3022
   54MOL0     H 7278   3.926   4.588   6.332 -0.9229 -1.0879 -0.2636
   54MOL0     H 7279   4.070   4.418   6.332 -1.0893 -3.9973  0.9269
   54MOL0     H 7280   4.218   4.115   6.584 -0.1945 -1.1147 -1.0159
   54MOL0     H 7281   4.082   4.175   6.499  0.0185 -2.6488  1.1535
   54MOL0     H 7282   4.358   4.208   6.365 -0.7978 -1.3744 -2.4177
   54MOL0     H 7283   4.199   4.250   6.309 -0.2374  0.7639 -0.3041
   54MOL0     H 7284   4.145   3.999   6.273 -0.4314  0.3588  0.6703
   54MOL0     H 7285   4.291   3.974   6.373 -0.2926  1.3537  1.8816
   54MOL0     H 7286   4.417   4.098   6.187  0.5852 -0.9953  1.3037
   54MOL0     H 7287   4.268   4.105   6.092  0.0484 -1.9154 -0.0293
   54MOL0     H 7288   4.387   3.714   6.013 -0.7898 -0.8772 -0.1787
   54MOL0     H 7289   4.105   4.434   6.766 -1.8054  0.4867  0.2148
   54MOL0     H 7290   3.936   4.604   6.759  0.7148  0.8559  0.8109
   55MOL0     O 7291   8.704  11.093   6.112 -0.1514 -0.1507 -0.3955
   55MOL0     C 7292   8.780  11.141   6.026  0.1529  0.5589 -0.3626
   55MOL0     O 7293   8.754  11.265   5.956  0.5339 -0.3511  0.0410
   55MOL0     C 7294   8.632  11.328   5.975  0.4973  0.8129  0.4709
   55MOL0     C 7295   8.629  11.465   6.001 -0.5123 -0.4937 -0.7957
   55MOL0     C 7296   8.515  11.542   5.980  0.0808  1.2117  0.0950
   55MOL0     C 7297   8.390  11.482   5.935 -0.2144 -0.0403 -0.0843
   55MOL0     O 7298   8.266  11.546   5.918  0.4307  0.1658 -0.8054
   55MOL0     C 7299   8.262  11.677   5.852  0.7676  0.4924 -0.1330
   55MOL0     C 7300   8.227  11.791   5.945  0.4776 -0.1808 -0.0586
   55MOL0     C 7301   8.077  11.789   5.971 -0.2504 -0.0651  0.1420
   55MOL0     C 7302   8.029  11.923   6.041 -1.1961 -0.0530  1.4880
   55MOL0     C 7303   7.989  12.021   5.928 -1.0083  0.5876 -0.3603
   55MOL0     C 7304   8.035  12.157   5.957  1.1194  0.2148  0.0010
   55MOL0     C 7305   7.982  12.258   5.851 -0.3110  0.8572 -0.2973
   55MOL0     C 7306   8.055  12.397   5.850  0.4772 -0.2816 -0.6291
   55MOL0     N 7307   8.199  12.384   5.891 -0.4700  0.5671 -0.8498
   55MOL0     C 7308   8.310  12.365   5.801  0.2810  0.0113 -0.3514
   55MOL0     C 7309   8.416  12.387   5.882  0.6868 -0.3138 -0.5556
   55MOL0     C 7310   8.556  12.388   5.822  0.0145  0.6574 -0.4824
   55MOL0     C 7311   8.617  12.519   5.760  0.5947 -0.6333  0.2954
   55MOL0     C 7312   8.758  12.495   5.693  1.0084  0.5573 -1.0162
   55MOL0     C 7313   8.786  12.351   5.634  0.0256 -0.6594 -0.0133
   55MOL0     O 7314   8.900  12.360   5.541 -0.8908  0.2489 -0.3886
   55MOL0     C 7315   8.935  12.263   5.456  0.1241 -0.7116  1.0716
   55MOL0     C 7316   8.908  12.127   5.482 -0.3648 -0.2872 -0.2148
   55MOL0     C 7317   8.951  12.031   5.394 -0.0952 -0.1590 -0.8198
   55MOL0     C 7318   8.921  11.893   5.442  0.6128  0.8450  0.0460
   55MOL0     C 7319   8.995  12.056   5.268  0.7281 -0.2928  0.2547
   55MOL0     C 7320   9.011  11.954   5.163  0.5958 -0.4535  0.1293
   55MOL0     O 7321   9.087  11.992   5.056 -0.8139 -0.4807  0.1915
   55MOL0     C 7322   9.063  11.915   4.944  0.0821 -0.0838 -0.1738
   55MOL0     C 7323   9.173  11.856   4.883 -0.7952  0.1769  0.2085
   55MOL0     C 7324   9.163  11.764   4.775  0.2440 -0.0936  0.1830
   55MOL0     C 7325   9.034  11.735   4.723 -0.7470  0.2026 -0.0700
   55MOL0     O 7326   9.025  11.647   4.619  0.2398 -0.0044 -0.1739
   55MOL0     C 7327   8.973  11.701   4.505 -0.2647 -0.7200 -0.1842
   55MOL0     C 7328   9.034  11.624   4.386  0.3825  0.1380 -0.0905
   55MOL0     C 7329   8.966  11.482   4.371 -0.8803 -0.1692 -0.8049
   55MOL0     C 7330   9.042  11.390   4.272 -0.0246 -0.2610  0.1799
   55MOL0     C 7331   9.033  11.426   4.133  0.5892  0.2992  0.2872
   55MOL0     C 7332   9.092  11.332   4.035  1.1966 -0.1150  1.3576
   55MOL0     C 7333   9.134  11.400   3.900  0.2359 -0.6384 -1.1105
   55MOL0     C 7334   9.023  11.463   3.821  0.3955 -0.7596 -0.1772
   55MOL0    Cl 7335   8.867  11.374   3.824 -0.1027 -0.5798 -0.0261
   55MOL0     C 7336   8.925  11.807   4.775  0.0929 -0.2192 -1.8323
   55MOL0     C 7337   8.941  11.902   4.876  0.1254 -0.2526 -0.0091
   55MOL0     O 7338   8.941  11.851   5.165  0.5339 -1.2301 -0.8024
   55MOL0     C 7339   9.035  12.191   5.242  1.1760  1.0155 -0.4890
   55MOL0     C 7340   9.006  12.294   5.332  0.5623 -0.6705  0.0141
   55MOL0     N 7341   8.372  12.418   6.010 -0.0721 -0.0611  0.2203
   55MOL0     N 7342   8.246  12.405   6.016  0.8462  0.7726 -0.4639
   55MOL0     C 7343   8.397  11.336   5.927  0.4559  0.7353  0.5613
   55MOL0     C 7344   8.513  11.258   5.946 -0.2934  0.4384  0.0165
   55MOL0     C 7345   8.892  11.052   5.986  0.4554  0.2410 -0.9097
   55MOL0     C 7346   8.910  10.918   6.036 -0.8871  0.1069 -0.7286
   55MOL0     C 7347   9.021  10.835   6.008  0.7697  0.1505 -0.2342
   55MOL0     C 7348   9.112  10.884   5.910  0.1918  0.5795  0.3380
   55MOL0     O 7349   9.204  10.805   5.842  0.0287  0.4406  0.6116
   55MOL0     C 7350   9.245  10.676   5.897  0.9587 -0.2924  0.5663
   55MOL0     C 7351   9.363  10.612   5.805  0.8654 -0.1827  0.2221
   55MOL0     C 7352   9.476  10.715   5.781 -0.0680  0.0884 -1.1480
   55MOL0     C 7353   9.593  10.662   5.707  0.4474  0.8321  0.3478
   55MOL0     C 7354   9.577  10.658   5.562  0.8517 -1.0477 -0.0041
   55MOL0     C 7355   9.563  10.688   5.448 -0.6783 -0.2212  0.4053
   55MOL0     C 7356   9.099  11.011   5.860 -0.3908 -0.5026 -0.7597
   55MOL0     C 7357   8.988  11.091   5.894 -0.5179  0.5452 -0.0522
   55MOL0     H 7358   8.728  11.496   6.032 -0.2250 -0.4073 -1.7740
   55MOL0     H 7359   8.522  11.650   5.981  1.5851  1.7171 -7.0235
   55MOL0     H 7360   8.359  11.696   5.806  1.3460  2.7456  1.8693
   55MOL0     H 7361   8.188  11.668   5.772 -0.4155  0.3660  0.9520
   55MOL0     H 7362   8.288  11.788   6.036  0.5968 -2.5933 -0.1569
   55MOL0     H 7363   8.250  11.885   5.894  1.4196  0.1352  0.9198
   55MOL0     H 7364   8.020  11.763   5.882 -2.7648 -1.1619  1.9582
   55MOL0     H 7365   8.063  11.701   6.035 -0.5565 -0.3001 -0.2522
   55MOL0     H 7366   7.936  11.891   6.090 -2.1501 -1.8632 -1.2997
   55MOL0     H 7367   8.111  11.950   6.109  0.3510 -0.0282 -0.3169
   55MOL0     H 7368   8.027  11.996   5.828 -3.4995 -0.9556 -1.0158
   55MOL0     H 7369   7.880  12.022   5.915 -0.7590  1.0784 -3.2398
   55MOL0     H 7370   7.979  12.183   6.048 -0.0727  1.3775 -1.0207
   55MOL0     H 7371   8.140  12.155   5.987  0.8191 -0.9879  1.0721
   55MOL0     H 7372   8.012  12.211   5.757  2.9511 -0.4554  1.2459
   55MOL0     H 7373   7.875  12.279   5.857 -0.5705 -0.5811  0.3787
   55MOL0     H 7374   8.012  12.452   5.934  2.0800 -0.6741  0.4882
   55MOL0     H 7375   8.034  12.456   5.760 -0.3574  0.8401  0.2729
   55MOL0     H 7376   8.313  12.328   5.699  0.7831 -3.8915  0.9108
   55MOL0     H 7377   8.626  12.364   5.903  0.2671  1.5564 -0.4226
   55MOL0     H 7378   8.556  12.318   5.738  3.0394  2.1085 -1.8512
   55MOL0     H 7379   8.629  12.598   5.835 -1.6789 -0.3627  0.4457
   55MOL0     H 7380   8.548  12.547   5.680  0.4519 -2.2402 -0.1830
   55MOL0     H 7381   8.833  12.511   5.771  0.3923 -0.3633 -0.2143
   55MOL0     H 7382   8.779  12.572   5.618  0.5654  2.3475  0.6343
   55MOL0     H 7383   8.697  12.329   5.576 -0.6577 -0.2268  0.8496
   55MOL0     H 7384   8.803  12.284   5.718 -3.4837  1.7911  2.9504
   55MOL0     H 7385   8.871  12.105   5.582 -0.7666 -0.3503 -0.3724
   55MOL0     H 7386   8.894  11.886   5.548  1.3455 -1.4657  0.1474
   55MOL0     H 7387   8.831  11.852   5.395  0.2681  0.9537  0.6070
   55MOL0     H 7388   9.006  11.824   5.431  2.7591  3.2162  0.7510
   55MOL0     H 7389   9.274  11.875   4.916 -0.6399 -2.3788  1.4380
   55MOL0     H 7390   9.258  11.740   4.728  1.2692 -0.2222  2.1863
   55MOL0     H 7391   8.865  11.682   4.501 -0.1395 -1.9295  1.2993
   55MOL0     H 7392   8.997  11.806   4.485  0.0747 -0.8213 -0.3116
   55MOL0     H 7393   9.020  11.674   4.290  3.8414  0.7295 -0.3936
   55MOL0     H 7394   9.143  11.629   4.390  0.6952 -3.5557 -0.2889
   55MOL0     H 7395   8.863  11.487   4.335 -1.7366 -1.8332  1.2203
   55MOL0     H 7396   8.967  11.426   4.465 -1.2901 -2.6028 -2.1503
   55MOL0     H 7397   9.148  11.393   4.299  0.2445 -1.4095 -0.6508
   55MOL0     H 7398   9.002  11.288   4.278  1.4320 -0.9735 -1.1130
   55MOL0     H 7399   9.093  11.516   4.123 -1.0809  1.2880 -1.4343
   55MOL0     H 7400   8.931  11.448   4.100  0.0856 -1.4054  0.5970
   55MOL0     H 7401   9.187  11.289   4.068  2.6426  1.2762 -0.7466
   55MOL0     H 7402   9.025  11.250   4.007  1.0374  0.3665  0.2966
   55MOL0     H 7403   9.176  11.322   3.836  1.9345  0.9350 -1.9880
   55MOL0     H 7404   9.209  11.475   3.929  1.1122 -1.0918 -2.1605
   55MOL0     H 7405   9.046  11.460   3.714 -2.7140  0.2862 -0.9906
   55MOL0     H 7406   9.002  11.561   3.863  2.8035 -0.3460  0.1903
   55MOL0     H 7407   8.824  11.791   4.739 -1.2885  3.5568 -0.1576
   55MOL0     H 7408   8.854  11.938   4.929  0.2109  0.5216 -0.3762
   55MOL0     H 7409   9.082  12.211   5.146  1.3375  1.1226 -0.3898
   55MOL0     H 7410   9.016  12.397   5.299 -2.7802  0.5689  2.3072
   55MOL0     H 7411   8.312  11.277   5.893  1.2865  0.0808 -0.4003
   55MOL0     H 7412   8.518  11.153   5.921  2.4126  0.6836 -0.8390
   55MOL0     H 7413   8.831  10.894   6.106 -0.9108  3.2655  0.5023
   55MOL0     H 7414   9.021  10.735   6.049  0.8386  0.3171  0.1777
   55MOL0     H 7415   9.289  10.693   5.996  2.6449 -0.3153 -0.1485
   55MOL0     H 7416   9.161  10.609   5.913  0.5660 -0.1240 -0.6947
   55MOL0     H 7417   9.329  10.558   5.717 -0.9572 -2.6359  2.2881
   55MOL0     H 7418   9.398  10.535   5.875 -3.0272 -1.4305  1.0414
   55MOL0     H 7419   9.503  10.750   5.881 -2.6030 -1.3775  0.1428
   55MOL0     H 7420   9.449  10.811   5.734  7.7432  1.9252 -3.2644
   55MOL0     H 7421   9.622  10.561   5.739  0.2444  0.6088 -0.1673
   55MOL0     H 7422   9.674  10.731   5.728  1.5060  0.5353 -2.4301
   55MOL0     H 7423   9.533  10.711   5.348 -0.9581  2.5912  1.0531
   55MOL0     H 7424   9.170  11.042   5.784  1.0915  0.0055  0.7762
   55MOL0     H 7425   8.970  11.188   5.850 -2.0963  0.6412  0.7338
   56MOL0     O 7426   3.563   1.856   0.646 -0.1926 -0.2322  0.4988
   56MOL0     C 7427   3.556   1.822   0.765 -0.4647  0.1129  0.6493
   56MOL0     O 7428   3.446   1.746   0.818  0.4561  0.6943 -0.2653
   56MOL0     C 7429   3.344   1.701   0.733  0.2436 -0.0478 -0.0234
   56MOL0     C 7430   3.366   1.655   0.599 -0.3297 -1.4332  0.0183
   56MOL0     C 7431   3.260   1.614   0.521  0.4272  0.4262 -0.1104
   56MOL0     C 7432   3.136   1.603   0.584  0.5587  0.1002 -0.2646
   56MOL0     O 7433   3.031   1.556   0.506  1.0381 -0.1174  0.0860
   56MOL0     C 7434   3.030   1.587   0.360  1.0913 -0.2548  0.6002
   56MOL0     C 7435   2.894   1.577   0.295  0.2655  0.1359  0.8656
   56MOL0     C 7436   2.840   1.427   0.310 -0.9510 -0.9187 -0.4524
   56MOL0     C 7437   2.725   1.414   0.210  0.1861 -0.9655  0.2672
   56MOL0     C 7438   2.606   1.336   0.257  0.4884 -0.7901  0.9636
   56MOL0     C 7439   2.649   1.195   0.297 -0.2337 -0.2151 -0.5277
   56MOL0     C 7440   2.685   1.097   0.187 -0.5353  0.3155 -0.3832
   56MOL0     C 7441   2.685   0.951   0.231  0.5575  0.5906  0.5473
   56MOL0     N 7442   2.698   0.862   0.120 -0.1027  0.1947  0.5774
   56MOL0     C 7443   2.606   0.846   0.020 -0.3226  0.2265  0.7060
   56MOL0     C 7444   2.642   0.745  -0.055 -0.3313 -0.7817 -0.7132
   56MOL0     C 7445   2.573   0.694  -0.180 -0.0926  0.0954 -0.1816
   56MOL0     C 7446   2.519   0.554  -0.153  0.4305  0.1860  0.2479
   56MOL0     C 7447   2.394   0.553  -0.057  0.4860  0.2721  0.0609
   56MOL0     C 7448   2.335   0.426  -0.012 -0.3285 -0.8929 -0.4889
   56MOL0     O 7449   2.273   0.341  -0.114  0.5097 -0.8541  0.0100
   56MOL0     C 7450   2.174   0.257  -0.074 -0.1163  0.4293  0.6035
   56MOL0     C 7451   2.047   0.261  -0.130  0.7250 -0.7524  0.0668
   56MOL0     C 7452   1.939   0.189  -0.075 -0.0844  0.3677  0.0550
   56MOL0     C 7453   1.807   0.217  -0.133 -0.4556 -0.2645  0.3413
   56MOL0     C 7454   1.960   0.095   0.028 -0.0541 -0.2788 -0.2004
   56MOL0     C 7455   1.860   0.003   0.087  0.3286  0.3969  0.9227
   56MOL0     O 7456   1.871  -0.040   0.218  0.0354  0.0901 -0.3651
   56MOL0     C 7457   1.769  -0.113   0.281  0.2647  0.1921  0.8138
   56MOL0     C 7458   1.627  -0.095   0.247  0.3221  0.9090 -0.3649
   56MOL0     C 7459   1.531  -0.158   0.327  0.4830 -0.2350 -0.4062
   56MOL0     C 7460   1.572  -0.238   0.434 -0.5694  0.1810  0.3271
   56MOL0     O 7461   1.487  -0.297   0.517 -0.2134  0.5518 -0.2822
   56MOL0     C 7462   1.407  -0.405   0.461  0.1311  0.1276 -0.0232
   56MOL0     C 7463   1.359  -0.502   0.572 -0.7473 -0.4570  0.3620
   56MOL0     C 7464   1.275  -0.605   0.506  0.3534  0.5522  0.6305
   56MOL0     C 7465   1.142  -0.560   0.456 -0.6953 -0.1048 -0.5799
   56MOL0     C 7466   1.050  -0.499   0.569  0.2409  0.2238 -0.1762
   56MOL0     C 7467   0.905  -0.460   0.527 -0.1499 -0.4951  0.2041
   56MOL0     C 7468   0.841  -0.398   0.657 -0.7903 -0.2440  0.6074
   56MOL0     C 7469   0.694  -0.375   0.652 -1.2274 -0.0744 -0.1547
   56MOL0    Cl 7470   0.653  -0.250   0.515  0.0255  0.3146 -0.3586
   56MOL0     C 7471   1.705  -0.245   0.460 -0.4015 -0.4124  0.7860
   56MOL0     C 7472   1.805  -0.184   0.383 -0.0090  0.3977 -0.1667
   56MOL0     O 7473   1.785  -0.048   0.004 -0.4707 -0.9566 -0.4041
   56MOL0     C 7474   2.087   0.094   0.087 -0.9668 -0.2321  0.4200
   56MOL0     C 7475   2.192   0.174   0.039  0.3266 -0.1043 -0.3412
   56MOL0     N 7476   2.768   0.704  -0.012  0.1417  0.2315  0.5757
   56MOL0     N 7477   2.789   0.771   0.100  0.0768 -0.0480  0.9202
   56MOL0     C 7478   3.116   1.627   0.716  1.1406 -0.0755  0.1961
   56MOL0     C 7479   3.220   1.677   0.793  0.4980  0.0211  0.6441
   56MOL0     C 7480   3.658   1.852   0.864 -0.5425  0.2877  0.8111
   56MOL0     C 7481   3.760   1.947   0.837 -1.5755 -0.0659 -0.0851
   56MOL0     C 7482   3.859   1.974   0.934  0.1530  0.6784 -1.0869
   56MOL0     C 7483   3.860   1.896   1.050  0.1322 -0.1982  0.1744
   56MOL0     O 7484   3.963   1.899   1.137 -0.3318 -0.7382 -0.0433
   56MOL0     C 7485   3.962   2.013   1.228  0.8471  0.5465 -0.0380
   56MOL0     C 7486   4.053   2.020   1.349 -0.2884 -0.5513  0.2106
   56MOL0     C 7487   4.065   1.895   1.437  0.0886  0.8363  0.3241
   56MOL0     C 7488   3.975   1.886   1.553  1.0938 -0.3868 -0.9697
   56MOL0     C 7489   3.833   1.899   1.513  0.6958  0.0168  0.5480
   56MOL0     C 7490   3.717   1.912   1.479 -0.3747 -0.3759  0.5919
   56MOL0     C 7491   3.763   1.806   1.079 -1.0323  0.8730  0.3236
   56MOL0     C 7492   3.657   1.792   0.989 -0.0088  0.7851 -1.0971
   56MOL0     H 7493   3.466   1.664   0.558  0.1806  1.3105  1.5985
   56MOL0     H 7494   3.267   1.593   0.415 -4.4297 -0.2510 -0.4923
   56MOL0     H 7495   3.086   1.681   0.355 -1.0673  1.2757  2.7726
   56MOL0     H 7496   3.091   1.511   0.310 -2.6526 -3.3071  0.2102
   56MOL0     H 7497   2.826   1.649   0.343 -0.5704 -0.1345  0.1302
   56MOL0     H 7498   2.896   1.620   0.194 -1.3616 -2.6570 -0.4728
   56MOL0     H 7499   2.922   1.358   0.287  0.1768  0.7707 -1.7621
   56MOL0     H 7500   2.804   1.422   0.413  1.2156 -0.7602  0.3792
   56MOL0     H 7501   2.682   1.510   0.181  0.8726 -0.0586  2.0768
   56MOL0     H 7502   2.759   1.368   0.117 -2.3828 -2.7653  0.0967
   56MOL0     H 7503   2.578   1.381   0.353 -2.1123  1.1791 -0.5874
   56MOL0     H 7504   2.523   1.349   0.186  1.7967  6.4140  0.0434
   56MOL0     H 7505   2.725   1.188   0.375 -1.7409 -0.0355  1.0103
   56MOL0     H 7506   2.555   1.164   0.343  0.4578 -0.3066  0.8509
   56MOL0     H 7507   2.620   1.113   0.101  0.2304 -0.7208 -1.1774
   56MOL0     H 7508   2.789   1.102   0.153 -0.8646 -2.4895 -2.0749
   56MOL0     H 7509   2.593   0.923   0.283  0.1035  0.1261 -0.4737
   56MOL0     H 7510   2.764   0.931   0.304 -0.6961 -2.3888  1.2406
   56MOL0     H 7511   2.521   0.912   0.010  0.2981  0.9931  0.3550
   56MOL0     H 7512   2.501   0.766  -0.220 -0.2355 -0.0989 -0.2757
   56MOL0     H 7513   2.647   0.686  -0.260 -0.5937 -0.1127 -0.6318
   56MOL0     H 7514   2.599   0.489  -0.116 -0.4168  0.2925  2.3614
   56MOL0     H 7515   2.476   0.525  -0.249  0.1099 -1.2959  0.8177
   56MOL0     H 7516   2.318   0.617  -0.102 -3.4378 -1.4045  3.6374
   56MOL0     H 7517   2.423   0.610   0.032 -1.9867  1.7127  0.0248
   56MOL0     H 7518   2.262   0.447   0.067 -1.7698  2.6466 -2.5101
   56MOL0     H 7519   2.415   0.368   0.035 -0.8992 -2.8585 -1.8063
   56MOL0     H 7520   2.042   0.330  -0.214  1.4067  1.6301  1.8523
   56MOL0     H 7521   1.816   0.282  -0.220  0.3359 -3.3422 -2.0263
   56MOL0     H 7522   1.757   0.130  -0.178  1.9669 -0.9503 -1.1883
   56MOL0     H 7523   1.736   0.248  -0.056  0.9513 -1.7557  2.3630
   56MOL0     H 7524   1.591  -0.040   0.161  1.8942 -0.5149 -2.0408
   56MOL0     H 7525   1.428  -0.128   0.313  1.4152  2.2297 -3.1136
   56MOL0     H 7526   1.328  -0.359   0.402  0.6794 -0.4839 -1.2619
   56MOL0     H 7527   1.465  -0.465   0.391 -1.3731 -0.1069 -1.1200
   56MOL0     H 7528   1.447  -0.556   0.608  1.6452  2.8577 -0.0407
   56MOL0     H 7529   1.316  -0.469   0.667  1.8581  0.1997  1.4110
   56MOL0     H 7530   1.263  -0.695   0.568  0.3117 -0.5965 -0.9872
   56MOL0     H 7531   1.325  -0.638   0.414  1.7579  4.4951 -0.2134
   56MOL0     H 7532   1.159  -0.486   0.377  3.0401  0.2653  0.3817
   56MOL0     H 7533   1.096  -0.646   0.405  2.5642 -0.7479 -2.7583
   56MOL0     H 7534   1.090  -0.410   0.620 -1.4525  0.9708 -0.0435
   56MOL0     H 7535   1.050  -0.578   0.645  0.7552  1.4512  1.1567
   56MOL0     H 7536   0.913  -0.382   0.450 -2.6317  0.1815  0.5692
   56MOL0     H 7537   0.841  -0.536   0.482 -1.5132  2.0594 -2.5290
   56MOL0     H 7538   0.881  -0.299   0.677 -0.2843 -0.4939  0.8654
   56MOL0     H 7539   0.865  -0.463   0.742  0.9488 -2.5861 -1.5165
   56MOL0     H 7540   0.662  -0.332   0.747  0.7820 -2.9081  1.9802
   56MOL0     H 7541   0.647  -0.474   0.651 -0.7746 -0.3011  0.4084
   56MOL0     H 7542   1.727  -0.310   0.544  0.0243 -1.3194 -0.0032
   56MOL0     H 7543   1.904  -0.186   0.427 -0.4392 -0.0012  0.8078
   56MOL0     H 7544   2.111   0.018   0.160  1.3191  0.7262  0.7350
   56MOL0     H 7545   2.292   0.165   0.078 -0.5124 -1.5172  1.6507
   56MOL0     H 7546   3.018   1.601   0.753  0.3040  0.6932 -1.3963
   56MOL0     H 7547   3.196   1.694   0.898  0.0878  1.2656  0.3758
   56MOL0     H 7548   3.744   2.010   0.750 -0.8474  0.0333 -0.1575
   56MOL0     H 7549   3.931   2.053   0.915 -0.5471  1.9945  1.2478
   56MOL0     H 7550   3.973   2.099   1.161  1.3850 -0.8703 -1.8364
   56MOL0     H 7551   3.862   2.022   1.273  2.2303  2.6447  2.9823
   56MOL0     H 7552   4.030   2.108   1.410  1.9243 -0.1421  0.5347
   56MOL0     H 7553   4.159   2.027   1.324 -0.1792 -4.0328 -0.7310
   56MOL0     H 7554   4.168   1.891   1.472 -0.2584 -0.9724  1.2773
   56MOL0     H 7555   4.031   1.806   1.383  1.8531  0.7114 -0.6743
   56MOL0     H 7556   4.009   1.967   1.618  1.1055 -0.7578 -0.5111
   56MOL0     H 7557   3.986   1.794   1.612 -1.0103  0.6031  1.0952
   56MOL0     H 7558   3.612   1.920   1.461 -0.8767 -1.9400  2.5221
   56MOL0     H 7559   3.768   1.741   1.165 -2.2222 -1.9298 -1.5699
   56MOL0     H 7560   3.582   1.716   1.010  1.3181 -0.1349  0.5752
   57MOL0     O 7561  10.695   1.717   6.089 -0.5974 -0.4782 -0.1686
   57MOL0     C 7562  10.613   1.666   6.154  1.1256  0.2070 -0.6747
   57MOL0     O 7563  10.592   1.685   6.292  0.3113  0.4763  0.9892
   57MOL0     C 7564  10.693   1.741   6.364 -0.2288  0.4465  0.2598
   57MOL0     C 7565  10.649   1.810   6.471  0.4864 -0.6297  0.3048
   57MOL0     C 7566  10.747   1.839   6.569 -0.4129 -0.5931 -0.5788
   57MOL0     C 7567  10.893   1.809   6.567  1.1009  0.1774  1.0351
   57MOL0     O 7568  10.978   1.861   6.653  0.1454 -0.5083  0.4636
   57MOL0     C 7569  11.118   1.816   6.636  0.3582 -0.6771  0.0537
   57MOL0     C 7570  11.196   1.917   6.727  0.5788 -0.2910 -0.1609
   57MOL0     C 7571  11.184   2.070   6.703  0.1148 -0.6454  1.5702
   57MOL0     C 7572  11.258   2.168   6.800 -0.2367  0.1275  0.0581
   57MOL0     C 7573  11.264   2.317   6.749  0.6499  0.1984  1.0430
   57MOL0     C 7574  11.377   2.399   6.807  0.0190  0.5592 -0.8159
   57MOL0     C 7575  11.373   2.408   6.955 -0.1406  0.3982 -0.1918
   57MOL0     C 7576  11.498   2.456   7.018 -0.2959  1.0847  1.0371
   57MOL0     N 7577  11.618   2.363   6.997  0.8447 -0.8024  0.1697
   57MOL0     C 7578  11.622   2.233   7.035 -0.2965  0.8616 -0.0937
   57MOL0     C 7579  11.733   2.195   6.966  0.2627  0.2433 -0.1343
   57MOL0     C 7580  11.812   2.069   6.986  0.6085 -0.6752 -0.5339
   57MOL0     C 7581  11.721   1.945   6.937  0.2161 -0.5204  0.0338
   57MOL0     C 7582  11.722   1.953   6.783 -0.0251  0.0267 -0.0057
   57MOL0     C 7583  11.642   1.843   6.715 -0.4983 -0.2252 -0.9561
   57MOL0     O 7584  11.640   1.871   6.571 -0.1515  0.2598  0.0332
   57MOL0     C 7585  11.550   1.798   6.495 -0.6152  0.1182  0.0574
   57MOL0     C 7586  11.478   1.682   6.535 -0.0169 -0.6416  1.0668
   57MOL0     C 7587  11.384   1.631   6.446  0.6353 -0.1761 -0.3585
   57MOL0     C 7588  11.302   1.524   6.498  0.1094 -0.0432  0.0709
   57MOL0     C 7589  11.363   1.689   6.316  0.0588  0.2224  0.5635
   57MOL0     C 7590  11.257   1.643   6.217 -0.8489  0.2310  0.0154
   57MOL0     O 7591  11.269   1.665   6.080  0.0057  0.0444 -0.3471
   57MOL0     C 7592  11.163   1.633   6.008 -0.2922  0.9810 -0.6538
   57MOL0     C 7593  11.175   1.518   5.924 -0.1252  0.4707 -0.4308
   57MOL0     C 7594  11.090   1.480   5.829 -0.1705 -0.5232  0.2293
   57MOL0     C 7595  10.971   1.559   5.816 -0.1297 -0.0581  0.3477
   57MOL0     O 7596  10.879   1.510   5.727 -0.0209 -0.5351 -0.8959
   57MOL0     C 7597  10.742   1.558   5.741 -0.7146 -0.3958  0.2657
   57MOL0     C 7598  10.649   1.493   5.639 -0.0777 -1.0215  0.0800
   57MOL0     C 7599  10.638   1.336   5.645  0.3351  0.0622 -0.5010
   57MOL0     C 7600  10.582   1.275   5.515  0.2284  0.0799  0.3302
   57MOL0     C 7601  10.462   1.363   5.469 -0.9629 -0.9074  0.5089
   57MOL0     C 7602  10.391   1.288   5.359  0.3683  0.4696  0.7426
   57MOL0     C 7603  10.286   1.370   5.287 -0.1397 -0.8262  0.7365
   57MOL0     C 7604  10.225   1.305   5.161  0.2552 -1.1757 -0.4423
   57MOL0    Cl 7605  10.170   1.142   5.191  0.4513  0.8819 -0.0926
   57MOL0     C 7606  10.946   1.669   5.902  0.3921 -0.0555  0.2046
   57MOL0     C 7607  11.047   1.705   5.998 -0.5358 -0.0770  0.1097
   57MOL0     O 7608  11.166   1.580   6.266  0.0979  0.3850 -0.2549
   57MOL0     C 7609  11.451   1.788   6.276 -0.0941  0.1858 -0.0530
   57MOL0     C 7610  11.537   1.851   6.368 -0.2254  0.7116 -0.4242
   57MOL0     N 7611  11.789   2.288   6.889  0.3177 -0.2471  0.5158
   57MOL0     N 7612  11.716   2.394   6.909  0.2773  0.0209 -1.2765
   57MOL0     C 7613  10.927   1.738   6.449  0.1552  0.1921 -0.9353
   57MOL0     C 7614  10.832   1.709   6.346  0.1124  0.0032  0.2189
   57MOL0     C 7615  10.511   1.575   6.089 -0.1278 -0.4526 -0.1876
   57MOL0     C 7616  10.448   1.620   5.969  0.4164  0.6970 -0.5242
   57MOL0     C 7617  10.370   1.529   5.901 -0.0026 -0.3062 -0.2342
   57MOL0     C 7618  10.337   1.400   5.951  0.2905 -0.6529 -1.9624
   57MOL0     O 7619  10.255   1.323   5.873 -0.3201  0.0226  0.0065
   57MOL0     C 7620  10.178   1.205   5.929 -0.3673 -0.9111  0.0708
   57MOL0     C 7621  10.044   1.178   5.861 -0.7128 -0.2767 -0.6064
   57MOL0     C 7622  10.064   1.092   5.744 -0.6109  0.5294 -0.1459
   57MOL0     C 7623   9.932   1.038   5.692 -0.1721 -0.8541 -0.5447
   57MOL0     C 7624   9.945   0.959   5.570  0.2217  0.8255  0.0061
   57MOL0     C 7625   9.974   0.875   5.486  0.6732 -0.2435  0.0422
   57MOL0     C 7626  10.388   1.369   6.079  0.4397 -0.6139  0.4236
   57MOL0     C 7627  10.475   1.449   6.150  0.4758 -1.1629  0.0500
   57MOL0     H 7628  10.548   1.847   6.485  0.9528  1.7466 -1.8277
   57MOL0     H 7629  10.718   1.899   6.654 -2.0782  0.6707 -1.9642
   57MOL0     H 7630  11.135   1.713   6.670 -3.0274 -1.5877 -0.6666
   57MOL0     H 7631  11.153   1.834   6.534  0.2128  0.1072  0.1385
   57MOL0     H 7632  11.154   1.909   6.827  0.2395  2.6309  0.0273
   57MOL0     H 7633  11.302   1.894   6.717  1.1327  2.2029 -0.7947
   57MOL0     H 7634  11.216   2.081   6.599 -1.3641  0.8779  1.2185
   57MOL0     H 7635  11.078   2.098   6.709  0.2347 -0.4409  2.9552
   57MOL0     H 7636  11.200   2.158   6.892  4.2740 -3.3497  2.9467
   57MOL0     H 7637  11.357   2.138   6.834 -0.1785  1.1610  0.8554
   57MOL0     H 7638  11.272   2.305   6.640 -1.1563 -1.4099  1.0362
   57MOL0     H 7639  11.167   2.366   6.762  1.4058  1.7703  0.9413
   57MOL0     H 7640  11.474   2.355   6.782  0.6603 -0.3035  2.5655
   57MOL0     H 7641  11.373   2.500   6.766  1.5634  0.4698 -1.2343
   57MOL0     H 7642  11.291   2.473   6.988 -1.3741 -0.9081 -0.5825
   57MOL0     H 7643  11.359   2.311   7.003  2.2068  0.3331  0.5027
   57MOL0     H 7644  11.479   2.473   7.124 -1.3524  1.3677  0.8149
   57MOL0     H 7645  11.523   2.549   6.966 -0.4552 -0.3785 -1.8948
   57MOL0     H 7646  11.562   2.192   7.116  0.0289  1.4781  0.4764
   57MOL0     H 7647  11.899   2.076   6.921 -0.4521 -0.9998 -2.0551
   57MOL0     H 7648  11.848   2.046   7.087  0.5206  1.7924  0.1177
   57MOL0     H 7649  11.620   1.959   6.975  0.3312  1.4779 -0.2816
   57MOL0     H 7650  11.768   1.860   6.988 -0.5728  0.2513  2.1356
   57MOL0     H 7651  11.824   1.951   6.745  0.2364  1.4917  0.5489
   57MOL0     H 7652  11.683   2.053   6.763  1.1267  0.3881 -0.5149
   57MOL0     H 7653  11.543   1.843   6.762  0.2640 -1.0245  0.7045
   57MOL0     H 7654  11.693   1.747   6.731  1.1874  1.0401  2.0015
   57MOL0     H 7655  11.484   1.645   6.636  0.9317  0.7572  1.5508
   57MOL0     H 7656  11.333   1.501   6.601 -1.2100 -1.1897  0.2516
   57MOL0     H 7657  11.200   1.563   6.513  0.1509 -1.0971  4.8356
   57MOL0     H 7658  11.293   1.435   6.434 -0.2346  0.9328 -1.2794
   57MOL0     H 7659  11.269   1.466   5.937  1.6424  3.3405 -0.8802
   57MOL0     H 7660  11.105   1.398   5.759 -1.4662 -0.1649 -0.4947
   57MOL0     H 7661  10.701   1.542   5.842 -3.7436  1.0314 -0.6132
   57MOL0     H 7662  10.737   1.665   5.719 -0.0181 -0.9323 -2.9413
   57MOL0     H 7663  10.546   1.523   5.661  0.9486  1.9998  1.3209
   57MOL0     H 7664  10.682   1.526   5.540  2.1394  0.7860  1.3479
   57MOL0     H 7665  10.568   1.325   5.728 -0.2483  0.3900 -0.9375
   57MOL0     H 7666  10.731   1.284   5.668 -0.0403  0.4004  1.9921
   57MOL0     H 7667  10.659   1.270   5.438  1.2197  1.6694  1.1758
   57MOL0     H 7668  10.540   1.176   5.532 -1.3953  1.2089  3.9497
   57MOL0     H 7669  10.491   1.455   5.417 -1.4172 -2.3590 -2.5677
   57MOL0     H 7670  10.397   1.390   5.552 -1.3594  1.5329 -0.4973
   57MOL0     H 7671  10.467   1.238   5.298 -0.1515 -0.6041  0.9382
   57MOL0     H 7672  10.334   1.211   5.413  4.5527 -2.6438  1.2246
   57MOL0     H 7673  10.335   1.457   5.242 -0.3528 -1.5014 -0.8779
   57MOL0     H 7674  10.207   1.399   5.357 -0.6983  2.0956 -0.9555
   57MOL0     H 7675  10.294   1.308   5.076  1.4466 -0.3408  0.5215
   57MOL0     H 7676  10.144   1.376   5.138  0.9482 -0.4319 -0.6440
   57MOL0     H 7677  10.855   1.727   5.890  0.4206 -0.5639 -3.4765
   57MOL0     H 7678  11.018   1.783   6.069  2.9752  1.7641 -0.2220
   57MOL0     H 7679  11.444   1.824   6.173 -3.1918  1.4274  0.4829
   57MOL0     H 7680  11.590   1.942   6.343  1.5738 -0.0889  0.3149
   57MOL0     H 7681  11.019   1.682   6.435  1.5464  2.0740  0.1891
   57MOL0     H 7682  10.866   1.650   6.262  2.1384  2.1034 -0.5471
   57MOL0     H 7683  10.469   1.723   5.941 -2.5878  2.2124  2.1476
   57MOL0     H 7684  10.323   1.548   5.805 -2.1413  2.2714  1.1823
   57MOL0     H 7685  10.233   1.110   5.932 -2.3533 -2.1734 -0.9208
   57MOL0     H 7686  10.159   1.222   6.035 -2.5411  2.0669 -0.6516
   57MOL0     H 7687   9.991   1.270   5.833 -1.5504 -1.2466 -2.3739
   57MOL0     H 7688   9.988   1.125   5.939  0.6488 -1.1410 -0.1890
   57MOL0     H 7689  10.137   1.011   5.759 -1.0020  0.0214 -0.9129
   57MOL0     H 7690  10.103   1.165   5.672 -0.5601  1.1587  0.5162
   57MOL0     H 7691   9.875   1.122   5.653  1.8136 -0.9579 -4.0798
   57MOL0     H 7692   9.882   0.978   5.769 -1.2250 -0.3786 -0.8480
   57MOL0     H 7693   9.989   0.793   5.420 -0.5886 -2.8458  2.7634
   57MOL0     H 7694  10.370   1.272   6.124 -1.0482 -0.1219  0.9581
   57MOL0     H 7695  10.508   1.424   6.251  1.4748  2.4115  0.7699
   58MOL0     O 7696   1.692   0.523   0.790  0.0022  0.1261  0.0494
   58MOL0     C 7697   1.786   0.454   0.744  0.4816  0.3308 -0.4688
   58MOL0     O 7698   1.791   0.328   0.703  0.1942 -0.0308 -0.2128
   58MOL0     C 7699   1.670   0.278   0.649 -1.0186  0.9611  0.0802
   58MOL0     C 7700   1.568   0.351   0.599  0.1692 -0.5408 -0.4577
   58MOL0     C 7701   1.443   0.295   0.587 -0.1767  0.6170  0.5665
   58MOL0     C 7702   1.419   0.154   0.600  0.2033  0.4222 -0.5561
   58MOL0     O 7703   1.288   0.115   0.585  0.7982  0.4455  0.0377
   58MOL0     C 7704   1.265  -0.019   0.638  0.0448 -0.2012  0.5674
   58MOL0     C 7705   1.112  -0.036   0.599  0.0105 -0.1060 -0.3833
   58MOL0     C 7706   1.081  -0.044   0.443  0.7447  0.8440 -0.2667
   58MOL0     C 7707   1.152  -0.159   0.380  0.0495 -0.1182 -0.1185
   58MOL0     C 7708   1.154  -0.159   0.220  0.1580 -0.0296 -0.1136
   58MOL0     C 7709   1.018  -0.195   0.167 -0.3533  0.2465  0.0047
   58MOL0     C 7710   1.005  -0.218   0.011  1.2371 -0.2658  0.9009
   58MOL0     C 7711   1.047  -0.359  -0.026  0.1639 -0.6068 -0.6099
   58MOL0     N 7712   0.971  -0.456   0.051  0.7209 -0.1625 -0.1449
   58MOL0     C 7713   0.848  -0.497   0.019  0.4305 -0.6234 -0.3077
   58MOL0     C 7714   0.820  -0.614   0.084  0.2856  0.0112 -0.0638
   58MOL0     C 7715   0.694  -0.694   0.073  0.8341  0.2161 -0.5103
   58MOL0     C 7716   0.568  -0.610   0.089 -0.2762  0.0107  0.1247
   58MOL0     C 7717   0.538  -0.594   0.240  0.4395 -0.5087  0.2449
   58MOL0     C 7718   0.415  -0.501   0.258  0.2595 -0.8284  0.0153
   58MOL0     O 7719   0.363  -0.526   0.387  0.3379 -0.7548  0.2330
   58MOL0     C 7720   0.258  -0.445   0.422  0.1950 -0.0323 -1.3165
   58MOL0     C 7721   0.248  -0.393   0.551  1.1574 -0.6551  0.2960
   58MOL0     C 7722   0.136  -0.331   0.607  0.3140  0.3286 -0.4461
   58MOL0     C 7723   0.133  -0.295   0.754  0.1192 -0.0929 -0.2313
   58MOL0     C 7724   0.023  -0.312   0.527  0.7224 -0.0572 -0.2462
   58MOL0     C 7725  -0.105  -0.254   0.570  0.0227  0.8365  0.0790
   58MOL0     O 7726  -0.210  -0.317   0.506  0.2914 -0.1315  0.0599
   58MOL0     C 7727  -0.323  -0.247   0.500  0.6215  1.4163  0.3451
   58MOL0     C 7728  -0.442  -0.305   0.534 -0.5169  0.0211  1.1400
   58MOL0     C 7729  -0.565  -0.234   0.523  1.0395  1.0114  0.3277
   58MOL0     C 7730  -0.563  -0.097   0.483 -0.7787  0.5884  0.0986
   58MOL0     O 7731  -0.672  -0.017   0.472 -0.4737  0.2692 -1.4137
   58MOL0     C 7732  -0.807  -0.080   0.454  0.1947 -0.7879  0.3740
   58MOL0     C 7733  -0.895   0.025   0.425  0.6208  0.0111 -1.2375
   58MOL0     C 7734  -1.040  -0.010   0.413 -0.5279 -0.8273 -1.2277
   58MOL0     C 7735  -1.118   0.126   0.388  0.5533 -0.3227  0.3856
   58MOL0     C 7736  -1.259   0.106   0.346 -0.3311 -0.1810  0.9441
   58MOL0     C 7737  -1.338   0.233   0.363  0.3444 -1.3306  0.1025
   58MOL0     C 7738  -1.474   0.195   0.293 -0.9706 -0.2149  0.1634
   58MOL0     C 7739  -1.565   0.307   0.284  0.7165  0.2036 -0.5600
   58MOL0    Cl 7740  -1.709   0.244   0.203 -0.0590 -0.0973  0.2683
   58MOL0     C 7741  -0.441  -0.045   0.438  0.1810 -0.7317 -0.7036
   58MOL0     C 7742  -0.323  -0.114   0.451 -0.0475  0.1131 -0.5171
   58MOL0     O 7743  -0.109  -0.152   0.637 -0.5591 -0.5332  0.0302
   58MOL0     C 7744   0.041  -0.343   0.382  0.8173 -0.3509 -0.4908
   58MOL0     C 7745   0.145  -0.425   0.342  0.0716  0.0424 -0.2712
   58MOL0     N 7746   0.925  -0.641   0.163  0.1499 -0.7648  1.1442
   58MOL0     N 7747   1.006  -0.552   0.141 -0.3179  1.2240 -0.4226
   58MOL0     C 7748   1.537   0.069   0.632  0.2619 -0.3827 -0.6020
   58MOL0     C 7749   1.656   0.135   0.660  0.8748  0.9743  0.3215
   58MOL0     C 7750   1.913   0.531   0.724  0.1194 -0.6085 -0.8825
   58MOL0     C 7751   2.038   0.477   0.677  0.1525 -0.1361  0.3974
   58MOL0     C 7752   2.151   0.565   0.656  0.3733 -0.2147 -0.3279
   58MOL0     C 7753   2.134   0.708   0.673  1.7923 -0.7612 -0.3858
   58MOL0     O 7754   2.232   0.804   0.657  0.0259  0.5940 -0.4098
   58MOL0     C 7755   2.357   0.777   0.596  0.1245 -0.3825  0.1085
   58MOL0     C 7756   2.413   0.919   0.555  0.2474  0.1592  0.5950
   58MOL0     C 7757   2.439   1.011   0.678 -0.2398  0.1539 -1.3483
   58MOL0     C 7758   2.332   1.122   0.702 -0.1321  0.4121 -0.6526
   58MOL0     C 7759   2.310   1.218   0.597 -0.5579  0.6123 -1.4855
   58MOL0     C 7760   2.307   1.303   0.512  0.4531  0.3962  0.0122
   58MOL0     C 7761   2.009   0.761   0.705 -0.5008 -0.4858  0.4982
   58MOL0     C 7762   1.896   0.671   0.732 -1.0831 -0.6960 -0.0830
   58MOL0     H 7763   1.572   0.459   0.584 -0.7612  0.1340  3.1352
   58MOL0     H 7764   1.371   0.357   0.535  1.4285  0.7820 -1.6236
   58MOL0     H 7765   1.317  -0.102   0.590 -2.7727 -2.2702  0.7908
   58MOL0     H 7766   1.291  -0.036   0.743  2.6083 -3.5155 -0.4153
   58MOL0     H 7767   1.084  -0.135   0.636  2.1377 -1.0842 -1.1965
   58MOL0     H 7768   1.044   0.035   0.646 -0.8160 -0.7751 -0.5465
   58MOL0     H 7769   0.973  -0.060   0.432  0.6469  0.1333  1.5098
   58MOL0     H 7770   1.101   0.052   0.395 -2.3567  1.0224 -1.4691
   58MOL0     H 7771   1.257  -0.154   0.410 -0.0611 -1.8238  0.6910
   58MOL0     H 7772   1.105  -0.247   0.425 -2.1732 -0.7128 -3.2531
   58MOL0     H 7773   1.180  -0.057   0.191 -2.1982  0.4656 -0.6116
   58MOL0     H 7774   1.229  -0.233   0.189 -1.0836 -0.1284 -3.1523
   58MOL0     H 7775   0.972  -0.273   0.227 -2.0782  2.2849  1.4973
   58MOL0     H 7776   0.955  -0.109   0.193  0.6172  1.3684 -1.1807
   58MOL0     H 7777   0.899  -0.199  -0.011  1.1931  1.4048  2.2890
   58MOL0     H 7778   1.058  -0.139  -0.044  0.5423  0.3964  1.1624
   58MOL0     H 7779   1.144  -0.383   0.018 -1.7075 -2.6794  2.7440
   58MOL0     H 7780   1.051  -0.380  -0.133 -0.7859 -1.4879 -0.4861
   58MOL0     H 7781   0.787  -0.439  -0.049 -1.1075  0.4012  1.8005
   58MOL0     H 7782   0.695  -0.743  -0.025 -2.2319  1.9106 -1.5106
   58MOL0     H 7783   0.690  -0.778   0.144  3.3018  0.6899  0.2771
   58MOL0     H 7784   0.490  -0.671   0.041  1.5736 -1.4282 -1.1910
   58MOL0     H 7785   0.580  -0.513   0.039 -0.8258 -0.0818 -0.1996
   58MOL0     H 7786   0.623  -0.544   0.288  1.0254  0.9836 -2.1757
   58MOL0     H 7787   0.517  -0.689   0.290 -2.9410 -1.6956 -2.9896
   58MOL0     H 7788   0.341  -0.509   0.178  0.5678  0.9169 -0.4901
   58MOL0     H 7789   0.452  -0.398   0.250 -0.0926 -0.7008 -0.0038
   58MOL0     H 7790   0.339  -0.399   0.611  1.7083  0.2458 -0.4284
   58MOL0     H 7791   0.203  -0.364   0.803  2.4802  0.5309 -2.5201
   58MOL0     H 7792   0.173  -0.194   0.753 -1.6016  0.6213 -0.5713
   58MOL0     H 7793   0.035  -0.301   0.802 -0.2434 -1.0061 -1.0504
   58MOL0     H 7794  -0.437  -0.405   0.576 -1.5180 -1.3095 -1.6681
   58MOL0     H 7795  -0.660  -0.275   0.553  0.8704 -0.6442 -2.1842
   58MOL0     H 7796  -0.795  -0.152   0.373  0.2104 -0.3070 -0.0618
   58MOL0     H 7797  -0.840  -0.136   0.542  1.8228 -0.1478  1.4595
   58MOL0     H 7798  -0.894   0.097   0.507 -4.0481  2.3523 -2.8494
   58MOL0     H 7799  -0.870   0.074   0.330 -0.6010 -0.2742 -1.7281
   58MOL0     H 7800  -1.080  -0.078   0.489 -0.1310 -1.0638 -1.2304
   58MOL0     H 7801  -1.040  -0.063   0.317  1.6705 -0.9637 -1.1873
   58MOL0     H 7802  -1.109   0.186   0.480 -1.2116 -1.8992  1.6731
   58MOL0     H 7803  -1.067   0.191   0.317 -0.3948  3.1422  2.6151
   58MOL0     H 7804  -1.313   0.036   0.411 -0.5234 -2.4808 -1.5084
   58MOL0     H 7805  -1.270   0.072   0.243 -1.2987  0.4562  0.8209
   58MOL0     H 7806  -1.337   0.261   0.468  0.2425  0.8617 -0.4395
   58MOL0     H 7807  -1.302   0.321   0.310  0.1212 -1.6822 -0.6618
   58MOL0     H 7808  -1.523   0.114   0.349 -0.8026 -0.8020 -0.5203
   58MOL0     H 7809  -1.448   0.170   0.190  0.0037  0.6509  0.1853
   58MOL0     H 7810  -1.527   0.393   0.229 -1.5096  0.2056 -2.2370
   58MOL0     H 7811  -1.597   0.331   0.387 -2.6648  0.4902 -1.5497
   58MOL0     H 7812  -0.444   0.053   0.393  0.8116  0.1739  1.1189
   58MOL0     H 7813  -0.225  -0.068   0.440  0.0341  1.1379  3.0853
   58MOL0     H 7814  -0.034  -0.305   0.314 -0.3773  0.9541  1.4483
   58MOL0     H 7815   0.140  -0.473   0.245 -0.8200  0.4985 -0.4652
   58MOL0     H 7816   1.534  -0.040   0.640 -0.8498 -0.3509 -0.3741
   58MOL0     H 7817   1.744   0.074   0.678  0.3845 -1.0607 -3.2524
   58MOL0     H 7818   2.056   0.372   0.656  1.3997 -0.2761  1.9669
   58MOL0     H 7819   2.241   0.511   0.626  0.6550  0.6161 -1.0001
   58MOL0     H 7820   2.414   0.728   0.675 -0.8290  2.1808  2.5598
   58MOL0     H 7821   2.356   0.720   0.502 -1.3038  1.3499 -0.9929
   58MOL0     H 7822   2.347   0.971   0.485 -0.4395  1.0740  1.8640
   58MOL0     H 7823   2.511   0.903   0.510  0.3560  2.2206  0.0139
   58MOL0     H 7824   2.534   1.064   0.668 -0.8855  1.7804  0.5088
   58MOL0     H 7825   2.453   0.955   0.770 -2.6112  1.1386 -0.2994
   58MOL0     H 7826   2.358   1.174   0.795 -2.9324 -1.5996  1.4224
   58MOL0     H 7827   2.236   1.073   0.716  1.1005 -2.5685 -1.6605
   58MOL0     H 7828   2.303   1.380   0.438  1.8206  2.2836  1.7785
   58MOL0     H 7829   2.004   0.869   0.701  0.7704 -0.2778  3.0296
   58MOL0     H 7830   1.805   0.721   0.762 -0.0414  1.4492 -0.2858
   59MOL0     O 7831   9.204   4.037   1.428  0.1358 -0.1008  0.5959
   59MOL0     C 7832   9.275   3.996   1.516 -0.5137  1.0385  0.3902
   59MOL0     O 7833   9.411   3.982   1.506  0.5206 -0.2153  0.7591
   59MOL0     C 7834   9.471   4.003   1.378  1.3418 -0.0716  0.0150
   59MOL0     C 7835   9.424   3.949   1.250 -0.6895  0.3779 -0.8050
   59MOL0     C 7836   9.511   3.970   1.138  0.0198  0.7284 -0.1306
   59MOL0     C 7837   9.627   4.052   1.147  0.3954  0.6592  1.3062
   59MOL0     O 7838   9.687   4.092   1.026  0.2882 -0.2827 -0.5321
   59MOL0     C 7839   9.834   4.086   1.010  0.1276 -1.0402  0.0185
   59MOL0     C 7840   9.880   3.943   0.988  0.5267 -0.5564  0.1951
   59MOL0     C 7841   9.857   3.876   0.853  0.9858 -0.2056 -0.6440
   59MOL0     C 7842   9.933   3.941   0.746 -0.7621  0.2884 -0.8583
   59MOL0     C 7843   9.901   3.885   0.609 -0.1006  0.0367  0.2538
   59MOL0     C 7844   9.994   3.952   0.498  0.1317 -0.4348  0.2807
   59MOL0     C 7845   9.941   3.898   0.359 -1.3029 -0.5944 -0.2695
   59MOL0     C 7846   9.990   3.757   0.332  0.0323 -0.7511 -0.2150
   59MOL0     N 7847  10.137   3.745   0.335 -0.6516  0.3798 -0.8468
   59MOL0     C 7848  10.224   3.748   0.223 -0.3052  0.0166 -0.9974
   59MOL0     C 7849  10.345   3.752   0.279 -0.5481  0.1446 -0.8109
   59MOL0     C 7850  10.477   3.801   0.214  0.0362 -1.0616 -0.5556
   59MOL0     C 7851  10.576   3.679   0.200  0.4350 -1.0959 -0.3894
   59MOL0     C 7852  10.710   3.733   0.136 -0.2154  0.9536  0.7666
   59MOL0     C 7853  10.798   3.616   0.085 -0.3628 -0.2780 -0.1615
   59MOL0     O 7854  10.834   3.522   0.189 -0.2021 -0.8541  0.1829
   59MOL0     C 7855  10.920   3.423   0.154  0.4022 -0.6521  0.3135
   59MOL0     C 7856  10.948   3.389   0.021 -0.0196  0.1569 -0.4135
   59MOL0     C 7857  11.047   3.284  -0.011 -0.3804 -0.1084  0.5708
   59MOL0     C 7858  11.092   3.265  -0.152  1.1244  0.4730  0.4154
   59MOL0     C 7859  11.105   3.214   0.094 -0.3934  0.2052 -0.2292
   59MOL0     C 7860  11.188   3.097   0.076  0.0975  0.8007 -0.4009
   59MOL0     O 7861  11.299   3.094   0.156  0.0118  0.3603  0.0698
   59MOL0     C 7862  11.398   2.998   0.127 -0.2356  0.6138 -0.1032
   59MOL0     C 7863  11.443   2.967  -0.006 -0.1647  1.0713  0.8544
   59MOL0     C 7864  11.566   2.901  -0.021 -0.3472 -0.5743 -0.2393
   59MOL0     C 7865  11.639   2.861   0.089  0.1372 -0.5819 -0.2119
   59MOL0     O 7866  11.751   2.787   0.057 -0.6438  0.5237 -0.1209
   59MOL0     C 7867  11.823   2.722   0.170  1.1336  0.0016  0.0231
   59MOL0     C 7868  11.932   2.622   0.141 -1.0000 -1.0588 -0.0177
   59MOL0     C 7869  11.896   2.505   0.055 -0.3866 -0.3304  0.5113
   59MOL0     C 7870  11.985   2.381   0.074 -0.7442  0.3228 -0.0440
   59MOL0     C 7871  11.955   2.253  -0.010  0.3465 -0.2248 -0.4406
   59MOL0     C 7872  11.918   2.280  -0.152  0.9077  0.1845  0.5242
   59MOL0     C 7873  11.915   2.149  -0.221  0.2821  0.0978 -0.2522
   59MOL0     C 7874  11.953   2.161  -0.373  0.1721 -0.6157  0.1346
   59MOL0    Cl 7875  12.028   2.013  -0.445  0.3161  0.1175 -0.6138
   59MOL0     C 7876  11.584   2.884   0.221 -0.3268 -0.5859  0.7044
   59MOL0     C 7877  11.473   2.948   0.235  0.4064 -0.0697  0.6130
   59MOL0     O 7878  11.149   3.017  -0.006 -0.1908 -0.1235 -0.2508
   59MOL0     C 7879  11.076   3.241   0.225 -0.3617 -0.1642  0.4191
   59MOL0     C 7880  10.988   3.347   0.252  0.3915 -0.4597  0.0356
   59MOL0     N 7881  10.334   3.716   0.414  0.1783  0.9362  0.1911
   59MOL0     N 7882  10.207   3.703   0.451  0.3509 -0.5349 -0.1172
   59MOL0     C 7883   9.673   4.094   1.271 -1.1668  0.4068 -0.8911
   59MOL0     C 7884   9.600   4.059   1.388  1.1835  0.0673 -0.3231
   59MOL0     C 7885   9.219   3.957   1.639  0.1941 -0.4118 -0.8462
   59MOL0     C 7886   9.087   3.957   1.676  0.3371 -0.0383 -0.0372
   59MOL0     C 7887   9.047   3.899   1.799  1.1946 -0.0158 -0.2944
   59MOL0     C 7888   9.133   3.867   1.901  0.2123 -0.4017 -0.8364
   59MOL0     O 7889   9.106   3.836   2.029 -0.4677  0.0974  0.5440
   59MOL0     C 7890   8.981   3.782   2.055  1.1079  0.3209 -0.9338
   59MOL0     C 7891   8.910   3.860   2.163  0.7563 -0.6904  0.1627
   59MOL0     C 7892   8.798   3.775   2.232  0.3589  0.0424  0.3062
   59MOL0     C 7893   8.703   3.719   2.133 -0.0287  0.2351  0.0205
   59MOL0     C 7894   8.592   3.662   2.201  0.7735  1.4706  0.3935
   59MOL0     C 7895   8.489   3.611   2.243 -0.4769 -0.3683  0.0220
   59MOL0     C 7896   9.267   3.871   1.864  0.1385 -0.2588 -0.2207
   59MOL0     C 7897   9.310   3.917   1.740  0.9549 -0.0837 -0.7568
   59MOL0     H 7898   9.334   3.888   1.256  0.2100 -0.9707  3.8241
   59MOL0     H 7899   9.466   3.954   1.041 -0.8879  1.6567  0.1107
   59MOL0     H 7900   9.869   4.154   0.932  0.3830 -0.0604  0.9636
   59MOL0     H 7901   9.887   4.122   1.098  2.7322  0.5528 -2.0607
   59MOL0     H 7902   9.989   3.947   0.993  0.4813 -0.3054  1.6464
   59MOL0     H 7903   9.848   3.867   1.060  0.8729 -2.1621 -1.2783
   59MOL0     H 7904   9.877   3.769   0.866 -1.3960 -0.5175  1.0273
   59MOL0     H 7905   9.753   3.896   0.829  1.2079  3.3469  0.7071
   59MOL0     H 7906   9.908   4.047   0.752  2.3921  1.0927  4.1727
   59MOL0     H 7907  10.041   3.938   0.766 -1.0773  0.3234  1.0771
   59MOL0     H 7908   9.925   3.778   0.610 -0.2919 -0.0287 -0.8462
   59MOL0     H 7909   9.795   3.873   0.587 -0.1398 -1.9732  1.3498
   59MOL0     H 7910   9.977   4.060   0.491 -0.2107 -0.6174 -4.7518
   59MOL0     H 7911  10.103   3.944   0.508  0.4553  0.8686 -1.7133
   59MOL0     H 7912   9.833   3.911   0.348 -1.3756  0.8819  1.6711
   59MOL0     H 7913   9.971   3.960   0.274 -3.5117  0.4382 -0.3881
   59MOL0     H 7914   9.942   3.723   0.240  0.0871  0.5187 -0.7373
   59MOL0     H 7915   9.947   3.686   0.403 -3.9568 -1.1281 -2.6714
   59MOL0     H 7916  10.217   3.752   0.115 -1.4499 -5.0977 -1.3578
   59MOL0     H 7917  10.452   3.825   0.111 -1.7589 -1.0279 -0.1440
   59MOL0     H 7918  10.529   3.880   0.269 -2.8474 -0.7214  1.8976
   59MOL0     H 7919  10.532   3.600   0.139 -1.8717 -0.7620  0.7199
   59MOL0     H 7920  10.602   3.636   0.297  1.8372  1.0147  0.2283
   59MOL0     H 7921  10.757   3.778   0.224 -1.5164  0.9674  1.4810
   59MOL0     H 7922  10.696   3.814   0.064 -1.8758 -0.3908 -0.4900
   59MOL0     H 7923  10.889   3.663   0.046 -0.6155  0.6325  0.3056
   59MOL0     H 7924  10.740   3.574   0.003 -3.3977  2.3543  0.4296
   59MOL0     H 7925  10.915   3.442  -0.068 -0.0435 -0.2208 -0.6295
   59MOL0     H 7926  11.200   3.270  -0.164  0.8377  1.4503 -2.8079
   59MOL0     H 7927  11.048   3.167  -0.171 -0.7528  0.7941  2.6519
   59MOL0     H 7928  11.047   3.342  -0.217  1.1457  1.8287  1.9381
   59MOL0     H 7929  11.383   2.985  -0.095 -2.4247 -0.8997  1.8949
   59MOL0     H 7930  11.607   2.879  -0.118  1.3852 -0.0259  0.3380
   59MOL0     H 7931  11.853   2.803   0.238 -3.1647  0.2503  1.9341
   59MOL0     H 7932  11.753   2.669   0.234  2.2360 -1.5325  0.0093
   59MOL0     H 7933  12.018   2.679   0.105 -1.7048 -0.6010 -1.0212
   59MOL0     H 7934  11.967   2.599   0.242  1.1384  2.8191  0.2904
   59MOL0     H 7935  11.902   2.528  -0.052 -2.9644 -2.4211 -0.1903
   59MOL0     H 7936  11.797   2.469   0.083 -0.2403 -2.2352 -1.1810
   59MOL0     H 7937  12.085   2.421   0.057  0.0618 -1.1669  0.9269
   59MOL0     H 7938  11.986   2.366   0.182  2.2864  3.0901  0.4669
   59MOL0     H 7939  11.868   2.202   0.034 -1.1521  2.0122 -0.5914
   59MOL0     H 7940  12.048   2.196  -0.004  2.8634  3.6080  0.5525
   59MOL0     H 7941  11.817   2.322  -0.148  1.2752  1.0381  1.4699
   59MOL0     H 7942  11.995   2.348  -0.188  1.1444  0.3415  1.3000
   59MOL0     H 7943  11.823   2.089  -0.212 -0.8212  1.3735 -2.2869
   59MOL0     H 7944  11.991   2.090  -0.168  0.1923  0.8883  0.7895
   59MOL0     H 7945  12.023   2.244  -0.381  1.6184 -1.7688  0.4324
   59MOL0     H 7946  11.866   2.198  -0.427 -0.6506  0.8546  2.3214
   59MOL0     H 7947  11.641   2.842   0.303 -0.1455  1.2041  1.5352
   59MOL0     H 7948  11.438   2.962   0.337 -0.7317  1.5286  0.0610
   59MOL0     H 7949  11.120   3.196   0.313  3.0741  1.0659 -0.5197
   59MOL0     H 7950  10.973   3.366   0.358 -1.8481 -0.0830 -0.2996
   59MOL0     H 7951   9.761   4.157   1.285 -1.5767  0.6781  0.7742
   59MOL0     H 7952   9.643   4.085   1.484  1.8067  0.1936 -0.6314
   59MOL0     H 7953   9.017   3.995   1.601  1.9476  1.0536 -1.0450
   59MOL0     H 7954   8.939   3.906   1.811  0.9459  0.5920 -2.4061
   59MOL0     H 7955   8.908   3.785   1.974 -0.1585  1.6326  0.2074
   59MOL0     H 7956   8.992   3.680   2.093  1.8856  0.1582 -1.5730
   59MOL0     H 7957   8.884   3.960   2.127 -0.6110 -0.5397  1.4398
   59MOL0     H 7958   8.982   3.878   2.244  3.9587 -0.3803 -2.5434
   59MOL0     H 7959   8.742   3.846   2.293 -0.2086  0.6350 -0.8850
   59MOL0     H 7960   8.843   3.710   2.308 -1.3928 -0.9598  0.5357
   59MOL0     H 7961   8.758   3.640   2.081  0.1652  0.2694  0.1713
   59MOL0     H 7962   8.670   3.795   2.061  4.6875  2.4157 -0.1984
   59MOL0     H 7963   8.403   3.568   2.291 -0.4931 -1.3918 -0.8935
   59MOL0     H 7964   9.341   3.828   1.931 -0.4156  0.4888  0.8962
   59MOL0     H 7965   9.414   3.911   1.712  1.1247  0.1227 -0.1818
   60MOL0     O 7966   7.622   6.493   2.405  0.0856 -0.3192 -0.5010
   60MOL0     C 7967   7.544   6.396   2.434 -0.4290 -0.3973  1.1376
   60MOL0     O 7968   7.435   6.356   2.369 -0.2236  0.1992 -0.2302
   60MOL0     C 7969   7.393   6.416   2.257  0.2996 -0.0727 -0.2949
   60MOL0     C 7970   7.323   6.325   2.173 -0.1224 -0.3854 -0.3003
   60MOL0     C 7971   7.263   6.376   2.059  0.0901  0.7348  0.2370
   60MOL0     C 7972   7.267   6.510   2.019 -0.9542 -0.7183  0.2487
   60MOL0     O 7973   7.214   6.559   1.902  0.3316 -0.5765  0.3461
   60MOL0     C 7974   7.120   6.482   1.839  0.9506  0.4050 -0.2652
   60MOL0     C 7975   7.082   6.527   1.696 -0.2041  0.3078 -0.4073
   60MOL0     C 7976   6.935   6.575   1.688 -0.1257  0.4479  0.0252
   60MOL0     C 7977   6.903   6.597   1.542 -0.5770 -0.3124  0.5418
   60MOL0     C 7978   6.760   6.664   1.536 -0.1028  0.2147 -0.0869
   60MOL0     C 7979   6.716   6.702   1.401  0.0330 -0.5537  0.6468
   60MOL0     C 7980   6.590   6.794   1.402 -0.3527  0.7080 -0.0289
   60MOL0     C 7981   6.538   6.846   1.270  0.0113  0.4739 -0.2720
   60MOL0     N 7982   6.412   6.915   1.300  0.2935  0.4671 -1.0351
   60MOL0     C 7983   6.326   6.886   1.398  0.2814  0.2614 -0.3186
   60MOL0     C 7984   6.248   7.000   1.415  0.6437  0.3613  0.1872
   60MOL0     C 7985   6.150   7.017   1.530 -0.8263 -1.0077 -0.2480
   60MOL0     C 7986   6.000   7.016   1.473 -0.4460 -0.9134  0.1947
   60MOL0     C 7987   5.908   7.097   1.574  0.8355 -1.1179  0.5126
   60MOL0     C 7988   5.871   7.025   1.702  0.5060  0.2147  0.7847
   60MOL0     O 7989   5.978   7.027   1.783 -0.5212  0.3473 -0.0446
   60MOL0     C 7990   5.981   6.986   1.919 -0.6367  0.5254  0.4553
   60MOL0     C 7991   6.096   7.002   1.995 -0.3037 -1.1579  0.5358
   60MOL0     C 7992   6.094   6.990   2.133 -0.5712  0.0914  0.3281
   60MOL0     C 7993   6.219   7.033   2.201  0.4181  1.2156 -0.6598
   60MOL0     C 7994   5.978   6.933   2.194  0.4251 -0.1718 -0.2425
   60MOL0     C 7995   5.972   6.880   2.335 -0.3811  0.6641  0.2718
   60MOL0     O 7996   6.086   6.878   2.405  0.6397  0.1161 -0.0725
   60MOL0     C 7997   6.104   6.814   2.531  0.7131 -0.1586  0.6892
   60MOL0     C 7998   6.229   6.793   2.594 -0.5414 -0.7498 -0.6690
   60MOL0     C 7999   6.251   6.764   2.734 -0.3096  0.2956  0.1950
   60MOL0     C 8000   6.147   6.763   2.817  0.4457 -0.3408  0.3935
   60MOL0     O 8001   6.174   6.734   2.949  0.3119  0.0769  0.0554
   60MOL0     C 8002   6.067   6.758   3.043  0.8976  0.3999  0.4991
   60MOL0     C 8003   6.109   6.704   3.187  0.5145  0.4472 -0.7031
   60MOL0     C 8004   6.141   6.552   3.186  0.7497  0.0271 -0.2135
   60MOL0     C 8005   6.115   6.487   3.324  0.0299  0.3546  0.1317
   60MOL0     C 8006   6.229   6.406   3.366 -0.0803 -0.4156  0.6457
   60MOL0     C 8007   6.364   6.484   3.374 -0.7406  0.2469 -0.1872
   60MOL0     C 8008   6.365   6.583   3.488 -0.2948  0.1681  1.0523
   60MOL0     C 8009   6.494   6.668   3.503  0.2652  0.3655 -0.6316
   60MOL0    Cl 8010   6.526   6.772   3.357 -0.4424  0.3607 -0.3569
   60MOL0     C 8011   6.016   6.778   2.756  0.3204 -0.7496 -0.5929
   60MOL0     C 8012   5.995   6.808   2.625 -0.2219 -0.4802  0.7470
   60MOL0     O 8013   5.866   6.836   2.371  0.2467 -0.2828  0.1658
   60MOL0     C 8014   5.865   6.911   2.119 -0.2236 -0.3794 -0.2782
   60MOL0     C 8015   5.862   6.928   1.976 -0.6862 -0.9739 -0.3526
   60MOL0     N 8016   6.304   7.099   1.336 -0.6755  0.4535 -0.4589
   60MOL0     N 8017   6.399   7.047   1.272 -0.1149 -0.7043 -0.3347
   60MOL0     C 8018   7.340   6.594   2.108 -0.4802 -0.5815  0.7866
   60MOL0     C 8019   7.409   6.549   2.219 -0.4882  0.2902  0.5104
   60MOL0     C 8020   7.579   6.333   2.562  0.4236  0.6767  0.0576
   60MOL0     C 8021   7.706   6.340   2.622 -1.4298  0.4509 -0.1149
   60MOL0     C 8022   7.736   6.264   2.742  0.1498  0.9522 -0.3900
   60MOL0     C 8023   7.640   6.173   2.794  0.0484  0.4085  0.0767
   60MOL0     O 8024   7.646   6.092   2.905 -0.0683  0.6516 -0.7147
   60MOL0     C 8025   7.725   6.145   3.016 -0.1641  1.0321 -0.5668
   60MOL0     C 8026   7.638   6.130   3.140 -0.0778  0.1926  0.0271
   60MOL0     C 8027   7.711   6.155   3.265 -0.2575  0.1243  0.8816
   60MOL0     C 8028   7.614   6.156   3.389 -0.9887 -0.0659  0.2247
   60MOL0     C 8029   7.678   6.130   3.512 -0.2138  0.3214  0.5688
   60MOL0     C 8030   7.721   6.095   3.619  0.5031 -0.0748 -1.4990
   60MOL0     C 8031   7.522   6.160   2.724 -1.1775  0.1725  0.2577
   60MOL0     C 8032   7.488   6.241   2.614 -0.6960 -0.2014 -0.6741
   60MOL0     H 8033   7.334   6.221   2.201  1.7787 -1.3326 -3.9677
   60MOL0     H 8034   7.222   6.303   1.990  3.0193 -0.4387 -0.4122
   60MOL0     H 8035   7.152   6.380   1.815 -0.2259  0.0369 -0.3269
   60MOL0     H 8036   7.026   6.477   1.895 -0.2833  2.3224 -2.0543
   60MOL0     H 8037   7.150   6.603   1.658 -0.5409  0.9214  0.1716
   60MOL0     H 8038   7.093   6.437   1.636  2.0155  0.4734 -0.3084
   60MOL0     H 8039   6.864   6.499   1.720 -2.1642  1.9252 -0.7550
   60MOL0     H 8040   6.924   6.668   1.745 -0.2896 -0.1388  0.9649
   60MOL0     H 8041   6.986   6.656   1.502  0.1032  0.6644  3.2144
   60MOL0     H 8042   6.907   6.504   1.483 -0.4031 -0.3446  0.6037
   60MOL0     H 8043   6.687   6.591   1.573 -0.2486 -0.1896 -1.1406
   60MOL0     H 8044   6.758   6.753   1.600  0.3966  1.6176 -1.9556
   60MOL0     H 8045   6.790   6.758   1.343  0.3321 -0.9614  0.6234
   60MOL0     H 8046   6.707   6.608   1.346  1.7562  1.3418 -3.2704
   60MOL0     H 8047   6.519   6.718   1.438 -0.6876 -0.7456 -3.3438
   60MOL0     H 8048   6.596   6.872   1.477 -1.9012 -0.1237  1.0219
   60MOL0     H 8049   6.522   6.754   1.212  0.0061  0.9157 -0.9870
   60MOL0     H 8050   6.600   6.916   1.212 -1.2581  0.7359 -1.3836
   60MOL0     H 8051   6.319   6.802   1.466 -0.8400  3.9073  4.5540
   60MOL0     H 8052   6.157   6.937   1.604 -0.3052  0.1565  1.0131
   60MOL0     H 8053   6.165   7.118   1.570  2.7798 -1.5154  0.0215
   60MOL0     H 8054   5.974   6.911   1.457 -0.0778 -1.0041  0.1801
   60MOL0     H 8055   6.003   7.071   1.378  2.4511 -0.2554  0.5673
   60MOL0     H 8056   5.815   7.109   1.517  0.1258  1.0016  1.9778
   60MOL0     H 8057   5.944   7.196   1.604 -0.3110 -0.5765  0.1864
   60MOL0     H 8058   5.829   6.927   1.678  0.6788  0.4611 -0.6084
   60MOL0     H 8059   5.794   7.086   1.750  1.7410  2.0679  0.5075
   60MOL0     H 8060   6.185   7.032   1.941 -3.4733  0.6969 -4.2739
   60MOL0     H 8061   6.199   7.079   2.298  0.4732  0.9082 -0.5045
   60MOL0     H 8062   6.272   6.939   2.216 -1.7375  0.2650  1.5733
   60MOL0     H 8063   6.281   7.105   2.146  1.7046  2.4227  2.1475
   60MOL0     H 8064   6.320   6.804   2.535 -0.3562 -0.1547 -0.2879
   60MOL0     H 8065   6.353   6.753   2.771 -0.0859  1.8123  0.0752
   60MOL0     H 8066   6.059   6.867   3.042 -0.0859  0.4112 -2.7767
   60MOL0     H 8067   5.972   6.714   3.011  0.3886  2.7503 -1.4891
   60MOL0     H 8068   6.200   6.755   3.219  0.2182  2.8741 -3.3283
   60MOL0     H 8069   6.023   6.725   3.251 -1.4694  1.2857 -3.4354
   60MOL0     H 8070   6.243   6.544   3.148  0.3485 -3.6403 -0.8522
   60MOL0     H 8071   6.086   6.502   3.106 -0.7796 -0.7909  1.2697
   60MOL0     H 8072   6.096   6.566   3.398  2.3936  1.0279  0.1035
   60MOL0     H 8073   6.030   6.420   3.314  1.0211 -0.9805  0.3842
   60MOL0     H 8074   6.251   6.335   3.287 -0.4416  2.2645 -2.0571
   60MOL0     H 8075   6.209   6.368   3.467 -0.3918  0.6931  1.0236
   60MOL0     H 8076   6.442   6.411   3.396  0.0691  0.9763 -0.5838
   60MOL0     H 8077   6.387   6.528   3.277  1.4280 -1.7426 -0.6518
   60MOL0     H 8078   6.369   6.525   3.581 -0.2566 -2.8451 -0.7247
   60MOL0     H 8079   6.275   6.645   3.485  0.7722  1.7230 -1.4273
   60MOL0     H 8080   6.584   6.610   3.525  1.2786  0.3849 -4.1223
   60MOL0     H 8081   6.479   6.744   3.580  2.4967  1.1308 -0.8805
   60MOL0     H 8082   5.932   6.786   2.824  2.5486 -2.9034  2.6794
   60MOL0     H 8083   5.892   6.830   2.598 -0.5028 -3.4435 -1.0750
   60MOL0     H 8084   5.774   6.883   2.172 -2.8296  2.9006 -2.5080
   60MOL0     H 8085   5.767   6.922   1.924 -2.5831 -1.5057  2.9250
   60MOL0     H 8086   7.349   6.701   2.094 -1.5878 -0.5472  0.2146
   60MOL0     H 8087   7.460   6.628   2.273 -1.8772 -0.9978  4.0083
   60MOL0     H 8088   7.789   6.407   2.601  2.1851 -3.4223  0.4277
   60MOL0     H 8089   7.831   6.271   2.796 -0.6937 -0.9165  1.4919
   60MOL0     H 8090   7.811   6.079   3.034 -3.8220 -3.7531  1.8352
   60MOL0     H 8091   7.765   6.245   2.997 -1.5001  1.9515  1.1538
   60MOL0     H 8092   7.598   6.028   3.134  2.7771 -0.9697 -1.7577
   60MOL0     H 8093   7.562   6.207   3.135 -1.1558 -0.7269  1.3569
   60MOL0     H 8094   7.763   6.250   3.253 -4.7233  2.8731  1.1952
   60MOL0     H 8095   7.775   6.065   3.265  0.4956  0.6168 -0.9561
   60MOL0     H 8096   7.538   6.080   3.369  0.1879 -1.6195  1.4554
   60MOL0     H 8097   7.577   6.259   3.394 -0.8830 -0.0838  2.2187
   60MOL0     H 8098   7.762   6.050   3.707 -2.8390 -2.9852 -1.2435
   60MOL0     H 8099   7.451   6.089   2.765 -0.5984  0.3643  1.6735
   60MOL0     H 8100   7.390   6.223   2.571  0.2865  1.1904 -3.7432
   61MOL0     O 8101   5.199   8.767   2.161 -0.4038 -0.1366  0.3420
   61MOL0     C 8102   5.258   8.870   2.180 -0.6877  0.3636 -0.9110
   61MOL0     O 8103   5.240   8.988   2.130  0.6157 -0.8048  0.0678
   61MOL0     C 8104   5.135   9.017   2.052  0.7918  0.6094  0.4649
   61MOL0     C 8105   5.003   8.991   2.093 -0.2648  0.6502  0.9699
   61MOL0     C 8106   4.898   9.031   2.022 -0.3097 -0.7522 -0.3463
   61MOL0     C 8107   4.915   9.097   1.900  1.0754  0.0253  0.2170
   61MOL0     O 8108   4.805   9.139   1.830 -0.5036  0.4802  0.3469
   61MOL0     C 8109   4.811   9.229   1.718  0.9092  0.0409 -0.0670
   61MOL0     C 8110   4.833   9.151   1.588 -0.7236  0.2896 -0.9178
   61MOL0     C 8111   4.720   9.057   1.555 -0.2465  0.7382 -0.2973
   61MOL0     C 8112   4.744   8.982   1.430 -0.7507 -1.5256 -0.3720
   61MOL0     C 8113   4.635   8.883   1.385 -0.6672 -0.3993  0.3803
   61MOL0     C 8114   4.657   8.805   1.255 -0.0765 -0.7031 -0.2676
   61MOL0     C 8115   4.523   8.742   1.218  0.3966  0.6348 -0.5684
   61MOL0     C 8116   4.405   8.822   1.154 -0.3185 -0.1785  0.2369
   61MOL0     N 8117   4.276   8.764   1.197 -0.3766  0.4666  0.3865
   61MOL0     C 8118   4.213   8.657   1.135  0.5918 -0.2216 -0.3422
   61MOL0     C 8119   4.091   8.644   1.198 -0.2216  0.0053 -0.5399
   61MOL0     C 8120   3.987   8.538   1.167  0.0716  0.0128 -0.3424
   61MOL0     C 8121   3.881   8.538   1.281 -0.7262  0.5573  0.0529
   61MOL0     C 8122   3.932   8.469   1.408  0.4477  0.3008  1.0037
   61MOL0     C 8123   3.832   8.488   1.521 -0.4846  0.1424 -1.1109
   61MOL0     O 8124   3.863   8.392   1.621 -0.1697  0.4175  0.2689
   61MOL0     C 8125   3.789   8.383   1.733  1.1634 -0.6577 -0.4550
   61MOL0     C 8126   3.842   8.308   1.844  0.2164  0.2459  0.2546
   61MOL0     C 8127   3.781   8.284   1.958  0.2260  1.2715  0.6432
   61MOL0     C 8128   3.859   8.204   2.061  0.0879 -0.7177 -0.2448
   61MOL0     C 8129   3.662   8.351   1.983  0.5552  0.1230  0.1402
   61MOL0     C 8130   3.593   8.337   2.120  0.2891 -0.8118 -0.0189
   61MOL0     O 8131   3.494   8.422   2.140  0.2303 -0.3699 -0.3919
   61MOL0     C 8132   3.403   8.405   2.247  0.8630 -0.3869  0.5590
   61MOL0     C 8133   3.435   8.372   2.376 -0.2107 -1.2047 -0.3228
   61MOL0     C 8134   3.335   8.379   2.472  0.2042  0.1311 -0.1602
   61MOL0     C 8135   3.200   8.401   2.428 -0.7348  0.4093  0.1330
   61MOL0     O 8136   3.098   8.370   2.515 -0.1888 -0.5961  0.3263
   61MOL0     C 8137   3.063   8.225   2.526 -1.1353 -0.1473 -1.0584
   61MOL0     C 8138   2.939   8.200   2.608 -0.2375 -0.8661  0.5602
   61MOL0     C 8139   2.877   8.067   2.587 -0.4959 -1.0665 -0.8486
   61MOL0     C 8140   2.950   7.947   2.651 -0.1976  0.0724  0.4329
   61MOL0     C 8141   2.889   7.907   2.788  0.0223 -1.5003  0.2599
   61MOL0     C 8142   2.987   7.936   2.902 -0.2147  1.1182 -0.9117
   61MOL0     C 8143   2.933   7.846   3.028  0.9184 -0.0761  0.4885
   61MOL0     C 8144   2.948   7.924   3.158  0.1443  0.7537 -0.3112
   61MOL0    Cl 8145   3.122   7.947   3.173  0.4313  0.1440  0.0843
   61MOL0     C 8146   3.174   8.418   2.298 -0.5656  0.4644  1.2362
   61MOL0     C 8147   3.277   8.432   2.205  0.1188  1.1431 -1.4316
   61MOL0     O 8148   3.609   8.238   2.191  0.1724  1.0156 -0.3077
   61MOL0     C 8149   3.593   8.422   1.885 -1.7148 -0.2582 -0.7195
   61MOL0     C 8150   3.664   8.447   1.762  0.4493  1.1239 -0.2445
   61MOL0     N 8151   4.084   8.748   1.293  0.0161 -0.6622  0.1413
   61MOL0     N 8152   4.186   8.827   1.279  0.8974  0.2045 -0.5657
   61MOL0     C 8153   5.042   9.111   1.856 -0.2747  0.3789  0.4826
   61MOL0     C 8154   5.156   9.080   1.931 -0.6581 -0.2998  0.4820
   61MOL0     C 8155   5.364   8.872   2.288 -0.0532 -0.6534 -0.4381
   61MOL0     C 8156   5.389   8.750   2.357  0.1193  0.4435  0.1448
   61MOL0     C 8157   5.493   8.732   2.451  0.0071  1.0059 -0.5736
   61MOL0     C 8158   5.571   8.841   2.474  0.0286  0.4094  0.4858
   61MOL0     O 8159   5.683   8.827   2.544 -0.2799  0.3490 -0.2492
   61MOL0     C 8160   5.797   8.794   2.465  0.6238 -0.0172  0.2298
   61MOL0     C 8161   5.921   8.753   2.552  0.4718  0.3143  0.0816
   61MOL0     C 8162   5.916   8.602   2.589  0.2261  0.2123  0.1819
   61MOL0     C 8163   5.790   8.556   2.667 -1.2189 -0.3392 -0.8785
   61MOL0     C 8164   5.812   8.425   2.718 -0.1220 -0.3250  0.2696
   61MOL0     C 8165   5.811   8.311   2.763  1.1391  0.7241 -0.6243
   61MOL0     C 8166   5.548   8.962   2.412  0.3900  0.3856 -0.2228
   61MOL0     C 8167   5.444   8.981   2.325  0.2278  0.4149  0.3926
   61MOL0     H 8168   4.989   8.954   2.195  0.1888 -3.1130 -0.1712
   61MOL0     H 8169   4.795   9.008   2.049 -0.0844 -0.5560  0.7024
   61MOL0     H 8170   4.716   9.280   1.704 -0.1167 -1.8194 -0.2256
   61MOL0     H 8171   4.880   9.312   1.738 -0.0917  0.8925 -0.0844
   61MOL0     H 8172   4.852   9.224   1.509  0.8754 -0.2096 -1.0317
   61MOL0     H 8173   4.924   9.090   1.592  0.0500  1.3582  3.7214
   61MOL0     H 8174   4.697   8.992   1.639 -4.4599  1.2268 -0.8157
   61MOL0     H 8175   4.627   9.115   1.543 -0.8403 -0.5171 -2.4497
   61MOL0     H 8176   4.763   9.052   1.348 -2.4832  0.7854  1.0677
   61MOL0     H 8177   4.836   8.924   1.439 -0.1953 -0.5853  0.1324
   61MOL0     H 8178   4.626   8.805   1.461 -2.6857 -0.3052  0.2883
   61MOL0     H 8179   4.543   8.938   1.364 -1.1478 -0.0664  2.9818
   61MOL0     H 8180   4.680   8.875   1.175  0.7781  1.7405  1.9572
   61MOL0     H 8181   4.739   8.735   1.275 -0.3801 -1.0482 -0.2239
   61MOL0     H 8182   4.545   8.653   1.160 -2.4125 -1.0125  0.6545
   61MOL0     H 8183   4.474   8.702   1.307 -1.6723  1.5111 -1.2464
   61MOL0     H 8184   4.418   8.851   1.050 -0.0828 -2.4645 -0.4338
   61MOL0     H 8185   4.403   8.918   1.205 -2.2705  0.1866 -0.4226
   61MOL0     H 8186   4.248   8.613   1.042  0.4507 -0.7633 -0.1458
   61MOL0     H 8187   3.940   8.569   1.074 -1.0523  0.2278  0.2693
   61MOL0     H 8188   4.035   8.440   1.162  0.5222  0.2751 -1.5019
   61MOL0     H 8189   3.788   8.489   1.251  0.8135 -1.5746 -1.5401
   61MOL0     H 8190   3.856   8.642   1.307  1.7265  1.4183 -0.6739
   61MOL0     H 8191   4.027   8.509   1.443  1.2956  0.1206 -0.9818
   61MOL0     H 8192   3.944   8.365   1.379 -0.6096  1.3589 -4.2581
   61MOL0     H 8193   3.726   8.468   1.501 -1.3826  0.2717  2.6572
   61MOL0     H 8194   3.862   8.589   1.550 -0.5125 -0.7521  2.5210
   61MOL0     H 8195   3.940   8.264   1.824 -0.0798 -0.1986 -0.2650
   61MOL0     H 8196   3.907   8.262   2.140  2.1108 -3.5946  0.8017
   61MOL0     H 8197   3.801   8.121   2.103 -0.1716  0.4267  1.7643
   61MOL0     H 8198   3.950   8.159   2.020 -0.0816 -1.3197  0.0191
   61MOL0     H 8199   3.539   8.354   2.402 -0.4404 -2.7906 -0.3575
   61MOL0     H 8200   3.369   8.357   2.573  1.4679 -0.3303 -0.6714
   61MOL0     H 8201   3.042   8.175   2.431  0.3133 -0.5425 -1.2015
   61MOL0     H 8202   3.145   8.174   2.579 -0.1317  3.6444  1.4792
   61MOL0     H 8203   2.965   8.215   2.713  0.3205 -0.7705  0.4099
   61MOL0     H 8204   2.870   8.278   2.574 -1.5558 -1.3192  2.0903
   61MOL0     H 8205   2.857   8.059   2.480 -1.1729  0.1776 -0.8350
   61MOL0     H 8206   2.777   8.066   2.631  0.3297 -2.9292  1.1580
   61MOL0     H 8207   2.939   7.855   2.593  1.5862 -1.7748  2.8436
   61MOL0     H 8208   3.058   7.955   2.641 -0.4593  0.8543 -2.7724
   61MOL0     H 8209   2.854   7.803   2.786 -0.0748 -1.7489  4.7067
   61MOL0     H 8210   2.804   7.969   2.819  2.7030  1.4166  2.4450
   61MOL0     H 8211   3.084   7.892   2.881  0.0943  0.4991  1.4644
   61MOL0     H 8212   3.010   8.041   2.917  0.1126  1.2194 -2.0596
   61MOL0     H 8213   2.977   7.746   3.028  0.2461 -0.3960  2.1376
   61MOL0     H 8214   2.826   7.826   3.022  0.8579  0.4235 -0.2279
   61MOL0     H 8215   2.896   7.874   3.240  2.6772  1.8624  2.1379
   61MOL0     H 8216   2.901   8.024   3.159  0.3820  0.9263 -2.4504
   61MOL0     H 8217   3.070   8.430   2.269 -1.1688  0.8309  3.3652
   61MOL0     H 8218   3.251   8.466   2.105 -1.7929  0.1202 -1.3249
   61MOL0     H 8219   3.495   8.460   1.911 -2.1728 -2.2941  0.7842
   61MOL0     H 8220   3.611   8.493   1.679 -1.2318 -1.9228 -0.9981
   61MOL0     H 8221   5.071   9.140   1.755  1.6296 -2.2061  0.1667
   61MOL0     H 8222   5.254   9.109   1.894 -0.8041  0.4422  0.6519
   61MOL0     H 8223   5.334   8.657   2.344  1.4442 -0.2750 -0.5178
   61MOL0     H 8224   5.530   8.636   2.486 -0.9405 -0.4670 -3.2105
   61MOL0     H 8225   5.763   8.716   2.397  0.8118 -0.9461  1.1692
   61MOL0     H 8226   5.825   8.878   2.401  0.2581  0.0012  0.0880
   61MOL0     H 8227   5.915   8.801   2.650  2.0615 -2.1051  1.4615
   61MOL0     H 8228   6.012   8.778   2.498 -1.5697  2.5424 -2.6393
   61MOL0     H 8229   5.996   8.580   2.660 -0.8636  0.8003  1.6393
   61MOL0     H 8230   5.924   8.544   2.497  2.0199 -1.3503  1.2400
   61MOL0     H 8231   5.705   8.557   2.599 -2.7242 -2.3578  0.8398
   61MOL0     H 8232   5.776   8.628   2.748 -0.5671  0.3838 -1.4025
   61MOL0     H 8233   5.790   8.221   2.817  1.6314  1.0734  0.1750
   61MOL0     H 8234   5.618   9.041   2.438  0.2738  1.4324 -2.7488
   61MOL0     H 8235   5.427   9.077   2.278 -1.1740  0.7924  1.5963
   62MOL0     O 8236   5.294   5.132   9.243 -0.7557  0.3457  0.1010
   62MOL0     C 8237   5.346   5.025   9.215 -1.4321  0.4055  0.1664
   62MOL0     O 8238   5.324   4.960   9.097  0.3036 -0.4471  0.5912
   62MOL0     C 8239   5.267   5.031   8.997  0.1392  0.8177  0.1842
   62MOL0     C 8240   5.351   5.115   8.934 -0.0535 -0.1447 -0.4176
   62MOL0     C 8241   5.318   5.163   8.806 -0.0178 -0.7087 -0.2189
   62MOL0     C 8242   5.193   5.124   8.748  0.4311 -0.2866 -0.0588
   62MOL0     O 8243   5.134   5.163   8.627 -0.4259  0.1514  0.6321
   62MOL0     C 8244   5.209   5.240   8.528  0.3670  0.5780  0.0112
   62MOL0     C 8245   5.123   5.344   8.473  0.2440  0.5968  0.6370
   62MOL0     C 8246   4.975   5.314   8.435 -0.3194  0.2342  0.8136
   62MOL0     C 8247   4.899   5.431   8.364  0.4771 -0.3636  0.2580
   62MOL0     C 8248   4.873   5.547   8.465  0.2721  0.0302 -0.0918
   62MOL0     C 8249   4.792   5.503   8.593 -0.0296  0.7304  0.2015
   62MOL0     C 8250   4.649   5.436   8.584  0.1013  0.2035  0.1248
   62MOL0     C 8251   4.600   5.414   8.723  1.1174  0.6911 -0.6755
   62MOL0     N 8252   4.456   5.370   8.740  0.3974 -0.2686  0.7115
   62MOL0     C 8253   4.420   5.231   8.745  0.0658  0.1695  0.4990
   62MOL0     C 8254   4.332   5.211   8.838  0.5226 -0.3365 -0.7840
   62MOL0     C 8255   4.285   5.075   8.880 -1.1184  0.3677  0.5379
   62MOL0     C 8256   4.319   5.030   9.023 -0.5552 -0.2080  0.6879
   62MOL0     C 8257   4.268   5.132   9.135  0.0527 -0.1160 -0.1142
   62MOL0     C 8258   4.125   5.176   9.133  0.5341  0.7375  0.9529
   62MOL0     O 8259   4.040   5.060   9.133  0.4143 -0.2097 -0.0817
   62MOL0     C 8260   4.017   4.989   9.251  0.0012 -0.1531 -0.0740
   62MOL0     C 8261   4.035   4.855   9.261  0.2046 -0.2890 -0.5412
   62MOL0     C 8262   4.024   4.774   9.376  0.2032  0.3365  1.0277
   62MOL0     C 8263   4.020   4.623   9.357  0.7363 -0.0734  0.1236
   62MOL0     C 8264   3.992   4.843   9.499 -0.1179  0.3362 -0.1920
   62MOL0     C 8265   3.979   4.786   9.633 -0.6783  0.3626  0.2398
   62MOL0     O 8266   3.938   4.869   9.731  0.7693 -0.1551  0.0869
   62MOL0     C 8267   3.997   4.849   9.857 -0.4616 -0.5877 -0.0190
   62MOL0     C 8268   4.132   4.803   9.873 -0.5904  0.5347  0.4175
   62MOL0     C 8269   4.187   4.809  10.004 -0.7308 -0.5030 -0.1586
   62MOL0     C 8270   4.111   4.855  10.110 -0.7187  0.6485 -1.9630
   62MOL0     O 8271   4.152   4.824  10.240 -0.5556  0.3080 -0.2710
   62MOL0     C 8272   4.091   4.885  10.355  0.0867 -0.3114 -0.5884
   62MOL0     C 8273   4.196   4.972  10.446  0.7043 -0.0349 -0.3616
   62MOL0     C 8274   4.337   4.912  10.455 -0.3864 -0.6781 -0.4296
   62MOL0     C 8275   4.434   4.983  10.552 -0.2038 -0.6267 -0.3522
   62MOL0     C 8276   4.569   4.913  10.569 -0.3618  0.3225 -0.3670
   62MOL0     C 8277   4.567   4.779  10.654  0.2450  0.1551  0.2840
   62MOL0     C 8278   4.510   4.788  10.790 -1.1467 -0.4818 -0.4358
   62MOL0     C 8279   4.627   4.797  10.883 -0.1205  0.1158 -0.0664
   62MOL0    Cl 8280   4.698   4.963  10.904  0.0156 -0.0019  0.0865
   62MOL0     C 8281   3.975   4.905  10.094 -0.2161  0.3270  0.3486
   62MOL0     C 8282   3.926   4.902   9.967  0.4307  0.2436 -0.2885
   62MOL0     O 8283   4.013   4.671   9.649 -0.2728 -0.1896  0.4335
   62MOL0     C 8284   3.966   4.986   9.486 -0.6660  0.2593 -1.1623
   62MOL0     C 8285   3.986   5.052   9.365  0.7394 -0.1350  0.8361
   62MOL0     N 8286   4.307   5.338   8.884  0.1986 -0.1651  0.9836
   62MOL0     N 8287   4.381   5.422   8.832  0.2287 -1.2378  0.4791
   62MOL0     C 8288   5.101   5.047   8.827  0.1940  0.5924  0.0101
   62MOL0     C 8289   5.135   5.012   8.954 -0.3095  0.3588 -0.9346
   62MOL0     C 8290   5.431   4.960   9.316 -0.6350 -0.4002  1.1743
   62MOL0     C 8291   5.453   5.005   9.445  0.7181 -0.1454  0.0329
   62MOL0     C 8292   5.552   4.954   9.524 -0.7921 -0.1714  0.6408
   62MOL0     C 8293   5.635   4.849   9.482  1.0314 -0.5924  0.6456
   62MOL0     O 8294   5.739   4.814   9.563  0.2346 -0.5242 -0.1217
   62MOL0     C 8295   5.806   4.691   9.552 -0.6815  0.1630  0.0197
   62MOL0     C 8296   5.918   4.707   9.656 -0.1334  0.1341  0.4758
   62MOL0     C 8297   5.988   4.567   9.682  0.1314 -1.6006  0.2777
   62MOL0     C 8298   6.100   4.546   9.578  1.5309  0.3805 -0.0737
   62MOL0     C 8299   6.160   4.415   9.579 -0.5089 -0.0386  0.3513
   62MOL0     C 8300   6.184   4.300   9.607 -0.3897  0.4760  0.9763
   62MOL0     C 8301   5.624   4.804   9.348 -0.7048  0.3939  0.3565
   62MOL0     C 8302   5.517   4.859   9.271  0.4772 -0.4011 -0.0265
   62MOL0     H 8303   5.447   5.140   8.978 -0.3373 -0.4214  0.3768
   62MOL0     H 8304   5.382   5.232   8.751 -0.2153 -0.5431 -0.2422
   62MOL0     H 8305   5.306   5.270   8.569  0.9797 -0.6240 -0.5043
   62MOL0     H 8306   5.235   5.172   8.446 -1.4157 -1.2232  0.8619
   62MOL0     H 8307   5.119   5.414   8.557 -2.4466 -1.0008  1.9570
   62MOL0     H 8308   5.163   5.400   8.388  3.2588  0.6229  1.9267
   62MOL0     H 8309   4.983   5.233   8.362 -0.9096 -1.9397  3.0532
   62MOL0     H 8310   4.927   5.261   8.517  1.5222 -0.9388  1.1974
   62MOL0     H 8311   4.966   5.463   8.284  0.0028 -2.7627 -1.2001
   62MOL0     H 8312   4.807   5.386   8.326  0.7573 -1.0709  0.3896
   62MOL0     H 8313   4.969   5.584   8.502  1.2958  0.0839 -2.5685
   62MOL0     H 8314   4.824   5.628   8.409 -0.4030  1.5293  2.5210
   62MOL0     H 8315   4.857   5.431   8.644 -0.5195  0.4403  0.4250
   62MOL0     H 8316   4.776   5.586   8.662 -3.7726  1.2013 -0.9911
   62MOL0     H 8317   4.576   5.498   8.530 -2.7151 -4.7891 -2.5697
   62MOL0     H 8318   4.648   5.341   8.529  0.0182 -1.0517  2.1971
   62MOL0     H 8319   4.606   5.504   8.785  0.3235 -0.8307  1.7520
   62MOL0     H 8320   4.665   5.331   8.753 -2.4399 -1.9450  0.4674
   62MOL0     H 8321   4.446   5.162   8.665 -1.2226  1.0229 -0.6936
   62MOL0     H 8322   4.179   5.054   8.861 -0.8467 -0.4439 -0.1081
   62MOL0     H 8323   4.350   5.011   8.820  1.7554  0.9120  2.8277
   62MOL0     H 8324   4.425   5.009   9.034 -0.3914 -0.1730 -0.6092
   62MOL0     H 8325   4.274   4.932   9.039 -2.0939  0.3744  0.1706
   62MOL0     H 8326   4.325   5.224   9.122  0.9131 -0.6002  0.1461
   62MOL0     H 8327   4.282   5.090   9.235  0.6206 -0.6009 -0.3888
   62MOL0     H 8328   4.101   5.230   9.042  0.0251 -0.6318  0.2412
   62MOL0     H 8329   4.118   5.237   9.223  0.6018  0.2024  1.3289
   62MOL0     H 8330   4.060   4.810   9.165 -1.5206  0.2971 -1.3163
   62MOL0     H 8331   4.030   4.607   9.249  0.8366  4.9271 -0.8531
   62MOL0     H 8332   4.107   4.586   9.411  1.1456 -0.2442 -0.6332
   62MOL0     H 8333   3.919   4.590   9.385  0.4399  0.6759 -0.0265
   62MOL0     H 8334   4.204   4.768   9.800  2.3550 -1.1156  3.8085
   62MOL0     H 8335   4.291   4.788  10.026 -0.4040  0.8436 -0.3118
   62MOL0     H 8336   4.011   4.956  10.333  0.5517  0.5544  0.4396
   62MOL0     H 8337   4.048   4.801  10.410 -1.4145  2.1638  2.2804
   62MOL0     H 8338   4.193   5.075  10.410 -0.3731  0.1911  0.3290
   62MOL0     H 8339   4.165   4.981  10.551 -1.0127  1.2673 -0.9484
   62MOL0     H 8340   4.379   4.914  10.354  1.0866 -0.1346  0.1684
   62MOL0     H 8341   4.308   4.809  10.479 -3.2026  0.5327  2.0679
   62MOL0     H 8342   4.454   5.081  10.507 -1.9758  1.8731  3.7870
   62MOL0     H 8343   4.384   5.016  10.643  1.4605  0.2278  0.2849
   62MOL0     H 8344   4.638   4.974  10.628 -0.8161  1.6781 -1.2017
   62MOL0     H 8345   4.616   4.895  10.472 -0.4863 -0.2173 -0.3324
   62MOL0     H 8346   4.506   4.714  10.590 -1.1543  1.2706  0.4407
   62MOL0     H 8347   4.668   4.737  10.646 -0.0622 -0.5544  0.1069
   62MOL0     H 8348   4.449   4.701  10.818 -2.3118  0.6533  0.6899
   62MOL0     H 8349   4.453   4.879  10.809  1.2150  0.4344  3.1336
   62MOL0     H 8350   4.697   4.719  10.852 -2.9244 -2.6443  0.1295
   62MOL0     H 8351   4.594   4.754  10.978  1.4952 -1.0251  0.0025
   62MOL0     H 8352   3.914   4.939  10.177  1.3069  1.1667  1.1707
   62MOL0     H 8353   3.826   4.932   9.939  1.0145  2.2186 -0.4700
   62MOL0     H 8354   3.948   5.050   9.572  1.6948 -1.4655  0.7804
   62MOL0     H 8355   3.974   5.160   9.366  1.0463 -0.0463 -1.0522
   62MOL0     H 8356   5.011   5.013   8.777  0.7938 -0.0122 -0.6791
   62MOL0     H 8357   5.058   4.968   9.017 -0.3868  0.6311 -0.8369
   62MOL0     H 8358   5.410   5.090   9.495 -1.7620 -2.3927  2.0346
   62MOL0     H 8359   5.567   5.004   9.619 -0.2643 -1.5868  1.3336
   62MOL0     H 8360   5.742   4.605   9.576 -0.5247 -0.4562 -1.6581
   62MOL0     H 8361   5.847   4.677   9.452  1.0326 -1.3095  0.8678
   62MOL0     H 8362   5.878   4.746   9.750  0.5196  0.4693  0.6216
   62MOL0     H 8363   5.990   4.774   9.609  2.6139 -2.1887  1.0919
   62MOL0     H 8364   5.906   4.495   9.678 -1.1649 -0.1085 -1.0325
   62MOL0     H 8365   6.037   4.571   9.781 -1.1243  0.7760  0.8832
   62MOL0     H 8366   6.175   4.623   9.596  0.4210  1.4834  0.0008
   62MOL0     H 8367   6.066   4.555   9.474  1.4890  1.4154  0.0263
   62MOL0     H 8368   6.204   4.196   9.616 -0.8657 -0.3051 -4.0130
   62MOL0     H 8369   5.683   4.721   9.310 -2.5907 -1.6925  1.7570
   62MOL0     H 8370   5.505   4.826   9.168 -3.2101 -1.3088  0.5593
   63MOL0     O 8371   8.225  10.756   8.218  0.2762 -0.1226 -0.2324
   63MOL0     C 8372   8.346  10.784   8.244  0.5498 -0.2731 -0.3544
   63MOL0     O 8373   8.391  10.904   8.300  0.4416  0.2277 -0.4142
   63MOL0     C 8374   8.292  11.003   8.323 -0.6118  0.7892  0.3662
   63MOL0     C 8375   8.222  10.984   8.444  0.0749  1.0567  1.1116
   63MOL0     C 8376   8.129  11.077   8.491 -1.3357 -0.0818 -0.2600
   63MOL0     C 8377   8.105  11.199   8.422  0.6752 -1.0323  0.7086
   63MOL0     O 8378   8.018  11.296   8.475  0.0841 -0.2037  0.1945
   63MOL0     C 8379   8.003  11.308   8.617 -0.1974 -0.0035 -0.1811
   63MOL0     C 8380   7.977  11.456   8.661  0.2916 -0.6643  0.2006
   63MOL0     C 8381   7.832  11.506   8.641  0.0998 -0.1498 -0.2170
   63MOL0     C 8382   7.813  11.664   8.655 -0.1258  0.5652 -0.5195
   63MOL0     C 8383   7.670  11.691   8.602 -0.1599 -0.0566 -0.2961
   63MOL0     C 8384   7.632  11.834   8.584  0.1258  0.1616 -0.4836
   63MOL0     C 8385   7.650  11.911   8.722 -0.1394 -0.7869 -0.1744
   63MOL0     C 8386   7.579  12.049   8.722  0.2299 -0.0738  0.7342
   63MOL0     N 8387   7.433  12.033   8.730 -0.4307 -0.0200  0.0221
   63MOL0     C 8388   7.346  12.133   8.687  0.9651  0.6208 -0.2318
   63MOL0     C 8389   7.226  12.097   8.746 -0.0613 -0.0207  0.4483
   63MOL0     C 8390   7.092  12.163   8.737 -0.1454 -0.1481  0.1444
   63MOL0     C 8391   7.097  12.308   8.765 -0.2878  0.7165 -1.0022
   63MOL0     C 8392   6.975  12.388   8.703 -0.6248 -0.5791  0.1497
   63MOL0     C 8393   6.973  12.520   8.782  0.6132  0.1790  0.7429
   63MOL0     O 8394   6.894  12.507   8.900  0.1859 -1.0825 -0.1014
   63MOL0     C 8395   6.815  12.602   8.951  0.5825 -0.2188 -0.3442
   63MOL0     C 8396   6.816  12.744   8.919 -0.5504  1.1957 -0.5502
   63MOL0     C 8397   6.733  12.839   8.977  0.1267 -1.1401 -0.4791
   63MOL0     C 8398   6.769  12.981   8.956 -0.1125 -0.6687 -0.0086
   63MOL0     C 8399   6.653  12.795   9.095 -0.3785  1.0336 -0.2867
   63MOL0     C 8400   6.595  12.886   9.194  0.0297 -0.4654  0.1135
   63MOL0     O 8401   6.560  12.831   9.313 -0.9888 -0.2043 -0.4561
   63MOL0     C 8402   6.494  12.898   9.412  0.1412 -0.3204 -0.0940
   63MOL0     C 8403   6.527  13.030   9.450 -0.5007  0.3519 -0.3602
   63MOL0     C 8404   6.465  13.097   9.557  0.3710  0.2469 -0.5112
   63MOL0     C 8405   6.360  13.029   9.634 -0.3622  0.1397  0.4985
   63MOL0     O 8406   6.295  13.088   9.730 -0.0837  0.7480  0.6129
   63MOL0     C 8407   6.339  13.051   9.857 -0.3203  0.0103 -0.4288
   63MOL0     C 8408   6.237  13.114   9.959 -0.6200 -0.0572 -0.3771
   63MOL0     C 8409   6.111  13.031   9.968 -0.3335 -1.0601  0.1119
   63MOL0     C 8410   6.111  12.889  10.027  0.0347 -0.0809  0.4654
   63MOL0     C 8411   5.965  12.847  10.055 -1.2008 -0.3912 -0.2357
   63MOL0     C 8412   5.971  12.728  10.157  0.5850  0.7336  0.1019
   63MOL0     C 8413   5.840  12.654  10.163 -0.3127  1.1497 -0.0658
   63MOL0     C 8414   5.817  12.571  10.296 -0.6485 -0.0680  0.1656
   63MOL0    Cl 8415   5.641  12.533  10.347 -0.0824  0.2336  0.1861
   63MOL0     C 8416   6.320  12.904   9.593 -0.0628  1.2680  0.0632
   63MOL0     C 8417   6.392  12.834   9.485 -0.1148  0.2925 -0.0642
   63MOL0     O 8418   6.578  13.010   9.162 -0.4354 -0.2521 -0.1607
   63MOL0     C 8419   6.661  12.660   9.125  0.1086  0.4517  0.1827
   63MOL0     C 8420   6.733  12.561   9.052  0.1744 -0.0403 -0.2755
   63MOL0     N 8421   7.246  11.992   8.830 -0.8386  0.3926  0.3054
   63MOL0     N 8422   7.363  11.953   8.812  0.7527  1.3188  0.0851
   63MOL0     C 8423   8.187  11.228   8.307 -0.4915 -0.6513 -0.5201
   63MOL0     C 8424   8.278  11.124   8.260  0.6427 -0.0770  0.3708
   63MOL0     C 8425   8.445  10.681   8.224 -0.0086  0.7007 -0.1989
   63MOL0     C 8426   8.438  10.584   8.128  0.6056  0.2390  0.3612
   63MOL0     C 8427   8.545  10.492   8.107  0.6471 -0.4858  0.9121
   63MOL0     C 8428   8.654  10.492   8.196 -0.6159  1.0463  0.1912
   63MOL0     O 8429   8.760  10.403   8.190  0.5966  0.6359 -0.4708
   63MOL0     C 8430   8.758  10.304   8.090  0.1555  0.9095  0.8564
   63MOL0     C 8431   8.875  10.211   8.092 -0.3923  0.6514  0.1233
   63MOL0     C 8432   8.875  10.103   8.201 -1.1344 -1.0063 -0.1214
   63MOL0     C 8433   9.014  10.054   8.245 -1.0212 -0.3418 -1.1393
   63MOL0     C 8434   9.080   9.968   8.148 -1.8132  0.3314  0.6699
   63MOL0     C 8435   9.120   9.881   8.074  0.7139 -0.4922 -0.4534
   63MOL0     C 8436   8.661  10.586   8.295 -0.2720 -0.1666 -0.8654
   63MOL0     C 8437   8.563  10.681   8.301 -0.5236  0.3164 -0.1537
   63MOL0     H 8438   8.235  10.895   8.505  2.6015 -0.6089 -1.6116
   63MOL0     H 8439   8.071  11.056   8.580  1.3215  0.4056  1.6970
   63MOL0     H 8440   7.928  11.234   8.648  0.3875  0.0033  1.3157
   63MOL0     H 8441   8.100  11.283   8.660 -0.7200 -2.0781 -0.0991
   63MOL0     H 8442   8.015  11.450   8.764  2.3711 -1.4020 -0.5546
   63MOL0     H 8443   8.047  11.527   8.616 -1.6722  2.2359  1.4472
   63MOL0     H 8444   7.804  11.494   8.536 -2.4897 -2.4783  0.6218
   63MOL0     H 8445   7.764  11.449   8.705 -1.4471  1.6872 -0.1615
   63MOL0     H 8446   7.828  11.683   8.761  0.4046 -2.4587  0.0378
   63MOL0     H 8447   7.890  11.720   8.601 -0.3532  0.0158 -1.4541
   63MOL0     H 8448   7.653  11.638   8.508 -2.9334 -0.4397  0.3350
   63MOL0     H 8449   7.596  11.656   8.674 -0.1339  1.7254  0.6565
   63MOL0     H 8450   7.701  11.871   8.507  2.0270  0.0474  1.0807
   63MOL0     H 8451   7.528  11.829   8.550 -0.3770  0.0567  1.0083
   63MOL0     H 8452   7.600  11.854   8.801 -1.5978  3.4212  2.2503
   63MOL0     H 8453   7.751  11.941   8.750 -1.4507  1.9595  2.0116
   63MOL0     H 8454   7.618  12.105   8.636 -0.0470 -2.5702 -1.1169
   63MOL0     H 8455   7.603  12.100   8.816 -2.2640  1.6372  0.5467
   63MOL0     H 8456   7.363  12.218   8.622 -2.0817  3.7019  2.5703
   63MOL0     H 8457   7.052  12.126   8.643  1.6746 -2.6956  0.2661
   63MOL0     H 8458   7.023  12.129   8.815 -0.9440 -2.0478 -1.3178
   63MOL0     H 8459   7.189  12.349   8.722  0.2734  0.9713  0.3997
   63MOL0     H 8460   7.102  12.321   8.873  0.8066  0.5857 -1.0334
   63MOL0     H 8461   6.882  12.335   8.727 -1.0443 -1.7130 -3.3918
   63MOL0     H 8462   6.974  12.410   8.596  0.9126  0.7743  0.3706
   63MOL0     H 8463   6.929  12.594   8.714  1.1497  0.3937  0.6291
   63MOL0     H 8464   7.074  12.548   8.811 -1.1216  5.0535  3.1891
   63MOL0     H 8465   6.885  12.784   8.845  0.5578  1.2861  0.5136
   63MOL0     H 8466   6.674  13.032   8.935 -0.3508  0.0701  2.6050
   63MOL0     H 8467   6.816  13.037   9.038 -1.2935  0.3447  0.0134
   63MOL0     H 8468   6.828  12.997   8.865 -1.2800  1.3933 -0.4773
   63MOL0     H 8469   6.609  13.090   9.414 -0.0093  0.3602  0.7187
   63MOL0     H 8470   6.504  13.194   9.585  0.4935 -0.0963  0.5218
   63MOL0     H 8471   6.340  12.943   9.868 -0.8540 -0.1208 -1.5244
   63MOL0     H 8472   6.437  13.099   9.862  0.8545 -1.9998 -2.6369
   63MOL0     H 8473   6.273  13.110  10.062  0.7868  2.4532 -0.6906
   63MOL0     H 8474   6.216  13.214   9.921  2.5712  0.1873 -1.8921
   63MOL0     H 8475   6.076  13.036   9.864  0.9890  1.6129 -0.2975
   63MOL0     H 8476   6.057  13.098  10.035 -0.1642 -1.6876  0.8847
   63MOL0     H 8477   6.154  12.814   9.960 -2.0840 -0.5616 -0.4490
   63MOL0     H 8478   6.175  12.882  10.116  0.3719 -1.2950  0.1452
   63MOL0     H 8479   5.928  12.821   9.956 -1.1777  3.2895 -1.3434
   63MOL0     H 8480   5.903  12.927  10.096 -2.3683 -1.5590  0.3677
   63MOL0     H 8481   6.056  12.663  10.135 -0.5261 -1.1039  0.9776
   63MOL0     H 8482   5.988  12.778  10.253  1.5036 -0.4542  0.5696
   63MOL0     H 8483   5.830  12.598  10.070 -0.6179 -0.6524  1.0127
   63MOL0     H 8484   5.770  12.739  10.161  3.3814  4.5375  1.1668
   63MOL0     H 8485   5.869  12.632  10.370  0.9592  0.0165 -0.9673
   63MOL0     H 8486   5.872  12.478  10.279 -0.5252 -0.2303  1.4236
   63MOL0     H 8487   6.259  12.830   9.643  1.5455  0.4266  0.8838
   63MOL0     H 8488   6.387  12.728   9.461 -1.9480  0.3738 -0.1564
   63MOL0     H 8489   6.604  12.636   9.214  2.2992  3.3916  2.5934
   63MOL0     H 8490   6.709  12.460   9.085  1.3921 -0.4379 -0.5686
   63MOL0     H 8491   8.176  11.322   8.255 -0.0690 -0.9511 -1.1638
   63MOL0     H 8492   8.343  11.140   8.174  3.8620 -2.2392  2.1732
   63MOL0     H 8493   8.348  10.580   8.068  2.7825 -0.1438 -3.1976
   63MOL0     H 8494   8.545  10.428   8.019 -2.5443  2.1193 -1.2250
   63MOL0     H 8495   8.669  10.241   8.100 -1.5756  2.6271 -2.1515
   63MOL0     H 8496   8.753  10.342   7.988  0.9963 -3.7922 -1.1840
   63MOL0     H 8497   8.970  10.266   8.090 -0.3393  0.5791  0.5374
   63MOL0     H 8498   8.883  10.169   7.991 -0.5060  0.8730  0.0229
   63MOL0     H 8499   8.807  10.022   8.173 -3.0001  1.3690 -3.0942
   63MOL0     H 8500   8.825  10.159   8.282  1.9518  0.9158  0.6269
   63MOL0     H 8501   8.991  10.000   8.337 -1.4451 -1.2919 -1.7773
   63MOL0     H 8502   9.078  10.138   8.271 -2.2943  0.4445 -0.4094
   63MOL0     H 8503   9.150   9.797   8.015 -0.0778  0.8140 -2.8585
   63MOL0     H 8504   8.738  10.570   8.370  0.4020 -2.8885 -2.0294
   63MOL0     H 8505   8.567  10.751   8.384 -0.3820 -1.0596  1.0427
   64MOL0     O 8506   3.371   8.492   7.113 -0.3742 -0.6400 -0.7020
   64MOL0     C 8507   3.347   8.563   7.014 -0.0562  0.5025  1.1594
   64MOL0     O 8508   3.244   8.545   6.936 -0.4234 -0.6908 -0.6375
   64MOL0     C 8509   3.142   8.456   6.972  0.1648  0.8515 -0.5238
   64MOL0     C 8510   3.154   8.320   7.007 -0.8055  0.8197  0.3914
   64MOL0     C 8511   3.042   8.244   7.044 -0.0520 -0.1930 -0.4141
   64MOL0     C 8512   2.913   8.299   7.043  0.3862  1.4304  0.6065
   64MOL0     O 8513   2.805   8.211   7.079 -0.6452  0.0861 -0.5622
   64MOL0     C 8514   2.777   8.108   6.983  0.0267  0.3104  0.3542
   64MOL0     C 8515   2.650   8.027   7.021  0.9980 -0.5270 -0.1324
   64MOL0     C 8516   2.550   8.103   7.104 -0.0478 -0.0063 -0.4103
   64MOL0     C 8517   2.418   8.025   7.133  0.2129 -0.1974  0.6204
   64MOL0     C 8518   2.334   8.079   7.251  0.1056 -0.4795 -0.6558
   64MOL0     C 8519   2.245   7.958   7.283 -0.4870  0.4364  0.0383
   64MOL0     C 8520   2.127   7.996   7.365 -0.1637 -1.2842  1.1464
   64MOL0     C 8521   2.135   7.991   7.520  0.5431 -0.5142  0.3029
   64MOL0     N 8522   2.115   7.859   7.585  0.1802 -0.2943 -0.1616
   64MOL0     C 8523   2.200   7.788   7.673 -0.7570  0.2131  0.1910
   64MOL0     C 8524   2.130   7.684   7.712  0.4704  0.3969 -0.0141
   64MOL0     C 8525   2.178   7.581   7.804 -0.0367  0.0099  0.3608
   64MOL0     C 8526   2.074   7.467   7.823 -0.7064  0.1258  0.6748
   64MOL0     C 8527   2.105   7.359   7.716  0.0349  0.1052 -0.4427
   64MOL0     C 8528   2.061   7.226   7.757  0.0279  0.4167  1.6508
   64MOL0     O 8529   2.134   7.153   7.852  0.2191 -0.0318 -0.1130
   64MOL0     C 8530   2.253   7.087   7.827 -0.3205 -1.0710 -0.0320
   64MOL0     C 8531   2.310   7.068   7.703  0.1597  0.0448  0.1635
   64MOL0     C 8532   2.429   6.990   7.676 -0.1032 -0.2877 -0.7657
   64MOL0     C 8533   2.477   7.018   7.536  0.4086 -0.2169  0.2549
   64MOL0     C 8534   2.500   6.937   7.790 -0.4822  0.2546 -1.3393
   64MOL0     C 8535   2.640   6.887   7.791  0.5150  0.6146  0.8097
   64MOL0     O 8536   2.684   6.831   7.672 -0.6610 -0.3848 -0.9887
   64MOL0     C 8537   2.815   6.808   7.663 -0.1269 -0.2182  0.8184
   64MOL0     C 8538   2.911   6.917   7.682  0.0162 -0.3118 -0.4460
   64MOL0     C 8539   3.044   6.895   7.663 -0.5663  0.0702  0.2937
   64MOL0     C 8540   3.095   6.769   7.621  0.8016  0.8479 -0.2035
   64MOL0     O 8541   3.231   6.743   7.602  0.1050 -0.0108 -0.2783
   64MOL0     C 8542   3.293   6.807   7.495  0.2337 -0.1445 -0.6054
   64MOL0     C 8543   3.421   6.725   7.454 -0.3866 -0.5241 -0.7463
   64MOL0     C 8544   3.463   6.764   7.314 -0.3687 -0.7886  0.0152
   64MOL0     C 8545   3.577   6.690   7.265  0.2576  0.0591  0.6283
   64MOL0     C 8546   3.639   6.764   7.146 -0.6206 -0.1975 -0.3407
   64MOL0     C 8547   3.719   6.893   7.178 -0.8851 -0.8713 -0.1489
   64MOL0     C 8548   3.808   6.933   7.057 -0.4304 -0.0804  0.0406
   64MOL0     C 8549   3.894   7.046   7.082 -1.2864 -0.3733 -0.1209
   64MOL0    Cl 8550   3.810   7.193   7.127 -0.4249 -0.3312 -0.4124
   64MOL0     C 8551   2.993   6.667   7.607 -0.6565  0.5923  0.1594
   64MOL0     C 8552   2.857   6.683   7.615  0.4156  0.7466  0.7607
   64MOL0     O 8553   2.700   6.892   7.902  1.0076  0.2625  0.3593
   64MOL0     C 8554   2.432   6.946   7.923  0.5663 -0.7838  0.6806
   64MOL0     C 8555   2.323   7.030   7.937  0.4309 -0.8486 -0.6307
   64MOL0     N 8556   2.014   7.674   7.630  0.1368  0.6017  0.5821
   64MOL0     N 8557   2.003   7.780   7.563  0.4992  0.0169 -0.0581
   64MOL0     C 8558   2.900   8.437   7.010 -0.0726  0.5323 -0.2039
   64MOL0     C 8559   3.014   8.518   6.972 -0.3734 -0.5816  0.0147
   64MOL0     C 8560   3.458   8.651   6.967 -0.7291 -0.2101  0.2582
   64MOL0     C 8561   3.461   8.740   6.858  0.4952  0.1518 -0.8018
   64MOL0     C 8562   3.568   8.811   6.819 -0.2434 -1.2782  0.4247
   64MOL0     C 8563   3.684   8.815   6.896  0.1420 -0.4929 -0.4638
   64MOL0     O 8564   3.793   8.891   6.857 -0.1788 -0.0105  0.2140
   64MOL0     C 8565   3.756   9.036   6.829  0.5855  0.3937  0.6274
   64MOL0     C 8566   3.881   9.096   6.778 -0.2220 -0.1315  0.2661
   64MOL0     C 8567   3.877   9.249   6.747  0.8236 -0.5545  1.3607
   64MOL0     C 8568   3.772   9.304   6.646 -0.5154 -0.1267  0.2806
   64MOL0     C 8569   3.727   9.213   6.538 -0.7899  0.2521  0.0341
   64MOL0     C 8570   3.686   9.142   6.451 -0.4269 -0.1277 -0.6607
   64MOL0     C 8571   3.683   8.738   7.012  0.1125 -0.1402  0.6588
   64MOL0     C 8572   3.577   8.658   7.044  0.1809  0.6522 -0.5743
   64MOL0     H 8573   3.257   8.284   7.007 -0.6649  1.1991  1.1738
   64MOL0     H 8574   3.054   8.141   7.078 -0.1801 -0.5059 -1.3086
   64MOL0     H 8575   2.759   8.162   6.889  2.2218  2.1425  0.9138
   64MOL0     H 8576   2.860   8.038   6.974  2.8825  3.6419 -2.0643
   64MOL0     H 8577   2.602   7.992   6.930 -1.4085 -0.8226  1.1635
   64MOL0     H 8578   2.691   7.943   7.078 -0.5074 -1.7188 -0.7369
   64MOL0     H 8579   2.597   8.115   7.202  1.7236 -1.6417 -1.0115
   64MOL0     H 8580   2.519   8.196   7.055 -0.3108  0.1801  0.0983
   64MOL0     H 8581   2.357   8.025   7.042  0.1435 -1.2068  0.6510
   64MOL0     H 8582   2.437   7.921   7.161 -0.6494 -0.4980  0.1419
   64MOL0     H 8583   2.396   8.123   7.330  0.5493  0.2099 -1.3686
   64MOL0     H 8584   2.270   8.161   7.217 -0.7789 -0.1495  1.6373
   64MOL0     H 8585   2.219   7.914   7.186  1.1301 -1.0193  0.2143
   64MOL0     H 8586   2.300   7.878   7.333 -2.1094 -0.5063  0.4025
   64MOL0     H 8587   2.077   8.086   7.329  1.0140 -2.1337 -3.3452
   64MOL0     H 8588   2.055   7.918   7.338  1.0513 -2.1244  0.1451
   64MOL0     H 8589   2.051   8.052   7.554  0.3981  0.5035 -1.6973
   64MOL0     H 8590   2.226   8.041   7.554 -0.7060  2.7117 -0.7044
   64MOL0     H 8591   2.303   7.811   7.698 -0.4681 -1.3721  0.5917
   64MOL0     H 8592   2.274   7.551   7.760 -0.6249  1.1081 -1.8191
   64MOL0     H 8593   2.197   7.623   7.904 -2.0109 -2.1103  1.7089
   64MOL0     H 8594   1.969   7.497   7.822 -1.0420 -1.0049  0.6661
   64MOL0     H 8595   2.090   7.429   7.924  0.1193  4.2388  2.3094
   64MOL0     H 8596   2.213   7.354   7.706  0.1307  2.3360 -1.1781
   64MOL0     H 8597   2.062   7.400   7.624 -0.5679  3.2021  1.0503
   64MOL0     H 8598   2.053   7.158   7.672  2.5915  2.9936 -0.8810
   64MOL0     H 8599   1.960   7.230   7.800 -0.7242  0.5155 -0.0684
   64MOL0     H 8600   2.266   7.105   7.612  1.7567 -0.3990 -0.8393
   64MOL0     H 8601   2.483   7.125   7.515 -1.5806  0.4227  2.5666
   64MOL0     H 8602   2.570   6.966   7.509  1.4838  2.2279 -1.0994
   64MOL0     H 8603   2.402   6.983   7.464 -1.4346 -1.6269  2.7221
   64MOL0     H 8604   2.873   7.014   7.714 -1.1704 -0.4576 -1.3398
   64MOL0     H 8605   3.120   6.971   7.677 -0.8494  0.0905  1.8009
   64MOL0     H 8606   3.226   6.816   7.410  0.5578  0.6025 -0.7913
   64MOL0     H 8607   3.319   6.911   7.519  1.7189  0.3203 -3.7711
   64MOL0     H 8608   3.503   6.755   7.520 -0.6531 -1.7925  0.2084
   64MOL0     H 8609   3.413   6.616   7.461  2.6636 -0.8073 -0.3477
   64MOL0     H 8610   3.490   6.870   7.316  1.2103 -1.1645  0.1414
   64MOL0     H 8611   3.379   6.748   7.246 -0.7277 -3.9982  1.0454
   64MOL0     H 8612   3.637   6.668   7.353  1.7156  0.1198 -0.3217
   64MOL0     H 8613   3.539   6.594   7.231 -0.1994  0.4143  0.1159
   64MOL0     H 8614   3.566   6.786   7.067 -1.6370 -2.7993 -0.2098
   64MOL0     H 8615   3.712   6.691   7.109 -0.5263 -0.8218  1.0099
   64MOL0     H 8616   3.645   6.970   7.200 -0.1537 -0.1131 -0.2753
   64MOL0     H 8617   3.786   6.870   7.261 -1.0041 -3.1876 -0.6380
   64MOL0     H 8618   3.747   6.950   6.968 -0.1646 -1.0833 -0.3527
   64MOL0     H 8619   3.869   6.842   7.044  0.6876  0.2677  2.3741
   64MOL0     H 8620   3.949   7.073   6.992  1.9810 -0.4654  1.7255
   64MOL0     H 8621   3.975   7.023   7.152  0.3455  0.7329 -1.5736
   64MOL0     H 8622   3.029   6.566   7.594  0.8368  1.3857 -2.7257
   64MOL0     H 8623   2.790   6.598   7.609  0.1884  0.9294  0.7176
   64MOL0     H 8624   2.457   6.909   8.022 -0.4582 -0.6901  0.9814
   64MOL0     H 8625   2.285   7.048   8.037  3.6832  0.3756  0.5215
   64MOL0     H 8626   2.804   8.488   7.019 -0.9177 -0.6825 -1.7991
   64MOL0     H 8627   3.004   8.623   6.945 -3.5243 -1.1686 -1.4619
   64MOL0     H 8628   3.370   8.736   6.798 -0.0079  1.5895 -0.1815
   64MOL0     H 8629   3.560   8.859   6.722 -0.2562 -0.7323  0.6887
   64MOL0     H 8630   3.676   9.040   6.755  0.7080 -1.3907  0.3569
   64MOL0     H 8631   3.712   9.086   6.916  0.1006 -1.9973  1.8257
   64MOL0     H 8632   3.919   9.032   6.698 -0.4452 -0.1925  0.2103
   64MOL0     H 8633   3.955   9.095   6.859 -3.2821  2.2730  3.4083
   64MOL0     H 8634   3.969   9.284   6.700 -0.8721  2.0238 -0.2464
   64MOL0     H 8635   3.851   9.297   6.842 -2.8562 -0.5155  0.4546
   64MOL0     H 8636   3.815   9.396   6.606  1.2928 -1.2921 -0.5796
   64MOL0     H 8637   3.679   9.327   6.700 -0.1679 -1.6618  1.5964
   64MOL0     H 8638   3.628   9.078   6.388  0.7491  0.1732 -2.0881
   64MOL0     H 8639   3.774   8.740   7.071  0.2553 -0.0137  0.4326
   64MOL0     H 8640   3.595   8.597   7.133 -2.5260 -0.9281 -0.9965
   65MOL0     O 8641  11.098   8.558   4.604 -0.0205  0.4849  0.1184
   65MOL0     C 8642  11.085   8.462   4.530 -0.5212  0.3641 -0.7122
   65MOL0     O 8643  11.103   8.331   4.571  0.0235  0.5467  0.0331
   65MOL0     C 8644  11.111   8.291   4.698 -0.2952  0.4776  0.0994
   65MOL0     C 8645  11.228   8.311   4.769 -0.6463  0.0851  0.3225
   65MOL0     C 8646  11.237   8.285   4.908  0.1428  1.4388  0.0365
   65MOL0     C 8647  11.121   8.226   4.965  0.4786  0.3361 -0.6031
   65MOL0     O 8648  11.103   8.196   5.097 -0.6925 -0.3726 -0.3818
   65MOL0     C 8649  11.171   8.269   5.202 -0.0598 -0.2755 -0.3392
   65MOL0     C 8650  11.104   8.410   5.245  0.0273  0.0776 -0.0109
   65MOL0     C 8651  11.087   8.502   5.122 -0.5517  0.9145 -0.3851
   65MOL0     C 8652  10.947   8.494   5.077  0.2467 -0.2756 -0.8168
   65MOL0     C 8653  10.945   8.581   4.950  0.2711  0.0379  0.6700
   65MOL0     C 8654  10.806   8.597   4.879  0.0634  0.0497 -0.0718
   65MOL0     C 8655  10.802   8.711   4.780  0.2220 -0.9894  0.4321
   65MOL0     C 8656  10.809   8.863   4.840  0.5044  0.8670 -0.8270
   65MOL0     N 8657  10.684   8.928   4.817  0.1132  0.2630  0.4830
   65MOL0     C 8658  10.623   8.957   4.693  0.2406 -0.1733  0.1922
   65MOL0     C 8659  10.518   9.033   4.733 -0.3614  0.3585  0.2862
   65MOL0     C 8660  10.432   9.099   4.631  0.7890 -0.8067 -0.1038
   65MOL0     C 8661  10.505   9.210   4.556  0.6283 -0.1396  0.9402
   65MOL0     C 8662  10.414   9.265   4.450  0.3944 -0.4296 -0.2846
   65MOL0     C 8663  10.472   9.368   4.356  0.8555 -1.0395 -0.6834
   65MOL0     O 8664  10.464   9.324   4.219 -0.6874  0.6020  0.0443
   65MOL0     C 8665  10.348   9.343   4.149  0.7963  0.6025  0.3101
   65MOL0     C 8666  10.352   9.350   4.008  0.8367  0.9851 -0.1555
   65MOL0     C 8667  10.236   9.357   3.934 -0.5133 -1.2516 -0.2963
   65MOL0     C 8668  10.242   9.333   3.788 -0.1767 -0.0110 -0.1594
   65MOL0     C 8669  10.110   9.385   3.998  0.2565 -0.4507 -1.2820
   65MOL0     C 8670   9.990   9.419   3.927  0.1646 -0.3608  0.1216
   65MOL0     O 8671   9.885   9.335   3.952 -0.0372 -0.0906  0.6183
   65MOL0     C 8672   9.761   9.372   3.913 -0.0896 -0.1301 -0.2896
   65MOL0     C 8673   9.685   9.470   3.988 -0.0224  0.0771 -0.3047
   65MOL0     C 8674   9.562   9.534   3.932 -0.0405  0.0741 -0.7424
   65MOL0     C 8675   9.522   9.498   3.806 -0.5557 -0.0568 -0.0095
   65MOL0     O 8676   9.413   9.547   3.732 -0.4818 -0.1962 -1.0322
   65MOL0     C 8677   9.346   9.668   3.772 -0.7695 -0.3679 -0.5079
   65MOL0     C 8678   9.205   9.670   3.727 -0.7158 -0.5015  0.8239
   65MOL0     C 8679   9.209   9.720   3.581  0.7683  0.1950  0.1726
   65MOL0     C 8680   9.092   9.816   3.557  0.7780  0.2575 -0.0085
   65MOL0     C 8681   9.083   9.865   3.413  0.0641  0.4536 -0.7869
   65MOL0     C 8682   8.940   9.913   3.384  1.0084  0.3337 -0.1699
   65MOL0     C 8683   8.905  10.047   3.458 -0.4629  1.1422 -0.6625
   65MOL0     C 8684   8.759  10.087   3.456  0.3134  0.8131 -0.3155
   65MOL0    Cl 8685   8.741  10.236   3.568  0.3211  0.2342  0.1643
   65MOL0     C 8686   9.593   9.395   3.741 -0.9177  0.0040  0.0198
   65MOL0     C 8687   9.707   9.328   3.788  0.2172  0.0916 -0.6700
   65MOL0     O 8688   9.990   9.506   3.845 -0.5926 -0.3090 -0.1320
   65MOL0     C 8689  10.107   9.383   4.144  0.2626  0.2379 -0.4561
   65MOL0     C 8690  10.219   9.360   4.215 -0.6314 -1.9248 -0.6762
   65MOL0     N 8691  10.512   9.037   4.872 -0.4754  0.4699  0.1971
   65MOL0     N 8692  10.618   8.974   4.920 -0.8506 -0.7853  0.7735
   65MOL0     C 8693  11.003   8.201   4.888 -0.1090 -0.0288 -0.4544
   65MOL0     C 8694  11.001   8.231   4.753 -0.0147  0.4440 -0.1160
   65MOL0     C 8695  11.058   8.482   4.387 -0.3491  0.6493  0.4941
   65MOL0     C 8696  11.048   8.606   4.335  0.4096  0.1506  0.4693
   65MOL0     C 8697  11.004   8.638   4.200 -0.7838  0.7522  0.0074
   65MOL0     C 8698  11.003   8.520   4.114  0.8382 -0.4886 -0.4704
   65MOL0     O 8699  10.968   8.523   3.980  0.5514  0.1115 -0.5339
   65MOL0     C 8700  10.987   8.654   3.924  0.1895  0.1575 -0.0256
   65MOL0     C 8701  10.951   8.675   3.768 -0.6189  0.0134  0.7341
   65MOL0     C 8702  11.066   8.683   3.669  0.2691  0.2278 -0.4978
   65MOL0     C 8703  11.101   8.555   3.606  0.4420  0.0603  0.3979
   65MOL0     C 8704  11.157   8.457   3.688 -0.7847  0.4192 -0.4782
   65MOL0     C 8705  11.193   8.370   3.766  1.1933 -0.1913 -0.3368
   65MOL0     C 8706  11.017   8.395   4.163 -0.0229 -0.6073  0.0514
   65MOL0     C 8707  11.051   8.374   4.294  0.1129  0.4970 -0.6524
   65MOL0     H 8708  11.305   8.342   4.699 -2.6491 -0.0355 -2.0681
   65MOL0     H 8709  11.323   8.311   4.969  0.7317  2.5718 -1.2230
   65MOL0     H 8710  11.164   8.209   5.292  4.3808  2.7921  2.4779
   65MOL0     H 8711  11.275   8.281   5.169  1.0428 -4.4855  1.0895
   65MOL0     H 8712  11.009   8.397   5.297 -0.0156 -0.1543 -0.1448
   65MOL0     H 8713  11.176   8.457   5.313  1.1469  1.4679 -2.0140
   65MOL0     H 8714  11.114   8.600   5.162 -0.7065 -0.3289  3.1747
   65MOL0     H 8715  11.151   8.470   5.039 -2.3124 -1.4141 -0.9449
   65MOL0     H 8716  10.922   8.393   5.041  0.2602 -1.5498  2.4221
   65MOL0     H 8717  10.870   8.527   5.147  3.5380  1.7139  2.1466
   65MOL0     H 8718  10.992   8.675   4.982  0.8978  0.1347 -0.4971
   65MOL0     H 8719  11.003   8.534   4.870 -0.3988 -0.3629  0.4191
   65MOL0     H 8720  10.765   8.514   4.821 -0.3227  0.5676 -0.5591
   65MOL0     H 8721  10.738   8.626   4.960  0.2867  2.2992 -0.6115
   65MOL0     H 8722  10.889   8.699   4.715  0.5244  0.8815  0.4152
   65MOL0     H 8723  10.709   8.703   4.722  0.2704 -2.8544  0.5542
   65MOL0     H 8724  10.899   8.918   4.812  0.8807 -0.5628 -2.6046
   65MOL0     H 8725  10.818   8.850   4.949  0.7580 -3.9783 -1.2123
   65MOL0     H 8726  10.653   8.943   4.590 -1.6955 -0.8065 -0.3276
   65MOL0     H 8727  10.407   9.022   4.558 -2.5916  0.5709 -0.5854
   65MOL0     H 8728  10.336   9.124   4.677  1.1585 -1.5927  1.1322
   65MOL0     H 8729  10.591   9.166   4.506 -0.9108 -1.8267 -0.3627
   65MOL0     H 8730  10.544   9.285   4.626 -0.6494 -1.1536  2.8443
   65MOL0     H 8731  10.338   9.314   4.512  2.5077  0.2455  1.9038
   65MOL0     H 8732  10.370   9.193   4.380 -1.2326 -0.1913  0.4435
   65MOL0     H 8733  10.568   9.410   4.388 -1.0485  2.3694  1.1044
   65MOL0     H 8734  10.420   9.463   4.371 -0.9690 -1.4989 -3.3448
   65MOL0     H 8735  10.447   9.330   3.960  0.6430  3.9845 -2.0280
   65MOL0     H 8736  10.190   9.419   3.744 -2.1420 -0.1553  1.7345
   65MOL0     H 8737  10.339   9.328   3.737 -0.6979  0.9506 -1.2995
   65MOL0     H 8738  10.203   9.235   3.759  1.2342 -0.4571 -0.6635
   65MOL0     H 8739   9.722   9.490   4.088  0.3240 -1.7026 -0.0447
   65MOL0     H 8740   9.505   9.596   4.000  1.5118 -0.5739  1.2462
   65MOL0     H 8741   9.355   9.673   3.881  0.1100 -0.1338 -0.5889
   65MOL0     H 8742   9.405   9.752   3.735 -0.2204  0.2823  1.6765
   65MOL0     H 8743   9.163   9.570   3.742  1.1854 -1.5953 -0.5766
   65MOL0     H 8744   9.150   9.742   3.787  0.2991  1.6228 -0.6673
   65MOL0     H 8745   9.195   9.632   3.519  1.9421  1.3427 -1.8418
   65MOL0     H 8746   9.299   9.779   3.557  2.8923 -2.8605  0.1041
   65MOL0     H 8747   8.999   9.761   3.576 -0.4453  1.5457 -1.9089
   65MOL0     H 8748   9.067   9.893   3.631 -2.0306 -1.4997  1.0493
   65MOL0     H 8749   9.105   9.781   3.347 -0.3271 -0.1507 -0.1572
   65MOL0     H 8750   9.157   9.944   3.393  0.3577  0.8414  1.4568
   65MOL0     H 8751   8.928   9.943   3.279  0.7529  1.3634  0.1414
   65MOL0     H 8752   8.874   9.829   3.407 -0.5134  0.6867 -2.8895
   65MOL0     H 8753   8.968  10.128   3.418  2.5046  1.4280  3.9112
   65MOL0     H 8754   8.925  10.029   3.564 -0.2417 -2.3247 -1.1933
   65MOL0     H 8755   8.702  10.001   3.491  1.7364 -0.5448 -1.2181
   65MOL0     H 8756   8.719  10.110   3.357 -0.2250  1.1972 -0.0138
   65MOL0     H 8757   9.551   9.370   3.644 -1.1202 -0.8325  0.3214
   65MOL0     H 8758   9.755   9.254   3.724  0.6974  0.6075 -0.9190
   65MOL0     H 8759  10.010   9.377   4.194  0.7989 -1.3536  0.4582
   65MOL0     H 8760  10.217   9.361   4.323 -1.1381 -0.4065 -0.6820
   65MOL0     H 8761  10.919   8.156   4.939 -0.1593  0.0810 -0.4410
   65MOL0     H 8762  10.914   8.214   4.691  0.1343 -1.9653  0.2336
   65MOL0     H 8763  11.058   8.697   4.393 -1.1832 -0.3456  1.5860
   65MOL0     H 8764  11.010   8.741   4.166  2.3403 -0.1322 -2.6585
   65MOL0     H 8765  10.926   8.732   3.969 -2.3520 -1.3697 -0.6523
   65MOL0     H 8766  11.094   8.675   3.932  0.8245 -2.2146 -1.3352
   65MOL0     H 8767  10.889   8.765   3.766 -0.8298 -0.1309  0.6709
   65MOL0     H 8768  10.891   8.588   3.739 -3.0213  2.1589 -1.2433
   65MOL0     H 8769  11.156   8.725   3.716 -0.6130 -2.9035  4.7541
   65MOL0     H 8770  11.039   8.755   3.591  0.1597  0.3667 -0.3313
   65MOL0     H 8771  11.171   8.561   3.522 -2.4360 -0.6476 -2.2554
   65MOL0     H 8772  11.017   8.511   3.552  0.7818  0.2873 -0.3249
   65MOL0     H 8773  11.236   8.305   3.840 -1.9712 -1.5363  0.4599
   65MOL0     H 8774  11.007   8.313   4.093  0.4456  0.8872 -1.8563
   65MOL0     H 8775  11.055   8.271   4.328  0.7878  0.9575  0.7082
   66MOL0     O 8776   0.575   4.715   2.473 -0.5171 -0.4621  0.5361
   66MOL0     C 8777   0.587   4.730   2.598 -0.8566  0.6230 -0.8461
   66MOL0     O 8778   0.614   4.844   2.664 -0.4617  1.1677  0.2713
   66MOL0     C 8779   0.621   4.956   2.589 -0.3682 -0.0687  0.5622
   66MOL0     C 8780   0.733   4.972   2.507  0.0995 -0.7597 -0.2572
   66MOL0     C 8781   0.760   5.092   2.445  0.2130 -0.0750 -0.4698
   66MOL0     C 8782   0.666   5.199   2.455 -0.2472 -0.0136  0.7842
   66MOL0     O 8783   0.679   5.298   2.372  0.3149  0.4902  1.1909
   66MOL0     C 8784   0.623   5.277   2.238  0.5057  0.2483  0.1856
   66MOL0     C 8785   0.581   5.413   2.162 -0.0597  0.7182  0.4801
   66MOL0     C 8786   0.527   5.384   2.013 -0.8288 -0.2667  0.4145
   66MOL0     C 8787   0.425   5.496   1.985  0.8732 -0.1343  0.0569
   66MOL0     C 8788   0.492   5.635   1.970 -0.2282 -0.9837 -0.4734
   66MOL0     C 8789   0.415   5.731   1.879  0.8549 -0.0905  1.2723
   66MOL0     C 8790   0.498   5.860   1.857 -0.1653 -0.1118  0.6932
   66MOL0     C 8791   0.405   5.974   1.818  0.5542 -0.2010 -0.5664
   66MOL0     N 8792   0.344   5.962   1.685 -0.7662  0.1891  0.1143
   66MOL0     C 8793   0.375   6.040   1.574  1.2593  0.0512 -0.6291
   66MOL0     C 8794   0.298   6.009   1.476  0.5304 -0.1827 -0.1918
   66MOL0     C 8795   0.256   6.089   1.349 -0.7213 -0.3452 -0.8026
   66MOL0     C 8796   0.251   6.013   1.217 -0.0651  0.8899  0.2275
   66MOL0     C 8797   0.193   6.101   1.103 -0.8330 -0.0536  0.2450
   66MOL0     C 8798   0.283   6.224   1.072  0.0919  1.0840  0.0462
   66MOL0     O 8799   0.416   6.190   1.034  0.3928 -0.4708  0.3565
   66MOL0     C 8800   0.443   6.174   0.897  0.1775  0.3106  0.4177
   66MOL0     C 8801   0.355   6.183   0.790  0.0509 -0.4596 -0.9290
   66MOL0     C 8802   0.398   6.168   0.660 -0.0755  0.0206  0.0997
   66MOL0     C 8803   0.282   6.174   0.552  0.5787 -0.2633 -0.4910
   66MOL0     C 8804   0.533   6.134   0.635  1.1211  0.3498  0.5536
   66MOL0     C 8805   0.587   6.119   0.502  0.1983  0.4746  0.6614
   66MOL0     O 8806   0.488   6.075   0.418 -0.5173 -0.1129  0.0557
   66MOL0     C 8807   0.523   6.010   0.298  0.6733 -0.5885 -0.0012
   66MOL0     C 8808   0.451   6.051   0.176 -0.0588  0.9248 -0.0524
   66MOL0     C 8809   0.476   5.983   0.052 -0.2557 -0.0563 -0.9264
   66MOL0     C 8810   0.591   5.889   0.053  0.3404  0.3856  0.2643
   66MOL0     O 8811   0.606   5.835  -0.079 -0.2207 -0.5906  0.3278
   66MOL0     C 8812   0.704   5.738  -0.098  0.3550 -0.0666 -0.9382
   66MOL0     C 8813   0.702   5.684  -0.233 -0.3913  0.0550  1.4012
   66MOL0     C 8814   0.702   5.799  -0.341 -0.1603  0.2012  0.0410
   66MOL0     C 8815   0.697   5.739  -0.490  0.2022 -0.4921 -0.9257
   66MOL0     C 8816   0.563   5.684  -0.519 -0.2230  1.2500  0.3135
   66MOL0     C 8817   0.448   5.786  -0.511  0.1285 -0.7718  0.8403
   66MOL0     C 8818   0.370   5.781  -0.383 -0.1447  0.3954  0.9207
   66MOL0     C 8819   0.271   5.899  -0.353 -0.1027 -0.4505  0.3405
   66MOL0    Cl 8820   0.156   5.926  -0.485 -0.2446  0.2541 -0.4061
   66MOL0     C 8821   0.661   5.851   0.167 -0.2243 -0.7688 -1.0377
   66MOL0     C 8822   0.623   5.909   0.288 -0.3893  0.8360  0.3939
   66MOL0     O 8823   0.699   6.144   0.474 -0.3007 -0.2829 -0.3738
   66MOL0     C 8824   0.621   6.131   0.743 -0.5336  0.5246 -0.1836
   66MOL0     C 8825   0.577   6.155   0.875  1.2400 -1.0132  0.4763
   66MOL0     N 8826   0.208   5.920   1.531 -0.1746  0.6326 -0.8403
   66MOL0     N 8827   0.233   5.895   1.656 -1.2654  0.0993 -0.1311
   66MOL0     C 8828   0.557   5.188   2.541 -0.3161 -1.5722  0.3008
   66MOL0     C 8829   0.527   5.064   2.604  0.7877  0.3732  0.1972
   66MOL0     C 8830   0.567   4.615   2.687  0.5278  0.0509 -0.3217
   66MOL0     C 8831   0.551   4.483   2.642 -0.4716 -0.3021 -0.8390
   66MOL0     C 8832   0.526   4.379   2.726  0.8819  0.3244 -0.4332
   66MOL0     C 8833   0.503   4.392   2.861 -0.5127  0.2911 -0.2493
   66MOL0     O 8834   0.453   4.286   2.937 -0.0884 -0.0821  0.0736
   66MOL0     C 8835   0.314   4.240   2.918  0.2323 -0.9585  0.4746
   66MOL0     C 8836   0.221   4.275   3.038 -0.2678 -1.0626 -0.1766
   66MOL0     C 8837   0.186   4.421   3.048  0.3437 -0.4263  0.4757
   66MOL0     C 8838   0.137   4.494   2.923  0.3717  0.8133  0.3035
   66MOL0     C 8839   0.004   4.445   2.886  0.7810 -0.4069 -0.2331
   66MOL0     C 8840  -0.105   4.403   2.851  1.0816 -0.2319 -0.6020
   66MOL0     C 8841   0.523   4.519   2.914 -0.7143 -0.0057  0.1250
   66MOL0     C 8842   0.555   4.632   2.827 -0.4993  1.0322  0.4891
   66MOL0     H 8843   0.808   4.894   2.501  0.5708 -0.4828  1.4953
   66MOL0     H 8844   0.853   5.108   2.391  1.2257 -1.2158  0.8712
   66MOL0     H 8845   0.701   5.235   2.173 -1.1166  1.0148 -2.4285
   66MOL0     H 8846   0.540   5.208   2.254 -0.6606  1.8804  1.5102
   66MOL0     H 8847   0.512   5.469   2.226  1.0064  1.4067  1.0428
   66MOL0     H 8848   0.665   5.478   2.141  0.6451 -0.3559 -0.1217
   66MOL0     H 8849   0.611   5.382   1.943  0.6099 -1.6255  2.0847
   66MOL0     H 8850   0.477   5.287   2.004 -0.2896 -0.7286  2.0767
   66MOL0     H 8851   0.380   5.475   1.888 -0.1418 -0.2524  0.5366
   66MOL0     H 8852   0.356   5.503   2.070  1.8194  2.3911  0.7419
   66MOL0     H 8853   0.511   5.684   2.065  3.1217  2.0135 -2.4456
   66MOL0     H 8854   0.588   5.625   1.918 -0.3785  0.4587 -1.0835
   66MOL0     H 8855   0.386   5.685   1.785  1.5748 -0.1005  1.0501
   66MOL0     H 8856   0.322   5.745   1.936  2.3643 -0.6466  4.0607
   66MOL0     H 8857   0.549   5.890   1.949 -1.5657  3.2119  0.5459
   66MOL0     H 8858   0.570   5.838   1.777 -3.6516 -0.4918 -2.6735
   66MOL0     H 8859   0.461   6.068   1.809  1.0465 -0.6020 -1.9767
   66MOL0     H 8860   0.335   5.974   1.901  1.2984 -0.6706  0.0777
   66MOL0     H 8861   0.433   6.131   1.568  0.7429  0.2787 -3.9419
   66MOL0     H 8862   0.159   6.136   1.367  0.0333  1.4010 -1.1123
   66MOL0     H 8863   0.334   6.166   1.353  0.3050 -1.3698  2.1822
   66MOL0     H 8864   0.195   5.920   1.231  0.4908  0.5162  0.0152
   66MOL0     H 8865   0.352   5.984   1.186  0.0570  1.4379  0.1007
   66MOL0     H 8866   0.094   6.144   1.120  0.3666  4.2424 -1.9538
   66MOL0     H 8867   0.195   6.032   1.018 -0.4556  1.6070 -1.1759
   66MOL0     H 8868   0.277   6.277   1.168 -2.7858 -1.3091  1.3562
   66MOL0     H 8869   0.241   6.294   1.000 -3.8665  1.0487  2.0329
   66MOL0     H 8870   0.250   6.210   0.797  0.1677 -0.3971  0.9866
   66MOL0     H 8871   0.281   6.271   0.501 -2.0331 -0.8300 -1.7027
   66MOL0     H 8872   0.276   6.089   0.483 -3.6900 -0.6615  0.0726
   66MOL0     H 8873   0.180   6.176   0.593  0.4170 -1.2957 -0.8044
   66MOL0     H 8874   0.379   6.131   0.164 -1.1977 -0.0654  0.0338
   66MOL0     H 8875   0.428   6.012  -0.041  1.9289  0.7840 -1.8581
   66MOL0     H 8876   0.804   5.769  -0.066 -0.5418 -1.5828  4.2557
   66MOL0     H 8877   0.669   5.653  -0.039  2.3698 -1.9643 -2.3083
   66MOL0     H 8878   0.794   5.625  -0.236 -2.2848 -3.1299  1.3438
   66MOL0     H 8879   0.616   5.618  -0.245  0.8679 -1.5151  0.6728
   66MOL0     H 8880   0.792   5.859  -0.331  0.6820 -0.6884 -1.6686
   66MOL0     H 8881   0.630   5.878  -0.320  1.5030  1.9244 -0.5435
   66MOL0     H 8882   0.722   5.820  -0.559  2.4817 -0.8793 -0.6445
   66MOL0     H 8883   0.780   5.668  -0.497 -1.2342 -2.0653 -3.1845
   66MOL0     H 8884   0.543   5.602  -0.450  1.9516 -1.2263 -1.7538
   66MOL0     H 8885   0.561   5.636  -0.617  2.2412  2.5668 -0.4745
   66MOL0     H 8886   0.482   5.885  -0.543 -4.3453  0.0287 -2.3152
   66MOL0     H 8887   0.375   5.769  -0.590  0.3033  0.2869  0.4428
   66MOL0     H 8888   0.443   5.769  -0.302  1.7605 -1.4030 -0.9194
   66MOL0     H 8889   0.314   5.687  -0.380  0.0963 -0.7821 -7.1709
   66MOL0     H 8890   0.335   5.988  -0.359 -1.5322  0.6407  0.7997
   66MOL0     H 8891   0.221   5.893  -0.256  0.2698  2.0854  0.7619
   66MOL0     H 8892   0.750   5.790   0.153  0.8421  0.3821  0.4694
   66MOL0     H 8893   0.681   5.900   0.379  3.2117  0.2868 -1.7408
   66MOL0     H 8894   0.726   6.108   0.730 -1.3362 -2.3412 -2.9524
   66MOL0     H 8895   0.657   6.155   0.948  0.6071  0.0037  1.1739
   66MOL0     H 8896   0.490   5.274   2.537 -0.9923 -2.1425 -1.3332
   66MOL0     H 8897   0.436   5.043   2.660 -0.4265 -0.0021 -1.8190
   66MOL0     H 8898   0.560   4.457   2.537 -0.1004  0.1410 -0.9202
   66MOL0     H 8899   0.532   4.284   2.674  0.3649 -1.3685  2.3857
   66MOL0     H 8900   0.279   4.280   2.823  0.7131  0.9689  1.0560
   66MOL0     H 8901   0.313   4.131   2.909 -3.0064 -1.0584  0.9674
   66MOL0     H 8902   0.268   4.240   3.130  0.5145 -1.0532 -0.5582
   66MOL0     H 8903   0.131   4.214   3.036 -0.2578 -1.1546  1.4291
   66MOL0     H 8904   0.278   4.468   3.082  1.1648 -0.1037 -1.9928
   66MOL0     H 8905   0.120   4.437   3.134  2.8061 -0.6073  2.5044
   66MOL0     H 8906   0.208   4.472   2.844  0.3969  0.3579  0.4509
   66MOL0     H 8907   0.136   4.603   2.935 -0.2937  0.7555  0.8659
   66MOL0     H 8908  -0.190   4.338   2.845  1.9186 -1.6141  1.3077
   66MOL0     H 8909   0.493   4.548   3.014  0.1950  1.2879  0.0397
   66MOL0     H 8910   0.558   4.732   2.869  4.1673  1.8280 -1.1219
   67MOL0     O 8911   6.003   5.573   6.553  1.0289 -0.5253 -0.2509
   67MOL0     C 8912   6.055   5.691   6.561  0.3383 -0.1486  0.4684
   67MOL0     O 8913   5.991   5.804   6.508 -0.0113  0.0988 -0.4328
   67MOL0     C 8914   5.879   5.784   6.436  0.0342 -0.5561 -0.9772
   67MOL0     C 8915   5.875   5.737   6.301  0.0888  0.9343  0.4420
   67MOL0     C 8916   5.752   5.735   6.238  0.6127  0.3922  0.4121
   67MOL0     C 8917   5.637   5.789   6.304  0.7682 -0.2126  0.2558
   67MOL0     O 8918   5.514   5.784   6.238  0.0643 -1.2252  0.2834
   67MOL0     C 8919   5.396   5.844   6.282  0.1412  0.3801  0.2100
   67MOL0     C 8920   5.377   5.963   6.198 -0.3776  0.3457  1.2599
   67MOL0     C 8921   5.369   5.937   6.047  0.2024 -0.1758  0.4580
   67MOL0     C 8922   5.286   5.801   5.995  0.0834  0.6025 -0.8919
   67MOL0     C 8923   5.133   5.819   5.989  0.0317  0.2353  0.5066
   67MOL0     C 8924   5.065   5.834   6.128 -0.4163 -0.9526  0.5767
   67MOL0     C 8925   4.918   5.800   6.145 -0.3161 -0.0712 -0.6659
   67MOL0     C 8926   4.835   5.884   6.054  1.1032 -0.2320  0.3379
   67MOL0     N 8927   4.685   5.863   6.054  0.4543 -0.1107  1.1665
   67MOL0     C 8928   4.620   5.754   6.026 -0.3333  0.2038 -0.1686
   67MOL0     C 8929   4.493   5.783   6.063 -0.4317  0.1995  0.0534
   67MOL0     C 8930   4.403   5.668   6.091 -0.9464 -0.6142  0.3275
   67MOL0     C 8931   4.257   5.701   6.121  0.0908  0.2802 -0.2098
   67MOL0     C 8932   4.171   5.573   6.159 -0.0468 -0.7024  0.2458
   67MOL0     C 8933   4.020   5.601   6.147 -0.1826  0.6957 -0.3274
   67MOL0     O 8934   3.972   5.674   6.256  0.2511 -0.3360  0.5058
   67MOL0     C 8935   3.846   5.685   6.287 -0.3390 -0.2470 -0.0644
   67MOL0     C 8936   3.739   5.655   6.207 -0.7179  0.2290 -0.4911
   67MOL0     C 8937   3.609   5.654   6.254 -0.0405  0.0048  0.8184
   67MOL0     C 8938   3.506   5.636   6.149 -0.3072 -0.0731  0.2593
   67MOL0     C 8939   3.582   5.705   6.379 -0.6758  0.8706 -0.8381
   67MOL0     C 8940   3.449   5.717   6.436 -0.7682  0.5464  0.3752
   67MOL0     O 8941   3.344   5.648   6.372 -0.1714 -0.1191 -0.4959
   67MOL0     C 8942   3.216   5.637   6.415  0.1686  0.5349 -1.3046
   67MOL0     C 8943   3.117   5.675   6.327  0.5123  0.8147  0.0331
   67MOL0     C 8944   2.976   5.670   6.360 -0.1055  0.6838  1.1494
   67MOL0     C 8945   2.941   5.613   6.481  0.7972 -1.1279 -0.3456
   67MOL0     O 8946   2.815   5.591   6.538  0.1735  0.1139 -0.0869
   67MOL0     C 8947   2.755   5.714   6.582 -0.8159 -0.6575 -0.2525
   67MOL0     C 8948   2.605   5.740   6.552 -0.5894  0.8081 -0.6724
   67MOL0     C 8949   2.524   5.639   6.636  0.6289  0.6946 -0.4035
   67MOL0     C 8950   2.379   5.692   6.627 -0.5409  1.4352  0.0148
   67MOL0     C 8951   2.272   5.635   6.715  0.5731  0.0445 -0.6505
   67MOL0     C 8952   2.131   5.685   6.693 -1.0046  0.6837  0.1119
   67MOL0     C 8953   2.038   5.621   6.797  0.7561  0.2371 -0.4270
   67MOL0     C 8954   1.895   5.653   6.772  0.9163  0.5098 -0.9564
   67MOL0    Cl 8955   1.843   5.585   6.607  0.0561  0.1166  0.1389
   67MOL0     C 8956   3.040   5.571   6.565 -0.6741  0.3297 -0.3457
   67MOL0     C 8957   3.179   5.580   6.534 -0.2123 -0.9263 -0.5387
   67MOL0     O 8958   3.439   5.792   6.536  0.1806 -0.2865  0.4189
   67MOL0     C 8959   3.690   5.748   6.457  0.1062  0.1820  0.3032
   67MOL0     C 8960   3.820   5.738   6.413  0.6143 -0.0020  0.2779
   67MOL0     N 8961   4.483   5.914   6.106  0.3511 -0.0425 -0.8033
   67MOL0     N 8962   4.602   5.963   6.104  0.2487  0.6456  0.4111
   67MOL0     C 8963   5.647   5.836   6.433 -0.1707 -0.4114 -0.3000
   67MOL0     C 8964   5.765   5.837   6.498  0.2222  0.8452  1.2983
   67MOL0     C 8965   6.176   5.719   6.632 -0.1746 -0.9124 -0.7780
   67MOL0     C 8966   6.263   5.620   6.671 -0.4843  0.9221  0.3333
   67MOL0     C 8967   6.378   5.642   6.742 -0.1165  0.3926 -0.9438
   67MOL0     C 8968   6.415   5.772   6.785  0.4637 -0.0005  0.4488
   67MOL0     O 8969   6.534   5.782   6.851  0.2270  1.1152  0.2269
   67MOL0     C 8970   6.571   5.907   6.907  0.3438 -0.1296 -0.8688
   67MOL0     C 8971   6.720   5.903   6.961  0.2420  0.5370  0.1490
   67MOL0     C 8972   6.723   5.830   7.095 -0.4163 -0.6245 -0.1615
   67MOL0     C 8973   6.764   5.930   7.204 -0.6535 -0.8672  0.2449
   67MOL0     C 8974   6.659   6.029   7.231 -0.5930  0.3002  0.2402
   67MOL0     C 8975   6.576   6.116   7.249  0.7575  0.2240  0.3347
   67MOL0     C 8976   6.331   5.878   6.744  0.0590  0.6855 -0.0531
   67MOL0     C 8977   6.213   5.847   6.671 -0.4052 -0.4271  0.0973
   67MOL0     H 8978   5.957   5.702   6.239  0.8792  0.9426  1.4458
   67MOL0     H 8979   5.743   5.697   6.137 -3.7748 -2.2441  1.5021
   67MOL0     H 8980   5.312   5.775   6.270  0.1268  0.3542  0.4495
   67MOL0     H 8981   5.382   5.882   6.384 -0.1463  0.0974  0.2762
   67MOL0     H 8982   5.288   6.020   6.226 -1.7817 -0.5573 -1.0401
   67MOL0     H 8983   5.460   6.028   6.226 -0.1084  0.6638 -0.1762
   67MOL0     H 8984   5.312   6.015   5.995 -2.3991 -1.6063  0.9742
   67MOL0     H 8985   5.471   5.941   6.009 -0.2984 -0.4910 -0.9580
   67MOL0     H 8986   5.317   5.780   5.892 -0.1039  2.8780 -1.4679
   67MOL0     H 8987   5.298   5.712   6.057 -0.0811  0.6536 -0.7865
   67MOL0     H 8988   5.103   5.904   5.926 -0.2946 -0.3098 -0.0819
   67MOL0     H 8989   5.089   5.731   5.941 -0.2174  1.5139 -1.7479
   67MOL0     H 8990   5.106   5.753   6.190  0.3392 -1.2076 -0.2348
   67MOL0     H 8991   5.087   5.936   6.161 -2.2437 -0.4427  0.3342
   67MOL0     H 8992   4.892   5.698   6.114 -5.0611  0.9868 -0.9572
   67MOL0     H 8993   4.897   5.816   6.251  0.9042  1.4998 -0.6200
   67MOL0     H 8994   4.865   5.879   5.948  2.0750  0.4124  0.5683
   67MOL0     H 8995   4.850   5.986   6.088  1.3921 -1.0759  2.9166
   67MOL0     H 8996   4.649   5.650   6.012 -1.4691 -0.1230 -0.1530
   67MOL0     H 8997   4.411   5.604   6.002  2.3456  0.8806 -0.5886
   67MOL0     H 8998   4.433   5.611   6.179  2.2676  2.3007  1.3735
   67MOL0     H 8999   4.210   5.765   6.045  5.7773  0.9754 -3.6912
   67MOL0     H 9000   4.252   5.763   6.211  2.1304  1.9639 -1.1798
   67MOL0     H 9001   4.205   5.548   6.260  1.6351  0.5353  0.0094
   67MOL0     H 9002   4.200   5.496   6.086  1.7373 -0.6667  0.8815
   67MOL0     H 9003   3.961   5.509   6.137 -3.7474  3.0521 -3.1068
   67MOL0     H 9004   4.009   5.664   6.059  2.8766  2.1066  0.1769
   67MOL0     H 9005   3.766   5.636   6.104  1.7877 -1.1590  0.3397
   67MOL0     H 9006   3.549   5.619   6.050 -4.3540  0.0887 -1.7704
   67MOL0     H 9007   3.435   5.553   6.162 -0.6857  0.4659  1.8239
   67MOL0     H 9008   3.455   5.732   6.142  1.2155  0.7872  0.5477
   67MOL0     H 9009   3.150   5.729   6.238  0.1836  3.2473  1.3084
   67MOL0     H 9010   2.895   5.684   6.289  2.2755 -0.2081 -1.9922
   67MOL0     H 9011   2.761   5.712   6.691 -2.1714 -0.1664 -0.1426
   67MOL0     H 9012   2.813   5.800   6.548  1.3167 -1.9379 -0.0143
   67MOL0     H 9013   2.587   5.848   6.562  1.8760  1.3170 -1.1880
   67MOL0     H 9014   2.589   5.711   6.447  0.4697 -1.1422 -0.3223
   67MOL0     H 9015   2.541   5.627   6.743  0.1372  2.1777 -0.1404
   67MOL0     H 9016   2.534   5.543   6.584  3.0020 -0.9121  2.6711
   67MOL0     H 9017   2.396   5.798   6.650  0.3904  1.1415  0.7672
   67MOL0     H 9018   2.349   5.678   6.523  2.0263 -1.8599 -0.4553
   67MOL0     H 9019   2.295   5.661   6.819 -1.1554  1.7061 -0.6135
   67MOL0     H 9020   2.277   5.527   6.704 -0.1205 -0.2046  1.1356
   67MOL0     H 9021   2.134   5.794   6.686 -1.3199  0.7595  1.0827
   67MOL0     H 9022   2.104   5.652   6.592 -1.3560 -3.9899  1.4712
   67MOL0     H 9023   2.061   5.654   6.899 -2.9631 -0.3215  0.7421
   67MOL0     H 9024   2.040   5.512   6.797  1.4971  0.1454  2.8340
   67MOL0     H 9025   1.880   5.761   6.766  2.2282  0.6461 -2.8479
   67MOL0     H 9026   1.841   5.603   6.852 -0.6543 -2.7786 -3.7840
   67MOL0     H 9027   3.020   5.534   6.665  0.7474  2.8325  0.9587
   67MOL0     H 9028   3.245   5.541   6.610 -3.2597  2.4639  4.4266
   67MOL0     H 9029   3.664   5.787   6.555 -0.2364 -2.9008  1.5858
   67MOL0     H 9030   3.885   5.784   6.487 -0.2190  0.9139  0.4581
   67MOL0     H 9031   5.564   5.876   6.491 -0.0862 -1.0796  0.2997
   67MOL0     H 9032   5.765   5.891   6.592  0.6608  0.0165  1.7806
   67MOL0     H 9033   6.249   5.518   6.638 -1.6921  1.8777 -2.3503
   67MOL0     H 9034   6.445   5.557   6.748 -0.8664 -0.1206  1.0923
   67MOL0     H 9035   6.557   5.981   6.827  3.7774  1.7624  0.0898
   67MOL0     H 9036   6.498   5.929   6.985  1.1819 -2.7792  0.8009
   67MOL0     H 9037   6.746   6.009   6.970 -1.7570  1.1601 -0.8970
   67MOL0     H 9038   6.780   5.839   6.897  3.1722  1.5753  1.6372
   67MOL0     H 9039   6.802   5.755   7.088  1.9565  1.8840 -2.9522
   67MOL0     H 9040   6.626   5.782   7.115  0.2338 -1.8202  0.2116
   67MOL0     H 9041   6.862   5.973   7.183  1.5793 -4.4717  2.1410
   67MOL0     H 9042   6.777   5.863   7.290 -0.8419 -1.5267 -0.2299
   67MOL0     H 9043   6.495   6.182   7.274  1.4066  0.6547  1.3478
   67MOL0     H 9044   6.344   5.985   6.759  0.0946  0.7202 -0.3255
   67MOL0     H 9045   6.159   5.929   6.625 -0.5453 -0.4962  0.1388
   68MOL0     O 9046   1.844   1.497   3.138 -0.0995 -0.0837  0.0402
   68MOL0     C 9047   1.857   1.429   3.038 -0.1782 -0.5473 -0.1204
   68MOL0     O 9048   1.756   1.376   2.964  0.1759  0.5287 -0.7790
   68MOL0     C 9049   1.625   1.373   2.997 -0.0204 -0.3885 -1.0626
   68MOL0     C 9050   1.567   1.490   3.053  1.2581 -0.0362  0.2862
   68MOL0     C 9051   1.425   1.489   3.092  0.2154 -0.6298  0.0368
   68MOL0     C 9052   1.343   1.388   3.047 -0.0602 -0.1979 -0.1429
   68MOL0     O 9053   1.213   1.412   3.067  0.2628  0.5629 -0.0612
   68MOL0     C 9054   1.120   1.315   3.020  0.2109 -0.3676 -0.1468
   68MOL0     C 9055   0.986   1.346   3.083 -0.5602 -0.5759 -0.0540
   68MOL0     C 9056   0.947   1.498   3.062  0.3260  0.0179  0.1751
   68MOL0     C 9057   0.824   1.519   3.158  0.0168  0.7203  0.8913
   68MOL0     C 9058   0.758   1.652   3.152 -0.0520 -0.1156 -0.9622
   68MOL0     C 9059   0.676   1.667   3.021  0.2045 -0.1360 -0.8049
   68MOL0     C 9060   0.606   1.804   3.012  0.0367  0.2165  0.9827
   68MOL0     C 9061   0.471   1.800   2.937  0.1880 -0.2086 -0.5713
   68MOL0     N 9062   0.387   1.920   2.954  0.2281  1.0330 -0.0774
   68MOL0     C 9063   0.363   2.006   2.844 -0.6143  0.8011  0.0595
   68MOL0     C 9064   0.264   2.082   2.878  0.9202  0.1718  0.6340
   68MOL0     C 9065   0.197   2.188   2.784 -0.1461 -0.0051 -0.7819
   68MOL0     C 9066   0.284   2.270   2.689  0.6564  1.2469  0.6419
   68MOL0     C 9067   0.195   2.355   2.604  0.1828 -0.1736  0.4255
   68MOL0     C 9068   0.281   2.457   2.529  0.2235 -0.2901  0.8510
   68MOL0     O 9069   0.282   2.423   2.379  0.1449 -0.0791 -0.3367
   68MOL0     C 9070   0.172   2.448   2.307 -0.6167 -1.1217  0.5055
   68MOL0     C 9071   0.045   2.493   2.354  0.0333  0.4766  0.1236
   68MOL0     C 9072  -0.062   2.523   2.266  0.2496 -1.4255  0.1161
   68MOL0     C 9073  -0.185   2.570   2.329 -0.3499 -0.0367  0.3017
   68MOL0     C 9074  -0.046   2.511   2.127  0.3756  0.1802 -0.5817
   68MOL0     C 9075  -0.147   2.528   2.020 -0.1764  0.1340 -1.0168
   68MOL0     O 9076  -0.127   2.483   1.891 -1.4948  0.2892 -1.4798
   68MOL0     C 9077  -0.224   2.515   1.802  0.5666 -0.3205  0.3805
   68MOL0     C 9078  -0.184   2.580   1.683  0.6015 -0.4090 -0.3240
   68MOL0     C 9079  -0.276   2.590   1.580  0.6663  0.1692 -0.7845
   68MOL0     C 9080  -0.412   2.554   1.592  0.3419 -0.1357  1.0962
   68MOL0     O 9081  -0.484   2.602   1.484  0.4682 -0.2153  0.2002
   68MOL0     C 9082  -0.628   2.577   1.487  0.0166 -0.7659  0.5566
   68MOL0     C 9083  -0.704   2.622   1.369  0.4740 -0.1437  0.1376
   68MOL0     C 9084  -0.663   2.548   1.227 -0.1491  0.6284 -0.7092
   68MOL0     C 9085  -0.754   2.591   1.116 -0.5983 -0.0188 -0.3795
   68MOL0     C 9086  -0.713   2.545   0.975 -0.4771  0.0476 -0.2552
   68MOL0     C 9087  -0.607   2.638   0.917  0.5135 -0.4418 -1.0718
   68MOL0     C 9088  -0.568   2.580   0.780  0.1755 -0.3556 -0.6644
   68MOL0     C 9089  -0.454   2.671   0.723 -0.0863 -0.5111  0.6733
   68MOL0    Cl 9090  -0.319   2.683   0.845  0.3031 -0.0933 -0.0560
   68MOL0     C 9091  -0.452   2.482   1.705 -0.8766  0.5716 -0.8686
   68MOL0     C 9092  -0.350   2.455   1.805  0.4777 -0.1249 -0.0232
   68MOL0     O 9093  -0.245   2.580   2.057  0.2879  0.0013 -0.3045
   68MOL0     C 9094   0.080   2.458   2.085 -0.1965 -0.0303  0.5074
   68MOL0     C 9095   0.187   2.426   2.174  0.3382  0.8794  0.9331
   68MOL0     N 9096   0.228   2.051   3.006  0.0032 -0.1695 -0.6424
   68MOL0     N 9097   0.292   1.950   3.051 -0.2459  0.6552 -0.4366
   68MOL0     C 9098   1.398   1.287   2.977  0.4411 -0.7359 -0.7348
   68MOL0     C 9099   1.531   1.276   2.961 -0.5165  0.6089  1.0855
   68MOL0     C 9100   1.994   1.390   3.001 -0.6748  0.0602 -0.0344
   68MOL0     C 9101   2.106   1.480   3.011 -0.1867  1.7058  0.3685
   68MOL0     C 9102   2.233   1.457   2.953 -0.4294  1.4236  0.8192
   68MOL0     C 9103   2.255   1.336   2.881  0.0625  0.2198 -0.5730
   68MOL0     O 9104   2.382   1.327   2.828 -0.1098 -0.3062  0.8456
   68MOL0     C 9105   2.425   1.203   2.772  0.4206  0.1267  0.2152
   68MOL0     C 9106   2.460   1.102   2.884  0.1235  0.0251  0.7629
   68MOL0     C 9107   2.519   0.985   2.825 -0.6651  0.7618 -0.3027
   68MOL0     C 9108   2.545   0.865   2.923 -0.2981 -0.2734  0.5772
   68MOL0     C 9109   2.634   0.763   2.861  0.1822 -0.0707 -0.6177
   68MOL0     C 9110   2.717   0.689   2.818  1.4462  0.5535  0.6525
   68MOL0     C 9111   2.152   1.245   2.885 -0.5339 -0.0181 -0.6090
   68MOL0     C 9112   2.030   1.270   2.937  0.4257  0.2224 -0.7951
   68MOL0     H 9113   1.632   1.574   3.074  1.0924  0.2590 -0.3747
   68MOL0     H 9114   1.370   1.570   3.138  0.0320  0.5600 -2.1698
   68MOL0     H 9115   1.106   1.324   2.911  1.0375  2.5186 -0.0984
   68MOL0     H 9116   1.149   1.221   3.068  0.9477  0.2508  0.6274
   68MOL0     H 9117   0.910   1.294   3.024  2.8844 -1.8406 -3.8253
   68MOL0     H 9118   0.980   1.313   3.187 -0.8994 -2.9755 -0.7878
   68MOL0     H 9119   1.035   1.552   3.101  0.8094 -1.9510  1.9979
   68MOL0     H 9120   0.936   1.514   2.954  3.3939  2.1396  0.0345
   68MOL0     H 9121   0.744   1.448   3.132 -0.1359  1.0069  0.5667
   68MOL0     H 9122   0.847   1.500   3.263  2.3059 -2.9310 -0.0955
   68MOL0     H 9123   0.698   1.654   3.244  0.8586 -2.2680 -0.2650
   68MOL0     H 9124   0.831   1.732   3.139  1.0305 -0.8402  0.3829
   68MOL0     H 9125   0.744   1.651   2.936 -0.2200 -0.9200 -1.0076
   68MOL0     H 9126   0.599   1.589   3.031 -0.9295  0.8945 -1.2628
   68MOL0     H 9127   0.584   1.830   3.116 -3.1408 -1.2706  0.8002
   68MOL0     H 9128   0.672   1.877   2.963  0.2451 -1.3810 -1.2572
   68MOL0     H 9129   0.420   1.710   2.972 -2.2140  1.7297  1.2331
   68MOL0     H 9130   0.501   1.785   2.832  0.0989 -0.7995 -0.5201
   68MOL0     H 9131   0.418   2.016   2.752 -2.9661  0.5458 -1.4488
   68MOL0     H 9132   0.127   2.124   2.730 -0.8255 -0.7749  0.9331
   68MOL0     H 9133   0.132   2.263   2.831  0.8594 -0.3126  1.2123
   68MOL0     H 9134   0.351   2.203   2.636 -0.9406  0.1543 -0.0736
   68MOL0     H 9135   0.338   2.336   2.757  0.6980 -0.5839  2.4844
   68MOL0     H 9136   0.111   2.396   2.660 -1.2670  0.9512 -2.3911
   68MOL0     H 9137   0.145   2.285   2.537  0.4788 -0.0539  0.0782
   68MOL0     H 9138   0.382   2.467   2.570 -0.0549  3.5792  0.9447
   68MOL0     H 9139   0.255   2.562   2.541  0.4503 -0.0942 -0.3192
   68MOL0     H 9140   0.034   2.510   2.460  2.0532  1.1365  0.2742
   68MOL0     H 9141  -0.165   2.562   2.436  1.3935 -1.3526 -0.0762
   68MOL0     H 9142  -0.201   2.677   2.312 -0.2065  0.6462  3.7281
   68MOL0     H 9143  -0.265   2.499   2.308  1.5757 -2.4681  0.7157
   68MOL0     H 9144  -0.085   2.623   1.689  0.2498  0.4360 -0.4808
   68MOL0     H 9145  -0.249   2.639   1.487 -3.1554  2.1724 -1.0623
   68MOL0     H 9146  -0.638   2.470   1.508 -0.4256 -0.7571  0.4011
   68MOL0     H 9147  -0.674   2.615   1.578 -0.8379  0.1519 -0.2299
   68MOL0     H 9148  -0.810   2.600   1.389  0.9201 -3.2840 -0.3929
   68MOL0     H 9149  -0.700   2.728   1.344 -0.8698 -0.5165 -1.9361
   68MOL0     H 9150  -0.663   2.439   1.223 -0.1505  0.6275 -0.6805
   68MOL0     H 9151  -0.558   2.576   1.209  0.1137 -0.4109 -0.8653
   68MOL0     H 9152  -0.855   2.556   1.135 -0.2833 -0.9397 -0.3564
   68MOL0     H 9153  -0.755   2.700   1.116 -2.9882  0.0196 -1.5362
   68MOL0     H 9154  -0.790   2.543   0.897 -2.2922 -1.5276  1.4662
   68MOL0     H 9155  -0.673   2.443   0.984  2.4867  1.0654 -0.8560
   68MOL0     H 9156  -0.645   2.740   0.908  3.3197  0.5534 -2.9900
   68MOL0     H 9157  -0.524   2.639   0.988  0.3837 -4.6525 -0.6122
   68MOL0     H 9158  -0.657   2.579   0.716 -1.5920  1.3739  1.5806
   68MOL0     H 9159  -0.525   2.480   0.776 -0.5148 -0.8013 -6.9438
   68MOL0     H 9160  -0.493   2.773   0.729  1.2080 -0.0561  1.6188
   68MOL0     H 9161  -0.424   2.625   0.628 -1.8717 -0.7153  0.1682
   68MOL0     H 9162  -0.546   2.428   1.701 -0.4003 -0.2555 -3.8066
   68MOL0     H 9163  -0.378   2.380   1.878  2.6540 -0.2305  0.7844
   68MOL0     H 9164   0.086   2.439   1.978 -1.1373 -1.2500  0.6480
   68MOL0     H 9165   0.283   2.399   2.131  1.1205 -0.4494  3.3057
   68MOL0     H 9166   1.331   1.214   2.932  0.1217  0.0789 -1.6242
   68MOL0     H 9167   1.575   1.198   2.900 -2.7483 -1.1223  1.5550
   68MOL0     H 9168   2.104   1.565   3.079 -2.1322  0.1921  2.3445
   68MOL0     H 9169   2.319   1.518   2.979  1.8136 -2.4935  3.7468
   68MOL0     H 9170   2.355   1.164   2.698  0.6704  1.7550 -0.9473
   68MOL0     H 9171   2.514   1.235   2.717  0.6384  0.5135  0.7786
   68MOL0     H 9172   2.364   1.084   2.935 -0.7613  1.1077 -0.4486
   68MOL0     H 9173   2.533   1.137   2.956  0.7127 -3.3346  2.0143
   68MOL0     H 9174   2.616   1.020   2.789 -1.3915  1.2026 -1.9048
   68MOL0     H 9175   2.465   0.946   2.738 -3.2505 -0.7774  1.7995
   68MOL0     H 9176   2.453   0.817   2.957 -0.9695  1.7767  1.8191
   68MOL0     H 9177   2.583   0.903   3.018 -0.8890  2.4435 -0.1845
   68MOL0     H 9178   2.774   0.602   2.791 -0.6962 -1.4318  2.1647
   68MOL0     H 9179   2.179   1.145   2.853 -0.6143  0.2872 -1.6557
   68MOL0     H 9180   1.957   1.190   2.946  1.1132 -0.2189  1.2116
   69MOL0     O 9181  10.668   0.491   3.315  0.0800 -0.8649 -0.8328
   69MOL0     C 9182  10.647   0.417   3.226  0.2222 -1.2240 -0.0561
   69MOL0     O 9183  10.727   0.313   3.195 -0.1629 -0.0050  0.4805
   69MOL0     C 9184  10.857   0.307   3.212  0.8496 -0.9500 -0.5038
   69MOL0     C 9185  10.914   0.229   3.115  0.3213 -0.1414 -1.0642
   69MOL0     C 9186  11.049   0.222   3.106 -0.3286  0.9333  0.4064
   69MOL0     C 9187  11.137   0.288   3.188 -0.0663  0.4002  0.1743
   69MOL0     O 9188  11.272   0.270   3.189 -0.0443  0.2845  0.7239
   69MOL0     C 9189  11.349   0.385   3.229 -0.3901 -0.2232  0.9183
   69MOL0     C 9190  11.444   0.438   3.113  0.5316 -0.3517  0.2364
   69MOL0     C 9191  11.551   0.330   3.094  0.2054 -0.0007 -0.0063
   69MOL0     C 9192  11.655   0.367   2.984  0.2272 -0.7764  0.2841
   69MOL0     C 9193  11.784   0.438   3.054  0.9065  0.3932 -0.4004
   69MOL0     C 9194  11.873   0.500   2.944 -0.3677 -0.7982 -0.1455
   69MOL0     C 9195  11.956   0.622   3.004  0.6152  0.4644 -0.1516
   69MOL0     C 9196  12.021   0.707   2.889  0.5564  0.5044 -1.5870
   69MOL0     N 9197  12.084   0.829   2.937 -0.4067 -0.0774 -0.6520
   69MOL0     C 9198  12.204   0.838   3.014  0.2611 -0.7916 -0.8601
   69MOL0     C 9199  12.207   0.968   3.047 -0.3232  0.1718 -0.0188
   69MOL0     C 9200  12.298   1.023   3.141  0.2505 -0.1424 -0.1371
   69MOL0     C 9201  12.281   0.973   3.288  0.0119  0.3014  1.0004
   69MOL0     C 9202  12.353   1.064   3.387  0.5201  0.1902  0.0839
   69MOL0     C 9203  12.263   1.178   3.432  0.4654 -0.0256  0.0767
   69MOL0     O 9204  12.307   1.225   3.556  0.3064  0.2124 -0.6110
   69MOL0     C 9205  12.252   1.340   3.613 -0.0727  0.2237 -0.8674
   69MOL0     C 9206  12.150   1.422   3.562 -0.6164 -0.8098  0.5603
   69MOL0     C 9207  12.104   1.532   3.626 -0.1950  1.2490  0.2099
   69MOL0     C 9208  11.994   1.616   3.573 -0.2480  0.1857  0.0966
   69MOL0     C 9209  12.166   1.568   3.745  0.1971 -0.3242  0.7278
   69MOL0     C 9210  12.121   1.664   3.836  0.2708  0.5889 -0.3775
   69MOL0     O 9211  12.005   1.633   3.907  0.3069 -0.1014  0.0065
   69MOL0     C 9212  11.967   1.694   4.022 -0.0497 -0.5684  0.4603
   69MOL0     C 9213  12.046   1.768   4.109 -0.0886  0.4268 -0.5868
   69MOL0     C 9214  12.000   1.827   4.230  0.5559  0.2981  0.1718
   69MOL0     C 9215  11.864   1.809   4.255 -1.0863 -0.3848 -0.3684
   69MOL0     O 9216  11.814   1.868   4.365 -0.2896  0.7017  0.9112
   69MOL0     C 9217  11.853   1.806   4.495  0.1500 -0.5728  0.0684
   69MOL0     C 9218  11.923   1.914   4.571 -0.0334 -0.2354  0.2064
   69MOL0     C 9219  11.950   1.855   4.712  0.2746 -0.5631 -0.5405
   69MOL0     C 9220  11.968   1.962   4.824 -0.3199 -0.6824  0.0651
   69MOL0     C 9221  12.007   1.886   4.945 -0.6800 -0.8631 -0.3579
   69MOL0     C 9222  12.041   1.972   5.064  0.2989  0.3172  0.9724
   69MOL0     C 9223  12.092   1.904   5.189  0.1248 -0.2807  1.1440
   69MOL0     C 9224  11.979   1.829   5.263 -0.1541  0.3312  0.5668
   69MOL0    Cl 9225  11.862   1.948   5.330 -0.5964 -0.6720  0.5625
   69MOL0     C 9226  11.784   1.729   4.178 -0.2247  0.6696  1.0532
   69MOL0     C 9227  11.836   1.663   4.067 -0.5905 -0.3524  0.9381
   69MOL0     O 9228  12.183   1.768   3.854  0.4583 -0.1449 -0.0205
   69MOL0     C 9229  12.268   1.487   3.797  0.0598  0.3346  0.0227
   69MOL0     C 9230  12.309   1.371   3.733 -0.5569 -0.1584  0.3552
   69MOL0     N 9231  12.110   1.028   2.988 -0.1642 -0.9623 -0.5707
   69MOL0     N 9232  12.031   0.950   2.929 -0.2245  0.0410 -0.2611
   69MOL0     C 9233  11.074   0.348   3.303  0.1485  0.1529 -0.0845
   69MOL0     C 9234  10.942   0.362   3.310  1.1110 -0.0294  0.3197
   69MOL0     C 9235  10.506   0.435   3.168 -0.9486  1.4611  1.6464
   69MOL0     C 9236  10.455   0.355   3.059 -0.3964  0.1556  0.5913
   69MOL0     C 9237  10.327   0.383   3.004 -0.5291 -1.1180  0.3633
   69MOL0     C 9238  10.245   0.478   3.066  0.0711 -0.5092 -0.3472
   69MOL0     O 9239  10.121   0.522   3.027 -0.3403 -0.4451 -0.3611
   69MOL0     C 9240  10.075   0.460   2.911 -0.6587 -0.1167 -0.1066
   69MOL0     C 9241   9.930   0.486   2.890 -0.1080 -1.2172 -0.4845
   69MOL0     C 9242   9.870   0.393   2.788 -0.1364  0.0384  0.2926
   69MOL0     C 9243   9.746   0.455   2.723 -0.2194 -0.0434  0.2084
   69MOL0     C 9244   9.638   0.464   2.822  1.0503  0.3197  0.3891
   69MOL0     C 9245   9.528   0.488   2.884  0.0535  0.1589 -0.7100
   69MOL0     C 9246  10.289   0.552   3.171 -0.2585  0.1066  0.2614
   69MOL0     C 9247  10.421   0.530   3.224  0.3007 -0.5763 -0.2041
   69MOL0     H 9248  10.859   0.169   3.044 -1.3439 -0.6550  0.5775
   69MOL0     H 9249  11.094   0.158   3.031 -1.1054  0.0702  0.6602
   69MOL0     H 9250  11.284   0.472   3.243 -1.2551 -0.4544 -1.2402
   69MOL0     H 9251  11.399   0.371   3.325 -0.6119 -3.9738  0.6208
   69MOL0     H 9252  11.387   0.476   3.027  1.8791 -0.5316 -0.7659
   69MOL0     H 9253  11.495   0.531   3.140 -0.0899  0.8900 -2.4575
   69MOL0     H 9254  11.602   0.319   3.190 -1.6059  0.7596  1.1000
   69MOL0     H 9255  11.510   0.231   3.072  1.7352 -1.2183  2.2096
   69MOL0     H 9256  11.690   0.280   2.928  0.5933  0.7535 -2.0157
   69MOL0     H 9257  11.613   0.428   2.904  1.8200 -0.1331 -0.1130
   69MOL0     H 9258  11.747   0.513   3.124 -0.8565 -2.4451  1.9755
   69MOL0     H 9259  11.825   0.357   3.114 -0.3334 -0.1566 -0.2528
   69MOL0     H 9260  11.931   0.418   2.901 -0.9188 -1.2680 -0.0097
   69MOL0     H 9261  11.813   0.544   2.864 -0.1725  1.3786  0.8366
   69MOL0     H 9262  11.886   0.683   3.063 -2.0755 -1.7670 -0.8435
   69MOL0     H 9263  12.033   0.586   3.074 -1.5123 -0.5224  1.8133
   69MOL0     H 9264  11.934   0.728   2.826 -2.9336  1.5805  2.9913
   69MOL0     H 9265  12.090   0.649   2.828 -1.4679 -1.7439 -1.8961
   69MOL0     H 9266  12.253   0.752   3.058  2.5943  1.6998  1.7801
   69MOL0     H 9267  12.399   1.023   3.098  0.4108  2.6166  0.0468
   69MOL0     H 9268  12.269   1.128   3.146  1.3582  0.1276  1.8253
   69MOL0     H 9269  12.334   0.878   3.301 -0.5875 -0.0616  0.7979
   69MOL0     H 9270  12.179   0.950   3.319  0.4398 -1.8511  0.9963
   69MOL0     H 9271  12.445   1.103   3.343  0.6243  2.4606  2.1045
   69MOL0     H 9272  12.389   1.011   3.476 -0.5394  0.2047  0.5284
   69MOL0     H 9273  12.162   1.136   3.437 -0.5951  1.7730 -3.3994
   69MOL0     H 9274  12.274   1.260   3.361 -1.3151 -0.3667 -0.6535
   69MOL0     H 9275  12.109   1.403   3.464  1.7061  0.4085 -0.7299
   69MOL0     H 9276  12.043   1.703   3.530  3.8729 -2.5584 -1.3322
   69MOL0     H 9277  11.931   1.559   3.503  1.0924 -0.7157 -0.4249
   69MOL0     H 9278  11.925   1.646   3.652 -0.3048  1.3405 -0.3698
   69MOL0     H 9279  12.148   1.792   4.080  0.0412 -0.6345 -1.0731
   69MOL0     H 9280  12.068   1.878   4.297 -1.6504  1.6899  1.4569
   69MOL0     H 9281  11.761   1.770   4.543  1.2300  0.1237  2.8684
   69MOL0     H 9282  11.911   1.715   4.476  1.2924  0.1075  0.2063
   69MOL0     H 9283  12.016   1.943   4.521  0.3818  0.4806  1.3503
   69MOL0     H 9284  11.859   2.002   4.577 -1.2094 -1.0950  0.6521
   69MOL0     H 9285  12.046   1.803   4.706 -0.2468 -1.5775 -0.3333
   69MOL0     H 9286  11.884   1.770   4.731 -1.2846  0.2951 -1.7758
   69MOL0     H 9287  12.038   2.041   4.796 -1.2623  0.9223  1.9408
   69MOL0     H 9288  11.872   2.011   4.841 -1.3122 -2.1397 -1.0655
   69MOL0     H 9289  12.086   1.814   4.921 -1.4527 -1.0201 -2.7060
   69MOL0     H 9290  11.919   1.825   4.969 -0.8743 -0.7135 -0.6731
   69MOL0     H 9291  12.130   2.033   5.041  1.6445 -1.8001  0.2955
   69MOL0     H 9292  11.952   2.034   5.082  0.3604  1.2375 -1.4652
   69MOL0     H 9293  12.132   1.989   5.246  0.8539  0.8922 -1.0193
   69MOL0     H 9294  12.166   1.840   5.142 -0.7317 -0.0031 -0.6555
   69MOL0     H 9295  12.016   1.784   5.355 -0.1686  0.4090  0.6105
   69MOL0     H 9296  11.932   1.750   5.202 -0.0930  2.0387 -1.8234
   69MOL0     H 9297  11.687   1.700   4.216  0.6587  0.1303  2.9904
   69MOL0     H 9298  11.778   1.591   4.010  0.2413 -2.6984  2.9023
   69MOL0     H 9299  12.317   1.508   3.892  0.9034 -0.5713 -0.2100
   69MOL0     H 9300  12.380   1.304   3.780  0.7248  1.4780  0.8425
   69MOL0     H 9301  11.136   0.361   3.391  1.3787 -4.8786  0.0733
   69MOL0     H 9302  10.895   0.405   3.398 -0.9871 -1.8026  0.1487
   69MOL0     H 9303  10.534   0.294   3.016 -0.1589  0.2866  0.8354
   69MOL0     H 9304  10.295   0.310   2.930 -0.4803 -1.3180  0.5390
   69MOL0     H 9305  10.128   0.501   2.824 -0.1263 -1.8052 -0.6083
   69MOL0     H 9306  10.088   0.352   2.912  0.1212 -0.0785 -2.0143
   69MOL0     H 9307   9.924   0.589   2.853 -1.0529 -1.0827  0.0205
   69MOL0     H 9308   9.875   0.474   2.984  2.0807 -1.2851  0.8662
   69MOL0     H 9309   9.846   0.307   2.851 -1.6703 -1.3176 -1.9963
   69MOL0     H 9310   9.947   0.368   2.715  2.7650 -1.7905  3.6725
   69MOL0     H 9311   9.715   0.398   2.635 -0.1594 -1.1284  0.8692
   69MOL0     H 9312   9.773   0.553   2.684  1.2317 -1.4369 -2.6075
   69MOL0     H 9313   9.429   0.491   2.923 -0.6049 -1.6191 -2.1012
   69MOL0     H 9314  10.212   0.625   3.193 -1.2414 -0.5947 -0.7533
   69MOL0     H 9315  10.458   0.592   3.305 -0.7520  0.8761 -0.7732
   70MOL0     O 9316   5.363   0.659   1.734  0.1280  0.3279 -0.5949
   70MOL0     C 9317   5.389   0.774   1.716 -1.2445 -0.3200  0.0493
   70MOL0     O 9318   5.503   0.830   1.753  0.6260  0.3749 -0.4917
   70MOL0     C 9319   5.612   0.747   1.760 -0.2802 -0.3640 -0.1847
   70MOL0     C 9320   5.639   0.676   1.877 -0.8433  0.7561 -0.3504
   70MOL0     C 9321   5.770   0.606   1.902  0.4845 -0.8186  0.3788
   70MOL0     C 9322   5.872   0.611   1.817 -0.1921 -0.0210 -0.2977
   70MOL0     O 9323   5.987   0.533   1.824  0.2406  0.0418 -0.4410
   70MOL0     C 9324   6.007   0.439   1.932 -0.2917 -0.4466 -0.0527
   70MOL0     C 9325   6.050   0.514   2.062 -0.6653  0.8031  0.6707
   70MOL0     C 9326   6.198   0.569   2.044  1.2391  0.5369 -0.1970
   70MOL0     C 9327   6.242   0.642   2.166 -0.3754  0.4925  0.4586
   70MOL0     C 9328   6.396   0.639   2.166  0.0274  0.6324  0.9707
   70MOL0     C 9329   6.468   0.722   2.044 -0.2856 -0.4109 -1.1371
   70MOL0     C 9330   6.612   0.753   2.075  0.7099 -0.1234 -0.1776
   70MOL0     C 9331   6.626   0.859   2.182  0.1114  0.3635  0.3027
   70MOL0     N 9332   6.735   0.831   2.279  0.0102 -0.1124  0.5006
   70MOL0     C 9333   6.868   0.839   2.255 -0.2903 -0.2297 -0.1247
   70MOL0     C 9334   6.930   0.789   2.363 -1.1708 -1.2065  0.0819
   70MOL0     C 9335   7.078   0.762   2.379  0.7640 -0.5921  0.2442
   70MOL0     C 9336   7.088   0.611   2.362 -0.5273  0.7428  0.2382
   70MOL0     C 9337   7.049   0.553   2.224 -0.0246 -0.0207  0.2540
   70MOL0     C 9338   7.109   0.408   2.204  0.3616 -0.0073 -0.1252
   70MOL0     O 9339   7.072   0.367   2.070  0.3267 -1.2115 -0.4047
   70MOL0     C 9340   6.934   0.330   2.054  0.0926  0.9353 -0.1828
   70MOL0     C 9341   6.879   0.346   1.924  0.4599  0.9111 -0.2379
   70MOL0     C 9342   6.748   0.327   1.881  0.0805  0.4636 -0.2916
   70MOL0     C 9343   6.719   0.327   1.736  0.5450 -0.2153 -0.3202
   70MOL0     C 9344   6.659   0.284   1.983  0.9670  0.9118 -0.0836
   70MOL0     C 9345   6.519   0.249   1.961 -0.4569  0.3140  0.7432
   70MOL0     O 9346   6.464   0.158   2.050  0.1300 -0.0244 -0.3759
   70MOL0     C 9347   6.336   0.108   2.051 -0.5305 -1.2040  0.2856
   70MOL0     C 9348   6.244   0.111   1.958  0.0628  0.0632 -0.3476
   70MOL0     C 9349   6.124   0.050   1.975  0.5859  0.5615  0.2373
   70MOL0     C 9350   6.075   0.004   2.096  0.1765 -0.6717  0.4218
   70MOL0     O 9351   5.950  -0.037   2.111  1.0757 -0.1617  0.0928
   70MOL0     C 9352   5.931  -0.176   2.133 -0.4110  0.0457 -0.1350
   70MOL0     C 9353   5.784  -0.212   2.165  0.0104 -0.2700  0.3332
   70MOL0     C 9354   5.762  -0.361   2.177 -0.7214 -0.0908 -0.3949
   70MOL0     C 9355   5.765  -0.415   2.036  0.3113 -0.4425  1.1484
   70MOL0     C 9356   5.664  -0.527   2.030  0.1321 -0.2288 -0.5516
   70MOL0     C 9357   5.660  -0.623   1.911 -0.2035  0.4702 -0.4903
   70MOL0     C 9358   5.801  -0.664   1.870  0.2718 -0.0441  0.6893
   70MOL0     C 9359   5.825  -0.801   1.818  0.6305  0.6835  0.1569
   70MOL0    Cl 9360   5.705  -0.865   1.703  0.1505 -0.3920 -0.1660
   70MOL0     C 9361   6.175   0.005   2.192  0.5207 -0.4588  0.5312
   70MOL0     C 9362   6.311   0.035   2.165 -0.1436 -0.8313  0.3183
   70MOL0     O 9363   6.452   0.304   1.870 -0.1850 -0.4844 -0.2158
   70MOL0     C 9364   6.710   0.260   2.112  0.4463  0.6480 -0.6262
   70MOL0     C 9365   6.841   0.279   2.151  0.5375 -0.0225  0.7268
   70MOL0     N 9366   6.831   0.754   2.458 -0.5977  1.0352 -0.3864
   70MOL0     N 9367   6.714   0.772   2.408 -0.1885  0.0491 -0.2052
   70MOL0     C 9368   5.851   0.697   1.713  0.2752 -1.3094  0.3084
   70MOL0     C 9369   5.726   0.776   1.688 -0.3193  0.3515  0.0608
   70MOL0     C 9370   5.289   0.855   1.645  0.0989  0.2467  0.6560
   70MOL0     C 9371   5.180   0.783   1.583  0.5238  0.2193  0.7783
   70MOL0     C 9372   5.093   0.864   1.507  1.1651  1.5517  0.6214
   70MOL0     C 9373   5.104   1.006   1.485 -0.5506 -0.1234 -0.2452
   70MOL0     O 9374   5.010   1.077   1.407 -0.3164  0.3316  0.2787
   70MOL0     C 9375   4.882   1.009   1.372 -0.2333 -0.0568 -0.5173
   70MOL0     C 9376   4.868   0.915   1.257  0.4054  0.5426  0.9094
   70MOL0     C 9377   4.936   0.977   1.133 -0.2488  0.4921 -0.9440
   70MOL0     C 9378   4.913   0.895   1.010 -0.6110  0.0563  0.5399
   70MOL0     C 9379   4.787   0.915   0.938  0.3029  1.5454  0.0589
   70MOL0     C 9380   4.691   0.920   0.871  0.5172  0.8788  0.3276
   70MOL0     C 9381   5.221   1.061   1.537  0.9219  0.0121  0.1189
   70MOL0     C 9382   5.308   0.983   1.618 -0.5722 -0.8759 -0.6357
   70MOL0     H 9383   5.566   0.666   1.956 -1.6615  0.9833 -1.0647
   70MOL0     H 9384   5.779   0.561   2.001  1.5649  1.7784  1.5710
   70MOL0     H 9385   5.914   0.384   1.948 -0.7019  0.1409 -0.3821
   70MOL0     H 9386   6.082   0.361   1.914 -1.9610 -1.5744 -2.8001
   70MOL0     H 9387   5.983   0.601   2.072 -0.5312  1.0135 -0.1915
   70MOL0     H 9388   6.040   0.450   2.150  0.8700 -0.6836 -0.1783
   70MOL0     H 9389   6.261   0.481   2.025 -1.6284 -1.4661 -1.0491
   70MOL0     H 9390   6.205   0.635   1.957 -1.9091 -1.2768 -1.9974
   70MOL0     H 9391   6.209   0.746   2.163  0.4190  0.7437  0.3437
   70MOL0     H 9392   6.206   0.600   2.260  2.0779 -2.3466  0.2741
   70MOL0     H 9393   6.432   0.682   2.260  2.5668  1.4291 -0.2574
   70MOL0     H 9394   6.432   0.536   2.171  0.6072  0.6526 -1.4545
   70MOL0     H 9395   6.473   0.657   1.956  1.9718  0.6573 -1.8774
   70MOL0     H 9396   6.411   0.813   2.025  1.9017  2.1013  2.8112
   70MOL0     H 9397   6.662   0.665   2.117 -0.6055 -0.7063  0.2403
   70MOL0     H 9398   6.669   0.771   1.984  3.0926 -4.3351  0.2497
   70MOL0     H 9399   6.534   0.874   2.240  0.0433  0.4871  0.1637
   70MOL0     H 9400   6.651   0.951   2.128  3.6771 -0.2492  0.6878
   70MOL0     H 9401   6.917   0.888   2.171 -0.4066  3.1116  1.6196
   70MOL0     H 9402   7.138   0.813   2.303 -1.2226  0.1341 -0.9310
   70MOL0     H 9403   7.103   0.814   2.472  2.2410  1.1942 -1.0655
   70MOL0     H 9404   7.021   0.561   2.433 -1.8994  1.6080 -0.3965
   70MOL0     H 9405   7.187   0.573   2.389 -0.9023 -0.6002 -0.1877
   70MOL0     H 9406   7.083   0.620   2.144 -2.3530  0.7987 -0.1382
   70MOL0     H 9407   6.940   0.547   2.218 -0.2767  2.5268  1.0189
   70MOL0     H 9408   7.067   0.337   2.276 -1.0798  0.5868 -0.3536
   70MOL0     H 9409   7.218   0.411   2.216  0.2645 -0.8999  1.3545
   70MOL0     H 9410   6.948   0.377   1.846  1.2950 -3.2653 -1.3903
   70MOL0     H 9411   6.680   0.425   1.706  2.2973  1.1810  1.6954
   70MOL0     H 9412   6.805   0.308   1.672  0.8378  1.2382 -0.3899
   70MOL0     H 9413   6.645   0.255   1.700 -0.0296  0.0795  0.2337
   70MOL0     H 9414   6.266   0.156   1.861  3.7833 -1.1891 -0.2519
   70MOL0     H 9415   6.060   0.073   1.891  1.0985 -1.0398 -0.6243
   70MOL0     H 9416   5.951  -0.231   2.041 -1.1702 -0.9704  0.2903
   70MOL0     H 9417   5.999  -0.222   2.206  0.9294  1.0443 -0.7124
   70MOL0     H 9418   5.775  -0.167   2.265  1.4115 -2.3877  1.5008
   70MOL0     H 9419   5.704  -0.169   2.104 -0.8678 -0.4899  1.3027
   70MOL0     H 9420   5.664  -0.388   2.217 -0.5046 -2.2906 -1.2540
   70MOL0     H 9421   5.838  -0.408   2.239 -1.1420 -1.4489 -0.8865
   70MOL0     H 9422   5.751  -0.338   1.960 -0.4139 -2.2019 -0.6063
   70MOL0     H 9423   5.866  -0.450   2.016 -0.6111 -4.3455  2.3096
   70MOL0     H 9424   5.564  -0.485   2.046  0.2450  0.5398 -1.7757
   70MOL0     H 9425   5.681  -0.594   2.115 -1.2248  0.4502  0.2953
   70MOL0     H 9426   5.588  -0.701   1.938  2.0081 -1.1792  1.0052
   70MOL0     H 9427   5.609  -0.571   1.830 -1.6159 -2.5791 -1.7513
   70MOL0     H 9428   5.875  -0.644   1.948  1.2216  2.7985 -0.7742
   70MOL0     H 9429   5.840  -0.594   1.796  0.9425  0.9763  1.9699
   70MOL0     H 9430   5.824  -0.874   1.900 -0.6925 -1.2432 -1.4657
   70MOL0     H 9431   5.921  -0.794   1.765  1.3833 -1.1322  1.1619
   70MOL0     H 9432   6.146  -0.035   2.289  1.7279  0.3465  1.2567
   70MOL0     H 9433   6.386   0.016   2.242 -0.1283 -2.9357 -0.1772
   70MOL0     H 9434   6.658   0.208   2.192  0.6480  2.4025  0.7130
   70MOL0     H 9435   6.870   0.254   2.252  4.1128 -0.1297 -0.1653
   70MOL0     H 9436   5.939   0.704   1.649  0.4147 -1.8146  0.4462
   70MOL0     H 9437   5.724   0.853   1.612  2.2822  0.4645 -0.0109
   70MOL0     H 9438   5.151   0.684   1.617 -2.3614  0.1374 -1.4698
   70MOL0     H 9439   5.016   0.799   1.467  1.8612  1.0584  0.0709
   70MOL0     H 9440   4.843   0.953   1.458  2.4057 -0.7650  0.3018
   70MOL0     H 9441   4.813   1.094   1.361 -0.8361 -0.1556  1.9227
   70MOL0     H 9442   4.765   0.897   1.225  0.7614 -0.0644  0.0561
   70MOL0     H 9443   4.914   0.820   1.287 -0.6345 -0.5473 -0.7704
   70MOL0     H 9444   5.041   0.974   1.164  0.5366  0.8682 -3.4116
   70MOL0     H 9445   4.905   1.082   1.127  0.8243  1.0155  1.3656
   70MOL0     H 9446   4.913   0.788   1.034  0.4748  0.1040  0.7710
   70MOL0     H 9447   4.984   0.931   0.936 -3.3445  0.7557 -1.9594
   70MOL0     H 9448   4.598   0.921   0.818 -1.4190  1.7825  3.4514
   70MOL0     H 9449   5.222   1.169   1.549  0.1936  0.1509 -0.9830
   70MOL0     H 9450   5.385   1.032   1.677 -4.8092  1.8584  3.3186
   71MOL0     O 9451   9.642   5.081   7.992 -0.2523 -0.5929 -0.0077
   71MOL0     C 9452   9.688   4.967   7.987  0.4647  0.1427 -0.8166
   71MOL0     O 9453   9.653   4.871   7.889  0.4752 -0.3313  0.4347
   71MOL0     C 9454   9.550   4.896   7.803  0.4348 -0.4197  0.7573
   71MOL0     C 9455   9.565   4.929   7.667 -0.7767 -0.4691  0.0381
   71MOL0     C 9456   9.458   4.950   7.579  0.0714  0.1339  0.2882
   71MOL0     C 9457   9.322   4.933   7.628 -0.1936  0.1844 -0.2891
   71MOL0     O 9458   9.212   4.931   7.555 -0.1526 -0.1302  0.6936
   71MOL0     C 9459   9.203   4.926   7.404 -0.5144  0.5904 -0.6224
   71MOL0     C 9460   9.124   5.045   7.360 -0.9531  0.4190  0.4427
   71MOL0     C 9461   9.129   5.047   7.206  0.3913  0.6548 -0.9918
   71MOL0     C 9462   9.120   5.188   7.143 -0.4218  0.5382 -0.6508
   71MOL0     C 9463   8.989   5.270   7.177 -0.8557 -0.2509  0.0718
   71MOL0     C 9464   8.854   5.195   7.159  0.2458  0.1672  1.0093
   71MOL0     C 9465   8.800   5.174   7.006 -0.4286 -0.9158 -0.2593
   71MOL0     C 9466   8.746   5.311   6.947 -0.2183  0.0515  0.3702
   71MOL0     N 9467   8.683   5.282   6.818  0.0377  0.8209 -0.0976
   71MOL0     C 9468   8.725   5.211   6.710  0.3279  0.4369 -0.8248
   71MOL0     C 9469   8.612   5.187   6.640  0.1602  0.2323  0.8877
   71MOL0     C 9470   8.596   5.087   6.531 -0.7863  0.1664  0.8208
   71MOL0     C 9471   8.515   4.969   6.566  0.5884  0.1782 -0.2248
   71MOL0     C 9472   8.601   4.871   6.645 -0.0213 -0.3307  0.8218
   71MOL0     C 9473   8.519   4.779   6.732  0.3677  0.9174 -0.4569
   71MOL0     O 9474   8.556   4.783   6.868 -0.6938  0.1788 -0.3916
   71MOL0     C 9475   8.461   4.842   6.944 -0.3379 -0.1128  0.4286
   71MOL0     C 9476   8.399   4.772   7.053 -0.7272 -0.4606  0.6323
   71MOL0     C 9477   8.292   4.835   7.112  0.3329  0.5120  0.8188
   71MOL0     C 9478   8.207   4.751   7.194  0.3630 -0.0311 -0.5712
   71MOL0     C 9479   8.263   4.974   7.088 -0.1666 -0.8809 -0.1849
   71MOL0     C 9480   8.156   5.058   7.156 -0.0356  0.1035  0.2283
   71MOL0     O 9481   8.124   5.171   7.101  0.1097  1.0003  0.3788
   71MOL0     C 9482   8.014   5.235   7.155  0.2079  0.0906 -0.0604
   71MOL0     C 9483   8.022   5.283   7.285 -0.9371  0.1963  0.4390
   71MOL0     C 9484   7.911   5.353   7.337  0.5115  1.0486  0.1412
   71MOL0     C 9485   7.794   5.368   7.270  0.0434  0.3150  0.0358
   71MOL0     O 9486   7.685   5.420   7.332  0.2321  0.3750  0.1459
   71MOL0     C 9487   7.562   5.423   7.257 -0.2840 -0.2816 -0.7465
   71MOL0     C 9488   7.447   5.482   7.348 -0.9549 -0.3781 -0.7129
   71MOL0     C 9489   7.444   5.419   7.486  0.0336  0.8035 -0.4989
   71MOL0     C 9490   7.305   5.455   7.550  0.4936 -0.2085  0.4139
   71MOL0     C 9491   7.297   5.416   7.696  0.4565  0.5633 -0.1691
   71MOL0     C 9492   7.260   5.270   7.707 -0.3310  1.1791 -0.4339
   71MOL0     C 9493   7.224   5.231   7.851  0.4613  0.5928  0.1551
   71MOL0     C 9494   7.229   5.082   7.880  0.9983  1.0342  0.4228
   71MOL0    Cl 9495   7.119   5.003   7.773 -0.0436  0.3543 -0.1807
   71MOL0     C 9496   7.791   5.323   7.140 -0.1481  0.5605  0.7837
   71MOL0     C 9497   7.901   5.256   7.079  0.5576  0.1232 -0.3688
   71MOL0     O 9498   8.099   5.002   7.248  0.2538 -0.3265  0.2988
   71MOL0     C 9499   8.348   5.043   7.003 -0.0296 -0.0689  0.4187
   71MOL0     C 9500   8.431   4.979   6.921 -0.2710  0.1949  0.0034
   71MOL0     N 9501   8.506   5.259   6.699  0.1279 -0.3315  0.1200
   71MOL0     N 9502   8.551   5.301   6.805 -0.3832  0.1754 -1.6033
   71MOL0     C 9503   9.307   4.900   7.763 -0.7239  0.0546 -0.2597
   71MOL0     C 9504   9.420   4.883   7.847  0.1441 -0.2938  0.4134
   71MOL0     C 9505   9.773   4.919   8.100 -0.2349  0.4828  0.1728
   71MOL0     C 9506   9.708   4.879   8.209 -0.2761 -0.5674  0.2931
   71MOL0     C 9507   9.791   4.821   8.319 -0.2084 -0.1029  0.1774
   71MOL0     C 9508   9.924   4.817   8.321  0.3281 -0.1337 -0.6919
   71MOL0     O 9509  10.001   4.773   8.424  0.0783 -0.6730  0.4669
   71MOL0     C 9510   9.947   4.673   8.511 -0.2524 -0.1760  0.0079
   71MOL0     C 9511   9.974   4.522   8.466  0.1085 -0.2297  0.0430
   71MOL0     C 9512  10.120   4.511   8.436 -0.3065  0.3412 -0.0984
   71MOL0     C 9513  10.149   4.366   8.427  0.9155  0.2493 -0.5338
   71MOL0     C 9514  10.293   4.348   8.395 -0.6945  0.8721 -0.6422
   71MOL0     C 9515  10.415   4.343   8.374  0.1212 -0.3479 -0.0033
   71MOL0     C 9516   9.990   4.857   8.203 -0.8907  0.8966 -0.4797
   71MOL0     C 9517   9.916   4.907   8.090 -0.1203 -0.3466  0.3054
   71MOL0     H 9518   9.661   4.934   7.617 -0.0296  0.1099  1.4700
   71MOL0     H 9519   9.479   4.977   7.476 -0.0874  0.2102  0.2752
   71MOL0     H 9520   9.305   4.914   7.367  0.2021 -0.9323  1.6461
   71MOL0     H 9521   9.144   4.838   7.377  2.0380 -0.7729 -2.1989
   71MOL0     H 9522   9.019   5.026   7.383 -0.2190 -1.8287  2.2880
   71MOL0     H 9523   9.178   5.134   7.393  1.7948 -1.3300  0.9617
   71MOL0     H 9524   9.230   5.014   7.182  0.3354 -0.5043  0.2108
   71MOL0     H 9525   9.058   4.979   7.158 -0.6816  2.0461 -1.4366
   71MOL0     H 9526   9.208   5.249   7.165 -0.9112  0.3940  1.9176
   71MOL0     H 9527   9.122   5.175   7.034  2.7590 -1.9081 -0.4383
   71MOL0     H 9528   8.985   5.294   7.284 -0.5901 -2.5604  0.6460
   71MOL0     H 9529   8.986   5.363   7.120  0.2854  0.3373  0.9257
   71MOL0     H 9530   8.851   5.102   7.216  3.2888  1.0315  2.8547
   71MOL0     H 9531   8.774   5.252   7.206 -1.7737  1.2317 -3.2600
   71MOL0     H 9532   8.883   5.136   6.945  0.2104 -0.3100  0.2241
   71MOL0     H 9533   8.713   5.107   7.008 -0.5327 -0.7716  0.1083
   71MOL0     H 9534   8.838   5.370   6.943  0.7866 -1.4740  0.4364
   71MOL0     H 9535   8.682   5.366   7.017  0.5442  1.1534  0.2295
   71MOL0     H 9536   8.823   5.163   6.711 -0.0245 -0.3232  1.4004
   71MOL0     H 9537   8.554   5.138   6.443  1.2010 -1.9369 -1.5038
   71MOL0     H 9538   8.695   5.053   6.499  0.0359  1.2297  2.1571
   71MOL0     H 9539   8.476   4.918   6.477  0.6508 -0.2914  0.0157
   71MOL0     H 9540   8.432   4.999   6.630 -1.2020 -2.7698 -0.9966
   71MOL0     H 9541   8.664   4.937   6.705  0.1585  0.0186  0.2575
   71MOL0     H 9542   8.665   4.814   6.577  1.5205  3.8090 -1.5786
   71MOL0     H 9543   8.551   4.679   6.702  5.3756  2.8869 -2.6992
   71MOL0     H 9544   8.415   4.807   6.714  0.3467  1.1482  0.0160
   71MOL0     H 9545   8.416   4.670   7.086 -0.6273 -0.0089  2.0210
   71MOL0     H 9546   8.102   4.759   7.163  0.5245  3.0332 -0.6620
   71MOL0     H 9547   8.243   4.648   7.188 -1.3072 -0.6073 -1.2200
   71MOL0     H 9548   8.215   4.781   7.299  2.3968  1.9536 -1.2156
   71MOL0     H 9549   8.115   5.260   7.337 -0.3721  0.4598 -0.4375
   71MOL0     H 9550   7.902   5.372   7.443  1.6152 -0.8364  0.6204
   71MOL0     H 9551   7.578   5.482   7.167  2.0123 -0.8355 -0.7616
   71MOL0     H 9552   7.528   5.324   7.225  1.1165 -0.7856 -0.7760
   71MOL0     H 9553   7.460   5.590   7.361 -2.7241 -0.0402 -1.5370
   71MOL0     H 9554   7.353   5.465   7.295 -0.3285  0.0550 -2.0256
   71MOL0     H 9555   7.521   5.456   7.554 -1.5605  2.2839  0.6084
   71MOL0     H 9556   7.451   5.310   7.489  1.3007  0.8554  3.1964
   71MOL0     H 9557   7.283   5.561   7.540 -4.7203 -1.1222 -1.0816
   71MOL0     H 9558   7.215   5.418   7.498  1.0342 -0.5510 -0.3028
   71MOL0     H 9559   7.217   5.486   7.724  1.5986  2.1728 -0.8198
   71MOL0     H 9560   7.388   5.446   7.750 -0.2308  4.2017 -0.7352
   71MOL0     H 9561   7.185   5.233   7.636 -0.3036  2.2894 -1.0664
   71MOL0     H 9562   7.346   5.215   7.669 -1.1029 -0.5357  0.1893
   71MOL0     H 9563   7.132   5.285   7.874  0.1413 -0.6888  2.0881
   71MOL0     H 9564   7.295   5.280   7.919  1.0434  2.5214 -1.7010
   71MOL0     H 9565   7.196   5.051   7.980 -1.3923  0.1386 -0.5801
   71MOL0     H 9566   7.321   5.034   7.845  0.8186 -0.8807  2.3387
   71MOL0     H 9567   7.698   5.322   7.084 -1.3137  0.2659  2.6356
   71MOL0     H 9568   7.906   5.220   6.977  5.4415 -0.9222 -0.0124
   71MOL0     H 9569   8.335   5.150   6.988 -4.4821 -0.4926 -0.0756
   71MOL0     H 9570   8.492   5.029   6.846  1.1660 -1.7956 -0.2328
   71MOL0     H 9571   9.214   4.867   7.807  1.1768  2.1058  6.5186
   71MOL0     H 9572   9.397   4.871   7.952 -0.1004  2.5427  0.7462
   71MOL0     H 9573   9.599   4.873   8.208 -0.2244 -1.4692 -0.7591
   71MOL0     H 9574   9.726   4.796   8.403  0.6945 -2.1611  0.3099
   71MOL0     H 9575  10.004   4.686   8.604  0.4418  0.3614 -0.4820
   71MOL0     H 9576   9.842   4.683   8.540 -0.3878 -2.8600  0.6940
   71MOL0     H 9577   9.921   4.509   8.371  2.4579  0.2327 -1.4299
   71MOL0     H 9578   9.959   4.442   8.539  2.0049 -0.9794 -0.3219
   71MOL0     H 9579  10.179   4.561   8.514 -0.1434 -0.4829  0.3100
   71MOL0     H 9580  10.154   4.547   8.338 -0.5919  3.8298  0.9401
   71MOL0     H 9581  10.096   4.315   8.346  1.5728 -2.9050  0.8522
   71MOL0     H 9582  10.127   4.310   8.518 -2.9612 -3.7881 -3.4910
   71MOL0     H 9583  10.521   4.336   8.359 -0.0188 -0.8829 -0.8093
   71MOL0     H 9584  10.098   4.858   8.189 -0.6030 -1.0608  1.1344
   71MOL0     H 9585   9.974   4.946   8.007 -0.1651  0.7871  0.7947
   72MOL0     O 9586   4.071   0.510  11.400 -0.2345  0.0128  0.1203
   72MOL0     C 9587   4.135   0.584  11.468  0.1868 -0.2501 -0.6985
   72MOL0     O 9588   4.113   0.712  11.490 -0.2523  0.8495 -0.0197
   72MOL0     C 9589   3.981   0.760  11.482  0.8981  0.4030 -0.4528
   72MOL0     C 9590   3.867   0.693  11.540 -0.8644 -0.4962  0.7257
   72MOL0     C 9591   3.734   0.748  11.517  0.4194 -0.6978 -0.7630
   72MOL0     C 9592   3.714   0.872  11.463  0.6632 -0.3601  0.6897
   72MOL0     O 9593   3.578   0.909  11.467 -0.3539  0.3312  1.3687
   72MOL0     C 9594   3.549   1.022  11.382 -0.2330 -0.3197  0.0998
   72MOL0     C 9595   3.537   0.990  11.231  0.7864  0.4612  0.1615
   72MOL0     C 9596   3.455   0.867  11.193  0.4527  0.3131 -0.2570
   72MOL0     C 9597   3.535   0.735  11.179  0.5517  0.4821  0.5559
   72MOL0     C 9598   3.441   0.621  11.207  0.1945 -0.1587 -0.5490
   72MOL0     C 9599   3.519   0.491  11.178  0.2993  0.4905  0.4111
   72MOL0     C 9600   3.644   0.453  11.273 -0.1689 -0.6779  0.4051
   72MOL0     C 9601   3.621   0.416  11.418  1.0828  0.2785  0.2965
   72MOL0     N 9602   3.546   0.290  11.439  1.1965 -0.2313 -0.1134
   72MOL0     C 9603   3.419   0.286  11.492  0.5627  0.0537  1.2169
   72MOL0     C 9604   3.392   0.148  11.478  0.9098  0.4209 -0.1664
   72MOL0     C 9605   3.253   0.085  11.518  0.1834  0.0865  0.2184
   72MOL0     C 9606   3.154   0.176  11.460  0.1128  0.0617 -0.0264
   72MOL0     C 9607   3.012   0.104  11.459  0.2435 -0.6978  0.6925
   72MOL0     C 9608   2.915   0.197  11.382  0.6750  0.4400 -0.1334
   72MOL0     O 9609   2.864   0.304  11.464 -0.1570 -0.5901 -0.2133
   72MOL0     C 9610   2.753   0.285  11.547 -0.2353 -0.6082  1.2759
   72MOL0     C 9611   2.702   0.396  11.611 -0.2134 -0.3326  0.2208
   72MOL0     C 9612   2.587   0.390  11.693  1.3761 -0.4717  0.4640
   72MOL0     C 9613   2.541   0.527  11.748 -0.3691 -0.6002 -0.2429
   72MOL0     C 9614   2.527   0.265  11.730 -0.1601 -0.1010  0.4710
   72MOL0     C 9615   2.406   0.238  11.824 -0.8891  0.6909 -0.4064
   72MOL0     O 9616   2.360   0.112  11.820  1.3661  0.0137 -0.4390
   72MOL0     C 9617   2.255   0.064  11.902  0.2086 -0.7984 -0.6962
   72MOL0     C 9618   2.128   0.131  11.902  0.0189 -0.4600 -0.1307
   72MOL0     C 9619   2.034   0.078  11.990  0.0307 -0.4476  0.3449
   72MOL0     C 9620   2.054  -0.028  12.078 -0.0226  0.5902 -0.1174
   72MOL0     O 9621   1.957  -0.070  12.168  0.2595  0.2581  0.2373
   72MOL0     C 9622   1.998  -0.127  12.294  0.4369  0.0315  1.2125
   72MOL0     C 9623   2.053  -0.014  12.391 -0.6829  0.4031 -0.2707
   72MOL0     C 9624   1.963   0.096  12.438  0.4146 -0.5915 -0.8075
   72MOL0     C 9625   1.880   0.054  12.559 -0.4499 -0.2155 -0.1535
   72MOL0     C 9626   1.765   0.154  12.582 -0.7435 -0.4687  0.1164
   72MOL0     C 9627   1.638   0.148  12.493  0.1220  0.2849 -0.2440
   72MOL0     C 9628   1.538   0.257  12.540  0.3556 -0.8468  0.4026
   72MOL0     C 9629   1.418   0.238  12.456 -0.1175 -0.4282 -0.0590
   72MOL0    Cl 9630   1.275   0.299  12.533 -0.3716  0.0680  0.1582
   72MOL0     C 9631   2.186  -0.083  12.080 -0.2479  0.2872 -1.0327
   72MOL0     C 9632   2.275  -0.044  11.988  0.0758  0.6145 -0.2811
   72MOL0     O 9633   2.387   0.325  11.906  0.3276  0.5492  0.0318
   72MOL0     C 9634   2.593   0.154  11.680 -0.2042 -0.1704  0.4610
   72MOL0     C 9635   2.696   0.159  11.584 -0.2130 -0.5703 -0.2669
   72MOL0     N 9636   3.502   0.076  11.437  0.1094 -0.1807 -0.1409
   72MOL0     N 9637   3.592   0.171  11.412 -0.1681  0.2466  0.5747
   72MOL0     C 9638   3.829   0.948  11.430  0.3715  0.1332  0.6737
   72MOL0     C 9639   3.962   0.893  11.432  0.3853 -0.7196 -0.8908
   72MOL0     C 9640   4.252   0.529  11.546 -0.5398  0.8513 -0.8169
   72MOL0     C 9641   4.302   0.394  11.509 -0.4951 -0.4296  0.9145
   72MOL0     C 9642   4.404   0.347  11.584  0.1969 -0.2348 -0.7865
   72MOL0     C 9643   4.471   0.416  11.685  0.6207  0.9383  0.7425
   72MOL0     O 9644   4.571   0.348  11.734  0.1932 -0.1529  0.1140
   72MOL0     C 9645   4.696   0.393  11.685  1.0459  0.8593 -0.7234
   72MOL0     C 9646   4.764   0.476  11.800  0.1305  0.1557 -0.2085
   72MOL0     C 9647   4.888   0.555  11.767 -0.7257  0.1018 -0.1686
   72MOL0     C 9648   5.000   0.472  11.693  0.3414 -0.5221  0.0711
   72MOL0     C 9649   5.113   0.567  11.678  0.9476  0.0091 -0.0526
   72MOL0     C 9650   5.203   0.644  11.683  0.4376 -0.0105 -0.4021
   72MOL0     C 9651   4.438   0.546  11.711  0.5604  0.1085  1.0196
   72MOL0     C 9652   4.323   0.596  11.643  0.6917 -0.1958 -0.3089
   72MOL0     H 9653   3.877   0.594  11.583 -4.0748 -1.7633 -1.0659
   72MOL0     H 9654   3.655   0.685  11.558 -0.7151  0.3868 -1.2023
   72MOL0     H 9655   3.452   1.064  11.408  0.5882  0.5506  1.9691
   72MOL0     H 9656   3.613   1.110  11.390 -0.9977  0.5772 -2.7236
   72MOL0     H 9657   3.477   1.074  11.196  1.7076  0.4893 -1.4474
   72MOL0     H 9658   3.636   0.986  11.183  1.1412 -3.9843  0.8013
   72MOL0     H 9659   3.384   0.856  11.275  0.1681  2.7925 -0.0828
   72MOL0     H 9660   3.382   0.887  11.114 -0.1271 -0.9919 -0.0649
   72MOL0     H 9661   3.583   0.728  11.080 -0.1740  1.9442  0.0636
   72MOL0     H 9662   3.611   0.736  11.257  0.7199 -2.1039  0.5058
   72MOL0     H 9663   3.420   0.613  11.314  0.6443  1.0491 -0.3549
   72MOL0     H 9664   3.350   0.630  11.147 -0.6821 -1.7229  0.4655
   72MOL0     H 9665   3.444   0.413  11.189  0.6521 -0.2596 -1.9785
   72MOL0     H 9666   3.547   0.483  11.073 -2.3333  1.2754 -0.4065
   72MOL0     H 9667   3.694   0.370  11.221 -1.4159  0.1805 -2.3245
   72MOL0     H 9668   3.718   0.534  11.264 -0.8058 -0.3233 -2.4802
   72MOL0     H 9669   3.563   0.500  11.457  2.7800  0.5242  2.4165
   72MOL0     H 9670   3.714   0.412  11.475  0.7345 -1.3833  0.7988
   72MOL0     H 9671   3.355   0.367  11.524 -0.0594  1.3584 -2.7608
   72MOL0     H 9672   3.257  -0.010  11.465  1.7861  0.9171 -1.2549
   72MOL0     H 9673   3.231   0.079  11.625 -2.1852 -1.2460 -0.2789
   72MOL0     H 9674   3.183   0.205  11.359  1.3755  2.4375  0.9318
   72MOL0     H 9675   3.149   0.270  11.516  2.8370  0.4938 -0.3738
   72MOL0     H 9676   2.986   0.074  11.560  3.5539 -2.3086  1.1929
   72MOL0     H 9677   3.012   0.007  11.409 -0.5039 -0.8979  1.0766
   72MOL0     H 9678   2.830   0.142  11.339 -0.5831  1.2715  1.1692
   72MOL0     H 9679   2.960   0.244  11.293 -1.6284 -1.7043 -2.6303
   72MOL0     H 9680   2.760   0.486  11.593  0.6389 -0.3298  2.6373
   72MOL0     H 9681   2.508   0.532  11.852  1.6311 -0.1040  0.4097
   72MOL0     H 9682   2.625   0.597  11.743 -0.9472  0.2054  0.8742
   72MOL0     H 9683   2.452   0.564  11.697 -0.3832 -0.0629  0.1652
   72MOL0     H 9684   2.099   0.214  11.838 -0.9820 -0.5211  0.2280
   72MOL0     H 9685   1.938   0.128  11.989  0.9656  1.6754  3.6203
   72MOL0     H 9686   1.911  -0.181  12.332 -0.5678  0.1615 -0.7270
   72MOL0     H 9687   2.069  -0.206  12.268 -0.5897 -0.3374 -0.7242
   72MOL0     H 9688   2.083  -0.068  12.481  2.0335  1.6211 -0.3603
   72MOL0     H 9689   2.143   0.029  12.345  0.4633 -0.8652  0.7045
   72MOL0     H 9690   1.902   0.130  12.354 -0.3077 -0.4369 -0.2315
   72MOL0     H 9691   2.023   0.183  12.466 -2.0276  0.2418  2.6179
   72MOL0     H 9692   1.842  -0.048  12.541  1.8573 -1.0522 -0.6260
   72MOL0     H 9693   1.950   0.040  12.642  0.5888 -3.5674 -1.3911
   72MOL0     H 9694   1.804   0.256  12.577  0.8115 -0.8267  3.0664
   72MOL0     H 9695   1.737   0.137  12.686  0.2046 -2.6570  0.0588
   72MOL0     H 9696   1.666   0.161  12.388  2.5136 -3.8385 -0.3304
   72MOL0     H 9697   1.604   0.045  12.506  0.9034  0.0714  0.1867
   72MOL0     H 9698   1.578   0.358  12.522  0.2567 -1.2596 -2.7776
   72MOL0     H 9699   1.512   0.244  12.645  1.0400 -1.2518  0.5217
   72MOL0     H 9700   1.398   0.131  12.445 -2.1556 -0.4583  2.8677
   72MOL0     H 9701   1.444   0.285  12.360 -1.1221  0.8920  0.2911
   72MOL0     H 9702   2.212  -0.162  12.149  0.1044 -0.6848 -2.2528
   72MOL0     H 9703   2.375  -0.085  11.994  0.2717  0.7053 -2.1653
   72MOL0     H 9704   2.573   0.058  11.727  1.5387 -0.0501  1.5154
   72MOL0     H 9705   2.744   0.069  11.548  0.5687  0.5615 -2.2404
   72MOL0     H 9706   3.821   1.052  11.399  1.6117 -0.1911 -0.8502
   72MOL0     H 9707   4.051   0.952  11.412 -0.1323  0.3789 -0.0702
   72MOL0     H 9708   4.259   0.341  11.425 -1.6565  1.3582  0.3142
   72MOL0     H 9709   4.431   0.248  11.548 -1.0149 -1.1942  0.8157
   72MOL0     H 9710   4.766   0.312  11.665  0.5591 -0.3430  2.0398
   72MOL0     H 9711   4.688   0.469  11.606 -0.3409  2.7494  1.1282
   72MOL0     H 9712   4.768   0.411  11.889  0.7451  2.6330  1.6738
   72MOL0     H 9713   4.690   0.541  11.848  0.3573 -1.5078  2.6916
   72MOL0     H 9714   4.915   0.589  11.867 -1.5266  1.2534 -0.3142
   72MOL0     H 9715   4.868   0.648  11.712  1.7587  1.3369  0.8499
   72MOL0     H 9716   4.955   0.444  11.597 -0.4353 -0.9992  0.5665
   72MOL0     H 9717   5.033   0.387  11.753 -2.0271 -0.5340  1.4805
   72MOL0     H 9718   5.292   0.702  11.697 -0.6680  1.5334  0.5543
   72MOL0     H 9719   4.498   0.601  11.782  2.7035 -1.8995  0.9353
   72MOL0     H 9720   4.280   0.687  11.682 -1.5642 -1.0086 -0.7430
   73MOL0     O 9721   5.610   7.559   3.905 -0.0076  0.2026 -0.1935
   73MOL0     C 9722   5.704   7.496   3.959  0.6861 -1.2663 -0.5046
   73MOL0     O 9723   5.772   7.551   4.073  0.0454 -1.1822  0.4618
   73MOL0     C 9724   5.746   7.670   4.135  0.3231 -0.0837 -0.8051
   73MOL0     C 9725   5.620   7.733   4.141  0.6754 -0.5321 -0.1906
   73MOL0     C 9726   5.598   7.828   4.236 -0.8050  0.5731 -0.9946
   73MOL0     C 9727   5.700   7.870   4.332  0.2417  0.3274  1.0101
   73MOL0     O 9728   5.655   7.955   4.440 -0.9167  0.0646  0.4615
   73MOL0     C 9729   5.744   8.056   4.497  0.3588  0.7018  0.8186
   73MOL0     C 9730   5.660   8.143   4.577 -1.4806  0.0393 -0.1580
   73MOL0     C 9731   5.571   8.238   4.500 -0.4133  0.6440 -0.3538
   73MOL0     C 9732   5.505   8.355   4.574  0.3348 -0.8930 -0.1813
   73MOL0     C 9733   5.412   8.418   4.479 -0.1532 -0.1597  0.0309
   73MOL0     C 9734   5.354   8.552   4.518 -1.0450  0.8226  0.2249
   73MOL0     C 9735   5.245   8.610   4.419 -0.5413  0.7522 -0.0989
   73MOL0     C 9736   5.314   8.718   4.338  0.2212 -1.0068 -0.2948
   73MOL0     N 9737   5.208   8.792   4.265  0.1835 -0.6027 -0.0205
   73MOL0     C 9738   5.155   8.920   4.280  0.4443 -0.3005 -0.6919
   73MOL0     C 9739   5.069   8.951   4.174 -0.5110  0.3063  0.4482
   73MOL0     C 9740   4.993   9.090   4.154 -0.6644 -0.0008  0.2301
   73MOL0     C 9741   4.845   9.083   4.205  0.1195 -0.5756 -0.4258
   73MOL0     C 9742   4.733   9.173   4.147  0.2023 -0.8117  0.2208
   73MOL0     C 9743   4.762   9.324   4.169  0.0780  0.2910  0.1991
   73MOL0     O 9744   4.672   9.411   4.087  0.2001  0.2550 -0.7182
   73MOL0     C 9745   4.539   9.409   4.115  0.4686 -0.2467  0.3531
   73MOL0     C 9746   4.494   9.464   4.240 -0.3029  0.5885 -0.3796
   73MOL0     C 9747   4.355   9.487   4.262 -0.1310  0.1020  0.2931
   73MOL0     C 9748   4.318   9.536   4.398  0.1831 -0.2086 -0.2517
   73MOL0     C 9749   4.260   9.458   4.154  0.1497 -0.5940  0.7994
   73MOL0     C 9750   4.115   9.470   4.158  0.3101  0.7889  0.0377
   73MOL0     O 9751   4.054   9.358   4.110 -0.1851  0.9804 -1.2455
   73MOL0     C 9752   3.920   9.352   4.136 -0.5736 -0.2051  0.2635
   73MOL0     C 9753   3.830   9.391   4.042  0.4077 -0.6932  0.1763
   73MOL0     C 9754   3.693   9.355   4.040  1.0276 -0.0853  0.0830
   73MOL0     C 9755   3.650   9.265   4.135  0.8739  0.5459  1.0643
   73MOL0     O 9756   3.518   9.218   4.124  0.3743 -1.0003 -1.4753
   73MOL0     C 9757   3.484   9.096   4.191  0.5141  0.5129  0.5749
   73MOL0     C 9758   3.360   9.020   4.134  0.7461 -0.4569 -1.1560
   73MOL0     C 9759   3.329   8.895   4.216  0.2503 -0.5665  0.1637
   73MOL0     C 9760   3.448   8.792   4.225 -0.4913  0.9863  0.2442
   73MOL0     C 9761   3.436   8.684   4.341  0.5245 -0.6151  0.5079
   73MOL0     C 9762   3.293   8.620   4.337 -0.4242  0.3109 -0.4037
   73MOL0     C 9763   3.297   8.515   4.441 -0.1005 -0.4398 -0.2950
   73MOL0     C 9764   3.164   8.448   4.457 -0.0524 -0.1844 -0.5097
   73MOL0    Cl 9765   3.155   8.315   4.338 -0.6045 -0.2085 -0.3960
   73MOL0     C 9766   3.740   9.223   4.239  0.3320  0.8105  0.1814
   73MOL0     C 9767   3.874   9.269   4.238 -0.1880  0.2907 -0.1979
   73MOL0     O 9768   4.065   9.568   4.203 -0.4583  0.0855  0.5485
   73MOL0     C 9769   4.317   9.413   4.029  1.5413 -1.2844  0.5017
   73MOL0     C 9770   4.455   9.383   4.013  0.4338  0.0990  0.5038
   73MOL0     N 9771   5.077   8.840   4.081  0.0968  0.2649 -0.3124
   73MOL0     N 9772   5.165   8.765   4.136 -0.0538  0.8137  0.0435
   73MOL0     C 9773   5.823   7.829   4.317  0.2035  0.9566  0.9831
   73MOL0     C 9774   5.846   7.730   4.222 -0.1287  0.6518  0.1136
   73MOL0     C 9775   5.763   7.368   3.913  1.4713  0.2819  0.2645
   73MOL0     C 9776   5.879   7.323   3.971 -0.1939  0.5461  0.8045
   73MOL0     C 9777   5.930   7.202   3.930  0.1394  1.0497 -0.3670
   73MOL0     C 9778   5.874   7.118   3.838 -0.3758 -0.8206 -0.1724
   73MOL0     O 9779   5.935   6.999   3.805 -0.0466  0.5507  0.3842
   73MOL0     C 9780   5.866   6.923   3.705 -0.2221 -0.0762 -0.6159
   73MOL0     C 9781   5.870   6.978   3.558  0.0208 -0.8111 -1.1807
   73MOL0     C 9782   6.023   7.027   3.528  0.4711  0.5807 -0.4552
   73MOL0     C 9783   6.051   7.063   3.389  0.3476 -1.6517  0.3449
   73MOL0     C 9784   5.971   7.184   3.332  0.4174  0.6520  0.5452
   73MOL0     C 9785   5.885   7.259   3.287  0.6495  0.4804 -0.0461
   73MOL0     C 9786   5.751   7.160   3.786 -0.7250 -0.2059  0.1298
   73MOL0     C 9787   5.686   7.271   3.840 -0.9598  0.2005  0.5621
   73MOL0     H 9788   5.535   7.698   4.083 -0.8553  2.4822 -0.0120
   73MOL0     H 9789   5.501   7.876   4.245  0.1361  2.2225  1.1990
   73MOL0     H 9790   5.828   8.018   4.556  1.6019 -0.2980 -1.4532
   73MOL0     H 9791   5.787   8.109   4.411  1.4999  2.3903  2.3489
   73MOL0     H 9792   5.612   8.067   4.639  1.2082 -2.6485 -1.1087
   73MOL0     H 9793   5.718   8.204   4.647 -1.1955 -0.7763  0.3387
   73MOL0     H 9794   5.636   8.275   4.421  2.9468 -1.5874  1.1502
   73MOL0     H 9795   5.497   8.177   4.447  0.7489 -0.2335 -0.9926
   73MOL0     H 9796   5.449   8.313   4.658 -0.0728  0.3584  0.1947
   73MOL0     H 9797   5.581   8.411   4.631 -0.2162 -1.9874  1.7201
   73MOL0     H 9798   5.446   8.422   4.375  1.0195 -1.3843  0.3474
   73MOL0     H 9799   5.323   8.354   4.473 -0.6360  0.5890 -1.4601
   73MOL0     H 9800   5.301   8.524   4.610  2.6492 -0.6134  2.1376
   73MOL0     H 9801   5.423   8.635   4.535 -3.5403  3.3669 -1.3435
   73MOL0     H 9802   5.213   8.531   4.351  3.4808 -1.1925 -0.0594
   73MOL0     H 9803   5.170   8.661   4.479  0.3663  1.4813  0.4424
   73MOL0     H 9804   5.401   8.688   4.278  0.8596 -1.9145  1.0384
   73MOL0     H 9805   5.348   8.786   4.416 -3.6455 -0.1257  0.8309
   73MOL0     H 9806   5.191   8.986   4.358 -4.6367  2.9736 -0.6744
   73MOL0     H 9807   5.046   9.174   4.201 -0.8263 -0.1476  0.6822
   73MOL0     H 9808   4.998   9.109   4.046  1.0842 -0.3160  0.2222
   73MOL0     H 9809   4.854   9.109   4.311 -3.6290  3.7148 -0.8537
   73MOL0     H 9810   4.818   8.977   4.211  1.7142 -0.9601  0.6353
   73MOL0     H 9811   4.637   9.159   4.197 -1.1347  0.4384 -1.8311
   73MOL0     H 9812   4.723   9.140   4.043  2.4899 -2.9582  0.5895
   73MOL0     H 9813   4.866   9.339   4.138 -0.4425  0.0098 -1.8208
   73MOL0     H 9814   4.744   9.345   4.275 -0.4978  0.4325  0.0760
   73MOL0     H 9815   4.570   9.461   4.318 -0.6144 -3.9869  0.0234
   73MOL0     H 9816   4.218   9.497   4.418 -0.6533  2.0527  0.2300
   73MOL0     H 9817   4.388   9.511   4.478  2.7930 -1.8179 -2.8223
   73MOL0     H 9818   4.315   9.645   4.389 -0.0142 -0.1575  0.3917
   73MOL0     H 9819   3.874   9.422   3.948 -0.4871 -3.9245 -1.4605
   73MOL0     H 9820   3.632   9.400   3.963  0.7161  1.4475  1.1708
   73MOL0     H 9821   3.570   9.029   4.178  0.0114 -0.1302  0.4554
   73MOL0     H 9822   3.468   9.123   4.296  1.5001  0.0051  0.8730
   73MOL0     H 9823   3.276   9.090   4.132 -1.6253 -3.0945  0.1647
   73MOL0     H 9824   3.368   8.990   4.029 -1.3779 -3.0868 -0.6675
   73MOL0     H 9825   3.240   8.849   4.172 -0.3216 -0.0551  0.7684
   73MOL0     H 9826   3.298   8.942   4.310  1.6078  1.0691 -0.1626
   73MOL0     H 9827   3.446   8.732   4.134 -1.6608  0.5608  0.5231
   73MOL0     H 9828   3.550   8.832   4.223  0.0741 -0.3805  0.5198
   73MOL0     H 9829   3.462   8.732   4.436  1.0367  1.0491 -0.4191
   73MOL0     H 9830   3.515   8.608   4.335  2.6155  1.4581 -0.0151
   73MOL0     H 9831   3.223   8.693   4.377 -0.2180 -0.6553  1.8849
   73MOL0     H 9832   3.260   8.586   4.238 -0.0895  0.8150 -0.6898
   73MOL0     H 9833   3.306   8.574   4.533  2.4029  0.4716 -1.0329
   73MOL0     H 9834   3.381   8.448   4.420 -0.0948  0.2793 -2.9850
   73MOL0     H 9835   3.074   8.509   4.456 -0.3766 -0.6462 -1.9246
   73MOL0     H 9836   3.177   8.416   4.561  0.6456  0.8069 -0.2795
   73MOL0     H 9837   3.724   9.149   4.316 -0.1311 -0.3978 -1.0299
   73MOL0     H 9838   3.936   9.231   4.318  1.5386  3.9118  0.3444
   73MOL0     H 9839   4.246   9.395   3.950 -2.3693  4.6058  2.0141
   73MOL0     H 9840   4.505   9.343   3.925 -0.2187 -0.0625  0.2051
   73MOL0     H 9841   5.911   7.859   4.373  3.5762 -1.0308 -2.7191
   73MOL0     H 9842   5.945   7.687   4.225  0.2073  1.3818 -0.5830
   73MOL0     H 9843   5.945   7.368   4.045 -1.9755  4.3676  0.2947
   73MOL0     H 9844   6.014   7.160   3.985 -1.2623 -0.2653  0.8610
   73MOL0     H 9845   5.925   6.831   3.699 -0.7385 -0.3294 -3.0035
   73MOL0     H 9846   5.763   6.912   3.739 -0.6047  1.7246 -1.1085
   73MOL0     H 9847   5.804   7.064   3.545  0.5292 -0.5355 -2.0430
   73MOL0     H 9848   5.841   6.901   3.485  0.5217 -0.7543 -1.4436
   73MOL0     H 9849   6.087   6.948   3.569 -2.2246 -1.1943  0.6488
   73MOL0     H 9850   6.044   7.108   3.600 -0.3197 -0.5415  1.1096
   73MOL0     H 9851   6.042   6.968   3.336 -0.1682 -2.7283  2.2580
   73MOL0     H 9852   6.155   7.096   3.382  0.3657 -1.7802  0.0057
   73MOL0     H 9853   5.817   7.323   3.235 -0.2751 -0.8032 -0.4902
   73MOL0     H 9854   5.694   7.097   3.719  0.2807 -1.4554  0.4111
   73MOL0     H 9855   5.580   7.279   3.817 -0.9906 -1.7833 -0.1183
   74MOL0     O 9856   5.533   9.741   1.248 -0.0603  0.3774 -0.3365
   74MOL0     C 9857   5.561   9.687   1.359  0.1938  0.4770  0.2500
   74MOL0     O 9858   5.650   9.587   1.385  0.2233  0.3113  0.5611
   74MOL0     C 9859   5.685   9.507   1.281  0.6182 -0.3026  0.3153
   74MOL0     C 9860   5.816   9.523   1.226 -0.2557  1.0943 -0.0228
   74MOL0     C 9861   5.861   9.453   1.106 -0.1410  0.4306  0.2441
   74MOL0     C 9862   5.767   9.367   1.040  0.2278 -0.3826 -0.2767
   74MOL0     O 9863   5.797   9.287   0.930 -0.7860  0.3376  0.1370
   74MOL0     C 9864   5.855   9.367   0.823  0.0900  0.1519  0.2831
   74MOL0     C 9865   5.771   9.338   0.703  0.3099 -0.2981  0.9750
   74MOL0     C 9866   5.787   9.426   0.578 -0.2999 -0.0503  1.3359
   74MOL0     C 9867   5.917   9.405   0.504 -0.6647 -0.2870  0.7012
   74MOL0     C 9868   5.913   9.461   0.363 -0.2743  0.3763  0.3355
   74MOL0     C 9869   6.043   9.448   0.292  0.6101  0.5133  0.3334
   74MOL0     C 9870   6.033   9.487   0.153  0.8676 -0.0444  0.1684
   74MOL0     C 9871   5.981   9.631   0.130  0.5610 -0.1730 -0.1302
   74MOL0     N 9872   6.001   9.691  -0.002 -0.5441  0.4032 -0.4339
   74MOL0     C 9873   6.090   9.802  -0.018 -0.0881 -0.1372 -0.6318
   74MOL0     C 9874   6.078   9.826  -0.156 -0.3442 -0.1148  0.1582
   74MOL0     C 9875   6.142   9.928  -0.235  0.6114 -1.0277 -0.3287
   74MOL0     C 9876   6.229  10.034  -0.160  1.3121  0.5199 -0.1911
   74MOL0     C 9877   6.370   9.972  -0.125 -0.2744 -0.5647  0.0156
   74MOL0     C 9878   6.458  10.071  -0.043 -0.2665 -0.0159  0.5885
   74MOL0     O 9879   6.589  10.039  -0.075 -0.6950 -0.2570 -0.0753
   74MOL0     C 9880   6.700  10.132  -0.056  0.9343 -0.2300  0.1995
   74MOL0     C 9881   6.689  10.254   0.015  0.5448  0.1791  0.1722
   74MOL0     C 9882   6.788  10.353   0.011  0.3983 -0.5528  0.0733
   74MOL0     C 9883   6.762  10.477   0.094 -0.1899  0.3540 -0.3296
   74MOL0     C 9884   6.913  10.320  -0.047 -0.3366 -0.1574 -0.7951
   74MOL0     C 9885   7.036  10.403  -0.038  0.6126  0.3597 -0.4840
   74MOL0     O 9886   7.148  10.355  -0.101 -0.7749 -0.7909 -0.2431
   74MOL0     C 9887   7.248  10.453  -0.107 -0.5975  0.9131  0.6426
   74MOL0     C 9888   7.251  10.537  -0.218  0.0415 -0.4257  0.4766
   74MOL0     C 9889   7.341  10.655  -0.221 -0.0301 -0.4200 -0.3444
   74MOL0     C 9890   7.441  10.673  -0.118 -1.1956  0.8521  0.2706
   74MOL0     O 9891   7.523  10.777  -0.138  0.2330  0.4764  0.2443
   74MOL0     C 9892   7.630  10.805  -0.045  0.1430 -0.1172 -0.2872
   74MOL0     C 9893   7.763  10.752  -0.095 -0.4473  0.8102 -0.1432
   74MOL0     C 9894   7.891  10.778  -0.008  0.7772 -0.5054 -0.5710
   74MOL0     C 9895   8.020  10.693  -0.031  0.3279 -0.9439 -0.6882
   74MOL0     C 9896   8.143  10.762   0.031  0.1516 -0.3276  0.1638
   74MOL0     C 9897   8.251  10.651   0.031 -0.2075 -0.3722 -0.1024
   74MOL0     C 9898   8.383  10.708   0.061 -0.0172  0.0409  0.0609
   74MOL0     C 9899   8.407  10.703   0.209  0.0496  0.1334 -0.3685
   74MOL0    Cl 9900   8.466  10.541   0.249 -0.0419 -0.1108  0.2051
   74MOL0     C 9901   7.443  10.568  -0.029  0.1602  0.6093  0.2329
   74MOL0     C 9902   7.350  10.471  -0.015 -0.0212  0.3647 -0.8947
   74MOL0     O 9903   7.030  10.492   0.045 -0.2396 -1.0269  0.0445
   74MOL0     C 9904   6.932  10.196  -0.110  0.5875  0.3295 -0.4973
   74MOL0     C 9905   6.822  10.101  -0.119  0.1528  0.5417  0.1354
   74MOL0     N 9906   5.988   9.729  -0.202  1.2094  0.1498 -0.2739
   74MOL0     N 9907   5.935   9.656  -0.111 -0.0947 -0.5985 -0.3104
   74MOL0     C 9908   5.636   9.352   1.104  0.2590  0.2495 -0.4197
   74MOL0     C 9909   5.593   9.417   1.219  0.2356  0.0028  0.1013
   74MOL0     C 9910   5.495   9.745   1.476 -0.4868 -0.4294  0.5307
   74MOL0     C 9911   5.547   9.725   1.597 -0.8301 -0.2859  0.0003
   74MOL0     C 9912   5.483   9.776   1.703 -0.7706 -0.6763 -0.9403
   74MOL0     C 9913   5.363   9.849   1.698 -0.0445 -0.2851 -0.1763
   74MOL0     O 9914   5.311   9.913   1.806 -0.9257 -0.2848  0.3782
   74MOL0     C 9915   5.405   9.946   1.913 -0.5779 -0.5531 -0.0895
   74MOL0     C 9916   5.321  10.016   2.023 -0.0185 -0.6906  0.1688
   74MOL0     C 9917   5.300  10.170   1.997 -0.3716  0.5938  0.5092
   74MOL0     C 9918   5.164  10.219   2.046 -0.2619 -0.5373  0.5829
   74MOL0     C 9919   5.163  10.208   2.197  0.5635  0.2363 -0.5237
   74MOL0     C 9920   5.153  10.202   2.320  0.2401  0.6040  0.0195
   74MOL0     C 9921   5.307   9.858   1.575  0.2052 -0.3411  0.1500
   74MOL0     C 9922   5.375   9.823   1.459  0.4586 -0.2955 -0.4680
   74MOL0     H 9923   5.887   9.578   1.287 -0.5194  0.5757  0.7684
   74MOL0     H 9924   5.967   9.455   1.083 -0.0361 -3.0425 -0.0926
   74MOL0     H 9925   5.868   9.475   0.832  2.6844  0.1661 -2.0979
   74MOL0     H 9926   5.959   9.337   0.806  0.1690  0.2432  0.6095
   74MOL0     H 9927   5.761   9.232   0.678  1.2053 -0.4946  1.4143
   74MOL0     H 9928   5.674   9.367   0.744  0.0150 -1.4271  1.0967
   74MOL0     H 9929   5.700   9.412   0.514  0.8762 -3.3084  0.2479
   74MOL0     H 9930   5.766   9.532   0.593 -0.3850  0.4389 -1.7758
   74MOL0     H 9931   5.996   9.456   0.560  1.4081 -2.9643  0.4406
   74MOL0     H 9932   5.955   9.302   0.504 -0.5717 -0.2901  2.6300
   74MOL0     H 9933   5.847   9.407   0.295 -0.8757 -1.4145  2.2607
   74MOL0     H 9934   5.874   9.563   0.374  0.5170  0.5030  2.3826
   74MOL0     H 9935   6.108   9.521   0.342  0.6685  1.5740 -1.2388
   74MOL0     H 9936   6.084   9.347   0.296  0.2573  0.2712 -1.3502
   74MOL0     H 9937   6.134   9.478   0.114  1.3116  0.2515  1.2136
   74MOL0     H 9938   5.972   9.408   0.107  1.0223  0.8633 -1.6721
   74MOL0     H 9939   6.025   9.695   0.207 -1.0577  0.7634  0.0556
   74MOL0     H 9940   5.875   9.635   0.154  0.4591 -0.2012 -0.5718
   74MOL0     H 9941   6.148   9.856   0.056  0.5024 -1.7720  0.1447
   74MOL0     H 9942   6.194   9.879  -0.318 -2.1900  1.5412 -3.9389
   74MOL0     H 9943   6.056   9.980  -0.278  0.0622 -2.6509 -1.2943
   74MOL0     H 9944   6.163  10.075  -0.083 -0.3604 -0.4507 -1.0436
   74MOL0     H 9945   6.251  10.112  -0.234  5.3485  0.2507  0.5303
   74MOL0     H 9946   6.421   9.947  -0.219  0.2787 -0.4294  0.2744
   74MOL0     H 9947   6.361   9.879  -0.068  2.1228 -1.1423 -0.4452
   74MOL0     H 9948   6.443  10.048   0.063 -0.3068 -2.6870  0.0646
   74MOL0     H 9949   6.439  10.173  -0.079 -0.5309 -1.0930 -2.6540
   74MOL0     H 9950   6.589  10.282   0.048  0.0838 -0.8143 -0.3535
   74MOL0     H 9951   6.819  10.465   0.186  0.8324  3.5256 -0.4402
   74MOL0     H 9952   6.798  10.568   0.045  0.0627  0.2962 -0.2543
   74MOL0     H 9953   6.660  10.500   0.125  0.1657  2.3896 -0.5520
   74MOL0     H 9954   7.182  10.532  -0.301 -0.1995 -1.6056  0.7260
   74MOL0     H 9955   7.333  10.721  -0.306  0.1381  0.8695  0.6015
   74MOL0     H 9956   7.640  10.913  -0.058 -0.5917 -0.0323 -0.1889
   74MOL0     H 9957   7.616  10.794   0.063 -0.1850  1.6945 -0.1210
   74MOL0     H 9958   7.749  10.645  -0.076  0.4541  1.0490  2.1864
   74MOL0     H 9959   7.794  10.767  -0.199  2.8401 -2.8794  0.0663
   74MOL0     H 9960   7.865  10.777   0.098  3.5239  1.0942  0.2269
   74MOL0     H 9961   7.917  10.883  -0.025 -0.4743  0.0555  0.7450
   74MOL0     H 9962   8.008  10.596   0.018 -2.6428 -0.0634  0.5801
   74MOL0     H 9963   8.022  10.669  -0.137 -3.9895 -2.4309 -0.6366
   74MOL0     H 9964   8.122  10.815   0.124  1.9440  3.8507 -1.5458
   74MOL0     H 9965   8.172  10.841  -0.039  5.0431 -0.3850  1.8063
   74MOL0     H 9966   8.222  10.574   0.104 -3.1663  2.2542  1.7468
   74MOL0     H 9967   8.261  10.603  -0.067  1.6333  1.8062 -1.0554
   74MOL0     H 9968   8.392  10.813   0.034 -1.4722  0.1369 -0.1670
   74MOL0     H 9969   8.464  10.653   0.014  0.9765 -1.7255  3.4626
   74MOL0     H 9970   8.320  10.718   0.274 -1.4207 -2.2164 -1.6400
   74MOL0     H 9971   8.475  10.782   0.243 -1.5865  1.6173 -0.4096
   74MOL0     H 9972   7.516  10.560   0.051 -0.7500  0.2963  1.0549
   74MOL0     H 9973   7.340  10.419   0.080 -0.6726  0.8308 -0.6973
   74MOL0     H 9974   7.020  10.162  -0.164  2.4200 -0.6281  2.8012
   74MOL0     H 9975   6.832  10.007  -0.171 -1.0958  0.3593  0.1956
   74MOL0     H 9976   5.558   9.293   1.058 -1.0970  0.1520  1.8765
   74MOL0     H 9977   5.501   9.387   1.268  0.7295  2.0184  2.4527
   74MOL0     H 9978   5.639   9.669   1.608 -1.3108 -1.8170 -2.7081
   74MOL0     H 9979   5.536   9.760   1.797  2.1814  1.8532 -2.0171
   74MOL0     H 9980   5.455   9.860   1.959  2.8765  1.1744 -0.2834
   74MOL0     H 9981   5.496  10.004   1.896  0.8268 -2.3329  0.9352
   74MOL0     H 9982   5.360  10.004   2.124  0.4299 -0.7195 -0.0053
   74MOL0     H 9983   5.220   9.973   2.023 -0.5934  0.3666  3.6790
   74MOL0     H 9984   5.315  10.206   1.895 -0.7121 -1.2377 -0.2171
   74MOL0     H 9985   5.375  10.220   2.058  0.3492 -1.7977  1.6995
   74MOL0     H 9986   5.093  10.151   1.999  0.1104  0.3287 -1.3207
   74MOL0     H 9987   5.153  10.325   2.020  3.9587 -0.4826 -1.9837
   74MOL0     H 9988   5.160  10.195   2.427  0.6307  0.4278 -0.0160
   74MOL0     H 9989   5.211   9.909   1.570  0.5157  0.5071  1.9782
   74MOL0     H 9990   5.341   9.856   1.361 -0.2599 -0.2535 -0.2087
   75MOL0     O 9991  10.929   4.318  11.075 -0.5630  0.3181  1.4296
   75MOL0     C 9992  10.930   4.348  11.190  0.3741 -0.3695 -1.3545
   75MOL0     O 9993  11.031   4.364  11.271  0.0590  0.0171  0.1208
   75MOL0     C 9994  11.162   4.370  11.221  0.6052 -0.3372 -0.3824
   75MOL0     C 9995  11.257   4.324  11.319  0.0730 -0.5757  0.4487
   75MOL0     C 9996  11.396   4.354  11.295 -0.3055  0.2682 -0.3861
   75MOL0     C 9997  11.442   4.403  11.173 -0.6345 -0.0136  0.4752
   75MOL0     O 9998  11.575   4.434  11.140  0.9888 -0.0917 -0.1353
   75MOL0     C 9999  11.679   4.343  11.197  0.2809  0.1531 -0.0167
   75MOL0     C10000  11.782   4.320  11.089  0.4931 -0.2610 -0.6364
   75MOL0     C10001  11.901   4.245  11.157 -0.0912  0.7088  0.1635
   75MOL0     C10002  12.003   4.208  11.052  0.9494  1.4133 -0.3628
   75MOL0     C10003  12.081   4.330  11.005  0.3159 -0.1939 -1.1797
   75MOL0     C10004  12.138   4.316  10.858  0.3308  0.4275 -0.5292
   75MOL0     C10005  12.237   4.197  10.840  0.8312 -0.2290  0.4565
   75MOL0     C10006  12.310   4.206  10.702 -0.4015 -0.4971 -0.0369
   75MOL0     N10007  12.226   4.154  10.601  0.4924 -1.0552  0.7785
   75MOL0     C10008  12.183   4.031  10.572  0.0464  0.4108  0.6672
   75MOL0     C10009  12.119   4.032  10.450  1.0580 -0.5971 -0.6973
   75MOL0     C10010  12.067   3.921  10.369  0.8693  1.1345 -0.4814
   75MOL0     C10011  12.167   3.895  10.257  1.0410  0.8104  0.0861
   75MOL0     C10012  12.107   3.796  10.151  0.1222  0.1960 -0.0260
   75MOL0     C10013  12.118   3.648  10.183 -0.4928  0.1643  0.1537
   75MOL0     O10014  12.250   3.607  10.194  0.5214  0.6485 -0.5869
   75MOL0     C10015  12.260   3.482  10.246  0.1675  0.4046 -0.2156
   75MOL0     C10016  12.376   3.472  10.320  0.6507 -0.1603  0.0068
   75MOL0     C10017  12.411   3.356  10.394 -0.4381  0.6824 -0.1244
   75MOL0     C10018  12.524   3.374  10.492  0.1667  0.4256 -0.0177
   75MOL0     C10019  12.327   3.242  10.388 -0.2120  0.7184  0.1425
   75MOL0     C10020  12.344   3.124  10.474 -0.0015  0.4435  0.5707
   75MOL0     O10021  12.470   3.077  10.481  0.3346  0.1369 -0.0532
   75MOL0     C10022  12.503   2.972  10.565  1.1627 -0.5610 -0.4114
   75MOL0     C10023  12.550   2.850  10.513 -0.5547  0.0496 -0.8535
   75MOL0     C10024  12.571   2.741  10.603  0.7785 -0.4704  0.5795
   75MOL0     C10025  12.536   2.747  10.731 -0.3575 -0.5606  0.0202
   75MOL0     O10026  12.557   2.644  10.813  0.1700  0.5194  0.7083
   75MOL0     C10027  12.549   2.510  10.759  0.6017  0.3864 -0.5564
   75MOL0     C10028  12.564   2.420  10.887 -0.4382 -0.3534  0.5108
   75MOL0     C10029  12.705   2.444  10.959  0.9088 -0.1571 -0.0123
   75MOL0     C10030  12.725   2.332  11.062 -0.7672 -0.2261 -0.1844
   75MOL0     C10031  12.849   2.352  11.150 -0.4632 -0.3927 -0.0320
   75MOL0     C10032  12.914   2.217  11.202  0.5053  0.4323 -0.7055
   75MOL0     C10033  12.825   2.113  11.267  0.5193 -0.9389  0.3769
   75MOL0     C10034  12.899   1.995  11.318 -0.4626 -0.8558 -0.1330
   75MOL0    Cl10035  12.948   1.896  11.170  0.6021  0.1647  0.3084
   75MOL0     C10036  12.483   2.866  10.785  0.6175 -0.0023  0.0534
   75MOL0     C10037  12.472   2.980  10.709 -0.1251  0.3612  0.2894
   75MOL0     O10038  12.243   3.068  10.524  1.0252  0.6945 -0.1680
   75MOL0     C10039  12.208   3.252  10.313 -0.2310 -0.6815  0.1903
   75MOL0     C10040  12.179   3.369  10.233  0.3857  0.5552 -0.4139
   75MOL0     N10041  12.146   4.155  10.390 -0.4064  0.7964  0.0010
   75MOL0     N10042  12.198   4.226  10.484 -0.4619 -0.1063 -0.2118
   75MOL0     C10043  11.345   4.422  11.073  0.4884 -0.4947 -0.2829
   75MOL0     C10044  11.207   4.413  11.093 -0.4648 -0.1682  0.8211
   75MOL0     C10045  10.795   4.362  11.247 -0.3171  0.1142  0.1260
   75MOL0     C10046  10.767   4.369  11.385  0.2243 -1.0573  0.1614
   75MOL0     C10047  10.636   4.388  11.428  0.0588 -0.1626 -0.2681
   75MOL0     C10048  10.528   4.389  11.346 -0.3675  0.2162  0.4575
   75MOL0     O10049  10.400   4.388  11.403 -0.4179  0.1913  0.2455
   75MOL0     C10050  10.339   4.261  11.389  0.1621  0.4802 -0.0134
   75MOL0     C10051  10.213   4.252  11.475  0.3335  0.0288 -0.5977
   75MOL0     C10052  10.236   4.261  11.629 -0.3068  0.1646 -1.1302
   75MOL0     C10053  10.361   4.191  11.703  0.4985 -0.2285 -0.1491
   75MOL0     C10054  10.395   4.259  11.833  1.2685  0.1992  0.1679
   75MOL0     C10055  10.397   4.334  11.924  0.5468  0.7582 -0.7786
   75MOL0     C10056  10.551   4.392  11.212  0.4671  0.2467  0.6170
   75MOL0     C10057  10.679   4.381  11.167 -1.4073 -0.4533  0.4738
   75MOL0     H10058  11.213   4.310  11.418 -1.9848  2.1168  0.0186
   75MOL0     H10059  11.469   4.342  11.374 -2.0019  1.1765  1.4073
   75MOL0     H10060  11.715   4.388  11.290  0.0088 -1.3684  0.8534
   75MOL0     H10061  11.635   4.252  11.238 -2.2359  2.0616  1.8539
   75MOL0     H10062  11.747   4.266  11.000  1.3181 -0.9984 -0.5274
   75MOL0     H10063  11.811   4.419  11.053 -1.6143  1.1053  1.2104
   75MOL0     H10064  11.946   4.302  11.240 -3.1689  0.8956  1.8483
   75MOL0     H10065  11.864   4.149  11.194  1.4979  0.6939  1.9043
   75MOL0     H10066  12.083   4.143  11.090  1.6906  2.4160 -0.1597
   75MOL0     H10067  11.958   4.157  10.966  0.1887  0.8633  0.3522
   75MOL0     H10068  12.022   4.421  11.022  0.8544  0.2177 -1.4935
   75MOL0     H10069  12.168   4.357  11.067 -0.0667  3.2694 -1.9126
   75MOL0     H10070  12.062   4.304  10.780 -1.7654  2.5900  1.0094
   75MOL0     H10071  12.184   4.415  10.847  4.1373 -1.0274  0.6767
   75MOL0     H10072  12.306   4.215  10.923 -0.0226  0.0086  1.1257
   75MOL0     H10073  12.190   4.100  10.854  0.0740  0.1499  0.5872
   75MOL0     H10074  12.412   4.167  10.696 -0.4416 -0.6147  0.0440
   75MOL0     H10075  12.340   4.309  10.682 -1.7956 -0.1423 -0.3646
   75MOL0     H10076  12.198   3.951  10.644 -0.1526 -0.2056  0.0396
   75MOL0     H10077  12.044   3.828  10.422 -0.7455  0.2962 -2.5064
   75MOL0     H10078  11.967   3.939  10.330 -0.0999  0.5276  1.5593
   75MOL0     H10079  12.259   3.857  10.304  0.0864 -2.1414 -0.2446
   75MOL0     H10080  12.189   3.986  10.201  1.6778  0.5310 -0.1251
   75MOL0     H10081  12.163   3.804  10.057  0.6076  0.7926  0.3092
   75MOL0     H10082  12.001   3.820  10.138  0.6159  2.5678 -0.1141
   75MOL0     H10083  12.083   3.601  10.090 -0.8728 -1.2464  0.9789
   75MOL0     H10084  12.050   3.620  10.264  0.8355  1.5793  1.8349
   75MOL0     H10085  12.448   3.553  10.325  0.8785 -0.4080  1.0212
   75MOL0     H10086  12.539   3.478  10.520  1.3140  0.8540 -2.0330
   75MOL0     H10087  12.506   3.314  10.582 -0.0141  1.8245  0.9063
   75MOL0     H10088  12.620   3.346  10.448  0.0344 -0.9010  0.4734
   75MOL0     H10089  12.572   2.847  10.407  3.8396 -2.5788 -0.1061
   75MOL0     H10090  12.608   2.650  10.557 -1.2191 -0.5140 -1.1328
   75MOL0     H10091  12.449   2.491  10.718  0.2430  0.7743  0.1076
   75MOL0     H10092  12.630   2.488  10.689 -0.0254  1.8986 -1.8253
   75MOL0     H10093  12.475   2.437  10.948 -0.4371 -1.2477  0.7687
   75MOL0     H10094  12.571   2.316  10.855 -1.7737 -0.8406  1.6928
   75MOL0     H10095  12.707   2.537  11.016 -0.4442 -0.3678  0.4235
   75MOL0     H10096  12.788   2.436  10.889 -0.2139 -0.3289 -1.3761
   75MOL0     H10097  12.640   2.307  11.126 -0.9912 -0.6249 -0.6307
   75MOL0     H10098  12.750   2.254  10.989  0.4498  0.6043 -0.6918
   75MOL0     H10099  12.826   2.413  11.237 -1.4499  1.6159 -1.6119
   75MOL0     H10100  12.922   2.407  11.089 -2.2800  0.7934 -1.2450
   75MOL0     H10101  12.963   2.161  11.122  1.4132  0.5040 -0.2044
   75MOL0     H10102  12.991   2.246  11.274 -1.7081  0.3210  1.9016
   75MOL0     H10103  12.755   2.081  11.189 -0.4516  1.8841 -0.0429
   75MOL0     H10104  12.771   2.171  11.342  1.8136 -2.0451  2.2376
   75MOL0     H10105  12.839   1.924  11.375  2.1083 -2.1477  1.1186
   75MOL0     H10106  12.993   2.027  11.363 -1.5970  2.7274 -0.0390
   75MOL0     H10107  12.459   2.871  10.890 -0.8109  0.8029 -0.2811
   75MOL0     H10108  12.438   3.070  10.759 -1.9624 -0.2598  0.2389
   75MOL0     H10109  12.140   3.167  10.316 -3.8068  1.6785 -3.0794
   75MOL0     H10110  12.081   3.375  10.187 -0.2151  0.3580  0.7911
   75MOL0     H10111  11.376   4.462  10.976 -0.2316  2.7352  0.6772
   75MOL0     H10112  11.143   4.445  11.011  0.3990  0.6190  0.4422
   75MOL0     H10113  10.832   4.357  11.471 -0.6927 -0.6254  0.9315
   75MOL0     H10114  10.623   4.415  11.532  0.2635 -1.4470  0.1153
   75MOL0     H10115  10.308   4.237  11.287  1.5507 -0.5315 -0.2257
   75MOL0     H10116  10.414   4.190  11.424  0.2504  0.8461  0.5647
   75MOL0     H10117  10.141   4.171  11.459 -1.3688  1.5140 -0.6527
   75MOL0     H10118  10.156   4.334  11.431  0.3442 -0.8230 -2.3043
   75MOL0     H10119  10.150   4.228  11.687  0.0567  0.5521 -0.3623
   75MOL0     H10120  10.261   4.367  11.642  0.6861  0.0388 -1.9246
   75MOL0     H10121  10.455   4.198  11.648  1.7595 -0.6301  1.8673
   75MOL0     H10122  10.331   4.088  11.722 -3.4189  0.7889  0.0225
   75MOL0     H10123  10.399   4.412  11.997  0.5358  0.4923 -0.4936
   75MOL0     H10124  10.470   4.415  11.142  1.2094 -0.8600 -0.6637
   75MOL0     H10125  10.676   4.381  11.059 -0.8577  3.3076  0.3450
   76MOL0     O10126   2.488   9.265   4.086  0.6637 -0.4540 -0.5882
   76MOL0     C10127   2.452   9.224   4.200  0.2505 -0.7213 -0.1377
   76MOL0     O10128   2.487   9.276   4.319 -0.1474  0.7418  0.2547
   76MOL0     C10129   2.610   9.335   4.312  0.9130  0.7313 -0.5790
   76MOL0     C10130   2.623   9.478   4.298 -0.6899  0.1499 -1.1750
   76MOL0     C10131   2.744   9.542   4.321 -1.2301 -0.7691 -0.0696
   76MOL0     C10132   2.859   9.459   4.345 -0.6142 -0.9512  1.2220
   76MOL0     O10133   2.987   9.506   4.354 -0.3512 -0.1402 -0.2694
   76MOL0     C10134   3.015   9.629   4.425 -0.0490  0.0917  0.0877
   76MOL0     C10135   3.169   9.632   4.469 -0.0407 -0.0581  0.0778
   76MOL0     C10136   3.192   9.784   4.493 -0.4246  0.2832 -0.6303
   76MOL0     C10137   3.221   9.857   4.360  0.5957 -0.3016  0.3884
   76MOL0     C10138   3.277   9.996   4.374  0.4975  0.2825 -0.0240
   76MOL0     C10139   3.167  10.108   4.355  0.5245  0.9896  0.4436
   76MOL0     C10140   3.225  10.244   4.320  0.9224 -0.1880  0.0023
   76MOL0     C10141   3.355  10.292   4.396  0.4122  1.0086  0.1466
   76MOL0     N10142   3.321  10.330   4.536 -0.8637  0.6284 -0.7826
   76MOL0     C10143   3.395  10.395   4.632  0.3306  0.2455  0.0862
   76MOL0     C10144   3.318  10.408   4.744 -0.3944  1.2910  0.0490
   76MOL0     C10145   3.344  10.481   4.876  0.3885 -0.8854  0.9621
   76MOL0     C10146   3.472  10.428   4.947  0.3811  0.7485 -0.2660
   76MOL0     C10147   3.523  10.511   5.075  1.4920  0.9990 -0.1573
   76MOL0     C10148   3.554  10.654   5.035  0.0557  0.7525  0.1974
   76MOL0     O10149   3.679  10.674   4.959 -0.4008  0.0161  0.5891
   76MOL0     C10150   3.790  10.607   5.005 -0.9556 -0.2785  0.9411
   76MOL0     C10151   3.845  10.498   4.936  0.3697 -0.1545 -0.4329
   76MOL0     C10152   3.940  10.417   4.986  0.2506 -0.0774  0.6370
   76MOL0     C10153   3.986  10.309   4.881 -0.4831 -0.2387 -0.6358
   76MOL0     C10154   3.991  10.446   5.122  0.0325  0.4079  0.7553
   76MOL0     C10155   4.107  10.375   5.189 -0.1189 -0.0385  0.4876
   76MOL0     O10156   4.094  10.342   5.320  0.5376  0.5488 -0.4976
   76MOL0     C10157   4.174  10.246   5.364  1.4780  1.2081  0.7013
   76MOL0     C10158   4.118  10.118   5.378  0.3778 -0.6531  0.2805
   76MOL0     C10159   4.177  10.014   5.449 -0.2850 -0.1511  0.0246
   76MOL0     C10160   4.302  10.032   5.504 -0.1623  0.3283  0.0737
   76MOL0     O10161   4.348   9.929   5.579  0.1655 -0.2757 -0.1788
   76MOL0     C10162   4.419   9.833   5.502 -0.2062 -0.4719 -0.4565
   76MOL0     C10163   4.348   9.694   5.502  0.1087  0.2187  0.0148
   76MOL0     C10164   4.294   9.632   5.621  0.0290 -0.7922 -1.1668
   76MOL0     C10165   4.217   9.507   5.593  0.5304 -0.1832 -0.1840
   76MOL0     C10166   4.146   9.464   5.727 -0.3229  0.6265 -1.4153
   76MOL0     C10167   4.087   9.323   5.726  0.3038  0.8102 -0.3576
   76MOL0     C10168   4.062   9.286   5.869 -1.0716 -0.1601 -0.2203
   76MOL0     C10169   3.997   9.143   5.886  0.2498  0.7196 -0.4974
   76MOL0    Cl10170   3.920   9.123   6.042 -0.4235 -0.1563 -0.6397
   76MOL0     C10171   4.371  10.152   5.479  0.0138  1.0471 -0.1408
   76MOL0     C10172   4.309  10.255   5.407  1.2098  0.4029  0.0820
   76MOL0     O10173   4.211  10.355   5.117 -1.1704 -0.1613  0.3561
   76MOL0     C10174   3.938  10.561   5.185  0.8803 -0.4360  0.0096
   76MOL0     C10175   3.833  10.636   5.134 -0.0298 -0.0951 -0.1645
   76MOL0     N10176   3.201  10.328   4.726 -0.3684  0.3309 -0.0536
   76MOL0     N10177   3.207  10.291   4.599  0.3690 -0.3206 -0.1414
   76MOL0     C10178   2.847   9.315   4.353 -0.1415  0.4507  0.3500
   76MOL0     C10179   2.720   9.258   4.347  0.3055 -0.0981  0.9113
   76MOL0     C10180   2.345   9.122   4.208 -0.1475  0.2776 -0.6526
   76MOL0     C10181   2.248   9.125   4.312  1.0191  0.8252 -0.2241
   76MOL0     C10182   2.143   9.024   4.326  0.6789 -0.0029 -0.0328
   76MOL0     C10183   2.135   8.920   4.240  0.1135  0.5565 -0.0253
   76MOL0     O10184   2.041   8.828   4.270  0.4901 -0.1434  0.9186
   76MOL0     C10185   2.021   8.720   4.180 -0.3848  0.0938  1.5538
   76MOL0     C10186   1.919   8.630   4.257  0.1201  0.0493  0.1435
   76MOL0     C10187   1.787   8.705   4.277 -0.5130  0.8568 -0.4050
   76MOL0     C10188   1.682   8.645   4.364  0.9466  0.3855  0.1837
   76MOL0     C10189   1.559   8.735   4.351 -0.0459 -0.7354  0.5144
   76MOL0     C10190   1.468   8.807   4.352  0.9042  0.6167 -0.8384
   76MOL0     C10191   2.232   8.915   4.139 -0.4795 -0.5167  0.6540
   76MOL0     C10192   2.338   9.013   4.128 -0.3895  0.7623 -0.1716
   76MOL0     H10193   2.530   9.532   4.283 -1.6518 -1.3875 -1.0123
   76MOL0     H10194   2.750   9.650   4.311 -1.0875 -0.9097 -1.7025
   76MOL0     H10195   3.010   9.708   4.351 -0.3953 -0.6728 -0.7229
   76MOL0     H10196   2.948   9.651   4.509 -0.7969  0.6094 -0.6378
   76MOL0     H10197   3.179   9.561   4.552  2.6816 -2.3432 -2.0348
   76MOL0     H10198   3.237   9.599   4.390 -1.9131  0.3957 -1.8074
   76MOL0     H10199   3.123   9.852   4.543  0.4372  0.4343  0.3800
   76MOL0     H10200   3.290   9.790   4.542 -0.8539  2.3303  0.0786
   76MOL0     H10201   3.299   9.804   4.304 -0.7653  0.7599 -2.7277
   76MOL0     H10202   3.137   9.854   4.291  0.3065 -1.3182  0.7748
   76MOL0     H10203   3.312  10.013   4.477 -1.3954 -2.4667  1.2099
   76MOL0     H10204   3.354  10.007   4.297 -2.1837 -0.9946 -3.0770
   76MOL0     H10205   3.098  10.079   4.276  0.6292  0.6304  0.4841
   76MOL0     H10206   3.114  10.100   4.451  1.9362 -1.2631  1.0919
   76MOL0     H10207   3.252  10.244   4.214 -2.2737 -0.0770 -0.8989
   76MOL0     H10208   3.142  10.314   4.330  2.1743  1.5027 -1.0029
   76MOL0     H10209   3.415  10.369   4.348  2.5126  1.1702  2.8501
   76MOL0     H10210   3.426  10.210   4.411  0.8494  1.3852  0.1605
   76MOL0     H10211   3.493  10.434   4.604 -0.1845  0.0638 -2.1261
   76MOL0     H10212   3.341  10.589   4.858  0.8033 -0.9179  0.6840
   76MOL0     H10213   3.272  10.455   4.954  0.4102 -0.0503  1.2714
   76MOL0     H10214   3.556  10.414   4.878  0.2135 -4.0688  0.2191
   76MOL0     H10215   3.444  10.328   4.980 -0.1762 -0.2338 -3.3640
   76MOL0     H10216   3.604  10.461   5.128  2.3863 -0.8464 -2.9975
   76MOL0     H10217   3.438  10.527   5.142  2.8388  1.0838  1.5919
   76MOL0     H10218   3.558  10.715   5.125 -3.3483 -0.0868  1.0481
   76MOL0     H10219   3.471  10.703   4.984  0.3723 -0.0958 -1.1941
   76MOL0     H10220   3.799  10.482   4.839  0.2947  1.0544 -0.6169
   76MOL0     H10221   4.095  10.318   4.879 -0.5656  1.1346 -3.0177
   76MOL0     H10222   3.960  10.207   4.912  0.9565 -1.0430 -1.9485
   76MOL0     H10223   3.953  10.328   4.778 -1.7311  1.6244  0.0661
   76MOL0     H10224   4.018  10.103   5.339  0.9412  1.0991 -2.0358
   76MOL0     H10225   4.129   9.916   5.452  1.3351 -0.9699  0.7576
   76MOL0     H10226   4.456   9.866   5.404  4.1321  1.9898  1.7462
   76MOL0     H10227   4.511   9.821   5.560 -0.6369  0.9847  0.5747
   76MOL0     H10228   4.258   9.698   5.440 -0.3631  1.8622  0.7350
   76MOL0     H10229   4.416   9.626   5.451  2.2398  1.8674  0.5226
   76MOL0     H10230   4.241   9.707   5.679  0.8253  0.7719 -2.3586
   76MOL0     H10231   4.376   9.617   5.692 -1.0216 -1.1441  0.0116
   76MOL0     H10232   4.133   9.521   5.524  0.6029 -0.4606 -0.3327
   76MOL0     H10233   4.276   9.419   5.566 -1.5019 -1.5399 -0.4788
   76MOL0     H10234   4.069   9.539   5.743  0.8116  1.4181  0.6820
   76MOL0     H10235   4.220   9.465   5.808 -1.7506  2.5590 -0.0439
   76MOL0     H10236   3.994   9.319   5.669  0.5127  0.5964 -0.6820
   76MOL0     H10237   4.163   9.258   5.682  0.6563  1.6181 -0.9607
   76MOL0     H10238   3.993   9.359   5.913  1.1457  0.7255  2.0601
   76MOL0     H10239   4.157   9.284   5.924 -0.0582  2.4809 -1.7119
   76MOL0     H10240   4.071   9.063   5.876 -2.4919 -2.1201  0.2792
   76MOL0     H10241   3.920   9.130   5.810  0.1919 -1.2484 -0.1451
   76MOL0     H10242   4.474  10.141   5.510  0.0826 -1.7227 -1.1196
   76MOL0     H10243   4.360  10.348   5.386 -1.3526  1.9400  0.2778
   76MOL0     H10244   3.958  10.574   5.291  1.2295 -4.9562  0.7175
   76MOL0     H10245   3.788  10.722   5.181  1.1077 -0.0664  0.9155
   76MOL0     H10246   2.937   9.260   4.379  0.5579  2.8669  3.7269
   76MOL0     H10247   2.700   9.151   4.352  0.0054 -0.1759 -1.1471
   76MOL0     H10248   2.243   9.213   4.376  3.6743 -0.3055  1.7211
   76MOL0     H10249   2.076   9.026   4.410  1.9765  2.4326  1.0620
   76MOL0     H10250   1.991   8.749   4.079  1.1905 -1.9351  0.4173
   76MOL0     H10251   2.110   8.658   4.165  0.0138  0.9102  0.4240
   76MOL0     H10252   1.959   8.608   4.356  2.5714 -1.5083 -1.1061
   76MOL0     H10253   1.906   8.538   4.199  0.4912 -0.1667  0.3976
   76MOL0     H10254   1.741   8.735   4.183  0.1921 -0.5671 -1.2337
   76MOL0     H10255   1.809   8.794   4.337 -0.4346  1.1619 -0.8791
   76MOL0     H10256   1.713   8.622   4.466 -2.8246 -0.7199  1.2254
   76MOL0     H10257   1.655   8.551   4.315  0.4655 -1.1834  3.2400
   76MOL0     H10258   1.388   8.877   4.336  1.2295  1.2610  0.2459
   76MOL0     H10259   2.225   8.841   4.060  1.9486  0.9958 -1.1229
   76MOL0     H10260   2.412   8.998   4.049 -0.2271  0.7126 -0.0120
   77MOL0     O10261   7.672  10.810   6.060  0.7657 -0.0466  0.1269
   77MOL0     C10262   7.647  10.794   6.182 -1.3127  0.6440  0.8339
   77MOL0     O10263   7.562  10.873   6.247  1.0915 -0.6261  0.1202
   77MOL0     C10264   7.515  10.991   6.181 -0.0984 -0.8367  0.5631
   77MOL0     C10265   7.605  11.100   6.150  0.3222  0.7391  0.3041
   77MOL0     C10266   7.554  11.216   6.083  0.1033  0.9178 -0.3786
   77MOL0     C10267   7.422  11.219   6.043  0.7850 -1.3661 -0.2759
   77MOL0     O10268   7.388  11.324   5.967  0.5023  0.0484  0.0844
   77MOL0     C10269   7.264  11.345   5.898  0.2025 -0.8856 -0.0890
   77MOL0     C10270   7.270  11.480   5.828 -0.4848 -0.1868  0.6216
   77MOL0     C10271   7.314  11.594   5.924  0.4418  0.0183  0.8454
   77MOL0     C10272   7.215  11.649   6.033 -0.6019 -0.4176 -0.6509
   77MOL0     C10273   7.288  11.746   6.125 -0.4012 -0.0672 -0.6886
   77MOL0     C10274   7.203  11.827   6.229 -0.8661 -0.1093 -0.5695
   77MOL0     C10275   7.065  11.876   6.188  0.0683  0.1879 -1.3269
   77MOL0     C10276   7.004  11.960   6.306 -0.5311  0.0590  1.3120
   77MOL0     N10277   6.862  11.975   6.293 -0.0434 -0.0365  0.0232
   77MOL0     C10278   6.769  11.912   6.359  0.0025  0.6030 -0.5169
   77MOL0     C10279   6.644  11.966   6.323  0.0131  0.4628 -0.1155
   77MOL0     C10280   6.505  11.931   6.375  0.1829 -0.0294  0.7314
   77MOL0     C10281   6.413  11.936   6.255  0.5117  0.1574 -0.1491
   77MOL0     C10282   6.271  11.920   6.303 -0.1931  0.2545  0.1579
   77MOL0     C10283   6.170  11.915   6.188 -0.0750  1.1444 -0.8774
   77MOL0     O10284   6.143  11.773   6.180 -0.9973  0.0512  0.4625
   77MOL0     C10285   6.044  11.736   6.093  0.3718  0.7030 -0.6155
   77MOL0     C10286   6.027  11.596   6.097 -1.4724  0.4106 -0.0221
   77MOL0     C10287   5.949  11.527   6.006 -0.0028 -0.1984  0.0380
   77MOL0     C10288   5.961  11.373   5.996 -0.3642  0.2319 -0.2045
   77MOL0     C10289   5.853  11.601   5.934  0.1740  0.0245 -0.2954
   77MOL0     C10290   5.753  11.541   5.832  0.3871 -0.4620 -0.2758
   77MOL0     O10291   5.739  11.406   5.816  0.2252  0.0394 -0.1435
   77MOL0     C10292   5.670  11.356   5.706 -0.2195  0.3279  0.0304
   77MOL0     C10293   5.527  11.370   5.702 -1.2386 -0.2306 -0.3267
   77MOL0     C10294   5.468  11.314   5.590 -0.2412 -0.3486  0.2719
   77MOL0     C10295   5.547  11.265   5.473 -0.4329 -1.0593  0.0543
   77MOL0     O10296   5.505  11.237   5.348 -0.1550 -0.7834  0.2063
   77MOL0     C10297   5.368  11.218   5.323 -0.0143 -0.5549 -0.1772
   77MOL0     C10298   5.338  11.191   5.171  0.5724 -0.2262 -0.4320
   77MOL0     C10299   5.210  11.102   5.159 -0.5332 -0.0613  0.1573
   77MOL0     C10300   5.206  11.049   5.016  0.1297  0.0885 -0.7998
   77MOL0     C10301   5.078  10.951   5.013 -0.0850 -0.1955 -0.4010
   77MOL0     C10302   5.083  10.835   4.906 -0.3744 -0.3325 -0.5831
   77MOL0     C10303   4.966  10.736   4.915  0.2919  1.2708 -0.2317
   77MOL0     C10304   4.831  10.794   4.887 -0.3747  0.0832 -0.3087
   77MOL0    Cl10305   4.812  10.884   4.729 -0.1773  0.5648  0.4474
   77MOL0     C10306   5.678  11.257   5.482 -0.6818  0.0739 -0.7537
   77MOL0     C10307   5.747  11.303   5.596 -0.0444 -0.3709  0.6007
   77MOL0     O10308   5.674  11.629   5.785  0.4390  0.3713  0.3264
   77MOL0     C10309   5.861  11.743   5.945 -0.5308 -0.3075  0.0767
   77MOL0     C10310   5.954  11.812   6.024  0.9056 -0.2097  0.0533
   77MOL0     N10311   6.677  12.069   6.244  0.4100  0.6868 -0.0232
   77MOL0     N10312   6.803  12.068   6.216 -0.1476 -0.3220 -0.3406
   77MOL0     C10313   7.332  11.129   6.090  0.3044  0.2967  0.3768
   77MOL0     C10314   7.378  11.010   6.158 -0.0268 -0.4596  0.0310
   77MOL0     C10315   7.699  10.678   6.254 -0.5124 -0.9164 -0.2094
   77MOL0     C10316   7.772  10.579   6.180  0.2008 -0.0193 -0.0842
   77MOL0     C10317   7.806  10.456   6.242  0.1174 -0.0985 -0.5462
   77MOL0     C10318   7.801  10.443   6.376 -0.5043  0.6513 -0.3116
   77MOL0     O10319   7.842  10.330   6.430  0.4729  0.5555  0.1563
   77MOL0     C10320   7.859  10.321   6.575 -0.4640 -0.6237 -0.2907
   77MOL0     C10321   7.977  10.227   6.608  0.4649  1.0569  0.0823
   77MOL0     C10322   7.917  10.098   6.659 -0.5943  0.2690 -0.3619
   77MOL0     C10323   7.881  10.124   6.810  0.2093 -0.4525  0.6666
   77MOL0     C10324   7.990  10.119   6.900 -0.0392 -1.3504  0.3890
   77MOL0     C10325   8.071  10.122   6.990 -0.5705  0.4201  0.4750
   77MOL0     C10326   7.735  10.541   6.453  0.0635 -0.5372  1.2592
   77MOL0     C10327   7.681  10.655   6.389 -0.2136  0.2769  0.4150
   77MOL0     H10328   7.710  11.079   6.163  0.6904  3.3979  2.4842
   77MOL0     H10329   7.619  11.298   6.054  0.9150  0.0707 -1.0379
   77MOL0     H10330   7.252  11.259   5.831  2.0072 -1.0849 -0.2014
   77MOL0     H10331   7.188  11.348   5.976  0.5399 -1.4068  0.2647
   77MOL0     H10332   7.334  11.458   5.742 -2.8809 -0.5733 -1.1859
   77MOL0     H10333   7.174  11.511   5.785 -0.3684 -0.1800  0.3645
   77MOL0     H10334   7.417  11.574   5.954  0.4590 -0.7047  0.3383
   77MOL0     H10335   7.326  11.678   5.855 -1.5651 -0.6305 -0.3925
   77MOL0     H10336   7.123  11.693   5.993 -1.0398 -0.0446  0.6998
   77MOL0     H10337   7.201  11.564   6.100  0.7451  0.8675  1.3553
   77MOL0     H10338   7.368  11.683   6.167 -0.5376 -0.0464 -0.3962
   77MOL0     H10339   7.320  11.832   6.066 -1.3483  1.5023  1.0008
   77MOL0     H10340   7.191  11.761   6.315 -1.4664  1.3084  0.4792
   77MOL0     H10341   7.264  11.913   6.257 -0.6148 -0.2448 -0.7065
   77MOL0     H10342   7.061  11.925   6.090  5.2260  0.2647 -1.7689
   77MOL0     H10343   7.003  11.786   6.187 -0.8204  0.4779  3.4214
   77MOL0     H10344   7.051  12.057   6.290  2.7955 -1.6712 -0.3395
   77MOL0     H10345   7.034  11.921   6.404  0.2844 -0.4058  0.8863
   77MOL0     H10346   6.792  11.841   6.437 -0.3142  1.0814  0.0161
   77MOL0     H10347   6.501  11.829   6.417  0.1564 -0.9600 -1.4089
   77MOL0     H10348   6.480  12.000   6.457  1.9250  0.0141  1.2753
   77MOL0     H10349   6.441  11.857   6.184  1.4777  1.1966 -0.9667
   77MOL0     H10350   6.413  12.030   6.199  4.4047  0.0518 -0.6086
   77MOL0     H10351   6.234  12.011   6.353  1.1356  1.2952 -0.6889
   77MOL0     H10352   6.254  11.834   6.369 -1.5602  0.7644  0.5212
   77MOL0     H10353   6.195  11.951   6.088 -2.6810  1.4458 -1.5051
   77MOL0     H10354   6.080  11.959   6.232 -0.1958 -0.0398  0.1109
   77MOL0     H10355   6.096  11.543   6.162  1.2113  1.1083 -2.1105
   77MOL0     H10356   6.060  11.346   6.035 -0.3758 -2.5554 -1.8373
   77MOL0     H10357   5.899  11.307   6.057  0.1367 -0.6434 -0.6259
   77MOL0     H10358   5.960  11.327   5.897  1.1785 -1.3768  0.4805
   77MOL0     H10359   5.477  11.407   5.791  1.1668  0.9341  0.6424
   77MOL0     H10360   5.360  11.323   5.597 -0.0610  0.2557  3.8281
   77MOL0     H10361   5.332  11.130   5.377  0.3257 -1.4498 -1.3611
   77MOL0     H10362   5.317  11.309   5.357  2.5345  2.0630 -2.7751
   77MOL0     H10363   5.328  11.272   5.098 -0.6004  1.5739  1.5677
   77MOL0     H10364   5.422  11.136   5.129 -1.7351 -1.4085 -3.8551
   77MOL0     H10365   5.117  11.160   5.168 -2.5762 -3.1766  0.8860
   77MOL0     H10366   5.217  11.015   5.225 -2.4111 -1.1678 -1.0306
   77MOL0     H10367   5.203  11.129   4.942  2.8056  1.1159  0.1010
   77MOL0     H10368   5.289  10.978   5.007  0.1838  0.0636 -0.1631
   77MOL0     H10369   4.987  11.010   4.994  1.5638  2.3841 -0.7911
   77MOL0     H10370   5.072  10.892   5.105 -1.8717  1.0107  0.3135
   77MOL0     H10371   5.092  10.854   4.798  0.4633 -1.7022 -0.7739
   77MOL0     H10372   5.173  10.778   4.926 -0.6035 -0.8020 -0.8591
   77MOL0     H10373   4.969  10.678   5.008  2.6853  0.9768 -0.4248
   77MOL0     H10374   4.980  10.659   4.839 -2.3497 -0.7596  1.1803
   77MOL0     H10375   4.816  10.866   4.967  1.5891  0.4146 -0.1964
   77MOL0     H10376   4.757  10.715   4.904  0.6662 -0.8805 -0.1353
   77MOL0     H10377   5.728  11.216   5.395  0.4493 -0.4679  0.1199
   77MOL0     H10378   5.855  11.293   5.597 -0.1339 -1.9005  3.1298
   77MOL0     H10379   5.776  11.808   5.925 -1.6274 -0.3180  3.9257
   77MOL0     H10380   5.939  11.919   6.033 -1.4444 -0.6030  1.9693
   77MOL0     H10381   7.224  11.143   6.086 -0.3429 -3.4916  1.3644
   77MOL0     H10382   7.299  10.945   6.194 -0.4649  1.6885  3.3884
   77MOL0     H10383   7.778  10.577   6.071  0.6191 -2.5082 -0.0868
   77MOL0     H10384   7.849  10.368   6.196  0.6281  1.0735 -2.3755
   77MOL0     H10385   7.880  10.422   6.610 -4.3424 -0.3250  1.6689
   77MOL0     H10386   7.768  10.288   6.627 -0.2715 -1.6591 -0.5798
   77MOL0     H10387   8.034  10.276   6.688  1.1738  0.5725 -0.1228
   77MOL0     H10388   8.032  10.214   6.515  1.7119 -1.5856  1.0703
   77MOL0     H10389   7.985  10.012   6.657 -2.0540 -0.9980  1.7581
   77MOL0     H10390   7.831  10.068   6.599 -0.6159  0.6552 -0.5267
   77MOL0     H10391   7.807  10.046   6.829  0.3791 -0.9442 -0.6363
   77MOL0     H10392   7.849  10.227   6.827 -0.2396 -0.5445  0.3832
   77MOL0     H10393   8.146  10.135   7.066  1.0762 -1.1301 -0.8025
   77MOL0     H10394   7.726  10.533   6.561 -0.8968  2.0419  1.4408
   77MOL0     H10395   7.629  10.738   6.437  0.8007  1.0930  0.1395
   78MOL0     O10396   8.401   7.221   8.464  0.4135  0.9545  0.2112
   78MOL0     C10397   8.325   7.286   8.392 -0.2857  0.2195 -0.7688
   78MOL0     O10398   8.322   7.419   8.378  0.7115  0.1367  0.6626
   78MOL0     C10399   8.396   7.489   8.474 -0.1575 -0.0593 -0.1371
   78MOL0     C10400   8.332   7.518   8.591 -0.7735  0.7956 -0.7811
   78MOL0     C10401   8.404   7.568   8.694 -0.5013 -0.4043  0.2910
   78MOL0     C10402   8.530   7.615   8.671 -0.5024  0.0185 -1.0199
   78MOL0     O10403   8.607   7.679   8.760 -0.2898 -0.4569  0.3911
   78MOL0     C10404   8.648   7.623   8.881 -1.0627 -0.3794 -0.2645
   78MOL0     C10405   8.776   7.691   8.930 -0.3895 -0.9616 -0.5811
   78MOL0     C10406   8.748   7.837   8.976  0.3698  0.1222 -0.0717
   78MOL0     C10407   8.880   7.913   8.993  1.1102 -0.1763 -0.3253
   78MOL0     C10408   8.859   8.065   9.002 -0.1575 -0.1380 -0.6734
   78MOL0     C10409   8.751   8.110   9.102 -0.1919 -0.4430  0.1970
   78MOL0     C10410   8.784   8.251   9.170  0.0770  0.0648 -0.2405
   78MOL0     C10411   8.717   8.358   9.083  0.4554  0.1632  0.0607
   78MOL0     N10412   8.670   8.468   9.174 -0.6268  0.4653  0.6012
   78MOL0     C10413   8.544   8.510   9.196 -0.0790  0.4050  0.4603
   78MOL0     C10414   8.556   8.631   9.258  0.4694 -0.0341 -0.7191
   78MOL0     C10415   8.442   8.728   9.311 -0.4517 -0.7581  0.1910
   78MOL0     C10416   8.489   8.855   9.368  0.0170  0.3069 -0.3065
   78MOL0     C10417   8.394   8.937   9.447 -0.7381  0.5334  0.0093
   78MOL0     C10418   8.284   9.007   9.363 -0.3778  0.3801  0.7561
   78MOL0     O10419   8.196   8.906   9.298 -0.6845 -0.7040  0.4471
   78MOL0     C10420   8.062   8.920   9.287 -0.7383 -0.9352 -0.3701
   78MOL0     C10421   7.978   9.035   9.306 -0.7452  0.4119 -0.5898
   78MOL0     C10422   7.842   9.025   9.301 -0.1756  0.7717 -0.8087
   78MOL0     C10423   7.771   9.157   9.323  0.2115 -0.2433 -0.1594
   78MOL0     C10424   7.780   8.904   9.284  0.6393  0.3665  0.1842
   78MOL0     C10425   7.632   8.893   9.310  0.0242  0.1029 -0.1613
   78MOL0     O10426   7.576   8.775   9.246 -0.6787 -0.4875 -0.8660
   78MOL0     C10427   7.486   8.706   9.327 -0.1099  0.4584  0.8023
   78MOL0     C10428   7.365   8.659   9.273  0.4086 -1.2651 -0.5447
   78MOL0     C10429   7.284   8.580   9.361 -0.0231  0.1118 -0.9017
   78MOL0     C10430   7.320   8.544   9.498 -0.6363 -0.8125 -0.6252
   78MOL0     O10431   7.267   8.440   9.574 -0.4796 -0.0039 -0.4513
   78MOL0     C10432   7.133   8.449   9.632 -0.4254  0.4214  0.3984
   78MOL0     C10433   7.101   8.328   9.704 -0.3115 -0.1964  1.0560
   78MOL0     C10434   6.990   8.333   9.808 -0.1321 -0.4452  0.2722
   78MOL0     C10435   7.060   8.356   9.946  1.2277 -0.0650  0.5139
   78MOL0     C10436   6.949   8.384  10.059 -0.1220  1.1955 -0.2647
   78MOL0     C10437   7.005   8.351  10.204  0.2100 -0.5596  0.4771
   78MOL0     C10438   6.892   8.403  10.300 -0.5321  0.0664 -0.3467
   78MOL0     C10439   6.948   8.489  10.419 -1.3049  0.0376  0.6747
   78MOL0    Cl10440   7.060   8.619  10.357  0.0378 -0.6715  0.1447
   78MOL0     C10441   7.443   8.596   9.542 -0.5130  0.9412 -0.2336
   78MOL0     C10442   7.530   8.667   9.457  0.0225 -1.5465 -0.2082
   78MOL0     O10443   7.562   8.964   9.382 -0.6899 -0.6152  0.4396
   78MOL0     C10444   7.867   8.788   9.254  1.6575 -0.0220 -0.3377
   78MOL0     C10445   8.002   8.801   9.252 -0.0186 -0.2169  0.1209
   78MOL0     N10446   8.688   8.662   9.281  0.1040 -0.0033  0.0480
   78MOL0     N10447   8.757   8.559   9.232  0.4326 -0.1249 -0.5073
   78MOL0     C10448   8.591   7.594   8.551 -0.1947 -0.8269 -0.2686
   78MOL0     C10449   8.520   7.534   8.450  0.3116  0.6039 -0.1793
   78MOL0     C10450   8.231   7.206   8.305  0.0547 -0.8305  0.4329
   78MOL0     C10451   8.234   7.069   8.314 -0.0266 -0.5089 -0.3556
   78MOL0     C10452   8.142   6.994   8.236 -0.3676  0.3771 -0.4230
   78MOL0     C10453   8.050   7.054   8.148  0.6424  0.1005 -0.8459
   78MOL0     O10454   7.951   6.984   8.083  0.2892 -0.2791 -0.7729
   78MOL0     C10455   7.972   6.971   7.948  0.6125  0.7907 -0.9204
   78MOL0     C10456   8.045   6.839   7.916  0.3776  0.0798  0.4103
   78MOL0     C10457   8.054   6.792   7.766  0.7673  0.2799 -1.2648
   78MOL0     C10458   8.155   6.879   7.690  0.3013  0.7511 -0.3502
   78MOL0     C10459   8.297   6.827   7.711  0.7475  0.5487 -0.1040
   78MOL0     C10460   8.408   6.785   7.729  0.1824  0.2486  0.3119
   78MOL0     C10461   8.056   7.192   8.142  0.8646 -0.1260  0.7975
   78MOL0     C10462   8.147   7.272   8.215 -0.0059 -0.8138  0.3764
   78MOL0     H10463   8.235   7.472   8.600 -0.3844  0.1781  0.4970
   78MOL0     H10464   8.369   7.573   8.796  2.6759  1.3568  1.4175
   78MOL0     H10465   8.566   7.653   8.946 -0.9013 -0.7606  0.1160
   78MOL0     H10466   8.666   7.516   8.864 -1.2588 -1.1718  3.6851
   78MOL0     H10467   8.824   7.632   9.008 -0.5067 -2.7393 -1.8125
   78MOL0     H10468   8.841   7.681   8.843 -1.1267  0.5842 -1.3485
   78MOL0     H10469   8.677   7.896   8.918  1.6367  0.1743 -1.6294
   78MOL0     H10470   8.709   7.826   9.078  2.6778 -2.0931  0.7042
   78MOL0     H10471   8.933   7.874   9.080  0.8262 -2.2203 -1.0258
   78MOL0     H10472   8.944   7.895   8.907  2.5937  2.0608  0.2302
   78MOL0     H10473   8.958   8.107   9.022 -0.5232  0.1440  0.6244
   78MOL0     H10474   8.836   8.106   8.903  4.4175  1.5153 -1.2837
   78MOL0     H10475   8.648   8.102   9.066  0.5763  1.0733 -2.6541
   78MOL0     H10476   8.760   8.040   9.186  3.8392  0.7266  0.9704
   78MOL0     H10477   8.736   8.251   9.268  1.2987 -3.8430  0.5148
   78MOL0     H10478   8.892   8.263   9.186  0.1471  0.1869 -0.7927
   78MOL0     H10479   8.632   8.327   9.021  0.1732  0.3722  0.3427
   78MOL0     H10480   8.791   8.396   9.012  1.4785 -2.1931 -0.2047
   78MOL0     H10481   8.460   8.447   9.168 -0.2477  0.5689  0.5960
   78MOL0     H10482   8.375   8.749   9.227 -1.7089 -0.1541  1.2883
   78MOL0     H10483   8.380   8.677   9.386 -0.4257  0.1058  0.8228
   78MOL0     H10484   8.528   8.907   9.280 -0.3042 -0.2326 -0.7704
   78MOL0     H10485   8.568   8.845   9.443 -3.3791 -1.8069  3.3670
   78MOL0     H10486   8.439   9.017   9.507 -1.5019  0.3612  0.8356
   78MOL0     H10487   8.343   8.873   9.520  1.7391 -1.1571  0.3608
   78MOL0     H10488   8.330   9.075   9.291 -0.0892 -0.6986 -0.1108
   78MOL0     H10489   8.215   9.057   9.432  0.1910  0.7559  1.0596
   78MOL0     H10490   8.029   9.128   9.331  1.1094 -0.2935 -1.5377
   78MOL0     H10491   7.838   9.243   9.308 -1.0715  0.9834  0.8851
   78MOL0     H10492   7.689   9.161   9.251 -0.4757  0.5536  0.6416
   78MOL0     H10493   7.715   9.159   9.417  2.3136 -0.8572  1.1709
   78MOL0     H10494   7.333   8.678   9.171 -0.3457  0.3308 -0.0448
   78MOL0     H10495   7.189   8.541   9.325  0.0156  0.1294 -1.0217
   78MOL0     H10496   7.147   8.524   9.711  6.7207 -2.1781  2.3948
   78MOL0     H10497   7.057   8.474   9.558 -0.3072  1.0746  0.4905
   78MOL0     H10498   7.073   8.267   9.617 -0.5279 -1.7447  2.1768
   78MOL0     H10499   7.194   8.287   9.744  0.5687 -2.8170 -3.0065
   78MOL0     H10500   6.932   8.241   9.799 -0.6945 -0.0437 -0.3291
   78MOL0     H10501   6.918   8.414   9.790 -2.3384 -1.2964  4.2038
   78MOL0     H10502   7.111   8.266   9.981  1.9914  0.1347 -0.0579
   78MOL0     H10503   7.128   8.441   9.956 -1.1523  1.6760  3.5374
   78MOL0     H10504   6.860   8.320  10.056  0.9256 -0.6962  3.2866
   78MOL0     H10505   6.927   8.492  10.055 -0.5738  1.0851 -3.1248
   78MOL0     H10506   7.019   8.246  10.231 -2.8282 -1.1031  0.2863
   78MOL0     H10507   7.099   8.407  10.216 -0.4769  0.2304  2.5894
   78MOL0     H10508   6.840   8.322  10.350 -1.6686  1.9231  1.6566
   78MOL0     H10509   6.809   8.448  10.244 -3.9070 -0.3081  3.8875
   78MOL0     H10510   7.016   8.434  10.483  0.5615  0.3177 -0.9863
   78MOL0     H10511   6.862   8.530  10.474 -1.4023  1.0287 -0.1739
   78MOL0     H10512   7.487   8.573   9.639  1.8600  1.1044 -1.2193
   78MOL0     H10513   7.626   8.697   9.499  0.2882 -0.8849 -1.2576
   78MOL0     H10514   7.826   8.688   9.247 -0.9282  0.8728  0.6966
   78MOL0     H10515   8.072   8.729   9.209 -0.5290 -1.1247  0.7672
   78MOL0     H10516   8.686   7.645   8.536  0.3486 -0.5965  3.1037
   78MOL0     H10517   8.574   7.527   8.356 -0.3559  1.2112 -0.6217
   78MOL0     H10518   8.286   7.020   8.396 -1.0945 -0.4351  0.3764
   78MOL0     H10519   8.136   6.891   8.271  2.1883  0.6999  1.2578
   78MOL0     H10520   7.876   6.967   7.896 -1.6516 -2.6537  2.9340
   78MOL0     H10521   8.039   7.046   7.904  0.8717  1.3833  0.4220
   78MOL0     H10522   8.000   6.756   7.971  1.5551  0.0826  1.3919
   78MOL0     H10523   8.146   6.839   7.957  0.4210 -2.0434  0.3869
   78MOL0     H10524   7.952   6.810   7.731 -0.6418 -0.0339  2.2221
   78MOL0     H10525   8.082   6.687   7.759 -1.5841 -0.7322  2.0433
   78MOL0     H10526   8.139   6.979   7.732  1.9678 -0.0786  2.5627
   78MOL0     H10527   8.124   6.882   7.585 -0.6657 -0.0078 -0.0949
   78MOL0     H10528   8.504   6.740   7.742  0.3486  1.0043  1.9797
   78MOL0     H10529   7.974   7.239   8.088  1.2712  0.2857  0.5294
   78MOL0     H10530   8.143   7.380   8.226  1.2544 -0.6955 -0.1457
   79MOL0     O10531   7.117   2.300   9.474  1.4610  0.2965  0.1048
   79MOL0     C10532   7.115   2.327   9.599  0.5852  0.5753  0.9456
   79MOL0     O10533   7.117   2.452   9.656  0.0174  0.4462  0.2347
   79MOL0     C10534   7.139   2.565   9.585 -0.3023 -0.4916  0.5076
   79MOL0     C10535   7.153   2.583   9.444  0.3148 -0.5141 -0.0610
   79MOL0     C10536   7.156   2.705   9.394 -0.3490 -0.2143  0.1657
   79MOL0     C10537   7.183   2.825   9.474  0.0630  0.1053 -0.3794
   79MOL0     O10538   7.185   2.947   9.409  0.5640 -0.6470  0.4146
   79MOL0     C10539   7.185   3.069   9.493 -0.2590  0.6098  0.8294
   79MOL0     C10540   7.149   3.196   9.411  0.0265 -0.3412  0.8356
   79MOL0     C10541   7.094   3.312   9.493  0.4368  0.4113 -1.0917
   79MOL0     C10542   7.208   3.404   9.553 -0.0126  0.4962 -1.1261
   79MOL0     C10543   7.288   3.479   9.439  1.0545 -0.4847  0.3966
   79MOL0     C10544   7.347   3.624   9.458 -0.8830  0.7487  0.1988
   79MOL0     C10545   7.419   3.670   9.335 -0.2737 -0.1580  0.3861
   79MOL0     C10546   7.517   3.776   9.351 -0.2912 -0.1648 -0.2103
   79MOL0     N10547   7.580   3.813   9.220 -0.3357 -0.5648  0.5827
   79MOL0     C10548   7.529   3.920   9.133 -0.9275  0.0265 -0.3355
   79MOL0     C10549   7.620   3.926   9.030 -0.0777  0.1703  1.3240
   79MOL0     C10550   7.618   4.030   8.917  0.5671  0.1700  0.0443
   79MOL0     C10551   7.587   3.956   8.786 -0.1935  0.7724 -0.3516
   79MOL0     C10552   7.517   4.040   8.678 -0.1769  0.1050  0.3213
   79MOL0     C10553   7.601   4.160   8.636 -0.0303 -0.6278  0.6765
   79MOL0     O10554   7.508   4.231   8.556 -0.1929 -0.5222  0.0634
   79MOL0     C10555   7.544   4.361   8.516 -0.3539  0.8059 -0.3889
   79MOL0     C10556   7.442   4.435   8.469  0.6232 -0.0885 -0.1543
   79MOL0     C10557   7.461   4.574   8.429  0.1725 -0.1864 -0.6401
   79MOL0     C10558   7.341   4.634   8.352  0.1880  0.2161  0.0264
   79MOL0     C10559   7.580   4.640   8.453 -0.4283  0.6057  0.5824
   79MOL0     C10560   7.613   4.787   8.419 -0.4454  0.2116  0.4528
   79MOL0     O10561   7.504   4.859   8.382 -0.2462 -0.0768  0.4696
   79MOL0     C10562   7.520   4.986   8.338 -0.8967 -0.6352 -0.2642
   79MOL0     C10563   7.413   5.036   8.261 -0.4997  0.3431 -0.0923
   79MOL0     C10564   7.408   5.157   8.192  0.1364 -0.4473 -0.9643
   79MOL0     C10565   7.502   5.252   8.228 -0.4269 -0.5788  0.2901
   79MOL0     O10566   7.499   5.378   8.180  0.2207 -0.4690 -0.5835
   79MOL0     C10567   7.613   5.420   8.105  0.4871  0.5388 -0.3607
   79MOL0     C10568   7.567   5.480   7.971 -0.9465 -0.6996  0.3592
   79MOL0     C10569   7.664   5.536   7.866 -0.3291 -0.0646  0.6537
   79MOL0     C10570   7.706   5.687   7.882  0.0769 -0.1984 -0.9898
   79MOL0     C10571   7.790   5.732   7.756  0.2877 -0.8706  0.6636
   79MOL0     C10572   7.936   5.695   7.773 -0.3618 -0.0109 -0.0236
   79MOL0     C10573   8.021   5.739   7.651  0.3024  0.7724 -1.1665
   79MOL0     C10574   8.164   5.702   7.653  0.1353 -0.6612 -0.3487
   79MOL0    Cl10575   8.221   5.635   7.500 -0.0602 -0.2803  0.0335
   79MOL0     C10576   7.602   5.223   8.320 -0.6444  0.0756  0.1976
   79MOL0     C10577   7.609   5.088   8.372  0.4332  0.0984 -1.0991
   79MOL0     O10578   7.727   4.827   8.411  0.3331  0.4625 -0.0190
   79MOL0     C10579   7.682   4.561   8.506  0.0063  0.3020 -0.3458
   79MOL0     C10580   7.667   4.427   8.530  0.6865 -0.9152 -0.2450
   79MOL0     N10581   7.720   3.825   9.055 -0.4699  0.4280 -0.2411
   79MOL0     N10582   7.694   3.764   9.167  0.0250  0.0070  0.3944
   79MOL0     C10583   7.186   2.811   9.613 -0.4451  1.1737  0.3448
   79MOL0     C10584   7.155   2.682   9.667  0.4886  0.7106  0.2496
   79MOL0     C10585   7.115   2.221   9.693 -0.5801  0.4485  0.6649
   79MOL0     C10586   7.124   2.229   9.829 -0.5321  0.8057 -1.0321
   79MOL0     C10587   7.112   2.111   9.900  0.9153  0.8696 -0.2507
   79MOL0     C10588   7.080   1.987   9.851  1.1425 -1.1140  0.8704
   79MOL0     O10589   7.055   1.881   9.940  0.0578 -0.2159 -0.6551
   79MOL0     C10590   7.051   1.741   9.902  0.5859  0.2953 -0.1346
   79MOL0     C10591   7.051   1.656  10.034  0.5633 -0.4731 -0.4524
   79MOL0     C10592   6.917   1.665  10.113 -0.5281 -1.1588 -0.2174
   79MOL0     C10593   6.817   1.554  10.099 -0.2954  0.0478  0.1381
   79MOL0     C10594   6.756   1.540   9.964 -0.5870 -0.3415  0.1768
   79MOL0     C10595   6.737   1.509   9.851  0.4887  0.1681  0.1011
   79MOL0     C10596   7.074   1.981   9.712 -0.7529  0.0022  0.8212
   79MOL0     C10597   7.106   2.092   9.637 -0.2129 -0.0140  0.1472
   79MOL0     H10598   7.133   2.509   9.368 -1.8845  0.0469 -0.1015
   79MOL0     H10599   7.157   2.724   9.287 -0.9988  3.3206  0.6360
   79MOL0     H10600   7.103   3.065   9.565 -0.1936 -1.0364  0.8428
   79MOL0     H10601   7.288   3.088   9.525  1.2298  1.2767 -3.6272
   79MOL0     H10602   7.239   3.226   9.356 -2.0485 -0.1655 -2.7758
   79MOL0     H10603   7.066   3.166   9.347  0.1144 -1.4607  1.2177
   79MOL0     H10604   7.025   3.380   9.442  0.4060  1.0784 -0.1730
   79MOL0     H10605   7.037   3.270   9.576  1.3970  2.3352  0.6133
   79MOL0     H10606   7.162   3.481   9.616  1.8931  0.6347  0.1775
   79MOL0     H10607   7.279   3.353   9.618  0.5885 -0.8796 -2.7675
   79MOL0     H10608   7.372   3.413   9.415  0.6600 -2.0598  3.0005
   79MOL0     H10609   7.232   3.485   9.345  0.3867  0.8910  0.8611
   79MOL0     H10610   7.270   3.699   9.480  1.0834  2.8484  0.3354
   79MOL0     H10611   7.399   3.619   9.554 -0.1909 -0.5884 -0.2332
   79MOL0     H10612   7.479   3.581   9.315 -2.5628 -1.2099 -2.5009
   79MOL0     H10613   7.354   3.686   9.248 -0.8440  0.5425  0.9205
   79MOL0     H10614   7.597   3.736   9.414 -2.1006 -4.7010 -0.4234
   79MOL0     H10615   7.465   3.865   9.388 -1.0372  0.0560 -1.7070
   79MOL0     H10616   7.447   3.987   9.159  0.4151  0.9015  1.8793
   79MOL0     H10617   7.542   4.107   8.932 -0.9962 -1.9310  4.2520
   79MOL0     H10618   7.712   4.083   8.901  0.2357  0.3802 -1.3432
   79MOL0     H10619   7.517   3.876   8.813  1.9165 -0.5473  1.5713
   79MOL0     H10620   7.677   3.903   8.753 -2.4684 -2.4059 -2.0918
   79MOL0     H10621   7.417   4.069   8.713 -0.3282  1.8210 -1.3846
   79MOL0     H10622   7.510   3.984   8.585 -2.4687  2.0633 -0.7746
   79MOL0     H10623   7.682   4.128   8.570 -0.7023 -2.8117  0.8052
   79MOL0     H10624   7.632   4.225   8.718  0.6110  1.5847 -1.2158
   79MOL0     H10625   7.347   4.385   8.454  2.6483 -4.1300 -1.2373
   79MOL0     H10626   7.268   4.556   8.333  0.5217 -0.1874  0.3581
   79MOL0     H10627   7.296   4.713   8.413  1.5591  1.7341 -0.8414
   79MOL0     H10628   7.368   4.676   8.255 -0.3347 -1.0831 -0.6959
   79MOL0     H10629   7.332   4.968   8.240 -0.5195  0.0072  1.0194
   79MOL0     H10630   7.333   5.197   8.125 -0.9606  0.2490  0.6025
   79MOL0     H10631   7.661   5.501   8.162  0.1180  0.3933  0.1636
   79MOL0     H10632   7.692   5.344   8.103  2.8529  2.7311  1.6392
   79MOL0     H10633   7.515   5.394   7.927 -2.4265  0.4219 -0.1771
   79MOL0     H10634   7.492   5.554   8.001 -2.6704 -3.7942  4.7552
   79MOL0     H10635   7.626   5.509   7.768 -0.2928  0.4774  0.4877
   79MOL0     H10636   7.763   5.492   7.882 -0.0302  1.2770  3.0367
   79MOL0     H10637   7.608   5.735   7.878  0.8919  1.7280  0.4468
   79MOL0     H10638   7.761   5.701   7.975  1.4990 -1.4917 -1.5960
   79MOL0     H10639   7.782   5.840   7.743 -2.2986 -1.1728 -0.9160
   79MOL0     H10640   7.748   5.692   7.663 -1.3459 -1.3293  1.5604
   79MOL0     H10641   7.982   5.735   7.863 -2.8109 -0.0157  1.3156
   79MOL0     H10642   7.957   5.589   7.792 -0.8790 -0.1308 -0.0770
   79MOL0     H10643   8.017   5.846   7.631  1.4061  0.9012 -0.7833
   79MOL0     H10644   7.972   5.681   7.572  2.5990 -2.4704 -0.4372
   79MOL0     H10645   8.183   5.640   7.742  0.7189  2.2658  1.7310
   79MOL0     H10646   8.228   5.790   7.668 -1.0863  0.5949 -2.1769
   79MOL0     H10647   7.676   5.296   8.349  2.2166 -1.1749 -3.2639
   79MOL0     H10648   7.692   5.076   8.440 -1.1466  2.6281  1.4701
   79MOL0     H10649   7.771   4.617   8.534  0.2113 -0.6549  1.0153
   79MOL0     H10650   7.757   4.374   8.559  1.7152  1.3982  1.0227
   79MOL0     H10651   7.194   2.901   9.673 -2.2739  2.8691 -1.7785
   79MOL0     H10652   7.149   2.657   9.773  1.4428 -0.5841  0.0293
   79MOL0     H10653   7.126   2.329   9.872  0.1623  0.8564 -1.1593
   79MOL0     H10654   7.108   2.118  10.008  1.1718 -0.5296 -0.1349
   79MOL0     H10655   6.963   1.723   9.839  0.2059  1.7004 -0.0502
   79MOL0     H10656   7.137   1.711   9.842  2.1769 -1.0081  2.6435
   79MOL0     H10657   7.130   1.699  10.097  1.3523 -3.2562  0.5932
   79MOL0     H10658   7.088   1.555  10.017  0.5693 -0.1649 -2.5310
   79MOL0     H10659   6.870   1.760  10.087  0.7100 -1.1342 -2.6367
   79MOL0     H10660   6.945   1.665  10.219  1.4397  1.1950 -0.6682
   79MOL0     H10661   6.737   1.565  10.172  1.7927 -3.3557  3.2583
   79MOL0     H10662   6.869   1.463  10.131 -1.2593 -0.9635 -1.0938
   79MOL0     H10663   6.722   1.482   9.748 -3.1499 -2.6872  1.1305
   79MOL0     H10664   7.065   1.882   9.669 -1.0678 -0.3784  1.7322
   79MOL0     H10665   7.111   2.071   9.530  3.8864 -0.3004  0.2571
   80MOL0     O10666   2.780   3.313   7.382 -0.2236 -0.2371 -0.0238
   80MOL0     C10667   2.898   3.307   7.352  0.2795 -0.2337  0.3558
   80MOL0     O10668   2.945   3.297   7.215 -0.7088  0.3809  0.0724
   80MOL0     C10669   2.847   3.271   7.118  1.2714 -0.8156  0.6746
   80MOL0     C10670   2.797   3.142   7.096 -0.6999 -0.6053  0.6665
   80MOL0     C10671   2.695   3.121   6.998 -0.4899 -0.1066 -0.1779
   80MOL0     C10672   2.651   3.229   6.918 -0.4247 -0.1089  0.2490
   80MOL0     O10673   2.565   3.206   6.816  0.5569  0.8994 -0.1776
   80MOL0     C10674   2.612   3.127   6.711  0.9339  1.1654  0.2421
   80MOL0     C10675   2.491   3.031   6.669 -0.4912 -0.0827  0.5212
   80MOL0     C10676   2.554   2.914   6.596 -0.1819 -0.5800  0.6070
   80MOL0     C10677   2.454   2.797   6.574 -0.5717  0.0852 -0.5223
   80MOL0     C10678   2.522   2.675   6.499  0.4986 -0.0039 -0.2549
   80MOL0     C10679   2.423   2.552   6.526  0.3857 -0.5842  0.0685
   80MOL0     C10680   2.475   2.415   6.493 -1.3482 -0.3855 -0.3054
   80MOL0     C10681   2.528   2.329   6.603 -0.2977  0.2241  0.2141
   80MOL0     N10682   2.660   2.389   6.651  0.7324 -0.7609 -1.0301
   80MOL0     C10683   2.773   2.411   6.576 -0.1727 -0.1023  0.4781
   80MOL0     C10684   2.859   2.472   6.658 -1.6115  0.6402 -0.2475
   80MOL0     C10685   3.012   2.512   6.629  0.4037  0.4006 -0.0269
   80MOL0     C10686   3.059   2.468   6.492 -0.7269  0.2599  0.5709
   80MOL0     C10687   3.204   2.512   6.451 -0.9764 -0.4777 -0.0235
   80MOL0     C10688   3.251   2.465   6.308  0.5040 -0.4529  0.2973
   80MOL0     O10689   3.147   2.498   6.219  0.4902  0.8839  0.0090
   80MOL0     C10690   3.117   2.402   6.122  0.5777 -0.4209 -0.4753
   80MOL0     C10691   3.145   2.434   5.990 -0.6395 -1.3095  0.1306
   80MOL0     C10692   3.147   2.341   5.882  0.3850  0.1052  0.3469
   80MOL0     C10693   3.185   2.394   5.747 -1.1800 -0.9303 -0.8139
   80MOL0     C10694   3.121   2.209   5.911  0.3268 -0.9884  0.4692
   80MOL0     C10695   3.106   2.102   5.809 -0.6020 -1.2826  0.0233
   80MOL0     O10696   3.121   2.133   5.685  0.4864  0.1453 -0.1332
   80MOL0     C10697   3.108   2.034   5.595 -0.8111 -0.3147 -0.4034
   80MOL0     C10698   3.209   2.017   5.500 -0.3119 -0.4179  0.2897
   80MOL0     C10699   3.195   1.911   5.400  0.9707  0.3316  0.4562
   80MOL0     C10700   3.082   1.820   5.401 -0.3561  0.3986 -0.6526
   80MOL0     O10701   3.068   1.704   5.333  0.0431  0.4325  0.0566
   80MOL0     C10702   2.958   1.721   5.234 -0.3766  0.4748 -0.0779
   80MOL0     C10703   2.967   1.616   5.121 -0.0141 -0.1249  0.0683
   80MOL0     C10704   3.050   1.664   4.992  0.5860 -0.9297  0.3983
   80MOL0     C10705   3.073   1.544   4.904 -0.4209  0.0088 -0.2314
   80MOL0     C10706   3.107   1.574   4.764  0.8390 -0.1928 -0.3011
   80MOL0     C10707   3.248   1.625   4.739  0.5531 -0.3205  0.0817
   80MOL0     C10708   3.295   1.598   4.597  0.7348 -0.0065 -0.5519
   80MOL0     C10709   3.400   1.705   4.561 -0.6606  0.7169 -0.0675
   80MOL0    Cl10710   3.476   1.669   4.404  0.2169 -0.4848 -0.4952
   80MOL0     C10711   2.980   1.864   5.485  0.1384  0.7898 -0.6529
   80MOL0     C10712   2.992   1.961   5.583  0.1675 -0.1959  0.7090
   80MOL0     O10713   3.084   1.990   5.856  0.5832 -0.5281 -0.2223
   80MOL0     C10714   3.092   2.178   6.040 -0.5622  0.2454 -0.3778
   80MOL0     C10715   3.094   2.270   6.146 -0.7996  0.4676  0.1216
   80MOL0     N10716   2.801   2.461   6.789 -0.2092  0.8845  0.1937
   80MOL0     N10717   2.685   2.399   6.788  0.6415 -0.6126  0.1567
   80MOL0     C10718   2.700   3.357   6.943  0.1684  0.2955 -0.1351
   80MOL0     C10719   2.799   3.379   7.037 -0.1511  0.1666 -1.0996
   80MOL0     C10720   3.007   3.337   7.461  0.6716 -0.2585 -0.4690
   80MOL0     C10721   2.969   3.371   7.598 -0.7124  0.5005  0.9275
   80MOL0     C10722   3.078   3.403   7.680  0.3648  0.5913  0.5620
   80MOL0     C10723   3.207   3.394   7.647 -1.5051 -0.8005 -0.0232
   80MOL0     O10724   3.298   3.433   7.742  0.6279 -0.6868  0.2569
   80MOL0     C10725   3.443   3.410   7.725 -0.4203 -0.3315 -1.0730
   80MOL0     C10726   3.498   3.388   7.868 -0.1490  0.0407 -0.4378
   80MOL0     C10727   3.630   3.454   7.912 -0.1991  0.3019 -0.2747
   80MOL0     C10728   3.755   3.442   7.827  0.5930  0.2216 -0.4546
   80MOL0     C10729   3.762   3.308   7.768  0.5904 -0.9282 -1.3340
   80MOL0     C10730   3.761   3.201   7.718 -0.3840 -0.5105  0.0020
   80MOL0     C10731   3.243   3.355   7.518 -0.0375  0.5835  0.1795
   80MOL0     C10732   3.144   3.318   7.425  0.0582 -0.1618  0.0159
   80MOL0     H10733   2.839   3.056   7.147  0.2319 -0.4383  0.2143
   80MOL0     H10734   2.640   3.033   6.967  0.2821 -0.8373  0.4595
   80MOL0     H10735   2.634   3.189   6.623 -1.6858  2.3205  0.3185
   80MOL0     H10736   2.696   3.063   6.739 -0.2810 -2.0697 -2.7292
   80MOL0     H10737   2.429   3.000   6.754 -0.7301 -2.5295 -0.4646
   80MOL0     H10738   2.424   3.088   6.604  1.2271  0.3480 -0.9439
   80MOL0     H10739   2.606   2.949   6.506 -1.2013  5.5993  1.9603
   80MOL0     H10740   2.631   2.876   6.664 -1.0984 -0.5726  1.6761
   80MOL0     H10741   2.421   2.762   6.672  0.0422 -2.5715 -1.1954
   80MOL0     H10742   2.365   2.829   6.519 -1.2180 -1.4791 -0.4193
   80MOL0     H10743   2.520   2.676   6.390  0.2846 -1.4539 -0.2868
   80MOL0     H10744   2.620   2.650   6.542  0.0984  1.4661  1.5986
   80MOL0     H10745   2.388   2.547   6.630  0.0394 -0.8355 -0.0571
   80MOL0     H10746   2.340   2.566   6.456  1.8533  0.8926 -1.4578
   80MOL0     H10747   2.389   2.361   6.453 -1.6701 -1.0653  1.2115
   80MOL0     H10748   2.554   2.411   6.417 -0.4196 -0.6174  0.6339
   80MOL0     H10749   2.536   2.228   6.563  3.8137  1.1752 -1.9363
   80MOL0     H10750   2.456   2.340   6.685 -2.6861 -0.3214 -1.7136
   80MOL0     H10751   2.788   2.383   6.472 -0.3953 -1.2819  0.7436
   80MOL0     H10752   3.019   2.621   6.622  0.3220  0.5030  1.2648
   80MOL0     H10753   3.076   2.471   6.707 -1.2456 -3.6906 -0.5433
   80MOL0     H10754   2.988   2.502   6.416 -1.0468  2.9593  1.9621
   80MOL0     H10755   3.061   2.359   6.488 -0.6511  0.1723  2.4872
   80MOL0     H10756   3.272   2.464   6.522 -2.2943 -2.3721  0.0416
   80MOL0     H10757   3.220   2.619   6.465 -4.1737  0.0041  0.8240
   80MOL0     H10758   3.269   2.357   6.315 -4.2315 -1.3451  3.7060
   80MOL0     H10759   3.343   2.516   6.277 -0.2207 -0.7307 -2.6688
   80MOL0     H10760   3.173   2.535   5.962 -2.0252 -1.8050 -3.5331
   80MOL0     H10761   3.094   2.380   5.688 -0.0306  2.0060 -3.5017
   80MOL0     H10762   3.208   2.501   5.747  0.1278 -1.1726  0.4979
   80MOL0     H10763   3.273   2.342   5.708 -0.3674 -0.5088  0.3965
   80MOL0     H10764   3.302   2.074   5.505 -0.2002 -0.2660 -2.3177
   80MOL0     H10765   3.270   1.901   5.323  1.7624  1.8138  1.0023
   80MOL0     H10766   2.865   1.703   5.288 -0.3534  1.0937  0.1899
   80MOL0     H10767   2.949   1.822   5.192  0.1691  1.1196  1.2861
   80MOL0     H10768   2.990   1.520   5.167 -3.7302 -0.8481  0.7654
   80MOL0     H10769   2.864   1.610   5.084  0.7705 -2.0302 -1.9893
   80MOL0     H10770   3.148   1.693   5.030 -0.0684 -0.8399  2.1131
   80MOL0     H10771   3.002   1.747   4.939 -0.4746 -0.4400  2.0492
   80MOL0     H10772   3.164   1.495   4.943  0.1425 -2.6112 -4.2700
   80MOL0     H10773   2.995   1.468   4.909 -0.0230 -0.3534  2.1524
   80MOL0     H10774   3.030   1.634   4.714 -0.4162 -0.2975  1.4297
   80MOL0     H10775   3.103   1.477   4.715  1.5746 -1.7255  2.4681
   80MOL0     H10776   3.244   1.732   4.760 -0.2749 -0.9565  3.6658
   80MOL0     H10777   3.330   1.594   4.804  0.7595  4.2461  2.3374
   80MOL0     H10778   3.215   1.604   4.523  1.0240 -1.2261 -0.9819
   80MOL0     H10779   3.344   1.501   4.587 -0.8079 -0.8723 -0.0250
   80MOL0     H10780   3.475   1.702   4.641 -3.3305 -1.6387  2.6041
   80MOL0     H10781   3.355   1.804   4.566 -1.5133  0.4499 -1.6563
   80MOL0     H10782   2.880   1.825   5.497 -0.3294  1.4127 -2.2546
   80MOL0     H10783   2.910   1.969   5.653 -1.1000  4.0973 -0.9373
   80MOL0     H10784   3.077   2.075   6.069 -2.6159  0.6548  0.1700
   80MOL0     H10785   3.095   2.243   6.251  0.2127 -0.1540 -0.0339
   80MOL0     H10786   2.672   3.435   6.873  1.1203 -1.1160 -2.1851
   80MOL0     H10787   2.842   3.478   7.046  0.3576 -0.1876  0.8465
   80MOL0     H10788   2.863   3.374   7.619 -1.2131  1.8495 -1.4045
   80MOL0     H10789   3.047   3.423   7.783  0.7059 -1.7711  1.1904
   80MOL0     H10790   3.473   3.324   7.665  2.4249  0.4270 -0.9012
   80MOL0     H10791   3.490   3.498   7.679  0.7750 -1.0980 -1.3629
   80MOL0     H10792   3.517   3.281   7.880  4.5207  0.6387 -0.9991
   80MOL0     H10793   3.424   3.412   7.945  0.7902 -0.5240  0.6673
   80MOL0     H10794   3.648   3.400   8.006 -0.5825 -0.2429 -0.5122
   80MOL0     H10795   3.608   3.560   7.933 -0.9903  0.1486 -0.3175
   80MOL0     H10796   3.845   3.481   7.876 -2.1969  6.2032  0.8498
   80MOL0     H10797   3.745   3.511   7.743  1.7544  2.3993  1.1062
   80MOL0     H10798   3.768   3.104   7.675 -0.8716 -0.6796  0.2925
   80MOL0     H10799   3.347   3.350   7.490  0.5143  2.4563  1.6989
   80MOL0     H10800   3.179   3.296   7.324  0.4756  0.8065 -0.0547
   81MOL0     O10801   7.169   5.926   5.386  0.0810  0.5093  0.1307
   81MOL0     C10802   7.130   5.841   5.303 -0.6739  0.5522 -0.1229
   81MOL0     O10803   7.209   5.782   5.213 -0.8125 -0.0393  0.3025
   81MOL0     C10804   7.347   5.802   5.203 -0.7519 -0.3807 -0.7675
   81MOL0     C10805   7.436   5.849   5.303 -0.1064 -0.8618 -0.4561
   81MOL0     C10806   7.577   5.865   5.290 -0.9000 -0.2682  0.0106
   81MOL0     C10807   7.635   5.817   5.173 -0.6080  1.1760 -0.0722
   81MOL0     O10808   7.767   5.824   5.140 -0.0775 -0.2492 -0.0761
   81MOL0     C10809   7.860   5.827   5.253  0.7069  0.2085 -0.1961
   81MOL0     C10810   7.987   5.754   5.203 -0.5886  0.2352  0.9676
   81MOL0     C10811   8.062   5.824   5.081  0.0624  1.3607 -0.4877
   81MOL0     C10812   8.169   5.730   5.019  0.6624 -0.5461 -0.5452
   81MOL0     C10813   8.252   5.805   4.909  0.6164  1.0126 -2.1136
   81MOL0     C10814   8.361   5.893   4.950  0.2410  0.0809 -0.0266
   81MOL0     C10815   8.479   5.834   5.031  0.1583 -0.1877  0.4948
   81MOL0     C10816   8.577   5.946   5.067 -0.1683  0.5820 -0.4700
   81MOL0     N10817   8.625   6.022   4.956 -0.5594 -0.4188 -0.5837
   81MOL0     C10818   8.571   6.137   4.902  0.6110 -0.4948 -0.0996
   81MOL0     C10819   8.673   6.195   4.833  0.6370 -0.0131  1.9518
   81MOL0     C10820   8.674   6.330   4.777  0.8272  0.7631 -0.3076
   81MOL0     C10821   8.540   6.397   4.748 -0.7469  0.1747 -0.0696
   81MOL0     C10822   8.564   6.526   4.663  1.2455 -0.3843 -0.2070
   81MOL0     C10823   8.430   6.571   4.608  0.2590 -0.1652 -0.6469
   81MOL0     O10824   8.459   6.707   4.575  0.3289 -0.1629  0.1541
   81MOL0     C10825   8.354   6.794   4.559  0.5758  0.2325 -0.3865
   81MOL0     C10826   8.386   6.921   4.575 -0.5343  0.0154 -1.1071
   81MOL0     C10827   8.290   7.023   4.554 -0.2636 -0.4394  0.3388
   81MOL0     C10828   8.344   7.167   4.562 -0.6321  0.1134  0.1013
   81MOL0     C10829   8.161   6.991   4.507  0.7105  0.0077 -0.0242
   81MOL0     C10830   8.054   7.089   4.483 -0.3140 -0.3963 -0.0839
   81MOL0     O10831   8.059   7.195   4.579 -0.2681 -0.4522 -0.5432
   81MOL0     C10832   7.944   7.263   4.597 -0.9099 -0.3894  0.0417
   81MOL0     C10833   7.932   7.379   4.526 -0.7764  0.2649 -0.5255
   81MOL0     C10834   7.819   7.459   4.534  1.4629  0.2287  0.6470
   81MOL0     C10835   7.710   7.423   4.623  0.2029  0.7235  0.4728
   81MOL0     O10836   7.593   7.502   4.616 -0.6550  0.0044  0.3639
   81MOL0     C10837   7.477   7.469   4.681 -0.7363 -0.3423  0.1984
   81MOL0     C10838   7.340   7.519   4.627  0.2429 -0.0170  0.3054
   81MOL0     C10839   7.323   7.477   4.481  0.7520 -0.3304  0.1181
   81MOL0     C10840   7.186   7.543   4.434  0.1717  0.7848  0.0386
   81MOL0     C10841   7.181   7.528   4.271 -0.6534  0.5579  0.0267
   81MOL0     C10842   7.050   7.582   4.235 -0.3347  0.4437  1.8968
   81MOL0     C10843   7.010   7.560   4.088  0.1581 -0.4486  0.1716
   81MOL0     C10844   7.089   7.657   3.998  0.2218  0.7872 -0.3366
   81MOL0    Cl10845   7.062   7.614   3.830  0.0704 -0.1036 -0.1145
   81MOL0     C10846   7.733   7.307   4.698 -0.0672  0.1031  0.2382
   81MOL0     C10847   7.856   7.237   4.695 -0.1062  0.0395  0.5368
   81MOL0     O10848   7.956   7.061   4.403 -0.0792  0.2387 -0.3815
   81MOL0     C10849   8.128   6.854   4.480 -0.8214  0.1077 -0.3314
   81MOL0     C10850   8.227   6.760   4.515  0.4847  0.5669  0.1000
   81MOL0     N10851   8.780   6.113   4.835  0.0850  0.2569  0.3226
   81MOL0     N10852   8.755   6.009   4.904  0.8305 -0.0111  0.9578
   81MOL0     C10853   7.558   5.775   5.058  0.3431  0.0452  0.1750
   81MOL0     C10854   7.416   5.759   5.076  0.6475 -0.2709 -0.8188
   81MOL0     C10855   6.980   5.815   5.298 -0.3592 -0.4041 -0.7247
   81MOL0     C10856   6.891   5.865   5.396 -0.0097 -0.5151 -0.1299
   81MOL0     C10857   6.755   5.833   5.381  0.5482 -0.8038  0.1690
   81MOL0     C10858   6.704   5.758   5.276  0.7246 -0.3279 -0.1782
   81MOL0     O10859   6.583   5.702   5.276  0.0014  0.0778  0.2406
   81MOL0     C10860   6.491   5.724   5.383 -0.4429 -0.2801  0.7497
   81MOL0     C10861   6.351   5.675   5.349 -0.6579  0.6460 -0.0537
   81MOL0     C10862   6.284   5.769   5.250  0.7745 -0.8031 -0.5919
   81MOL0     C10863   6.161   5.722   5.174 -0.6858  0.3449 -0.0421
   81MOL0     C10864   6.057   5.684   5.265 -0.1678  0.0107  0.2442
   81MOL0     C10865   5.974   5.638   5.337 -0.1988  0.7971 -0.1694
   81MOL0     C10866   6.794   5.715   5.183  0.0750 -0.0897  0.5250
   81MOL0     C10867   6.926   5.750   5.188 -0.6718 -0.2525  0.8443
   81MOL0     H10868   7.405   5.876   5.404  1.5468 -1.3112  0.2126
   81MOL0     H10869   7.640   5.884   5.376 -0.9510 -0.3038  0.0560
   81MOL0     H10870   7.879   5.929   5.287 -2.9408  0.2000  2.5099
   81MOL0     H10871   7.816   5.774   5.338 -1.1224  0.7253 -0.7643
   81MOL0     H10872   8.056   5.737   5.286 -0.5697 -3.6410  0.3450
   81MOL0     H10873   7.962   5.652   5.172 -1.5381  0.2336  1.7017
   81MOL0     H10874   7.974   5.835   5.017 -0.8558  2.9679  0.9680
   81MOL0     H10875   8.097   5.924   5.108 -0.8783  1.1914  1.5745
   81MOL0     H10876   8.229   5.699   5.105  0.0454 -1.5960 -0.4727
   81MOL0     H10877   8.113   5.645   4.979 -1.1703  1.2664 -2.0440
   81MOL0     H10878   8.288   5.722   4.847  2.0546  1.0019 -1.2990
   81MOL0     H10879   8.185   5.869   4.852 -0.1339  0.5839 -1.7300
   81MOL0     H10880   8.401   5.923   4.853  2.8489 -0.8911  0.6774
   81MOL0     H10881   8.327   5.985   4.999 -0.2947 -0.2047  0.1434
   81MOL0     H10882   8.453   5.796   5.130  0.6761 -0.2838  0.5965
   81MOL0     H10883   8.528   5.750   4.982 -0.0241  0.1567 -0.2917
   81MOL0     H10884   8.657   5.913   5.133  0.9541  1.1601 -1.4796
   81MOL0     H10885   8.527   6.023   5.126  1.1322 -1.1486  3.1184
   81MOL0     H10886   8.475   6.181   4.923  2.4877  4.4495 -0.6514
   81MOL0     H10887   8.724   6.402   4.842 -1.2682  1.5602  0.5140
   81MOL0     H10888   8.711   6.332   4.674  2.5345 -3.3494  0.0212
   81MOL0     H10889   8.502   6.420   4.848  3.2884 -0.2974  1.8099
   81MOL0     H10890   8.463   6.338   4.699 -2.3824  1.9336  0.2615
   81MOL0     H10891   8.626   6.485   4.583 -0.9740 -4.3455 -0.1390
   81MOL0     H10892   8.617   6.601   4.723  0.5443 -1.3954  1.7620
   81MOL0     H10893   8.356   6.564   4.688  1.3290  3.9875  0.9251
   81MOL0     H10894   8.400   6.511   4.521  1.3469  0.8922 -1.7987
   81MOL0     H10895   8.482   6.960   4.606 -2.0744  1.7411  1.9687
   81MOL0     H10896   8.442   7.167   4.611 -0.1349  3.7015 -0.6485
   81MOL0     H10897   8.355   7.210   4.462  3.9076 -0.3764  0.1543
   81MOL0     H10898   8.286   7.235   4.625 -1.5279  0.6444 -1.2538
   81MOL0     H10899   8.016   7.402   4.461 -1.0894 -1.1390 -1.4566
   81MOL0     H10900   7.807   7.526   4.450  1.8586  1.5633  1.6319
   81MOL0     H10901   7.464   7.361   4.666  0.1360 -0.3366 -0.7721
   81MOL0     H10902   7.504   7.492   4.784 -4.2362 -3.7615  2.1241
   81MOL0     H10903   7.261   7.459   4.672  0.9327  1.1632  3.2990
   81MOL0     H10904   7.321   7.623   4.652 -1.2525 -0.7986  2.7456
   81MOL0     H10905   7.321   7.368   4.472 -2.2764 -0.2418 -1.5262
   81MOL0     H10906   7.406   7.518   4.423  2.1712 -0.6715  1.7968
   81MOL0     H10907   7.097   7.501   4.481  1.9571 -1.4664  1.6376
   81MOL0     H10908   7.202   7.648   4.457  0.5434  0.5268  1.0124
   81MOL0     H10909   7.183   7.426   4.231 -1.4174  0.8705 -0.8504
   81MOL0     H10910   7.257   7.592   4.225 -2.4528  3.0125  0.3190
   81MOL0     H10911   6.979   7.532   4.302 -3.3085 -1.7584 -2.4464
   81MOL0     H10912   7.063   7.690   4.247  1.7565  0.3907  0.6020
   81MOL0     H10913   6.904   7.556   4.062  0.7184 -0.3279 -2.3483
   81MOL0     H10914   7.045   7.460   4.062  0.1616 -0.8015  1.4474
   81MOL0     H10915   7.195   7.661   4.022  1.3305 -2.4641 -3.7398
   81MOL0     H10916   7.039   7.754   4.009  1.1925  1.8148 -3.8146
   81MOL0     H10917   7.659   7.254   4.756 -0.5304 -1.3564 -1.5915
   81MOL0     H10918   7.858   7.148   4.757  1.3375  0.4907  1.1857
   81MOL0     H10919   8.028   6.830   4.447 -1.3926  1.3069  0.4811
   81MOL0     H10920   8.203   6.654   4.512 -2.2959  1.1351 -2.7404
   81MOL0     H10921   7.602   5.725   4.973  0.4457  0.8895 -0.2843
   81MOL0     H10922   7.353   5.702   5.009  0.0846 -3.3987  2.0888
   81MOL0     H10923   6.942   5.912   5.479 -0.5114 -2.2113  1.1991
   81MOL0     H10924   6.678   5.853   5.454 -1.0831 -0.6860 -1.5125
   81MOL0     H10925   6.521   5.660   5.466 -0.8731 -1.1814  0.2295
   81MOL0     H10926   6.489   5.829   5.412  0.2834 -0.5795  1.9594
   81MOL0     H10927   6.298   5.667   5.444  0.9193  4.2253  1.2857
   81MOL0     H10928   6.360   5.577   5.301  2.0965  1.3544 -1.1829
   81MOL0     H10929   6.374   5.786   5.191  2.2519 -1.5077  1.3345
   81MOL0     H10930   6.273   5.870   5.291  2.7481 -0.1426 -1.5460
   81MOL0     H10931   6.178   5.628   5.119 -1.4105 -1.2455  2.3234
   81MOL0     H10932   6.132   5.804   5.107  0.3469  0.2766 -0.6083
   81MOL0     H10933   5.904   5.591   5.402 -0.5062  0.6336 -0.6126
   81MOL0     H10934   6.761   5.643   5.108 -0.8692 -1.0402  1.7945
   81MOL0     H10935   6.991   5.711   5.110  1.4506  2.8821  0.8250
   82MOL0     O10936   0.206   3.627   9.746 -0.0928 -0.8417  0.0169
   82MOL0     C10937   0.196   3.743   9.784 -0.5967  0.0858 -0.2106
   82MOL0     O10938   0.254   3.784   9.892 -1.1365 -1.2463 -0.4170
   82MOL0     C10939   0.285   3.701   9.994  0.0964  0.0719 -1.0118
   82MOL0     C10940   0.239   3.737  10.119 -0.4484  0.2834  0.7041
   82MOL0     C10941   0.249   3.644  10.221  0.5279 -0.1121  0.5369
   82MOL0     C10942   0.317   3.527  10.200 -0.4555  0.2282  0.2041
   82MOL0     O10943   0.334   3.433  10.287 -0.0256  0.9544 -0.6383
   82MOL0     C10944   0.206   3.394  10.356 -1.1242  0.0035 -0.1612
   82MOL0     C10945   0.242   3.273  10.443  0.2477 -0.2493 -0.0128
   82MOL0     C10946   0.336   3.312  10.550 -0.9140 -0.0440 -0.1802
   82MOL0     C10947   0.367   3.198  10.649  0.2409  1.5248  0.7040
   82MOL0     C10948   0.491   3.223  10.734 -0.1467 -0.4692 -0.3009
   82MOL0     C10949   0.553   3.094  10.796  0.1354  0.1029  0.0659
   82MOL0     C10950   0.694   3.099  10.861  0.2451 -0.5109  0.2865
   82MOL0     C10951   0.683   3.142  11.015  1.3714 -0.3326  0.0504
   82MOL0     N10952   0.822   3.161  11.068 -0.1853  0.8790  0.1004
   82MOL0     C10953   0.853   3.231  11.180 -0.1542  1.2635 -0.0000
   82MOL0     C10954   0.986   3.207  11.199  0.6288 -0.5346 -0.4696
   82MOL0     C10955   1.080   3.261  11.312  1.2781 -0.0249 -0.1573
   82MOL0     C10956   1.107   3.158  11.416 -0.2339  0.4179 -0.6111
   82MOL0     C10957   0.982   3.093  11.472  0.4087  0.1437 -0.3682
   82MOL0     C10958   0.880   3.194  11.525 -0.3843 -0.0201 -0.3234
   82MOL0     O10959   0.854   3.186  11.665  0.1157 -0.0841  0.6354
   82MOL0     C10960   0.767   3.288  11.708  0.4323  0.6259  0.5387
   82MOL0     C10961   0.761   3.299  11.845 -0.0789  0.0034  0.3666
   82MOL0     C10962   0.699   3.403  11.912 -0.0882 -0.5647  0.5977
   82MOL0     C10963   0.730   3.416  12.057 -0.0876  0.1034  0.4135
   82MOL0     C10964   0.623   3.506  11.834 -0.2777  0.5836  1.3691
   82MOL0     C10965   0.531   3.609  11.889 -0.2574  0.8266  0.1097
   82MOL0     O10966   0.424   3.646  11.811 -0.6085  0.7942 -0.2834
   82MOL0     C10967   0.333   3.739  11.857 -0.8995 -0.3295  0.8164
   82MOL0     C10968   0.374   3.863  11.924  0.3561  1.1055 -1.0543
   82MOL0     C10969   0.283   3.966  11.965 -0.3215  1.0463  0.0177
   82MOL0     C10970   0.150   3.949  11.928 -0.3916  0.0398 -0.6486
   82MOL0     O10971   0.068   4.044  11.993  0.7595 -0.3785  0.7962
   82MOL0     C10972  -0.076   4.046  11.972 -0.1578 -0.2318  0.7285
   82MOL0     C10973  -0.151   4.126  12.079 -0.3731 -0.0374 -0.3370
   82MOL0     C10974  -0.297   4.087  12.105 -0.7686 -0.1112  0.1419
   82MOL0     C10975  -0.373   4.198  12.183 -0.2036  1.1384  0.0675
   82MOL0     C10976  -0.519   4.157  12.213 -0.4522  0.5375  0.0239
   82MOL0     C10977  -0.584   4.252  12.303  0.0003 -0.9935 -0.8661
   82MOL0     C10978  -0.663   4.357  12.220 -0.1178  0.2100  0.6522
   82MOL0     C10979  -0.769   4.416  12.309 -0.0763  0.3123 -0.3577
   82MOL0    Cl10980  -0.847   4.530  12.216  0.0737 -0.1212  0.0869
   82MOL0     C10981   0.111   3.837  11.861  1.1514  0.6364  0.1169
   82MOL0     C10982   0.199   3.730  11.829 -0.4178  0.0164  0.4245
   82MOL0     O10983   0.565   3.649  11.998  0.3015 -0.2206  0.0948
   82MOL0     C10984   0.643   3.496  11.693  0.1500 -0.3025  0.6042
   82MOL0     C10985   0.709   3.389  11.632  0.2392 -0.3756 -0.0277
   82MOL0     N10986   1.030   3.110  11.103 -0.0159  0.1554  0.0172
   82MOL0     N10987   0.931   3.086  11.031  0.7135 -0.2967  0.0185
   82MOL0     C10988   0.384   3.501  10.083 -0.5212  0.3811 -0.3820
   82MOL0     C10989   0.358   3.583   9.976  0.2712 -0.2000 -0.2686
   82MOL0     C10990   0.139   3.840   9.697 -0.5760 -0.1781 -0.3256
   82MOL0     C10991   0.102   3.964   9.741  0.9731  0.4134 -0.6784
   82MOL0     C10992   0.038   4.052   9.659 -0.4316 -0.1899  0.1036
   82MOL0     C10993   0.013   4.019   9.527 -0.3036  0.9347 -0.6139
   82MOL0     O10994  -0.050   4.118   9.462 -0.0699  0.0263 -0.0266
   82MOL0     C10995  -0.066   4.112   9.320 -0.6998  0.4139 -0.3781
   82MOL0     C10996  -0.164   4.226   9.280 -0.0625 -0.4141  0.6832
   82MOL0     C10997  -0.098   4.363   9.276  0.0610 -0.2044  0.9238
   82MOL0     C10998  -0.044   4.398   9.138  0.9916  0.4188  0.7745
   82MOL0     C10999  -0.150   4.386   9.027 -1.1182  0.8171  0.4495
   82MOL0     C11000  -0.231   4.362   8.938  0.2711 -0.7981 -0.8108
   82MOL0     C11001   0.043   3.893   9.472  0.2374  0.6414 -0.5317
   82MOL0     C11002   0.109   3.803   9.560  0.0847  0.5667 -0.9632
   82MOL0     H11003   0.189   3.833  10.123  2.6040  2.0450  0.0627
   82MOL0     H11004   0.205   3.666  10.318 -1.9379  1.1589 -0.7950
   82MOL0     H11005   0.182   3.467  10.433  1.0542  1.3456 -0.6898
   82MOL0     H11006   0.126   3.378  10.282 -1.3523 -1.3256  0.3446
   82MOL0     H11007   0.141   3.242  10.472  0.6617 -0.1279  1.6827
   82MOL0     H11008   0.286   3.191  10.385  1.5677 -1.2496  2.2319
   82MOL0     H11009   0.429   3.334  10.496  0.0642 -2.2943  0.4742
   82MOL0     H11010   0.297   3.400  10.601  0.6700 -0.7928  2.5135
   82MOL0     H11011   0.281   3.179  10.714 -0.5019  4.4737  0.7248
   82MOL0     H11012   0.387   3.109  10.589  1.5524  0.9595  1.9320
   82MOL0     H11013   0.556   3.284  10.671 -3.1422  1.9388 -1.2840
   82MOL0     H11014   0.468   3.294  10.814 -1.7557  1.5448 -2.4418
   82MOL0     H11015   0.483   3.042  10.861 -0.7540 -0.5439 -1.3676
   82MOL0     H11016   0.576   3.034  10.708 -0.5488  0.6839 -0.5237
   82MOL0     H11017   0.724   2.994  10.868  3.0426  0.2222  0.5976
   82MOL0     H11018   0.769   3.162  10.811  0.9288 -0.1813  1.6717
   82MOL0     H11019   0.629   3.078  11.086  0.8858  1.3259  1.2327
   82MOL0     H11020   0.636   3.241  11.015 -3.0748 -2.2056  1.2352
   82MOL0     H11021   0.791   3.297  11.240 -0.8498  1.6539 -1.1258
   82MOL0     H11022   1.172   3.309  11.275  0.9683  2.0037  1.5153
   82MOL0     H11023   1.029   3.340  11.368 -1.9664 -2.6604  0.9493
   82MOL0     H11024   1.151   3.218  11.496  1.4112  0.7196 -1.6754
   82MOL0     H11025   1.180   3.081  11.388 -0.2647 -0.6553  1.9762
   82MOL0     H11026   1.013   3.031  11.556  3.8059  0.4649 -1.2307
   82MOL0     H11027   0.938   3.029  11.395  0.9366 -0.5040 -0.1336
   82MOL0     H11028   0.790   3.165  11.470  0.4669 -4.3293  0.1924
   82MOL0     H11029   0.913   3.297  11.512 -0.1963 -0.1447 -0.8617
   82MOL0     H11030   0.813   3.226  11.905  1.1906  0.2716 -0.3791
   82MOL0     H11031   0.752   3.519  12.087 -0.0000 -0.3348  1.9556
   82MOL0     H11032   0.650   3.377  12.120 -1.7569 -1.6296 -2.5594
   82MOL0     H11033   0.815   3.357  12.092  3.7631  3.9393 -1.5971
   82MOL0     H11034   0.475   3.871  11.965 -0.3049 -2.2908  1.6779
   82MOL0     H11035   0.303   4.048  12.033 -0.9848  0.2958  1.1560
   82MOL0     H11036  -0.104   4.093  11.877  2.3421  0.0714  0.0690
   82MOL0     H11037  -0.115   3.944  11.976 -3.1229  0.8429  2.3468
   82MOL0     H11038  -0.094   4.136  12.172  1.8089  1.8150 -1.7874
   82MOL0     H11039  -0.153   4.224  12.031 -1.4872 -0.5159 -1.3121
   82MOL0     H11040  -0.311   4.000  12.169 -0.3079  0.2905  0.7981
   82MOL0     H11041  -0.345   4.089  12.007 -0.5792 -1.4771  0.0103
   82MOL0     H11042  -0.324   4.205  12.281  0.6532  0.4836 -0.3004
   82MOL0     H11043  -0.369   4.296  12.136  0.5389  0.7145 -0.7741
   82MOL0     H11044  -0.500   4.060  12.259  2.3237  0.7491 -0.5162
   82MOL0     H11045  -0.584   4.141  12.126 -1.9078  1.1502  0.9463
   82MOL0     H11046  -0.652   4.208  12.377 -0.1055 -0.6646 -0.7611
   82MOL0     H11047  -0.498   4.303  12.348 -0.6243  1.6113 -2.4159
   82MOL0     H11048  -0.708   4.319  12.129  2.4543  0.8859 -1.0128
   82MOL0     H11049  -0.590   4.436  12.199  2.4806 -2.4888 -1.2358
   82MOL0     H11050  -0.729   4.474  12.392 -1.4718  0.8199 -0.0038
   82MOL0     H11051  -0.836   4.335  12.339  1.3067  0.1854  2.7480
   82MOL0     H11052   0.011   3.826  11.820  1.8996 -3.0172 -1.1260
   82MOL0     H11053   0.171   3.638  11.780  0.1234 -0.5020  1.0723
   82MOL0     H11054   0.596   3.570  11.629  0.8078  3.3037  3.8790
   82MOL0     H11055   0.718   3.390  11.524 -1.8002 -2.7407 -0.2992
   82MOL0     H11056   0.453   3.418  10.072 -0.2899  0.5946 -0.5588
   82MOL0     H11057   0.409   3.557   9.885  0.3407  2.8336 -1.2154
   82MOL0     H11058   0.123   3.995   9.843  1.8975 -2.0718 -0.0541
   82MOL0     H11059   0.006   4.149   9.697 -0.8459 -0.4772  0.4852
   82MOL0     H11060   0.034   4.102   9.277 -0.5353 -1.6041  0.3657
   82MOL0     H11061  -0.122   4.023   9.291  1.3194 -2.0658  2.5962
   82MOL0     H11062  -0.247   4.216   9.351 -2.0374 -1.2511 -1.6192
   82MOL0     H11063  -0.216   4.209   9.185 -0.4609  4.0218 -0.1011
   82MOL0     H11064  -0.021   4.368   9.353  0.0358  1.0765  0.8946
   82MOL0     H11065  -0.175   4.440   9.287 -0.3238 -0.4516  0.0283
   82MOL0     H11066   0.034   4.327   9.110 -0.1799 -0.3672 -0.6549
   82MOL0     H11067   0.002   4.497   9.145  2.1625 -0.0516 -0.0062
   82MOL0     H11068  -0.307   4.333   8.868  2.0336  1.0704 -3.7172
   82MOL0     H11069   0.025   3.875   9.366 -2.2857  2.0965 -0.4177
   82MOL0     H11070   0.151   3.710   9.523 -0.5931  0.2163 -0.8825
   83MOL0     O11071   5.666   3.858   0.278  0.3929 -0.0357 -0.9327
   83MOL0     C11072   5.650   3.952   0.359  0.3290  0.7410 -0.3334
   83MOL0     O11073   5.568   3.951   0.468  0.7015  0.3363 -0.0630
   83MOL0     C11074   5.507   3.832   0.498 -0.2594  0.5959 -0.3631
   83MOL0     C11075   5.367   3.813   0.511  0.2042 -0.2129 -0.3032
   83MOL0     C11076   5.314   3.687   0.536  0.2341  0.3953  0.3409
   83MOL0     C11077   5.390   3.575   0.552  0.1612 -0.1570 -0.8272
   83MOL0     O11078   5.340   3.445   0.566 -0.0360 -0.3086 -0.0712
   83MOL0     C11079   5.412   3.329   0.508 -0.3469  0.0948  0.3272
   83MOL0     C11080   5.328   3.207   0.539 -0.1117 -0.0844 -0.7246
   83MOL0     C11081   5.183   3.223   0.495 -0.5367 -0.7298 -0.0102
   83MOL0     C11082   5.185   3.261   0.338  0.1090 -0.2853  1.4782
   83MOL0     C11083   5.044   3.248   0.267  0.2380  1.1702  0.7203
   83MOL0     C11084   4.997   3.105   0.239 -0.5712 -0.5584  0.0807
   83MOL0     C11085   4.856   3.114   0.187 -0.4981  0.6744  0.3537
   83MOL0     C11086   4.836   2.980   0.112  0.1794 -0.1220  0.2659
   83MOL0     N11087   4.873   2.861   0.195 -0.2199 -0.1989 -0.0484
   83MOL0     C11088   4.801   2.823   0.309  0.4610 -0.5740 -0.4178
   83MOL0     C11089   4.849   2.696   0.339  1.1858 -0.7220 -0.0323
   83MOL0     C11090   4.818   2.617   0.458 -0.0355  0.5948 -0.1310
   83MOL0     C11091   4.707   2.516   0.434 -0.0731 -1.0069  0.1824
   83MOL0     C11092   4.565   2.543   0.490  0.0678  0.0893  0.5359
   83MOL0     C11093   4.578   2.514   0.639 -0.2524  0.0531 -0.8766
   83MOL0     O11094   4.450   2.522   0.703  0.4198 -0.4949  0.5401
   83MOL0     C11095   4.422   2.460   0.822 -0.2171  0.6477  0.7642
   83MOL0     C11096   4.295   2.440   0.853  1.0061 -0.0729  0.1096
   83MOL0     C11097   4.263   2.381   0.984  0.7386  0.1937 -0.6759
   83MOL0     C11098   4.114   2.353   0.999  0.4353  0.3820  0.5594
   83MOL0     C11099   4.359   2.349   1.073 -1.1705  0.5004 -0.8653
   83MOL0     C11100   4.356   2.265   1.199  0.3566  0.1323 -0.4087
   83MOL0     O11101   4.475   2.202   1.233 -0.3932 -0.6675  0.5408
   83MOL0     C11102   4.491   2.177   1.365 -0.4203 -0.4961  0.3324
   83MOL0     C11103   4.553   2.287   1.425  1.0322 -0.2311 -0.0890
   83MOL0     C11104   4.590   2.279   1.563  0.3450 -1.4412  0.2676
   83MOL0     C11105   4.576   2.162   1.634 -0.8618  0.6927  0.2634
   83MOL0     O11106   4.605   2.144   1.766 -0.3500  0.3873 -0.2281
   83MOL0     C11107   4.637   2.263   1.847  0.3055  0.3491 -0.2593
   83MOL0     C11108   4.629   2.231   1.995 -0.6008  0.4276 -0.9972
   83MOL0     C11109   4.511   2.144   2.030  0.4188 -0.1963  0.2535
   83MOL0     C11110   4.477   2.155   2.181  0.2136 -0.2030 -0.1413
   83MOL0     C11111   4.391   2.280   2.209  0.0460 -1.1789 -0.4089
   83MOL0     C11112   4.352   2.295   2.351  0.6783  1.3037 -0.0305
   83MOL0     C11113   4.465   2.346   2.448  1.1842 -0.2798 -0.3616
   83MOL0     C11114   4.509   2.483   2.423  0.6917 -0.5912 -0.6532
   83MOL0    Cl11115   4.655   2.466   2.314 -0.1017  0.1756 -0.0582
   83MOL0     C11116   4.518   2.055   1.573  0.5649 -0.4733 -0.5270
   83MOL0     C11117   4.468   2.064   1.442 -0.2055 -0.2936  0.2228
   83MOL0     O11118   4.246   2.259   1.258  0.6387 -0.2453 -0.6139
   83MOL0     C11119   4.495   2.384   1.033  0.1715 -0.6137 -0.3178
   83MOL0     C11120   4.528   2.440   0.909  0.2551  0.2605 -0.9291
   83MOL0     N11121   4.940   2.662   0.242 -0.4264  0.3548  0.4003
   83MOL0     N11122   4.951   2.756   0.150 -0.5689 -0.3783 -0.0326
   83MOL0     C11123   5.531   3.593   0.536 -0.1577  0.3959  0.1870
   83MOL0     C11124   5.583   3.716   0.516 -0.3024 -0.3490  0.4907
   83MOL0     C11125   5.742   4.067   0.330 -0.3590 -0.5724  0.2420
   83MOL0     C11126   5.750   4.172   0.428 -1.1543 -0.6110  0.9162
   83MOL0     C11127   5.823   4.295   0.392  0.1598 -0.1701  1.1943
   83MOL0     C11128   5.899   4.301   0.273 -0.1297  0.0068  0.1599
   83MOL0     O11129   5.966   4.419   0.251 -0.1745 -0.2079  0.1673
   83MOL0     C11130   5.983   4.461   0.122  0.0271  0.3373  0.6596
   83MOL0     C11131   6.119   4.408   0.051  0.8665 -0.0064  0.1716
   83MOL0     C11132   6.145   4.483  -0.082 -0.7631 -0.1536  0.0895
   83MOL0     C11133   6.031   4.526  -0.185 -0.9985  0.5929  0.2934
   83MOL0     C11134   6.000   4.407  -0.266 -0.6902  0.0121  0.4091
   83MOL0     C11135   5.986   4.307  -0.326  0.8050  0.4617  0.2537
   83MOL0     C11136   5.896   4.188   0.183 -0.0688 -0.0677 -0.7102
   83MOL0     C11137   5.825   4.077   0.214  0.4505  0.6249  0.4367
   83MOL0     H11138   5.295   3.893   0.494 -0.4058 -0.6307  0.2471
   83MOL0     H11139   5.206   3.685   0.530  0.1330 -0.0867  1.8990
   83MOL0     H11140   5.424   3.355   0.402  3.2098  1.2104  0.9068
   83MOL0     H11141   5.514   3.316   0.545  0.6239 -2.7157 -2.8055
   83MOL0     H11142   5.372   3.116   0.498 -2.9533 -1.7442 -0.3901
   83MOL0     H11143   5.335   3.185   0.646  1.7544  1.0346 -0.5833
   83MOL0     H11144   5.132   3.128   0.515  1.5534 -1.5688  1.7036
   83MOL0     H11145   5.130   3.295   0.559  2.1409  1.1994  0.1727
   83MOL0     H11146   5.210   3.367   0.329 -0.8822 -0.0392  1.5315
   83MOL0     H11147   5.256   3.197   0.284  1.4100  2.9969 -1.0398
   83MOL0     H11148   4.968   3.309   0.317  0.2182  1.4499  0.3583
   83MOL0     H11149   5.045   3.300   0.170  1.9644 -2.2492 -1.2625
   83MOL0     H11150   5.064   3.051   0.172 -0.5682  0.4399 -0.7434
   83MOL0     H11151   4.997   3.060   0.339  1.0541  1.2986  0.9774
   83MOL0     H11152   4.780   3.131   0.264 -0.6567 -3.4689  1.3160
   83MOL0     H11153   4.842   3.197   0.117 -2.2929  0.8501  0.8724
   83MOL0     H11154   4.901   2.992   0.025  1.2175 -1.3322  0.8255
   83MOL0     H11155   4.733   2.981   0.075 -0.9293 -1.0728  3.0519
   83MOL0     H11156   4.731   2.874   0.375  1.7357  1.0318 -0.2330
   83MOL0     H11157   4.906   2.561   0.492  1.4520  0.8712 -3.2255
   83MOL0     H11158   4.793   2.682   0.542 -0.6382 -0.1602  0.2935
   83MOL0     H11159   4.728   2.416   0.472 -0.4500 -0.1176  2.9522
   83MOL0     H11160   4.691   2.510   0.326 -2.9526  1.4340  0.3485
   83MOL0     H11161   4.506   2.467   0.438  1.7729  0.6727 -2.4795
   83MOL0     H11162   4.517   2.639   0.473 -1.2600 -0.8938 -1.6500
   83MOL0     H11163   4.644   2.582   0.694  0.3498 -1.4924  0.3966
   83MOL0     H11164   4.618   2.416   0.666 -1.3288 -0.2181 -0.1903
   83MOL0     H11165   4.213   2.473   0.791 -1.4302  2.0138  4.0746
   83MOL0     H11166   4.063   2.423   1.066 -0.5262  1.0632 -0.8350
   83MOL0     H11167   4.065   2.346   0.902 -1.3932 -3.6680  1.5751
   83MOL0     H11168   4.110   2.254   1.045  3.1134  0.8684  2.0733
   83MOL0     H11169   4.563   2.380   1.369 -0.9791  2.3145  3.3580
   83MOL0     H11170   4.632   2.370   1.604 -1.8631 -0.8602  1.3818
   83MOL0     H11171   4.732   2.309   1.818 -1.1603  2.5837 -1.9151
   83MOL0     H11172   4.549   2.325   1.824 -0.9516 -0.9795  0.7385
   83MOL0     H11173   4.724   2.198   2.038  0.4000  1.2794 -2.4662
   83MOL0     H11174   4.614   2.329   2.042  1.0405 -0.2136  1.0353
   83MOL0     H11175   4.529   2.038   2.007  0.0329 -0.8337  2.6554
   83MOL0     H11176   4.430   2.169   1.961  1.8302 -1.1953 -1.9026
   83MOL0     H11177   4.424   2.063   2.207  0.8600 -0.6362 -0.3649
   83MOL0     H11178   4.567   2.152   2.243 -2.2965 -1.9030  3.8227
   83MOL0     H11179   4.301   2.282   2.147 -2.1354 -0.5286  2.5840
   83MOL0     H11180   4.455   2.361   2.172 -1.3110 -0.5270 -1.4249
   83MOL0     H11181   4.270   2.368   2.359 -3.6507 -2.7346 -2.4325
   83MOL0     H11182   4.306   2.202   2.385  1.6382  0.5422 -0.7588
   83MOL0     H11183   4.555   2.284   2.439  2.0642  1.0750 -1.5014
   83MOL0     H11184   4.423   2.337   2.548  0.2347 -3.1357 -0.9175
   83MOL0     H11185   4.539   2.529   2.517  1.1863 -0.5979 -0.8070
   83MOL0     H11186   4.430   2.535   2.367  1.9583 -1.3433 -3.3180
   83MOL0     H11187   4.509   1.962   1.629 -2.3696 -1.1538 -1.9117
   83MOL0     H11188   4.412   1.975   1.416  0.5448 -0.5639 -0.5301
   83MOL0     H11189   4.585   2.355   1.086  0.6437  1.4074  0.0887
   83MOL0     H11190   4.631   2.458   0.879  0.6482  1.3079  0.9101
   83MOL0     H11191   5.594   3.504   0.538 -0.3172  0.2881  1.4775
   83MOL0     H11192   5.689   3.729   0.500 -0.3376 -0.2274  0.3529
   83MOL0     H11193   5.691   4.174   0.519 -2.6626  1.5808 -0.0275
   83MOL0     H11194   5.813   4.382   0.456  0.5776 -1.4828  3.1374
   83MOL0     H11195   5.895   4.431   0.065 -0.2174 -2.1708  2.2412
   83MOL0     H11196   5.986   4.570   0.119  1.0868  0.3208  0.6870
   83MOL0     H11197   6.104   4.300   0.039 -1.0073 -0.2269  3.4338
   83MOL0     H11198   6.209   4.425   0.109  1.1302  3.3500 -0.9955
   83MOL0     H11199   6.223   4.421  -0.127 -0.4495  0.6358 -0.4998
   83MOL0     H11200   6.202   4.572  -0.052 -0.9017  0.0709 -0.2913
   83MOL0     H11201   6.081   4.598  -0.251  3.0525 -2.1144  0.0071
   83MOL0     H11202   5.939   4.561  -0.138 -1.3079  1.7513 -1.0886
   83MOL0     H11203   5.968   4.218  -0.384 -0.5766  2.0979 -2.0072
   83MOL0     H11204   5.938   4.193   0.083  0.0281 -0.5176 -0.6948
   83MOL0     H11205   5.824   4.000   0.137  1.9051  0.7138  0.3044
   84MOL0     O11206  10.094  11.229   9.654  0.1511 -0.2955 -0.3215
   84MOL0     C11207  10.000  11.189   9.582  0.8283 -0.2677  0.3390
   84MOL0     O11208   9.896  11.108   9.625 -0.7031 -0.0426 -0.4557
   84MOL0     C11209   9.881  11.097   9.763 -0.5418  0.9430  0.3493
   84MOL0     C11210   9.779  11.164   9.837 -0.4586  0.2330 -0.2450
   84MOL0     C11211   9.765  11.149   9.976 -0.3667  0.2787 -0.3288
   84MOL0     C11212   9.840  11.055  10.044 -1.7770 -0.2938  0.1912
   84MOL0     O11213   9.834  11.052  10.179  0.2591  0.4009 -0.6248
   84MOL0     C11214   9.812  10.916  10.228 -0.6510  0.2500 -0.0863
   84MOL0     C11215   9.830  10.900  10.385 -0.0624  0.1326  0.6278
   84MOL0     C11216   9.967  10.856  10.435  0.3349  0.0454 -0.2770
   84MOL0     C11217   9.993  10.715  10.380 -0.5792  0.8491  0.1243
   84MOL0     C11218  10.121  10.649  10.434 -0.4684  0.9513  0.1671
   84MOL0     C11219  10.114  10.615  10.580  0.9720  1.5876 -0.0603
   84MOL0     C11220  10.014  10.500  10.619  1.5590 -0.4203  0.3622
   84MOL0     C11221  10.053  10.436  10.758  0.4047  0.4672  0.6272
   84MOL0     N11222  10.139  10.323  10.778  0.9036  0.4224  0.3622
   84MOL0     C11223  10.264  10.320  10.821 -0.0160  0.6086  0.1679
   84MOL0     C11224  10.305  10.190  10.830  0.2394 -0.9553 -1.2734
   84MOL0     C11225  10.442  10.138  10.865 -0.6440  0.7784 -0.2494
   84MOL0     C11226  10.510  10.032  10.770  1.0344 -0.3198 -0.9595
   84MOL0     C11227  10.436   9.891  10.767  0.2113 -0.2544  0.1848
   84MOL0     C11228  10.440   9.831  10.909 -0.2414 -0.1315  0.2081
   84MOL0     O11229  10.570   9.773  10.922 -0.2528  0.3742  0.5629
   84MOL0     C11230  10.600   9.730  11.052  0.2566  0.2480  0.6452
   84MOL0     C11231  10.735   9.718  11.089 -0.0567 -0.1875  0.1438
   84MOL0     C11232  10.770   9.652  11.213  0.3672 -0.3651  0.4043
   84MOL0     C11233  10.914   9.629  11.227 -0.5603  0.5820  0.4492
   84MOL0     C11234  10.670   9.611  11.301  0.5545 -0.1666  0.4783
   84MOL0     C11235  10.693   9.525  11.420  0.1877 -0.7235  0.4764
   84MOL0     O11236  10.823   9.524  11.468  0.4582  0.1821  0.2585
   84MOL0     C11237  10.869   9.432  11.557  0.5645  0.6178 -0.1637
   84MOL0     C11238  10.953   9.319  11.520 -0.6516  0.0745 -0.0208
   84MOL0     C11239  11.008   9.233  11.615  0.8078  0.6272 -0.0043
   84MOL0     C11240  10.986   9.263  11.749  0.1403  0.1075 -0.2990
   84MOL0     O11241  11.022   9.185  11.853 -0.7282 -0.2078 -1.0141
   84MOL0     C11242  11.159   9.154  11.862 -0.3197 -0.0739 -0.5891
   84MOL0     C11243  11.184   9.129  12.012  0.5367 -0.3731 -0.6785
   84MOL0     C11244  11.201   9.254  12.103 -0.4446  0.3559  0.8226
   84MOL0     C11245  11.225   9.217  12.252  0.0218 -0.2073  0.7410
   84MOL0     C11246  11.226   9.335  12.340 -0.1035  0.0746 -0.8436
   84MOL0     C11247  11.239   9.302  12.487  0.3299 -0.2034 -0.1161
   84MOL0     C11248  11.100   9.271  12.539 -0.4457  0.4924 -0.3310
   84MOL0     C11249  11.102   9.243  12.689  0.1168 -0.0054 -0.8227
   84MOL0    Cl11250  10.969   9.126  12.721 -0.3409 -0.2375  0.0232
   84MOL0     C11251  10.903   9.365  11.785  1.0394 -0.4814  0.3693
   84MOL0     C11252  10.838   9.448  11.693 -0.3405 -1.1277  0.3148
   84MOL0     O11253  10.597   9.457  11.459  0.2979  0.2497 -0.8844
   84MOL0     C11254  10.531   9.630  11.264  0.0274  0.5294 -0.1097
   84MOL0     C11255  10.501   9.689  11.141 -0.2947  0.4929 -0.7633
   84MOL0     N11256  10.190  10.117  10.810 -0.8595 -0.5960 -0.3655
   84MOL0     N11257  10.094  10.196  10.762 -0.5634  0.3167 -0.5552
   84MOL0     C11258   9.946  10.985   9.970  0.5220 -1.2266 -0.5430
   84MOL0     C11259   9.968  11.006   9.833  0.2344 -0.2886 -0.4770
   84MOL0     C11260  10.000  11.217   9.430  0.1738 -0.2587 -0.2333
   84MOL0     C11261  10.066  11.332   9.388  0.6898 -0.9771 -0.4769
   84MOL0     C11262  10.031  11.370   9.251 -0.5665  0.0219 -0.3397
   84MOL0     C11263   9.945  11.300   9.163 -0.1338 -0.0564  1.3841
   84MOL0     O11264   9.918  11.331   9.031  0.4673 -0.0535 -0.1343
   84MOL0     C11265   9.989  11.438   8.967  0.2079 -0.9740 -0.6336
   84MOL0     C11266   9.936  11.577   8.989 -0.0561  0.3577 -0.2753
   84MOL0     C11267  10.018  11.685   8.930  0.3783 -1.0181 -0.1968
   84MOL0     C11268  10.149  11.725   9.002  0.2084 -0.1044  0.8252
   84MOL0     C11269  10.224  11.833   8.944  0.1917  0.2081  0.4032
   84MOL0     C11270  10.301  11.922   8.901 -1.0282 -0.2461  0.0059
   84MOL0     C11271   9.904  11.171   9.213  0.4935 -1.2503 -0.3639
   84MOL0     C11272   9.917  11.137   9.347  0.1638 -0.2806 -0.2863
   84MOL0     H11273   9.710  11.237   9.796 -1.1753 -0.6736 -0.6772
   84MOL0     H11274   9.694  11.212  10.029  0.6946  0.2294  1.2312
   84MOL0     H11275   9.707  10.891  10.211 -0.7617 -1.0736  2.1669
   84MOL0     H11276   9.878  10.840  10.186 -0.2974 -0.0784  1.0179
   84MOL0     H11277   9.810  10.995  10.434  2.4080  0.5025  1.0744
   84MOL0     H11278   9.762  10.823  10.421  1.4365 -0.8353  1.5179
   84MOL0     H11279  10.040  10.932  10.405  1.6705 -0.1937  2.0778
   84MOL0     H11280   9.967  10.854  10.545 -2.2089  0.4341 -0.2176
   84MOL0     H11281   9.905  10.651  10.392  0.4272 -0.4482  0.8185
   84MOL0     H11282   9.997  10.723  10.271  0.1151  1.0052  0.1559
   84MOL0     H11283  10.141  10.558  10.376  1.1751 -0.6894  3.1106
   84MOL0     H11284  10.207  10.715  10.420 -1.0255  1.3339 -1.8319
   84MOL0     H11285  10.209  10.561  10.593  0.7713  1.2455  0.0170
   84MOL0     H11286  10.104  10.699  10.650  0.2937  0.9971  0.5774
   84MOL0     H11287   9.915  10.547  10.618  1.1677 -1.2289 -0.3800
   84MOL0     H11288  10.013  10.409  10.558 -0.6685  0.3071 -0.8054
   84MOL0     H11289   9.957  10.395  10.790 -0.0896 -0.0494 -1.3785
   84MOL0     H11290  10.075  10.504  10.841 -0.8146 -1.1804  2.3844
   84MOL0     H11291  10.323  10.408  10.845  3.2679 -0.5890 -2.5963
   84MOL0     H11292  10.494  10.234  10.854  0.3985 -0.0723 -4.9404
   84MOL0     H11293  10.450  10.109  10.970  0.6563  0.3982 -0.4334
   84MOL0     H11294  10.616  10.030  10.798  1.3696 -0.5084 -2.1818
   84MOL0     H11295  10.513  10.091  10.677  0.9705  0.7577 -0.2902
   84MOL0     H11296  10.466   9.818  10.691 -0.4485  0.1699 -0.4914
   84MOL0     H11297  10.332   9.916  10.744  0.3889  1.7358  1.3546
   84MOL0     H11298  10.378   9.741  10.918  0.7535 -0.6419  2.8823
   84MOL0     H11299  10.420   9.905  10.987 -0.7719  0.2321 -0.2704
   84MOL0     H11300  10.811   9.758  11.024  0.3739  2.0065  1.8429
   84MOL0     H11301  10.951   9.704  11.296 -1.2768 -1.2301  2.9684
   84MOL0     H11302  10.941   9.524  11.243  1.3679  1.2434  1.7434
   84MOL0     H11303  10.955   9.653  11.128 -1.7873 -1.1720 -0.5608
   84MOL0     H11304  10.986   9.303  11.418  0.5899 -0.4653  0.4385
   84MOL0     H11305  11.070   9.153  11.577 -3.5096 -1.8183 -2.6976
   84MOL0     H11306  11.173   9.058  11.812 -5.0895 -1.0243 -0.6034
   84MOL0     H11307  11.213   9.239  11.818  1.3549 -1.2967 -0.9660
   84MOL0     H11308  11.111   9.059  12.055  1.0208 -1.0177 -0.8936
   84MOL0     H11309  11.277   9.071  12.012 -0.7228 -2.5212 -0.9753
   84MOL0     H11310  11.108   9.310  12.094 -1.6257 -1.6358  0.0525
   84MOL0     H11311  11.289   9.307  12.066 -0.1774 -1.2071 -0.9768
   84MOL0     H11312  11.155   9.139  12.284 -1.9119  2.2938  3.0468
   84MOL0     H11313  11.327   9.178  12.266 -0.2159 -1.7585 -1.3134
   84MOL0     H11314  11.144   9.407  12.328 -2.4543 -2.3226 -0.2283
   84MOL0     H11315  11.314   9.396  12.319 -1.6755  2.4800 -0.8747
   84MOL0     H11316  11.300   9.211  12.498  0.1017 -0.4656 -0.9363
   84MOL0     H11317  11.286   9.386  12.538  2.0310  0.9264 -3.3224
   84MOL0     H11318  11.046   9.190  12.491 -0.9513 -0.4447  1.7203
   84MOL0     H11319  11.037   9.361  12.537 -5.0491 -2.3858 -3.1462
   84MOL0     H11320  11.078   9.327  12.755  1.1376 -0.3823  0.0493
   84MOL0     H11321  11.199   9.206  12.720  0.3938  0.8734 -0.6070
   84MOL0     H11322  10.885   9.361  11.892  1.7748 -0.3102  0.5112
   84MOL0     H11323  10.764   9.524  11.712  1.5679  0.7324  0.7416
   84MOL0     H11324  10.460   9.587  11.334  0.0472  2.4912  1.2176
   84MOL0     H11325  10.396   9.689  11.114 -0.5966  1.1141  0.3305
   84MOL0     H11326  10.015  10.931  10.034 -1.1840  0.2046  2.7732
   84MOL0     H11327  10.046  10.965   9.770  0.1364  1.9952 -2.2525
   84MOL0     H11328  10.120  11.398   9.455 -1.8993 -1.9253  2.7829
   84MOL0     H11329  10.064  11.467   9.214 -2.1564  1.2815  1.3039
   84MOL0     H11330  10.093  11.432   9.002 -0.3175 -0.9136  0.9851
   84MOL0     H11331   9.981  11.432   8.858 -0.3682 -0.4296 -0.6209
   84MOL0     H11332   9.921  11.593   9.096 -1.7129  0.4366 -0.5015
   84MOL0     H11333   9.834  11.580   8.950 -0.3349  0.5528  0.4517
   84MOL0     H11334   9.952  11.768   8.906 -0.1210 -0.3722  3.0167
   84MOL0     H11335  10.052  11.646   8.833  1.3539  0.9773 -0.7149
   84MOL0     H11336  10.212  11.636   8.996 -1.3691 -1.7905  5.0955
   84MOL0     H11337  10.117  11.748   9.104 -0.7149  0.2910  0.4600
   84MOL0     H11338  10.368  11.994   8.857  1.4248 -2.6973 -0.5270
   84MOL0     H11339   9.838  11.119   9.145 -4.0275  3.3632 -0.0908
   84MOL0     H11340   9.854  11.056   9.382 -3.1981  2.2606  0.1497
   85MOL0     O11341  10.365   0.583   4.342  0.3441  0.0670  0.1968
   85MOL0     C11342  10.460   0.646   4.302 -0.6376 -0.4350  0.5137
   85MOL0     O11343  10.449   0.760   4.222 -0.6033 -0.4006  0.7455
   85MOL0     C11344  10.334   0.806   4.179  0.5325 -0.2330  0.4436
   85MOL0     C11345  10.322   0.802   4.040 -0.4306  0.0542  0.5359
   85MOL0     C11346  10.216   0.853   3.971 -0.2344  0.2358 -0.6364
   85MOL0     C11347  10.108   0.899   4.047 -0.2519  0.7280  0.2185
   85MOL0     O11348   9.999   0.926   3.967  0.6185 -0.2426 -0.1446
   85MOL0     C11349   9.884   0.992   4.028 -0.0937  0.2270 -1.0599
   85MOL0     C11350   9.805   1.036   3.903  0.5951 -0.0301 -0.4537
   85MOL0     C11351   9.855   1.167   3.847  0.5471 -0.1718 -0.9543
   85MOL0     C11352   9.763   1.218   3.736 -0.6050  0.3131  1.1587
   85MOL0     C11353   9.834   1.348   3.676  0.3694 -1.1627  0.2995
   85MOL0     C11354   9.785   1.380   3.534  0.0897 -0.1350  0.5079
   85MOL0     C11355   9.855   1.498   3.471 -0.1028 -0.3330  0.6750
   85MOL0     C11356   9.800   1.557   3.338  0.2210 -0.0255 -0.4747
   85MOL0     N11357   9.814   1.455   3.232  0.3048  0.1138 -1.1809
   85MOL0     C11358   9.928   1.405   3.171  0.1877  0.4450  0.2451
   85MOL0     C11359   9.887   1.315   3.081  0.1856  0.2539  0.7194
   85MOL0     C11360   9.987   1.253   2.980 -0.3873  0.5115 -0.6739
   85MOL0     C11361   9.947   1.110   2.948  0.8549 -0.9411  0.4712
   85MOL0     C11362  10.046   1.055   2.850 -0.8995 -0.6877 -0.5106
   85MOL0     C11363  10.031   0.896   2.840 -0.0708 -0.2595  0.5440
   85MOL0     O11364  10.068   0.826   2.962 -0.7319  0.5479  0.2121
   85MOL0     C11365  10.207   0.816   2.972  0.1313  0.8933 -0.2923
   85MOL0     C11366  10.269   0.874   3.080 -1.4446  0.0218 -0.2957
   85MOL0     C11367  10.412   0.865   3.085  0.9865  0.2117 -0.5881
   85MOL0     C11368  10.479   0.903   3.212  0.0605 -0.4477  0.1976
   85MOL0     C11369  10.486   0.801   2.980 -0.4893  0.7021  0.5131
   85MOL0     C11370  10.638   0.796   2.979  0.2434 -0.3555  0.1061
   85MOL0     O11371  10.706   0.696   2.911 -0.8150  0.8907 -0.0451
   85MOL0     C11372  10.845   0.718   2.904 -0.0474  0.2686  0.2136
   85MOL0     C11373  10.924   0.653   3.000 -0.1845 -1.2860 -0.2944
   85MOL0     C11374  11.066   0.663   2.980 -0.0541  0.3690  0.7118
   85MOL0     C11375  11.126   0.724   2.870  0.9228  0.5731 -0.1825
   85MOL0     O11376  11.258   0.710   2.875  0.0556  1.0182  0.2386
   85MOL0     C11377  11.343   0.785   2.795 -0.4194 -0.8904 -0.6323
   85MOL0     C11378  11.471   0.827   2.870 -0.3043  0.4263 -0.3906
   85MOL0     C11379  11.577   0.878   2.772 -1.2748  0.2465 -0.4046
   85MOL0     C11380  11.653   0.996   2.825  0.5313 -0.3474 -0.2746
   85MOL0     C11381  11.755   1.065   2.719 -0.2828  0.8031 -0.2095
   85MOL0     C11382  11.817   1.183   2.801  0.2588 -0.2389 -0.3474
   85MOL0     C11383  11.915   1.261   2.714 -0.0816  0.1218  0.5860
   85MOL0     C11384  11.968   1.376   2.800  0.2861 -0.1702  0.1355
   85MOL0    Cl11385  12.098   1.483   2.735  0.0559 -0.2610 -0.0133
   85MOL0     C11386  11.042   0.798   2.783 -0.2355 -0.2603  0.1233
   85MOL0     C11387  10.903   0.791   2.797 -0.3632  0.5751 -0.1332
   85MOL0     O11388  10.697   0.880   3.046  0.2581 -0.3093 -1.0820
   85MOL0     C11389  10.419   0.741   2.872 -0.2135  0.1485 -0.0623
   85MOL0     C11390  10.276   0.750   2.867 -0.3042  0.3253 -0.9679
   85MOL0     N11391   9.753   1.309   3.092 -0.0384  0.2347  0.1319
   85MOL0     N11392   9.708   1.390   3.178  0.0117  0.2043  0.7408
   85MOL0     C11393  10.112   0.890   4.185 -0.1458  0.4664 -0.2948
   85MOL0     C11394  10.228   0.846   4.260  1.0993 -0.1408 -0.3551
   85MOL0     C11395  10.600   0.601   4.345  1.2841 -0.8679 -0.3355
   85MOL0     C11396  10.719   0.662   4.299 -0.5917 -0.6266  0.0930
   85MOL0     C11397  10.844   0.604   4.353 -0.7299 -0.6494 -0.1949
   85MOL0     C11398  10.849   0.495   4.443  0.4271  0.1362 -0.2499
   85MOL0     O11399  10.970   0.461   4.492 -0.2627 -0.5221  0.4625
   85MOL0     C11400  10.987   0.438   4.630 -1.1917 -0.1042 -0.5377
   85MOL0     C11401  10.978   0.570   4.703 -0.6539 -0.6330 -0.1000
   85MOL0     C11402  11.104   0.649   4.681 -0.4902  0.0991  0.3327
   85MOL0     C11403  11.233   0.603   4.735  0.3740 -0.3089 -0.4304
   85MOL0     C11404  11.337   0.708   4.751  0.1318  0.4590 -0.1749
   85MOL0     C11405  11.433   0.785   4.746 -0.2489 -1.5247 -1.3871
   85MOL0     C11406  10.734   0.436   4.486  1.0829 -0.1685 -0.0950
   85MOL0     C11407  10.613   0.491   4.434 -0.1691  0.2896 -0.2739
   85MOL0     H11408  10.402   0.755   3.984 -2.0929 -0.7905 -1.2345
   85MOL0     H11409  10.208   0.849   3.863  1.5319 -3.7839 -0.7994
   85MOL0     H11410   9.829   0.916   4.084  1.9535 -0.1113  0.6401
   85MOL0     H11411   9.919   1.078   4.086 -0.2666  0.4664 -1.3106
   85MOL0     H11412   9.818   0.961   3.825  1.7066  0.2279 -0.5372
   85MOL0     H11413   9.704   1.062   3.937  0.7528  1.5541 -1.0974
   85MOL0     H11414   9.855   1.242   3.926  2.3933  0.2453 -1.3053
   85MOL0     H11415   9.953   1.148   3.801  0.6069 -1.9354 -0.1862
   85MOL0     H11416   9.750   1.146   3.655  0.1646  0.2417  1.0935
   85MOL0     H11417   9.663   1.245   3.773 -0.6548  0.1800  1.1250
   85MOL0     H11418   9.824   1.436   3.741  3.0507  1.3745 -2.3891
   85MOL0     H11419   9.942   1.340   3.665  0.5247  1.3684 -0.7673
   85MOL0     H11420   9.795   1.289   3.474  0.0516 -1.1404  1.9746
   85MOL0     H11421   9.683   1.419   3.537 -0.5493 -0.6888 -4.4787
   85MOL0     H11422   9.855   1.573   3.550 -4.5825  0.5748  0.0735
   85MOL0     H11423   9.956   1.467   3.444 -0.5187  1.4770 -3.9928
   85MOL0     H11424   9.859   1.643   3.305  0.1124 -0.2920 -1.3767
   85MOL0     H11425   9.697   1.587   3.358  0.4893  0.7433 -0.2198
   85MOL0     H11426  10.027   1.441   3.194  0.8628 -0.5753 -0.9063
   85MOL0     H11427   9.968   1.317   2.894 -3.5881  3.4826  1.9527
   85MOL0     H11428  10.091   1.271   3.007 -0.3656  0.4847 -0.7339
   85MOL0     H11429   9.851   1.119   2.896  3.0995 -0.2509 -4.0933
   85MOL0     H11430   9.942   1.049   3.038 -2.5836  1.1533  1.9060
   85MOL0     H11431  10.150   1.079   2.870 -1.5156  2.1799 -0.3299
   85MOL0     H11432  10.030   1.096   2.750  0.3565  3.4112  0.7701
   85MOL0     H11433  10.088   0.863   2.752 -0.4861 -2.4334  1.0275
   85MOL0     H11434   9.926   0.874   2.819 -0.4778  1.4982  0.6350
   85MOL0     H11435  10.220   0.922   3.164 -1.4259  2.8894 -1.7925
   85MOL0     H11436  10.543   0.824   3.255 -0.2187 -0.1672  1.1628
   85MOL0     H11437  10.545   0.986   3.186  0.3404  0.1262  2.5254
   85MOL0     H11438  10.412   0.931   3.294 -1.9663  2.8933 -2.3501
   85MOL0     H11439  10.877   0.613   3.089  1.3783  1.4316  1.8993
   85MOL0     H11440  11.134   0.615   3.050  2.8948 -0.1465 -2.2618
   85MOL0     H11441  11.369   0.736   2.700  0.4920 -0.0912 -0.8100
   85MOL0     H11442  11.294   0.880   2.771 -1.2026 -1.5080 -1.5737
   85MOL0     H11443  11.451   0.909   2.940 -2.1766  0.2397 -0.6592
   85MOL0     H11444  11.510   0.744   2.931 -0.5768  0.2383 -0.4707
   85MOL0     H11445  11.525   0.899   2.678 -3.6833  2.2283  1.2447
   85MOL0     H11446  11.656   0.803   2.762 -0.2810  1.2083  0.1463
   85MOL0     H11447  11.577   1.074   2.840  1.7366  1.1843 -1.7129
   85MOL0     H11448  11.696   0.969   2.922 -0.8452  0.3185  0.5491
   85MOL0     H11449  11.706   1.104   2.629  1.7676  0.3318 -1.6165
   85MOL0     H11450  11.827   0.988   2.691 -1.4276 -1.8472  3.4049
   85MOL0     H11451  11.734   1.236   2.848 -0.4172 -1.8065  0.3244
   85MOL0     H11452  11.872   1.137   2.884  0.9014 -0.6010 -0.9611
   85MOL0     H11453  11.860   1.302   2.628  1.0413  1.2154  0.3705
   85MOL0     H11454  11.993   1.195   2.676 -0.1649  1.4794 -2.2040
   85MOL0     H11455  12.004   1.323   2.889 -0.7407  1.2383  1.4306
   85MOL0     H11456  11.884   1.438   2.832 -0.2650 -0.0086 -1.5331
   85MOL0     H11457  11.094   0.860   2.710 -0.1308  1.4739  1.5895
   85MOL0     H11458  10.848   0.844   2.720 -1.4773  0.6125  0.6502
   85MOL0     H11459  10.473   0.686   2.796 -3.5721 -3.6895 -0.0640
   85MOL0     H11460  10.244   0.703   2.774  1.0964  0.5695 -1.6050
   85MOL0     H11461  10.017   0.904   4.236 -0.3805  0.3666 -0.7007
   85MOL0     H11462  10.229   0.858   4.368 -0.1910  4.9349 -0.6347
   85MOL0     H11463  10.716   0.755   4.243 -1.2640 -1.1846 -0.8363
   85MOL0     H11464  10.939   0.650   4.327 -0.1608 -0.5779  1.8304
   85MOL0     H11465  10.911   0.371   4.671 -2.6046  0.9456 -1.3658
   85MOL0     H11466  11.085   0.390   4.634 -1.7683 -1.6361 -2.9136
   85MOL0     H11467  10.968   0.548   4.809  2.1543  1.8333  0.8252
   85MOL0     H11468  10.885   0.623   4.682 -2.4612 -4.3417 -2.4181
   85MOL0     H11469  11.082   0.748   4.723  0.1405  0.4696 -0.1894
   85MOL0     H11470  11.108   0.667   4.573  0.8569  0.9235  0.4941
   85MOL0     H11471  11.269   0.523   4.671  2.5646  0.1528  0.1229
   85MOL0     H11472  11.211   0.559   4.833 -0.9801  0.6069 -0.3064
   85MOL0     H11473  11.512   0.852   4.719  1.4025 -3.4638 -1.6885
   85MOL0     H11474  10.722   0.355   4.557 -1.7733  1.1692  1.1336
   85MOL0     H11475  10.525   0.441   4.472  0.1723  1.9937  3.0877
   86MOL0     O11476   9.839  10.365  10.182 -0.6767  0.2084  0.2973
   86MOL0     C11477   9.949  10.407  10.169 -0.6848  0.5568 -0.7758
   86MOL0     O11478   9.976  10.530  10.111 -0.1156 -0.9769  0.1347
   86MOL0     C11479   9.889  10.589  10.023 -0.7928 -0.0850  1.2220
   86MOL0     C11480   9.754  10.601  10.057  1.0819 -0.3104  0.1477
   86MOL0     C11481   9.653  10.669   9.980 -0.3704  0.5970  0.4266
   86MOL0     C11482   9.693  10.718   9.857  0.0950 -0.8506  0.5113
   86MOL0     O11483   9.597  10.790   9.796  0.7217 -0.0031 -0.1209
   86MOL0     C11484   9.625  10.832   9.662 -0.1837 -0.5899 -0.2331
   86MOL0     C11485   9.497  10.901   9.597 -0.3217 -0.0880  0.4097
   86MOL0     C11486   9.550  10.981   9.480 -0.3089 -0.7564  0.4467
   86MOL0     C11487   9.434  11.062   9.434 -0.1687 -0.9630  0.2634
   86MOL0     C11488   9.470  11.190   9.347 -0.5320 -0.5725 -0.5121
   86MOL0     C11489   9.548  11.155   9.224  1.3185 -0.4280 -0.6677
   86MOL0     C11490   9.457  11.107   9.121 -0.2930 -0.1486 -0.6669
   86MOL0     C11491   9.524  11.032   9.014  0.5414 -0.5830  0.4280
   86MOL0     N11492   9.556  10.895   9.070 -0.4229  0.0968  0.5061
   86MOL0     C11493   9.471  10.792   9.083 -0.3262  0.1270  0.4288
   86MOL0     C11494   9.552  10.696   9.148  0.2324  0.5602  0.3392
   86MOL0     C11495   9.482  10.571   9.200  0.8204 -0.8897 -0.0864
   86MOL0     C11496   9.460  10.593   9.354  0.4374 -0.7267 -0.6550
   86MOL0     C11497   9.347  10.499   9.407  0.3239  0.0248  0.0709
   86MOL0     C11498   9.353  10.496   9.563  0.2123  0.3168 -0.2767
   86MOL0     O11499   9.214  10.483   9.613 -0.1635 -1.3159 -0.5414
   86MOL0     C11500   9.190  10.500   9.745 -0.1362 -0.4250 -0.0930
   86MOL0     C11501   9.061  10.540   9.781  0.5812 -1.0129 -0.1879
   86MOL0     C11502   9.031  10.565   9.912  0.3126 -0.1284 -0.2537
   86MOL0     C11503   8.891  10.584   9.949  0.0315  0.0719  0.1885
   86MOL0     C11504   9.136  10.559  10.010  0.3498 -1.1898 -1.3237
   86MOL0     C11505   9.113  10.589  10.157  0.0181  0.0159 -0.9244
   86MOL0     O11506   9.007  10.518  10.218  0.4428 -0.9535 -0.3383
   86MOL0     C11507   9.008  10.520  10.352 -0.7457 -1.1948 -0.8942
   86MOL0     C11508   9.080  10.424  10.426  0.5760 -0.3220 -0.8643
   86MOL0     C11509   9.080  10.420  10.564  0.2173  0.1174 -0.5489
   86MOL0     C11510   8.992  10.504  10.642 -0.1651  1.1736 -0.0028
   86MOL0     O11511   8.970  10.500  10.778  0.7772 -0.2933  0.5407
   86MOL0     C11512   9.056  10.418  10.856  0.3296 -0.7234 -0.7256
   86MOL0     C11513   9.030  10.453  11.009 -0.3304 -0.6583  0.2785
   86MOL0     C11514   8.887  10.426  11.057  0.6438 -0.2057 -0.0788
   86MOL0     C11515   8.875  10.456  11.209  0.2684  0.3844 -0.1673
   86MOL0     C11516   8.759  10.383  11.275  0.2819  0.4964 -1.0713
   86MOL0     C11517   8.719  10.423  11.420 -0.3392 -0.2199  1.1129
   86MOL0     C11518   8.840  10.433  11.514 -0.9563 -0.5088 -0.7456
   86MOL0     C11519   8.818  10.498  11.649 -0.8658  0.1230  1.2122
   86MOL0    Cl11520   8.773  10.666  11.615 -0.4677  0.1858  0.3057
   86MOL0     C11521   8.909  10.589  10.568 -0.6498  0.1239 -0.4182
   86MOL0     C11522   8.912  10.597  10.423  1.6039 -0.0153 -0.4530
   86MOL0     O11523   9.190  10.668  10.211 -0.1749  0.5978 -0.0954
   86MOL0     C11524   9.264  10.525   9.969  0.4512  1.3026  0.1323
   86MOL0     C11525   9.291  10.489   9.840 -0.2678  0.2124  0.0375
   86MOL0     N11526   9.678  10.739   9.169 -0.7629  0.1297 -0.8279
   86MOL0     N11527   9.684  10.857   9.115 -0.1231  0.5357  0.5177
   86MOL0     C11528   9.824  10.693   9.809  0.2269 -0.4582  0.7674
   86MOL0     C11529   9.923  10.624   9.893  0.2052  0.5158  0.4341
   86MOL0     C11530  10.065  10.336  10.239  0.1804 -0.6841 -0.0083
   86MOL0     C11531  10.043  10.250  10.344  0.6585 -0.2456  1.1032
   86MOL0     C11532  10.160  10.197  10.405 -0.9544 -0.2025  0.4900
   86MOL0     C11533  10.299  10.223  10.368  0.2914 -0.0666 -0.1863
   86MOL0     O11534  10.391  10.163  10.450  0.0965  0.1765 -0.3568
   86MOL0     C11535  10.407  10.028  10.405  0.2800  0.1850 -0.4884
   86MOL0     C11536  10.500  10.022  10.286  0.7902 -0.1469 -0.3111
   86MOL0     C11537  10.637  10.052  10.338 -0.6055  0.0655  0.6133
   86MOL0     C11538  10.694   9.953  10.438  0.4249  0.3539 -0.4095
   86MOL0     C11539  10.839   9.985  10.436 -0.7923  0.5353  0.0645
   86MOL0     C11540  10.959   9.997  10.461  0.1725  0.0343  0.2806
   86MOL0     C11541  10.317  10.318  10.265  0.3502 -0.2844 -0.5113
   86MOL0     C11542  10.203  10.373  10.205  0.2130 -0.0680  0.1866
   86MOL0     H11543   9.720  10.583  10.158  0.6348 -1.4392 -0.1934
   86MOL0     H11544   9.555  10.687  10.022 -2.4658  0.1361 -3.7522
   86MOL0     H11545   9.712  10.898   9.666  0.1936 -1.1417  1.3460
   86MOL0     H11546   9.649  10.744   9.601  0.1923 -1.9261  1.7409
   86MOL0     H11547   9.422  10.836   9.551  1.8382  0.2688 -4.0735
   86MOL0     H11548   9.445  10.962   9.672 -0.2000  0.3292  0.1542
   86MOL0     H11549   9.634  11.046   9.506 -0.1939 -0.5764 -0.3480
   86MOL0     H11550   9.579  10.920   9.394 -1.2496 -1.0197  0.3091
   86MOL0     H11551   9.367  11.004   9.369 -0.4849 -0.0594 -0.2329
   86MOL0     H11552   9.369  11.097   9.514  1.0083 -1.8490  1.6433
   86MOL0     H11553   9.378  11.246   9.329 -0.7828 -0.2827  1.4612
   86MOL0     H11554   9.533  11.249   9.413  1.4487 -2.1042 -0.9467
   86MOL0     H11555   9.590  11.250   9.189  0.3583  0.1698 -0.2525
   86MOL0     H11556   9.626  11.082   9.244  0.0802 -1.2942  1.3560
   86MOL0     H11557   9.371  11.050   9.158 -0.2372 -1.2472 -2.1323
   86MOL0     H11558   9.417  11.197   9.074  0.8172  0.7887  0.1184
   86MOL0     H11559   9.621  11.074   8.986 -0.9328  1.1245 -2.5182
   86MOL0     H11560   9.460  11.043   8.926  0.0242  0.1767  0.8880
   86MOL0     H11561   9.364  10.786   9.066  0.0154 -3.0610 -1.4418
   86MOL0     H11562   9.387  10.560   9.148  0.2429  0.7708  0.5682
   86MOL0     H11563   9.537  10.479   9.179  2.0913 -0.4406  1.1302
   86MOL0     H11564   9.431  10.696   9.377  0.5885 -0.7911 -0.1739
   86MOL0     H11565   9.554  10.582   9.408  1.2781  2.0679 -1.4010
   86MOL0     H11566   9.355  10.397   9.369  3.1896 -0.0292  0.6034
   86MOL0     H11567   9.257  10.545   9.364 -0.7809 -2.7088 -0.7927
   86MOL0     H11568   9.403  10.586   9.599 -0.1293  1.1465 -1.7690
   86MOL0     H11569   9.407  10.404   9.588 -0.2373  0.1968  0.2619
   86MOL0     H11570   8.989  10.529   9.701  1.6493 -1.4674 -1.1247
   86MOL0     H11571   8.825  10.564   9.864 -0.7523 -1.1322  1.0387
   86MOL0     H11572   8.850  10.513  10.022  1.4075 -2.6347 -1.5005
   86MOL0     H11573   8.868  10.688   9.972  0.8556 -0.2257  2.6620
   86MOL0     H11574   9.139  10.351  10.371  0.2268 -1.0391 -0.3039
   86MOL0     H11575   9.141  10.345  10.613  1.9114  1.1022 -1.0686
   86MOL0     H11576   9.033  10.312  10.841  0.1538 -0.4587 -2.6274
   86MOL0     H11577   9.159  10.427  10.821 -0.1592 -0.5946 -2.2069
   86MOL0     H11578   9.098  10.396  11.073  0.7882  0.2542 -0.0420
   86MOL0     H11579   9.059  10.559  11.012 -2.8866  0.1631 -1.3328
   86MOL0     H11580   8.859  10.321  11.046 -2.7871  0.6091 -0.2618
   86MOL0     H11581   8.809  10.478  11.000  1.4859  0.3924 -0.7213
   86MOL0     H11582   8.966  10.427  11.262  0.0198 -3.6628 -1.6483
   86MOL0     H11583   8.858  10.564  11.214  1.7641  0.6717 -0.8522
   86MOL0     H11584   8.786  10.277  11.278  0.1956  0.4852 -0.6272
   86MOL0     H11585   8.669  10.391  11.212 -1.4690  0.7972  1.3375
   86MOL0     H11586   8.666  10.519  11.413 -2.4580 -1.4675 -1.6918
   86MOL0     H11587   8.644  10.352  11.454 -4.0658  1.7458 -2.1471
   86MOL0     H11588   8.917  10.487  11.458 -1.3205  2.7906  1.6532
   86MOL0     H11589   8.878  10.331  11.522 -0.5035 -0.5162 -2.4580
   86MOL0     H11590   8.911  10.504  11.707 -0.3263 -0.2033  0.3973
   86MOL0     H11591   8.751  10.437  11.710 -0.1412 -1.3032  0.6356
   86MOL0     H11592   8.834  10.649  10.617 -2.1203 -3.0828  1.6161
   86MOL0     H11593   8.839  10.662  10.376 -1.3148 -2.0918  0.9658
   86MOL0     H11594   9.334  10.530  10.052 -0.8145 -1.6992  1.5156
   86MOL0     H11595   9.396  10.471   9.819 -1.0132  0.4600 -5.0197
   86MOL0     H11596   9.855  10.728   9.711  1.0876  0.7829  1.4440
   86MOL0     H11597  10.025  10.622   9.855  0.1507 -1.3949  0.3115
   86MOL0     H11598   9.945  10.216  10.375 -0.2812 -0.2889 -1.6710
   86MOL0     H11599  10.146  10.120  10.480 -0.9938 -3.3195 -2.4710
   86MOL0     H11600  10.440   9.963  10.486  1.0285 -0.1178 -1.0200
   86MOL0     H11601  10.312   9.983  10.375 -0.7132  1.6555  0.3171
   86MOL0     H11602  10.468  10.089  10.206 -1.0853 -1.4368 -0.7097
   86MOL0     H11603  10.497   9.922  10.241  0.3683 -0.7546  1.0317
   86MOL0     H11604  10.653  10.152  10.379  2.8823 -0.7348  1.5039
   86MOL0     H11605  10.694  10.039  10.246  0.4888 -1.1734  1.4366
   86MOL0     H11606  10.669   9.849  10.414 -0.0892 -0.8267  4.1779
   86MOL0     H11607  10.648   9.972  10.536 -1.4457 -1.4036 -0.8619
   86MOL0     H11608  11.061  10.008  10.491  0.1560 -1.0215  0.7511
   86MOL0     H11609  10.419  10.350  10.248 -0.7334  2.9986 -1.6025
   86MOL0     H11610  10.208  10.440  10.120  1.0838  0.1352  0.3946
   87MOL0     O11611   5.818  11.193   6.803 -0.6624 -0.0937  0.2028
   87MOL0     C11612   5.895  11.281   6.811  0.5586 -0.9086 -0.1504
   87MOL0     O11613   5.933  11.353   6.706  0.8458 -0.0423 -0.2102
   87MOL0     C11614   5.841  11.394   6.616  1.0229 -1.1539  0.0850
   87MOL0     C11615   5.896  11.428   6.490  0.6143  0.5218 -0.1872
   87MOL0     C11616   5.803  11.476   6.387  0.5110  0.2906  0.4925
   87MOL0     C11617   5.663  11.483   6.409  0.0744 -0.2845 -0.1816
   87MOL0     O11618   5.566  11.521   6.308 -0.5493  0.0482 -0.7792
   87MOL0     C11619   5.603  11.492   6.175 -0.1483  0.4419 -0.1671
   87MOL0     C11620   5.486  11.426   6.104  0.5401  0.7750 -0.2533
   87MOL0     C11621   5.425  11.315   6.194 -0.5152 -0.7560  0.0186
   87MOL0     C11622   5.387  11.194   6.115  0.4691  0.1547 -0.2829
   87MOL0     C11623   5.287  11.110   6.200  0.3369 -0.7399  0.3901
   87MOL0     C11624   5.231  10.987   6.118  0.2034  0.1118  0.0123
   87MOL0     C11625   5.158  10.905   6.220 -0.7221  0.5384  0.0732
   87MOL0     C11626   5.094  10.783   6.169  1.4079 -0.6374  0.4737
   87MOL0     N11627   4.962  10.823   6.104  0.6426  0.2419 -0.1529
   87MOL0     C11628   4.854  10.891   6.165  0.4343 -0.0762  0.0640
   87MOL0     C11629   4.764  10.907   6.063  0.8190 -0.3593  0.6823
   87MOL0     C11630   4.627  10.969   6.064  0.2049  0.1099  0.5033
   87MOL0     C11631   4.515  10.866   6.096  0.0783  0.5202  0.3694
   87MOL0     C11632   4.381  10.945   6.114 -0.6240 -0.1406 -0.0074
   87MOL0     C11633   4.278  10.861   6.193  0.4856  0.0990 -0.5970
   87MOL0     O11634   4.241  10.741   6.123  0.2167  0.3565  0.5253
   87MOL0     C11635   4.166  10.747   6.005 -0.0891 -0.0326 -0.4188
   87MOL0     C11636   4.183  10.636   5.931 -0.6826 -0.0529  0.0503
   87MOL0     C11637   4.104  10.616   5.815  0.0683  0.9299  0.1169
   87MOL0     C11638   4.110  10.492   5.741  0.0384  1.3504 -0.5023
   87MOL0     C11639   4.023  10.718   5.775 -0.2959  0.1640  0.5288
   87MOL0     C11640   3.942  10.718   5.654  1.2531 -0.2064 -0.0915
   87MOL0     O11641   3.812  10.762   5.669 -0.0518  0.4891 -0.0425
   87MOL0     C11642   3.741  10.812   5.569 -0.6544 -1.2606  0.1324
   87MOL0     C11643   3.603  10.796   5.562  0.2064 -0.3297 -0.1002
   87MOL0     C11644   3.532  10.863   5.458 -0.5200 -0.2642  0.1313
   87MOL0     C11645   3.585  10.922   5.348  0.5903  0.2860  0.2092
   87MOL0     O11646   3.499  10.966   5.256 -1.5990  0.4509  0.7509
   87MOL0     C11647   3.573  11.027   5.150  0.2562  0.6576  0.3980
   87MOL0     C11648   3.479  11.052   5.034 -0.1889  0.8081  0.5943
   87MOL0     C11649   3.367  11.159   5.063 -0.0407  0.7198 -0.2390
   87MOL0     C11650   3.420  11.299   5.042 -0.6657 -0.4659 -0.0232
   87MOL0     C11651   3.312  11.407   5.050 -0.1950 -1.2488  0.2348
   87MOL0     C11652   3.221  11.398   5.178  1.0605 -0.5029  0.1366
   87MOL0     C11653   3.097  11.478   5.170  0.2411  0.5840  0.6916
   87MOL0     C11654   3.118  11.623   5.207 -0.0342 -1.0481 -0.1511
   87MOL0    Cl11655   2.984  11.715   5.133 -0.1969 -0.4686  0.1070
   87MOL0     C11656   3.728  10.919   5.348  0.9224 -0.9594  0.1594
   87MOL0     C11657   3.799  10.873   5.456 -0.8068  0.1687 -0.6087
   87MOL0     O11658   3.982  10.671   5.549 -0.2425 -0.1366  0.4507
   87MOL0     C11659   4.004  10.829   5.852 -0.1291 -0.0935  1.0297
   87MOL0     C11660   4.068  10.843   5.973  0.8487  0.1182 -0.1211
   87MOL0     N11661   4.811  10.841   5.951 -0.3095 -0.8776  1.1579
   87MOL0     N11662   4.933  10.808   5.974 -0.0626  0.4562  0.4802
   87MOL0     C11663   5.614  11.429   6.532  0.4649 -0.9874 -0.1955
   87MOL0     C11664   5.698  11.402   6.634 -0.2403 -0.2352  0.8925
   87MOL0     C11665   5.941  11.320   6.940 -0.1186  0.1254 -0.3664
   87MOL0     C11666   5.944  11.226   7.052 -0.2941  0.7935  0.0950
   87MOL0     C11667   5.991  11.260   7.169 -0.4820 -0.5322 -0.9516
   87MOL0     C11668   6.013  11.399   7.198 -0.4323  0.4637  0.2390
   87MOL0     O11669   6.050  11.426   7.329  0.9632  0.8543  1.1088
   87MOL0     C11670   6.058  11.549   7.378  0.7791 -0.5979 -0.3020
   87MOL0     C11671   6.064  11.554   7.533 -0.1814  0.3235  0.1292
   87MOL0     C11672   5.917  11.576   7.591  0.9279  0.0373  0.2718
   87MOL0     C11673   5.920  11.617   7.738  0.3501 -1.1969  0.0518
   87MOL0     C11674   5.802  11.693   7.769 -0.4052 -0.4906 -0.8284
   87MOL0     C11675   5.713  11.771   7.804  0.3418 -0.2940  0.6286
   87MOL0     C11676   6.005  11.491   7.091 -0.0879 -1.1400  0.7607
   87MOL0     C11677   5.982  11.447   6.963  0.2068 -0.4466  0.0243
   87MOL0     H11678   6.004  11.415   6.479  0.5963  1.8403 -2.9101
   87MOL0     H11679   5.852  11.500   6.293 -1.4649  1.6327 -0.2645
   87MOL0     H11680   5.633  11.585   6.126  1.5241  0.5989  1.0584
   87MOL0     H11681   5.692  11.431   6.157  0.2199  0.4059  1.5351
   87MOL0     H11682   5.411  11.497   6.067  0.6495  0.2882 -1.4638
   87MOL0     H11683   5.515  11.374   6.013 -1.6065 -1.8234  0.4313
   87MOL0     H11684   5.499  11.290   6.271  1.5393  3.5685 -0.2853
   87MOL0     H11685   5.343  11.358   6.252  0.9584 -0.0392  1.6687
   87MOL0     H11686   5.344  11.227   6.021 -2.5899  0.2195  1.0119
   87MOL0     H11687   5.475  11.131   6.098 -0.0568 -1.1421  1.4561
   87MOL0     H11688   5.337  11.087   6.294 -2.9485  0.9115  2.7637
   87MOL0     H11689   5.213  11.182   6.239  1.9012  2.7720 -2.5476
   87MOL0     H11690   5.171  11.019   6.033  1.9622  1.5289 -0.7528
   87MOL0     H11691   5.311  10.930   6.070 -1.1345 -0.6981 -1.3341
   87MOL0     H11692   5.236  10.864   6.285 -1.2307  2.1758  1.7855
   87MOL0     H11693   5.086  10.967   6.274 -0.0376  1.4322 -0.0244
   87MOL0     H11694   5.063  10.720   6.253 -0.4217 -2.6738 -1.5631
   87MOL0     H11695   5.161  10.736   6.097  0.8337 -1.9268  0.7618
   87MOL0     H11696   4.854  10.919   6.270 -0.1020  2.6202 -0.5835
   87MOL0     H11697   4.640  11.045   6.141  0.5426  0.6250 -0.0477
   87MOL0     H11698   4.601  11.018   5.969  1.7649 -2.0137 -1.1173
   87MOL0     H11699   4.539  10.805   6.184 -2.3254 -0.7593  0.2278
   87MOL0     H11700   4.512  10.798   6.011  0.1322  2.5836 -1.3738
   87MOL0     H11701   4.352  10.974   6.013  1.6379 -0.5228 -0.8412
   87MOL0     H11702   4.394  11.040   6.169 -2.7988 -0.2595  0.7931
   87MOL0     H11703   4.187  10.921   6.204  1.4882  2.2971 -3.1045
   87MOL0     H11704   4.315  10.839   6.293  2.4053  0.5601 -1.1688
   87MOL0     H11705   4.254  10.557   5.955 -4.0800 -2.8055  2.1093
   87MOL0     H11706   4.007  10.460   5.727 -0.1285  2.0902 -1.0304
   87MOL0     H11707   4.153  10.492   5.640 -0.5650 -1.1878 -0.8260
   87MOL0     H11708   4.160  10.412   5.795 -0.8279 -0.7363 -2.6135
   87MOL0     H11709   3.568  10.733   5.642  2.3255 -0.8740  0.4615
   87MOL0     H11710   3.424  10.857   5.468 -0.2799 -1.1740  2.8302
   87MOL0     H11711   3.617  11.120   5.185 -1.3465  2.0029 -1.0000
   87MOL0     H11712   3.647  10.955   5.113  1.1059  2.0648 -0.7363
   87MOL0     H11713   3.538  11.082   4.947 -1.7158  2.5014  0.0553
   87MOL0     H11714   3.433  10.956   5.009 -2.6454  1.8744  0.7153
   87MOL0     H11715   3.337  11.143   5.167 -1.6843  2.2515 -0.4426
   87MOL0     H11716   3.276  11.157   5.004  0.2535  2.4968 -0.8129
   87MOL0     H11717   3.495  11.319   5.118 -0.0051 -1.5634 -0.3742
   87MOL0     H11718   3.469  11.321   4.946 -0.8550 -0.0889 -0.0369
   87MOL0     H11719   3.246  11.415   4.964  0.6870  5.4691 -0.3854
   87MOL0     H11720   3.365  11.503   5.057 -2.3409  0.0591 -0.7028
   87MOL0     H11721   3.193  11.293   5.195  0.7579 -0.5599 -0.6511
   87MOL0     H11722   3.271  11.433   5.268 -1.1031 -0.4234  1.3699
   87MOL0     H11723   3.025  11.432   5.238 -2.1510  2.2891 -0.5461
   87MOL0     H11724   3.044  11.470   5.074 -1.1358  0.8926  1.4151
   87MOL0     H11725   3.217  11.659   5.178 -0.0229  2.0668  3.0055
   87MOL0     H11726   3.108  11.626   5.316 -2.4865 -4.2866 -0.1246
   87MOL0     H11727   3.793  10.956   5.269  0.6141 -1.1736 -0.1924
   87MOL0     H11728   3.907  10.884   5.457 -1.0496  3.1809  0.7749
   87MOL0     H11729   3.928  10.902   5.824 -1.7481 -2.3072 -0.8083
   87MOL0     H11730   4.054  10.939   6.023 -2.2714  0.9570 -2.3004
   87MOL0     H11731   5.507  11.426   6.551  0.0904  0.7588 -1.7075
   87MOL0     H11732   5.656  11.371   6.729  0.3595  0.9005  1.5488
   87MOL0     H11733   5.924  11.121   7.031  2.4431  0.4210 -1.1335
   87MOL0     H11734   6.016  11.189   7.247  1.3925  1.2621  0.1560
   87MOL0     H11735   6.151  11.596   7.346 -0.8232  2.8755 -0.3674
   87MOL0     H11736   5.969  11.606   7.350 -0.7792 -3.0072 -0.6025
   87MOL0     H11737   6.123  11.635   7.577 -0.7278  0.8326 -0.0733
   87MOL0     H11738   6.088  11.454   7.571 -4.1869 -0.6720  0.4092
   87MOL0     H11739   5.852  11.488   7.580 -1.2923  1.7168 -0.8941
   87MOL0     H11740   5.885  11.663   7.533  1.5462  1.6781  2.2700
   87MOL0     H11741   6.012  11.670   7.766 -0.4972  1.1873 -1.4386
   87MOL0     H11742   5.921  11.524   7.797  0.4398 -1.2715 -0.0654
   87MOL0     H11743   5.648  11.841   7.852 -0.1202 -1.1370  1.2696
   87MOL0     H11744   6.042  11.592   7.105  0.1989 -1.0648 -0.4161
   87MOL0     H11745   5.999  11.522   6.886 -2.8502  0.6428  0.2473
   88MOL0     O11746  11.073   1.689   9.503  0.1864  0.4906  0.2415
   88MOL0     C11747  11.100   1.749   9.397 -0.3158  0.6986 -0.6910
   88MOL0     O11748  11.032   1.854   9.343  1.1506 -0.4774 -0.4900
   88MOL0     C11749  10.895   1.884   9.361  0.2035  0.3557 -0.9971
   88MOL0     C11750  10.852   1.998   9.292 -1.6123 -0.3451 -0.6084
   88MOL0     C11751  10.722   2.040   9.307  1.1597 -0.3463 -0.6387
   88MOL0     C11752  10.633   1.973   9.384  0.5499 -0.5992 -0.1186
   88MOL0     O11753  10.512   2.030   9.404  0.2094 -0.3089 -0.2632
   88MOL0     C11754  10.394   1.945   9.414  0.2463 -1.0681 -0.1332
   88MOL0     C11755  10.360   1.886   9.282  0.2523  0.6829  0.3941
   88MOL0     C11756  10.263   1.767   9.277 -0.8706  0.0460 -1.1244
   88MOL0     C11757  10.330   1.638   9.326 -0.2285 -0.6589  0.2408
   88MOL0     C11758  10.247   1.517   9.302 -0.8326  1.5404  0.3978
   88MOL0     C11759  10.122   1.524   9.392 -0.0628 -0.6908 -1.1807
   88MOL0     C11760  10.036   1.399   9.366  0.2480  0.3527 -0.4829
   88MOL0     C11761   9.922   1.424   9.283  0.6946 -0.1174  0.9733
   88MOL0     N11762   9.943   1.461   9.139  0.5038 -0.0445  0.0249
   88MOL0     C11763  10.033   1.399   9.052  0.6499  0.3939 -0.8990
   88MOL0     C11764  10.015   1.457   8.930 -0.6544  0.1188 -0.2129
   88MOL0     C11765  10.081   1.419   8.797  0.0903  1.1856  0.7981
   88MOL0     C11766  10.192   1.525   8.769 -0.2616 -0.2358  0.7168
   88MOL0     C11767  10.311   1.524   8.866 -0.1434  0.1755  0.2324
   88MOL0     C11768  10.389   1.397   8.852 -1.4419 -0.2504 -0.3117
   88MOL0     O11769  10.332   1.304   8.954 -0.5877  0.0269  1.4825
   88MOL0     C11770  10.427   1.224   9.014  0.6713 -0.0270 -0.3948
   88MOL0     C11771  10.397   1.187   9.140 -0.6103 -1.2257  0.5745
   88MOL0     C11772  10.482   1.110   9.215  0.4884 -1.3686 -0.3700
   88MOL0     C11773  10.431   1.088   9.353 -1.1128 -1.2672 -0.2056
   88MOL0     C11774  10.605   1.066   9.157 -0.2558 -0.6091 -0.4920
   88MOL0     C11775  10.702   0.976   9.235 -0.5517 -0.1603 -0.2226
   88MOL0     O11776  10.831   0.959   9.184 -0.0957  0.3124 -0.2930
   88MOL0     C11777  10.929   0.880   9.246  1.2854  0.2811 -0.0280
   88MOL0     C11778  10.917   0.782   9.343  0.6028 -0.6441 -0.3153
   88MOL0     C11779  11.028   0.701   9.373  0.2428  0.8138  0.4798
   88MOL0     C11780  11.151   0.706   9.306  0.3177  0.8163 -0.2273
   88MOL0     O11781  11.251   0.639   9.352  0.1763 -0.6173  0.4071
   88MOL0     C11782  11.344   0.693   9.447  0.3620 -0.1820 -0.1475
   88MOL0     C11783  11.446   0.581   9.444 -0.2789 -0.5497 -0.2472
   88MOL0     C11784  11.544   0.598   9.564 -0.2442  0.0318  0.3424
   88MOL0     C11785  11.630   0.470   9.557 -0.2428 -0.6478 -0.6480
   88MOL0     C11786  11.704   0.461   9.695  0.2667 -0.0830 -0.5705
   88MOL0     C11787  11.748   0.315   9.720 -0.8535  0.3096  0.4082
   88MOL0     C11788  11.869   0.307   9.808 -0.9576  0.7755 -0.0591
   88MOL0     C11789  11.907   0.152   9.814  0.9656 -1.2092  0.1660
   88MOL0    Cl11790  11.775   0.057   9.872 -0.5438 -0.0738 -0.2007
   88MOL0     C11791  11.162   0.807   9.199  0.4209 -0.4692 -0.3861
   88MOL0     C11792  11.053   0.887   9.178 -0.4951  0.5299  1.1071
   88MOL0     O11793  10.668   0.928   9.347  0.0095  0.6561  0.3265
   88MOL0     C11794  10.642   1.102   9.025  0.0405 -0.3504 -0.4975
   88MOL0     C11795  10.543   1.181   8.954 -0.1345 -0.6497 -0.3065
   88MOL0     N11796   9.920   1.563   8.947 -0.0430 -0.7429 -0.7942
   88MOL0     N11797   9.881   1.563   9.070 -0.4337 -0.7404  0.3097
   88MOL0     C11798  10.681   1.867   9.463  0.4197 -0.6486  0.1324
   88MOL0     C11799  10.808   1.820   9.451 -0.4808  0.0656 -0.6154
   88MOL0     C11800  11.216   1.691   9.329 -0.2726  0.8854  0.2308
   88MOL0     C11801  11.260   1.736   9.198 -0.2112  0.1675 -0.9975
   88MOL0     C11802  11.362   1.669   9.136 -0.3869  0.3361  0.1149
   88MOL0     C11803  11.433   1.567   9.196 -0.1857  0.1607 -0.6834
   88MOL0     O11804  11.538   1.506   9.130 -0.2762 -0.0676 -0.4495
   88MOL0     C11805  11.655   1.473   9.210 -0.6282 -0.1648 -0.0620
   88MOL0     C11806  11.771   1.426   9.124 -0.1495 -1.0606 -0.4684
   88MOL0     C11807  11.798   1.542   9.024 -0.4646  0.5607  0.1985
   88MOL0     C11808  11.823   1.682   9.074  0.0986 -0.1592  1.1943
   88MOL0     C11809  11.907   1.686   9.187  0.2278 -0.0246 -0.2767
   88MOL0     C11810  11.978   1.682   9.285 -0.3615 -0.5442  0.2888
   88MOL0     C11811  11.391   1.523   9.321  1.1314 -0.4671  0.4067
   88MOL0     C11812  11.287   1.583   9.383  0.1651 -0.0711 -0.0524
   88MOL0     H11813  10.925   2.041   9.225  1.2499 -3.6379  0.1505
   88MOL0     H11814  10.702   2.134   9.257 -2.5471 -0.4414  0.3371
   88MOL0     H11815  10.413   1.872   9.493  0.8206  1.1375  1.8773
   88MOL0     H11816  10.308   2.000   9.451  1.8197 -0.1173  2.3365
   88MOL0     H11817  10.326   1.962   9.211 -2.3257 -0.6469  0.0964
   88MOL0     H11818  10.457   1.856   9.241  0.0880 -2.0399  1.8239
   88MOL0     H11819  10.171   1.794   9.330 -1.8648  0.1321 -2.7898
   88MOL0     H11820  10.223   1.754   9.176 -0.6128 -1.0740 -1.0945
   88MOL0     H11821  10.420   1.631   9.265 -0.2518 -1.5489  0.2967
   88MOL0     H11822  10.375   1.641   9.425  1.7752  1.0761 -0.6404
   88MOL0     H11823  10.207   1.498   9.201 -0.3415 -4.0511  0.9857
   88MOL0     H11824  10.289   1.421   9.329 -2.8292 -0.0211 -1.6168
   88MOL0     H11825  10.155   1.540   9.495 -0.6038  2.7964 -1.4211
   88MOL0     H11826  10.063   1.611   9.361  0.2682 -0.1170 -0.2464
   88MOL0     H11827  10.089   1.318   9.315  3.5998  2.0393  0.0002
   88MOL0     H11828   9.998   1.355   9.459 -0.6577 -4.4697 -2.8321
   88MOL0     H11829   9.864   1.507   9.325  0.2792 -1.7220  3.8326
   88MOL0     H11830   9.845   1.347   9.285 -0.4626  0.9859  0.7664
   88MOL0     H11831  10.087   1.311   9.083 -1.3271 -0.6455 -0.2510
   88MOL0     H11832  10.118   1.316   8.802 -4.3441 -0.7348 -0.5084
   88MOL0     H11833  10.000   1.402   8.725 -2.0221 -2.4396  3.6755
   88MOL0     H11834  10.140   1.620   8.752 -0.7261 -0.7992 -1.2983
   88MOL0     H11835  10.238   1.520   8.670 -3.6629  1.1543 -1.1054
   88MOL0     H11836  10.289   1.548   8.971 -0.0056  4.3478 -0.5097
   88MOL0     H11837  10.394   1.592   8.844  0.8325 -1.0305  0.0777
   88MOL0     H11838  10.492   1.423   8.880 -1.3684 -1.1228  0.2639
   88MOL0     H11839  10.395   1.361   8.749  0.2124  1.9882 -1.0924
   88MOL0     H11840  10.303   1.212   9.189 -0.3553 -2.1405  1.5644
   88MOL0     H11841  10.341   1.147   9.374  0.5818  2.2896 -1.9576
   88MOL0     H11842  10.414   0.984   9.380  3.8282 -2.9698 -2.4308
   88MOL0     H11843  10.515   1.115   9.416 -1.6497 -3.6563  1.6681
   88MOL0     H11844  10.828   0.782   9.406  0.3399 -1.0441 -0.6814
   88MOL0     H11845  11.027   0.643   9.464  2.5260  1.0641  0.7181
   88MOL0     H11846  11.372   0.796   9.424 -2.1015  0.3287 -1.1957
   88MOL0     H11847  11.288   0.677   9.539  0.4332 -2.4849 -0.4358
   88MOL0     H11848  11.400   0.482   9.443  3.9906 -2.8623  2.0225
   88MOL0     H11849  11.502   0.584   9.350 -0.3577 -0.9840 -0.3082
   88MOL0     H11850  11.490   0.609   9.658 -0.1029 -3.7688  1.0098
   88MOL0     H11851  11.604   0.690   9.561 -0.7222  0.3424 -0.0257
   88MOL0     H11852  11.568   0.381   9.539  1.0802 -2.2142  2.0208
   88MOL0     H11853  11.704   0.482   9.478  1.3992  0.4547  0.9889
   88MOL0     H11854  11.631   0.500   9.765  1.4465  1.8452 -0.3511
   88MOL0     H11855  11.789   0.530   9.692  0.1151  0.1094 -0.3931
   88MOL0     H11856  11.658   0.263   9.755 -0.0089 -0.5337  1.4178
   88MOL0     H11857  11.772   0.282   9.619 -0.8768  2.6461 -0.4193
   88MOL0     H11858  11.842   0.351   9.904 -0.5664  1.2125 -0.1456
   88MOL0     H11859  11.954   0.367   9.773 -1.4840  3.7733  3.3202
   88MOL0     H11860  11.995   0.128   9.875  0.9154 -1.4037  0.1643
   88MOL0     H11861  11.935   0.121   9.713  2.4879 -1.5362  0.6625
   88MOL0     H11862  11.242   0.837   9.132  0.7469 -0.0568  0.1860
   88MOL0     H11863  11.053   0.959   9.096 -5.2107  0.6720  0.9603
   88MOL0     H11864  10.733   1.076   8.973  0.0578  1.4729 -1.4720
   88MOL0     H11865  10.566   1.222   8.856  0.6401 -0.0539  0.1079
   88MOL0     H11866  10.610   1.825   9.533 -1.7659  2.4128 -0.0224
   88MOL0     H11867  10.831   1.746   9.526 -0.4635 -2.3003 -2.8370
   88MOL0     H11868  11.219   1.819   9.142 -1.8366 -0.1947 -0.3754
   88MOL0     H11869  11.391   1.700   9.037  2.4434 -1.5638  0.2145
   88MOL0     H11870  11.691   1.548   9.281  1.9386 -1.6963  0.3779
   88MOL0     H11871  11.623   1.392   9.275 -1.4695 -0.6177 -1.0106
   88MOL0     H11872  11.746   1.335   9.069  0.9585 -1.3611 -0.5149
   88MOL0     H11873  11.867   1.410   9.173 -1.0095 -2.2479  0.8707
   88MOL0     H11874  11.713   1.548   8.956 -0.0691  2.1091 -0.1972
   88MOL0     H11875  11.887   1.505   8.971  0.9907  0.4519  2.6003
   88MOL0     H11876  11.732   1.738   9.093 -1.7327 -2.3564 -0.5386
   88MOL0     H11877  11.875   1.739   8.996 -3.4225  0.9903 -0.5214
   88MOL0     H11878  12.056   1.691   9.358  0.4048  2.5691 -0.7633
   88MOL0     H11879  11.433   1.438   9.374  0.4372 -0.1464  1.5050
   88MOL0     H11880  11.262   1.535   9.477  0.0053  1.0517  0.5023
   89MOL0     O11881   8.988   2.330   4.214 -0.0024  0.9115 -0.2726
   89MOL0     C11882   9.066   2.298   4.305  0.2543 -0.8471  0.2954
   89MOL0     O11883   9.205   2.266   4.285  0.8093  0.6988 -0.8129
   89MOL0     C11884   9.268   2.323   4.177 -0.2323 -0.9673  0.5973
   89MOL0     C11885   9.354   2.254   4.098  0.1634 -0.5124  0.7599
   89MOL0     C11886   9.439   2.312   3.996  0.1846  0.2769  0.4712
   89MOL0     C11887   9.429   2.451   3.980  0.5048  0.7220  0.7168
   89MOL0     O11888   9.512   2.523   3.899 -0.2972 -0.2442  0.4865
   89MOL0     C11889   9.549   2.459   3.775 -0.6012 -0.7255 -0.0088
   89MOL0     C11890   9.621   2.556   3.679  0.0534  0.8889 -0.4170
   89MOL0     C11891   9.527   2.640   3.587 -0.3128  0.0832 -0.0834
   89MOL0     C11892   9.614   2.736   3.516  0.5381 -0.1401 -0.3353
   89MOL0     C11893   9.536   2.840   3.434 -0.2172 -0.3932 -1.3843
   89MOL0     C11894   9.641   2.939   3.373  0.5639  0.7157  0.2243
   89MOL0     C11895   9.575   3.009   3.257 -0.0617  0.3843  0.0083
   89MOL0     C11896   9.462   3.096   3.294  0.4972 -0.2019  0.7567
   89MOL0     N11897   9.328   3.038   3.270  0.2208  0.1269 -0.4685
   89MOL0     C11898   9.244   2.997   3.370  0.2081 -0.1490  0.3156
   89MOL0     C11899   9.132   2.959   3.305  0.5758 -0.2298  0.2542
   89MOL0     C11900   9.007   2.928   3.386  1.3326  0.1913  0.0033
   89MOL0     C11901   8.885   3.007   3.327  0.6191  0.6682 -0.3597
   89MOL0     C11902   8.761   2.991   3.405 -0.5343 -0.0800 -0.1532
   89MOL0     C11903   8.670   3.098   3.361 -0.6800  0.1923  0.3966
   89MOL0     O11904   8.539   3.052   3.405 -0.7760  0.6146  0.0509
   89MOL0     C11905   8.473   3.139   3.486  0.9776  0.7448  0.7962
   89MOL0     C11906   8.388   3.080   3.582 -0.6240 -0.5030 -0.7505
   89MOL0     C11907   8.318   3.165   3.669  0.5139  0.6502  0.0303
   89MOL0     C11908   8.215   3.100   3.766 -0.0422 -0.1058  0.2433
   89MOL0     C11909   8.339   3.307   3.671  0.0904  0.8037  0.4063
   89MOL0     C11910   8.275   3.409   3.755 -0.1049 -0.3358  0.1631
   89MOL0     O11911   8.270   3.537   3.712  0.5851  0.8703  0.1705
   89MOL0     C11912   8.241   3.643   3.802  0.2833  0.0032 -0.1746
   89MOL0     C11913   8.268   3.644   3.934  0.1358 -0.0494  0.0328
   89MOL0     C11914   8.275   3.757   4.015 -0.0202 -0.8381 -0.1902
   89MOL0     C11915   8.231   3.879   3.959 -0.3558 -0.5440  0.7464
   89MOL0     O11916   8.225   4.000   4.021  0.1311 -0.3052 -0.6290
   89MOL0     C11917   8.110   3.999   4.111 -0.3800  0.4684  1.3363
   89MOL0     C11918   8.073   4.121   4.178  1.2560 -0.3138  0.8656
   89MOL0     C11919   7.933   4.106   4.233  0.5722 -0.3208  0.5537
   89MOL0     C11920   7.898   4.244   4.292 -0.5728 -0.4638 -0.0499
   89MOL0     C11921   7.745   4.253   4.317  0.5207  0.1719  0.4022
   89MOL0     C11922   7.647   4.221   4.200 -0.0110  0.1501 -0.2530
   89MOL0     C11923   7.670   4.291   4.065 -0.3499 -0.1232  0.1257
   89MOL0     C11924   7.573   4.252   3.955 -0.7582 -0.9839  1.1511
   89MOL0    Cl11925   7.606   4.088   3.904 -0.2214 -0.2807  0.2535
   89MOL0     C11926   8.201   3.882   3.825 -0.2487 -0.0204 -0.1943
   89MOL0     C11927   8.210   3.770   3.747  0.3508 -0.3733 -0.2388
   89MOL0     O11928   8.226   3.370   3.865  0.7260 -0.3451 -0.4327
   89MOL0     C11929   8.412   3.359   3.563  1.3714 -0.9118 -0.4142
   89MOL0     C11930   8.480   3.275   3.473  0.1697  0.6720  0.6740
   89MOL0     N11931   9.148   2.976   3.168 -0.3874  0.5490  0.4935
   89MOL0     N11932   9.266   3.019   3.150 -0.5646 -0.4030  0.1794
   89MOL0     C11933   9.347   2.524   4.063  0.0066 -0.8038  0.1489
   89MOL0     C11934   9.268   2.461   4.162 -0.0626 -0.4659  0.1121
   89MOL0     C11935   9.006   2.274   4.437 -0.1443  0.1461 -0.9140
   89MOL0     C11936   8.871   2.315   4.458  1.4427  0.5248  0.5062
   89MOL0     C11937   8.827   2.318   4.593 -0.4422 -0.1213  0.7906
   89MOL0     C11938   8.895   2.271   4.705 -0.6703  0.3308 -0.9868
   89MOL0     O11939   8.846   2.270   4.838  0.0986 -0.4807  0.2313
   89MOL0     C11940   8.715   2.223   4.857 -0.4576 -0.7802 -0.4056
   89MOL0     C11941   8.672   2.257   5.002 -0.4225  0.0218  0.2212
   89MOL0     C11942   8.726   2.159   5.107 -0.1642 -0.7045 -0.1143
   89MOL0     C11943   8.667   2.019   5.087 -0.0325  0.0642  0.0368
   89MOL0     C11944   8.710   1.941   5.196  0.1295  1.1757  0.6162
   89MOL0     C11945   8.742   1.885   5.297  0.5105 -0.0097  0.5559
   89MOL0     C11946   9.025   2.236   4.678 -0.5864  0.4187 -0.5449
   89MOL0     C11947   9.083   2.220   4.549 -0.0183 -0.4702 -0.6157
   89MOL0     H11948   9.350   2.146   4.106 -3.7173 -0.6951 -1.5200
   89MOL0     H11949   9.516   2.252   3.947 -0.8167 -1.8755  1.4035
   89MOL0     H11950   9.608   2.370   3.800 -0.6453 -0.1671  2.3881
   89MOL0     H11951   9.458   2.430   3.723  0.0814 -1.6589 -0.6938
   89MOL0     H11952   9.689   2.613   3.742  0.2696  0.2946 -0.1062
   89MOL0     H11953   9.683   2.492   3.616  0.1268 -0.6235  1.0982
   89MOL0     H11954   9.472   2.580   3.515 -1.8365  1.2815  0.0384
   89MOL0     H11955   9.452   2.692   3.646 -2.1433 -1.4669 -0.9488
   89MOL0     H11956   9.666   2.794   3.592 -0.8032 -2.2076  2.3353
   89MOL0     H11957   9.684   2.685   3.450  1.3036  0.6547 -0.1557
   89MOL0     H11958   9.489   2.778   3.358 -2.1846  0.5466 -0.9997
   89MOL0     H11959   9.455   2.892   3.486 -0.4249 -1.3860 -0.6847
   89MOL0     H11960   9.669   3.015   3.446 -0.5994  1.2494  0.1361
   89MOL0     H11961   9.727   2.881   3.339 -0.8071 -0.6577 -1.0284
   89MOL0     H11962   9.648   3.067   3.200  1.0308  0.8857  1.8151
   89MOL0     H11963   9.539   2.924   3.198  2.0379 -1.3173  1.0022
   89MOL0     H11964   9.466   3.178   3.222 -3.1213 -2.8622 -2.9521
   89MOL0     H11965   9.474   3.152   3.387  0.3425 -0.6728  1.0670
   89MOL0     H11966   9.262   3.005   3.477 -1.9109  1.1047  0.6395
   89MOL0     H11967   8.997   2.819   3.389  3.1191  0.0174  1.0920
   89MOL0     H11968   9.031   2.958   3.488 -1.7955 -0.4980  1.0521
   89MOL0     H11969   8.879   2.975   3.222  1.9115 -0.0837 -0.2164
   89MOL0     H11970   8.921   3.110   3.338  2.5012 -0.1511  1.6986
   89MOL0     H11971   8.788   3.001   3.510  2.6639 -1.0888 -0.7516
   89MOL0     H11972   8.711   2.896   3.385 -0.4583 -0.2441  0.4255
   89MOL0     H11973   8.654   3.085   3.254  0.8511 -2.8252  0.4089
   89MOL0     H11974   8.714   3.196   3.380 -1.3231  0.9045 -1.5667
   89MOL0     H11975   8.379   2.974   3.603 -1.2836 -0.6356 -1.6335
   89MOL0     H11976   8.191   2.997   3.738  3.0419 -1.5954  2.4628
   89MOL0     H11977   8.267   3.092   3.862 -1.7905  3.4011  1.6580
   89MOL0     H11978   8.124   3.161   3.768 -0.8501 -1.2490 -0.4607
   89MOL0     H11979   8.310   3.554   3.976 -0.8737 -1.4724 -1.8432
   89MOL0     H11980   8.322   3.757   4.112  0.0580 -3.0226 -0.1827
   89MOL0     H11981   8.023   3.956   4.060  0.0013  1.1074  0.1215
   89MOL0     H11982   8.144   3.931   4.190 -1.0717 -2.2620 -0.5815
   89MOL0     H11983   8.158   4.144   4.244  1.4017 -0.6062  0.7826
   89MOL0     H11984   8.073   4.205   4.108  1.0959  0.9830  2.3585
   89MOL0     H11985   7.928   4.037   4.318 -4.3136  0.3861  1.1373
   89MOL0     H11986   7.870   4.051   4.162  2.9725 -1.5329 -0.7814
   89MOL0     H11987   7.954   4.255   4.385  1.6391  1.1055 -1.4490
   89MOL0     H11988   7.919   4.331   4.228  0.9886 -1.2890 -0.7136
   89MOL0     H11989   7.716   4.355   4.344 -0.9223  0.1545 -0.9273
   89MOL0     H11990   7.733   4.181   4.398  1.5572  0.1302  0.5410
   89MOL0     H11991   7.626   4.115   4.183  0.1828  0.0729 -0.0276
   89MOL0     H11992   7.546   4.249   4.230  0.0198 -2.2269  2.4122
   89MOL0     H11993   7.770   4.277   4.022  1.3400 -0.7938  3.8900
   89MOL0     H11994   7.658   4.398   4.087  1.1308 -0.3325  2.3002
   89MOL0     H11995   7.590   4.319   3.870  4.2303 -0.1346  2.4572
   89MOL0     H11996   7.471   4.262   3.992 -1.7793 -0.4227 -1.6124
   89MOL0     H11997   8.181   3.975   3.773 -0.7786  1.1343  1.9673
   89MOL0     H11998   8.190   3.772   3.641  1.0376  2.9479 -0.4298
   89MOL0     H11999   8.415   3.465   3.539  1.6270 -1.1226 -1.3348
   89MOL0     H12000   8.528   3.319   3.386  3.8963 -0.9659  1.6956
   89MOL0     H12001   9.337   2.628   4.036  0.3758 -0.7340  0.2690
   89MOL0     H12002   9.205   2.525   4.223  1.9349  0.9955  0.7229
   89MOL0     H12003   8.807   2.338   4.374  0.2957 -0.5788  1.0586
   89MOL0     H12004   8.728   2.360   4.612 -1.5990 -1.3356 -2.0506
   89MOL0     H12005   8.645   2.269   4.786  0.6022 -2.1949 -2.4621
   89MOL0     H12006   8.716   2.116   4.836 -0.4609 -0.9037  0.1919
   89MOL0     H12007   8.563   2.262   5.005 -0.4670 -1.0406  1.6810
   89MOL0     H12008   8.717   2.353   5.027 -1.5326  0.4500  0.6231
   89MOL0     H12009   8.717   2.200   5.208  0.2790 -2.1956  0.5673
   89MOL0     H12010   8.832   2.150   5.082 -0.8050 -1.8316 -2.8387
   89MOL0     H12011   8.710   1.979   4.995  6.2039  0.7780  2.1809
   89MOL0     H12012   8.558   2.026   5.088 -0.0379  0.4909  2.4803
   89MOL0     H12013   8.772   1.840   5.390 -0.2638 -2.0054 -0.1098
   89MOL0     H12014   9.079   2.207   4.767 -1.7626 -1.4305 -0.3580
   89MOL0     H12015   9.185   2.195   4.523  1.2037  4.0032 -0.9039
   90MOL0     O12016   3.415   4.279  11.323 -0.2106  0.6304 -0.5382
   90MOL0     C12017   3.403   4.389  11.362 -0.8274 -0.7595  0.0970
   90MOL0     O12018   3.290   4.464  11.350  0.6375  0.0000  0.3377
   90MOL0     C12019   3.191   4.421  11.271  0.6901 -0.0617  0.2904
   90MOL0     C12020   3.208   4.356  11.147 -0.2918 -0.7285 -0.5118
   90MOL0     C12021   3.102   4.321  11.065 -0.0256 -0.2086 -0.6540
   90MOL0     C12022   2.978   4.357  11.097  0.9037 -0.6077 -0.6062
   90MOL0     O12023   2.871   4.338  11.016 -0.2444  0.4041  0.0089
   90MOL0     C12024   2.786   4.453  10.983  0.1964  0.0687  0.7149
   90MOL0     C12025   2.747   4.457  10.835  0.5208  0.0052  0.6872
   90MOL0     C12026   2.715   4.317  10.795 -0.9308  1.1728  0.1697
   90MOL0     C12027   2.631   4.290  10.659  0.1591  0.0263 -0.0533
   90MOL0     C12028   2.656   4.163  10.598 -0.1340  0.7592  0.0794
   90MOL0     C12029   2.612   4.035  10.674 -0.2225 -0.5047  0.1828
   90MOL0     C12030   2.582   3.916  10.582  1.2952  0.0232  0.3702
   90MOL0     C12031   2.707   3.884  10.497 -0.2097  0.0707  0.4425
   90MOL0     N12032   2.687   3.752  10.436 -0.8403  0.0006  0.7423
   90MOL0     C12033   2.660   3.730  10.300 -1.1201  0.9079 -0.0590
   90MOL0     C12034   2.652   3.598  10.290 -0.7721  1.0595  0.1627
   90MOL0     C12035   2.610   3.540  10.158 -0.4652  0.7326  1.0131
   90MOL0     C12036   2.471   3.475  10.156  0.0602 -0.6741  0.0190
   90MOL0     C12037   2.483   3.326  10.156  0.4953 -0.7781  0.4700
   90MOL0     C12038   2.554   3.268  10.276  0.6677  0.0404 -0.7864
   90MOL0     O12039   2.539   3.118  10.263  0.3214 -0.9215 -0.6422
   90MOL0     C12040   2.421   3.057  10.294 -0.0974 -0.1668  0.4813
   90MOL0     C12041   2.304   3.116  10.343 -0.0090  0.1590 -0.0755
   90MOL0     C12042   2.190   3.040  10.380 -0.9486  0.4435  0.3869
   90MOL0     C12043   2.086   3.131  10.447  0.8572 -0.2021  0.7241
   90MOL0     C12044   2.188   2.899  10.362  1.0643 -0.0770  0.1353
   90MOL0     C12045   2.082   2.812  10.407  0.1222  0.3136 -0.2151
   90MOL0     O12046   2.110   2.678  10.418 -0.6515 -0.5653 -0.4373
   90MOL0     C12047   2.027   2.600  10.488  0.4088  0.3280  0.1474
   90MOL0     C12048   1.886   2.601  10.505 -0.3642  0.2102  0.9170
   90MOL0     C12049   1.823   2.512  10.590 -1.0114  1.0036 -0.0014
   90MOL0     C12050   1.897   2.424  10.664  0.0132  0.7686 -0.1669
   90MOL0     O12051   1.837   2.350  10.764 -0.7377  0.0312 -0.6855
   90MOL0     C12052   1.752   2.256  10.715 -0.3321  0.6307  0.6906
   90MOL0     C12053   1.618   2.250  10.797  0.4275  0.2222 -1.0486
   90MOL0     C12054   1.513   2.154  10.746 -0.0457 -0.0456  0.4563
   90MOL0     C12055   1.435   2.191  10.618 -0.3723  0.4371  0.2300
   90MOL0     C12056   1.299   2.116  10.619 -0.4573  0.6768  0.1585
   90MOL0     C12057   1.264   2.081  10.471 -1.0459 -0.1664 -0.1724
   90MOL0     C12058   1.240   2.202  10.378  0.0385  0.2647  0.9318
   90MOL0     C12059   1.127   2.303  10.411 -0.0059 -0.3202  0.3499
   90MOL0    Cl12060   1.133   2.442  10.289 -0.2333 -0.1152 -0.0355
   90MOL0     C12061   2.034   2.411  10.642  1.5366 -1.1219  0.3555
   90MOL0     C12062   2.095   2.498  10.550 -0.9017  0.6262 -0.7299
   90MOL0     O12063   1.973   2.862  10.429 -0.8182 -0.1372 -0.1680
   90MOL0     C12064   2.296   2.842  10.295  0.1372 -0.6759  0.2201
   90MOL0     C12065   2.413   2.916  10.283  1.0591  0.3139  0.4265
   90MOL0     N12066   2.684   3.536  10.410 -0.2491  0.7555  0.9169
   90MOL0     N12067   2.714   3.627  10.492  0.4969  0.4676  0.4560
   90MOL0     C12068   2.955   4.428  11.212  0.1019  0.5269  0.5799
   90MOL0     C12069   3.057   4.456  11.301 -0.6015 -0.0157  0.8328
   90MOL0     C12070   3.522   4.452  11.442 -0.1827  1.0732  0.7392
   90MOL0     C12071   3.550   4.585  11.425 -0.9370 -1.0801  0.6155
   90MOL0     C12072   3.654   4.641  11.505  0.0938  0.7025  0.3453
   90MOL0     C12073   3.734   4.560  11.589  0.4028  0.2825 -0.9419
   90MOL0     O12074   3.828   4.602  11.686 -0.1915  0.2651 -0.4147
   90MOL0     C12075   3.853   4.744  11.709 -0.5085  0.1909 -0.0912
   90MOL0     C12076   3.965   4.777  11.813 -0.1754 -0.2063 -0.3553
   90MOL0     C12077   4.007   4.926  11.793  0.2718  0.8334  0.7548
   90MOL0     C12078   3.892   5.019  11.838  0.0088  0.0747 -0.6509
   90MOL0     C12079   3.877   5.011  11.983 -0.4172 -0.1534 -0.3255
   90MOL0     C12080   3.864   4.996  12.104  0.4550 -0.2604  0.5597
   90MOL0     C12081   3.708   4.422  11.597 -0.4621 -0.2055  0.1603
   90MOL0     C12082   3.602   4.370  11.517 -0.6215  0.0358 -0.5752
   90MOL0     H12083   3.309   4.336  11.114 -0.6834 -1.4197 -1.3064
   90MOL0     H12084   3.102   4.266  10.972 -1.3541 -1.8713  0.2618
   90MOL0     H12085   2.694   4.466  11.041 -1.4792 -1.2076 -1.5394
   90MOL0     H12086   2.848   4.543  10.991  1.6760 -0.7519 -0.9696
   90MOL0     H12087   2.653   4.513  10.830  0.2883 -0.0252  3.3902
   90MOL0     H12088   2.830   4.497  10.776 -0.6289 -1.0637 -1.7812
   90MOL0     H12089   2.809   4.261  10.794 -1.7335 -0.2124 -0.0681
   90MOL0     H12090   2.657   4.267  10.873 -1.4623 -2.8553 -2.5157
   90MOL0     H12091   2.526   4.307  10.683  0.7223 -0.3274  3.1788
   90MOL0     H12092   2.678   4.368  10.599 -2.2569  0.5222 -1.4452
   90MOL0     H12093   2.609   4.176  10.500  2.5900 -0.7309 -1.5709
   90MOL0     H12094   2.761   4.138  10.579 -0.3836 -2.1352  1.9623
   90MOL0     H12095   2.679   4.000  10.752  0.4324  1.9132  0.7924
   90MOL0     H12096   2.520   4.073  10.720 -0.8847 -0.6065 -1.0171
   90MOL0     H12097   2.569   3.829  10.647 -0.5589  1.0418  1.4650
   90MOL0     H12098   2.492   3.934  10.523 -0.4405  0.1700  2.9064
   90MOL0     H12099   2.799   3.889  10.556  1.3039 -0.5295 -1.7266
   90MOL0     H12100   2.720   3.945  10.407 -1.2094 -2.3713 -1.4449
   90MOL0     H12101   2.630   3.803  10.226 -0.4164 -0.7214 -2.0517
   90MOL0     H12102   2.608   3.624  10.088 -1.7363  0.0607  0.2037
   90MOL0     H12103   2.680   3.464  10.124 -1.9953 -1.4849  2.5408
   90MOL0     H12104   2.420   3.508  10.065  0.5961  1.4366  0.4374
   90MOL0     H12105   2.409   3.516  10.236  0.7937 -0.5477  0.5359
   90MOL0     H12106   2.543   3.297  10.069  2.1569  0.2362  1.2248
   90MOL0     H12107   2.377   3.301  10.163  0.7902 -1.5876  2.6729
   90MOL0     H12108   2.508   3.303  10.368  1.5024  0.5891 -0.5634
   90MOL0     H12109   2.661   3.290  10.265  1.1787 -1.6391  0.5081
   90MOL0     H12110   2.306   3.221  10.370  1.5591 -0.2790  1.7268
   90MOL0     H12111   2.118   3.213  10.512  1.3302  0.2251 -0.0334
   90MOL0     H12112   2.019   3.178  10.374 -2.3000 -1.1922  2.7707
   90MOL0     H12113   2.017   3.064  10.500 -1.6608 -3.1839 -5.3209
   90MOL0     H12114   1.814   2.659  10.449 -0.0524 -0.2393  0.0344
   90MOL0     H12115   1.716   2.496  10.598 -0.7371 -1.1540 -0.2014
   90MOL0     H12116   1.744   2.269  10.607  3.8127 -0.9890  0.0150
   90MOL0     H12117   1.799   2.157  10.722  0.2229  0.7124 -1.2530
   90MOL0     H12118   1.636   2.231  10.904 -1.1790  3.0905 -0.1597
   90MOL0     H12119   1.564   2.345  10.802  2.8066  1.6712 -0.9269
   90MOL0     H12120   1.445   2.124  10.827  0.6098 -4.6719 -0.4177
   90MOL0     H12121   1.566   2.063  10.718  2.7990  1.4776  0.5685
   90MOL0     H12122   1.410   2.298  10.614 -0.7591  0.3198 -0.7639
   90MOL0     H12123   1.495   2.163  10.531  1.7455  2.5568  0.8697
   90MOL0     H12124   1.219   2.176  10.663 -2.9990 -2.9572  0.9247
   90MOL0     H12125   1.307   2.023  10.676  0.5754  2.1559  2.5976
   90MOL0     H12126   1.343   2.017  10.431 -1.6307 -1.0917  0.1046
   90MOL0     H12127   1.175   2.017  10.473  0.2448 -2.0887  2.5725
   90MOL0     H12128   1.210   2.156  10.283  0.9822 -1.0573  1.2475
   90MOL0     H12129   1.334   2.256  10.384  0.0367  0.1776  1.7699
   90MOL0     H12130   1.139   2.342  10.512 -2.0009  2.0257 -0.2357
   90MOL0     H12131   1.033   2.247  10.405  0.7376 -1.5413 -0.2750
   90MOL0     H12132   2.087   2.334  10.696  1.7664 -0.5994  0.8830
   90MOL0     H12133   2.203   2.508  10.544 -0.6236  0.5510  2.6500
   90MOL0     H12134   2.299   2.741  10.255  3.9443  0.0603 -1.8751
   90MOL0     H12135   2.498   2.857  10.252  2.7586  1.9498  1.7160
   90MOL0     H12136   2.854   4.464  11.226 -0.7303 -1.0525 -0.9265
   90MOL0     H12137   3.043   4.513  11.392 -0.5618 -0.5438  1.1789
   90MOL0     H12138   3.509   4.635  11.338  0.4365  0.2991  0.7109
   90MOL0     H12139   3.682   4.745  11.494  0.6744  0.3238 -2.4543
   90MOL0     H12140   3.887   4.800  11.621  1.3316  0.4246  0.7194
   90MOL0     H12141   3.758   4.788  11.741 -0.8151 -1.6101  1.6777
   90MOL0     H12142   4.054   4.718  11.789 -1.6826 -2.6494 -0.2415
   90MOL0     H12143   3.942   4.749  11.916  1.0082 -0.8802 -0.2522
   90MOL0     H12144   4.034   4.950  11.690 -1.1422  0.1428  0.1976
   90MOL0     H12145   4.098   4.948  11.849  1.2887 -1.3069  0.0201
   90MOL0     H12146   3.801   4.991  11.784 -0.5589 -1.1625  0.8987
   90MOL0     H12147   3.913   5.121  11.802  0.7516  1.2636  2.8402
   90MOL0     H12148   3.855   4.996  12.210 -1.8084  0.8811  0.4319
   90MOL0     H12149   3.784   4.366  11.651  0.1783 -2.8482 -3.1221
   90MOL0     H12150   3.609   4.262  11.521  0.7235  0.0800 -1.0803
   91MOL0     O12151   4.781   4.613   3.377  0.8951 -0.0221  0.1183
   91MOL0     C12152   4.786   4.691   3.469  0.4691 -1.1389  0.1277
   91MOL0     O12153   4.689   4.710   3.565 -0.2151  1.1952  0.2060
   91MOL0     C12154   4.571   4.643   3.538 -0.2065 -0.1131  0.0304
   91MOL0     C12155   4.480   4.702   3.444  0.2125  0.4394 -0.6546
   91MOL0     C12156   4.374   4.623   3.403  0.2567 -0.2404 -0.4129
   91MOL0     C12157   4.337   4.496   3.447 -0.1592 -0.7088 -0.1139
   91MOL0     O12158   4.227   4.427   3.418 -0.1659  0.0233 -0.0004
   91MOL0     C12159   4.114   4.498   3.359 -0.4104  0.4047 -0.0578
   91MOL0     C12160   4.017   4.396   3.324  0.1663  0.2058  0.1078
   91MOL0     C12161   3.886   4.455   3.279 -0.8732  0.1827  0.4423
   91MOL0     C12162   3.768   4.348   3.283 -0.6529  0.5982 -1.6399
   91MOL0     C12163   3.688   4.323   3.151  0.4826 -0.8865  0.2517
   91MOL0     C12164   3.622   4.461   3.111 -0.2148 -0.4289  0.5482
   91MOL0     C12165   3.508   4.437   3.020  0.3957 -0.2404  0.1412
   91MOL0     C12166   3.403   4.560   3.045 -0.1784 -0.2155 -0.2618
   91MOL0     N12167   3.305   4.552   2.933 -0.5458  0.1265  0.0337
   91MOL0     C12168   3.166   4.532   2.942 -0.6969  0.2485  0.8095
   91MOL0     C12169   3.133   4.537   2.806  0.4480 -0.1031 -0.3739
   91MOL0     C12170   2.990   4.518   2.761 -0.2988  1.0128 -0.4855
   91MOL0     C12171   2.962   4.563   2.620 -0.0208  0.2709 -0.4761
   91MOL0     C12172   2.798   4.541   2.609  0.1236  0.2841  0.2397
   91MOL0     C12173   2.744   4.563   2.468 -0.3126 -0.1463 -0.6956
   91MOL0     O12174   2.624   4.491   2.453 -0.2045  0.1854 -0.2030
   91MOL0     C12175   2.554   4.517   2.343  0.5684  1.1324  0.5223
   91MOL0     C12176   2.437   4.449   2.321  0.0767 -0.6855 -0.0350
   91MOL0     C12177   2.356   4.476   2.212  0.5064 -0.0972  0.0651
   91MOL0     C12178   2.226   4.399   2.201  0.9079 -0.1524  0.0657
   91MOL0     C12179   2.397   4.559   2.108 -0.4699  0.2908  0.1884
   91MOL0     C12180   2.315   4.594   1.983 -0.6130 -0.1464 -0.3093
   91MOL0     O12181   2.186   4.562   1.973 -0.1867  0.0531  0.4483
   91MOL0     C12182   2.109   4.572   1.854 -0.8565 -0.2527  0.2026
   91MOL0     C12183   2.141   4.609   1.722  0.5717  0.4109 -0.6889
   91MOL0     C12184   2.049   4.600   1.619 -0.5644 -0.0979 -0.8688
   91MOL0     C12185   1.929   4.543   1.629 -0.4158 -0.6912 -0.7823
   91MOL0     O12186   1.852   4.541   1.516 -0.4072  0.5979  0.5437
   91MOL0     C12187   1.709   4.539   1.534 -0.1647 -0.0041 -0.4738
   91MOL0     C12188   1.652   4.655   1.459  0.0391  0.8790 -0.0537
   91MOL0     C12189   1.672   4.642   1.310  0.5228  0.6755 -0.8124
   91MOL0     C12190   1.636   4.762   1.215  0.0176 -0.6709 -0.2975
   91MOL0     C12191   1.694   4.740   1.077  0.2431 -0.7794  0.0937
   91MOL0     C12192   1.627   4.628   1.004  0.4250 -0.1423  0.3282
   91MOL0     C12193   1.476   4.634   0.998 -0.4301  0.3977 -0.1459
   91MOL0     C12194   1.434   4.581   0.854 -0.5612 -1.1235 -0.6901
   91MOL0    Cl12195   1.489   4.419   0.835 -0.1987 -0.1627 -0.1523
   91MOL0     C12196   1.886   4.510   1.757 -1.1352 -0.1793  0.5995
   91MOL0     C12197   1.974   4.521   1.869 -0.2373  0.6847 -0.4750
   91MOL0     O12198   2.388   4.641   1.891  0.0993 -0.2848 -0.2444
   91MOL0     C12199   2.525   4.615   2.124  0.1324 -1.0769 -0.6682
   91MOL0     C12200   2.592   4.610   2.243  0.7217  0.2376 -0.6315
   91MOL0     N12201   3.238   4.562   2.723 -1.2291  0.3923  1.2298
   91MOL0     N12202   3.344   4.557   2.799 -0.6339  0.4419  0.0526
   91MOL0     C12203   4.428   4.440   3.537  0.2768 -0.2404  0.4729
   91MOL0     C12204   4.542   4.515   3.588  0.0403  0.5503  0.8889
   91MOL0     C12205   4.919   4.745   3.489  1.0504  0.5880  1.3480
   91MOL0     C12206   5.018   4.746   3.386 -0.2509 -0.5822  0.7373
   91MOL0     C12207   5.141   4.801   3.405 -0.1659  0.4853 -0.1681
   91MOL0     C12208   5.170   4.866   3.531  0.2727  0.5433  0.3311
   91MOL0     O12209   5.290   4.941   3.559  0.6441 -0.0427  0.6417
   91MOL0     C12210   5.415   4.873   3.571 -0.4878  0.9063 -0.8729
   91MOL0     C12211   5.413   4.799   3.712  0.4929  0.1331  0.8539
   91MOL0     C12212   5.516   4.692   3.718 -0.0705  0.0299 -1.1024
   91MOL0     C12213   5.520   4.609   3.850  0.4040  0.9946 -0.0618
   91MOL0     C12214   5.645   4.555   3.876 -0.0377 -0.6944 -0.4836
   91MOL0     C12215   5.758   4.515   3.899 -0.3265 -0.0920 -0.1961
   91MOL0     C12216   5.071   4.880   3.627  1.0238 -0.4768 -0.4319
   91MOL0     C12217   4.948   4.808   3.612  0.3417 -0.1531  0.0635
   91MOL0     H12218   4.490   4.798   3.395 -1.3268  1.6979  1.3051
   91MOL0     H12219   4.303   4.667   3.334  2.8154  1.8275 -1.9124
   91MOL0     H12220   4.094   4.578   3.431 -1.0502  1.1083 -0.9894
   91MOL0     H12221   4.144   4.556   3.271  0.0837 -0.3225 -0.3830
   91MOL0     H12222   4.059   4.328   3.250 -3.9090 -3.5517  0.8205
   91MOL0     H12223   4.001   4.338   3.415  2.6917  0.9773  1.1310
   91MOL0     H12224   3.854   4.535   3.346 -3.5404 -0.5980  0.2187
   91MOL0     H12225   3.902   4.494   3.178  2.6182 -0.5674  0.5761
   91MOL0     H12226   3.798   4.249   3.317 -0.7349  0.7765 -1.0315
   91MOL0     H12227   3.707   4.388   3.364  0.1010 -1.3513 -0.0155
   91MOL0     H12228   3.757   4.270   3.085  2.2108 -1.4956  2.4370
   91MOL0     H12229   3.601   4.261   3.178 -1.8027  1.0825 -2.0065
   91MOL0     H12230   3.599   4.518   3.201 -2.4202 -0.8036  0.2745
   91MOL0     H12231   3.692   4.536   3.072  0.3056  1.0893  4.0340
   91MOL0     H12232   3.544   4.441   2.917  1.9011  0.7956  0.6755
   91MOL0     H12233   3.465   4.337   3.034  1.1129 -0.3069  2.2568
   91MOL0     H12234   3.473   4.644   3.042  2.8107 -2.5664 -2.0208
   91MOL0     H12235   3.362   4.561   3.146 -0.4115  1.7140 -0.3227
   91MOL0     H12236   3.106   4.508   3.029  0.5362 -1.9645  1.1082
   91MOL0     H12237   2.959   4.414   2.771 -1.7005  1.4626  0.1407
   91MOL0     H12238   2.924   4.575   2.827  2.4366  2.6662  1.0138
   91MOL0     H12239   3.027   4.505   2.555  1.8123 -0.5699  1.9449
   91MOL0     H12240   2.979   4.670   2.611  2.5028 -0.1227 -0.9655
   91MOL0     H12241   2.745   4.614   2.671 -2.5963  0.0584 -1.6667
   91MOL0     H12242   2.771   4.441   2.645 -0.3943  0.1059 -0.6303
   91MOL0     H12243   2.818   4.531   2.394  0.1578 -0.8091  0.0502
   91MOL0     H12244   2.741   4.673   2.470  3.5996  0.1055  0.3546
   91MOL0     H12245   2.414   4.370   2.391  1.5898 -0.2368  1.0085
   91MOL0     H12246   2.227   4.349   2.104  1.7889  1.0700 -0.5864
   91MOL0     H12247   2.205   4.335   2.288  0.7701  0.0876  0.2126
   91MOL0     H12248   2.136   4.462   2.206  1.3641  0.5046  0.0892
   91MOL0     H12249   2.234   4.653   1.687 -0.3940  1.1064 -2.5160
   91MOL0     H12250   2.086   4.622   1.520  5.1927  0.7501  1.0550
   91MOL0     H12251   1.670   4.448   1.488 -0.4967 -0.5996  0.9272
   91MOL0     H12252   1.670   4.531   1.636  2.7080 -4.1499  0.5795
   91MOL0     H12253   1.546   4.656   1.485  0.0492  0.5815  0.0012
   91MOL0     H12254   1.690   4.754   1.488 -2.8051  2.0736 -0.0691
   91MOL0     H12255   1.618   4.555   1.272 -2.3237 -0.2824  4.5216
   91MOL0     H12256   1.779   4.622   1.298  0.5272  1.2901 -1.9312
   91MOL0     H12257   1.529   4.784   1.223  0.1939 -0.2332  1.1830
   91MOL0     H12258   1.683   4.846   1.266  1.0962 -2.3408  1.6071
   91MOL0     H12259   1.803   4.734   1.081  0.4531  0.6648 -1.9302
   91MOL0     H12260   1.673   4.831   1.019  0.6498 -0.8345 -0.1383
   91MOL0     H12261   1.669   4.641   0.904 -0.4432  0.7546  0.0669
   91MOL0     H12262   1.664   4.529   1.033 -1.5911 -2.6632 -4.4407
   91MOL0     H12263   1.425   4.727   1.024 -1.3508  0.0155 -0.5264
   91MOL0     H12264   1.449   4.561   1.074 -1.0876  0.6745 -0.1024
   91MOL0     H12265   1.459   4.656   0.778  1.0607  1.1964  1.9708
   91MOL0     H12266   1.325   4.584   0.860 -0.4639  0.0573  1.2328
   91MOL0     H12267   1.798   4.448   1.766 -1.0073 -0.8646 -2.0656
   91MOL0     H12268   1.957   4.477   1.967 -0.8592  0.8849 -0.4832
   91MOL0     H12269   2.560   4.698   2.063 -0.7711  0.1632  0.4309
   91MOL0     H12270   2.693   4.647   2.228  0.7539  0.2928 -0.2802
   91MOL0     H12271   4.404   4.346   3.585 -5.9905  1.4828  1.7132
   91MOL0     H12272   4.620   4.473   3.650  0.7586 -1.0129 -0.9845
   91MOL0     H12273   4.998   4.696   3.291  0.1459 -1.6496  1.1920
   91MOL0     H12274   5.202   4.792   3.315 -1.0526  0.4551 -0.7791
   91MOL0     H12275   5.423   4.791   3.499 -0.8182 -2.9300  3.0319
   91MOL0     H12276   5.510   4.925   3.559 -0.3840  0.9021 -0.1167
   91MOL0     H12277   5.315   4.752   3.726  0.0777  0.1031 -1.7494
   91MOL0     H12278   5.431   4.876   3.787 -0.0520  1.4905 -0.3661
   91MOL0     H12279   5.610   4.743   3.694 -0.2818 -0.3675 -2.8808
   91MOL0     H12280   5.502   4.613   3.644  3.1974 -1.9321  0.1298
   91MOL0     H12281   5.449   4.526   3.846  1.2115  0.1416  2.0257
   91MOL0     H12282   5.479   4.672   3.930 -1.0090  0.8134 -0.6049
   91MOL0     H12283   5.862   4.491   3.907  0.5801  3.1987 -0.6459
   91MOL0     H12284   5.094   4.924   3.724  0.5211  1.3312 -1.0825
   91MOL0     H12285   4.881   4.788   3.695  1.7870 -2.2055  0.8102
   92MOL0     O12286  11.320   3.577  10.095  0.4535 -0.4834  0.0953
   92MOL0     C12287  11.347   3.547   9.979 -0.0132  0.0461  0.1685
   92MOL0     O12288  11.353   3.628   9.866  0.5002 -0.2288 -0.6367
   92MOL0     C12289  11.316   3.760   9.889 -1.0819 -0.0204  0.2785
   92MOL0     C12290  11.248   3.827   9.783 -2.1866  0.8739 -0.7976
   92MOL0     C12291  11.221   3.960   9.802 -0.1567  0.4600  0.4666
   92MOL0     C12292  11.256   4.030   9.924 -0.9007  0.0179  0.3073
   92MOL0     O12293  11.246   4.167   9.932 -0.4345 -0.7531  0.6822
   92MOL0     C12294  11.146   4.245   9.866  0.0954 -0.6458 -1.0360
   92MOL0     C12295  11.160   4.273   9.719  0.9709  0.8600  0.4063
   92MOL0     C12296  11.141   4.423   9.685 -0.1251 -0.0003  0.7640
   92MOL0     C12297  11.087   4.438   9.538 -0.0522  0.0812 -0.6404
   92MOL0     C12298  11.060   4.586   9.496 -0.3431  0.7673  1.1942
   92MOL0     C12299  11.183   4.669   9.469  0.6595 -0.3361 -0.3226
   92MOL0     C12300  11.144   4.797   9.380  0.1313  0.7710 -0.0676
   92MOL0     C12301  11.030   4.898   9.422 -0.0213  0.1044  1.1793
   92MOL0     N12302  11.067   5.034   9.399 -0.8569 -0.4655 -0.1360
   92MOL0     C12303  11.124   5.125   9.489 -0.4242 -0.1788 -0.7345
   92MOL0     C12304  11.142   5.236   9.413  0.2928 -0.2059  0.7199
   92MOL0     C12305  11.212   5.368   9.451 -0.4150 -0.0551 -1.0231
   92MOL0     C12306  11.106   5.462   9.494 -0.3398  0.5945 -0.1410
   92MOL0     C12307  11.030   5.419   9.626 -0.0845  0.1614  0.5170
   92MOL0     C12308  11.099   5.466   9.753 -0.7099  0.1952  0.1239
   92MOL0     O12309  11.234   5.429   9.783 -0.4764 -0.2954  0.7713
   92MOL0     C12310  11.277   5.300   9.800 -0.0175 -0.7095 -0.5643
   92MOL0     C12311  11.188   5.188   9.829  1.0691 -1.0617 -0.2760
   92MOL0     C12312  11.241   5.056   9.834  0.5561 -0.6013 -0.8202
   92MOL0     C12313  11.140   4.938   9.839 -0.1422 -0.2087  0.8143
   92MOL0     C12314  11.381   5.036   9.827 -0.4422 -0.6032  0.4022
   92MOL0     C12315  11.446   4.887   9.818  0.5432 -0.8445  0.6701
   92MOL0     O12316  11.551   4.891   9.728 -0.5858  1.1304  0.3888
   92MOL0     C12317  11.611   4.776   9.676 -0.0554  0.0832  0.3087
   92MOL0     C12318  11.747   4.789   9.654 -0.0072  0.1898 -0.2643
   92MOL0     C12319  11.812   4.674   9.598  0.2942  0.9410 -0.6525
   92MOL0     C12320  11.754   4.549   9.580 -0.4708 -0.8180  0.4708
   92MOL0     O12321  11.824   4.447   9.531  0.2304  0.4343  0.2468
   92MOL0     C12322  11.764   4.323   9.498 -0.5279  0.1318 -0.2092
   92MOL0     C12323  11.874   4.228   9.452  0.3232 -0.2862 -0.7878
   92MOL0     C12324  11.831   4.091   9.425 -0.1617 -0.0281  0.8842
   92MOL0     C12325  11.957   4.017   9.384  0.4680  0.5368 -0.4066
   92MOL0     C12326  11.937   3.865   9.387 -0.3199  0.2344 -0.1456
   92MOL0     C12327  12.068   3.808   9.329  0.5335  1.1404  0.1241
   92MOL0     C12328  12.060   3.658   9.332 -0.1150  0.9232 -0.9174
   92MOL0     C12329  12.198   3.599   9.319 -0.3934 -0.2753 -0.2250
   92MOL0    Cl12330  12.177   3.430   9.300  0.2268  0.2415 -0.2493
   92MOL0     C12331  11.623   4.540   9.615 -0.5782  0.0376  0.2609
   92MOL0     C12332  11.552   4.657   9.652  0.8830  1.2002 -0.1307
   92MOL0     O12333  11.403   4.786   9.876  0.7700  0.1454 -0.1991
   92MOL0     C12334  11.464   5.152   9.808  0.6609  0.1633 -0.5036
   92MOL0     C12335  11.414   5.277   9.800  0.4743 -0.1576  0.3626
   92MOL0     N12336  11.094   5.208   9.284 -0.3323  0.2947 -0.1357
   92MOL0     N12337  11.046   5.097   9.288 -0.0316  1.6467 -0.4136
   92MOL0     C12338  11.344   3.973  10.016  0.5376 -0.6222  0.4276
   92MOL0     C12339  11.367   3.832  10.002 -0.6312  0.3248  0.8413
   92MOL0     C12340  11.423   3.417   9.970 -0.0065 -0.4677  0.5573
   92MOL0     C12341  11.492   3.388   9.852  0.0829 -0.1480  0.6635
   92MOL0     C12342  11.540   3.254   9.833 -0.1861 -0.1302 -0.1179
   92MOL0     C12343  11.533   3.166   9.938 -0.6946  0.1536  0.4809
   92MOL0     O12344  11.565   3.036   9.927 -0.1188  0.3146 -0.2835
   92MOL0     C12345  11.688   2.998   9.852  0.2265  0.2550  0.2422
   92MOL0     C12346  11.810   3.000   9.939 -0.3234 -0.0735 -1.1169
   92MOL0     C12347  11.812   2.930  10.078  0.6946 -0.0887 -0.0922
   92MOL0     C12348  11.776   2.782  10.051 -0.1738 -0.2359  0.3356
   92MOL0     C12349  11.818   2.703  10.170 -0.3457  0.0593 -0.0640
   92MOL0     C12350  11.850   2.622  10.251  0.1134  0.2783  0.1813
   92MOL0     C12351  11.471   3.203  10.055  0.5699  0.2181  0.3365
   92MOL0     C12352  11.417   3.327  10.064  0.3035  0.4109 -0.5256
   92MOL0     H12353  11.216   3.774   9.694 -0.4743 -0.7054 -0.5191
   92MOL0     H12354  11.164   4.007   9.723  1.1715  1.6974  0.1984
   92MOL0     H12355  11.045   4.211   9.888  0.6195 -1.0399  0.9411
   92MOL0     H12356  11.151   4.337   9.925 -0.1304 -2.1373  1.4221
   92MOL0     H12357  11.258   4.232   9.694  0.7351 -0.9453  2.2046
   92MOL0     H12358  11.081   4.216   9.668  2.5030 -1.1255  0.1557
   92MOL0     H12359  11.068   4.474   9.749 -0.2946  2.5648 -1.3088
   92MOL0     H12360  11.240   4.470   9.693 -0.2735  1.3649 -3.1962
   92MOL0     H12361  11.154   4.389   9.466 -1.2889 -1.0440 -1.0695
   92MOL0     H12362  10.995   4.380   9.523 -0.2825  0.3116 -0.1288
   92MOL0     H12363  11.015   4.580   9.397 -2.1487  3.8897  1.6992
   92MOL0     H12364  10.994   4.648   9.558  0.8060  1.3630  1.8583
   92MOL0     H12365  11.212   4.702   9.569 -2.4851  0.0692  0.5929
   92MOL0     H12366  11.269   4.622   9.422  1.1485  1.1517 -0.9779
   92MOL0     H12367  11.235   4.858   9.380  2.2753 -1.8680 -4.8086
   92MOL0     H12368  11.124   4.764   9.278 -4.3050  2.6143 -0.0364
   92MOL0     H12369  10.991   4.885   9.523 -1.7285  0.6499  0.6140
   92MOL0     H12370  10.950   4.890   9.348  1.0943  0.3620 -0.0969
   92MOL0     H12371  11.148   5.106   9.593  1.4300  1.3259 -0.8220
   92MOL0     H12372  11.288   5.359   9.528 -3.4768 -1.1470  2.1302
   92MOL0     H12373  11.257   5.412   9.361 -0.1272  1.4528 -0.1734
   92MOL0     H12374  11.042   5.456   9.406  0.6226 -2.5527 -0.7570
   92MOL0     H12375  11.144   5.563   9.508  1.7741 -0.0570 -0.7863
   92MOL0     H12376  11.004   5.313   9.629 -1.8918  0.5913  1.1586
   92MOL0     H12377  10.931   5.465   9.637  0.8358  2.0035  1.5208
   92MOL0     H12378  11.045   5.431   9.842  3.8678 -0.1357  3.0722
   92MOL0     H12379  11.107   5.575   9.752  1.2422  0.0858  0.8602
   92MOL0     H12380  11.083   5.216   9.837  1.0568  0.3873 -3.8027
   92MOL0     H12381  11.143   4.880   9.932  1.3475  0.2148  1.0505
   92MOL0     H12382  11.039   4.979   9.828 -0.2400 -0.6936 -0.1665
   92MOL0     H12383  11.167   4.864   9.763  0.7100 -2.3540  3.0477
   92MOL0     H12384  11.798   4.884   9.666 -0.7832  0.5279  0.4905
   92MOL0     H12385  11.917   4.679   9.570  0.4197 -0.8130 -0.6610
   92MOL0     H12386  11.712   4.281   9.584 -1.5826 -2.0388 -1.8201
   92MOL0     H12387  11.689   4.347   9.422 -2.5021 -1.5747  1.0881
   92MOL0     H12388  11.931   4.274   9.371  0.5498  2.2833  0.7471
   92MOL0     H12389  11.946   4.232   9.534 -0.9329  1.2366  0.2805
   92MOL0     H12390  11.767   4.111   9.339 -0.1130  4.5190  1.6441
   92MOL0     H12391  11.774   4.052   9.510  0.8762  0.1549  1.6943
   92MOL0     H12392  11.983   4.031   9.279 -0.8503 -1.8961 -1.1436
   92MOL0     H12393  12.036   4.042   9.455 -0.0537  0.6465  0.1445
   92MOL0     H12394  11.859   3.835   9.317 -0.2315 -1.5147  0.4667
   92MOL0     H12395  11.906   3.824   9.484  2.2975  0.9243  1.0899
   92MOL0     H12396  12.092   3.840   9.228  2.2859  1.4708  0.6117
   92MOL0     H12397  12.151   3.842   9.393  0.2296  1.3017  0.4392
   92MOL0     H12398  12.000   3.616   9.252 -0.3679  1.0966 -0.8185
   92MOL0     H12399  12.019   3.632   9.430  0.2076  0.7795 -0.8174
   92MOL0     H12400  12.245   3.622   9.416  1.4236 -0.3229 -1.0498
   92MOL0     H12401  12.252   3.652   9.240  0.0105 -1.2795 -0.6340
   92MOL0     H12402  11.563   4.450   9.611  0.2080 -0.6111  2.3458
   92MOL0     H12403  11.447   4.643   9.676  1.3503  2.0238  2.7181
   92MOL0     H12404  11.571   5.143   9.799  1.0327  2.2481  1.1086
   92MOL0     H12405  11.475   5.366   9.795 -0.4626  0.4559 -3.6432
   92MOL0     H12406  11.386   4.033  10.097 -3.3613  1.3119  1.2231
   92MOL0     H12407  11.429   3.800  10.085  2.3122 -1.3701 -1.8117
   92MOL0     H12408  11.483   3.458   9.769  2.8206 -1.5225 -0.9298
   92MOL0     H12409  11.562   3.226   9.730 -0.7695 -2.0114  0.2288
   92MOL0     H12410  11.668   2.895   9.821 -2.6659  0.8013 -0.0000
   92MOL0     H12411  11.712   3.062   9.766  1.0262  1.6400  1.4601
   92MOL0     H12412  11.831   3.105   9.963 -1.8997 -0.0894  0.5274
   92MOL0     H12413  11.893   2.970   9.875  2.2494  2.3906  0.8135
   92MOL0     H12414  11.738   2.972  10.147  1.4565 -0.2706  0.8616
   92MOL0     H12415  11.915   2.936  10.115  1.7276  0.3873 -2.8560
   92MOL0     H12416  11.800   2.738   9.954 -0.0752 -0.2993  0.3885
   92MOL0     H12417  11.668   2.771  10.065  0.2036 -1.9153  2.4672
   92MOL0     H12418  11.881   2.558  10.331  2.5548  0.5971 -0.4179
   92MOL0     H12419  11.458   3.137  10.140 -2.6714 -0.4595 -0.5630
   92MOL0     H12420  11.361   3.340  10.157  0.6114  0.1756 -0.3048
   93MOL0     O12421   5.271   0.404  10.514 -0.3593 -0.0262  0.5099
   93MOL0     C12422   5.375   0.349  10.482 -0.2309  0.0516  0.1818
   93MOL0     O12423   5.413   0.216  10.511  0.3851  0.1710  0.4048
   93MOL0     C12424   5.340   0.124  10.564 -1.1217  0.8484 -0.7783
   93MOL0     C12425   5.214   0.094  10.526  0.0227  0.3925  0.6151
   93MOL0     C12426   5.132   0.001  10.590 -0.3328  0.8989  0.4030
   93MOL0     C12427   5.183  -0.075  10.691  0.6964  0.2609  0.2589
   93MOL0     O12428   5.110  -0.180  10.722  0.5868 -0.3210 -0.1516
   93MOL0     C12429   5.160  -0.302  10.669 -0.0876 -0.1942  0.3695
   93MOL0     C12430   5.045  -0.405  10.663  0.3001  0.7197  0.4626
   93MOL0     C12431   5.095  -0.532  10.585 -0.1044 -0.8634  0.8375
   93MOL0     C12432   5.203  -0.606  10.673 -0.2812 -0.1832  0.0802
   93MOL0     C12433   5.254  -0.726  10.614  0.4710 -0.0302 -0.0420
   93MOL0     C12434   5.173  -0.852  10.639  0.9407  0.0606  0.2502
   93MOL0     C12435   5.050  -0.870  10.553  0.5425 -0.5416 -0.0055
   93MOL0     C12436   5.001  -1.006  10.525 -0.8324  0.3887  0.2431
   93MOL0     N12437   5.102  -1.089  10.464 -0.0174 -1.2452 -0.3976
   93MOL0     C12438   5.155  -1.062  10.343  0.7412 -0.0061  0.5197
   93MOL0     C12439   5.257  -1.150  10.326  0.5177 -0.2365  0.0480
   93MOL0     C12440   5.360  -1.164  10.216 -0.0473 -0.1589 -0.4521
   93MOL0     C12441   5.311  -1.140  10.073  0.0424  0.3231  0.3761
   93MOL0     C12442   5.203  -1.242  10.020  0.4020 -0.7110 -0.0738
   93MOL0     C12443   5.189  -1.218   9.874 -0.5068 -0.4484  0.0734
   93MOL0     O12444   5.078  -1.123   9.856 -1.0263 -1.3022  0.3608
   93MOL0     C12445   4.952  -1.174   9.854  0.2352  0.8096 -0.2742
   93MOL0     C12446   4.911  -1.307   9.850  0.1058 -1.0903  0.4055
   93MOL0     C12447   4.783  -1.348   9.837  0.8777  0.2014  0.2859
   93MOL0     C12448   4.763  -1.491   9.806  0.1498 -0.0853 -0.6916
   93MOL0     C12449   4.674  -1.253   9.838 -0.2471 -0.0111 -1.4463
   93MOL0     C12450   4.531  -1.286   9.827 -0.8170  1.3725  0.5958
   93MOL0     O12451   4.455  -1.188   9.866  0.7195 -0.1940  0.6295
   93MOL0     C12452   4.322  -1.172   9.857 -0.4426 -0.1454  0.1976
   93MOL0     C12453   4.272  -1.083   9.954  0.4165  0.1819  0.3366
   93MOL0     C12454   4.139  -1.048   9.959 -0.6238 -0.1621 -0.5200
   93MOL0     C12455   4.055  -1.099   9.859 -0.1299 -0.2980 -0.0841
   93MOL0     O12456   3.917  -1.081   9.850 -0.1407 -0.6627 -0.3630
   93MOL0     C12457   3.856  -1.133   9.971 -0.8220 -0.3422  0.3964
   93MOL0     C12458   3.720  -1.186   9.936  0.6106  0.0734 -0.4003
   93MOL0     C12459   3.653  -1.231  10.068  0.0864  0.0899 -0.0037
   93MOL0     C12460   3.521  -1.300  10.048 -0.4350  0.6289  0.7237
   93MOL0     C12461   3.414  -1.198   9.995  1.3800  0.5010  0.0086
   93MOL0     C12462   3.277  -1.251  10.031  0.2022 -0.0576 -0.9938
   93MOL0     C12463   3.256  -1.394   9.958  0.4162 -0.1527 -0.0594
   93MOL0     C12464   3.116  -1.426   9.900 -1.2048 -0.4942 -0.2267
   93MOL0    Cl12465   3.079  -1.600   9.861 -0.0078  0.3166 -0.0201
   93MOL0     C12466   4.099  -1.187   9.762 -0.6827 -0.0486 -0.2395
   93MOL0     C12467   4.234  -1.220   9.755 -0.7686 -0.3435 -0.1928
   93MOL0     O12468   4.494  -1.398   9.782  0.2803  0.2642 -0.0469
   93MOL0     C12469   4.714  -1.114   9.858  0.2287 -1.2028 -0.5673
   93MOL0     C12470   4.850  -1.079   9.862  0.1096  0.2492 -0.0175
   93MOL0     N12471   5.257  -1.229  10.440  0.9104 -1.1449  0.0243
   93MOL0     N12472   5.167  -1.191  10.521  0.7184  0.2837 -0.1341
   93MOL0     C12473   5.314  -0.042  10.741  0.3120 -0.6780  0.2022
   93MOL0     C12474   5.391   0.057  10.677 -0.0151 -0.3856 -0.2365
   93MOL0     C12475   5.486   0.424  10.421  0.2749 -1.0146  0.0740
   93MOL0     C12476   5.620   0.387  10.437  0.5335  0.2998  0.2812
   93MOL0     C12477   5.731   0.462  10.375 -0.2317 -0.2942  0.3516
   93MOL0     C12478   5.696   0.582  10.300 -0.4089 -0.0827 -0.3331
   93MOL0     O12479   5.798   0.651  10.242  0.2780  0.3330 -0.6685
   93MOL0     C12480   5.768   0.748  10.140  0.4187  0.4038 -0.6466
   93MOL0     C12481   5.897   0.778  10.057  0.3299 -0.6583  0.5243
   93MOL0     C12482   5.937   0.642   9.996  0.0868 -0.5846  0.9087
   93MOL0     C12483   6.045   0.687   9.887 -0.0592  0.8061  0.0116
   93MOL0     C12484   6.094   0.572   9.813 -0.4649 -0.8830 -0.1028
   93MOL0     C12485   6.123   0.477   9.750  0.3716 -0.7381  0.2226
   93MOL0     C12486   5.563   0.618  10.286 -0.2128 -1.2353  0.2626
   93MOL0     C12487   5.459   0.538  10.348  0.1405 -0.9684 -0.2334
   93MOL0     H12488   5.173   0.151  10.443  2.0638 -0.9284 -1.3982
   93MOL0     H12489   5.037  -0.011  10.540  0.8521 -0.8910 -1.6256
   93MOL0     H12490   5.193  -0.275  10.569  0.1924  0.7116  0.6951
   93MOL0     H12491   5.240  -0.329  10.739  1.4671 -0.3833 -1.4213
   93MOL0     H12492   5.006  -0.432  10.762  0.2375  1.5155  0.6686
   93MOL0     H12493   4.959  -0.366  10.608 -1.0215 -1.0869  1.1607
   93MOL0     H12494   5.003  -0.588  10.569 -0.2900  0.4127 -4.2491
   93MOL0     H12495   5.138  -0.496  10.491 -3.8545  0.0170 -0.7381
   93MOL0     H12496   5.283  -0.534  10.695  1.0231 -1.8167  0.8735
   93MOL0     H12497   5.163  -0.620  10.774 -0.7278  0.5541  0.0170
   93MOL0     H12498   5.263  -0.708  10.506 -0.9201  1.0912  0.0119
   93MOL0     H12499   5.354  -0.748  10.654 -0.2635 -1.0306  1.3090
   93MOL0     H12500   5.241  -0.937  10.636  1.8745  0.7832  0.2449
   93MOL0     H12501   5.134  -0.861  10.741 -0.1836 -3.0505 -0.3488
   93MOL0     H12502   4.967  -0.813  10.595  0.4483  0.4480 -1.4597
   93MOL0     H12503   5.063  -0.819  10.457 -0.3654  1.0372  0.6873
   93MOL0     H12504   4.912  -1.009  10.462  0.3987 -0.4798 -1.5447
   93MOL0     H12505   4.972  -1.044  10.623 -1.2745 -1.5488 -0.5986
   93MOL0     H12506   5.118  -0.985  10.277  0.4073  2.4762  3.3881
   93MOL0     H12507   5.433  -1.083  10.230 -0.0418 -0.5002  1.6755
   93MOL0     H12508   5.406  -1.263  10.222 -0.2771 -0.2767 -0.6230
   93MOL0     H12509   5.394  -1.173  10.010  0.2998 -0.1378  0.9452
   93MOL0     H12510   5.271  -1.042  10.045 -1.2595 -0.2264  0.2524
   93MOL0     H12511   5.109  -1.212  10.068 -0.1446  1.1773 -2.1631
   93MOL0     H12512   5.227  -1.347  10.042 -2.8138 -1.2756  1.3819
   93MOL0     H12513   5.161  -1.308   9.819 -1.5026  0.5699 -1.1888
   93MOL0     H12514   5.285  -1.180   9.839 -0.8782  0.8804  0.4278
   93MOL0     H12515   4.986  -1.385   9.843  0.8853 -0.3969  0.8194
   93MOL0     H12516   4.861  -1.539   9.806  1.6004  2.5682  1.2973
   93MOL0     H12517   4.699  -1.551   9.871  1.1326 -0.2694  0.1331
   93MOL0     H12518   4.720  -1.489   9.705  1.9467  1.0170 -1.4854
   93MOL0     H12519   4.335  -1.060  10.040 -0.7464 -0.0748  1.2906
   93MOL0     H12520   4.104  -0.980  10.036  0.5445 -0.1131 -0.0232
   93MOL0     H12521   3.915  -1.213  10.016  0.1197 -0.2499 -0.6176
   93MOL0     H12522   3.851  -1.055  10.047  2.8388  1.0543 -0.5565
   93MOL0     H12523   3.653  -1.110   9.892  0.2962 -0.0061 -0.0601
   93MOL0     H12524   3.726  -1.264   9.860  1.7463 -1.2204  0.9551
   93MOL0     H12525   3.626  -1.153  10.140 -1.0196 -2.6594  2.7397
   93MOL0     H12526   3.721  -1.298  10.121 -0.9774 -1.2718 -0.3188
   93MOL0     H12527   3.520  -1.381   9.975 -0.6599  1.3758 -0.1151
   93MOL0     H12528   3.494  -1.340  10.146  3.0236 -2.4479  0.6650
   93MOL0     H12529   3.419  -1.176   9.888  4.0465  1.1796  0.2042
   93MOL0     H12530   3.428  -1.100  10.040  2.1255 -0.3953  1.8152
   93MOL0     H12531   3.276  -1.261  10.140 -1.1512  1.2741 -0.8474
   93MOL0     H12532   3.201  -1.176  10.008 -0.6114 -1.3456 -2.7444
   93MOL0     H12533   3.275  -1.466  10.038  0.0339  2.3724  2.5004
   93MOL0     H12534   3.328  -1.414   9.879 -0.2436 -0.3741 -0.6129
   93MOL0     H12535   3.099  -1.371   9.806  0.1426 -0.2854 -0.3616
   93MOL0     H12536   3.045  -1.388   9.974  0.4775  2.3762  0.0382
   93MOL0     H12537   4.026  -1.234   9.696 -1.8136 -0.1910  1.0720
   93MOL0     H12538   4.259  -1.295   9.680 -1.3742 -0.0836 -0.6615
   93MOL0     H12539   4.643  -1.034   9.876 -0.1881 -1.3628 -1.4483
   93MOL0     H12540   4.870  -0.973   9.877 -1.3359  0.6395 -0.6357
   93MOL0     H12541   5.355  -0.091  10.829 -2.9441  0.9552  2.8417
   93MOL0     H12542   5.494   0.065  10.708 -0.4371  1.5015  0.8720
   93MOL0     H12543   5.646   0.295  10.488  0.5449  1.4079  2.3765
   93MOL0     H12544   5.832   0.425  10.391 -0.1721  0.7214  2.7820
   93MOL0     H12545   5.682   0.727  10.077 -0.2741  0.9669  0.0891
   93MOL0     H12546   5.751   0.834  10.205 -4.1533 -1.0079  0.3644
   93MOL0     H12547   5.969   0.833  10.119 -0.7594  1.2005  0.1974
   93MOL0     H12548   5.870   0.841   9.973  1.0757  1.4880  1.8202
   93MOL0     H12549   5.847   0.597   9.952  0.1050  0.9446 -0.7965
   93MOL0     H12550   5.969   0.572  10.074 -0.2547 -0.0419  1.5344
   93MOL0     H12551   6.133   0.739   9.926  0.1902  2.0152 -1.9958
   93MOL0     H12552   6.001   0.757   9.816  2.6750  0.6259 -2.0135
   93MOL0     H12553   6.155   0.392   9.692  1.4286  0.2304 -0.6727
   93MOL0     H12554   5.531   0.711  10.241 -0.4848 -0.2504  2.3412
   93MOL0     H12555   5.357   0.575  10.353 -0.1914 -1.8250 -0.4233
   94MOL0     O12556   2.383   7.804   5.927  0.4231  0.0690  0.1822
   94MOL0     C12557   2.339   7.726   6.014  0.8638  0.2723  0.6457
   94MOL0     O12558   2.215   7.669   6.007 -0.6127 -0.3361  0.1367
   94MOL0     C12559   2.124   7.689   5.902  0.2463  0.0424 -0.2693
   94MOL0     C12560   2.031   7.590   5.880  0.9336 -0.2148 -0.4115
   94MOL0     C12561   1.938   7.604   5.772 -1.5190  0.6767  0.1624
   94MOL0     C12562   1.920   7.722   5.706  0.0854  0.9163 -0.5489
   94MOL0     O12563   1.821   7.767   5.620  0.5659  0.0840 -0.5250
   94MOL0     C12564   1.698   7.688   5.599  0.7688 -1.3854  0.3588
   94MOL0     C12565   1.613   7.783   5.510  1.2757 -0.3986  0.1094
   94MOL0     C12566   1.589   7.918   5.577 -0.5227 -0.2908 -0.1584
   94MOL0     C12567   1.528   7.904   5.725 -0.7452  0.5090 -0.5660
   94MOL0     C12568   1.386   7.969   5.730  0.3099  0.2773 -0.1404
   94MOL0     C12569   1.317   7.926   5.862 -0.4968 -0.1018  0.2924
   94MOL0     C12570   1.166   7.984   5.860 -0.5381  1.2009  0.0213
   94MOL0     C12571   1.063   7.869   5.853  0.7845 -0.3527 -0.5864
   94MOL0     N12572   1.066   7.799   5.725 -0.6429  0.3224  0.0602
   94MOL0     C12573   1.054   7.667   5.715  0.2974  0.4281  0.8991
   94MOL0     C12574   1.039   7.638   5.583 -1.2573  0.4101 -1.3645
   94MOL0     C12575   1.020   7.503   5.514  0.5417  0.7736 -0.2664
   94MOL0     C12576   1.125   7.399   5.558 -0.2018 -0.2732 -0.4150
   94MOL0     C12577   1.260   7.419   5.498 -0.0352  0.0014 -0.1626
   94MOL0     C12578   1.364   7.350   5.578  0.7532  0.0071 -1.1633
   94MOL0     O12579   1.482   7.330   5.504  0.2352  0.0874 -0.8351
   94MOL0     C12580   1.591   7.277   5.566  0.7264 -0.3678 -0.0130
   94MOL0     C12581   1.682   7.212   5.497 -0.7175 -0.1653  0.7529
   94MOL0     C12582   1.811   7.178   5.546 -0.3291  0.5815 -1.0075
   94MOL0     C12583   1.908   7.109   5.451 -0.1362  0.6108 -0.8477
   94MOL0     C12584   1.842   7.230   5.679 -0.4632  0.9030  0.8051
   94MOL0     C12585   1.976   7.196   5.741  0.2667 -1.2197  0.1841
   94MOL0     O12586   2.048   7.090   5.687  0.5627  0.4416 -0.1279
   94MOL0     C12587   2.164   7.057   5.737 -0.1729  0.6744 -0.0891
   94MOL0     C12588   2.204   6.925   5.717 -0.2839 -0.5260  0.7219
   94MOL0     C12589   2.321   6.869   5.768 -0.2735 -0.0066 -0.2430
   94MOL0     C12590   2.407   6.952   5.840 -1.4636  0.1326  0.0860
   94MOL0     O12591   2.520   6.906   5.902 -0.2369 -0.1023 -0.0672
   94MOL0     C12592   2.598   6.817   5.831  0.8613 -0.1187  0.4497
   94MOL0     C12593   2.735   6.825   5.895  0.6728  0.1540  0.7280
   94MOL0     C12594   2.835   6.744   5.821  0.0287 -0.1394  0.6327
   94MOL0     C12595   2.967   6.745   5.889 -0.8164  0.3111  0.4803
   94MOL0     C12596   3.051   6.628   5.844 -0.1976 -0.6319  0.7494
   94MOL0     C12597   3.189   6.642   5.895 -0.3989  0.2634  0.6260
   94MOL0     C12598   3.206   6.578   6.033 -0.1890  0.5424 -0.8941
   94MOL0     C12599   3.345   6.538   6.062  0.8214 -0.7514  0.6082
   94MOL0    Cl12600   3.461   6.685   6.060 -0.2101 -0.4165 -0.3503
   94MOL0     C12601   2.383   7.088   5.847  0.5490 -0.1577 -0.5647
   94MOL0     C12602   2.261   7.139   5.790  0.6687 -0.1852 -0.2916
   94MOL0     O12603   2.013   7.261   5.834 -0.0122  0.4073  0.0555
   94MOL0     C12604   1.748   7.292   5.753 -0.5830 -0.1266 -0.9074
   94MOL0     C12605   1.624   7.321   5.695  0.8726  1.1041 -0.7751
   94MOL0     N12606   1.048   7.766   5.520  0.1622 -0.6098 -0.2933
   94MOL0     N12607   1.051   7.860   5.605 -0.9553  0.2889  0.3552
   94MOL0     C12608   2.013   7.827   5.733 -0.1324  0.3976  1.3890
   94MOL0     C12609   2.113   7.811   5.830  0.0831 -1.1883 -0.1106
   94MOL0     C12610   2.421   7.709   6.127  0.0983  0.0162 -0.1946
   94MOL0     C12611   2.385   7.630   6.237  0.3545 -0.7436  0.0328
   94MOL0     C12612   2.455   7.639   6.351 -0.1180  0.5593 -0.2837
   94MOL0     C12613   2.585   7.703   6.361 -0.1992  0.4935 -0.3950
   94MOL0     O12614   2.652   7.686   6.486 -0.3207  0.3654 -0.3563
   94MOL0     C12615   2.788   7.732   6.503 -0.0710 -0.6779  0.6994
   94MOL0     C12616   2.795   7.889   6.541 -0.6816 -0.3570  0.0392
   94MOL0     C12617   2.923   7.954   6.586  0.1825 -0.3997 -0.0453
   94MOL0     C12618   2.974   7.882   6.705  0.0606  0.7973  0.4140
   94MOL0     C12619   3.083   7.956   6.776 -0.1890 -0.1699  0.1967
   94MOL0     C12620   3.180   8.008   6.820 -0.6706  0.3725  0.1820
   94MOL0     C12621   2.631   7.776   6.253  0.2583 -0.7332  0.4292
   94MOL0     C12622   2.544   7.778   6.133  0.0614  0.8420 -1.1237
   94MOL0     H12623   2.042   7.491   5.922  0.7168  0.6411  1.7533
   94MOL0     H12624   1.872   7.525   5.738 -2.6465  1.7445 -0.1854
   94MOL0     H12625   1.702   7.597   5.537  1.4235 -0.7709 -0.5318
   94MOL0     H12626   1.655   7.658   5.695  1.1685 -3.2269  0.0161
   94MOL0     H12627   1.651   7.797   5.408 -0.5208 -2.2185 -0.8758
   94MOL0     H12628   1.518   7.731   5.503  1.4683 -0.9664  1.4794
   94MOL0     H12629   1.678   7.981   5.587 -0.5135 -0.7128  4.7620
   94MOL0     H12630   1.516   7.975   5.517 -0.9394 -0.0100  0.6014
   94MOL0     H12631   1.508   7.801   5.755  0.7467  0.3966  0.1062
   94MOL0     H12632   1.599   7.952   5.793 -1.0310  0.7153 -0.4068
   94MOL0     H12633   1.391   8.078   5.717 -2.8153  0.4138 -1.0094
   94MOL0     H12634   1.331   7.934   5.642  1.1794 -0.3912 -0.4395
   94MOL0     H12635   1.322   7.817   5.870 -2.1960 -0.2345 -0.1123
   94MOL0     H12636   1.379   7.961   5.945 -0.8040  0.0630  0.4532
   94MOL0     H12637   1.147   8.053   5.942 -0.8804 -2.2650  3.1091
   94MOL0     H12638   1.163   8.054   5.776 -2.5473  1.9035  0.6379
   94MOL0     H12639   0.965   7.911   5.878  0.4116 -1.7985  0.5379
   94MOL0     H12640   1.084   7.814   5.945  2.1954 -2.4884 -2.0941
   94MOL0     H12641   1.056   7.590   5.791 -2.0691  0.5573  1.1758
   94MOL0     H12642   0.924   7.465   5.549  1.4406 -0.4000  1.0245
   94MOL0     H12643   1.024   7.508   5.405 -0.2314  0.6175 -0.3062
   94MOL0     H12644   1.088   7.299   5.532 -0.6194  0.6915 -3.9198
   94MOL0     H12645   1.138   7.400   5.667  1.4921  0.7686 -0.5921
   94MOL0     H12646   1.276   7.526   5.515 -5.1875  1.3923 -2.3548
   94MOL0     H12647   1.258   7.398   5.391  3.1377  1.7203 -0.6838
   94MOL0     H12648   1.331   7.248   5.599 -0.6364  0.2435 -2.0058
   94MOL0     H12649   1.386   7.413   5.665 -1.6109  0.1636 -0.6057
   94MOL0     H12650   1.658   7.198   5.392 -1.9454 -0.9144  1.1226
   94MOL0     H12651   2.010   7.149   5.456 -1.0618  3.1629 -1.0012
   94MOL0     H12652   1.912   7.000   5.454  0.0708  0.5734 -1.8776
   94MOL0     H12653   1.881   7.123   5.346  1.1640  0.9563 -1.1454
   94MOL0     H12654   2.132   6.854   5.677  0.6411 -1.4404  0.6655
   94MOL0     H12655   2.335   6.762   5.781 -2.6256 -0.3066  0.3156
   94MOL0     H12656   2.555   6.717   5.821 -1.2626  0.7084  0.8072
   94MOL0     H12657   2.603   6.852   5.728  1.1150 -0.1560  0.4501
   94MOL0     H12658   2.775   6.927   5.901  1.1040 -0.0190  0.8032
   94MOL0     H12659   2.729   6.781   5.995  2.6715 -1.6804  0.1154
   94MOL0     H12660   2.843   6.786   5.721  0.0689 -1.3037  0.1338
   94MOL0     H12661   2.804   6.640   5.809  1.4474 -0.4878 -0.2644
   94MOL0     H12662   3.029   6.832   5.865  1.8263 -1.9819 -1.7419
   94MOL0     H12663   2.959   6.737   5.998  2.6936 -2.5746  0.7234
   94MOL0     H12664   3.046   6.614   5.735 -0.9873 -3.7213  1.0757
   94MOL0     H12665   3.000   6.535   5.870 -4.0991  0.4337 -2.0576
   94MOL0     H12666   3.247   6.598   5.814 -2.8821  0.0741 -1.1584
   94MOL0     H12667   3.224   6.746   5.896  0.6027  0.0484 -2.3958
   94MOL0     H12668   3.138   6.492   6.038  1.1200 -0.6505 -2.3428
   94MOL0     H12669   3.176   6.652   6.108 -2.4048 -0.8261 -0.3207
   94MOL0     H12670   3.377   6.470   5.982 -1.8966 -0.4150 -0.8969
   94MOL0     H12671   3.353   6.497   6.164  0.7609 -0.5122  0.7093
   94MOL0     H12672   2.456   7.145   5.903 -0.4943  0.5806  0.1039
   94MOL0     H12673   2.252   7.246   5.807  1.0082  0.1151 -1.8614
   94MOL0     H12674   1.779   7.331   5.850  0.8328 -2.3736 -0.3719
   94MOL0     H12675   1.574   7.399   5.752  2.5839  0.0182  2.4615
   94MOL0     H12676   2.009   7.927   5.693  3.1293 -0.1169 -0.5637
   94MOL0     H12677   2.179   7.896   5.846 -0.3551 -1.0808  1.2593
   94MOL0     H12678   2.292   7.575   6.242  0.0201 -0.1282  1.0751
   94MOL0     H12679   2.433   7.581   6.440 -0.8153  1.8362  0.4017
   94MOL0     H12680   2.842   7.685   6.585  0.6764  2.4009  2.1197
   94MOL0     H12681   2.838   7.712   6.408 -3.4326 -3.2008 -0.7118
   94MOL0     H12682   2.725   7.894   6.624  1.3945  2.9465  1.7820
   94MOL0     H12683   2.754   7.945   6.456 -1.4815  1.0474  1.3015
   94MOL0     H12684   2.909   8.063   6.595  3.3360  0.4406 -3.1376
   94MOL0     H12685   2.990   7.949   6.500 -3.7215 -0.4187 -3.4126
   94MOL0     H12686   3.026   7.793   6.670  0.7559  1.8899 -1.4350
   94MOL0     H12687   2.891   7.863   6.775 -0.4948  3.1676  0.4847
   94MOL0     H12688   3.263   8.063   6.861 -0.9373  0.5918  0.4423
   94MOL0     H12689   2.727   7.823   6.234 -0.2320 -0.6574 -2.3054
   94MOL0     H12690   2.578   7.848   6.058  3.7297  1.3150  0.7193
   95MOL0     O12691   8.463   0.691   1.671  0.0250 -0.7163 -0.4661
   95MOL0     C12692   8.496   0.616   1.580  0.0482  0.8173 -0.5405
   95MOL0     O12693   8.620   0.617   1.522 -0.8689  0.8882  0.2552
   95MOL0     C12694   8.720   0.696   1.577 -0.5850  0.5608 -0.4374
   95MOL0     C12695   8.698   0.829   1.630 -0.2220  0.3543  0.2678
   95MOL0     C12696   8.803   0.908   1.682  0.3149 -0.4284  0.6271
   95MOL0     C12697   8.930   0.851   1.704  0.9855  0.5734 -1.0543
   95MOL0     O12698   9.025   0.929   1.765  0.0204 -0.4052  0.6823
   95MOL0     C12699   9.160   0.889   1.759  0.7437  0.1704  0.1429
   95MOL0     C12700   9.241   1.015   1.754  0.7693  1.0552  0.1524
   95MOL0     C12701   9.217   1.107   1.875  0.2278 -0.1720 -0.5907
   95MOL0     C12702   9.272   1.037   1.999 -0.4164  0.0045  1.2951
   95MOL0     C12703   9.236   1.113   2.126 -0.2146  0.0420  0.6296
   95MOL0     C12704   9.305   1.050   2.250  0.2579 -0.0079  0.2452
   95MOL0     C12705   9.281   1.131   2.384  0.2363 -0.0989  0.2785
   95MOL0     C12706   9.339   1.273   2.381  0.1987  0.1024  0.3810
   95MOL0     N12707   9.380   1.317   2.512 -0.3371  0.3879  0.1897
   95MOL0     C12708   9.316   1.333   2.637  0.5623 -0.2598  0.3742
   95MOL0     C12709   9.421   1.371   2.720 -0.7394  0.6818 -0.1522
   95MOL0     C12710   9.428   1.393   2.868 -0.5704  0.3569 -0.3142
   95MOL0     C12711   9.319   1.320   2.947  0.2010  0.2673  0.1648
   95MOL0     C12712   9.336   1.331   3.097 -0.3961  0.5761  0.6334
   95MOL0     C12713   9.333   1.471   3.149  0.7526  0.4097 -0.8194
   95MOL0     O12714   9.244   1.477   3.266 -0.8845  0.0468  0.5486
   95MOL0     C12715   9.267   1.440   3.391  0.8283  0.5383 -0.7087
   95MOL0     C12716   9.169   1.486   3.477 -0.3408  0.0182 -0.5679
   95MOL0     C12717   9.174   1.468   3.616 -0.4317  0.1142  0.2180
   95MOL0     C12718   9.067   1.549   3.694 -0.0717 -0.6263  0.3392
   95MOL0     C12719   9.284   1.397   3.666  0.4947  0.5053  0.7264
   95MOL0     C12720   9.305   1.370   3.807  0.9367 -1.0434 -0.6149
   95MOL0     O12721   9.343   1.247   3.825 -0.0805  0.7485  0.1674
   95MOL0     C12722   9.376   1.196   3.948  0.2797  0.4986  0.1396
   95MOL0     C12723   9.328   1.067   3.983 -0.1028 -0.7631  0.3472
   95MOL0     C12724   9.350   1.015   4.109 -0.1863 -0.8813 -0.5221
   95MOL0     C12725   9.440   1.083   4.198  0.3103  0.0998  0.1506
   95MOL0     O12726   9.477   1.023   4.324  0.3575  0.1919 -0.9901
   95MOL0     C12727   9.482   0.875   4.326  0.2316 -1.3716 -0.2835
   95MOL0     C12728   9.544   0.842   4.462  0.5991  0.2604 -0.0530
   95MOL0     C12729   9.678   0.906   4.473  0.0350 -0.0815 -0.1373
   95MOL0     C12730   9.780   0.812   4.539 -0.1241  0.2971 -0.5096
   95MOL0     C12731   9.763   0.796   4.693 -0.1827 -0.0580  0.1594
   95MOL0     C12732   9.863   0.685   4.742  0.3845  0.3486  0.7538
   95MOL0     C12733   9.885   0.678   4.896  0.4978 -0.8588  1.1724
   95MOL0     C12734   9.986   0.564   4.925 -0.1105  0.5279  1.3513
   95MOL0    Cl12735  10.009   0.543   5.100  0.0266 -0.1492  0.1703
   95MOL0     C12736   9.515   1.189   4.150  0.8677  0.1903  0.2367
   95MOL0     C12737   9.475   1.255   4.032 -0.1900 -0.1692  0.0608
   95MOL0     O12738   9.289   1.453   3.902 -0.0601 -0.3265 -0.3031
   95MOL0     C12739   9.386   1.346   3.578  0.0539  0.3223  0.4195
   95MOL0     C12740   9.376   1.375   3.443  0.1005 -0.6514  0.3011
   95MOL0     N12741   9.532   1.395   2.634 -0.1790 -0.7083  0.0357
   95MOL0     N12742   9.506   1.362   2.517  0.4456 -0.5070  0.0700
   95MOL0     C12743   8.947   0.719   1.672  0.9093  0.8869  0.7142
   95MOL0     C12744   8.851   0.641   1.594 -0.2242  0.6899  0.2413
   95MOL0     C12745   8.400   0.513   1.535  0.3136  0.2443  0.3955
   95MOL0     C12746   8.276   0.501   1.599  0.3688 -0.2817 -0.6475
   95MOL0     C12747   8.170   0.423   1.561 -0.1768  0.6534 -0.5955
   95MOL0     C12748   8.194   0.344   1.445  0.0286 -1.0945 -0.4958
   95MOL0     O12749   8.098   0.270   1.382 -0.6697 -0.4663 -0.4370
   95MOL0     C12750   8.017   0.187   1.469 -1.1108  0.1556 -0.2007
   95MOL0     C12751   7.929   0.102   1.380  0.1659  0.4402 -1.0759
   95MOL0     C12752   7.811   0.035   1.457  0.4934  0.0408  0.3790
   95MOL0     C12753   7.689   0.025   1.372 -0.6963 -0.2288  0.0288
   95MOL0     C12754   7.580  -0.042   1.436 -0.2234 -0.4628 -0.0641
   95MOL0     C12755   7.485  -0.100   1.499 -0.1848 -0.1986 -0.0476
   95MOL0     C12756   8.315   0.348   1.378 -0.0972  0.7033  0.4744
   95MOL0     C12757   8.412   0.439   1.420 -0.5046  0.0283 -0.4941
   95MOL0     H12758   8.600   0.874   1.623  0.4297  1.9473  0.8640
   95MOL0     H12759   8.770   1.009   1.700 -1.2240 -0.6986 -0.4869
   95MOL0     H12760   9.192   0.817   1.835 -1.0725 -2.6869 -1.6072
   95MOL0     H12761   9.176   0.836   1.665  0.6939  1.8554 -0.8554
   95MOL0     H12762   9.348   1.006   1.731  0.6383 -1.5340  0.2986
   95MOL0     H12763   9.203   1.070   1.667  3.1592  0.8210 -1.1426
   95MOL0     H12764   9.264   1.203   1.850 -1.1096  0.2339 -1.6580
   95MOL0     H12765   9.112   1.132   1.892 -0.2442 -2.6076  0.4728
   95MOL0     H12766   9.224   0.938   2.006 -3.9703  1.5657  1.4977
   95MOL0     H12767   9.380   1.032   1.988 -0.5585 -1.5351  0.2358
   95MOL0     H12768   9.265   1.219   2.120 -1.8387  0.5952  1.8125
   95MOL0     H12769   9.129   1.119   2.147 -0.4692  0.0706 -0.5800
   95MOL0     H12770   9.265   0.950   2.270 -2.8209  1.0390 -0.0735
   95MOL0     H12771   9.414   1.051   2.240  0.2089 -0.5324 -0.3846
   95MOL0     H12772   9.172   1.141   2.388  0.2257 -0.3353  0.5785
   95MOL0     H12773   9.311   1.077   2.474  0.4510 -0.4652 -0.0107
   95MOL0     H12774   9.258   1.339   2.347 -1.0595 -1.5997 -0.0800
   95MOL0     H12775   9.412   1.279   2.300  1.9268  2.5518  1.9823
   95MOL0     H12776   9.216   1.303   2.667 -0.3412 -0.3935 -2.4852
   95MOL0     H12777   9.522   1.353   2.907 -0.1294 -1.2500 -2.8227
   95MOL0     H12778   9.430   1.500   2.892  0.9420  0.5866 -1.3433
   95MOL0     H12779   9.318   1.212   2.934  3.9981 -0.2142  2.3617
   95MOL0     H12780   9.230   1.373   2.912 -0.5516 -1.5364 -0.7230
   95MOL0     H12781   9.427   1.277   3.123 -0.5254 -0.2946 -0.6238
   95MOL0     H12782   9.253   1.276   3.141  0.5930 -0.9912  0.6106
   95MOL0     H12783   9.288   1.534   3.072  0.4729 -1.1842 -2.0165
   95MOL0     H12784   9.431   1.513   3.175  0.4533 -0.2425  1.5861
   95MOL0     H12785   9.082   1.537   3.437 -3.3047 -3.5923  0.6788
   95MOL0     H12786   9.107   1.647   3.719 -2.0039 -0.2542  2.1459
   95MOL0     H12787   8.979   1.554   3.630 -0.8442  3.0392  1.4617
   95MOL0     H12788   9.039   1.493   3.783  1.7252  0.5080  1.6816
   95MOL0     H12789   9.268   1.017   3.907 -0.4811  0.4733 -0.2015
   95MOL0     H12790   9.296   0.926   4.140 -2.8363  1.7331  3.3725
   95MOL0     H12791   9.383   0.829   4.317 -0.7319  0.6516 -0.6989
   95MOL0     H12792   9.541   0.826   4.249 -0.3323  1.3141 -2.5749
   95MOL0     H12793   9.474   0.868   4.542 -0.4873 -2.6017  0.0201
   95MOL0     H12794   9.558   0.734   4.471 -2.1885 -0.2187 -0.3731
   95MOL0     H12795   9.674   0.989   4.544 -0.7839  0.0009 -0.2680
   95MOL0     H12796   9.727   0.950   4.385 -0.3337 -1.0118 -0.8355
   95MOL0     H12797   9.775   0.708   4.506 -1.2129 -0.5567  2.0605
   95MOL0     H12798   9.876   0.860   4.519  0.6000 -1.1080 -0.4972
   95MOL0     H12799   9.661   0.760   4.711 -1.0223  2.1211  0.0866
   95MOL0     H12800   9.780   0.893   4.741  0.1042  0.8477 -1.6627
   95MOL0     H12801   9.812   0.595   4.708 -0.3488  1.1145 -0.2372
   95MOL0     H12802   9.956   0.684   4.684 -1.6765 -1.3007 -2.9264
   95MOL0     H12803   9.788   0.654   4.942 -1.0192  0.7467 -1.0040
   95MOL0     H12804   9.925   0.770   4.940 -0.9938  0.4278 -0.0410
   95MOL0     H12805  10.084   0.581   4.879 -0.0549 -1.0005  0.8384
   95MOL0     H12806   9.957   0.470   4.877  0.5538  0.6976  0.5929
   95MOL0     H12807   9.601   1.228   4.204  0.2237 -1.2023  2.4379
   95MOL0     H12808   9.524   1.349   4.008 -4.5632  2.6112  1.0533
   95MOL0     H12809   9.473   1.300   3.622 -0.4141 -0.5815  0.4408
   95MOL0     H12810   9.456   1.343   3.377  1.2841  1.7001  0.4984
   95MOL0     H12811   9.035   0.661   1.699  0.8367  1.0363  1.2875
   95MOL0     H12812   8.858   0.537   1.563 -2.0178  0.4755  0.4480
   95MOL0     H12813   8.261   0.566   1.684 -0.4070 -0.2032 -0.8421
   95MOL0     H12814   8.069   0.436   1.598 -1.3156 -0.0136 -3.2235
   95MOL0     H12815   8.072   0.118   1.535 -3.0108 -0.5246  0.7333
   95MOL0     H12816   7.973   0.258   1.539 -0.9373  1.7291 -1.6289
   95MOL0     H12817   7.983   0.033   1.315 -0.1064 -0.1307 -0.7039
   95MOL0     H12818   7.888   0.171   1.305 -0.4758  0.1083 -1.0394
   95MOL0     H12819   7.775   0.078   1.550 -2.0423  0.1415 -0.5791
   95MOL0     H12820   7.849  -0.065   1.480  0.7543 -0.3119 -1.4186
   95MOL0     H12821   7.721  -0.031   1.283  0.3667 -0.5180  0.5648
   95MOL0     H12822   7.658   0.128   1.357  0.4532  0.0388 -0.6821
   95MOL0     H12823   7.401  -0.156   1.534  0.0876 -1.0918 -0.7771
   95MOL0     H12824   8.339   0.310   1.279 -1.1529  2.4612 -0.5101
   95MOL0     H12825   8.499   0.469   1.362 -0.4703  0.3613 -0.2743
   96MOL0     O12826   9.016  11.301   8.001 -0.0861  0.2867  0.2963
   96MOL0     C12827   9.047  11.415   8.028 -0.0486 -0.1906  0.5162
   96MOL0     O12828   9.164  11.458   8.076  0.3603  0.3618  0.3790
   96MOL0     C12829   9.262  11.378   8.113  0.2908  0.4701  0.8867
   96MOL0     C12830   9.241  11.307   8.232 -0.2162  0.3248 -0.2129
   96MOL0     C12831   9.333  11.208   8.280 -1.4648 -0.2975  0.0331
   96MOL0     C12832   9.455  11.189   8.207  0.3673  0.5249  0.6020
   96MOL0     O12833   9.557  11.103   8.239  0.2096 -0.5541  0.3812
   96MOL0     C12834   9.555  11.024   8.365 -0.0458  0.1367  0.4957
   96MOL0     C12835   9.660  11.100   8.461 -0.6035 -0.5636  0.0674
   96MOL0     C12836   9.722  11.017   8.573  0.8644 -0.1294  0.2280
   96MOL0     C12837   9.807  11.109   8.663  0.4321 -1.3705  0.2814
   96MOL0     C12838   9.870  11.028   8.770  0.2772  0.6951 -0.8726
   96MOL0     C12839   9.988  10.950   8.724  0.1969  0.6863 -0.5520
   96MOL0     C12840  10.064  10.877   8.842  0.4609 -0.0873  0.2571
   96MOL0     C12841   9.981  10.766   8.916 -0.6690  0.4457  0.2970
   96MOL0     N12842   9.953  10.661   8.813 -0.5149 -0.2681 -0.4624
   96MOL0     C12843  10.045  10.577   8.752 -0.4379  0.0265  0.7976
   96MOL0     C12844   9.960  10.505   8.666 -0.9553  0.1681 -0.0868
   96MOL0     C12845   9.993  10.382   8.575 -0.0134 -0.6632  0.0719
   96MOL0     C12846   9.924  10.387   8.441 -0.3566  1.2129  0.3352
   96MOL0     C12847   9.951  10.505   8.354  0.2651 -0.2201 -0.1877
   96MOL0     C12848  10.098  10.541   8.334 -0.8568  0.3669 -0.1084
   96MOL0     O12849  10.154  10.616   8.441 -0.0441 -0.7323  1.0226
   96MOL0     C12850  10.265  10.592   8.515  0.1172  0.0643  0.5699
   96MOL0     C12851  10.305  10.690   8.605 -0.5901 -0.0060 -0.7545
   96MOL0     C12852  10.418  10.680   8.686  0.1975 -0.0486 -0.8727
   96MOL0     C12853  10.450  10.796   8.785  0.1575 -0.0451  0.4610
   96MOL0     C12854  10.501  10.567   8.671 -0.8944 -0.2542  0.2216
   96MOL0     C12855  10.633  10.557   8.734 -0.8284  0.1602 -0.0215
   96MOL0     O12856  10.728  10.627   8.653  0.0527 -0.0388  0.4813
   96MOL0     C12857  10.862  10.621   8.696  1.6874 -0.7811 -0.5468
   96MOL0     C12858  10.941  10.733   8.747  0.7943 -0.6871  0.2387
   96MOL0     C12859  11.081  10.712   8.774  0.6541 -0.1512  0.2890
   96MOL0     C12860  11.145  10.591   8.755 -0.0376 -0.5972  0.8007
   96MOL0     O12861  11.275  10.584   8.777 -0.0421 -0.3471  0.2261
   96MOL0     C12862  11.333  10.457   8.816 -0.4250  0.4924  0.8383
   96MOL0     C12863  11.469  10.466   8.883 -0.1361  0.6626 -0.5072
   96MOL0     C12864  11.567  10.509   8.783 -0.3014 -0.6556  0.3408
   96MOL0     C12865  11.715  10.478   8.824  0.0534  0.1267  0.5316
   96MOL0     C12866  11.835  10.540   8.745 -0.1600  0.4334 -0.7373
   96MOL0     C12867  11.814  10.517   8.598 -1.0274 -0.3827  1.5111
   96MOL0     C12868  11.949  10.530   8.513  0.0943  0.2492 -0.1397
   96MOL0     C12869  11.912  10.501   8.368  0.6751 -0.6326 -0.0967
   96MOL0    Cl12870  11.847  10.646   8.288 -0.2359 -0.1141  0.2119
   96MOL0     C12871  11.064  10.485   8.701 -0.2796  0.1090 -0.4997
   96MOL0     C12872  10.927  10.500   8.680 -0.6778 -0.5195 -0.3371
   96MOL0     O12873  10.654  10.484   8.826  0.1087  0.0354  0.1354
   96MOL0     C12874  10.468  10.471   8.589  1.1371  0.2735  0.8398
   96MOL0     C12875  10.352  10.476   8.511 -0.1185  0.1722 -0.0470
   96MOL0     N12876   9.833  10.554   8.671 -0.0520 -0.0235  0.4135
   96MOL0     N12877   9.826  10.648   8.752 -0.0721 -0.1881  0.4764
   96MOL0     C12878   9.459  11.255   8.087 -0.5100 -0.0915 -0.1392
   96MOL0     C12879   9.370  11.347   8.035 -0.0981 -1.5124  1.2300
   96MOL0     C12880   8.941  11.523   7.994 -0.6940  0.6260  0.6497
   96MOL0     C12881   8.821  11.489   7.948  0.7342 -0.1101 -0.1573
   96MOL0     C12882   8.732  11.597   7.926  0.7782 -0.0574 -0.2037
   96MOL0     C12883   8.759  11.732   7.936 -0.4465 -0.4515  0.4751
   96MOL0     O12884   8.665  11.833   7.900  0.1551  0.1794  0.1215
   96MOL0     C12885   8.544  11.831   7.986 -0.2678  0.5315  0.6535
   96MOL0     C12886   8.586  11.927   8.099 -0.4871 -0.0689 -0.3801
   96MOL0     C12887   8.496  11.907   8.222  0.0596 -0.1381 -0.1867
   96MOL0     C12888   8.499  12.036   8.306  0.4096  1.1774  0.1782
   96MOL0     C12889   8.468  11.994   8.442  0.4398  1.0697 -0.1348
   96MOL0     C12890   8.447  12.004   8.562 -0.2412 -0.7575  0.7473
   96MOL0     C12891   8.883  11.753   7.997 -0.1569 -0.1721 -0.2755
   96MOL0     C12892   8.975  11.654   8.019  0.0509  0.1827 -0.1516
   96MOL0     H12893   9.153  11.329   8.293 -0.9941  2.3772 -1.9468
   96MOL0     H12894   9.313  11.154   8.372  1.8662  0.5244  1.3970
   96MOL0     H12895   9.455  11.015   8.408  0.0638  3.4235  1.7586
   96MOL0     H12896   9.589  10.924   8.336  0.8315  0.3785  0.6586
   96MOL0     H12897   9.721  11.164   8.396 -2.6484  0.5495 -0.8269
   96MOL0     H12898   9.598  11.173   8.513 -0.0826  0.5913 -0.8919
   96MOL0     H12899   9.639  10.971   8.627 -0.3862  1.4306 -0.2705
   96MOL0     H12900   9.784  10.935   8.537  0.1437  0.2561 -2.0668
   96MOL0     H12901   9.881  11.165   8.606 -1.1531  0.5789  0.0320
   96MOL0     H12902   9.749  11.185   8.716  2.6527  0.0935  0.7345
   96MOL0     H12903   9.902  11.100   8.846 -0.2666  0.6639 -0.6076
   96MOL0     H12904   9.797  10.971   8.828 -1.5401  2.8518 -0.9048
   96MOL0     H12905   9.957  10.881   8.645  2.1581  0.9153 -1.5891
   96MOL0     H12906  10.063  11.015   8.678  0.2910  0.4017 -0.8061
   96MOL0     H12907  10.151  10.822   8.804 -0.0291  1.1274 -2.9898
   96MOL0     H12908  10.094  10.941   8.925  0.1602  1.6689 -0.9250
   96MOL0     H12909   9.881  10.787   8.955 -1.0419  0.2645 -0.5450
   96MOL0     H12910  10.032  10.714   8.998 -3.0452 -1.6002  0.5868
   96MOL0     H12911  10.152  10.570   8.769 -0.5298  1.1722  2.0716
   96MOL0     H12912  10.101  10.375   8.562  0.1166  1.0733 -0.1242
   96MOL0     H12913   9.952  10.288   8.614 -1.1642 -0.6611 -1.0593
   96MOL0     H12914   9.819  10.377   8.470  0.3750 -0.4603  2.6717
   96MOL0     H12915   9.956  10.296   8.389 -3.3451 -1.0450  2.1336
   96MOL0     H12916   9.889  10.584   8.396  0.1424 -2.3154  4.1999
   96MOL0     H12917   9.907  10.465   8.263  0.4343 -1.8353  0.4055
   96MOL0     H12918  10.101  10.614   8.252  0.7098  3.0864  2.1762
   96MOL0     H12919  10.160  10.458   8.298 -2.5575 -1.2776  0.6371
   96MOL0     H12920  10.229  10.767   8.614  0.7301  1.2487  0.1864
   96MOL0     H12921  10.547  10.828   8.745  0.9797 -0.9311  1.6928
   96MOL0     H12922  10.382  10.882   8.779 -2.0844 -1.7901 -0.4810
   96MOL0     H12923  10.465  10.760   8.887  0.8416  0.4430  0.5432
   96MOL0     H12924  10.912  10.833   8.776  1.9715  0.3548 -1.8990
   96MOL0     H12925  11.142  10.784   8.826  1.6840  0.6294 -1.8733
   96MOL0     H12926  11.266  10.398   8.880 -2.1926 -3.2534 -3.8694
   96MOL0     H12927  11.353  10.401   8.724  1.2575 -0.4544  1.7230
   96MOL0     H12928  11.458  10.545   8.959 -1.3829  1.5837 -1.6036
   96MOL0     H12929  11.502  10.373   8.930 -0.4001 -0.1110 -1.8175
   96MOL0     H12930  11.558  10.615   8.759 -0.8253 -0.7827 -0.0270
   96MOL0     H12931  11.557  10.459   8.686 -1.7541  0.1101  0.0840
   96MOL0     H12932  11.714  10.498   8.932 -2.5803 -0.7683  0.7471
   96MOL0     H12933  11.731  10.370   8.818 -0.3033  0.1294 -0.6373
   96MOL0     H12934  11.929  10.490   8.769 -1.0568 -0.8582  0.2462
   96MOL0     H12935  11.848  10.647   8.764  0.0518  1.0167 -3.7930
   96MOL0     H12936  11.771  10.418   8.582  1.6214 -1.4546  0.3174
   96MOL0     H12937  11.739  10.588   8.562 -0.0227  1.6771  3.2201
   96MOL0     H12938  12.019  10.453   8.549  2.5441  2.2962 -0.3099
   96MOL0     H12939  11.988  10.631   8.523  0.9960  0.4275 -4.0018
   96MOL0     H12940  11.836  10.423   8.364 -0.3325  0.3762 -1.3873
   96MOL0     H12941  11.989  10.465   8.298  1.0080  0.5841 -0.3755
   96MOL0     H12942  11.119  10.395   8.678  1.5881  0.9297  0.5527
   96MOL0     H12943  10.864  10.419   8.644  1.2155 -2.1481 -0.1476
   96MOL0     H12944  10.537  10.388   8.573  0.2784 -0.9462  2.9566
   96MOL0     H12945  10.335  10.404   8.432  2.0328  1.5064 -1.8381
   96MOL0     H12946   9.546  11.244   8.023  0.9409 -1.3839  1.9185
   96MOL0     H12947   9.374  11.394   7.937  1.2407 -2.1459  0.9627
   96MOL0     H12948   8.784  11.387   7.941 -0.9256  0.2080  2.5855
   96MOL0     H12949   8.630  11.575   7.894  0.6906  3.0182 -2.5036
   96MOL0     H12950   8.452  11.855   7.932  0.3743  1.3879 -0.0981
   96MOL0     H12951   8.521  11.733   8.028 -1.5739  1.1404  1.4101
   96MOL0     H12952   8.576  12.031   8.065  0.7347  1.7512  4.0573
   96MOL0     H12953   8.692  11.910   8.122 -0.8592 -0.9517  0.7711
   96MOL0     H12954   8.519  11.814   8.274 -0.7579  1.2519  2.8399
   96MOL0     H12955   8.392  11.896   8.190 -0.7727  2.5615  1.2603
   96MOL0     H12956   8.415  12.101   8.281  0.1529  1.9177  2.6753
   96MOL0     H12957   8.592  12.092   8.303 -0.6372  3.2209  2.3665
   96MOL0     H12958   8.410  11.999   8.662 -1.0756 -0.2434  0.4738
   96MOL0     H12959   8.921  11.852   8.019  1.9250 -1.0252  0.2867
   96MOL0     H12960   9.071  11.687   8.059 -0.3405  0.8484  0.2640
   97MOL0     O12961   7.441   4.781   5.598 -0.3707 -0.0926 -0.6231
   97MOL0     C12962   7.322   4.786   5.573  0.0930  0.2123  0.2973
   97MOL0     O12963   7.224   4.703   5.639 -0.5455  0.0760 -0.0978
   97MOL0     C12964   7.253   4.636   5.756  0.0141 -0.2653 -0.0896
   97MOL0     C12965   7.363   4.550   5.766  0.0534 -0.2623 -0.3699
   97MOL0     C12966   7.382   4.459   5.875 -0.0763  0.3672  0.2598
   97MOL0     C12967   7.293   4.469   5.989 -0.7492  0.0256  1.3971
   97MOL0     O12968   7.298   4.393   6.105  0.4649  0.1271  0.0999
   97MOL0     C12969   7.357   4.264   6.100 -0.2745 -0.0902  0.2522
   97MOL0     C12970   7.377   4.220   6.251  0.2702  0.0468  0.6877
   97MOL0     C12971   7.463   4.086   6.267  0.2372  0.0791  0.4514
   97MOL0     C12972   7.523   4.086   6.410  0.0543 -0.3850 -0.0607
   97MOL0     C12973   7.588   3.952   6.455 -0.7804  0.0860 -0.6692
   97MOL0     C12974   7.713   3.912   6.387 -0.0703  0.3462  0.1835
   97MOL0     C12975   7.762   3.792   6.458 -0.9098  0.1927  0.0464
   97MOL0     C12976   7.861   3.832   6.578 -0.1906 -0.1259  0.4490
   97MOL0     N12977   7.989   3.888   6.528  0.9212  0.1066  0.0260
   97MOL0     C12978   8.031   3.921   6.405 -0.0430  0.2602  0.2471
   97MOL0     C12979   8.149   3.980   6.422 -0.3945 -0.9474  0.2935
   97MOL0     C12980   8.232   4.017   6.304  0.2109 -0.0365 -0.6913
   97MOL0     C12981   8.368   3.939   6.304 -0.6467 -0.5349 -0.7982
   97MOL0     C12982   8.346   3.785   6.297  0.1724  0.0488 -0.1585
   97MOL0     C12983   8.473   3.706   6.274 -0.3518 -0.8171  0.3558
   97MOL0     O12984   8.559   3.723   6.386 -0.1842  1.2269 -0.2285
   97MOL0     C12985   8.657   3.622   6.385  0.5026  0.4413  0.2729
   97MOL0     C12986   8.767   3.628   6.302  0.2873  0.7013  1.1815
   97MOL0     C12987   8.861   3.528   6.299  0.1033  0.9012 -0.3865
   97MOL0     C12988   8.961   3.544   6.197 -1.0556  0.6544  0.2947
   97MOL0     C12989   8.865   3.434   6.408 -0.1451 -0.3205 -0.5831
   97MOL0     C12990   8.960   3.313   6.426  0.3110 -0.7774  0.1809
   97MOL0     O12991   8.934   3.222   6.525  0.2041  0.2832 -0.2804
   97MOL0     C12992   9.018   3.126   6.562  0.5789 -0.5130 -0.0756
   97MOL0     C12993   8.967   3.037   6.655 -1.2584  0.1334 -0.2094
   97MOL0     C12994   9.054   2.942   6.726  0.0838 -1.1583 -0.2921
   97MOL0     C12995   9.187   2.918   6.674 -0.1996 -0.3828 -0.3968
   97MOL0     O12996   9.274   2.821   6.713  0.6489  0.2416 -0.1374
   97MOL0     C12997   9.219   2.715   6.803 -0.0731 -0.7629 -0.3488
   97MOL0     C12998   9.339   2.620   6.845  0.2328 -0.0064  0.3034
   97MOL0     C12999   9.321   2.549   6.977 -0.3422 -0.7633 -0.6368
   97MOL0     C13000   9.393   2.409   6.999  0.9107  0.3322 -0.8295
   97MOL0     C13001   9.407   2.355   7.141 -0.3238 -0.1380 -0.3466
   97MOL0     C13002   9.511   2.428   7.229  0.1609 -0.4058 -0.2421
   97MOL0     C13003   9.555   2.364   7.357  0.4893 -0.4716 -1.1550
   97MOL0     C13004   9.446   2.340   7.459  1.0738  1.8385  0.0986
   97MOL0    Cl13005   9.514   2.256   7.612 -0.0961 -0.0296  0.0188
   97MOL0     C13006   9.234   3.001   6.576  0.8149 -0.4094 -0.6344
   97MOL0     C13007   9.150   3.101   6.517 -0.6172  0.0621  0.2657
   97MOL0     O13008   9.045   3.300   6.335 -0.3016 -0.2047 -0.1612
   97MOL0     C13009   8.764   3.438   6.505 -0.6403  0.2257  0.2667
   97MOL0     C13010   8.663   3.527   6.490 -0.9285  0.4016  1.0602
   97MOL0     N13011   8.169   3.994   6.557  0.0424  0.3729  0.6459
   97MOL0     N13012   8.071   3.939   6.618  0.1259  0.5504 -0.5915
   97MOL0     C13013   7.180   4.551   5.974 -0.3343 -0.4962 -0.0829
   97MOL0     C13014   7.161   4.632   5.861  0.0377  0.0582  0.3295
   97MOL0     C13015   7.284   4.871   5.458  0.8856  0.0408  0.6901
   97MOL0     C13016   7.143   4.883   5.421  0.4554  0.3841 -0.3131
   97MOL0     C13017   7.108   4.972   5.323  0.2420 -0.0053 -0.0566
   97MOL0     C13018   7.203   5.043   5.244 -0.3951  0.2454 -0.1960
   97MOL0     O13019   7.172   5.102   5.127  0.2221 -0.2197 -0.0697
   97MOL0     C13020   7.062   5.195   5.137 -0.8641  0.4553 -0.2118
   97MOL0     C13021   7.102   5.305   5.041 -0.0466 -0.3818  0.3425
   97MOL0     C13022   7.180   5.428   5.097 -0.0649  0.0435  0.5366
   97MOL0     C13023   7.320   5.377   5.146 -0.1740 -0.0662 -0.5585
   97MOL0     C13024   7.396   5.305   5.038  0.3005 -0.1245 -0.2126
   97MOL0     C13025   7.462   5.237   4.966 -0.6224  0.0174  0.5043
   97MOL0     C13026   7.332   5.033   5.282 -0.0805 -0.3260 -0.5004
   97MOL0     C13027   7.372   4.953   5.389 -0.0707 -0.5006 -0.0531
   97MOL0     H13028   7.435   4.540   5.685  1.2892  2.8968  0.1855
   97MOL0     H13029   7.465   4.391   5.862  0.9277  1.4668  0.6946
   97MOL0     H13030   7.303   4.195   6.035  3.5099 -0.7379 -2.5171
   97MOL0     H13031   7.456   4.268   6.055  1.2653  0.9673  3.4469
   97MOL0     H13032   7.421   4.302   6.308 -0.1965  0.0937  0.9837
   97MOL0     H13033   7.274   4.197   6.280  1.1007 -0.4273  3.6425
   97MOL0     H13034   7.399   3.998   6.258 -0.3145  0.5863 -0.8046
   97MOL0     H13035   7.545   4.073   6.197 -0.7462 -2.2306 -0.3672
   97MOL0     H13036   7.602   4.162   6.402  0.8484 -1.2995 -1.3101
   97MOL0     H13037   7.441   4.107   6.479  0.6085 -0.8010  0.7319
   97MOL0     H13038   7.611   3.975   6.560 -2.7827 -0.0951 -0.1423
   97MOL0     H13039   7.518   3.868   6.466 -0.4253 -0.0696  0.5846
   97MOL0     H13040   7.702   3.908   6.279  0.0620  0.0286  0.1815
   97MOL0     H13041   7.788   3.992   6.399  1.5520 -1.4708  3.7916
   97MOL0     H13042   7.685   3.723   6.493 -0.5183 -0.5979 -0.5855
   97MOL0     H13043   7.822   3.728   6.392  0.6344  1.2314  0.3824
   97MOL0     H13044   7.886   3.745   6.639 -0.8076 -0.1961  0.6056
   97MOL0     H13045   7.806   3.907   6.636 -2.0083 -0.8337 -0.2759
   97MOL0     H13046   7.979   3.920   6.310  0.5576 -2.7224 -0.1509
   97MOL0     H13047   8.174   4.007   6.212  0.0581 -0.8249 -0.5154
   97MOL0     H13048   8.253   4.125   6.311  2.6238 -0.3498 -1.9328
   97MOL0     H13049   8.439   3.964   6.384  0.2488  2.4930 -2.3727
   97MOL0     H13050   8.424   3.984   6.222 -1.8443  1.9409 -0.3609
   97MOL0     H13051   8.273   3.763   6.219  0.8944  1.2268 -1.2203
   97MOL0     H13052   8.307   3.766   6.397  1.0546  0.9968  0.3976
   97MOL0     H13053   8.516   3.743   6.180  1.1298 -3.2803 -0.0219
   97MOL0     H13054   8.455   3.600   6.256  0.8884 -1.5709  2.9821
   97MOL0     H13055   8.776   3.700   6.222  0.3806 -1.5339 -0.9444
   97MOL0     H13056   9.058   3.547   6.248 -2.2433  1.8595  2.6118
   97MOL0     H13057   8.974   3.461   6.127 -1.1895  1.2498 -0.4433
   97MOL0     H13058   8.960   3.638   6.141  1.2580  0.9428  0.6184
   97MOL0     H13059   8.864   3.060   6.680 -0.9529  0.6401  0.6437
   97MOL0     H13060   9.022   2.884   6.812 -3.8918  0.0654 -0.7486
   97MOL0     H13061   9.184   2.765   6.894 -1.5431 -1.3748 -0.5462
   97MOL0     H13062   9.131   2.656   6.777 -2.3673  1.2287  2.3053
   97MOL0     H13063   9.362   2.542   6.772 -0.3220  1.3905 -1.4437
   97MOL0     H13064   9.432   2.677   6.838  2.0661 -2.9314 -0.8220
   97MOL0     H13065   9.216   2.520   6.991 -0.6641  0.2678 -0.8565
   97MOL0     H13066   9.348   2.614   7.062 -0.2455 -1.6993  0.0692
   97MOL0     H13067   9.355   2.340   6.923  1.8809 -0.0520 -0.9793
   97MOL0     H13068   9.495   2.405   6.960  1.2284 -0.9122  0.0807
   97MOL0     H13069   9.439   2.251   7.131  1.1717  0.0875  1.5121
   97MOL0     H13070   9.312   2.373   7.191  0.6952  3.8847  0.4588
   97MOL0     H13071   9.605   2.445   7.175  0.4316  0.2307  0.4015
   97MOL0     H13072   9.464   2.523   7.256 -2.0675 -0.6322 -2.9496
   97MOL0     H13073   9.626   2.440   7.391 -2.1457  1.5145  0.2871
   97MOL0     H13074   9.612   2.270   7.349 -4.6234 -4.0324 -0.3527
   97MOL0     H13075   9.370   2.280   7.408  1.1623  2.2408 -0.5218
   97MOL0     H13076   9.392   2.427   7.499  1.3079  2.6421 -1.2804
   97MOL0     H13077   9.336   2.993   6.539 -0.1156 -0.5770 -3.4252
   97MOL0     H13078   9.180   3.134   6.418 -3.5496  0.0529 -0.7309
   97MOL0     H13079   8.749   3.371   6.590  2.3129 -0.5231  0.2807
   97MOL0     H13080   8.579   3.529   6.559  0.0609 -0.7027  2.3475
   97MOL0     H13081   7.108   4.553   6.055  0.7489  0.7731  0.8918
   97MOL0     H13082   7.072   4.694   5.855  1.1915  1.7443 -0.3392
   97MOL0     H13083   7.069   4.826   5.477  2.0798 -1.2363  0.2767
   97MOL0     H13084   7.008   4.974   5.280  0.8534 -0.9966 -1.6148
   97MOL0     H13085   6.964   5.149   5.121 -0.8889  0.8972 -1.3425
   97MOL0     H13086   7.056   5.241   5.237  1.4307  1.7170 -0.5766
   97MOL0     H13087   7.009   5.342   4.995  0.6439 -1.2703 -1.8830
   97MOL0     H13088   7.139   5.276   4.942  1.7050  4.3479 -0.6476
   97MOL0     H13089   7.115   5.478   5.169 -1.0996 -0.6293  0.0995
   97MOL0     H13090   7.193   5.505   5.022 -0.9638  0.9893  1.3246
   97MOL0     H13091   7.307   5.302   5.225  2.4760  0.5726  0.5910
   97MOL0     H13092   7.375   5.461   5.191 -1.1291  0.0626  0.4216
   97MOL0     H13093   7.520   5.176   4.900  0.1240  0.0963  1.0682
   97MOL0     H13094   7.416   5.082   5.233 -0.6579  1.1214 -0.1102
   97MOL0     H13095   7.477   4.942   5.417 -0.4546  2.1440  3.1387
   98MOL0     O13096   3.432  10.124   2.996 -0.2071 -1.1499  0.3729
   98MOL0     C13097   3.397  10.008   2.965 -0.2601 -0.2946  0.3487
   98MOL0     O13098   3.464   9.889   2.994 -0.5625 -0.3673  0.1840
   98MOL0     C13099   3.580   9.903   3.065 -0.4410 -0.0069 -0.0731
   98MOL0     C13100   3.616   9.806   3.149 -1.2912  0.6410 -0.0415
   98MOL0     C13101   3.744   9.802   3.221  0.3889 -0.3599  0.2737
   98MOL0     C13102   3.838   9.896   3.178  0.6579 -0.0951 -0.4793
   98MOL0     O13103   3.965   9.874   3.215 -0.8196  0.1046  0.8570
   98MOL0     C13104   4.049   9.991   3.243  0.6585 -0.4134  0.1889
   98MOL0     C13105   4.182   9.950   3.304 -1.2615 -0.6197  0.9925
   98MOL0     C13106   4.287   9.892   3.203  0.7560 -0.2300  0.0490
   98MOL0     C13107   4.427   9.883   3.260 -0.4412 -0.2722 -0.2475
   98MOL0     C13108   4.531   9.803   3.178  0.0927 -0.5612  0.8611
   98MOL0     C13109   4.501   9.657   3.177  0.1008  0.2648  0.4844
   98MOL0     C13110   4.611   9.563   3.126 -0.3162  0.1654  1.0667
   98MOL0     C13111   4.583   9.426   3.179 -0.6621 -0.9734 -0.0003
   98MOL0     N13112   4.592   9.414   3.319 -0.3688  0.3425 -0.7000
   98MOL0     C13113   4.707   9.372   3.384 -0.0666 -0.2378  0.7617
   98MOL0     C13114   4.675   9.358   3.513  0.1214  0.0689 -0.4017
   98MOL0     C13115   4.766   9.331   3.639  0.1185 -0.6147 -0.5269
   98MOL0     C13116   4.887   9.238   3.613  0.6847  0.5125 -0.7621
   98MOL0     C13117   4.978   9.224   3.743  0.7783 -0.3887  0.9278
   98MOL0     C13118   5.001   9.352   3.829 -0.2155 -0.4071  0.3805
   98MOL0     O13119   5.007   9.477   3.756 -0.3596 -0.0244 -0.0764
   98MOL0     C13120   5.125   9.504   3.691  1.2344 -0.0509  0.5519
   98MOL0     C13121   5.121   9.609   3.597  0.6022  0.1353  0.0966
   98MOL0     C13122   5.237   9.652   3.532  0.0509  0.1184  1.0452
   98MOL0     C13123   5.207   9.766   3.425 -0.2503  0.6077 -0.9386
   98MOL0     C13124   5.366   9.606   3.564  0.4868  0.1318 -0.3188
   98MOL0     C13125   5.489   9.658   3.498  0.8621 -0.0897 -0.1894
   98MOL0     O13126   5.598   9.595   3.535  0.8202 -0.3624  0.0646
   98MOL0     C13127   5.698   9.587   3.439 -0.3181  0.2305  0.4116
   98MOL0     C13128   5.761   9.706   3.393  0.3771 -0.2633  0.5594
   98MOL0     C13129   5.856   9.698   3.290  0.1013  0.2871 -0.4295
   98MOL0     C13130   5.898   9.577   3.241 -0.7997  0.4429  0.2238
   98MOL0     O13131   6.000   9.601   3.146 -0.0815  0.0842 -0.2444
   98MOL0     C13132   6.078   9.490   3.098  0.0134  0.0553 -0.3901
   98MOL0     C13133   6.144   9.523   2.967 -0.1835 -0.6015  0.1362
   98MOL0     C13134   6.039   9.528   2.855  0.2352 -0.2032  0.3016
   98MOL0     C13135   6.111   9.562   2.729  0.1089 -0.1391 -0.4943
   98MOL0     C13136   6.019   9.555   2.601  0.4075  0.7915  0.5933
   98MOL0     C13137   6.080   9.607   2.467 -0.6407  0.2166 -0.8838
   98MOL0     C13138   6.011   9.553   2.337  0.0138 -0.6215  0.9197
   98MOL0     C13139   5.868   9.596   2.316  0.0150  0.3373 -0.3900
   98MOL0    Cl13140   5.807   9.539   2.171  0.0089 -0.3412  0.3895
   98MOL0     C13141   5.827   9.467   3.263  0.5694  0.0098 -0.3248
   98MOL0     C13142   5.722   9.473   3.354  0.0040 -0.4891 -0.1561
   98MOL0     O13143   5.485   9.768   3.434 -0.4555 -0.0329  0.9237
   98MOL0     C13144   5.370   9.497   3.655 -0.6064  0.3266 -0.4902
   98MOL0     C13145   5.254   9.445   3.716 -0.0743  0.4659 -0.2698
   98MOL0     N13146   4.541   9.383   3.522 -0.5858 -0.8299  0.4742
   98MOL0     N13147   4.492   9.406   3.407 -0.1796  0.3047  0.1094
   98MOL0     C13148   3.803   9.996   3.093 -0.8764  0.8804  0.0445
   98MOL0     C13149   3.679   9.993   3.039  0.2740 -0.1877 -0.2277
   98MOL0     C13150   3.277   9.994   2.878 -0.8288  0.4233  0.4947
   98MOL0     C13151   3.212  10.106   2.829 -0.0471  0.5604  0.3976
   98MOL0     C13152   3.098  10.109   2.750 -0.5001 -0.2836 -0.2116
   98MOL0     C13153   3.030   9.992   2.721  0.2594  0.6283 -0.9652
   98MOL0     O13154   2.923  10.000   2.646  0.7012  0.5367  0.9145
   98MOL0     C13155   2.814   9.901   2.640  0.1128  0.4960 -0.1368
   98MOL0     C13156   2.761   9.857   2.774 -0.6696  0.1676  0.9804
   98MOL0     C13157   2.659   9.958   2.814  0.6377 -0.7339 -0.0319
   98MOL0     C13158   2.592   9.936   2.949 -0.3628  0.1092 -0.1984
   98MOL0     C13159   2.478  10.029   2.994  0.1776  0.1885  0.7211
   98MOL0     C13160   2.397  10.114   3.029  0.6132  1.1814 -1.0673
   98MOL0     C13161   3.094   9.872   2.765  0.0099  0.3721 -0.1338
   98MOL0     C13162   3.217   9.877   2.848 -0.2188  0.2921  0.0134
   98MOL0     H13163   3.543   9.734   3.185 -0.3155 -0.9842 -1.2155
   98MOL0     H13164   3.762   9.736   3.305 -2.8795 -2.5283 -0.5278
   98MOL0     H13165   4.054  10.043   3.147 -2.7044 -2.4291 -1.2556
   98MOL0     H13166   3.994  10.048   3.318  0.9132  0.3484 -0.1927
   98MOL0     H13167   4.228  10.046   3.330 -0.9018 -0.0738 -1.4557
   98MOL0     H13168   4.158   9.883   3.387 -1.5924 -1.1745  0.4514
   98MOL0     H13169   4.241   9.808   3.151 -1.7088  1.7796 -1.2395
   98MOL0     H13170   4.313   9.958   3.119  1.8113 -1.6928 -0.8261
   98MOL0     H13171   4.465   9.985   3.266 -3.3121  0.8646  0.1712
   98MOL0     H13172   4.433   9.830   3.355 -0.5507 -0.3230 -0.2693
   98MOL0     H13173   4.525   9.838   3.074  0.2604  0.4456  1.1802
   98MOL0     H13174   4.631   9.813   3.220  0.3155 -2.6401  0.9195
   98MOL0     H13175   4.472   9.626   3.278 -2.6746 -0.1393 -0.3450
   98MOL0     H13176   4.406   9.631   3.129  0.3429 -0.3778  0.3517
   98MOL0     H13177   4.609   9.562   3.017  0.2764  2.0088  1.0127
   98MOL0     H13178   4.705   9.608   3.157 -0.5489  1.5090 -0.0969
   98MOL0     H13179   4.648   9.350   3.136 -1.5923 -0.8569 -1.7168
   98MOL0     H13180   4.480   9.398   3.154 -1.7346  0.5482  2.3805
   98MOL0     H13181   4.809   9.381   3.350  0.0478  1.9189  1.5587
   98MOL0     H13182   4.790   9.430   3.678 -3.3107  0.4347 -0.7853
   98MOL0     H13183   4.696   9.281   3.707  1.3686 -1.2155  0.3509
   98MOL0     H13184   4.956   9.287   3.543  1.9882  0.2320  0.2968
   98MOL0     H13185   4.862   9.144   3.563  2.6000  0.8346 -2.4756
   98MOL0     H13186   5.077   9.191   3.712  0.8579  0.9286 -0.3174
   98MOL0     H13187   4.922   9.157   3.809  0.1693  0.8505  1.7106
   98MOL0     H13188   5.086   9.344   3.896  0.5053  0.5273 -0.3942
   98MOL0     H13189   4.915   9.375   3.893  0.0124 -0.2031  0.6121
   98MOL0     H13190   5.020   9.641   3.574 -0.6014 -2.5680  1.1696
   98MOL0     H13191   5.103   9.801   3.430 -0.6760 -0.4198 -2.0151
   98MOL0     H13192   5.273   9.849   3.451  0.2631 -0.6053  1.8948
   98MOL0     H13193   5.216   9.735   3.320  2.7755  2.0180 -1.2080
   98MOL0     H13194   5.752   9.804   3.440  5.3306 -0.0914  1.7222
   98MOL0     H13195   5.906   9.790   3.263 -1.5014  1.4904  0.5167
   98MOL0     H13196   6.148   9.466   3.179  0.1695  1.0894 -0.1998
   98MOL0     H13197   6.002   9.413   3.081 -0.4871  0.8575 -1.9796
   98MOL0     H13198   6.188   9.622   2.985 -2.1965 -0.0321  2.4660
   98MOL0     H13199   6.226   9.451   2.959 -0.3426 -0.7097 -0.6359
   98MOL0     H13200   5.958   9.598   2.876 -0.7024 -1.1326 -0.1675
   98MOL0     H13201   6.007   9.424   2.847  3.8424 -1.4097 -0.4565
   98MOL0     H13202   6.154   9.662   2.731 -2.4875  1.1827 -2.9676
   98MOL0     H13203   6.187   9.486   2.713  2.2999  2.2428 -2.0876
   98MOL0     H13204   5.927   9.612   2.619  0.0451 -0.0076  1.3116
   98MOL0     H13205   5.987   9.451   2.592 -1.5636  1.5423 -4.0482
   98MOL0     H13206   6.087   9.716   2.463  2.7620  0.0536 -3.4264
   98MOL0     H13207   6.186   9.578   2.473 -0.5870  0.3073 -1.4359
   98MOL0     H13208   6.010   9.444   2.330  1.2988 -0.6381  0.6205
   98MOL0     H13209   6.069   9.586   2.250  1.0857  0.3589  1.9836
   98MOL0     H13210   5.866   9.705   2.313 -0.0381  0.3250 -0.8186
   98MOL0     H13211   5.807   9.568   2.403  0.9281  0.9813  0.4864
   98MOL0     H13212   5.843   9.369   3.219 -1.8492 -0.1788 -0.9101
   98MOL0     H13213   5.670   9.383   3.383  0.8266 -0.9180  0.0045
   98MOL0     H13214   5.463   9.463   3.700 -2.0049 -0.2808  2.1814
   98MOL0     H13215   5.266   9.371   3.794  0.4688  1.6409  0.7932
   98MOL0     H13216   3.873  10.072   3.059  0.8659 -0.6729  0.0230
   98MOL0     H13217   3.660  10.075   2.970  2.1844  0.2343 -0.2928
   98MOL0     H13218   3.247  10.204   2.860  2.5142 -1.6886  6.2506
   98MOL0     H13219   3.063  10.205   2.713  2.2926  0.9516  0.0799
   98MOL0     H13220   2.733   9.936   2.575 -0.6015  0.3304  0.6475
   98MOL0     H13221   2.853   9.811   2.591  2.4447  1.6636 -0.5691
   98MOL0     H13222   2.841   9.864   2.848  0.8631  0.4271 -0.6401
   98MOL0     H13223   2.720   9.756   2.769 -0.4694  0.0038  2.3200
   98MOL0     H13224   2.590   9.968   2.729 -0.5128  2.9375  1.1424
   98MOL0     H13225   2.704  10.057   2.815  0.4156 -0.6350  0.2881
   98MOL0     H13226   2.667   9.946   3.029 -0.3551 -0.6189 -0.1122
   98MOL0     H13227   2.559   9.832   2.952  0.5004 -0.1742 -0.3150
   98MOL0     H13228   2.316  10.177   3.061  0.3679  1.3987 -2.0672
   98MOL0     H13229   3.033   9.784   2.747 -2.9767  1.4619  3.2410
   98MOL0     H13230   3.254   9.785   2.893 -0.8325  0.6086  1.2145
   99MOL0     O13231   5.535   5.050   1.445 -0.4620 -0.2611 -0.0628
   99MOL0     C13232   5.643   5.022   1.386 -1.0187  0.3496 -0.3840
   99MOL0     O13233   5.666   5.050   1.263  0.6562  0.4232  0.0424
   99MOL0     C13234   5.577   5.123   1.185 -0.5482  0.4049  0.3931
   99MOL0     C13235   5.605   5.262   1.160 -0.5043  0.4701 -0.3771
   99MOL0     C13236   5.514   5.338   1.078  0.1136  0.4470 -0.4062
   99MOL0     C13237   5.420   5.272   1.010 -1.2969  0.6274  0.8206
   99MOL0     O13238   5.356   5.352   0.916  0.5912 -1.2401 -0.2864
   99MOL0     C13239   5.213   5.357   0.945 -0.1865  0.3078  0.0175
   99MOL0     C13240   5.174   5.495   0.896 -0.0730  0.7856 -0.2390
   99MOL0     C13241   5.115   5.503   0.756  0.7080  0.5079 -0.5230
   99MOL0     C13242   5.084   5.640   0.707 -0.3877  0.6015  0.7255
   99MOL0     C13243   5.021   5.645   0.566  0.6084 -0.0034  0.5849
   99MOL0     C13244   4.908   5.565   0.531 -0.9002 -0.0448  0.5237
   99MOL0     C13245   4.885   5.570   0.382  0.9960  0.1721 -0.3204
   99MOL0     C13246   4.750   5.646   0.356 -0.9514  0.4572  0.1922
   99MOL0     N13247   4.628   5.568   0.389 -0.5219 -0.9993  0.1487
   99MOL0     C13248   4.564   5.469   0.323 -0.1250 -0.2273 -0.0730
   99MOL0     C13249   4.473   5.422   0.408 -0.3685  0.4840  1.1691
   99MOL0     C13250   4.363   5.324   0.377  0.9128  0.4358  0.7964
   99MOL0     C13251   4.276   5.355   0.261  0.5889  0.8972 -0.5219
   99MOL0     C13252   4.152   5.271   0.253  0.4455  1.2323 -0.5350
   99MOL0     C13253   4.070   5.307   0.133 -0.5130 -0.1355  0.1493
   99MOL0     O13254   4.011   5.187   0.082 -0.5869  0.5991  0.0332
   99MOL0     C13255   3.885   5.190   0.031  0.7211 -0.2774 -0.4490
   99MOL0     C13256   3.805   5.300   0.013 -0.3995 -0.2771  1.0517
   99MOL0     C13257   3.674   5.283  -0.035 -0.3136  0.4538  0.0236
   99MOL0     C13258   3.594   5.406  -0.056 -1.0800 -0.1833 -0.5314
   99MOL0     C13259   3.628   5.152  -0.077  1.0497  0.1389 -0.8543
   99MOL0     C13260   3.493   5.115  -0.110  0.3078  0.3359 -0.5319
   99MOL0     O13261   3.470   5.016  -0.203 -0.4103  0.1400 -0.0226
   99MOL0     C13262   3.341   4.984  -0.238  0.3744 -0.4922  0.6676
   99MOL0     C13263   3.302   4.849  -0.246 -0.2219 -0.0121 -0.2607
   99MOL0     C13264   3.176   4.802  -0.282  0.8719 -1.0746 -0.8253
   99MOL0     C13265   3.076   4.892  -0.321  0.1162 -0.1956 -0.0356
   99MOL0     O13266   2.962   4.840  -0.361  0.5197  0.4143  0.2517
   99MOL0     C13267   2.834   4.901  -0.322  0.9372  0.8806 -0.1366
   99MOL0     C13268   2.731   4.808  -0.380  0.4981 -0.7382  0.0200
   99MOL0     C13269   2.583   4.856  -0.355 -0.1971  0.4597 -0.5122
   99MOL0     C13270   2.477   4.793  -0.443 -0.2624  0.0337 -0.7699
   99MOL0     C13271   2.344   4.821  -0.379 -0.0446  0.3154 -0.1285
   99MOL0     C13272   2.242   4.755  -0.464  0.7244  0.1425  0.0922
   99MOL0     C13273   2.214   4.839  -0.592  0.2901  0.6634  0.0778
   99MOL0     C13274   2.072   4.891  -0.601  0.5188 -0.0771 -0.5407
   99MOL0    Cl13275   2.051   5.019  -0.473 -0.3128 -0.1717  0.1136
   99MOL0     C13276   3.118   5.027  -0.315  0.1466 -0.0037 -0.9171
   99MOL0     C13277   3.240   5.073  -0.267  1.4876  0.5796 -0.5868
   99MOL0     O13278   3.399   5.175  -0.049  0.3075  0.0140 -0.2497
   99MOL0     C13279   3.707   5.040  -0.062  0.6480 -0.3563  0.5151
   99MOL0     C13280   3.834   5.060  -0.004  0.6841  1.0381 -1.2613
   99MOL0     N13281   4.484   5.500   0.530  0.1599 -0.4017 -0.2057
   99MOL0     N13282   4.573   5.597   0.515  0.0494  0.1161 -0.2186
   99MOL0     C13283   5.390   5.134   1.038  0.4752  0.0666  0.0794
   99MOL0     C13284   5.467   5.065   1.129  0.4912  0.1399 -0.7308
   99MOL0     C13285   5.758   4.956   1.455  0.1231  0.0283  0.5647
   99MOL0     C13286   5.893   4.962   1.407 -0.3120 -0.0069 -0.7579
   99MOL0     C13287   5.986   4.907   1.489 -0.2018 -0.4602  0.3420
   99MOL0     C13288   5.964   4.833   1.606 -0.0634 -1.0576  0.1959
   99MOL0     O13289   6.068   4.783   1.682  0.9630  0.0498  0.5342
   99MOL0     C13290   6.044   4.764   1.826  0.0553 -0.3824  0.0195
   99MOL0     C13291   6.095   4.890   1.892 -0.0535 -1.2993  0.3784
   99MOL0     C13292   6.119   4.876   2.040  0.1224  0.0657  0.1341
   99MOL0     C13293   6.188   5.004   2.092  0.6327  0.0455  0.0371
   99MOL0     C13294   6.088   5.112   2.071 -0.8523  0.2569 -0.7320
   99MOL0     C13295   6.002   5.194   2.066 -0.4998 -0.0296 -0.6123
   99MOL0     C13296   5.835   4.824   1.643  0.1258 -0.2833 -1.0836
   99MOL0     C13297   5.726   4.885   1.574 -1.0382 -0.4489 -0.8714
   99MOL0     H13298   5.688   5.312   1.208 -0.7126 -0.7509  1.3857
   99MOL0     H13299   5.537   5.443   1.062 -0.7803  0.5810 -0.8931
   99MOL0     H13300   5.162   5.277   0.890  1.1005 -1.3930  1.2000
   99MOL0     H13301   5.190   5.347   1.052  0.8268 -1.7216  0.0874
   99MOL0     H13302   5.090   5.527   0.959 -0.1778  0.4752 -0.2201
   99MOL0     H13303   5.257   5.565   0.906 -0.5887  1.2270  1.2266
   99MOL0     H13304   5.188   5.458   0.687  3.1356  3.0983  0.1747
   99MOL0     H13305   5.034   5.430   0.747  0.7470  0.1974  1.2983
   99MOL0     H13306   5.015   5.675   0.783 -0.5248  1.8444  0.0490
   99MOL0     H13307   5.177   5.697   0.703 -1.3542  2.1769 -0.6798
   99MOL0     H13308   4.988   5.749   0.557  3.0536  0.7467 -0.3981
   99MOL0     H13309   5.100   5.617   0.496 -3.2996 -1.8079 -3.6304
   99MOL0     H13310   4.940   5.463   0.553  2.5754  0.4567 -1.5191
   99MOL0     H13311   4.816   5.600   0.579 -0.8448  2.2301 -0.8919
   99MOL0     H13312   4.964   5.620   0.326  0.9820 -0.4073 -0.8637
   99MOL0     H13313   4.877   5.467   0.344  1.2706 -0.1108  0.3693
   99MOL0     H13314   4.741   5.652   0.248 -2.5433  0.7883  0.3175
   99MOL0     H13315   4.751   5.744   0.406 -1.8617  0.2372  0.6651
   99MOL0     H13316   4.586   5.424   0.227 -0.9905  0.8102 -0.7802
   99MOL0     H13317   4.410   5.227   0.360 -3.3855 -1.5129 -1.6454
   99MOL0     H13318   4.300   5.322   0.467  0.9202 -0.7681  0.7970
   99MOL0     H13319   4.331   5.344   0.168 -0.6350 -2.6380 -0.9579
   99MOL0     H13320   4.232   5.456   0.261 -0.4614  0.4506 -1.2066
   99MOL0     H13321   4.102   5.284   0.350  2.7491  1.8182  0.6543
   99MOL0     H13322   4.193   5.172   0.234  2.1622  1.8029 -0.0687
   99MOL0     H13323   4.138   5.362   0.068  1.7060 -1.2068  1.4353
   99MOL0     H13324   4.002   5.378   0.180  2.2475  1.1922  2.5097
   99MOL0     H13325   3.845   5.399   0.034 -1.7169  0.7988 -1.1245
   99MOL0     H13326   3.567   5.436   0.046 -0.0083 -1.7635  0.2536
   99MOL0     H13327   3.658   5.487  -0.091  1.8688 -0.4258  3.5868
   99MOL0     H13328   3.499   5.388  -0.108 -1.5049 -0.9135  0.4624
   99MOL0     H13329   3.382   4.777  -0.231  0.2838  0.6040  0.0577
   99MOL0     H13330   3.156   4.695  -0.283 -1.3627 -0.7605  1.0736
   99MOL0     H13331   2.819   4.907  -0.214 -0.9868  1.5885 -0.3845
   99MOL0     H13332   2.816   5.000  -0.365  1.0031  1.2330  0.6428
   99MOL0     H13333   2.744   4.811  -0.489  3.4616  0.3732  0.3166
   99MOL0     H13334   2.747   4.708  -0.339 -2.2083 -1.2422  0.0761
   99MOL0     H13335   2.585   4.965  -0.364  0.4150  0.4982  0.0683
   99MOL0     H13336   2.546   4.844  -0.253 -2.6079  0.3650 -1.3250
   99MOL0     H13337   2.484   4.821  -0.549 -2.2806  0.1617 -0.9152
   99MOL0     H13338   2.494   4.685  -0.438  0.5669  0.0915 -1.9572
   99MOL0     H13339   2.321   4.928  -0.371 -0.0137  0.3925 -0.9675
   99MOL0     H13340   2.336   4.775  -0.280 -0.8009  1.0218  0.1491
   99MOL0     H13341   2.275   4.653  -0.483  2.0061  1.0141 -2.9420
   99MOL0     H13342   2.144   4.747  -0.417 -0.7447  0.5152 -2.7010
   99MOL0     H13343   2.235   4.778  -0.681 -0.5668 -0.4055  0.5806
   99MOL0     H13344   2.290   4.917  -0.601  3.0288 -1.6048  1.8138
   99MOL0     H13345   2.003   4.807  -0.595  1.9845 -1.2599  0.4094
   99MOL0     H13346   2.059   4.949  -0.693 -3.1036  2.4915  1.3576
   99MOL0     H13347   3.054   5.114  -0.326 -0.9202 -0.8575 -1.6752
   99MOL0     H13348   3.251   5.181  -0.264 -0.2299  0.8638 -2.2002
   99MOL0     H13349   3.669   4.945  -0.098 -1.3192  1.6835 -3.4496
   99MOL0     H13350   3.888   4.968   0.014 -2.9584 -1.4050 -1.6640
   99MOL0     H13351   5.303   5.083   0.999  2.8054 -1.1328 -4.2592
   99MOL0     H13352   5.446   4.963   1.158  0.1343  0.8136  1.5771
   99MOL0     H13353   5.932   5.006   1.316  1.7209  1.4136  0.7108
   99MOL0     H13354   6.092   4.924   1.472 -0.0486 -2.4001 -0.8870
   99MOL0     H13355   5.939   4.752   1.855 -0.5178  1.3736 -1.1836
   99MOL0     H13356   6.106   4.683   1.866 -0.6848 -1.7132 -1.4285
   99MOL0     H13357   6.009   4.955   1.874 -0.4031 -2.0178 -0.6707
   99MOL0     H13358   6.179   4.927   1.834 -1.5937 -1.0030 -1.7609
   99MOL0     H13359   6.166   4.782   2.072  0.3170  0.1279  0.0363
   99MOL0     H13360   6.017   4.860   2.076  0.4685 -3.0123  0.0014
   99MOL0     H13361   6.278   5.028   2.034  0.0655  0.2425 -0.7755
   99MOL0     H13362   6.204   4.995   2.200 -0.9015 -2.6013  0.1011
   99MOL0     H13363   5.928   5.271   2.068 -0.2326  0.3074  2.9304
   99MOL0     H13364   5.808   4.775   1.736  0.1179  1.2280 -0.2406
   99MOL0     H13365   5.624   4.878   1.609 -0.2527 -0.6823  1.5248
  100MOL0     O13366   9.212   3.350   2.184  0.0797  0.1802  0.1458
  100MOL0     C13367   9.196   3.474   2.194 -0.9149 -0.0169  0.4771
  100MOL0     O13368   9.095   3.542   2.263  1.1576  0.3262 -0.5752
  100MOL0     C13369   8.985   3.463   2.297  0.2201 -0.4202  0.0774
  100MOL0     C13370   8.903   3.410   2.199 -0.1256  0.2696  0.2467
  100MOL0     C13371   8.793   3.340   2.238  0.3847  0.3519 -0.3886
  100MOL0     C13372   8.757   3.336   2.373 -0.1089 -0.0048  0.0011
  100MOL0     O13373   8.654   3.261   2.424  0.1849  0.0092  0.0000
  100MOL0     C13374   8.550   3.224   2.333 -0.2744  0.0076  0.3990
  100MOL0     C13375   8.422   3.164   2.408  0.7550  0.5414 -0.6453
  100MOL0     C13376   8.460   3.020   2.461  0.3933 -0.1192  0.1217
  100MOL0     C13377   8.331   2.942   2.485  0.5305 -0.6105 -0.3242
  100MOL0     C13378   8.349   2.800   2.545  0.9032 -0.3595 -0.4933
  100MOL0     C13379   8.206   2.737   2.554 -0.0052 -0.2644  0.0168
  100MOL0     C13380   8.204   2.617   2.651 -0.9992  0.3524  0.0297
  100MOL0     C13381   8.064   2.560   2.656 -0.3271 -1.2136  0.1420
  100MOL0     N13382   8.047   2.426   2.707  0.7261  0.2010 -0.1263
  100MOL0     C13383   8.045   2.386   2.838  0.0381 -0.5076 -0.4327
  100MOL0     C13384   8.047   2.243   2.830  0.3566  0.1029 -0.4242
  100MOL0     C13385   8.057   2.149   2.947  0.9950  0.2938 -0.7449
  100MOL0     C13386   7.929   2.131   3.036 -0.1992 -0.5473  0.4742
  100MOL0     C13387   7.801   2.075   2.958 -0.0090 -0.2312  0.6517
  100MOL0     C13388   7.812   1.944   2.874 -1.4814 -0.2923  0.4212
  100MOL0     O13389   7.844   1.833   2.958 -0.6298  0.1870 -0.3570
  100MOL0     C13390   7.747   1.770   3.037  0.1595 -0.7551 -0.3232
  100MOL0     C13391   7.609   1.789   3.041 -0.5879 -0.1568 -0.2714
  100MOL0     C13392   7.521   1.716   3.127 -0.5565  0.1213  0.1357
  100MOL0     C13393   7.376   1.725   3.098 -0.4376 -0.2135  0.5445
  100MOL0     C13394   7.584   1.620   3.215 -0.1525  0.6361  0.1402
  100MOL0     C13395   7.505   1.534   3.304 -0.7414 -0.7053 -1.1690
  100MOL0     O13396   7.535   1.411   3.323 -0.6276 -0.5696  0.0587
  100MOL0     C13397   7.469   1.346   3.425  0.4309  0.2091 -0.1276
  100MOL0     C13398   7.503   1.370   3.566 -0.4409 -0.1229  0.5238
  100MOL0     C13399   7.430   1.291   3.654 -0.4483 -0.6619  0.5788
  100MOL0     C13400   7.355   1.182   3.614 -0.3489 -0.6449  0.3394
  100MOL0     O13401   7.303   1.105   3.717 -0.9077  0.5993  0.5091
  100MOL0     C13402   7.188   1.011   3.695 -0.7506  0.1524 -1.1672
  100MOL0     C13403   7.248   0.871   3.699  0.1291 -0.9791  0.4686
  100MOL0     C13404   7.195   0.791   3.820 -0.0466  0.7649  0.6700
  100MOL0     C13405   7.326   0.748   3.895  1.3344 -0.2453 -0.3560
  100MOL0     C13406   7.298   0.694   4.027 -0.1337 -0.2958 -0.0738
  100MOL0     C13407   7.425   0.644   4.096  0.4030 -0.4548  0.3644
  100MOL0     C13408   7.410   0.624   4.247  0.1462 -0.8178  0.1870
  100MOL0     C13409   7.312   0.517   4.288 -0.1224 -0.0766  0.2617
  100MOL0    Cl13410   7.373   0.347   4.265 -0.0742  0.2352  0.5252
  100MOL0     C13411   7.317   1.171   3.477  0.0207  0.2899 -0.2496
  100MOL0     C13412   7.382   1.255   3.381  0.4675  0.1869 -0.9478
  100MOL0     O13413   7.430   1.599   3.378  0.1545 -0.2769 -0.4366
  100MOL0     C13414   7.721   1.602   3.207 -0.4172 -0.7788  0.1777
  100MOL0     C13415   7.798   1.669   3.114 -0.5809 -0.6950 -0.5842
  100MOL0     N13416   8.034   2.204   2.701  0.4990  0.0610  0.6193
  100MOL0     N13417   8.051   2.313   2.627 -0.2296  0.1326  0.1127
  100MOL0     C13418   8.843   3.400   2.471  0.1733  0.3852  0.1390
  100MOL0     C13419   8.968   3.450   2.434 -0.1382 -0.0220 -0.1067
  100MOL0     C13420   9.317   3.554   2.165 -0.6060  0.0338  0.3788
  100MOL0     C13421   9.317   3.690   2.194  0.5277  0.3944 -0.4904
  100MOL0     C13422   9.436   3.770   2.186  0.0383  0.6141  0.9097
  100MOL0     C13423   9.556   3.705   2.132 -0.5216  0.1816  0.8651
  100MOL0     O13424   9.669   3.774   2.102  0.4067 -0.2456 -0.5248
  100MOL0     C13425   9.753   3.755   1.989  0.3324  0.6675 -0.5987
  100MOL0     C13426   9.727   3.850   1.877 -0.4591  0.2501  0.0779
  100MOL0     C13427   9.739   4.000   1.913 -0.2745  0.5822 -0.1132
  100MOL0     C13428   9.880   4.052   1.953 -0.1389  0.0243  0.1405
  100MOL0     C13429   9.949   4.002   2.065 -0.1805  0.3941 -1.2073
  100MOL0     C13430   9.991   3.965   2.176 -0.2359  0.2772 -0.1802
  100MOL0     C13431   9.546   3.562   2.095  0.8184  0.9753 -0.5981
  100MOL0     C13432   9.432   3.489   2.120  0.3783  1.0094 -1.0726
  100MOL0     H13433   8.920   3.416   2.092 -0.9707 -0.5460  0.0482
  100MOL0     H13434   8.738   3.289   2.159 -1.4696  2.2714 -0.4350
  100MOL0     H13435   8.508   3.308   2.277 -0.6868 -0.2696  0.2843
  100MOL0     H13436   8.576   3.157   2.251 -3.0048 -2.4172  1.3098
  100MOL0     H13437   8.402   3.236   2.488 -0.9949 -0.6267  0.0222
  100MOL0     H13438   8.334   3.155   2.344  0.0733  1.7261  0.0869
  100MOL0     H13439   8.527   2.984   2.383 -0.2972  0.4185 -0.7381
  100MOL0     H13440   8.507   3.013   2.560  0.2880  1.0864  0.2653
  100MOL0     H13441   8.268   3.005   2.548  0.2597 -0.1326 -1.0659
  100MOL0     H13442   8.275   2.926   2.393 -2.3911 -3.3511  1.7184
  100MOL0     H13443   8.403   2.725   2.487 -4.9463 -3.4103 -2.8480
  100MOL0     H13444   8.392   2.814   2.645  1.3078 -1.0309 -0.5722
  100MOL0     H13445   8.129   2.808   2.585 -0.4457 -0.2234 -1.1279
  100MOL0     H13446   8.162   2.711   2.457  0.3542  0.3543 -0.3205
  100MOL0     H13447   8.278   2.547   2.611 -3.8382 -1.3346 -2.7452
  100MOL0     H13448   8.239   2.661   2.745  4.0774 -1.6497 -0.5997
  100MOL0     H13449   8.029   2.562   2.553  2.1763  2.5937 -0.8327
  100MOL0     H13450   8.000   2.634   2.705 -0.4388 -1.4112  0.2964
  100MOL0     H13451   8.035   2.451   2.924  1.5858 -0.0125 -0.6148
  100MOL0     H13452   8.079   2.052   2.902 -0.7475 -0.4326 -0.1115
  100MOL0     H13453   8.137   2.192   3.008 -2.3582  4.2708  1.4707
  100MOL0     H13454   7.894   2.230   3.068  0.2778 -0.9717  2.5046
  100MOL0     H13455   7.934   2.077   3.131 -1.6894  2.4710  2.4172
  100MOL0     H13456   7.771   2.158   2.893  2.5746 -2.3871 -3.7396
  100MOL0     H13457   7.723   2.049   3.031  0.6334 -1.0937  1.0468
  100MOL0     H13458   7.893   1.955   2.801 -2.2194 -0.6563 -0.4708
  100MOL0     H13459   7.719   1.920   2.823 -3.2161 -1.5360  3.8233
  100MOL0     H13460   7.575   1.871   2.979 -0.8734 -1.2104 -1.5411
  100MOL0     H13461   7.325   1.629   3.100  0.2015 -0.6956 -2.3927
  100MOL0     H13462   7.343   1.780   3.187  1.9269 -0.5331  1.7057
  100MOL0     H13463   7.349   1.784   3.010 -0.4626  2.8502  2.4579
  100MOL0     H13464   7.574   1.447   3.592  0.8130  0.0019 -2.8060
  100MOL0     H13465   7.443   1.313   3.759  0.2122  1.0996  0.1653
  100MOL0     H13466   7.121   1.015   3.782 -0.4762 -1.2460 -0.8572
  100MOL0     H13467   7.141   1.026   3.597  2.9736  0.0562 -3.1143
  100MOL0     H13468   7.220   0.819   3.607  0.2166  1.1024 -0.8030
  100MOL0     H13469   7.357   0.881   3.687 -0.2405  2.5625 -1.5867
  100MOL0     H13470   7.138   0.709   3.776  0.3086 -1.0334  3.3305
  100MOL0     H13471   7.130   0.851   3.884  0.4101  2.4972 -0.4015
  100MOL0     H13472   7.385   0.673   3.841  4.5659  2.7666 -1.3635
  100MOL0     H13473   7.391   0.834   3.913  1.0751 -0.6851  3.7362
  100MOL0     H13474   7.215   0.623   4.023 -2.5662  2.3752 -0.9300
  100MOL0     H13475   7.253   0.774   4.088 -0.6901 -0.1870 -0.6099
  100MOL0     H13476   7.442   0.544   4.055 -1.7570 -0.9699  0.6137
  100MOL0     H13477   7.513   0.703   4.067 -0.6869  0.1995 -1.8710
  100MOL0     H13478   7.380   0.721   4.287 -1.0487 -0.7198 -0.8460
  100MOL0     H13479   7.506   0.599   4.292  0.9769  2.8488  0.7249
  100MOL0     H13480   7.223   0.538   4.227 -0.0702  0.0428  0.2260
  100MOL0     H13481   7.274   0.524   4.390 -1.2929  1.5718 -0.2465
  100MOL0     H13482   7.263   1.084   3.442 -3.8838  2.0934  0.7956
  100MOL0     H13483   7.347   1.252   3.279 -0.9958  2.5126 -0.5829
  100MOL0     H13484   7.763   1.525   3.272 -0.0456 -2.7132 -2.1961
  100MOL0     H13485   7.906   1.655   3.111 -0.3260  0.8299  0.5225
  100MOL0     H13486   8.821   3.379   2.576  0.6340 -0.1192  0.1379
  100MOL0     H13487   9.040   3.476   2.511  0.3705 -0.3339 -0.4706
  100MOL0     H13488   9.230   3.745   2.227  0.3499 -1.7143  3.0692
  100MOL0     H13489   9.436   3.878   2.195  0.6579  1.0992 -3.2290
  100MOL0     H13490   9.858   3.767   2.020 -0.1940 -1.3505  2.3606
  100MOL0     H13491   9.750   3.651   1.958 -1.5672  0.1051  1.2403
  100MOL0     H13492   9.623   3.830   1.852 -0.2723 -0.7509  0.0476
  100MOL0     H13493   9.796   3.824   1.796 -1.7428  0.4433 -1.1156
  100MOL0     H13494   9.677   4.013   2.003  0.1689 -2.0128  0.6458
  100MOL0     H13495   9.706   4.053   1.823 -2.5721 -2.2449 -1.0707
  100MOL0     H13496   9.859   4.159   1.967  1.1079  0.5128 -1.4071
  100MOL0     H13497   9.941   4.059   1.862 -2.2268 -1.2871 -1.4386
  100MOL0     H13498  10.020   3.929   2.272 -1.6525 -1.0527 -0.2259
  100MOL0     H13499   9.626   3.501   2.054 -0.0713 -0.5152 -0.2089
  100MOL0     H13500   9.434   3.383   2.098  0.5049  0.5385  0.9998
  101MOL0     O13501   1.269   2.789   2.375  0.2865  0.0079  0.0558
  101MOL0     C13502   1.266   2.702   2.286 -0.4109  0.2684 -0.6347
  101MOL0     O13503   1.375   2.649   2.224 -0.3116 -0.1555 -1.3482
  101MOL0     C13504   1.500   2.694   2.235  0.4194 -0.5570  0.4367
  101MOL0     C13505   1.573   2.730   2.341  0.2699 -0.2421  0.7297
  101MOL0     C13506   1.715   2.763   2.325 -0.1425 -0.8324 -0.6291
  101MOL0     C13507   1.787   2.756   2.208 -0.0847 -0.0381  0.1476
  101MOL0     O13508   1.925   2.772   2.189  1.0924  0.1364 -0.0288
  101MOL0     C13509   1.993   2.860   2.273 -0.9729  0.0351 -0.3935
  101MOL0     C13510   2.127   2.924   2.225 -0.3393 -0.9188 -0.9089
  101MOL0     C13511   2.111   2.983   2.082  0.4138  0.8439  0.3150
  101MOL0     C13512   2.241   3.034   2.037 -0.3295 -0.7199 -0.4895
  101MOL0     C13513   2.220   3.117   1.907  0.1293 -0.5848  0.0914
  101MOL0     C13514   2.130   3.240   1.918 -0.3200  0.1716  0.8299
  101MOL0     C13515   2.162   3.334   1.791  0.7735  0.5523 -0.1439
  101MOL0     C13516   2.068   3.460   1.808  0.1565  0.5408  0.0480
  101MOL0     N13517   2.101   3.553   1.920 -0.2169  0.4656  0.9919
  101MOL0     C13518   2.215   3.633   1.926  0.3286 -0.4097 -0.8603
  101MOL0     C13519   2.230   3.673   2.059 -0.2659 -0.5535 -0.6684
  101MOL0     C13520   2.352   3.748   2.108 -1.2900 -0.1131 -0.1850
  101MOL0     C13521   2.464   3.658   2.160 -0.1241 -1.8870 -0.5762
  101MOL0     C13522   2.428   3.550   2.267 -1.0534 -0.3418  0.1284
  101MOL0     C13523   2.389   3.417   2.208  0.3437  0.5799  0.4291
  101MOL0     O13524   2.395   3.307   2.295 -0.9123  0.4234 -0.6191
  101MOL0     C13525   2.276   3.284   2.377 -0.2498 -0.1412 -1.0786
  101MOL0     C13526   2.295   3.207   2.496 -0.1091 -0.6260 -0.1515
  101MOL0     C13527   2.195   3.147   2.576 -0.2302 -0.7102  0.8808
  101MOL0     C13528   2.230   3.052   2.684  0.6379  0.0814 -0.1196
  101MOL0     C13529   2.060   3.176   2.542 -0.4190 -0.6838  0.4175
  101MOL0     C13530   1.935   3.120   2.616  0.5076 -0.3348  0.1080
  101MOL0     O13531   1.849   3.049   2.541  0.0626 -0.1265  1.3185
  101MOL0     C13532   1.747   2.982   2.604  0.0821  0.9982 -0.1921
  101MOL0     C13533   1.622   3.011   2.553 -0.0827  0.1322 -0.2327
  101MOL0     C13534   1.505   2.943   2.600 -0.7039  0.1770 -0.4257
  101MOL0     C13535   1.517   2.845   2.701 -0.4329 -0.1084 -0.0624
  101MOL0     O13536   1.414   2.777   2.755  0.0717  0.9791  0.3729
  101MOL0     C13537   1.288   2.849   2.745 -0.0453 -0.0768  0.4456
  101MOL0     C13538   1.164   2.779   2.813  0.2899 -0.8002  0.5788
  101MOL0     C13539   1.162   2.622   2.821  0.1818  0.0409 -0.2504
  101MOL0     C13540   1.138   2.554   2.686 -0.1120 -0.5568 -0.4785
  101MOL0     C13541   1.112   2.405   2.691  0.4993  0.6946 -0.7258
  101MOL0     C13542   1.116   2.341   2.554 -0.1329  0.4580  0.3871
  101MOL0     C13543   1.101   2.189   2.573 -0.7632  0.2335 -0.5377
  101MOL0     C13544   1.093   2.124   2.439  0.1244  0.4852  0.2521
  101MOL0    Cl13545   1.083   1.946   2.443  0.2312 -0.0795 -0.2073
  101MOL0     C13546   1.641   2.822   2.762  0.1294  0.4115 -0.0718
  101MOL0     C13547   1.750   2.890   2.713  0.0399  0.3433  1.1491
  101MOL0     O13548   1.934   3.131   2.737 -0.2484 -0.0553  0.0560
  101MOL0     C13549   2.041   3.259   2.428  0.4417  0.0768 -0.9208
  101MOL0     C13550   2.144   3.319   2.354 -0.2650 -0.5902 -0.0710
  101MOL0     N13551   2.131   3.609   2.130 -0.7994 -0.8399  0.6104
  101MOL0     N13552   2.062   3.532   2.055 -0.4014  0.4252  0.1992
  101MOL0     C13553   1.721   2.694   2.101 -0.6502  0.0413  0.0278
  101MOL0     C13554   1.581   2.674   2.112  0.1235 -0.0806  0.0675
  101MOL0     C13555   1.136   2.637   2.252 -0.6092 -1.2061  0.6660
  101MOL0     C13556   1.123   2.544   2.147 -0.1998  0.2120  0.3579
  101MOL0     C13557   0.998   2.491   2.106 -0.1713  0.7317  0.3494
  101MOL0     C13558   0.885   2.516   2.188 -0.3254  0.1112 -0.6782
  101MOL0     O13559   0.758   2.470   2.156  0.7561 -0.0457  0.0609
  101MOL0     C13560   0.660   2.432   2.260  0.2019 -0.0642  0.0266
  101MOL0     C13561   0.727   2.324   2.359  0.0456  1.2141  0.7538
  101MOL0     C13562   0.635   2.297   2.489  0.3833 -0.0450 -0.0390
  101MOL0     C13563   0.678   2.374   2.620  0.2103  0.2941  0.7414
  101MOL0     C13564   0.670   2.523   2.602  0.1315 -0.0154  0.6217
  101MOL0     C13565   0.655   2.645   2.586  0.0891 -0.6528  0.8346
  101MOL0     C13566   0.910   2.581   2.310  0.2656  0.3787  0.7949
  101MOL0     C13567   1.028   2.644   2.339  0.0695 -0.3463  0.9041
  101MOL0     H13568   1.511   2.729   2.431 -2.7881  0.4346 -1.2212
  101MOL0     H13569   1.768   2.777   2.418  0.6270 -1.8709 -0.9014
  101MOL0     H13570   1.934   2.948   2.300 -0.4255 -0.4444  2.6401
  101MOL0     H13571   2.007   2.805   2.366  0.6372 -1.2705 -1.3430
  101MOL0     H13572   2.171   3.002   2.287  2.1280 -1.4880 -1.8266
  101MOL0     H13573   2.199   2.842   2.226  2.8184  1.6148  1.5251
  101MOL0     H13574   2.079   2.913   2.004  0.6424  1.4727 -0.3552
  101MOL0     H13575   2.026   3.052   2.075 -0.6152 -0.5510 -3.3201
  101MOL0     H13576   2.285   3.099   2.113 -1.0306  1.9580 -2.2392
  101MOL0     H13577   2.297   2.941   2.026  0.0612 -0.2806 -2.8109
  101MOL0     H13578   2.324   3.143   1.882 -0.2972  0.7017 -0.4575
  101MOL0     H13579   2.188   3.061   1.820 -0.5191  0.5469 -0.4240
  101MOL0     H13580   2.024   3.214   1.915 -0.3260  0.1075 -2.3550
  101MOL0     H13581   2.153   3.295   2.009 -0.5133  0.7576  0.5300
  101MOL0     H13582   2.267   3.363   1.795  1.6450 -2.3844  2.5955
  101MOL0     H13583   2.147   3.276   1.699  1.0246 -0.7826  0.6247
  101MOL0     H13584   1.965   3.429   1.830  0.6401 -1.1331  0.0327
  101MOL0     H13585   2.076   3.516   1.715 -0.2638  2.1838  0.9646
  101MOL0     H13586   2.295   3.641   1.853 -0.4541 -3.4209 -2.1990
  101MOL0     H13587   2.384   3.823   2.035 -0.0044  0.0258  0.5005
  101MOL0     H13588   2.323   3.812   2.192  1.0318  0.0134  0.5900
  101MOL0     H13589   2.539   3.727   2.197 -0.9994 -0.2422 -1.7312
  101MOL0     H13590   2.519   3.621   2.073  0.9871  0.1050 -0.7690
  101MOL0     H13591   2.348   3.585   2.333 -2.0022 -0.8581 -0.7215
  101MOL0     H13592   2.521   3.535   2.323  0.1440  1.3009 -1.2887
  101MOL0     H13593   2.451   3.398   2.121 -2.4646  0.8661 -1.8051
  101MOL0     H13594   2.295   3.413   2.151  1.4910 -3.4889 -1.5572
  101MOL0     H13595   2.396   3.191   2.531  0.3480 -0.8841 -1.5266
  101MOL0     H13596   2.185   3.097   2.773  0.0756  0.8036 -0.7527
  101MOL0     H13597   2.178   2.959   2.656 -2.0176  1.9753 -1.9936
  101MOL0     H13598   2.339   3.045   2.693  0.6827  0.1336 -0.5734
  101MOL0     H13599   1.628   3.077   2.467 -0.6824 -0.4001 -0.6928
  101MOL0     H13600   1.408   2.959   2.553 -1.3439 -2.0529 -0.0278
  101MOL0     H13601   1.296   2.954   2.777 -1.3393 -1.0577  4.6539
  101MOL0     H13602   1.248   2.851   2.643  0.9611  1.4280  0.0498
  101MOL0     H13603   1.162   2.819   2.915 -0.9791 -0.8172  0.5833
  101MOL0     H13604   1.071   2.819   2.772  0.4313  4.4755  4.3047
  101MOL0     H13605   1.081   2.587   2.887  0.3833 -1.7251 -0.8702
  101MOL0     H13606   1.257   2.580   2.854 -0.0276 -1.0990 -1.0242
  101MOL0     H13607   1.055   2.608   2.639 -1.8641 -0.4004  2.5564
  101MOL0     H13608   1.233   2.576   2.637  0.5340 -1.4207  0.3487
  101MOL0     H13609   1.014   2.387   2.736  1.4152  2.3451  2.1747
  101MOL0     H13610   1.175   2.355   2.765 -1.5703 -1.4710 -0.2766
  101MOL0     H13611   1.038   2.386   2.491  0.4180  0.2393 -0.4712
  101MOL0     H13612   1.200   2.376   2.493  1.5333 -1.3249  1.5732
  101MOL0     H13613   1.007   2.167   2.624 -0.3225 -1.2653 -0.3339
  101MOL0     H13614   1.194   2.155   2.619 -1.1514 -0.5824 -0.3367
  101MOL0     H13615   1.172   2.156   2.370  0.1416 -4.2040 -2.3159
  101MOL0     H13616   0.998   2.161   2.399  0.1911  0.9888  0.5471
  101MOL0     H13617   1.653   2.746   2.839  1.5583 -0.3213 -0.9598
  101MOL0     H13618   1.842   2.872   2.767 -0.1715  0.5975  1.5962
  101MOL0     H13619   1.937   3.274   2.400 -0.3694 -1.4255  0.9673
  101MOL0     H13620   2.115   3.391   2.279 -1.0991  0.4910  1.2483
  101MOL0     H13621   1.774   2.673   2.009  0.1345  1.2171  0.1831
  101MOL0     H13622   1.523   2.635   2.029  0.1877  1.4039 -0.7104
  101MOL0     H13623   1.211   2.521   2.087 -0.2904  1.3224 -0.2121
  101MOL0     H13624   0.990   2.440   2.011 -1.6566 -2.1257  1.8737
  101MOL0     H13625   0.641   2.524   2.316 -0.1036 -0.4275  0.5246
  101MOL0     H13626   0.565   2.404   2.214 -0.5339  1.7472  0.3702
  101MOL0     H13627   0.830   2.343   2.389  0.8623 -1.8066  0.2372
  101MOL0     H13628   0.732   2.229   2.305 -1.7348  0.3011  2.0672
  101MOL0     H13629   0.634   2.189   2.505 -3.3907 -0.0706  0.4350
  101MOL0     H13630   0.531   2.325   2.471  0.8331  0.0816 -2.9740
  101MOL0     H13631   0.782   2.349   2.643  0.4579  0.6850  0.1031
  101MOL0     H13632   0.607   2.335   2.692 -1.6076 -0.3915 -1.3214
  101MOL0     H13633   0.626   2.746   2.567 -2.3621 -1.4783 -0.2287
  101MOL0     H13634   0.824   2.580   2.376 -1.1953 -4.2166 -0.8034
  101MOL0     H13635   1.029   2.702   2.431 -2.0662  1.9709 -0.4164
  102MOL0     O13636   2.346   7.888   4.646 -0.3513  0.2971 -0.7740
  102MOL0     C13637   2.384   7.981   4.575 -0.3719  0.0627  0.5625
  102MOL0     O13638   2.489   8.066   4.609 -0.0363  0.5625 -0.2300
  102MOL0     C13639   2.533   8.049   4.745  0.3871  0.4165 -0.4870
  102MOL0     C13640   2.447   8.095   4.842  0.0945 -1.4732 -0.0861
  102MOL0     C13641   2.498   8.106   4.972 -0.5240 -0.5370  0.5362
  102MOL0     C13642   2.629   8.062   5.001  0.3924  0.2833  0.3029
  102MOL0     O13643   2.689   8.075   5.116  0.4242 -0.2726  0.0109
  102MOL0     C13644   2.711   8.212   5.150 -0.6904 -0.7183 -0.1047
  102MOL0     C13645   2.721   8.219   5.303  0.1726  0.6575 -0.1084
  102MOL0     C13646   2.592   8.208   5.374  0.1576 -0.0070  0.4806
  102MOL0     C13647   2.526   8.348   5.372  0.3957  1.4101 -0.1451
  102MOL0     C13648   2.381   8.334   5.436 -0.0752  0.7876  0.2662
  102MOL0     C13649   2.390   8.262   5.577  0.6673  0.3123  0.5208
  102MOL0     C13650   2.268   8.245   5.659 -0.0637 -0.3377 -0.1515
  102MOL0     C13651   2.289   8.300   5.792 -0.2613 -0.3936  0.4729
  102MOL0     N13652   2.177   8.272   5.886 -0.5130  1.3262  0.6659
  102MOL0     C13653   2.044   8.260   5.850 -0.2386 -0.5471  0.1395
  102MOL0     C13654   1.983   8.192   5.944  0.7118 -0.3500  0.8493
  102MOL0     C13655   1.843   8.152   5.926 -0.2076 -1.4331  0.0408
  102MOL0     C13656   1.751   8.276   5.941  0.0252  1.0264 -1.1503
  102MOL0     C13657   1.733   8.309   6.091  0.2422 -0.1879  0.6039
  102MOL0     C13658   1.850   8.365   6.158 -0.5164 -0.1196  0.0894
  102MOL0     O13659   1.805   8.446   6.263  0.0456  0.5091  0.2615
  102MOL0     C13660   1.897   8.499   6.351 -0.3644  0.1863 -0.3134
  102MOL0     C13661   2.029   8.450   6.371 -0.5484  0.2851 -0.4232
  102MOL0     C13662   2.116   8.522   6.461 -0.5312  1.3986 -0.2456
  102MOL0     C13663   2.264   8.471   6.474  0.7358 -0.3649  0.1910
  102MOL0     C13664   2.073   8.644   6.529 -0.0264  1.3229 -0.1609
  102MOL0     C13665   2.159   8.726   6.612  0.6448  0.1671  0.1220
  102MOL0     O13666   2.267   8.773   6.554  0.4346  0.3210 -0.7745
  102MOL0     C13667   2.334   8.880   6.606 -0.4184  0.4848 -0.1401
  102MOL0     C13668   2.348   8.994   6.523 -0.0393 -0.0248 -0.1649
  102MOL0     C13669   2.410   9.112   6.568  0.8268 -0.2442  0.4316
  102MOL0     C13670   2.456   9.128   6.694 -0.3455 -0.9912  0.3922
  102MOL0     O13671   2.511   9.247   6.742 -0.6097 -0.8075  0.8363
  102MOL0     C13672   2.406   9.340   6.795 -0.1152  0.0877  0.0086
  102MOL0     C13673   2.454   9.479   6.766  0.3231  0.2933  0.7503
  102MOL0     C13674   2.366   9.599   6.828  0.2854 -0.1724  0.1887
  102MOL0     C13675   2.215   9.586   6.819 -0.6712 -0.6993  0.1191
  102MOL0     C13676   2.152   9.723   6.857 -0.3130  0.5114 -0.0604
  102MOL0     C13677   2.007   9.715   6.830 -0.8206  0.3878 -0.9229
  102MOL0     C13678   1.938   9.846   6.856  0.1363  0.4871  0.4495
  102MOL0     C13679   1.800   9.822   6.915  0.1704  1.0658  0.4665
  102MOL0    Cl13680   1.809   9.718   7.061  0.4346  0.6039 -0.1075
  102MOL0     C13681   2.433   9.017   6.781 -0.2353 -0.0690  0.6344
  102MOL0     C13682   2.384   8.886   6.738 -0.4612  0.2674  0.1438
  102MOL0     O13683   2.116   8.745   6.729 -0.2972  0.7427  0.1582
  102MOL0     C13684   1.941   8.686   6.512  0.5644  0.6651  0.9489
  102MOL0     C13685   1.858   8.613   6.428  0.3999  0.4602  0.8348
  102MOL0     N13686   2.074   8.165   6.043 -0.5074 -0.1179 -0.9601
  102MOL0     N13687   2.194   8.213   6.009 -0.1708 -0.3383 -0.5374
  102MOL0     C13688   2.703   7.997   4.909 -0.3870 -0.4811 -0.0900
  102MOL0     C13689   2.658   7.992   4.783  0.2086  0.6150  0.3629
  102MOL0     C13690   2.277   8.030   4.472 -0.2231 -0.5312  0.2391
  102MOL0     C13691   2.154   7.976   4.477  0.3388  0.3073  0.7842
  102MOL0     C13692   2.052   8.020   4.391 -0.1554 -0.0510 -0.4694
  102MOL0     C13693   2.068   8.125   4.302  0.3029  0.0304  0.3597
  102MOL0     O13694   1.961   8.189   4.242  0.4627  0.5115 -0.4995
  102MOL0     C13695   1.853   8.235   4.325 -0.2736 -0.6241 -0.1339
  102MOL0     C13696   1.736   8.279   4.242  0.0525  0.1976  0.1133
  102MOL0     C13697   1.715   8.182   4.108  1.1352 -1.1412 -0.9473
  102MOL0     C13698   1.685   8.041   4.141  0.4152 -0.2081  0.6171
  102MOL0     C13699   1.632   7.970   4.026  0.1192 -0.0357 -0.3028
  102MOL0     C13700   1.576   7.930   3.929 -0.4218  0.3874  0.2767
  102MOL0     C13701   2.199   8.177   4.296  0.4922 -0.8237 -0.5227
  102MOL0     C13702   2.303   8.141   4.386  0.3141 -0.0825 -0.3678
  102MOL0     H13703   2.358   8.153   4.817  0.9509  0.1357  0.4132
  102MOL0     H13704   2.447   8.157   5.054  3.8672  4.9113  0.4950
  102MOL0     H13705   2.807   8.243   5.106  0.0228 -0.8931  1.2829
  102MOL0     H13706   2.635   8.282   5.113 -1.2420 -0.8875  0.6962
  102MOL0     H13707   2.784   8.141   5.347 -0.8054  0.0847  0.2999
  102MOL0     H13708   2.763   8.318   5.324  1.3684  0.6789 -2.2863
  102MOL0     H13709   2.525   8.138   5.324  1.0472 -0.6157  0.1256
  102MOL0     H13710   2.620   8.160   5.468  0.1128 -4.0224 -1.3786
  102MOL0     H13711   2.577   8.424   5.433  0.1103  3.1964 -2.0083
  102MOL0     H13712   2.520   8.394   5.273  0.0984  0.9383 -0.3462
  102MOL0     H13713   2.331   8.431   5.446 -2.8385 -0.6614  2.0997
  102MOL0     H13714   2.316   8.275   5.370 -1.2376 -0.4252  2.3655
  102MOL0     H13715   2.412   8.158   5.552 -3.9922 -1.0544  1.2818
  102MOL0     H13716   2.471   8.309   5.634  0.5739  1.4597 -0.2494
  102MOL0     H13717   2.196   8.308   5.605  2.0620  1.9960 -0.4408
  102MOL0     H13718   2.223   8.145   5.664  1.8138 -1.1999  0.3081
  102MOL0     H13719   2.283   8.409   5.787  3.4202 -0.0333  0.8274
  102MOL0     H13720   2.382   8.260   5.834  0.8263  0.5233 -0.9820
  102MOL0     H13721   2.000   8.306   5.762  0.1990  0.9853  0.6826
  102MOL0     H13722   1.841   8.116   5.822 -1.4475  1.5379 -1.0777
  102MOL0     H13723   1.819   8.076   6.001  4.6728 -0.3410  3.1928
  102MOL0     H13724   1.653   8.248   5.900  0.5969  0.0730 -1.9207
  102MOL0     H13725   1.781   8.364   5.884  0.8019 -1.4261 -4.9021
  102MOL0     H13726   1.708   8.212   6.135 -1.6241 -0.4005 -0.8084
  102MOL0     H13727   1.644   8.368   6.114  0.9345  0.1989  2.5420
  102MOL0     H13728   1.913   8.415   6.084 -3.6537  2.0462 -1.3591
  102MOL0     H13729   1.893   8.279   6.210  1.7285 -0.1325 -1.6152
  102MOL0     H13730   2.072   8.360   6.326 -1.8165 -0.9202  0.6681
  102MOL0     H13731   2.285   8.394   6.399  3.2722  0.2422  0.1980
  102MOL0     H13732   2.338   8.551   6.469 -0.1286  0.4500  0.1370
  102MOL0     H13733   2.269   8.424   6.572 -1.3054 -2.2415 -0.5338
  102MOL0     H13734   2.307   8.972   6.425 -0.7293 -0.3854  0.1939
  102MOL0     H13735   2.432   9.201   6.510  1.3159  1.3047  2.8468
  102MOL0     H13736   2.307   9.339   6.748  1.3467  4.8328 -4.1814
  102MOL0     H13737   2.394   9.325   6.902 -0.7762 -3.3092 -0.4453
  102MOL0     H13738   2.557   9.495   6.800 -0.2332 -0.0158  2.7084
  102MOL0     H13739   2.439   9.496   6.659  1.1927  1.0323  0.7337
  102MOL0     H13740   2.391   9.695   6.782  0.7948  0.4306  1.6649
  102MOL0     H13741   2.397   9.602   6.933  1.2974 -3.6993  0.1315
  102MOL0     H13742   2.182   9.571   6.716  0.7552  0.0691 -0.4893
  102MOL0     H13743   2.169   9.515   6.888 -0.6006 -2.4190 -1.5470
  102MOL0     H13744   2.206   9.802   6.805  1.3730 -0.8431 -0.4492
  102MOL0     H13745   2.171   9.753   6.960  0.4612  1.7997 -0.5525
  102MOL0     H13746   1.982   9.707   6.724 -0.2625 -1.3107 -0.9572
  102MOL0     H13747   1.969   9.621   6.872 -2.5897  0.8734 -1.3572
  102MOL0     H13748   1.933   9.903   6.763  5.5900  1.3999  0.3635
  102MOL0     H13749   2.000   9.905   6.925 -0.1711  0.3899  0.8121
  102MOL0     H13750   1.741   9.782   6.832 -0.8104  2.5594  0.4049
  102MOL0     H13751   1.757   9.921   6.936  1.2727  2.2797 -2.4247
  102MOL0     H13752   2.456   9.018   6.887  0.6400 -3.3985  0.5949
  102MOL0     H13753   2.387   8.801   6.806 -0.0300 -0.6037 -0.9494
  102MOL0     H13754   1.897   8.771   6.563 -2.7387 -0.9060  0.9539
  102MOL0     H13755   1.764   8.664   6.409  2.2498  3.1702 -2.2588
  102MOL0     H13756   2.801   7.958   4.932 -1.5136 -3.1136  0.5757
  102MOL0     H13757   2.702   7.950   4.693 -0.3335  1.2643 -0.2211
  102MOL0     H13758   2.125   7.904   4.553  0.9850 -2.4123 -1.3833
  102MOL0     H13759   1.950   7.990   4.414 -0.3478  0.8262 -0.1536
  102MOL0     H13760   1.823   8.163   4.401  0.0662 -0.4150  0.2043
  102MOL0     H13761   1.894   8.322   4.377  3.5263 -2.1337 -0.3121
  102MOL0     H13762   1.742   8.385   4.212 -0.4842 -0.8972 -4.7983
  102MOL0     H13763   1.645   8.264   4.300 -2.3193 -2.5339 -3.8190
  102MOL0     H13764   1.803   8.184   4.043  1.2833 -3.8246 -0.9318
  102MOL0     H13765   1.631   8.221   4.050 -0.5788  0.5240  2.3869
  102MOL0     H13766   1.612   8.046   4.222 -0.0579 -1.2544  0.2879
  102MOL0     H13767   1.774   7.987   4.175 -1.2431 -3.1464  0.6506
  102MOL0     H13768   1.529   7.883   3.845  4.5213 -1.8010 -1.6613
  102MOL0     H13769   2.234   8.236   4.212 -1.2786  0.4073 -0.4572
  102MOL0     H13770   2.404   8.178   4.379  1.0757 -1.6289  1.6536
  103MOL0     O13771   8.704   7.242   7.144  0.9644  0.6553 -0.1735
  103MOL0     C13772   8.750   7.157   7.220 -1.1511 -0.6293  0.1040
  103MOL0     O13773   8.682   7.068   7.287 -0.5511  0.2962  0.0584
  103MOL0     C13774   8.547   7.050   7.261 -0.6980 -0.1962  0.5389
  103MOL0     C13775   8.468   7.030   7.375  0.3183  0.1150 -0.3049
  103MOL0     C13776   8.323   7.013   7.349 -1.1326 -0.1488  0.3889
  103MOL0     C13777   8.263   7.030   7.225  0.4434  0.1717  0.2429
  103MOL0     O13778   8.133   7.025   7.222 -0.2528  0.3365 -0.2299
  103MOL0     C13779   8.074   6.906   7.280  0.6484 -0.2238  0.6194
  103MOL0     C13780   7.926   6.926   7.288  0.8178 -0.1268 -0.4414
  103MOL0     C13781   7.858   6.980   7.161 -0.1012 -0.7623 -0.5000
  103MOL0     C13782   7.722   7.025   7.190 -0.0617  1.0153  0.9253
  103MOL0     C13783   7.693   7.152   7.114 -0.0342  0.2906 -0.2320
  103MOL0     C13784   7.545   7.168   7.112 -0.4792  0.3271  0.0417
  103MOL0     C13785   7.463   7.093   6.998  0.9082 -0.3141 -0.0777
  103MOL0     C13786   7.474   7.150   6.857 -0.0905  0.7885 -0.5624
  103MOL0     N13787   7.398   7.272   6.850  0.5996  0.5767 -0.4355
  103MOL0     C13788   7.275   7.299   6.905  0.1486  0.5604 -0.2851
  103MOL0     C13789   7.260   7.435   6.878  0.1478  0.3464 -0.3074
  103MOL0     C13790   7.131   7.515   6.902  0.6672  0.4786  0.2435
  103MOL0     C13791   7.011   7.468   6.817  0.8352 -0.4698  0.0310
  103MOL0     C13792   6.881   7.550   6.837 -0.2421  0.2278  0.5428
  103MOL0     C13793   6.769   7.518   6.737  1.0502  0.3539 -0.0686
  103MOL0     O13794   6.760   7.380   6.740 -0.3673 -0.4217 -0.3639
  103MOL0     C13795   6.686   7.324   6.643  1.0698  0.6446  0.4409
  103MOL0     C13796   6.645   7.189   6.649 -0.2344 -0.1750  0.3835
  103MOL0     C13797   6.567   7.131   6.549 -0.0609  0.5058 -0.0035
  103MOL0     C13798   6.546   6.980   6.553  0.0246 -0.0298 -0.4713
  103MOL0     C13799   6.516   7.210   6.444  1.0548  0.3012  0.3319
  103MOL0     C13800   6.417   7.153   6.344  0.7456 -0.2253 -0.4575
  103MOL0     O13801   6.313   7.081   6.398  0.0547  0.5238  0.7479
  103MOL0     C13802   6.224   7.040   6.305 -0.5929  0.1295  0.8963
  103MOL0     C13803   6.220   6.907   6.271 -0.9693  0.0885 -0.5087
  103MOL0     C13804   6.131   6.848   6.181  0.8596 -0.6807  1.3601
  103MOL0     C13805   6.022   6.929   6.138 -0.8129  0.4323  0.9504
  103MOL0     O13806   5.936   6.872   6.047 -0.2829  0.1410  0.1535
  103MOL0     C13807   5.863   6.960   5.966  0.2698  0.4428  0.2937
  103MOL0     C13808   5.776   6.870   5.883 -0.4212  0.1683 -0.1912
  103MOL0     C13809   5.722   6.940   5.758  0.0063 -0.2627 -0.3916
  103MOL0     C13810   5.658   6.844   5.660  0.6626  0.3925 -0.2950
  103MOL0     C13811   5.589   6.929   5.544 -0.3250 -0.3822 -0.5729
  103MOL0     C13812   5.561   6.852   5.420  0.7453  0.8520  0.0115
  103MOL0     C13813   5.523   6.947   5.303  0.2480  0.1265  1.0868
  103MOL0     C13814   5.550   6.907   5.154  0.4461 -0.2772 -0.9405
  103MOL0    Cl13815   5.433   6.990   5.047 -0.1691 -0.1020  0.7012
  103MOL0     C13816   6.021   7.062   6.173 -0.3004  0.0497  0.7929
  103MOL0     C13817   6.119   7.115   6.253  0.0565 -0.4115  0.0173
  103MOL0     O13818   6.422   7.187   6.222 -0.3573  0.2052 -0.3809
  103MOL0     C13819   6.553   7.346   6.441  0.0341  0.7733 -0.3944
  103MOL0     C13820   6.639   7.400   6.535 -0.5424 -0.3355  0.6644
  103MOL0     N13821   7.359   7.479   6.792  0.3817  0.2451  0.2425
  103MOL0     N13822   7.445   7.383   6.785  0.5746 -0.1859 -0.0609
  103MOL0     C13823   8.343   7.039   7.112 -0.1879 -0.0913  0.5152
  103MOL0     C13824   8.484   7.051   7.128  0.4091 -0.3337  0.0673
  103MOL0     C13825   8.896   7.149   7.234  0.7063  0.8747  0.0953
  103MOL0     C13826   8.957   7.046   7.313 -0.2421  0.9552  0.2049
  103MOL0     C13827   9.094   7.043   7.341 -0.4435  0.3040 -0.4184
  103MOL0     C13828   9.171   7.152   7.292 -0.3084  0.6064 -0.4834
  103MOL0     O13829   9.303   7.153   7.315  0.3481 -0.2601  1.1874
  103MOL0     C13830   9.391   7.055   7.365  0.4138  0.1985 -0.9887
  103MOL0     C13831   9.542   7.103   7.371  1.1164 -0.4523  0.2497
  103MOL0     C13832   9.605   7.132   7.239  0.2998 -0.9050 -1.4342
  103MOL0     C13833   9.693   7.267   7.243 -0.3179 -0.3348  0.9635
  103MOL0     C13834   9.817   7.263   7.327 -0.0690 -0.3176  0.5375
  103MOL0     C13835   9.902   7.251   7.412 -0.9604 -0.1782 -0.6759
  103MOL0     C13836   9.115   7.264   7.229  0.5210  0.4830 -0.8981
  103MOL0     C13837   8.980   7.254   7.195 -0.5804 -0.9426  0.0454
  103MOL0     H13838   8.503   7.020   7.478 -0.1464  1.4551  0.0010
  103MOL0     H13839   8.259   7.011   7.437  0.3816 -1.4738  1.5263
  103MOL0     H13840   8.096   6.822   7.214 -0.2853  1.0599 -1.4631
  103MOL0     H13841   8.108   6.873   7.378 -1.1867 -0.5098  1.1909
  103MOL0     H13842   7.867   6.838   7.317 -2.7087  1.5978 -1.8018
  103MOL0     H13843   7.910   6.996   7.371 -1.5168 -0.5284 -0.4857
  103MOL0     H13844   7.918   7.068   7.133 -1.3252  0.4504  0.5782
  103MOL0     H13845   7.879   6.902   7.087  0.8758 -2.2852  1.3177
  103MOL0     H13846   7.660   6.942   7.155 -0.4480  1.3331  0.8471
  103MOL0     H13847   7.690   7.034   7.294 -1.6451  0.7414  0.4998
  103MOL0     H13848   7.741   7.238   7.161 -1.1511 -0.0638  1.6657
  103MOL0     H13849   7.732   7.126   7.015  0.9107 -0.2678  0.2722
  103MOL0     H13850   7.512   7.115   7.202  1.2265 -0.6848  0.1115
  103MOL0     H13851   7.517   7.274   7.116  1.4450  0.8625  0.1298
  103MOL0     H13852   7.499   6.990   6.994 -0.1372 -0.6571 -1.5403
  103MOL0     H13853   7.360   7.073   7.030  0.6159 -0.4300 -1.0504
  103MOL0     H13854   7.431   7.077   6.788  1.6878 -1.5541  0.6325
  103MOL0     H13855   7.581   7.167   6.844  0.1968 -1.6783 -2.1094
  103MOL0     H13856   7.203   7.229   6.946  0.4234 -0.6963 -1.8197
  103MOL0     H13857   7.118   7.513   7.011  2.0641 -0.4560  0.4223
  103MOL0     H13858   7.167   7.617   6.883  4.3516 -0.7323 -0.1856
  103MOL0     H13859   6.991   7.364   6.846  2.0455 -0.2059  1.9695
  103MOL0     H13860   7.038   7.475   6.712 -0.5606  1.1335 -0.2617
  103MOL0     H13861   6.893   7.654   6.808  1.7080  0.3085  1.4981
  103MOL0     H13862   6.845   7.520   6.936 -0.5196 -1.4406 -0.0157
  103MOL0     H13863   6.801   7.565   6.644  1.0294 -0.4681 -0.5043
  103MOL0     H13864   6.674   7.565   6.764  0.9255  1.0216 -1.6041
  103MOL0     H13865   6.687   7.134   6.733 -2.2987 -1.2094  0.8178
  103MOL0     H13866   6.458   6.972   6.617 -2.0811  2.6685 -2.8142
  103MOL0     H13867   6.515   6.938   6.457  0.5104 -2.2854  0.2847
  103MOL0     H13868   6.640   6.931   6.582  0.8288  1.2021 -0.9181
  103MOL0     H13869   6.304   6.847   6.305 -0.4964  0.5842 -0.7709
  103MOL0     H13870   6.135   6.740   6.175  2.0112 -0.6101  0.4594
  103MOL0     H13871   5.797   7.026   6.024 -1.0872  0.2718 -0.9915
  103MOL0     H13872   5.934   7.014   5.903 -2.1737  0.7612 -2.3793
  103MOL0     H13873   5.841   6.794   5.840  2.1052  1.3334  1.3765
  103MOL0     H13874   5.688   6.826   5.930 -1.3235 -0.7287 -2.5642
  103MOL0     H13875   5.795   7.003   5.705  1.2525 -0.7524  0.6852
  103MOL0     H13876   5.644   7.008   5.794 -0.9944 -2.1625  1.1798
  103MOL0     H13877   5.737   6.773   5.634 -0.4385 -1.6742  1.6303
  103MOL0     H13878   5.580   6.779   5.701  0.9594 -0.0261 -0.3816
  103MOL0     H13879   5.655   7.012   5.518 -0.6845 -0.4426 -1.7420
  103MOL0     H13880   5.494   6.968   5.582 -1.2439 -1.2026 -1.9391
  103MOL0     H13881   5.642   6.786   5.390 -1.6243 -0.9994 -2.9019
  103MOL0     H13882   5.479   6.781   5.430  0.7533  0.6419 -1.2832
  103MOL0     H13883   5.577   7.039   5.327 -1.1827  0.5310  3.0281
  103MOL0     H13884   5.417   6.975   5.300  0.5573  1.2989 -1.8196
  103MOL0     H13885   5.544   6.798   5.150  5.1684 -0.8622  1.0456
  103MOL0     H13886   5.651   6.941   5.129 -0.6456  1.5133 -3.2605
  103MOL0     H13887   5.939   7.126   6.144 -0.1758 -0.6450 -1.2097
  103MOL0     H13888   6.107   7.216   6.293 -1.5075 -0.7554  0.4926
  103MOL0     H13889   6.508   7.416   6.372  0.0357 -0.4573 -1.6810
  103MOL0     H13890   6.653   7.507   6.518 -1.2905  0.0723  2.4086
  103MOL0     H13891   8.292   7.029   7.017 -1.5168 -0.2053  1.2189
  103MOL0     H13892   8.547   7.084   7.046  1.2200  1.5382  1.3516
  103MOL0     H13893   8.897   6.969   7.360 -1.3862  1.6571 -0.0769
  103MOL0     H13894   9.139   6.974   7.411  0.7446 -0.1896 -1.6249
  103MOL0     H13895   9.369   7.044   7.472 -1.4236 -0.8627 -1.4338
  103MOL0     H13896   9.372   6.963   7.309 -0.6536 -0.6046  0.6191
  103MOL0     H13897   9.609   7.027   7.413  0.6686 -0.5395  0.8205
  103MOL0     H13898   9.535   7.194   7.431  2.5655 -0.8879  1.1112
  103MOL0     H13899   9.530   7.163   7.166  3.2108  2.9706 -3.1782
  103MOL0     H13900   9.671   7.051   7.209 -0.0279 -2.4608  1.6925
  103MOL0     H13901   9.630   7.350   7.276 -1.8516 -0.2617 -1.8273
  103MOL0     H13902   9.724   7.287   7.141 -2.8080 -1.6678 -0.1495
  103MOL0     H13903   9.979   7.240   7.486  0.5520 -0.5651 -2.2450
  103MOL0     H13904   9.181   7.346   7.201  0.4481  0.3362 -1.5165
  103MOL0     H13905   8.943   7.337   7.137 -0.4562 -1.5189 -0.8685
  104MOL0     O13906   8.327   0.782   0.346  1.1173  0.2371  0.0307
  104MOL0     C13907   8.391   0.687   0.298 -0.1061 -0.1473  0.3448
  104MOL0     O13908   8.347   0.590   0.213 -0.2933  0.7140 -0.3848
  104MOL0     C13909   8.217   0.606   0.168  0.0809  1.4171  0.6671
  104MOL0     C13910   8.200   0.668   0.041 -0.5102 -0.0097  0.3517
  104MOL0     C13911   8.076   0.680  -0.022 -1.0833 -0.5222  0.9215
  104MOL0     C13912   7.960   0.625   0.029 -0.2768 -0.9702 -1.0109
  104MOL0     O13913   7.832   0.638  -0.035 -0.4423  0.4544  0.2971
  104MOL0     C13914   7.810   0.764  -0.104 -0.4923  0.1872 -0.1245
  104MOL0     C13915   7.670   0.778  -0.160 -0.1119 -1.3186  0.7742
  104MOL0     C13916   7.653   0.905  -0.251  0.4606  0.2867 -0.9558
  104MOL0     C13917   7.518   0.889  -0.323  0.2750  0.1082  0.1934
  104MOL0     C13918   7.485   0.998  -0.424 -0.4362 -0.5483  0.3054
  104MOL0     C13919   7.568   0.994  -0.548  0.3928  0.2153  1.1024
  104MOL0     C13920   7.494   1.073  -0.664 -0.6545  0.4012 -0.5520
  104MOL0     C13921   7.562   1.035  -0.800 -0.7015 -0.4411 -0.4367
  104MOL0     N13922   7.498   1.091  -0.919 -0.9073  0.7911 -0.1174
  104MOL0     C13923   7.407   1.196  -0.925 -0.4781 -0.3428  0.8936
  104MOL0     C13924   7.400   1.232  -1.062 -0.8771 -0.6929 -0.2837
  104MOL0     C13925   7.327   1.339  -1.135  0.9230  0.4895  0.0805
  104MOL0     C13926   7.172   1.307  -1.155 -0.4240  0.0584  1.1289
  104MOL0     C13927   7.087   1.272  -1.033 -0.7968 -0.3083 -0.0221
  104MOL0     C13928   6.949   1.239  -1.079  0.0224 -1.0245  0.2858
  104MOL0     O13929   6.852   1.358  -1.087 -1.2229  0.3882  0.2245
  104MOL0     C13930   6.823   1.396  -0.960 -0.0050 -0.5603  0.3918
  104MOL0     C13931   6.881   1.503  -0.894 -0.7681  0.7289 -0.5312
  104MOL0     C13932   6.869   1.527  -0.760 -0.8288 -0.5414 -0.6923
  104MOL0     C13933   6.939   1.652  -0.717  0.1195 -0.6130  0.5146
  104MOL0     C13934   6.794   1.435  -0.681  0.0133 -0.9280  0.0606
  104MOL0     C13935   6.777   1.446  -0.537 -0.2824  0.8194  0.2642
  104MOL0     O13936   6.790   1.561  -0.470 -0.1981 -1.3129  0.2648
  104MOL0     C13937   6.793   1.556  -0.330 -0.1574 -0.4760  0.1776
  104MOL0     C13938   6.675   1.576  -0.257 -0.1357  0.0538  0.7592
  104MOL0     C13939   6.665   1.584  -0.122 -0.0395 -0.5788  0.3333
  104MOL0     C13940   6.786   1.570  -0.050  0.2450  0.7364  1.2439
  104MOL0     O13941   6.787   1.577   0.084 -0.0256  0.1546 -0.5519
  104MOL0     C13942   6.728   1.691   0.148 -0.2866  0.0618 -0.3271
  104MOL0     C13943   6.788   1.700   0.294  0.3556  0.1583  0.1619
  104MOL0     C13944   6.731   1.816   0.383  0.1752  0.2082  0.1491
  104MOL0     C13945   6.809   1.836   0.514 -0.2705  0.6078 -0.3991
  104MOL0     C13946   6.740   1.926   0.608 -0.4532  0.0235 -0.3986
  104MOL0     C13947   6.836   1.953   0.722  0.2381  0.6225  0.1772
  104MOL0     C13948   6.772   2.048   0.824 -0.5428  0.2487 -0.4794
  104MOL0     C13949   6.889   2.090   0.911 -0.2652 -0.2010 -0.1936
  104MOL0    Cl13950   6.828   2.228   1.007  0.2541 -0.0458 -0.4880
  104MOL0     C13951   6.909   1.536  -0.114  0.2657  0.1669 -0.8663
  104MOL0     C13952   6.908   1.530  -0.256 -0.6501 -0.2621 -0.1334
  104MOL0     O13953   6.768   1.334  -0.487 -0.0939  0.1092  0.5472
  104MOL0     C13954   6.735   1.324  -0.747  0.2483 -0.4045  0.4253
  104MOL0     C13955   6.742   1.315  -0.887  0.0026 -1.1248 -0.6541
  104MOL0     N13956   7.472   1.142  -1.138 -0.2956  0.5110 -0.8628
  104MOL0     N13957   7.538   1.071  -1.048  0.4975 -0.1796  0.5246
  104MOL0     C13958   7.977   0.563   0.159 -0.2109  0.2039 -0.4864
  104MOL0     C13959   8.100   0.552   0.228 -0.3088 -0.6400 -0.4505
  104MOL0     C13960   8.537   0.667   0.334  0.8120 -0.3050 -0.6550
  104MOL0     C13961   8.623   0.780   0.343  0.3055  0.3875  0.4915
  104MOL0     C13962   8.762   0.761   0.342  0.2771  0.3168  0.4106
  104MOL0     C13963   8.821   0.636   0.352  0.2977 -0.6628 -0.3868
  104MOL0     O13964   8.954   0.614   0.374  0.9298 -0.4590  0.4254
  104MOL0     C13965   9.042   0.722   0.337  0.2314  1.1462 -0.0465
  104MOL0     C13966   9.191   0.667   0.306  0.1123  0.2483  0.6723
  104MOL0     C13967   9.189   0.566   0.185  0.9772  0.1512  0.2766
  104MOL0     C13968   9.322   0.518   0.133 -0.4242  0.0449  0.0778
  104MOL0     C13969   9.394   0.630   0.070  0.6460  0.3927 -0.1722
  104MOL0     C13970   9.436   0.734   0.025  0.1711  0.3491 -0.2406
  104MOL0     C13971   8.739   0.524   0.357  0.2091  1.3054  0.0119
  104MOL0     C13972   8.599   0.539   0.341 -0.2556 -0.2540 -0.3918
  104MOL0     H13973   8.288   0.704  -0.012  0.4289 -0.4223  1.5992
  104MOL0     H13974   8.080   0.729  -0.119  1.0283  0.5808  1.4984
  104MOL0     H13975   7.833   0.850  -0.041 -1.6914 -1.0317  2.1327
  104MOL0     H13976   7.883   0.773  -0.185  1.4726 -0.9891  1.4212
  104MOL0     H13977   7.635   0.689  -0.213  0.4097 -1.6865  1.0223
  104MOL0     H13978   7.597   0.791  -0.079 -1.7328 -0.5093 -0.7621
  104MOL0     H13979   7.643   0.992  -0.185  0.4193  1.1221 -2.0295
  104MOL0     H13980   7.747   0.912  -0.306  0.4690  2.8577 -0.7629
  104MOL0     H13981   7.508   0.792  -0.372  0.8443 -0.0891  0.4583
  104MOL0     H13982   7.438   0.898  -0.249  1.6226 -0.4723  1.7695
  104MOL0     H13983   7.381   0.985  -0.454  0.0187 -1.1632 -1.1192
  104MOL0     H13984   7.498   1.095  -0.376 -0.9461 -1.5859  2.6569
  104MOL0     H13985   7.669   1.033  -0.533  1.8465 -1.6189 -2.6995
  104MOL0     H13986   7.576   0.888  -0.573 -1.7287  0.3958 -0.6370
  104MOL0     H13987   7.389   1.043  -0.669 -0.3875 -1.0420  1.4834
  104MOL0     H13988   7.511   1.180  -0.644  1.4852 -0.3115  2.0225
  104MOL0     H13989   7.567   0.927  -0.814  2.7749 -0.2720 -1.2817
  104MOL0     H13990   7.664   1.073  -0.810 -0.2881 -1.8658 -2.1733
  104MOL0     H13991   7.363   1.254  -0.844 -0.3396 -1.1116  1.5346
  104MOL0     H13992   7.335   1.434  -1.083 -4.5099  0.7817  0.9470
  104MOL0     H13993   7.372   1.345  -1.235  0.5083  1.3046 -0.0637
  104MOL0     H13994   7.168   1.212  -1.208 -0.2075  0.6434  0.0401
  104MOL0     H13995   7.131   1.381  -1.224 -4.6795  0.0482  3.3278
  104MOL0     H13996   7.090   1.359  -0.967  0.6207 -1.0041  0.8926
  104MOL0     H13997   7.142   1.190  -0.985  0.0217 -1.1666 -2.2978
  104MOL0     H13998   6.904   1.167  -1.009  0.2369 -1.8960 -0.4603
  104MOL0     H13999   6.957   1.199  -1.180 -2.4651 -1.1793  0.0714
  104MOL0     H14000   6.944   1.567  -0.954  0.3597  1.8597  1.7280
  104MOL0     H14001   6.992   1.702  -0.799  0.0330  0.8235  1.3029
  104MOL0     H14002   6.865   1.724  -0.682  1.9488  1.5944  0.1084
  104MOL0     H14003   7.008   1.640  -0.632 -0.7019  2.6707  1.7815
  104MOL0     H14004   6.585   1.610  -0.306  0.6504 -1.0096 -1.5357
  104MOL0     H14005   6.572   1.596  -0.067 -0.3460  1.5287 -0.5448
  104MOL0     H14006   6.737   1.782   0.089 -4.5230  2.1582  1.8214
  104MOL0     H14007   6.621   1.670   0.157  0.1622 -4.4752 -2.5001
  104MOL0     H14008   6.785   1.603   0.344  3.0942 -0.3571 -0.5462
  104MOL0     H14009   6.892   1.730   0.279  0.5793 -0.2650  0.8339
  104MOL0     H14010   6.627   1.791   0.408  0.5586  0.9938  2.8053
  104MOL0     H14011   6.730   1.915   0.337  0.5642  0.0660 -0.1718
  104MOL0     H14012   6.843   1.742   0.559  3.0443  1.3373 -1.0969
  104MOL0     H14013   6.903   1.878   0.475  1.4683 -2.1763  0.4787
  104MOL0     H14014   6.645   1.885   0.643 -0.5948  0.2208 -0.5489
  104MOL0     H14015   6.718   2.018   0.552 -1.0336  1.4306  2.0177
  104MOL0     H14016   6.863   1.858   0.770 -0.0916 -1.0710 -2.7393
  104MOL0     H14017   6.932   1.995   0.690  0.4392 -0.4110 -0.6507
  104MOL0     H14018   6.696   1.996   0.884  0.2687 -0.2924  0.1027
  104MOL0     H14019   6.732   2.139   0.779  1.9242  0.7552 -1.8216
  104MOL0     H14020   6.982   2.117   0.860 -0.1045  0.8441  0.6315
  104MOL0     H14021   6.917   2.015   0.986  2.8803 -0.7657 -1.7389
  104MOL0     H14022   6.993   1.506  -0.051  1.8905 -0.1866 -3.1034
  104MOL0     H14023   6.996   1.492  -0.307 -0.5582  0.3871 -0.4676
  104MOL0     H14024   6.673   1.246  -0.703  2.2986 -1.4929  1.4940
  104MOL0     H14025   6.689   1.241  -0.947  0.0260 -2.1188  0.5244
  104MOL0     H14026   7.888   0.517   0.199  1.6618 -2.3410  1.0500
  104MOL0     H14027   8.092   0.488   0.316 -0.7211  1.2647  0.9499
  104MOL0     H14028   8.583   0.880   0.339  2.8683  1.4587 -0.1927
  104MOL0     H14029   8.822   0.850   0.359  2.0530 -0.8358  0.3990
  104MOL0     H14030   9.012   0.789   0.256  0.8236  0.2183 -1.0630
  104MOL0     H14031   9.039   0.795   0.418 -2.5926  0.1096  0.8753
  104MOL0     H14032   9.217   0.617   0.399 -3.0797  0.7889  1.9869
  104MOL0     H14033   9.260   0.749   0.286  1.1136 -0.7667 -0.1334
  104MOL0     H14034   9.148   0.615   0.096  2.9150 -0.6304 -1.0999
  104MOL0     H14035   9.128   0.480   0.214  0.9696 -1.0348 -2.8782
  104MOL0     H14036   9.315   0.423   0.079 -2.4001 -0.9695  1.9259
  104MOL0     H14037   9.387   0.485   0.215  3.9000 -1.9511 -3.7028
  104MOL0     H14038   9.480   0.822  -0.019 -0.3582 -0.3778 -2.3483
  104MOL0     H14039   8.795   0.431   0.349 -1.3094  0.1828  1.7856
  104MOL0     H14040   8.536   0.451   0.331 -1.3253  0.2342  1.5375
  105MOL0     O14041   4.308  10.194   8.249 -0.7455 -0.3743 -0.9106
  105MOL0     C14042   4.344  10.254   8.146 -0.7787 -0.2168  0.6935
  105MOL0     O14043   4.266  10.292   8.042 -0.0893 -0.2863 -0.1131
  105MOL0     C14044   4.135  10.261   8.024  0.5159 -0.0822 -0.1090
  105MOL0     C14045   4.096  10.251   7.891  0.2690  0.1973 -0.0341
  105MOL0     C14046   3.960  10.249   7.857  0.6300  0.5665  0.2358
  105MOL0     C14047   3.863  10.245   7.965  0.2952 -0.2975 -0.0429
  105MOL0     O14048   3.725  10.239   7.941 -0.4806 -0.1469  0.5210
  105MOL0     C14049   3.690  10.162   7.826  0.4546  0.0518 -0.3180
  105MOL0     C14050   3.529  10.140   7.829 -0.2905 -0.0105 -0.7040
  105MOL0     C14051   3.497  10.004   7.834 -0.0809  1.5511  0.2968
  105MOL0     C14052   3.360   9.986   7.893 -0.1163 -0.4834 -0.1140
  105MOL0     C14053   3.331   9.833   7.889 -0.0328  0.9619 -0.8807
  105MOL0     C14054   3.197   9.789   7.946  0.3065  0.1938 -0.0109
  105MOL0     C14055   3.086   9.861   7.862 -0.4162  0.2460  0.3547
  105MOL0     C14056   2.944   9.807   7.886 -0.4372 -1.1878  0.1155
  105MOL0     N14057   2.939   9.670   7.844 -0.2695  0.4507 -0.1919
  105MOL0     C14058   2.910   9.624   7.715  0.7133 -0.0907  0.0975
  105MOL0     C14059   2.921   9.496   7.719 -0.6952  0.3920  1.0347
  105MOL0     C14060   2.891   9.382   7.626  0.8018 -0.3623  0.4537
  105MOL0     C14061   2.776   9.411   7.528  0.4703 -1.2233  0.1670
  105MOL0     C14062   2.716   9.279   7.482  0.0674  0.1739  0.6311
  105MOL0     C14063   2.588   9.291   7.393 -0.0646  0.6510  0.3468
  105MOL0     O14064   2.630   9.319   7.257 -0.1629 -1.1012  0.5121
  105MOL0     C14065   2.706   9.232   7.186 -0.1464 -0.5732 -0.1474
  105MOL0     C14066   2.734   9.097   7.213  0.0575 -0.2467 -0.8603
  105MOL0     C14067   2.839   9.026   7.148 -0.6301 -0.2615 -0.5286
  105MOL0     C14068   2.853   8.877   7.181  0.2382 -0.6618  0.1609
  105MOL0     C14069   2.929   9.095   7.052  0.3862 -1.5328  0.2713
  105MOL0     C14070   3.044   9.040   6.985  0.4054  0.6710  0.2693
  105MOL0     O14071   3.098   9.117   6.887  0.3426 -0.6002  0.2638
  105MOL0     C14072   3.167   9.054   6.780 -0.3903  0.3349 -0.6840
  105MOL0     C14073   3.127   8.925   6.725  0.5507 -0.3458  0.4766
  105MOL0     C14074   3.202   8.863   6.623  0.3750  0.6286 -0.3604
  105MOL0     C14075   3.301   8.941   6.572  0.8799  0.4090  0.1327
  105MOL0     O14076   3.379   8.899   6.472  0.1367  0.0692  0.0582
  105MOL0     C14077   3.352   8.795   6.384 -0.8316  0.7657 -0.4228
  105MOL0     C14078   3.399   8.832   6.247  0.0326  0.2098  1.1004
  105MOL0     C14079   3.284   8.880   6.157 -0.1073  0.2686 -0.4856
  105MOL0     C14080   3.226   9.016   6.190  0.2079 -0.3712  0.0224
  105MOL0     C14081   3.108   9.072   6.098 -1.0890  0.2813 -0.1875
  105MOL0     C14082   3.113   9.064   5.949  1.7794  1.0576 -0.0188
  105MOL0     C14083   2.978   9.119   5.882 -0.1626  0.1531 -0.0638
  105MOL0     C14084   2.997   9.204   5.747 -0.5014 -0.4617 -0.6086
  105MOL0    Cl14085   2.843   9.177   5.665 -0.0307  0.5627  0.5995
  105MOL0     C14086   3.329   9.070   6.617 -0.1498  0.3525 -1.1333
  105MOL0     C14087   3.268   9.127   6.727 -1.2858 -0.2234 -0.2596
  105MOL0     O14088   3.092   8.931   7.020 -0.9035  0.4536  0.1803
  105MOL0     C14089   2.899   9.232   7.023 -0.3343  0.6435  0.2987
  105MOL0     C14090   2.787   9.288   7.081 -0.4095  0.4503  0.0867
  105MOL0     N14091   2.970   9.470   7.846 -0.3428  0.3120  0.1813
  105MOL0     N14092   2.962   9.568   7.925 -0.2875 -0.6996 -0.1025
  105MOL0     C14093   3.905  10.256   8.090  0.1855  0.2064 -0.2070
  105MOL0     C14094   4.041  10.268   8.123 -0.0703 -0.6164  0.3333
  105MOL0     C14095   4.487  10.274   8.130 -0.1266 -0.2687  0.4646
  105MOL0     C14096   4.574  10.254   8.235  0.5290  0.0487  0.5622
  105MOL0     C14097   4.714  10.274   8.221 -1.0136  0.0465 -0.2806
  105MOL0     C14098   4.759  10.327   8.099  1.2524  0.0926  0.6242
  105MOL0     O14099   4.890  10.358   8.077  0.4218  0.0911  0.2559
  105MOL0     C14100   4.966  10.389   8.188 -0.1023 -0.1225 -0.1225
  105MOL0     C14101   5.106  10.438   8.158 -0.6337 -0.3895  0.3296
  105MOL0     C14102   5.177  10.328   8.068 -0.2921 -0.1658 -1.3011
  105MOL0     C14103   5.325  10.308   8.117  0.7098  0.8447 -0.3959
  105MOL0     C14104   5.396  10.230   8.008  1.2059  0.1855 -0.8899
  105MOL0     C14105   5.439  10.169   7.907 -0.6376 -0.3458 -0.1302
  105MOL0     C14106   4.669  10.339   7.993  0.3137 -0.2292  0.1846
  105MOL0     C14107   4.537  10.321   8.011  0.0450  0.3407  0.4612
  105MOL0     H14108   4.152  10.273   7.800 -1.2401 -0.5976 -1.2000
  105MOL0     H14109   3.925  10.252   7.754 -0.4879  0.8773  0.6085
  105MOL0     H14110   3.712  10.213   7.732 -2.2898  4.0328  0.9122
  105MOL0     H14111   3.748  10.070   7.829 -1.5450 -1.3084 -1.3907
  105MOL0     H14112   3.485  10.186   7.918  1.1847 -1.4078  0.8301
  105MOL0     H14113   3.489  10.192   7.742 -1.3021 -0.8251 -0.7369
  105MOL0     H14114   3.502   9.968   7.731 -1.4442  2.0277  0.0394
  105MOL0     H14115   3.567   9.945   7.894 -1.0000  3.0046  3.0137
  105MOL0     H14116   3.346  10.028   7.993  2.7161  1.0249 -0.2366
  105MOL0     H14117   3.293  10.048   7.833  2.5224  2.0501 -0.6304
  105MOL0     H14118   3.341   9.791   7.789 -1.2056 -0.9663 -0.2525
  105MOL0     H14119   3.417   9.788   7.941 -1.3495 -3.4211 -2.0560
  105MOL0     H14120   3.183   9.681   7.937 -1.4879  0.3444  0.5782
  105MOL0     H14121   3.186   9.820   8.051  2.5003 -0.5725  0.4974
  105MOL0     H14122   3.092   9.966   7.892  0.2404 -0.1936  1.8506
  105MOL0     H14123   3.110   9.856   7.755  1.9332  2.0366  0.7099
  105MOL0     H14124   2.875   9.858   7.818 -1.1312 -2.1391  0.0901
  105MOL0     H14125   2.928   9.818   7.993 -2.4857 -0.2765 -0.2296
  105MOL0     H14126   2.875   9.690   7.636 -0.8596  0.5048  1.2478
  105MOL0     H14127   2.982   9.367   7.566  0.0503 -2.7102 -0.1983
  105MOL0     H14128   2.889   9.284   7.673  1.1475 -1.6775 -2.0830
  105MOL0     H14129   2.794   9.476   7.442  3.6694 -2.2925 -0.1277
  105MOL0     H14130   2.709   9.469   7.592 -0.0660  0.5726 -1.8918
  105MOL0     H14131   2.689   9.234   7.578 -2.1058  0.5053  0.2386
  105MOL0     H14132   2.790   9.209   7.442 -1.4889 -0.0567 -2.1455
  105MOL0     H14133   2.529   9.375   7.431 -0.8409 -0.6173  2.0655
  105MOL0     H14134   2.523   9.204   7.403 -1.2783  1.2488 -1.7038
  105MOL0     H14135   2.690   9.053   7.302  2.0730 -1.1805 -0.2552
  105MOL0     H14136   2.768   8.835   7.234 -0.8247  0.0935 -0.8860
  105MOL0     H14137   2.858   8.824   7.085  1.0658 -2.5775  1.2103
  105MOL0     H14138   2.937   8.853   7.247  0.1017 -2.1399 -0.1648
  105MOL0     H14139   3.046   8.875   6.776 -1.0979  3.2279  1.7136
  105MOL0     H14140   3.178   8.763   6.587  3.2122 -0.5232  0.5950
  105MOL0     H14141   3.419   8.715   6.418 -0.7727  1.2802  0.7143
  105MOL0     H14142   3.249   8.760   6.392 -0.1845 -1.0574  0.5666
  105MOL0     H14143   3.482   8.902   6.238  2.2524 -2.5321 -1.9467
  105MOL0     H14144   3.443   8.745   6.198  2.4308  2.9761 -2.0069
  105MOL0     H14145   3.203   8.806   6.151 -1.5320  1.7664 -0.3158
  105MOL0     H14146   3.323   8.884   6.055  1.0484 -0.1881 -0.0829
  105MOL0     H14147   3.186   9.011   6.292  1.7422  0.1173  0.6744
  105MOL0     H14148   3.304   9.092   6.189 -0.2195  0.1825  2.2130
  105MOL0     H14149   3.080   9.175   6.120 -1.3954  1.2265 -4.2647
  105MOL0     H14150   3.032   8.999   6.127  1.1974 -1.5224  1.7512
  105MOL0     H14151   3.188   9.131   5.907  2.3469 -0.4442 -1.5331
  105MOL0     H14152   3.141   8.963   5.917  3.7188  1.7095 -0.5123
  105MOL0     H14153   2.932   9.185   5.957  0.4756  0.2430  0.2588
  105MOL0     H14154   2.907   9.039   5.859  0.4293 -0.3030 -0.3135
  105MOL0     H14155   3.087   9.166   5.697  0.5692  1.4946 -0.2907
  105MOL0     H14156   3.009   9.309   5.776  0.3174 -0.8377  0.5240
  105MOL0     H14157   3.404   9.126   6.561  0.4775  0.0245 -0.6302
  105MOL0     H14158   3.298   9.224   6.764  0.7390 -0.4152 -1.2576
  105MOL0     H14159   2.964   9.296   6.965  0.8401  0.6346  1.5613
  105MOL0     H14160   2.776   9.390   7.046 -2.5895 -0.4527 -2.1804
  105MOL0     H14161   3.825  10.265   8.164  0.2898  1.9495 -0.2658
  105MOL0     H14162   4.087  10.302   8.215  0.3326 -1.8995  0.6111
  105MOL0     H14163   4.533  10.216   8.328 -1.1734 -0.5235 -0.3609
  105MOL0     H14164   4.780  10.247   8.303 -1.0248  1.5021  0.2429
  105MOL0     H14165   4.921  10.475   8.240 -0.0886 -1.3342  2.0180
  105MOL0     H14166   4.972  10.315   8.268 -0.4864  1.8167  1.8012
  105MOL0     H14167   5.150  10.459   8.255 -1.5424  1.1505  0.4250
  105MOL0     H14168   5.109  10.526   8.093  1.0286 -1.1240 -0.6782
  105MOL0     H14169   5.183  10.370   7.968 -0.7222 -1.0746 -1.7225
  105MOL0     H14170   5.119  10.235   8.071  0.5989 -0.7187  0.1519
  105MOL0     H14171   5.322  10.231   8.195 -3.0141  2.7653  1.6116
  105MOL0     H14172   5.378  10.397   8.152  0.7854  0.1489  1.3831
  105MOL0     H14173   5.481  10.121   7.821  1.4917 -0.0292  0.6986
  105MOL0     H14174   4.695  10.363   7.890 -1.7374 -0.9872 -0.5579
  105MOL0     H14175   4.473  10.327   7.923 -1.7745 -2.0776  1.4948
  106MOL0     O14176   7.001   6.939   0.612  0.1174  0.0176  0.1429
  106MOL0     C14177   6.946   7.043   0.655 -0.6945  0.2995  0.0457
  106MOL0     O14178   6.890   7.137   0.569  0.2528 -0.6094  1.0289
  106MOL0     C14179   6.887   7.112   0.436  0.1340 -0.2310  0.1172
  106MOL0     C14180   6.763   7.131   0.372  1.0307 -0.5560 -0.0207
  106MOL0     C14181   6.755   7.112   0.231 -0.4187  0.7370  0.4042
  106MOL0     C14182   6.859   7.042   0.167 -0.3373  0.0303  0.1609
  106MOL0     O14183   6.852   7.015   0.035  0.2780 -0.2482  0.0077
  106MOL0     C14184   6.750   7.068  -0.059 -0.5482  0.0373  1.0986
  106MOL0     C14185   6.753   6.982  -0.195 -0.5136  0.1157 -0.0380
  106MOL0     C14186   6.894   6.964  -0.260  0.3231  0.8683 -0.9924
  106MOL0     C14187   6.958   7.099  -0.300  0.5036  0.4046 -0.0148
  106MOL0     C14188   6.920   7.115  -0.456  0.3097  0.1763 -0.8944
  106MOL0     C14189   6.916   7.261  -0.493 -0.0328 -0.6887 -0.3156
  106MOL0     C14190   6.876   7.291  -0.634 -0.8200 -0.0709  0.8473
  106MOL0     C14191   6.982   7.270  -0.740  0.1076 -0.2186 -0.7085
  106MOL0     N14192   6.934   7.297  -0.874  0.1428 -0.0767 -0.8676
  106MOL0     C14193   6.874   7.413  -0.904 -0.5433  0.4223  0.7482
  106MOL0     C14194   6.887   7.413  -1.041 -0.3394  0.4788 -0.5643
  106MOL0     C14195   6.833   7.512  -1.142  0.1754 -0.8678  0.3120
  106MOL0     C14196   6.774   7.442  -1.263 -0.4691 -0.6480 -0.2665
  106MOL0     C14197   6.714   7.549  -1.359 -0.4610  0.2817  0.9088
  106MOL0     C14198   6.694   7.502  -1.494  0.0334  0.0814  0.1874
  106MOL0     O14199   6.825   7.480  -1.541  0.8720 -0.2863  0.5040
  106MOL0     C14200   6.833   7.468  -1.684  0.0171  0.2184 -0.1598
  106MOL0     C14201   6.723   7.451  -1.767  0.5544  0.1212  0.5238
  106MOL0     C14202   6.751   7.452  -1.908  0.4077 -0.8192 -0.4123
  106MOL0     C14203   6.623   7.451  -1.990 -0.3423  0.4722  0.3833
  106MOL0     C14204   6.874   7.469  -1.967 -1.2622  0.7148 -0.2231
  106MOL0     C14205   6.897   7.456  -2.118 -0.2140  0.2393 -0.4949
  106MOL0     O14206   7.014   7.514  -2.161  0.9638 -0.2269 -0.3312
  106MOL0     C14207   7.059   7.485  -2.289  0.8885  0.1538 -1.0983
  106MOL0     C14208   7.057   7.575  -2.398 -1.2454  0.5450 -0.7158
  106MOL0     C14209   7.094   7.528  -2.526  0.1380 -0.2705 -0.0331
  106MOL0     C14210   7.142   7.398  -2.547 -0.4402  0.2190  0.0298
  106MOL0     O14211   7.176   7.366  -2.678  0.3038  0.1416 -0.0694
  106MOL0     C14212   7.230   7.236  -2.707  0.0073 -0.1202  0.4849
  106MOL0     C14213   7.307   7.259  -2.839  0.0300  0.1794  0.4380
  106MOL0     C14214   7.457   7.271  -2.814  0.5150 -0.6677 -0.3834
  106MOL0     C14215   7.524   7.223  -2.941 -0.4984 -0.4592  0.2529
  106MOL0     C14216   7.676   7.209  -2.940  0.0218 -0.3253 -0.5110
  106MOL0     C14217   7.726   7.116  -2.827 -0.4624 -0.9599 -0.1696
  106MOL0     C14218   7.855   7.043  -2.866 -0.3194  0.1508 -0.6787
  106MOL0     C14219   7.965   7.144  -2.906 -0.4604 -0.0401  0.1005
  106MOL0    Cl14220   7.963   7.285  -2.795  0.0554 -0.2682  0.3226
  106MOL0     C14221   7.154   7.319  -2.439  0.7579  0.3113  0.7793
  106MOL0     C14222   7.123   7.366  -2.307  0.2308  0.5542  0.2986
  106MOL0     O14223   6.816   7.404  -2.193 -0.2814 -1.1821 -0.1122
  106MOL0     C14224   6.985   7.493  -1.885 -0.1255  0.0464  0.2698
  106MOL0     C14225   6.965   7.487  -1.739  0.4803  0.2734 -0.5470
  106MOL0     N14226   6.944   7.293  -1.083  0.3121  0.7593  0.4025
  106MOL0     N14227   6.974   7.226  -0.983  0.5956 -0.0272  0.3803
  106MOL0     C14228   6.978   7.018   0.235 -0.5580 -0.2808  0.1719
  106MOL0     C14229   7.002   7.064   0.372  1.9482 -0.6905  0.7246
  106MOL0     C14230   6.942   7.069   0.802  0.0841  0.1127 -0.4345
  106MOL0     C14231   6.913   7.201   0.849  0.2752  0.3612  0.3939
  106MOL0     C14232   6.880   7.230   0.979 -0.9448  0.7159  0.3610
  106MOL0     C14233   6.885   7.122   1.071  0.7701 -0.7825  0.3186
  106MOL0     O14234   6.874   7.137   1.209 -0.4839 -0.2959 -0.0444
  106MOL0     C14235   6.833   7.260   1.273  0.2100 -0.2843  1.0420
  106MOL0     C14236   6.791   7.242   1.416 -0.0599  0.1793  0.9752
  106MOL0     C14237   6.670   7.143   1.422 -0.0317  0.4608  0.1161
  106MOL0     C14238   6.602   7.145   1.546 -0.2569  0.0077 -0.5055
  106MOL0     C14239   6.684   7.075   1.646 -0.5099  0.3786 -0.2414
  106MOL0     C14240   6.762   7.042   1.730  0.7993  0.1214 -0.3796
  106MOL0     C14241   6.922   6.996   1.028 -0.5877  0.1356 -0.8781
  106MOL0     C14242   6.947   6.966   0.897  0.9023  0.0520  0.0954
  106MOL0     H14243   6.678   7.169   0.427  1.0930 -0.3069 -0.0968
  106MOL0     H14244   6.656   7.141   0.195 -2.8695 -4.4760  1.9451
  106MOL0     H14245   6.658   7.044  -0.006 -1.1536  0.0152  0.0659
  106MOL0     H14246   6.764   7.175  -0.075 -2.7004  0.3972  1.3947
  106MOL0     H14247   6.719   6.881  -0.169 -1.3259 -0.1490 -1.9854
  106MOL0     H14248   6.673   7.020  -0.259  0.0163  2.5038  0.6098
  106MOL0     H14249   6.955   6.907  -0.189  1.4621 -0.7869 -3.1785
  106MOL0     H14250   6.895   6.893  -0.343 -0.6885 -0.6786  0.2354
  106MOL0     H14251   6.937   7.187  -0.240  0.0291 -1.3628  2.5928
  106MOL0     H14252   7.068   7.097  -0.301  0.6391  2.4757 -3.2512
  106MOL0     H14253   7.000   7.065  -0.512  1.0889 -1.4115  1.4888
  106MOL0     H14254   6.827   7.060  -0.474  0.5541 -0.7533  0.5524
  106MOL0     H14255   6.842   7.311  -0.429  1.7871  0.6665  0.8087
  106MOL0     H14256   7.013   7.301  -0.463  0.0451 -0.0354 -1.3858
  106MOL0     H14257   6.797   7.219  -0.658 -0.8422  0.2373 -0.0207
  106MOL0     H14258   6.846   7.396  -0.636  0.3609  0.2819 -1.5909
  106MOL0     H14259   7.018   7.167  -0.741  3.6584  0.7502  2.4810
  106MOL0     H14260   7.072   7.326  -0.712 -0.2229 -0.1933  0.3612
  106MOL0     H14261   6.845   7.488  -0.831 -1.9383  0.9301 -0.2805
  106MOL0     H14262   6.757   7.570  -1.088  1.8173  1.3078  0.4209
  106MOL0     H14263   6.911   7.580  -1.177 -0.9988  1.5083  2.0201
  106MOL0     H14264   6.698   7.371  -1.229 -2.4116  1.5040  0.1326
  106MOL0     H14265   6.846   7.386  -1.324  0.3262  1.5840 -1.5037
  106MOL0     H14266   6.783   7.633  -1.366  0.4524 -0.6001 -2.0428
  106MOL0     H14267   6.618   7.592  -1.328 -1.2251  0.5608 -1.6501
  106MOL0     H14268   6.635   7.576  -1.548 -1.5363 -0.4359  1.1096
  106MOL0     H14269   6.641   7.406  -1.499 -0.5361  0.4601 -1.8170
  106MOL0     H14270   6.621   7.445  -1.730 -0.5678  0.4006 -2.2483
  106MOL0     H14271   6.540   7.454  -1.920 -0.1610  0.4241  0.6027
  106MOL0     H14272   6.619   7.544  -2.048 -0.7287 -0.0035 -0.3613
  106MOL0     H14273   6.604   7.362  -2.051 -4.5733  1.2006  0.3429
  106MOL0     H14274   7.029   7.680  -2.395  0.8960  1.1530  0.7365
  106MOL0     H14275   7.091   7.600  -2.607 -0.5513 -0.2396  0.0146
  106MOL0     H14276   7.296   7.199  -2.627  1.8282  1.0087 -0.4303
  106MOL0     H14277   7.141   7.176  -2.730  1.3037 -0.9425 -3.0481
  106MOL0     H14278   7.285   7.162  -2.886  0.4466 -0.0936  0.8079
  106MOL0     H14279   7.279   7.341  -2.905  0.1159 -0.9529 -1.0770
  106MOL0     H14280   7.477   7.205  -2.729 -0.9604 -0.5278  0.0993
  106MOL0     H14281   7.493   7.374  -2.803  1.5232 -1.0035 -0.4381
  106MOL0     H14282   7.485   7.123  -2.964 -3.9649  1.4144 -3.1439
  106MOL0     H14283   7.483   7.293  -3.014 -0.5490 -0.8226 -0.0674
  106MOL0     H14284   7.722   7.308  -2.928  0.8168 -0.7377 -0.0415
  106MOL0     H14285   7.703   7.170  -3.039 -1.9580  1.7662 -1.9779
  106MOL0     H14286   7.747   7.179  -2.740 -1.2116 -1.3662  0.3193
  106MOL0     H14287   7.655   7.036  -2.802 -3.0362  0.3279 -2.7353
  106MOL0     H14288   7.842   6.963  -2.940  0.9448 -0.9787  0.2664
  106MOL0     H14289   7.883   6.991  -2.774 -1.2486  1.6705  0.5078
  106MOL0     H14290   7.951   7.168  -3.012 -1.5524 -3.1820 -0.5845
  106MOL0     H14291   8.059   7.093  -2.882 -1.6292 -1.0114  3.0610
  106MOL0     H14292   7.172   7.212  -2.440 -4.0644 -0.7802  2.2608
  106MOL0     H14293   7.153   7.293  -2.232  0.7446 -0.0730 -0.4904
  106MOL0     H14294   7.087   7.500  -1.922 -0.1513  1.2093  0.3667
  106MOL0     H14295   7.052   7.491  -1.673 -0.0319  0.4274  0.1355
  106MOL0     H14296   7.059   6.959   0.193 -1.0489 -1.0546  0.2831
  106MOL0     H14297   7.094   7.035   0.422  0.7367 -1.6945  2.4754
  106MOL0     H14298   6.907   7.281   0.775  1.7235 -0.4856 -0.6942
  106MOL0     H14299   6.861   7.331   1.014  0.3888  2.5069 -3.5328
  106MOL0     H14300   6.915   7.331   1.266 -1.0637  1.3019  1.6923
  106MOL0     H14301   6.752   7.303   1.213  2.1423 -1.5493 -2.8365
  106MOL0     H14302   6.760   7.339   1.456  2.9966  1.6912 -0.0041
  106MOL0     H14303   6.883   7.209   1.467  1.1589  2.9934  0.7998
  106MOL0     H14304   6.703   7.040   1.406 -1.7654  0.0478 -1.0620
  106MOL0     H14305   6.605   7.171   1.339  0.6198 -1.2631 -1.0256
  106MOL0     H14306   6.502   7.100   1.544 -0.8808  1.1010  2.1680
  106MOL0     H14307   6.575   7.248   1.571 -1.5038 -0.7339  1.5224
  106MOL0     H14308   6.819   6.998   1.809 -1.8186  0.2586  1.7264
  106MOL0     H14309   6.927   6.915   1.100 -1.9364 -0.1245 -1.0632
  106MOL0     H14310   6.974   6.865   0.867 -2.5432 -0.3013 -2.4250
  107MOL0     O14311  10.394   7.909   7.772 -0.2320  0.3695 -0.9227
  107MOL0     C14312  10.378   7.983   7.682 -0.4469  0.1142  0.9128
  107MOL0     O14313  10.261   8.047   7.652 -0.2130  0.3881 -0.1261
  107MOL0     C14314  10.155   8.038   7.745 -1.1237 -0.6507 -0.1135
  107MOL0     C14315  10.081   8.159   7.775 -0.2518  0.9620 -1.0747
  107MOL0     C14316   9.972   8.141   7.861  0.3881  0.3900 -0.2156
  107MOL0     C14317   9.930   8.020   7.917  0.6444  0.0143  0.2586
  107MOL0     O14318   9.818   8.016   7.993  0.2667 -0.0520 -0.0392
  107MOL0     C14319   9.770   7.903   8.069  0.4096 -0.4017  0.7724
  107MOL0     C14320   9.691   7.811   7.972 -0.7825  0.0059 -0.4444
  107MOL0     C14321   9.643   7.700   8.065  0.4267  0.8368 -0.2373
  107MOL0     C14322   9.748   7.579   8.076 -0.0869 -0.1620 -0.3467
  107MOL0     C14323   9.680   7.449   8.115  0.0477  0.5603  0.1596
  107MOL0     C14324   9.634   7.443   8.261  0.4321 -0.5815 -0.0945
  107MOL0     C14325   9.751   7.428   8.355  0.0763 -0.2380  0.4534
  107MOL0     C14326   9.708   7.444   8.503  0.5701  0.0859 -0.7698
  107MOL0     N14327   9.808   7.369   8.587 -0.3428 -0.5806 -0.6813
  107MOL0     C14328   9.931   7.418   8.636 -0.0564 -0.1176 -0.1346
  107MOL0     C14329   9.982   7.305   8.685  0.2362  0.3111 -0.3266
  107MOL0     C14330  10.102   7.295   8.771  0.8678 -0.0684  0.2004
  107MOL0     C14331  10.212   7.391   8.717 -0.1003  0.3029  0.4401
  107MOL0     C14332  10.364   7.351   8.741 -0.0302 -0.2896 -0.4878
  107MOL0     C14333  10.400   7.325   8.891 -0.9465 -0.6197 -0.1244
  107MOL0     O14334  10.351   7.444   8.962  0.6718 -0.2764  0.7932
  107MOL0     C14335  10.341   7.445   9.100  0.0936  0.2051 -0.0798
  107MOL0     C14336  10.313   7.567   9.172 -0.2256  0.8002 -0.2694
  107MOL0     C14337  10.317   7.579   9.316 -0.5901  0.6527 -0.0258
  107MOL0     C14338  10.318   7.718   9.374 -0.4303  0.3975 -0.9153
  107MOL0     C14339  10.331   7.461   9.389  0.1587  0.5902  0.3235
  107MOL0     C14340  10.345   7.468   9.537  0.2223 -0.1636  0.1251
  107MOL0     O14341  10.303   7.350   9.600  0.4489 -0.1376 -0.1988
  107MOL0     C14342  10.348   7.312   9.723 -0.2171  0.1713 -0.0587
  107MOL0     C14343  10.288   7.337   9.841  0.1572  0.0943 -0.3148
  107MOL0     C14344  10.352   7.311   9.957 -0.0391  0.8114  0.2914
  107MOL0     C14345  10.478   7.250   9.969 -0.0672  0.5004 -0.1348
  107MOL0     O14346  10.543   7.228  10.092  0.5243  0.3132 -0.0272
  107MOL0     C14347  10.482   7.270  10.207 -0.0760  0.4086 -0.4590
  107MOL0     C14348  10.549   7.216  10.329 -0.6993  1.3788  0.4934
  107MOL0     C14349  10.471   7.229  10.456 -0.2670 -0.2004 -0.2901
  107MOL0     C14350  10.349   7.136  10.465  0.1461 -0.2588 -0.1970
  107MOL0     C14351  10.374   6.992  10.528  0.2327 -0.9304  0.3580
  107MOL0     C14352  10.396   7.004  10.683  0.3492  0.4262  0.4510
  107MOL0     C14353  10.355   6.868  10.757  0.4843 -0.0121 -0.1528
  107MOL0     C14354  10.447   6.847  10.878  0.4147  0.8808 -0.4731
  107MOL0    Cl14355  10.394   6.690  10.946  0.3147  0.3477  0.0279
  107MOL0     C14356  10.528   7.200   9.843  0.5919  0.9402  0.5248
  107MOL0     C14357  10.462   7.241   9.721 -0.3118 -0.4543 -0.1925
  107MOL0     O14358  10.406   7.557   9.594  0.4766 -0.6642 -0.5064
  107MOL0     C14359  10.332   7.335   9.326  0.0741 -0.3669 -0.2773
  107MOL0     C14360  10.338   7.331   9.182  0.4992  0.2629  0.6088
  107MOL0     N14361   9.904   7.192   8.665 -0.0396  0.5422  0.5196
  107MOL0     N14362   9.791   7.238   8.610  1.0174 -0.4871 -0.3659
  107MOL0     C14363  10.008   7.905   7.888 -0.0971  0.7324  0.1339
  107MOL0     C14364  10.101   7.915   7.789 -0.6552 -0.5836  0.9335
  107MOL0     C14365  10.488   8.015   7.590 -0.6000 -0.2908 -0.1509
  107MOL0     C14366  10.619   8.022   7.642  1.3445 -0.2614  0.1756
  107MOL0     C14367  10.731   8.074   7.568  0.4217  0.1067 -0.3219
  107MOL0     C14368  10.711   8.120   7.438 -0.0778  0.5467 -0.7510
  107MOL0     O14369  10.824   8.180   7.379 -0.2150 -0.1216  0.4059
  107MOL0     C14370  10.802   8.270   7.269  0.5094 -0.5746  0.8056
  107MOL0     C14371  10.709   8.393   7.306  0.3938  0.2974  0.2162
  107MOL0     C14372  10.775   8.470   7.426 -0.1527  0.0643  1.3790
  107MOL0     C14373  10.688   8.599   7.461  0.0846  0.7921  1.1924
  107MOL0     C14374  10.750   8.686   7.555 -0.1813 -0.2707  0.1254
  107MOL0     C14375  10.799   8.749   7.649  0.4278 -0.2364 -0.3626
  107MOL0     C14376  10.583   8.097   7.383  0.2641 -0.2827  0.5432
  107MOL0     C14377  10.473   8.061   7.461  0.4686 -0.0202  1.1191
  107MOL0     H14378  10.111   8.256   7.737  1.5982  0.5853 -0.6927
  107MOL0     H14379   9.912   8.228   7.887 -1.6195 -1.6285  2.4902
  107MOL0     H14380   9.849   7.844   8.118  1.1556 -1.0803 -1.1462
  107MOL0     H14381   9.712   7.951   8.148  1.7827  0.4027  1.3326
  107MOL0     H14382   9.603   7.862   7.933 -0.1198  0.3685 -1.4900
  107MOL0     H14383   9.759   7.778   7.893 -0.9623 -2.1701  0.2424
  107MOL0     H14384   9.589   7.746   8.148 -5.6996 -1.4329 -2.3988
  107MOL0     H14385   9.558   7.657   8.011  1.2500 -0.7405 -0.3632
  107MOL0     H14386   9.801   7.572   7.981  1.1608  2.8189  0.0247
  107MOL0     H14387   9.822   7.601   8.153  0.9878  1.3286 -1.7517
  107MOL0     H14388   9.592   7.434   8.052  0.2099  1.2561 -0.2434
  107MOL0     H14389   9.751   7.368   8.096  0.1793  0.9577 -1.0925
  107MOL0     H14390   9.578   7.533   8.286 -1.2112 -1.4000 -0.6925
  107MOL0     H14391   9.575   7.351   8.265  0.9274 -0.8759  3.2037
  107MOL0     H14392   9.779   7.322   8.347 -0.9594 -0.8112  3.2663
  107MOL0     H14393   9.835   7.495   8.332 -0.3959 -0.4180 -2.0487
  107MOL0     H14394   9.604   7.420   8.526  0.9933 -0.5703  0.5646
  107MOL0     H14395   9.719   7.548   8.535 -2.3662  0.0101  0.8811
  107MOL0     H14396   9.970   7.520   8.633  1.3985 -0.5997  1.1824
  107MOL0     H14397  10.086   7.307   8.878 -0.0742 -1.2439  0.2163
  107MOL0     H14398  10.141   7.196   8.746 -4.1194 -2.0885 -0.7807
  107MOL0     H14399  10.194   7.492   8.756 -2.6296 -0.6298  1.9107
  107MOL0     H14400  10.198   7.402   8.609  1.2370 -1.4473  0.0339
  107MOL0     H14401  10.431   7.432   8.712  0.7647 -0.4465  0.8431
  107MOL0     H14402  10.397   7.259   8.693  3.0160  0.9741 -1.0832
  107MOL0     H14403  10.507   7.338   8.908 -0.7065 -1.3968 -0.9697
  107MOL0     H14404  10.365   7.227   8.922 -1.7087 -1.1586 -2.4611
  107MOL0     H14405  10.331   7.658   9.115  2.2261 -0.3904 -1.5760
  107MOL0     H14406  10.423   7.737   9.397 -0.9566  3.2035 -0.4619
  107MOL0     H14407  10.292   7.797   9.303 -0.9926 -0.0772 -1.2525
  107MOL0     H14408  10.268   7.729   9.471  1.9459 -1.8538  0.6844
  107MOL0     H14409  10.198   7.397   9.842 -0.6724 -1.0869  1.3263
  107MOL0     H14410  10.299   7.329  10.050 -1.3782 -3.1247  0.4857
  107MOL0     H14411  10.481   7.379  10.218 -0.0785  0.3255  0.4870
  107MOL0     H14412  10.378   7.235  10.206  0.2161 -0.4754 -1.2657
  107MOL0     H14413  10.565   7.108  10.319  0.8685  1.6984 -0.9956
  107MOL0     H14414  10.648   7.262  10.333  0.5112 -0.8892 -1.1740
  107MOL0     H14415  10.427   7.329  10.460  2.8239  1.3463 -1.3070
  107MOL0     H14416  10.530   7.232  10.548  0.5792  3.1487 -0.8144
  107MOL0     H14417  10.276   7.180  10.534 -1.3651 -2.0938 -0.5502
  107MOL0     H14418  10.300   7.122  10.368  2.1564  1.5875 -1.5656
  107MOL0     H14419  10.456   6.940  10.478  0.8428  0.5886 -0.2834
  107MOL0     H14420  10.282   6.934  10.514  0.0112 -0.2466 -1.3158
  107MOL0     H14421  10.498   7.034  10.706  0.9386  0.0727 -1.4995
  107MOL0     H14422  10.320   7.069  10.728  2.1242  0.3633  3.8253
  107MOL0     H14423  10.366   6.779  10.695  0.0445 -1.1767  1.3948
  107MOL0     H14424  10.254   6.871  10.799  0.4451 -2.2928  0.0419
  107MOL0     H14425  10.428   6.928  10.949 -0.2368 -1.2977  1.9861
  107MOL0     H14426  10.549   6.837  10.840  0.7057  1.9229 -0.0139
  107MOL0     H14427  10.617   7.139   9.832  0.9725  1.6553 -0.5231
  107MOL0     H14428  10.479   7.202   9.621 -1.9734  1.1732 -1.1782
  107MOL0     H14429  10.321   7.247   9.388 -0.9690  0.1907  0.3521
  107MOL0     H14430  10.344   7.232   9.138  0.4272  0.6438 -0.2651
  107MOL0     H14431   9.989   7.805   7.926  2.8148  0.3131  0.7015
  107MOL0     H14432  10.161   7.831   7.755  0.0314 -0.4442  1.7610
  107MOL0     H14433  10.640   7.982   7.741  0.6517 -3.7868 -0.9744
  107MOL0     H14434  10.830   8.078   7.611  1.0557  0.9324 -1.8076
  107MOL0     H14435  10.892   8.314   7.226  0.1325 -1.4536 -0.9796
  107MOL0     H14436  10.756   8.224   7.181  1.5754  1.0959 -0.7077
  107MOL0     H14437  10.608   8.355   7.324  1.0469 -1.4798  0.3080
  107MOL0     H14438  10.702   8.455   7.216  2.6246  1.2880  0.6415
  107MOL0     H14439  10.874   8.504   7.392 -0.6948 -1.4789 -2.2704
  107MOL0     H14440  10.782   8.404   7.513  0.6587 -0.8709  0.6305
  107MOL0     H14441  10.592   8.574   7.507  0.6889 -2.7467  0.7563
  107MOL0     H14442  10.671   8.665   7.376 -0.9988  1.2411  1.7368
  107MOL0     H14443  10.834   8.812   7.728 -1.3433 -1.5522  1.5609
  107MOL0     H14444  10.574   8.132   7.281  2.6637  2.9600  1.2743
  107MOL0     H14445  10.377   8.060   7.411  1.4978  0.5642 -0.9965
  108MOL0     O14446   1.743   6.379   5.646 -0.6106  0.2581  0.0076
  108MOL0     C14447   1.788   6.475   5.709  0.0663 -0.1606 -0.0644
  108MOL0     O14448   1.715   6.580   5.766 -0.5960 -0.2189  0.7173
  108MOL0     C14449   1.576   6.582   5.778 -0.2742  0.2787  0.5775
  108MOL0     C14450   1.497   6.469   5.791  0.4970  0.0519  0.4840
  108MOL0     C14451   1.359   6.485   5.824 -0.6060  0.1787  0.4035
  108MOL0     C14452   1.298   6.604   5.842 -0.0269  0.2397 -0.2632
  108MOL0     O14453   1.166   6.621   5.858  0.1742  0.2093  0.4922
  108MOL0     C14454   1.073   6.516   5.801  0.9304 -0.4616 -0.3888
  108MOL0     C14455   1.041   6.400   5.896 -0.5478  1.1102 -0.4986
  108MOL0     C14456   0.900   6.396   5.952 -0.4579 -0.1027  0.1624
  108MOL0     C14457   0.896   6.269   6.050 -0.1129  0.1768  0.0894
  108MOL0     C14458   0.778   6.286   6.156 -0.0704  0.3462 -0.8994
  108MOL0     C14459   0.772   6.173   6.253 -0.8324  0.0239 -0.2406
  108MOL0     C14460   0.682   6.189   6.373  0.4551  0.8253 -0.2144
  108MOL0     C14461   0.680   6.049   6.437  0.1307 -0.3088 -0.7090
  108MOL0     N14462   0.580   6.054   6.542  0.3900  0.1511  0.1563
  108MOL0     C14463   0.563   6.145   6.645 -0.5293  0.6145  0.6029
  108MOL0     C14464   0.445   6.121   6.697 -1.1158  0.6024 -0.3180
  108MOL0     C14465   0.359   6.212   6.778 -0.0385  0.2360 -0.5100
  108MOL0     C14466   0.306   6.302   6.664  0.7023 -0.5558 -0.6318
  108MOL0     C14467   0.205   6.408   6.731  0.1757 -0.3639 -1.0882
  108MOL0     C14468   0.067   6.347   6.746 -0.2516  0.3674 -0.4793
  108MOL0     O14469  -0.002   6.300   6.630  0.2014 -0.1629 -0.2290
  108MOL0     C14470  -0.127   6.254   6.634  0.5685  0.5332 -0.0247
  108MOL0     C14471  -0.199   6.211   6.753  0.0191 -0.3897 -0.6375
  108MOL0     C14472  -0.330   6.166   6.739 -0.2603 -0.5765 -1.0179
  108MOL0     C14473  -0.384   6.083   6.855  0.2992  0.6128  0.9573
  108MOL0     C14474  -0.398   6.190   6.621 -0.5894 -0.2134  0.0931
  108MOL0     C14475  -0.546   6.181   6.593 -0.1703  0.9791  0.1853
  108MOL0     O14476  -0.590   6.178   6.463  0.1142  0.2427 -0.1056
  108MOL0     C14477  -0.726   6.186   6.441 -0.4586  0.4090  0.1594
  108MOL0     C14478  -0.782   6.311   6.427  0.1184 -0.6835  0.2560
  108MOL0     C14479  -0.922   6.331   6.415 -0.1691  0.2471 -0.8114
  108MOL0     C14480  -1.013   6.224   6.424 -0.0133  0.0873  0.0980
  108MOL0     O14481  -1.150   6.259   6.428 -0.1528 -0.6738  0.5658
  108MOL0     C14482  -1.260   6.162   6.397 -0.1027 -0.0295 -0.7225
  108MOL0     C14483  -1.379   6.235   6.334 -0.6582 -0.5825 -0.0479
  108MOL0     C14484  -1.401   6.374   6.375  0.5316 -0.1901 -0.7490
  108MOL0     C14485  -1.421   6.387   6.517 -0.8430  0.2519 -0.6399
  108MOL0     C14486  -1.464   6.526   6.558 -0.4916 -0.6105  0.3015
  108MOL0     C14487  -1.482   6.527   6.707  0.5955  0.7132  0.3811
  108MOL0     C14488  -1.456   6.663   6.758  0.1848  0.0106 -0.3307
  108MOL0     C14489  -1.471   6.688   6.910 -0.2101 -0.5228 -0.1929
  108MOL0    Cl14490  -1.638   6.657   6.964 -0.0359  0.3485  0.3057
  108MOL0     C14491  -0.953   6.093   6.429  0.3928  0.4381 -0.5336
  108MOL0     C14492  -0.823   6.075   6.446 -0.3620 -0.1938 -0.4004
  108MOL0     O14493  -0.611   6.163   6.697  0.1481  0.3300  0.5331
  108MOL0     C14494  -0.329   6.245   6.504  0.4386  0.4961  0.4360
  108MOL0     C14495  -0.197   6.264   6.513  0.1707  0.3346  0.8532
  108MOL0     N14496   0.385   6.009   6.649  0.1082  0.5033  1.0003
  108MOL0     N14497   0.456   5.980   6.546  0.3816  0.3333  0.0276
  108MOL0     C14498   1.375   6.719   5.820  0.2521  0.8007 -0.3701
  108MOL0     C14499   1.513   6.707   5.801  0.0069  1.2217 -0.3130
  108MOL0     C14500   1.932   6.474   5.742 -0.1563 -0.4846 -0.5627
  108MOL0     C14501   2.028   6.403   5.673  0.0892 -0.3452 -0.2089
  108MOL0     C14502   2.167   6.405   5.706  0.5457 -0.0079 -0.1064
  108MOL0     C14503   2.216   6.501   5.796 -0.2848  0.3305 -0.1930
  108MOL0     O14504   2.344   6.525   5.829  0.0363 -0.3769  0.2335
  108MOL0     C14505   2.443   6.432   5.781 -0.4881  0.1054 -0.6002
  108MOL0     C14506   2.460   6.304   5.869 -0.1406  0.5824 -0.4756
  108MOL0     C14507   2.573   6.224   5.834  0.4446 -0.6781  0.9112
  108MOL0     C14508   2.572   6.090   5.906 -0.6012  1.0271 -0.8258
  108MOL0     C14509   2.655   5.987   5.846 -0.5359 -0.2451 -0.5538
  108MOL0     C14510   2.721   5.914   5.776  0.4473  0.4962 -0.4383
  108MOL0     C14511   2.122   6.575   5.863  0.7322  0.3423 -0.1874
  108MOL0     C14512   1.983   6.557   5.834 -1.0849 -0.0657  0.3832
  108MOL0     H14513   1.541   6.371   5.781  0.5601  0.2221 -1.2083
  108MOL0     H14514   1.300   6.395   5.837 -1.5031  0.9266  1.8541
  108MOL0     H14515   0.982   6.571   5.775  0.8383  0.4079  1.6025
  108MOL0     H14516   1.106   6.483   5.702 -4.7176  0.6938 -3.0821
  108MOL0     H14517   1.068   6.308   5.843  1.0682  1.2791 -0.0473
  108MOL0     H14518   1.104   6.412   5.985  0.1821  2.5072 -1.1719
  108MOL0     H14519   0.870   6.490   5.998  1.1784  0.9712 -0.8774
  108MOL0     H14520   0.827   6.383   5.872  0.9637  0.8644 -1.3651
  108MOL0     H14521   0.881   6.174   5.999  1.1952 -1.1068  1.9782
  108MOL0     H14522   0.995   6.260   6.097  0.7810 -1.0046 -1.8727
  108MOL0     H14523   0.781   6.379   6.214  0.9363 -0.1559 -0.1259
  108MOL0     H14524   0.685   6.297   6.100 -1.8504 -0.3230  1.7378
  108MOL0     H14525   0.737   6.090   6.190  0.2357 -0.7879  0.2140
  108MOL0     H14526   0.875   6.150   6.280 -1.3840 -2.6269 -0.1093
  108MOL0     H14527   0.714   6.275   6.433 -1.5749  2.1750 -0.9674
  108MOL0     H14528   0.578   6.214   6.354  0.4613 -0.6788 -2.7269
  108MOL0     H14529   0.770   6.006   6.482  0.0132 -0.4170 -0.5801
  108MOL0     H14530   0.644   5.978   6.362  0.0660 -2.3690  1.1911
  108MOL0     H14531   0.635   6.223   6.666  2.2747 -1.2920 -1.2649
  108MOL0     H14532   0.281   6.149   6.823  1.1102 -1.6055 -0.9910
  108MOL0     H14533   0.418   6.260   6.856 -3.7219  3.2934  0.6884
  108MOL0     H14534   0.258   6.240   6.588 -2.7343  1.1268 -0.0691
  108MOL0     H14535   0.377   6.366   6.612  0.6235 -0.4010 -0.5527
  108MOL0     H14536   0.194   6.503   6.677  0.9094 -0.2469 -1.0423
  108MOL0     H14537   0.246   6.439   6.828 -1.7918  0.8147 -0.5721
  108MOL0     H14538   0.005   6.422   6.797 -0.0244  1.6710 -2.0526
  108MOL0     H14539   0.078   6.269   6.822  0.2093  0.0629 -0.8541
  108MOL0     H14540  -0.140   6.187   6.840  1.0158 -3.5836 -2.0551
  108MOL0     H14541  -0.456   6.142   6.912 -3.1687 -1.9057 -0.4396
  108MOL0     H14542  -0.442   6.003   6.808 -1.0597  0.4592  2.7819
  108MOL0     H14543  -0.308   6.048   6.924 -0.2015 -1.3494  0.5624
  108MOL0     H14544  -0.704   6.386   6.423 -0.6607  0.1247 -3.2728
  108MOL0     H14545  -0.964   6.431   6.413  0.1879  0.4429  0.2833
  108MOL0     H14546  -1.224   6.080   6.333 -0.5098  2.2374 -4.1467
  108MOL0     H14547  -1.285   6.121   6.495  0.9670 -1.0760 -0.8526
  108MOL0     H14548  -1.376   6.230   6.225  1.2556 -3.3255  0.0286
  108MOL0     H14549  -1.472   6.179   6.345 -0.0088 -1.6428  0.1617
  108MOL0     H14550  -1.489   6.422   6.331  1.1999  2.1662  0.2925
  108MOL0     H14551  -1.310   6.428   6.345  0.0398  0.6601 -0.7573
  108MOL0     H14552  -1.500   6.317   6.545 -0.0102  0.4068  2.5144
  108MOL0     H14553  -1.325   6.359   6.563  0.7661 -0.9820 -4.3644
  108MOL0     H14554  -1.559   6.549   6.508 -0.3753  0.2483  0.4534
  108MOL0     H14555  -1.397   6.610   6.537 -0.5167  0.6785  4.4413
  108MOL0     H14556  -1.590   6.511   6.715  0.3075  2.6814  1.1270
  108MOL0     H14557  -1.419   6.448   6.747  1.3820  0.8241 -0.6304
  108MOL0     H14558  -1.518   6.741   6.715  1.0885  0.3968 -0.9593
  108MOL0     H14559  -1.350   6.675   6.734  0.3290  2.5890  1.2469
  108MOL0     H14560  -1.447   6.792   6.935  0.2891 -0.7373  0.2310
  108MOL0     H14561  -1.398   6.622   6.958 -0.1734 -0.7451 -0.5473
  108MOL0     H14562  -1.028   6.014   6.424 -1.2246  1.9490 -1.5028
  108MOL0     H14563  -0.787   5.973   6.446 -0.8262 -0.4523  2.4019
  108MOL0     H14564  -0.387   6.272   6.417  0.0627 -1.5053  0.0067
  108MOL0     H14565  -0.144   6.279   6.419  0.5789 -0.7207  0.8925
  108MOL0     H14566   1.323   6.814   5.824 -2.2246 -0.3246 -2.5552
  108MOL0     H14567   1.566   6.801   5.790  1.2831  0.4328 -1.1685
  108MOL0     H14568   1.983   6.338   5.599 -1.8805 -1.9850  2.2531
  108MOL0     H14569   2.232   6.333   5.657 -0.4595 -1.5592  0.7259
  108MOL0     H14570   2.435   6.402   5.677  2.0807 -3.0062 -0.0487
  108MOL0     H14571   2.538   6.484   5.794 -0.7688  0.9505 -1.8159
  108MOL0     H14572   2.365   6.250   5.864  0.2571 -0.2793  0.7927
  108MOL0     H14573   2.481   6.329   5.973  0.2576 -2.0802  0.1644
  108MOL0     H14574   2.667   6.280   5.835 -1.1743  2.3947 -1.2168
  108MOL0     H14575   2.575   6.199   5.727  1.2732  0.6725  0.5892
  108MOL0     H14576   2.469   6.057   5.920 -1.0538  3.0253  1.1700
  108MOL0     H14577   2.614   6.101   6.006  1.3755  0.6642 -1.5566
  108MOL0     H14578   2.790   5.855   5.719  4.3879  2.6837  1.6942
  108MOL0     H14579   2.165   6.648   5.931  2.8869 -3.1035  2.5288
  108MOL0     H14580   1.912   6.622   5.883  0.1180  0.4005  1.5972
  109MOL0     O14581   4.229   1.793  10.173 -0.1255 -0.3887 -0.6638
  109MOL0     C14582   4.257   1.909  10.134 -0.8178 -0.0357 -0.0313
  109MOL0     O14583   4.385   1.963  10.141  0.0704  0.3545  0.1394
  109MOL0     C14584   4.473   1.887  10.211 -0.6450 -0.0740 -1.1646
  109MOL0     C14585   4.558   1.802  10.138  0.2628  0.2157 -0.5261
  109MOL0     C14586   4.662   1.749  10.209 -0.1606  0.6323  0.6566
  109MOL0     C14587   4.685   1.768  10.349 -0.3186 -0.9171  0.1913
  109MOL0     O14588   4.802   1.711  10.392  0.2195 -0.7796 -0.3252
  109MOL0     C14589   4.832   1.698  10.529 -0.7191 -0.6713 -0.7358
  109MOL0     C14590   4.824   1.556  10.582 -1.1197 -0.3285  0.2732
  109MOL0     C14591   4.956   1.473  10.570  0.6109 -0.5596  0.6504
  109MOL0     C14592   5.037   1.491  10.439 -0.5210  0.7378 -0.0064
  109MOL0     C14593   5.168   1.417  10.470  0.3508  1.0176  0.7773
  109MOL0     C14594   5.293   1.447  10.389  0.5178  0.0004 -0.4827
  109MOL0     C14595   5.432   1.424  10.465  0.1929  0.3561  0.5242
  109MOL0     C14596   5.451   1.278  10.490  1.1240  0.5810 -0.1426
  109MOL0     N14597   5.388   1.223  10.619 -1.5088 -0.2031 -0.8572
  109MOL0     C14598   5.402   1.284  10.746  1.2594 -0.0728  1.3686
  109MOL0     C14599   5.299   1.224  10.826 -0.9819  0.7986 -0.0213
  109MOL0     C14600   5.257   1.258  10.962 -0.4177  0.5179 -0.6085
  109MOL0     C14601   5.301   1.144  11.065 -0.5041 -0.3142  0.6865
  109MOL0     C14602   5.324   1.210  11.206 -0.7802  0.5818 -0.4932
  109MOL0     C14603   5.397   1.118  11.306 -0.2976  0.0100 -0.3194
  109MOL0     O14604   5.431   1.175  11.431  0.2143  0.5156 -0.6353
  109MOL0     C14605   5.497   1.109  11.524  0.4129  0.3542  1.0347
  109MOL0     C14606   5.563   1.194  11.620  0.1876  0.9022 -0.3505
  109MOL0     C14607   5.653   1.137  11.714  0.9738 -0.9512  0.2881
  109MOL0     C14608   5.730   1.226  11.796  1.0448  1.0742 -0.1261
  109MOL0     C14609   5.667   0.992  11.707  1.3602  0.3157  0.2258
  109MOL0     C14610   5.756   0.925  11.799  0.1046  0.1755 -0.6271
  109MOL0     O14611   5.888   0.951  11.794 -0.4876  0.2813 -0.2124
  109MOL0     C14612   5.965   0.872  11.871  0.1427  0.4784  0.5905
  109MOL0     C14613   6.020   0.754  11.829  0.0187  0.5074  0.2323
  109MOL0     C14614   6.112   0.689  11.912  0.0438 -0.0024 -0.5297
  109MOL0     C14615   6.147   0.741  12.031 -1.1229  0.5302 -1.8798
  109MOL0     O14616   6.260   0.705  12.104  0.0763  0.9274  0.3850
  109MOL0     C14617   6.273   0.561  12.115  0.2502 -0.3545  0.5011
  109MOL0     C14618   6.350   0.532  12.252 -0.6406 -0.4186  0.8347
  109MOL0     C14619   6.489   0.601  12.251 -0.3060 -0.3892  0.0673
  109MOL0     C14620   6.554   0.559  12.389  0.3042  0.9204  0.3845
  109MOL0     C14621   6.705   0.601  12.375 -0.4369  0.9099  0.9402
  109MOL0     C14622   6.776   0.575  12.517  1.2337 -0.0149 -0.0145
  109MOL0     C14623   6.767   0.433  12.573 -0.0178 -0.3642  0.3329
  109MOL0     C14624   6.844   0.414  12.707 -0.8191  0.3395  0.3119
  109MOL0    Cl14625   6.813   0.260  12.781 -0.2664  0.3311  0.2958
  109MOL0     C14626   6.085   0.857  12.074  0.5354  0.2450  0.2291
  109MOL0     C14627   6.004   0.934  11.990 -0.0369 -0.6288 -0.3425
  109MOL0     O14628   5.696   0.836  11.864 -0.1533 -0.5353  0.3341
  109MOL0     C14629   5.599   0.910  11.616  0.6480 -0.2563 -0.9595
  109MOL0     C14630   5.514   0.968  11.524 -0.4735 -0.6471 -0.0712
  109MOL0     N14631   5.247   1.119  10.745 -0.4081  0.6798  0.3244
  109MOL0     N14632   5.305   1.121  10.623  0.5688  0.7965  1.1560
  109MOL0     C14633   4.590   1.840  10.425 -0.4955  0.0386  0.0347
  109MOL0     C14634   4.484   1.903  10.349  0.0183 -0.0343  0.0800
  109MOL0     C14635   4.150   1.997  10.074 -0.6551  0.5238 -0.1548
  109MOL0     C14636   4.189   2.126  10.029  1.0455 -0.1074 -0.5797
  109MOL0     C14637   4.090   2.207   9.968 -0.9490 -0.1992 -0.7400
  109MOL0     C14638   3.953   2.172   9.970 -0.1194  0.1625  0.0779
  109MOL0     O14639   3.860   2.262   9.931  0.2986 -0.1942  0.5838
  109MOL0     C14640   3.882   2.311   9.794  0.4740  0.0140  0.2535
  109MOL0     C14641   3.827   2.209   9.693  0.1604 -0.4872  0.3679
  109MOL0     C14642   3.676   2.187   9.700  0.5287  0.0294  0.5961
  109MOL0     C14643   3.632   2.078   9.599 -0.2620 -0.5722 -0.6398
  109MOL0     C14644   3.492   2.024   9.599 -0.1966 -0.4763  0.1273
  109MOL0     C14645   3.383   1.975   9.578  0.5938 -0.7635 -0.2366
  109MOL0     C14646   3.915   2.048  10.010  0.8601  0.6895  0.1543
  109MOL0     C14647   4.013   1.965  10.064 -0.0725  0.0373 -0.3817
  109MOL0     H14648   4.537   1.770  10.036  0.2161 -1.8098  0.0704
  109MOL0     H14649   4.717   1.679  10.148 -1.8970 -0.4167  0.2585
  109MOL0     H14650   4.932   1.739  10.545 -1.8619  0.7910  4.5189
  109MOL0     H14651   4.781   1.776  10.586  0.4715  0.3467 -1.0178
  109MOL0     H14652   4.801   1.561  10.689  2.5717 -5.4300  1.6675
  109MOL0     H14653   4.738   1.504  10.538  0.3872 -1.7511 -1.1263
  109MOL0     H14654   5.011   1.484  10.663 -0.7875 -0.5105  1.4986
  109MOL0     H14655   4.923   1.369  10.578  0.8711 -0.5677  1.8433
  109MOL0     H14656   4.990   1.447  10.351  0.0471 -0.2708  0.1823
  109MOL0     H14657   5.059   1.596  10.418  0.4285  0.1174 -2.4490
  109MOL0     H14658   5.193   1.449  10.572  0.0476  0.0502  1.1755
  109MOL0     H14659   5.167   1.307  10.465  1.9634  1.0344 -0.7338
  109MOL0     H14660   5.289   1.396  10.292  1.3571  2.9692 -2.2190
  109MOL0     H14661   5.297   1.555  10.373  0.6294  0.9645  4.4870
  109MOL0     H14662   5.518   1.460  10.408  0.5068 -1.2030 -0.0273
  109MOL0     H14663   5.438   1.478  10.560 -1.8933 -2.1037  2.1853
  109MOL0     H14664   5.560   1.263  10.490  1.0928  0.3613  0.2034
  109MOL0     H14665   5.418   1.220  10.404  1.9418 -1.7267  1.0270
  109MOL0     H14666   5.462   1.369  10.778 -0.2881  0.8491  1.9489
  109MOL0     H14667   5.275   1.362  10.992 -0.4065  1.3039 -3.1410
  109MOL0     H14668   5.147   1.256  10.964 -0.4063  0.1142  1.0536
  109MOL0     H14669   5.385   1.082  11.032 -0.3004  1.5569 -2.8291
  109MOL0     H14670   5.216   1.077  11.076 -0.3778 -0.0047  5.6401
  109MOL0     H14671   5.227   1.239  11.246  0.0511  1.2769  1.1295
  109MOL0     H14672   5.380   1.304  11.196  0.3733  0.1315  1.2381
  109MOL0     H14673   5.488   1.079  11.261 -1.7785 -1.1341 -2.5176
  109MOL0     H14674   5.332   1.030  11.317 -1.1026  0.4974 -1.0265
  109MOL0     H14675   5.542   1.300  11.615 -2.0215  0.6612  1.8330
  109MOL0     H14676   5.666   1.260  11.878 -1.1387 -3.4875  0.3963
  109MOL0     H14677   5.818   1.173  11.835 -0.4740  0.1503  2.2896
  109MOL0     H14678   5.770   1.303  11.730 -2.7287  1.8940 -1.7102
  109MOL0     H14679   5.980   0.712  11.737 -1.7072 -3.9278  2.7054
  109MOL0     H14680   6.156   0.598  11.872 -0.3928 -0.7232  0.5887
  109MOL0     H14681   6.175   0.513  12.120 -1.4449  2.9049  3.7023
  109MOL0     H14682   6.323   0.518  12.027 -0.6547  0.0931 -0.2495
  109MOL0     H14683   6.298   0.578  12.337 -3.1741 -1.5764  0.0065
  109MOL0     H14684   6.362   0.424  12.267  0.1722 -0.4690 -0.0701
  109MOL0     H14685   6.485   0.706  12.222  0.3877 -0.2443  0.4795
  109MOL0     H14686   6.546   0.548  12.173  0.7188  0.8210 -0.0291
  109MOL0     H14687   6.500   0.611  12.468 -1.0925 -0.5621  0.4713
  109MOL0     H14688   6.542   0.450  12.398  0.7500  0.5555 -2.5998
  109MOL0     H14689   6.718   0.702  12.336  2.1868 -0.6843 -2.9588
  109MOL0     H14690   6.760   0.535  12.306 -1.1806  3.0367 -1.8863
  109MOL0     H14691   6.878   0.607  12.496  1.1916 -2.0580 -4.3445
  109MOL0     H14692   6.731   0.644  12.590  2.7900  1.2754 -0.2191
  109MOL0     H14693   6.797   0.357  12.500  2.2278 -1.2953  2.0784
  109MOL0     H14694   6.661   0.427  12.599 -1.1897  3.1292 -2.8281
  109MOL0     H14695   6.827   0.500  12.773 -0.4876  0.4805  0.2201
  109MOL0     H14696   6.952   0.428  12.695 -0.7374  2.4120  2.5912
  109MOL0     H14697   6.120   0.894  12.170  0.7223 -1.1901  0.7353
  109MOL0     H14698   5.970   1.032  12.019  0.0077 -0.5732 -0.4780
  109MOL0     H14699   5.604   0.803  11.632 -1.0299  0.1220  3.8937
  109MOL0     H14700   5.472   0.893  11.457  1.9377 -1.6600 -0.5735
  109MOL0     H14701   4.591   1.853  10.533  2.7415 -0.5467  0.1847
  109MOL0     H14702   4.420   1.975  10.400  1.8607  0.5198  1.7209
  109MOL0     H14703   4.294   2.155  10.023  1.8263 -1.1323  4.1128
  109MOL0     H14704   4.122   2.297   9.916  1.5912 -0.8717 -0.5119
  109MOL0     H14705   3.829   2.406   9.802  1.9361  0.8039  1.0780
  109MOL0     H14706   3.986   2.336   9.769  1.0334  0.9057  3.1333
  109MOL0     H14707   3.880   2.114   9.698  2.0344 -0.3319 -6.2317
  109MOL0     H14708   3.847   2.269   9.603 -0.6365  1.7879  1.6246
  109MOL0     H14709   3.629   2.275   9.656 -1.7686 -2.9033 -3.6072
  109MOL0     H14710   3.648   2.168   9.804  0.0142  3.1983  1.1371
  109MOL0     H14711   3.688   1.985   9.608 -2.6685 -1.9405  1.4670
  109MOL0     H14712   3.641   2.112   9.495  3.0275 -1.7802 -0.8392
  109MOL0     H14713   3.278   1.958   9.561  0.6309 -0.2426 -1.0859
  109MOL0     H14714   3.808   2.026  10.015  0.2963  2.8450 -0.9870
  109MOL0     H14715   3.979   1.864  10.087 -0.8105  0.6536  1.4210
  110MOL0     O14716   7.777  10.793  11.024  0.0400 -0.3605 -0.8650
  110MOL0     C14717   7.674  10.861  11.006  0.5643 -0.1385  0.3291
  110MOL0     O14718   7.589  10.844  10.905  0.3874 -0.7290  0.1792
  110MOL0     C14719   7.572  10.730  10.837  0.0580 -0.2047  1.0705
  110MOL0     C14720   7.450  10.731  10.764 -0.2472 -0.0083  1.1170
  110MOL0     C14721   7.398  10.607  10.712  0.0566  0.1355 -0.0972
  110MOL0     C14722   7.483  10.490  10.706  0.2404  0.0695  0.3051
  110MOL0     O14723   7.432  10.383  10.643  0.5482 -0.3823 -0.3279
  110MOL0     C14724   7.426  10.382  10.503 -0.1101  0.3505  0.1889
  110MOL0     C14725   7.398  10.240  10.430  0.0761 -0.3267 -0.1788
  110MOL0     C14726   7.276  10.181  10.512  0.3444 -0.1859  0.4266
  110MOL0     C14727   7.155  10.145  10.434  0.3844  0.9833  0.4441
  110MOL0     C14728   7.070  10.282  10.399  1.1035  0.3839  0.5196
  110MOL0     C14729   6.943  10.234  10.340  0.5809  0.5570  0.4629
  110MOL0     C14730   6.868  10.354  10.301  1.0449  0.1166  0.5483
  110MOL0     C14731   6.762  10.325  10.193 -0.0697 -0.6169  0.1622
  110MOL0     N14732   6.836  10.309  10.069 -0.2458 -0.6015  1.3908
  110MOL0     C14733   6.872  10.406   9.980  0.1675 -0.3309 -0.5511
  110MOL0     C14734   6.875  10.339   9.859 -0.6934 -0.6500  0.0711
  110MOL0     C14735   6.881  10.397   9.722  0.8755  0.4916  0.1847
  110MOL0     C14736   6.970  10.519   9.705  0.1330  0.3707 -0.2828
  110MOL0     C14737   6.954  10.594   9.578 -0.4513  0.3883  0.3784
  110MOL0     C14738   7.017  10.522   9.462 -0.1295  0.5551 -0.0253
  110MOL0     O14739   6.950  10.585   9.354 -0.1856  0.0560 -0.3183
  110MOL0     C14740   6.975  10.539   9.234  0.0811  0.6456  0.4618
  110MOL0     C14741   7.081  10.585   9.151 -0.7034 -0.0376 -0.1396
  110MOL0     C14742   7.107  10.528   9.025  0.0667  0.0559  0.1508
  110MOL0     C14743   7.220  10.587   8.940  0.7182  0.6312  0.0458
  110MOL0     C14744   7.027  10.416   8.984 -0.5086  0.0754 -0.3924
  110MOL0     C14745   7.054  10.328   8.868 -0.8915  0.9105 -0.0698
  110MOL0     O14746   7.008  10.193   8.881  0.4268  0.2679 -0.1885
  110MOL0     C14747   7.051  10.086   8.807  0.5519  0.2088 -0.1460
  110MOL0     C14748   7.069   9.959   8.876 -0.1202  0.2172  0.1467
  110MOL0     C14749   7.123   9.852   8.815  0.3532  0.6490  0.0276
  110MOL0     C14750   7.150   9.862   8.685 -0.3578  0.3557 -0.1170
  110MOL0     O14751   7.214   9.754   8.625  0.0903 -0.2746 -0.2349
  110MOL0     C14752   7.338   9.766   8.555 -0.4864  0.0955  0.0006
  110MOL0     C14753   7.350   9.639   8.463 -0.1736 -1.2646 -0.5723
  110MOL0     C14754   7.344   9.506   8.542 -0.0788 -0.2607 -0.2767
  110MOL0     C14755   7.432   9.495   8.666  0.9805 -0.0645  0.8980
  110MOL0     C14756   7.584   9.496   8.626 -0.1106  0.0392  0.0275
  110MOL0     C14757   7.648   9.372   8.562  0.4991 -0.2698  0.0190
  110MOL0     C14758   7.796   9.388   8.559 -0.5426 -0.3236 -0.7497
  110MOL0     C14759   7.841   9.478   8.441  1.2231 -0.0612  0.7163
  110MOL0    Cl14760   7.982   9.413   8.361 -0.1797  0.2615  0.2514
  110MOL0     C14761   7.128   9.981   8.606  0.2321  0.3307 -0.1737
  110MOL0     C14762   7.069  10.094   8.670  0.3552 -0.4126  0.0797
  110MOL0     O14763   7.135  10.364   8.787  0.9304  0.2469 -0.4464
  110MOL0     C14764   6.916  10.373   9.072  0.4655  0.0552  0.4812
  110MOL0     C14765   6.892  10.439   9.189 -0.7190 -0.0635  0.6056
  110MOL0     N14766   6.859  10.201   9.886 -0.6318 -0.1891  0.4787
  110MOL0     N14767   6.836  10.187  10.014 -0.5814  0.2719 -0.1316
  110MOL0     C14768   7.605  10.491  10.771  0.3188  0.4727  0.4176
  110MOL0     C14769   7.647  10.604  10.847  0.0980  0.0326 -0.0977
  110MOL0     C14770   7.661  10.981  11.090  0.1115  0.2969 -0.4273
  110MOL0     C14771   7.767  11.050  11.153 -0.6125 -1.0182 -0.4203
  110MOL0     C14772   7.735  11.155  11.246 -0.1936  0.1790  0.7301
  110MOL0     C14773   7.612  11.195  11.276  0.2770 -0.1588  0.2784
  110MOL0     O14774   7.599  11.298  11.366 -0.1338  0.6270  0.2869
  110MOL0     C14775   7.479  11.334  11.432  0.3744 -0.6682 -0.1526
  110MOL0     C14776   7.417  11.452  11.356  0.9925 -0.0532  0.9213
  110MOL0     C14777   7.281  11.487  11.407 -0.4908 -0.3097 -0.8015
  110MOL0     C14778   7.202  11.601  11.339  1.3204  0.2834 -0.7196
  110MOL0     C14779   7.271  11.729  11.359 -0.3269 -1.3261  0.2026
  110MOL0     C14780   7.334  11.832  11.351 -0.8533  0.5895 -0.0547
  110MOL0     C14781   7.508  11.125  11.214  0.7824 -0.1558 -0.0513
  110MOL0     C14782   7.533  11.034  11.113 -0.6663 -0.0469  0.4405
  110MOL0     H14783   7.400  10.827  10.755  0.8559  0.4856 -0.0554
  110MOL0     H14784   7.301  10.598  10.664 -1.3860  1.2487  2.4372
  110MOL0     H14785   7.354  10.458  10.473 -0.9465 -0.3538  0.3474
  110MOL0     H14786   7.525  10.414  10.470 -0.4545  0.8436 -0.3905
  110MOL0     H14787   7.363  10.253  10.328 -1.2144 -1.1900  0.1350
  110MOL0     H14788   7.482  10.170  10.433 -0.9311 -1.6846 -2.2974
  110MOL0     H14789   7.304  10.087  10.561  2.6784  0.8540  1.1965
  110MOL0     H14790   7.238  10.259  10.579  1.2866  3.3602 -2.8057
  110MOL0     H14791   7.182  10.087  10.345 -0.8179  0.2148  0.5562
  110MOL0     H14792   7.095  10.082  10.500  1.9025 -2.6307 -1.3351
  110MOL0     H14793   7.044  10.355  10.477  1.1455  3.2970 -2.0006
  110MOL0     H14794   7.126  10.340  10.326 -0.5993  1.2136 -0.1809
  110MOL0     H14795   6.964  10.173  10.252  1.3491  0.0731  0.9713
  110MOL0     H14796   6.885  10.174  10.410 -0.7709  0.2237 -0.8853
  110MOL0     H14797   6.809  10.392  10.385  0.3833  4.7001 -1.6954
  110MOL0     H14798   6.936  10.434  10.270  3.8332 -2.7432 -1.2773
  110MOL0     H14799   6.690  10.406  10.179  0.6233 -0.1061 -0.5140
  110MOL0     H14800   6.706  10.232  10.207  0.2141 -1.3822 -2.9661
  110MOL0     H14801   6.875  10.511  10.007  0.7286 -0.2917 -0.7605
  110MOL0     H14802   6.909  10.314   9.657  1.3087 -1.4718  2.6966
  110MOL0     H14803   6.778  10.429   9.702  0.7551 -0.6463 -1.1608
  110MOL0     H14804   7.073  10.484   9.722 -0.0652  0.1358  0.4598
  110MOL0     H14805   6.937  10.595   9.776  1.8120  0.7468  0.1377
  110MOL0     H14806   7.023  10.679   9.583 -0.1580  0.1740  0.0656
  110MOL0     H14807   6.853  10.633   9.569 -0.9218 -0.7276  0.6947
  110MOL0     H14808   7.011  10.413   9.458  3.4282  0.2433 -2.8911
  110MOL0     H14809   7.125  10.535   9.464  0.1046 -0.0800 -2.9520
  110MOL0     H14810   7.133  10.679   9.166 -0.9053 -0.0162  0.4263
  110MOL0     H14811   7.185  10.645   8.854  0.1343 -0.7474 -0.6762
  110MOL0     H14812   7.274  10.658   9.003  2.7123  0.7800 -1.7309
  110MOL0     H14813   7.294  10.510   8.917  1.7636  1.6403 -0.0332
  110MOL0     H14814   7.043   9.956   8.982 -0.4739  0.2043  0.0576
  110MOL0     H14815   7.148   9.764   8.874  0.1192  1.6024  1.6293
  110MOL0     H14816   7.355   9.858   8.497  3.7285 -0.7868 -0.4915
  110MOL0     H14817   7.415   9.758   8.632 -2.2602 -4.4445  1.5948
  110MOL0     H14818   7.271   9.631   8.389 -1.6530 -1.4702  0.9674
  110MOL0     H14819   7.441   9.653   8.403 -0.3783  2.7341 -0.2260
  110MOL0     H14820   7.360   9.432   8.463 -1.3518  0.2115 -1.0079
  110MOL0     H14821   7.239   9.501   8.573  0.2783  1.6347  1.4744
  110MOL0     H14822   7.404   9.587   8.718  0.3852  0.5815 -0.5182
  110MOL0     H14823   7.407   9.396   8.705  3.7062 -1.4891 -0.6071
  110MOL0     H14824   7.651   9.527   8.707 -0.2995  1.0149 -0.1691
  110MOL0     H14825   7.608   9.573   8.552  1.5689  0.6691  1.1655
  110MOL0     H14826   7.633   9.291   8.633 -0.4370 -0.0029  0.1380
  110MOL0     H14827   7.592   9.352   8.470 -0.5118  2.7166 -0.1204
  110MOL0     H14828   7.833   9.288   8.534 -3.2577 -1.3687 -0.8871
  110MOL0     H14829   7.844   9.429   8.648  0.0783  1.0880 -1.7010
  110MOL0     H14830   7.872   9.580   8.465  1.0127  0.0349  0.5820
  110MOL0     H14831   7.763   9.490   8.365 -0.2248  1.2692  2.3265
  110MOL0     H14832   7.165   9.981   8.504 -0.2633  1.5191 -0.3765
  110MOL0     H14833   7.033  10.184   8.622 -2.4999 -1.1474  0.6553
  110MOL0     H14834   6.869  10.278   9.052  0.7044  0.3573 -1.7996
  110MOL0     H14835   6.801  10.413   9.242 -0.4931  1.4855  1.8289
  110MOL0     H14836   7.658  10.396  10.768  0.5163  0.5955 -0.2061
  110MOL0     H14837   7.737  10.604  10.907  0.6706 -1.1476 -0.9324
  110MOL0     H14838   7.864  11.003  11.142  0.2666 -0.3045  3.1157
  110MOL0     H14839   7.816  11.203  11.299  0.4561 -1.1428  0.9886
  110MOL0     H14840   7.409  11.250  11.427 -0.2480 -0.0969 -1.5971
  110MOL0     H14841   7.499  11.357  11.537  1.5263 -0.4940 -0.3971
  110MOL0     H14842   7.416  11.437  11.248  0.9888 -0.9107  1.0379
  110MOL0     H14843   7.489  11.534  11.369  3.7490 -2.2847  0.6236
  110MOL0     H14844   7.289  11.525  11.509 -2.0738  2.5752 -1.6429
  110MOL0     H14845   7.223  11.394  11.415  0.8804 -1.0538  1.5037
  110MOL0     H14846   7.098  11.610  11.369  0.6408 -1.6347 -2.2923
  110MOL0     H14847   7.197  11.588  11.230  1.3026  2.0355 -0.9522
  110MOL0     H14848   7.400  11.915  11.336  0.7876 -0.9766 -1.9866
  110MOL0     H14849   7.408  11.150  11.247  1.3497  0.5289  1.2251
  110MOL0     H14850   7.444  10.991  11.070 -0.0251 -2.2015  1.1158
  111MOL0     O14851   5.200   0.613   9.919  0.4621  0.4975 -0.6849
  111MOL0     C14852   5.233   0.546  10.013 -1.3210 -0.2326 -0.4117
  111MOL0     O14853   5.164   0.533  10.136 -0.3467  0.0487 -0.0440
  111MOL0     C14854   5.033   0.581  10.162 -0.0837 -0.4390  0.0650
  111MOL0     C14855   5.002   0.572  10.300  0.4757  0.5676 -0.0791
  111MOL0     C14856   4.883   0.618  10.356  0.6761 -0.6069 -0.7709
  111MOL0     C14857   4.787   0.683  10.272 -1.6613  0.2789  0.4986
  111MOL0     O14858   4.671   0.729  10.320  0.7773 -0.3404 -0.0002
  111MOL0     C14859   4.661   0.820  10.431  0.6000  0.0967 -0.4311
  111MOL0     C14860   4.522   0.859  10.447  1.1064 -0.2058 -0.2525
  111MOL0     C14861   4.473   0.950  10.337  0.2012 -0.1220  0.9779
  111MOL0     C14862   4.326   0.978  10.334  0.6693  0.1063  1.0807
  111MOL0     C14863   4.265   1.035  10.457  0.4105  0.3290  0.1222
  111MOL0     C14864   4.120   1.065  10.417  0.1762  0.6000 -0.2848
  111MOL0     C14865   4.040   1.118  10.533 -0.2833  0.1831  0.4273
  111MOL0     C14866   3.909   1.036  10.548 -0.3498 -0.4306 -1.0072
  111MOL0     N14867   3.836   1.096  10.660  0.0510  0.9317  0.2574
  111MOL0     C14868   3.731   1.183  10.654  0.3360 -0.6045 -1.2661
  111MOL0     C14869   3.677   1.162  10.776  0.0410  0.4938  0.4138
  111MOL0     C14870   3.555   1.233  10.826 -1.1624  0.4398 -0.4145
  111MOL0     C14871   3.450   1.273  10.724 -0.5406 -0.6634  0.2616
  111MOL0     C14872   3.354   1.158  10.678  0.1132 -0.9360 -0.1255
  111MOL0     C14873   3.223   1.217  10.622  0.7763  0.6165  0.0398
  111MOL0     O14874   3.115   1.169  10.699  0.0198  0.7512 -0.3931
  111MOL0     C14875   2.989   1.211  10.688 -0.6197 -1.2049  0.1412
  111MOL0     C14876   2.916   1.216  10.577 -0.3329 -0.4211  0.3888
  111MOL0     C14877   2.783   1.257  10.572 -0.2389  0.1154  0.0187
  111MOL0     C14878   2.720   1.280  10.432  0.1140  1.0985 -0.8421
  111MOL0     C14879   2.725   1.304  10.690  0.2101 -0.1982  0.5440
  111MOL0     C14880   2.582   1.358  10.695  0.0863 -0.4760  0.3801
  111MOL0     O14881   2.546   1.434  10.801  0.0550  0.1283 -0.0533
  111MOL0     C14882   2.437   1.396  10.880  0.3738 -0.1831 -0.1149
  111MOL0     C14883   2.385   1.488  10.963  0.6506  0.0159  0.1897
  111MOL0     C14884   2.280   1.455  11.048 -0.9133 -1.1184 -0.4061
  111MOL0     C14885   2.222   1.327  11.053 -0.6317 -0.0801 -0.2497
  111MOL0     O14886   2.130   1.276  11.140  0.1515  0.6466  0.1114
  111MOL0     C14887   2.070   1.362  11.242 -0.2524  0.9271 -0.8335
  111MOL0     C14888   1.942   1.424  11.184 -0.1718 -1.7035  0.2809
  111MOL0     C14889   1.898   1.531  11.297  0.6160  0.2671  0.8124
  111MOL0     C14890   1.767   1.615  11.255  0.5561 -0.2426 -0.5641
  111MOL0     C14891   1.725   1.730  11.364  0.1191  0.1727  0.3856
  111MOL0     C14892   1.726   1.677  11.508  0.4383 -0.3803  0.1753
  111MOL0     C14893   1.631   1.558  11.528 -0.6752 -0.0085 -0.2464
  111MOL0     C14894   1.631   1.528  11.679 -0.4729  0.5291 -0.4384
  111MOL0    Cl14895   1.578   1.678  11.769 -0.0778  0.0243  0.0487
  111MOL0     C14896   2.271   1.241  10.958  0.1226  0.3506 -0.7252
  111MOL0     C14897   2.371   1.271  10.877 -0.5522  0.1676  0.1026
  111MOL0     O14898   2.504   1.318  10.606  0.1496  0.2580  0.3517
  111MOL0     C14899   2.794   1.306  10.813  0.2552  0.7075 -0.0721
  111MOL0     C14900   2.930   1.261  10.805  0.9238  0.1358 -0.4248
  111MOL0     N14901   3.751   1.074  10.851 -0.7274 -0.0361  0.2195
  111MOL0     N14902   3.850   1.039  10.782  0.2463 -0.1793  1.0289
  111MOL0     C14903   4.816   0.689  10.133  1.2100 -0.4086 -0.5229
  111MOL0     C14904   4.932   0.636  10.083 -0.1122  1.5374  0.2763
  111MOL0     C14905   5.367   0.486   9.998 -0.7157 -0.2847  0.4092
  111MOL0     C14906   5.461   0.532   9.905  1.0255  0.0457  0.6231
  111MOL0     C14907   5.581   0.472   9.891 -0.5649 -0.6344  0.0494
  111MOL0     C14908   5.630   0.373   9.973 -0.5902  0.1793  0.4506
  111MOL0     O14909   5.763   0.329   9.961  0.2249 -1.0368  0.0106
  111MOL0     C14910   5.766   0.200   9.897  0.1464 -0.1371  0.0649
  111MOL0     C14911   5.826   0.229   9.766 -0.3637  1.3365  0.1505
  111MOL0     C14912   5.861   0.103   9.673  0.1620  0.4094 -0.4536
  111MOL0     C14913   6.002   0.116   9.624 -0.3523 -0.6135 -0.0249
  111MOL0     C14914   6.032   0.008   9.526 -0.0757  0.8203  0.4185
  111MOL0     C14915   6.053  -0.075   9.446 -0.1577 -0.2171 -0.1950
  111MOL0     C14916   5.546   0.317  10.072  0.3472 -0.6260 -0.2115
  111MOL0     C14917   5.420   0.386  10.094 -0.1825 -0.2385  0.7931
  111MOL0     H14918   5.086   0.529  10.354  1.0982  0.4421 -1.1255
  111MOL0     H14919   4.863   0.605  10.462  3.2698 -1.1948 -0.2924
  111MOL0     H14920   4.684   0.767  10.524  1.1832  1.7088  0.3726
  111MOL0     H14921   4.726   0.907  10.416  2.6567 -1.1927  0.5429
  111MOL0     H14922   4.456   0.774  10.464  1.6183 -0.7350 -0.8700
  111MOL0     H14923   4.513   0.916  10.539 -3.7792  0.1155 -0.6569
  111MOL0     H14924   4.532   1.041  10.325 -1.0329  0.4698 -1.2547
  111MOL0     H14925   4.498   0.910  10.238 -0.7704 -0.2569  0.7786
  111MOL0     H14926   4.306   1.047  10.252  0.2421 -1.8442 -0.5320
  111MOL0     H14927   4.270   0.888  10.307  0.1626 -0.3771  3.4540
  111MOL0     H14928   4.274   0.961  10.538 -1.1589  1.3793  1.3040
  111MOL0     H14929   4.329   1.123  10.469  2.1168 -0.4783 -2.3203
  111MOL0     H14930   4.110   1.129  10.328 -3.6251 -0.2928 -0.6451
  111MOL0     H14931   4.077   0.971  10.382  1.9087  0.2244 -1.5726
  111MOL0     H14932   4.104   1.121  10.621  0.7125  0.1317 -0.2767
  111MOL0     H14933   4.021   1.222  10.507 -1.9328 -0.4736 -1.3629
  111MOL0     H14934   3.924   0.929  10.567 -3.9240 -1.5119 -3.1987
  111MOL0     H14935   3.856   1.038  10.452 -2.9564 -0.8699  0.3343
  111MOL0     H14936   3.698   1.254  10.579 -0.1311  3.4615  2.4515
  111MOL0     H14937   3.513   1.174  10.908  1.4701 -2.2258 -0.8276
  111MOL0     H14938   3.601   1.323  10.869  0.5261 -0.7516  0.3724
  111MOL0     H14939   3.503   1.304  10.633  2.9117 -1.1605  1.9094
  111MOL0     H14940   3.397   1.365  10.751  2.0812  2.1680 -3.1333
  111MOL0     H14941   3.326   1.096  10.764 -3.1229  1.8021  1.0387
  111MOL0     H14942   3.397   1.098  10.598 -2.6200 -0.4962 -2.0377
  111MOL0     H14943   3.210   1.181  10.519  0.1011  1.1613 -0.0770
  111MOL0     H14944   3.220   1.326  10.617 -0.5545  0.8566  3.6695
  111MOL0     H14945   2.962   1.166  10.492 -1.2277 -2.8300  1.2177
  111MOL0     H14946   2.685   1.383  10.418 -1.0643  0.7452 -0.5536
  111MOL0     H14947   2.794   1.264  10.353 -0.6755 -0.2274 -1.3383
  111MOL0     H14948   2.636   1.216  10.405 -0.2990  2.2181 -2.3285
  111MOL0     H14949   2.425   1.589  10.965  0.4673  0.0832  2.3602
  111MOL0     H14950   2.222   1.526  11.106 -1.4742  1.2679 -3.5889
  111MOL0     H14951   2.036   1.303  11.327 -0.9245  1.2439 -0.8755
  111MOL0     H14952   2.141   1.433  11.286 -0.7250  0.6476  0.4423
  111MOL0     H14953   1.964   1.465  11.085  1.7475 -2.8765  0.1815
  111MOL0     H14954   1.863   1.350  11.169 -1.6227 -0.2693  0.5570
  111MOL0     H14955   1.975   1.609  11.307 -1.7333  3.1820 -1.9120
  111MOL0     H14956   1.880   1.475  11.389  0.1574  2.1271  1.9095
  111MOL0     H14957   1.799   1.660  11.161  0.8216 -3.4185 -2.1471
  111MOL0     H14958   1.687   1.542  11.240  1.7803 -1.3855 -1.8424
  111MOL0     H14959   1.622   1.763  11.347 -0.2339 -0.6403  0.8825
  111MOL0     H14960   1.812   1.796  11.361  0.6671 -0.5530 -1.2941
  111MOL0     H14961   1.830   1.651  11.531  1.2892 -3.3447 -5.2901
  111MOL0     H14962   1.708   1.761  11.576 -3.4350  1.0697 -2.3240
  111MOL0     H14963   1.667   1.471  11.473 -1.1468  0.7734 -1.8590
  111MOL0     H14964   1.530   1.577  11.489 -0.8824  0.0413  0.2976
  111MOL0     H14965   1.735   1.524  11.711 -0.7906  1.1447  0.7342
  111MOL0     H14966   1.577   1.441  11.718 -4.0143  2.5726 -0.3704
  111MOL0     H14967   2.217   1.148  10.971  0.2102  0.6762  3.0007
  111MOL0     H14968   2.395   1.179  10.824  1.3395  0.2104  0.8111
  111MOL0     H14969   2.739   1.341  10.899  0.0504  0.5680 -0.1443
  111MOL0     H14970   2.998   1.255  10.889  1.7563 -0.4580 -1.1158
  111MOL0     H14971   4.743   0.725  10.061  1.4771 -0.3847 -0.7865
  111MOL0     H14972   4.941   0.639   9.975 -0.8525  3.2871  0.2286
  111MOL0     H14973   5.430   0.621   9.851  1.4206 -1.2321 -1.8362
  111MOL0     H14974   5.644   0.502   9.808 -0.2009 -1.3200  0.0730
  111MOL0     H14975   5.815   0.127   9.962  0.6230  0.3229  0.2258
  111MOL0     H14976   5.668   0.152   9.886  0.2430 -0.6676  1.3705
  111MOL0     H14977   5.915   0.289   9.788 -0.1723  1.4263 -0.8336
  111MOL0     H14978   5.753   0.298   9.722 -1.0810  1.0016  0.7835
  111MOL0     H14979   5.788   0.102   9.591  0.1420  1.0480 -0.4512
  111MOL0     H14980   5.856   0.010   9.731  2.3680 -0.0123 -0.8465
  111MOL0     H14981   6.069   0.117   9.711 -0.1024  3.2047 -0.0770
  111MOL0     H14982   6.024   0.212   9.575  0.5962 -1.1120 -0.6072
  111MOL0     H14983   6.073  -0.154   9.377 -0.0397 -0.6750  0.3526
  111MOL0     H14984   5.563   0.226  10.129  3.9648 -0.8396 -1.3708
  111MOL0     H14985   5.356   0.353  10.175  0.8398 -1.2670  1.2249
  112MOL0     O14986   1.892   2.193   3.268 -0.2777 -0.7714  0.2634
  112MOL0     C14987   1.941   2.128   3.171  0.3135 -0.0860  0.0050
  112MOL0     O14988   1.873   2.077   3.065  0.1574 -0.0053 -0.1114
  112MOL0     C14989   1.749   2.016   3.081  0.1645  0.3292  0.2439
  112MOL0     C14990   1.698   1.986   3.209 -0.6761  0.2954  1.0611
  112MOL0     C14991   1.574   1.928   3.226  0.2585 -0.9777 -0.1070
  112MOL0     C14992   1.499   1.893   3.118 -0.8176 -0.4329  0.7315
  112MOL0     O14993   1.372   1.852   3.122 -0.3123  0.5049 -0.3451
  112MOL0     C14994   1.313   1.843   3.261  0.3798  0.4749 -0.1867
  112MOL0     C14995   1.171   1.806   3.243 -0.4026 -0.3541  0.4051
  112MOL0     C14996   1.093   1.826   3.379  0.3648  0.4583  0.9404
  112MOL0     C14997   1.139   1.717   3.485 -0.8883 -0.4940  0.6050
  112MOL0     C14998   1.060   1.737   3.616  0.0928 -0.1749  0.0524
  112MOL0     C14999   1.101   1.873   3.683  0.5923  0.3951  0.0151
  112MOL0     C15000   1.018   1.888   3.805 -0.0620  0.2982 -0.3289
  112MOL0     C15001   1.039   2.011   3.876  0.5347 -0.7201  0.6040
  112MOL0     N15002   1.147   2.012   3.973 -0.4235  0.3027  1.0754
  112MOL0     C15003   1.280   1.985   3.946  0.5462 -0.1727 -0.6109
  112MOL0     C15004   1.331   1.940   4.064 -0.1272 -0.8844 -0.4332
  112MOL0     C15005   1.464   1.881   4.087  0.4449 -0.1553 -0.7810
  112MOL0     C15006   1.470   1.725   4.079  0.7296 -0.8998 -0.7094
  112MOL0     C15007   1.619   1.677   4.081 -0.8152  0.4029  1.2346
  112MOL0     C15008   1.683   1.681   4.226 -0.2607 -0.1130  0.1381
  112MOL0     O15009   1.586   1.627   4.315  0.0236 -0.6833 -0.0738
  112MOL0     C15010   1.629   1.632   4.445  0.5615  0.3619 -0.9105
  112MOL0     C15011   1.744   1.564   4.486 -0.5769 -0.8881 -0.9506
  112MOL0     C15012   1.797   1.572   4.622  1.4958 -0.6000 -0.1112
  112MOL0     C15013   1.925   1.494   4.660  1.0514  0.1307 -0.1264
  112MOL0     C15014   1.728   1.645   4.717  0.8623 -0.4056 -0.5419
  112MOL0     C15015   1.779   1.682   4.851  1.2234  0.7281 -0.3108
  112MOL0     O15016   1.684   1.709   4.945  0.1789  0.5387 -0.4652
  112MOL0     C15017   1.706   1.781   5.058 -0.4789 -0.9155 -0.1973
  112MOL0     C15018   1.763   1.724   5.177 -0.0835  0.4016  0.7775
  112MOL0     C15019   1.801   1.810   5.277 -0.8925 -0.7994 -0.0030
  112MOL0     C15020   1.801   1.947   5.265 -1.0932 -0.3764 -0.4105
  112MOL0     O15021   1.838   2.020   5.381 -0.1899 -0.0992  0.6762
  112MOL0     C15022   1.732   2.056   5.462 -1.2899  1.0688  0.0682
  112MOL0     C15023   1.769   2.109   5.601  0.3544  0.2027  0.7614
  112MOL0     C15024   1.867   2.229   5.599  0.1840  0.0616  0.2398
  112MOL0     C15025   1.798   2.355   5.529 -0.1338  0.3317 -0.6365
  112MOL0     C15026   1.901   2.457   5.489  0.6183 -0.0402 -0.9073
  112MOL0     C15027   1.957   2.523   5.609 -0.4196  0.4529  0.9260
  112MOL0     C15028   1.854   2.608   5.687 -0.9724  0.2364  0.2875
  112MOL0     C15029   1.919   2.712   5.775  0.0185 -0.0116  0.5080
  112MOL0    Cl15030   1.978   2.621   5.922 -0.0615 -0.4340 -0.3130
  112MOL0     C15031   1.742   2.006   5.148 -0.4153  0.3484  0.0294
  112MOL0     C15032   1.702   1.928   5.041  0.7744 -0.0789  0.0317
  112MOL0     O15033   1.898   1.676   4.872  0.1625  0.4272  0.2909
  112MOL0     C15034   1.606   1.700   4.677 -0.5341  0.0011 -1.0303
  112MOL0     C15035   1.558   1.694   4.545 -0.2129 -0.3932 -0.1099
  112MOL0     N15036   1.237   1.950   4.161  0.7413 -0.5883 -0.0094
  112MOL0     N15037   1.126   1.992   4.105  0.2528 -0.0384  1.0253
  112MOL0     C15038   1.546   1.914   2.989  0.7345  0.1153  0.2969
  112MOL0     C15039   1.682   1.957   2.970 -1.0195 -0.6246  0.6964
  112MOL0     C15040   2.091   2.100   3.172 -0.6392  0.5268  0.4372
  112MOL0     C15041   2.149   2.022   3.068  0.1285  0.5145 -0.5372
  112MOL0     C15042   2.279   1.975   3.094  0.4176  0.8460 -0.2059
  112MOL0     C15043   2.354   2.003   3.206  0.8637 -0.2905 -0.4906
  112MOL0     O15044   2.488   1.983   3.222  0.1035  0.7839 -0.4927
  112MOL0     C15045   2.552   1.884   3.141 -0.3715 -0.5580  0.8103
  112MOL0     C15046   2.668   1.836   3.225 -0.0085 -0.8925 -0.0787
  112MOL0     C15047   2.741   1.729   3.148  0.3802 -0.4558 -0.0907
  112MOL0     C15048   2.849   1.654   3.243  1.0054 -0.1405 -0.4722
  112MOL0     C15049   2.784   1.571   3.346 -0.6033  0.7506  0.2574
  112MOL0     C15050   2.741   1.505   3.433  0.3992 -0.4771 -0.5834
  112MOL0     C15051   2.294   2.089   3.299  0.2970 -0.6337  0.3294
  112MOL0     C15052   2.167   2.134   3.287  0.2460  0.1476 -0.0310
  112MOL0     H15053   1.750   2.000   3.303  1.2167 -2.7856  0.6155
  112MOL0     H15054   1.528   1.918   3.323 -1.6580 -0.1289 -0.8901
  112MOL0     H15055   1.362   1.764   3.319  0.1227 -0.5064 -1.2830
  112MOL0     H15056   1.314   1.947   3.296 -0.0722  0.0002  1.2746
  112MOL0     H15057   1.122   1.875   3.174 -1.7242 -0.7209  0.9506
  112MOL0     H15058   1.173   1.705   3.202 -0.8876  1.0966 -3.6249
  112MOL0     H15059   1.126   1.924   3.414  2.6424  0.7782 -1.7115
  112MOL0     H15060   0.988   1.803   3.359  1.4971 -2.7622 -2.6416
  112MOL0     H15061   1.135   1.614   3.448  2.6029 -1.2061  1.8070
  112MOL0     H15062   1.245   1.718   3.514 -0.9588  1.6242  0.9408
  112MOL0     H15063   0.955   1.737   3.587 -0.5029 -4.7175  1.4421
  112MOL0     H15064   1.070   1.647   3.678  2.3348  1.1437  1.7650
  112MOL0     H15065   1.209   1.885   3.693  0.5400  0.6554  0.2728
  112MOL0     H15066   1.086   1.961   3.619  2.3484  0.6439 -0.1111
  112MOL0     H15067   0.913   1.876   3.777 -0.5502  0.9492  1.1338
  112MOL0     H15068   1.029   1.812   3.882  0.2650 -1.4985 -2.0658
  112MOL0     H15069   0.949   2.039   3.931  0.2676 -0.8406  0.2338
  112MOL0     H15070   1.057   2.082   3.794 -2.9966  0.0216  0.3279
  112MOL0     H15071   1.324   1.961   3.850  2.6253  2.0799 -0.3019
  112MOL0     H15072   1.526   1.921   4.006  0.3685  0.1269 -0.6983
  112MOL0     H15073   1.496   1.898   4.190 -0.7370 -0.7256 -0.3000
  112MOL0     H15074   1.428   1.696   3.982 -0.3751 -0.8653 -0.2571
  112MOL0     H15075   1.405   1.677   4.153 -0.0735  0.0643 -0.7692
  112MOL0     H15076   1.677   1.738   4.011 -4.7305  0.3695 -2.4728
  112MOL0     H15077   1.626   1.575   4.043 -1.7785 -0.0911  2.3461
  112MOL0     H15078   1.705   1.787   4.242  2.0683  0.0447 -3.2177
  112MOL0     H15079   1.774   1.621   4.241 -1.3351 -1.9296 -0.2720
  112MOL0     H15080   1.814   1.515   4.419  0.8645  1.3858 -1.2064
  112MOL0     H15081   2.011   1.561   4.668  2.1839 -1.2603 -0.3462
  112MOL0     H15082   1.922   1.437   4.754  3.7141 -0.6711 -0.4333
  112MOL0     H15083   1.945   1.410   4.593 -0.9184  1.4499 -2.5234
  112MOL0     H15084   1.766   1.615   5.178  0.6326  0.4155  0.3880
  112MOL0     H15085   1.851   1.767   5.363 -1.9063 -0.6128  0.6892
  112MOL0     H15086   1.665   2.121   5.404 -0.5573 -1.5650 -4.2234
  112MOL0     H15087   1.674   1.966   5.485 -0.7574  0.4346 -0.9583
  112MOL0     H15088   1.674   2.132   5.648 -0.9863 -1.0462 -1.1711
  112MOL0     H15089   1.822   2.023   5.644 -0.3101 -1.6041 -1.7743
  112MOL0     H15090   1.957   2.205   5.542 -1.7658  1.1096 -3.6067
  112MOL0     H15091   1.892   2.250   5.704 -1.5517 -3.7510  1.5903
  112MOL0     H15092   1.741   2.310   5.446  0.2092 -1.8114  0.2357
  112MOL0     H15093   1.716   2.388   5.593 -2.8770  0.1385 -3.7278
  112MOL0     H15094   1.858   2.538   5.428  0.0478 -0.2769 -0.8224
  112MOL0     H15095   1.982   2.409   5.433 -1.2153  0.8181 -4.6106
  112MOL0     H15096   2.005   2.451   5.677 -1.9792 -1.9879 -0.4167
  112MOL0     H15097   2.044   2.587   5.590 -1.0724  1.1872  0.3606
  112MOL0     H15098   1.793   2.538   5.744  0.1452  0.3803  1.7277
  112MOL0     H15099   1.780   2.655   5.621 -3.0054 -2.4984  0.4500
  112MOL0     H15100   1.836   2.782   5.786 -0.0192  0.3161 -1.5077
  112MOL0     H15101   2.001   2.776   5.742 -0.9589  0.4772 -1.0672
  112MOL0     H15102   1.715   2.111   5.149  0.0113  0.4618  0.2121
  112MOL0     H15103   1.670   1.971   4.946  0.4862 -0.2074  0.0698
  112MOL0     H15104   1.541   1.749   4.749 -0.4259  2.3494 -2.4483
  112MOL0     H15105   1.457   1.729   4.529 -0.1516 -0.7840 -1.4806
  112MOL0     H15106   1.473   1.893   2.912 -3.0848  3.3657  2.6450
  112MOL0     H15107   1.733   1.976   2.876 -0.7704 -0.1187  0.9281
  112MOL0     H15108   2.099   1.997   2.975  0.0040  0.5153 -0.4705
  112MOL0     H15109   2.333   1.916   3.021  2.2155  1.3518  0.6715
  112MOL0     H15110   2.497   1.795   3.108 -0.5078 -0.8424  1.7589
  112MOL0     H15111   2.587   1.931   3.048  0.1657  0.4653  1.5032
  112MOL0     H15112   2.644   1.801   3.326 -0.9472 -0.9340 -0.3118
  112MOL0     H15113   2.734   1.918   3.254 -0.2055 -0.2444 -1.4084
  112MOL0     H15114   2.798   1.779   3.068 -1.6221  1.8555 -0.1852
  112MOL0     H15115   2.663   1.661   3.111 -1.3362  2.2540 -1.7961
  112MOL0     H15116   2.903   1.735   3.293  4.1381 -1.4561 -1.4977
  112MOL0     H15117   2.915   1.601   3.174  0.8583  0.6109 -1.2203
  112MOL0     H15118   2.710   1.443   3.515  2.5793 -0.8718  0.0181
  112MOL0     H15119   2.357   2.130   3.377  1.1846 -1.7879  0.2662
  112MOL0     H15120   2.130   2.205   3.360  0.8841  0.9776 -0.4891
  113MOL0     O15121   7.141   4.966   4.490 -0.5598 -0.6425 -0.0691
  113MOL0     C15122   7.226   4.921   4.568  0.2343  0.2074  0.4992
  113MOL0     O15123   7.203   4.925   4.704  0.5748  0.3528 -0.0770
  113MOL0     C15124   7.099   4.994   4.758 -0.9525 -0.3425  0.1877
  113MOL0     C15125   7.090   5.132   4.719 -0.5292  0.0389 -0.9239
  113MOL0     C15126   6.975   5.210   4.756 -0.8067  0.1814  0.5563
  113MOL0     C15127   6.876   5.144   4.825 -0.6854  0.8155  0.6846
  113MOL0     O15128   6.763   5.222   4.844 -0.0243  0.7912 -0.4464
  113MOL0     C15129   6.654   5.156   4.908  0.2032  0.8366  0.3773
  113MOL0     C15130   6.672   5.154   5.059 -0.2773 -0.2196  0.0010
  113MOL0     C15131   6.707   5.295   5.121  0.4138  0.8230  0.2243
  113MOL0     C15132   6.624   5.335   5.240 -0.1108 -0.0033  0.0621
  113MOL0     C15133   6.660   5.248   5.364  0.3568  0.4151  0.1332
  113MOL0     C15134   6.775   5.302   5.454 -0.3901 -0.5408 -1.2331
  113MOL0     C15135   6.813   5.197   5.561  1.0156  0.8260 -0.2278
  113MOL0     C15136   6.960   5.198   5.598  0.8172 -0.3130 -0.2939
  113MOL0     N15137   6.996   5.109   5.719 -1.0956 -0.6202  0.0711
  113MOL0     C15138   6.968   5.140   5.854 -1.2193  0.6307 -0.9381
  113MOL0     C15139   6.980   5.022   5.918 -0.3136  0.1868  0.6205
  113MOL0     C15140   6.968   5.003   6.065 -0.2706  0.0838 -0.5176
  113MOL0     C15141   6.859   4.908   6.094 -0.0844 -0.4281 -0.1408
  113MOL0     C15142   6.851   4.895   6.242  0.1929  0.3515  0.3845
  113MOL0     C15143   6.759   4.780   6.290  0.9860  1.1887  0.1779
  113MOL0     O15144   6.799   4.660   6.237 -0.6317  0.4508  0.7068
  113MOL0     C15145   6.720   4.547   6.233  0.1269  0.2168 -0.4603
  113MOL0     C15146   6.790   4.431   6.188 -0.0389 -0.1952  0.9037
  113MOL0     C15147   6.712   4.319   6.168 -0.6308  0.4437  0.7500
  113MOL0     C15148   6.778   4.194   6.115  0.7212  1.0072 -0.2863
  113MOL0     C15149   6.575   4.312   6.230 -0.6195 -0.7108 -0.0308
  113MOL0     C15150   6.498   4.188   6.256  0.3755  0.7976  0.2375
  113MOL0     O15151   6.574   4.083   6.283 -0.4567  0.4269  0.1886
  113MOL0     C15152   6.533   3.956   6.309  0.1098 -0.2475  0.5231
  113MOL0     C15153   6.428   3.892   6.258 -1.0180  0.3359  0.5213
  113MOL0     C15154   6.410   3.755   6.277 -0.0285  0.1309 -0.6243
  113MOL0     C15155   6.498   3.683   6.356 -0.2607 -0.4468  0.5603
  113MOL0     O15156   6.486   3.557   6.399 -0.4320  0.6552 -0.0212
  113MOL0     C15157   6.353   3.494   6.381 -0.0131 -0.0763 -1.0542
  113MOL0     C15158   6.341   3.356   6.454 -0.0565  0.1741 -0.0174
  113MOL0     C15159   6.396   3.368   6.596 -0.4980 -0.6964 -0.0746
  113MOL0     C15160   6.322   3.472   6.687  0.2085 -0.0743  1.6012
  113MOL0     C15161   6.401   3.463   6.817  0.6339  0.1255 -0.2031
  113MOL0     C15162   6.338   3.542   6.933 -0.3061 -0.6616 -0.2970
  113MOL0     C15163   6.418   3.539   7.069 -0.0243 -0.0189 -0.1201
  113MOL0     C15164   6.441   3.402   7.137 -0.0541  0.0701 -0.6124
  113MOL0    Cl15165   6.443   3.421   7.315 -0.0833  0.4384  0.1535
  113MOL0     C15166   6.606   3.753   6.409  0.2842 -0.1346 -0.2519
  113MOL0     C15167   6.621   3.889   6.384 -1.1163 -0.7451  0.0419
  113MOL0     O15168   6.382   4.190   6.252  0.3723  0.0200  0.5581
  113MOL0     C15169   6.518   4.433   6.273 -0.2395  0.0074  0.2124
  113MOL0     C15170   6.587   4.548   6.276  0.4345  0.0060  0.2069
  113MOL0     N15171   7.030   4.928   5.836 -0.4125  0.5165 -0.5633
  113MOL0     N15172   7.038   4.979   5.720 -0.5989 -0.1940 -0.1726
  113MOL0     C15173   6.887   5.009   4.862 -0.5281 -0.2132 -0.5356
  113MOL0     C15174   7.007   4.936   4.841  0.0007  0.1869 -0.4486
  113MOL0     C15175   7.346   4.851   4.523 -0.9499  0.9145  0.5261
  113MOL0     C15176   7.336   4.771   4.410 -1.0170 -0.0863 -0.6887
  113MOL0     C15177   7.438   4.688   4.382  0.7842 -0.3420  0.0168
  113MOL0     C15178   7.558   4.675   4.456  0.2683  0.2144  1.0592
  113MOL0     O15179   7.653   4.595   4.393  0.3145  0.3012  0.1337
  113MOL0     C15180   7.795   4.620   4.428 -0.5760 -0.1439 -0.6136
  113MOL0     C15181   7.853   4.711   4.331 -0.6314 -0.4829 -1.0168
  113MOL0     C15182   7.993   4.761   4.367  0.6768  0.7166 -0.6326
  113MOL0     C15183   8.030   4.861   4.261 -0.1171 -0.1624 -0.3146
  113MOL0     C15184   8.151   4.933   4.302 -0.5165 -0.2050  0.0857
  113MOL0     C15185   8.251   4.985   4.333 -0.2734  0.3676  1.4568
  113MOL0     C15186   7.578   4.762   4.565 -0.1158 -0.3896 -0.3839
  113MOL0     C15187   7.464   4.839   4.604 -0.1107 -0.2130  0.7385
  113MOL0     H15188   7.171   5.176   4.663 -0.1677 -0.9771 -1.2115
  113MOL0     H15189   6.980   5.316   4.731  1.2096 -0.5082 -2.5420
  113MOL0     H15190   6.566   5.220   4.900  0.2755  0.8398 -0.4401
  113MOL0     H15191   6.641   5.066   4.847  0.0463 -0.4065  2.1770
  113MOL0     H15192   6.569   5.135   5.090 -0.7332  4.3080  2.0373
  113MOL0     H15193   6.752   5.082   5.079  0.1883  0.5519  1.0216
  113MOL0     H15194   6.814   5.294   5.145  0.3782  0.2782  0.3743
  113MOL0     H15195   6.702   5.376   5.048  1.7792 -0.6613 -1.6266
  113MOL0     H15196   6.663   5.433   5.270 -2.2535  1.4127 -1.5181
  113MOL0     H15197   6.517   5.356   5.233 -0.4002 -0.6798  1.7813
  113MOL0     H15198   6.569   5.249   5.425 -1.0986  1.4686 -1.9344
  113MOL0     H15199   6.690   5.148   5.333 -1.4595 -0.6435  1.5671
  113MOL0     H15200   6.861   5.329   5.391 -0.9551 -0.2602 -1.8987
  113MOL0     H15201   6.733   5.394   5.494  0.2310 -0.6456 -0.3242
  113MOL0     H15202   6.764   5.201   5.659  3.3336 -0.3687  1.0600
  113MOL0     H15203   6.803   5.096   5.522  2.5654  1.6523 -2.9919
  113MOL0     H15204   6.980   5.303   5.622  0.4774  0.2779 -2.3855
  113MOL0     H15205   7.017   5.169   5.510  1.5737  0.3341 -0.0271
  113MOL0     H15206   6.942   5.241   5.884  0.6127 -0.3425  5.1183
  113MOL0     H15207   7.061   4.967   6.109 -1.2871 -3.0473 -0.6863
  113MOL0     H15208   6.942   5.098   6.113 -0.0645 -0.1564  0.0801
  113MOL0     H15209   6.886   4.818   6.038 -2.5689  0.8656 -3.8275
  113MOL0     H15210   6.760   4.946   6.067  0.2361  2.5975  2.3911
  113MOL0     H15211   6.823   4.991   6.287 -1.6727  1.6496 -3.1535
  113MOL0     H15212   6.952   4.871   6.277  0.9884 -0.2038 -2.1280
  113MOL0     H15213   6.655   4.794   6.258  1.0422 -3.3359 -2.7777
  113MOL0     H15214   6.769   4.776   6.399  3.4196  1.2067  0.0066
  113MOL0     H15215   6.893   4.447   6.157  0.0645 -0.8034  0.9051
  113MOL0     H15216   6.872   4.220   6.064 -0.4626  2.2816 -1.9425
  113MOL0     H15217   6.818   4.127   6.191 -2.2749 -3.4486 -2.2489
  113MOL0     H15218   6.712   4.141   6.046  0.3224 -1.2115  1.7079
  113MOL0     H15219   6.374   3.958   6.190 -1.9812  0.6016  1.5095
  113MOL0     H15220   6.322   3.704   6.241 -0.4765  0.7114 -0.3864
  113MOL0     H15221   6.275   3.551   6.433 -1.4528 -3.1781  0.4362
  113MOL0     H15222   6.318   3.477   6.279 -2.1731 -2.7343  0.0117
  113MOL0     H15223   6.237   3.322   6.463 -0.0721 -1.0177 -3.3852
  113MOL0     H15224   6.387   3.278   6.393 -3.9678 -2.9252  0.5569
  113MOL0     H15225   6.502   3.395   6.591 -0.3067 -1.3249  0.4006
  113MOL0     H15226   6.387   3.270   6.644  3.0092  0.2398  2.9411
  113MOL0     H15227   6.323   3.570   6.638 -0.8567 -1.4650 -1.4894
  113MOL0     H15228   6.216   3.444   6.698  0.3988 -1.6399 -0.0209
  113MOL0     H15229   6.502   3.500   6.796  1.8893 -1.3129  2.7315
  113MOL0     H15230   6.413   3.358   6.843 -0.0357  0.3105  0.9385
  113MOL0     H15231   6.321   3.644   6.897 -2.5369 -0.7478  0.4150
  113MOL0     H15232   6.236   3.507   6.950 -0.4269 -1.4198 -2.3090
  113MOL0     H15233   6.356   3.591   7.142  1.5677  0.6930  0.7915
  113MOL0     H15234   6.515   3.591   7.074 -0.2888  0.3643  1.7415
  113MOL0     H15235   6.534   3.354   7.104  0.2733 -0.5058  1.0639
  113MOL0     H15236   6.357   3.346   7.097 -0.6921 -1.9475  3.0962
  113MOL0     H15237   6.683   3.697   6.461  0.8685  1.2994  0.4837
  113MOL0     H15238   6.712   3.937   6.418  1.2461 -3.3596 -2.0681
  113MOL0     H15239   6.422   4.428   6.322  0.1698 -0.1619  1.0065
  113MOL0     H15240   6.530   4.636   6.306 -0.2762  0.0657 -1.2195
  113MOL0     H15241   6.807   4.957   4.913 -0.3356  0.0187  0.0068
  113MOL0     H15242   7.001   4.836   4.882 -0.0297  1.7525  3.9015
  113MOL0     H15243   7.252   4.773   4.342 -0.5146 -0.2043 -1.3227
  113MOL0     H15244   7.413   4.633   4.292  0.2194  1.7899 -1.1999
  113MOL0     H15245   7.809   4.666   4.526 -0.8677  1.8184 -1.4434
  113MOL0     H15246   7.852   4.526   4.427 -1.2039 -0.5464 -0.0475
  113MOL0     H15247   7.780   4.793   4.324 -3.0603 -2.5588 -1.2541
  113MOL0     H15248   7.853   4.666   4.231  0.6152  0.7679 -1.6067
  113MOL0     H15249   8.063   4.677   4.380 -2.3794 -1.9555 -0.1951
  113MOL0     H15250   7.984   4.798   4.470  0.8790 -0.2423 -0.2597
  113MOL0     H15251   7.950   4.933   4.239 -1.3910 -2.1774 -2.8556
  113MOL0     H15252   8.052   4.810   4.167 -0.0576  0.0897 -0.4385
  113MOL0     H15253   8.341   5.040   4.348 -0.2662  0.2792  1.7408
  113MOL0     H15254   7.668   4.786   4.621 -0.5815 -1.2467  0.7626
  113MOL0     H15255   7.459   4.908   4.688 -1.0055 -1.6613  1.9137
  114MOL0     O15256   8.072   2.976   1.699 -0.3060 -0.0738  0.0311
  114MOL0     C15257   8.154   3.059   1.740 -0.7548 -0.1683  0.3367
  114MOL0     O15258   8.128   3.166   1.821  0.4051 -0.0176 -0.6017
  114MOL0     C15259   8.002   3.202   1.866  0.1801 -0.0293  0.2421
  114MOL0     C15260   7.971   3.339   1.892 -0.0995  0.7577 -0.1777
  114MOL0     C15261   7.857   3.376   1.950  0.2730 -0.5813  0.1908
  114MOL0     C15262   7.758   3.287   1.977 -1.5194  0.4326 -0.1762
  114MOL0     O15263   7.642   3.339   2.034  0.1334  0.0158 -0.1649
  114MOL0     C15264   7.588   3.265   2.147  0.2475  0.1299 -0.4276
  114MOL0     C15265   7.479   3.364   2.201 -0.2331 -0.3036 -0.0678
  114MOL0     C15266   7.435   3.350   2.349  0.3127  0.1251  0.2302
  114MOL0     C15267   7.308   3.423   2.374 -0.4291 -0.0108 -0.5421
  114MOL0     C15268   7.256   3.422   2.520  0.9580 -0.5695 -1.0012
  114MOL0     C15269   7.188   3.284   2.547 -0.4431  0.4297 -0.9269
  114MOL0     C15270   7.089   3.270   2.662  0.2792 -0.6197 -0.7473
  114MOL0     C15271   7.018   3.134   2.648 -0.0862 -0.2158  0.1661
  114MOL0     N15272   6.976   3.100   2.778  0.0498 -0.3439 -0.0848
  114MOL0     C15273   6.887   3.187   2.847 -0.0601  1.4136 -0.2020
  114MOL0     C15274   6.853   3.109   2.953 -0.2862 -0.6110  0.3278
  114MOL0     C15275   6.781   3.157   3.074 -0.6476 -0.8027 -0.2559
  114MOL0     C15276   6.858   3.249   3.163 -0.6689  0.0070 -0.5221
  114MOL0     C15277   6.776   3.281   3.289 -0.3390  0.3913  0.7028
  114MOL0     C15278   6.863   3.344   3.394  0.0500  0.5998 -0.3604
  114MOL0     O15279   6.787   3.336   3.514  0.4832 -0.9563  0.5309
  114MOL0     C15280   6.828   3.423   3.603 -1.0866  0.7815  0.0776
  114MOL0     C15281   6.734   3.485   3.688  0.0450  0.2910  0.1095
  114MOL0     C15282   6.773   3.569   3.798 -0.2417  0.3948 -1.1363
  114MOL0     C15283   6.664   3.630   3.878 -0.6666 -0.1354 -0.1052
  114MOL0     C15284   6.907   3.590   3.822 -0.2863  0.5827 -0.3342
  114MOL0     C15285   6.979   3.678   3.930  0.3757 -0.0418  0.2640
  114MOL0     O15286   7.084   3.643   3.990  0.2883  0.1337  0.9593
  114MOL0     C15287   7.121   3.714   4.096  0.3786  0.2615  0.1778
  114MOL0     C15288   7.228   3.803   4.089  0.1603  0.2875 -0.1062
  114MOL0     C15289   7.270   3.869   4.203 -0.4101  0.7291  0.2891
  114MOL0     C15290   7.199   3.865   4.322 -0.2927 -0.3817 -0.3632
  114MOL0     O15291   7.242   3.922   4.443 -0.2340  0.4974 -0.3322
  114MOL0     C15292   7.343   4.022   4.457  0.0390 -0.1629 -0.6425
  114MOL0     C15293   7.326   4.165   4.413  0.8055 -1.0550 -0.5176
  114MOL0     C15294   7.432   4.271   4.476  0.4449  0.2859 -1.2331
  114MOL0     C15295   7.404   4.318   4.624  0.1653 -0.2821  0.1594
  114MOL0     C15296   7.254   4.354   4.655 -1.5102  0.5426 -0.9041
  114MOL0     C15297   7.198   4.464   4.567  0.0973 -0.7589  0.2698
  114MOL0     C15298   7.104   4.547   4.658 -0.1219  0.3434 -0.2092
  114MOL0     C15299   6.990   4.456   4.707 -0.2010 -0.3753  0.0534
  114MOL0    Cl15300   6.856   4.552   4.778  0.1430 -0.2577  0.1599
  114MOL0     C15301   7.093   3.777   4.327 -0.6847  0.8083  1.0955
  114MOL0     C15302   7.062   3.696   4.218 -1.0503 -1.1224 -0.4426
  114MOL0     O15303   6.916   3.777   3.959  0.1224  0.3065 -0.1581
  114MOL0     C15304   6.996   3.532   3.734 -0.3652 -0.3292  0.3982
  114MOL0     C15305   6.963   3.447   3.626 -0.5253 -0.1741  0.4028
  114MOL0     N15306   6.929   2.991   2.957 -0.2821 -0.5439  0.0804
  114MOL0     N15307   6.997   2.987   2.845  0.2227 -0.6063 -0.9555
  114MOL0     C15308   7.783   3.147   1.950 -0.0277  0.2523  0.3008
  114MOL0     C15309   7.906   3.108   1.900  0.9411  0.3906  0.1216
  114MOL0     C15310   8.292   3.064   1.683 -0.0555  0.3004  0.2473
  114MOL0     C15311   8.340   2.954   1.606 -0.2405  1.0745 -1.2669
  114MOL0     C15312   8.471   2.945   1.554  0.3663 -0.4674 -0.4437
  114MOL0     C15313   8.555   3.051   1.581  0.0922 -1.1497 -0.1929
  114MOL0     O15314   8.694   3.064   1.542  0.0230 -0.4714  0.1450
  114MOL0     C15315   8.734   3.015   1.413  0.3470 -0.8433  0.7525
  114MOL0     C15316   8.702   3.126   1.305 -0.6492  1.4193 -0.3287
  114MOL0     C15317   8.557   3.154   1.254  0.2571 -0.4076 -1.1955
  114MOL0     C15318   8.549   3.237   1.120  0.1358  0.4219  0.3055
  114MOL0     C15319   8.410   3.230   1.059  0.3250 -0.4272  0.4358
  114MOL0     C15320   8.300   3.227   0.999  0.8203 -0.2606 -0.2848
  114MOL0     C15321   8.515   3.160   1.659  0.9122 -0.4317 -0.0722
  114MOL0     C15322   8.387   3.170   1.702 -0.0676  0.0983 -0.4709
  114MOL0     H15323   8.042   3.419   1.876  1.1102 -0.4577 -1.0921
  114MOL0     H15324   7.835   3.482   1.957 -2.8217 -1.1906  1.0052
  114MOL0     H15325   7.559   3.164   2.118 -0.4829  0.2536 -0.1519
  114MOL0     H15326   7.665   3.275   2.224  2.2017  1.3430 -2.4084
  114MOL0     H15327   7.517   3.466   2.194 -2.7063  0.7769  1.2998
  114MOL0     H15328   7.395   3.364   2.132  0.4742 -0.2483 -0.9523
  114MOL0     H15329   7.425   3.245   2.378 -2.9340  0.9093  2.5058
  114MOL0     H15330   7.518   3.392   2.406  0.3374  1.3391 -0.6553
  114MOL0     H15331   7.343   3.524   2.351 -0.9397  0.0530 -1.0705
  114MOL0     H15332   7.220   3.408   2.311  0.0358 -2.7643 -0.6625
  114MOL0     H15333   7.336   3.430   2.594 -0.7425 -1.2712  1.0140
  114MOL0     H15334   7.186   3.506   2.525  1.1588 -0.3786 -1.3486
  114MOL0     H15335   7.131   3.258   2.457  1.4233 -1.6372 -1.6090
  114MOL0     H15336   7.273   3.216   2.559 -0.6522  0.7182  4.2849
  114MOL0     H15337   7.148   3.277   2.755 -1.7945 -0.0244  0.5882
  114MOL0     H15338   7.006   3.340   2.651  1.1846  0.1299 -3.9357
  114MOL0     H15339   7.087   3.056   2.614  0.5837  0.2772  0.3892
  114MOL0     H15340   6.930   3.140   2.584 -0.7541  1.8486  1.2141
  114MOL0     H15341   6.852   3.284   2.812  0.0672  1.7314  0.5390
  114MOL0     H15342   6.686   3.202   3.047 -0.5318 -0.1861  0.3245
  114MOL0     H15343   6.769   3.062   3.127  1.1063 -1.4660 -0.9456
  114MOL0     H15344   6.880   3.349   3.125  0.9375 -0.3130 -0.5129
  114MOL0     H15345   6.948   3.202   3.203 -0.3894  0.8241 -0.1618
  114MOL0     H15346   6.757   3.185   3.340  3.0149 -0.3409  0.7920
  114MOL0     H15347   6.687   3.339   3.265 -0.4078  0.4020  0.9792
  114MOL0     H15348   6.893   3.443   3.359 -1.8543  1.8356  1.2573
  114MOL0     H15349   6.961   3.297   3.407  1.8210  3.4805 -2.0794
  114MOL0     H15350   6.632   3.466   3.658  1.3406 -3.4677 -2.5722
  114MOL0     H15351   6.573   3.571   3.864  0.5395 -2.5572  1.6672
  114MOL0     H15352   6.694   3.639   3.983  1.9699 -0.3917 -0.7843
  114MOL0     H15353   6.652   3.731   3.836 -0.0331 -0.3279 -0.7595
  114MOL0     H15354   7.284   3.813   3.996 -0.1862  1.1693 -0.2331
  114MOL0     H15355   7.361   3.928   4.196  1.5157 -1.9462  0.7976
  114MOL0     H15356   7.342   4.021   4.566 -1.8824  1.9880 -0.5671
  114MOL0     H15357   7.443   3.990   4.426  1.4863 -2.0936  4.8202
  114MOL0     H15358   7.339   4.176   4.305  1.5531  2.0632 -0.1973
  114MOL0     H15359   7.226   4.201   4.440  1.9883  3.1535 -1.0119
  114MOL0     H15360   7.458   4.356   4.413  5.4903 -0.4588 -0.6059
  114MOL0     H15361   7.520   4.205   4.478  0.2657  0.0523  0.1850
  114MOL0     H15362   7.425   4.228   4.683 -2.1784  0.3176  2.0839
  114MOL0     H15363   7.479   4.390   4.657  0.8317 -1.2994  0.9591
  114MOL0     H15364   7.248   4.383   4.760  1.4946  0.9984 -0.7585
  114MOL0     H15365   7.196   4.264   4.634 -5.4004  3.4144 -4.0262
  114MOL0     H15366   7.276   4.539   4.550 -0.8103  0.0721 -0.2782
  114MOL0     H15367   7.144   4.441   4.475  2.0093  1.9637 -1.6916
  114MOL0     H15368   7.070   4.624   4.589  0.6618  1.5165  0.6672
  114MOL0     H15369   7.160   4.598   4.737 -0.1055  1.7350 -1.0726
  114MOL0     H15370   7.023   4.384   4.783  0.0955 -1.3243 -0.9526
  114MOL0     H15371   6.942   4.406   4.622 -1.4236  1.0173 -0.1195
  114MOL0     H15372   7.035   3.763   4.417 -4.0224  0.9797 -0.8706
  114MOL0     H15373   6.987   3.618   4.225 -0.9818 -1.0589  2.3319
  114MOL0     H15374   7.094   3.573   3.756 -0.9883  1.4123  0.1175
  114MOL0     H15375   7.046   3.409   3.567 -1.4068  0.7811 -1.5427
  114MOL0     H15376   7.704   3.078   1.977 -0.6337  0.4284 -0.9511
  114MOL0     H15377   7.924   3.001   1.900 -1.3014 -0.1358  3.3697
  114MOL0     H15378   8.267   2.875   1.588 -0.1349 -0.3103  3.1053
  114MOL0     H15379   8.510   2.864   1.493  3.4463 -0.3631  1.2118
  114MOL0     H15380   8.843   3.003   1.409  0.5121  0.7159 -2.9686
  114MOL0     H15381   8.682   2.923   1.385  2.2272 -1.0410 -2.4870
  114MOL0     H15382   8.766   3.097   1.221 -1.1872 -2.9427  0.5392
  114MOL0     H15383   8.731   3.219   1.355 -0.1825 -0.4690  3.2775
  114MOL0     H15384   8.503   3.212   1.329 -2.0191 -1.6331 -1.7841
  114MOL0     H15385   8.505   3.059   1.236 -1.6837  0.5613 -0.9266
  114MOL0     H15386   8.623   3.194   1.052 -0.9679 -0.8859 -0.1184
  114MOL0     H15387   8.576   3.343   1.127 -1.7017  0.9746 -0.4965
  114MOL0     H15388   8.203   3.229   0.954 -0.3723  0.1193  2.1518
  114MOL0     H15389   8.597   3.230   1.671  1.4221 -1.1709  1.0177
  114MOL0     H15390   8.362   3.257   1.762 -3.1031  0.2921 -1.8354
  115MOL0     O15391   5.980   7.546   1.853  0.8581  0.1525 -0.1137
  115MOL0     C15392   5.913   7.448   1.892 -0.8340 -0.3394  0.0164
  115MOL0     O15393   5.960   7.359   1.985  0.3933 -0.2664  0.1823
  115MOL0     C15394   6.091   7.363   2.007  0.0169  0.7354  0.6576
  115MOL0     C15395   6.187   7.320   1.914 -0.1231  0.5788  1.5000
  115MOL0     C15396   6.313   7.323   1.937 -0.6355 -0.6875 -0.2644
  115MOL0     C15397   6.367   7.388   2.046  0.0417  0.6156  0.0786
  115MOL0     O15398   6.502   7.415   2.070  0.3980 -0.1929  0.2496
  115MOL0     C15399   6.592   7.365   1.970  0.2432 -0.1191 -0.6383
  115MOL0     C15400   6.731   7.409   2.000 -0.1534 -0.0922  0.0913
  115MOL0     C15401   6.741   7.574   2.024 -0.2744  1.0500  0.9324
  115MOL0     C15402   6.885   7.617   2.063 -0.1887  0.6644 -0.4011
  115MOL0     C15403   6.886   7.772   2.091 -0.1788  0.2963  0.5454
  115MOL0     C15404   6.867   7.859   1.965 -0.5134 -0.3145 -0.2521
  115MOL0     C15405   6.936   7.995   1.975  0.3930  0.4042 -0.9398
  115MOL0     C15406   6.899   8.079   1.851 -0.0462  0.1598 -0.2027
  115MOL0     N15407   6.948   8.015   1.727 -0.3897 -0.6732  0.6030
  115MOL0     C15408   7.076   8.035   1.685  0.0022 -0.2565  0.3834
  115MOL0     C15409   7.065   8.015   1.545 -0.3597 -0.6749 -0.1624
  115MOL0     C15410   7.183   8.013   1.450 -0.4002  0.1320  0.4495
  115MOL0     C15411   7.146   8.039   1.301 -0.6581  0.6729  0.2237
  115MOL0     C15412   7.128   8.189   1.273 -0.0457  0.5046  1.4263
  115MOL0     C15413   7.108   8.208   1.119 -0.8994 -0.1782 -0.3194
  115MOL0     O15414   6.992   8.140   1.073  1.1636 -0.1795  0.1479
  115MOL0     C15415   6.869   8.195   1.110  0.2613 -1.0430  0.5923
  115MOL0     C15416   6.798   8.127   1.218  0.3139  0.0648  1.8403
  115MOL0     C15417   6.670   8.166   1.258  0.2351  0.2016  0.9156
  115MOL0     C15418   6.602   8.084   1.364 -0.9684  1.1519 -0.6145
  115MOL0     C15419   6.601   8.252   1.171 -0.0509  0.1863  0.2518
  115MOL0     C15420   6.466   8.306   1.213 -0.4666  0.3751  0.0395
  115MOL0     O15421   6.377   8.328   1.110 -0.0701 -0.0718 -0.2720
  115MOL0     C15422   6.290   8.430   1.115 -0.0979 -0.4730  0.8097
  115MOL0     C15423   6.291   8.544   1.196  0.0341  0.0582 -0.1908
  115MOL0     C15424   6.188   8.641   1.182  0.1851  0.4516 -0.0252
  115MOL0     C15425   6.081   8.622   1.087 -0.3088  0.9705  0.6335
  115MOL0     O15426   5.984   8.719   1.065  0.0690  0.5634 -0.2202
  115MOL0     C15427   6.009   8.834   0.992 -0.3453  0.3296  1.1427
  115MOL0     C15428   5.900   8.934   1.026 -0.2583  0.1286 -0.9884
  115MOL0     C15429   5.757   8.899   1.016  0.1134 -0.8915  0.2246
  115MOL0     C15430   5.664   9.007   1.072  0.1927  0.2307 -0.8356
  115MOL0     C15431   5.515   8.980   1.065  0.0385 -0.6428 -0.1219
  115MOL0     C15432   5.480   8.879   1.172  0.0492  0.1190 -0.0494
  115MOL0     C15433   5.340   8.829   1.174  0.7808 -0.1655  0.4256
  115MOL0     C15434   5.251   8.932   1.226 -0.7819 -0.3554  0.1230
  115MOL0    Cl15435   5.088   8.892   1.195  0.0602  0.2606  0.1506
  115MOL0     C15436   6.088   8.506   1.008  0.2854 -0.0770  0.1840
  115MOL0     C15437   6.193   8.419   1.015  0.9841  0.3691 -0.6214
  115MOL0     O15438   6.446   8.324   1.331 -0.1872 -0.9311 -0.5281
  115MOL0     C15439   6.665   8.317   1.065 -0.1205 -0.4126  0.3318
  115MOL0     C15440   6.800   8.290   1.034  0.3064  0.7729  0.2398
  115MOL0     N15441   6.934   7.986   1.514 -0.2536  0.0391  0.2364
  115MOL0     N15442   6.873   7.985   1.626 -0.0143 -0.5564  0.4552
  115MOL0     C15443   6.272   7.437   2.139  0.2618 -0.7175  0.3204
  115MOL0     C15444   6.136   7.429   2.126  0.3589  0.9338  0.4937
  115MOL0     C15445   5.778   7.429   1.853  1.0276  0.3742  1.1509
  115MOL0     C15446   5.683   7.333   1.907  0.4808 -0.5084 -1.4383
  115MOL0     C15447   5.539   7.342   1.883  1.1827  0.3876  0.0837
  115MOL0     C15448   5.498   7.433   1.786  0.7719  0.6240 -0.4371
  115MOL0     O15449   5.364   7.441   1.783 -0.6671 -0.1522 -0.1026
  115MOL0     C15450   5.302   7.563   1.733  0.1919  0.3428 -0.5892
  115MOL0     C15451   5.161   7.569   1.789 -0.8085  0.1325  0.3227
  115MOL0     C15452   5.152   7.582   1.947 -0.8422  0.0340 -0.4330
  115MOL0     C15453   5.009   7.588   1.984 -0.0520 -0.9269  0.0163
  115MOL0     C15454   4.923   7.462   1.968  0.4872  0.0555  0.0504
  115MOL0     C15455   4.854   7.366   1.948 -0.6321 -0.4767 -0.8225
  115MOL0     C15456   5.587   7.513   1.717  0.5578 -0.7946 -0.6262
  115MOL0     C15457   5.725   7.509   1.751  0.7812 -0.4015 -0.7069
  115MOL0     H15458   6.158   7.296   1.813 -0.6490 -0.2541  1.8336
  115MOL0     H15459   6.377   7.282   1.859 -0.1932  0.0006 -0.2749
  115MOL0     H15460   6.587   7.255   1.969  1.9424 -0.2179 -0.6289
  115MOL0     H15461   6.563   7.406   1.873 -2.6067 -2.2711 -0.8556
  115MOL0     H15462   6.760   7.351   2.088  0.1239 -0.0080  0.0552
  115MOL0     H15463   6.796   7.378   1.918  0.4368  1.7234 -0.1565
  115MOL0     H15464   6.711   7.635   1.939 -1.4227 -1.5744 -0.6614
  115MOL0     H15465   6.671   7.597   2.106 -2.6619 -1.8530 -0.1154
  115MOL0     H15466   6.919   7.562   2.152 -1.2911 -3.4377 -2.2817
  115MOL0     H15467   6.943   7.583   1.977 -0.2444  0.1659 -0.2437
  115MOL0     H15468   6.811   7.789   2.168 -1.1566 -1.5368  0.0368
  115MOL0     H15469   6.984   7.799   2.132 -0.7271  1.6323  1.0439
  115MOL0     H15470   6.911   7.804   1.880 -1.6059  0.4574 -1.3522
  115MOL0     H15471   6.760   7.864   1.942 -0.5575  2.7875  0.2397
  115MOL0     H15472   6.900   8.038   2.069  3.3388 -0.0752  0.5473
  115MOL0     H15473   7.045   7.980   1.973  0.1040 -2.4986  0.3909
  115MOL0     H15474   6.939   8.180   1.862  0.3276 -0.0234  0.1404
  115MOL0     H15475   6.790   8.084   1.850 -0.1310 -0.9052  1.1373
  115MOL0     H15476   7.170   8.049   1.738  2.1610  2.3252 -3.6153
  115MOL0     H15477   7.254   8.085   1.491  1.6499 -1.9788  0.8399
  115MOL0     H15478   7.226   7.914   1.467 -0.7737 -0.3673 -1.2844
  115MOL0     H15479   7.050   7.990   1.283 -0.0603 -0.9353  1.1528
  115MOL0     H15480   7.228   7.989   1.249 -0.5103  2.8545 -1.8452
  115MOL0     H15481   7.212   8.246   1.313  1.5674 -1.3969  0.9095
  115MOL0     H15482   7.046   8.238   1.327  0.3983  2.9395  0.0234
  115MOL0     H15483   7.198   8.180   1.064  1.3746 -1.0600  3.4757
  115MOL0     H15484   7.087   8.314   1.109  1.1479  0.3190  0.2486
  115MOL0     H15485   6.857   8.058   1.277  2.8101 -0.2201 -0.7502
  115MOL0     H15486   6.509   8.043   1.325 -0.4111  0.9974 -1.8121
  115MOL0     H15487   6.665   8.001   1.398 -1.6045  0.7151 -0.4953
  115MOL0     H15488   6.588   8.148   1.452  2.8102  2.2882 -0.6207
  115MOL0     H15489   6.358   8.551   1.281 -0.2597 -1.5674  0.2143
  115MOL0     H15490   6.186   8.729   1.246  0.3148  1.5621 -1.5046
  115MOL0     H15491   6.105   8.873   1.025 -1.3593  1.2650  3.1687
  115MOL0     H15492   6.006   8.821   0.883 -1.5458 -0.2077  1.2224
  115MOL0     H15493   5.925   8.976   1.124 -0.8794 -2.3168  0.2889
  115MOL0     H15494   5.911   9.025   0.965  1.0036  2.2795  2.1874
  115MOL0     H15495   5.744   8.800   1.061  1.9779 -1.2515  0.0432
  115MOL0     H15496   5.715   8.895   0.915 -4.7428  1.0849  1.8754
  115MOL0     H15497   5.697   9.024   1.174  2.4430  1.0468 -1.6500
  115MOL0     H15498   5.680   9.104   1.022 -0.4051  0.5719 -0.3865
  115MOL0     H15499   5.491   8.941   0.966 -1.5153  0.4814 -0.2255
  115MOL0     H15500   5.449   9.065   1.082 -0.3224 -0.6769 -1.2650
  115MOL0     H15501   5.542   8.788   1.167  2.3400  1.5799  0.3363
  115MOL0     H15502   5.488   8.917   1.274  1.3028  0.6808 -0.3344
  115MOL0     H15503   5.329   8.747   1.245  2.2337 -0.4827  0.3244
  115MOL0     H15504   5.315   8.798   1.072 -0.3582  0.7370  0.4182
  115MOL0     H15505   5.253   9.034   1.184 -2.6926 -0.9958 -1.7387
  115MOL0     H15506   5.270   8.942   1.333 -0.9452  0.4516  0.0891
  115MOL0     H15507   6.017   8.503   0.926  0.7645  3.0595 -0.4581
  115MOL0     H15508   6.205   8.338   0.944  5.2175  0.8625 -0.7241
  115MOL0     H15509   6.607   8.395   1.017  0.0399  0.1333  0.9974
  115MOL0     H15510   6.856   8.339   0.955 -3.2162  1.7561 -1.9213
  115MOL0     H15511   6.315   7.476   2.230  1.6539 -1.8249  0.1760
  115MOL0     H15512   6.054   7.454   2.192 -1.1089 -0.8320 -0.5359
  115MOL0     H15513   5.703   7.266   1.990  0.6589  3.0654  1.6747
  115MOL0     H15514   5.466   7.273   1.924  0.2970  0.4271 -1.3514
  115MOL0     H15515   5.358   7.650   1.769 -1.4615  1.2997 -0.2501
  115MOL0     H15516   5.305   7.565   1.624  1.1728  4.3694 -0.6366
  115MOL0     H15517   5.112   7.480   1.751 -2.2082 -0.4089  3.1152
  115MOL0     H15518   5.109   7.652   1.740 -1.9481 -0.9267 -0.3124
  115MOL0     H15519   5.213   7.664   1.984  1.9030 -2.4897  1.1176
  115MOL0     H15520   5.199   7.494   1.993 -2.4522 -0.1695  0.9378
  115MOL0     H15521   4.965   7.660   1.913 -1.5872 -1.2598  0.5885
  115MOL0     H15522   4.991   7.634   2.081 -4.4187 -0.3723 -0.8311
  115MOL0     H15523   4.790   7.282   1.930 -1.4850 -0.1401  0.5435
  115MOL0     H15524   5.553   7.585   1.644  0.1871  0.8395  1.0743
  115MOL0     H15525   5.794   7.581   1.709  1.0704 -0.4018 -0.2305
  116MOL0     O15526   7.728   9.537   3.772 -0.4014 -0.1550 -0.1980
  116MOL0     C15527   7.639   9.539   3.689  1.0074 -0.3980  0.0957
  116MOL0     O15528   7.523   9.465   3.695 -0.4987  0.4053  0.0267
  116MOL0     C15529   7.497   9.391   3.808 -0.9292  1.0634  0.1537
  116MOL0     C15530   7.476   9.255   3.791 -0.8615 -1.1923  0.7414
  116MOL0     C15531   7.465   9.170   3.904  0.6353 -0.9123  0.3625
  116MOL0     C15532   7.483   9.226   4.033  0.4930 -0.3214 -0.5263
  116MOL0     O15533   7.500   9.140   4.139 -0.4304  0.7352 -0.9081
  116MOL0     C15534   7.378   9.117   4.211  0.7616 -0.7822  0.6318
  116MOL0     C15535   7.406   9.073   4.350  0.2542  0.2460 -0.0326
  116MOL0     C15536   7.279   9.043   4.436 -0.4366  0.9376  0.4361
  116MOL0     C15537   7.313   9.032   4.580 -0.4238  0.3187 -0.8747
  116MOL0     C15538   7.178   9.004   4.656  0.0069  0.3664  0.0859
  116MOL0     C15539   7.216   8.956   4.802  0.3363 -0.7996  0.0402
  116MOL0     C15540   7.280   9.072   4.881  0.1760 -0.0303 -0.1550
  116MOL0     C15541   7.251   9.075   5.031  1.0501 -0.3768  0.8048
  116MOL0     N15542   7.111   9.091   5.060  0.3379 -0.0071 -0.8596
  116MOL0     C15543   7.062   9.115   5.184 -0.1481 -0.0294  0.5067
  116MOL0     C15544   6.929   9.154   5.173  0.4993 -0.2250  0.6074
  116MOL0     C15545   6.842   9.213   5.281 -0.0672  0.2111  0.1689
  116MOL0     C15546   6.827   9.361   5.284  0.1888  0.6089 -0.0315
  116MOL0     C15547   6.964   9.439   5.292  0.2715 -0.6019  0.4377
  116MOL0     C15548   6.948   9.596   5.301 -0.1323 -0.7003 -0.1138
  116MOL0     O15549   6.916   9.633   5.431 -0.3459 -0.7897 -0.2922
  116MOL0     C15550   6.788   9.673   5.457 -0.0007 -0.1774  0.0812
  116MOL0     C15551   6.733   9.793   5.414 -0.1056 -0.7737  0.2990
  116MOL0     C15552   6.607   9.833   5.461  0.0754  0.0497 -0.4992
  116MOL0     C15553   6.537   9.955   5.406  0.2797 -0.4408  0.5596
  116MOL0     C15554   6.536   9.746   5.548  0.3935 -0.5682  0.0679
  116MOL0     C15555   6.401   9.766   5.597  0.2993 -0.6104  0.7857
  116MOL0     O15556   6.303   9.767   5.500 -0.3336 -0.1040  0.4565
  116MOL0     C15557   6.177   9.797   5.541  0.2569  1.2602  0.6034
  116MOL0     C15558   6.129   9.921   5.500  0.3238  0.1369  0.5388
  116MOL0     C15559   6.000   9.960   5.536 -0.1838  0.4280  0.6482
  116MOL0     C15560   5.909   9.861   5.585  0.1252 -1.0065 -0.2324
  116MOL0     O15561   5.781   9.901   5.594 -0.4094  0.3527 -0.8229
  116MOL0     C15562   5.699   9.848   5.708  0.3429 -0.0540 -0.1388
  116MOL0     C15563   5.747   9.923   5.842  0.0894  0.7432  0.4490
  116MOL0     C15564   5.684   9.853   5.967  0.5307 -0.2473  0.1417
  116MOL0     C15565   5.732   9.936   6.083  0.8831 -0.1632 -0.3775
  116MOL0     C15566   5.722   9.871   6.217  0.4013 -0.1093 -0.0487
  116MOL0     C15567   5.817   9.756   6.229  0.5524 -0.5963 -0.4710
  116MOL0     C15568   5.779   9.653   6.351  0.1567 -0.5697 -0.1819
  116MOL0     C15569   5.900   9.553   6.345 -0.4012  0.0064 -0.5848
  116MOL0    Cl15570   5.873   9.428   6.217 -0.5200 -0.2968  0.1228
  116MOL0     C15571   5.951   9.733   5.599 -0.1741  0.4651 -0.4556
  116MOL0     C15572   6.088   9.699   5.585 -0.3616  0.6393  0.3232
  116MOL0     O15573   6.379   9.773   5.718  0.1827 -0.3860 -0.1100
  116MOL0     C15574   6.588   9.622   5.592  0.0562  0.3877 -0.1716
  116MOL0     C15575   6.723   9.590   5.550  0.6226 -0.0353 -0.4725
  116MOL0     N15576   6.892   9.129   5.042 -0.7760 -0.6416 -0.2836
  116MOL0     N15577   7.006   9.101   4.980 -0.0565  0.1489  0.5471
  116MOL0     C15578   7.508   9.364   4.046  0.1631 -0.2158 -0.5656
  116MOL0     C15579   7.499   9.450   3.940  0.2354 -0.0169  0.5397
  116MOL0     C15580   7.658   9.625   3.565 -1.0114 -0.0826 -0.1370
  116MOL0     C15581   7.592   9.595   3.448  0.2728  0.5373 -0.0896
  116MOL0     C15582   7.604   9.668   3.328  1.1507 -0.4238  0.0054
  116MOL0     C15583   7.705   9.764   3.316 -0.0208  0.0503 -0.0023
  116MOL0     O15584   7.725   9.835   3.196 -0.1651 -0.4508 -0.0920
  116MOL0     C15585   7.686   9.769   3.072  0.1468 -0.5574  0.1412
  116MOL0     C15586   7.755   9.834   2.947 -0.0233  0.3617 -1.0664
  116MOL0     C15587   7.709   9.776   2.817 -0.6361 -0.5584  0.0265
  116MOL0     C15588   7.565   9.743   2.803 -1.1704  0.6207 -0.2073
  116MOL0     C15589   7.475   9.844   2.850 -0.7778 -0.6335 -1.1543
  116MOL0     C15590   7.410   9.943   2.865  0.6556  0.6259 -0.1069
  116MOL0     C15591   7.773   9.799   3.432  0.8939 -0.0035  0.0116
  116MOL0     C15592   7.754   9.733   3.560 -0.0007 -0.0245  0.2482
  116MOL0     H15593   7.466   9.215   3.690  0.3247 -0.4380  0.3022
  116MOL0     H15594   7.456   9.063   3.886  0.8106 -0.3983 -3.3639
  116MOL0     H15595   7.330   9.216   4.215  1.0759 -0.4015 -2.5293
  116MOL0     H15596   7.304   9.059   4.155 -0.4782  0.7258  0.6261
  116MOL0     H15597   7.463   8.980   4.343 -1.0392 -0.6464  0.8978
  116MOL0     H15598   7.469   9.153   4.392  0.7074  0.1136 -0.4517
  116MOL0     H15599   7.196   9.113   4.426 -2.8812 -1.3167  3.1591
  116MOL0     H15600   7.248   8.943   4.406  1.9978  0.4788 -0.7428
  116MOL0     H15601   7.375   8.943   4.593 -1.5914 -0.6306 -1.5962
  116MOL0     H15602   7.359   9.120   4.626 -0.4479 -0.2222  0.2423
  116MOL0     H15603   7.117   9.094   4.666 -0.9121 -0.3600  1.4121
  116MOL0     H15604   7.115   8.932   4.604 -0.9745 -0.1044  1.8186
  116MOL0     H15605   7.115   8.939   4.842 -0.8236  4.5154  0.0374
  116MOL0     H15606   7.274   8.864   4.815  1.8247  0.3027  1.3958
  116MOL0     H15607   7.388   9.068   4.870  0.2428 -1.2726  0.6802
  116MOL0     H15608   7.246   9.167   4.839 -3.4737 -0.7563  0.7782
  116MOL0     H15609   7.303   9.161   5.076 -0.3530  1.2918 -0.6197
  116MOL0     H15610   7.297   8.983   5.069 -0.6803 -1.7182 -0.2089
  116MOL0     H15611   7.124   9.128   5.271  1.2133  1.8874 -0.6626
  116MOL0     H15612   6.741   9.174   5.264 -0.3351  1.4394 -1.3106
  116MOL0     H15613   6.871   9.173   5.379  0.7524  4.0272  1.6417
  116MOL0     H15614   6.767   9.385   5.372  0.8336  2.4846 -0.0623
  116MOL0     H15615   6.764   9.394   5.201 -1.6836  2.7907  2.1050
  116MOL0     H15616   7.014   9.416   5.197 -1.5496 -1.6776 -0.3161
  116MOL0     H15617   7.021   9.413   5.382  1.0342  0.3083  0.2321
  116MOL0     H15618   6.877   9.630   5.225  1.9652  1.8193 -1.0541
  116MOL0     H15619   7.044   9.641   5.277  0.5919 -0.9733  2.0786
  116MOL0     H15620   6.788   9.853   5.343 -0.7230 -2.6533 -1.8847
  116MOL0     H15621   6.441   9.983   5.452  0.2550 -0.3298  0.4418
  116MOL0     H15622   6.589  10.048   5.431 -0.3794  0.1950 -0.3452
  116MOL0     H15623   6.516   9.952   5.299 -3.2996 -0.1533  1.1052
  116MOL0     H15624   6.204   9.978   5.444 -2.5439  0.7426 -3.0714
  116MOL0     H15625   5.962  10.054   5.496  1.4700  0.6793 -0.4463
  116MOL0     H15626   5.594   9.877   5.694  0.4574  0.3589 -0.1470
  116MOL0     H15627   5.701   9.739   5.710 -0.4104 -0.2427 -3.2769
  116MOL0     H15628   5.855   9.920   5.860 -0.2482 -0.4514  2.5438
  116MOL0     H15629   5.715  10.027   5.826 -0.4168  0.6834  1.0566
  116MOL0     H15630   5.703   9.746   5.954  1.7668  0.0003 -0.3116
  116MOL0     H15631   5.576   9.854   5.981  0.5262 -1.3035  0.2947
  116MOL0     H15632   5.838   9.962   6.073  0.3840  2.5655  0.6691
  116MOL0     H15633   5.665  10.021   6.096  1.6385  0.0544  2.7161
  116MOL0     H15634   5.624   9.824   6.226  0.5005 -0.2085  0.5766
  116MOL0     H15635   5.722   9.945   6.297 -0.2653 -0.1371 -0.0197
  116MOL0     H15636   5.819   9.698   6.137  2.3128 -2.1566  0.4945
  116MOL0     H15637   5.914   9.805   6.238  0.1380  0.2629 -0.5592
  116MOL0     H15638   5.685   9.598   6.343 -2.1331  2.9438  0.3073
  116MOL0     H15639   5.774   9.705   6.448 -0.5338 -1.9965  0.5765
  116MOL0     H15640   5.909   9.494   6.436  2.8493 -0.8399 -1.3221
  116MOL0     H15641   5.995   9.604   6.328  0.8091 -1.3717  1.6398
  116MOL0     H15642   5.875   9.662   5.630 -0.7580  0.7039 -1.3048
  116MOL0     H15643   6.125   9.598   5.593 -2.7883 -0.3222  0.1816
  116MOL0     H15644   6.534   9.543   5.644 -1.0047  1.9750  1.2653
  116MOL0     H15645   6.773   9.498   5.578 -0.4460 -0.3576  0.4446
  116MOL0     H15646   7.528   9.402   4.146  0.0179  0.7609 -0.8932
  116MOL0     H15647   7.511   9.555   3.962 -1.6793 -0.0367  1.9430
  116MOL0     H15648   7.531   9.505   3.451 -0.1314  0.8199  0.5253
  116MOL0     H15649   7.536   9.639   3.249 -1.7344  1.6616  1.5181
  116MOL0     H15650   7.721   9.666   3.064  0.8641 -0.2249 -1.4968
  116MOL0     H15651   7.577   9.761   3.062  0.1021  0.4868 -0.4134
  116MOL0     H15652   7.864   9.838   2.952 -0.0668  1.1235 -0.6683
  116MOL0     H15653   7.717   9.934   2.928  3.0444  1.0429 -4.7869
  116MOL0     H15654   7.771   9.691   2.786  0.2512 -0.0191  0.2636
  116MOL0     H15655   7.728   9.853   2.741  2.0491 -0.3613  0.7736
  116MOL0     H15656   7.539   9.650   2.854 -0.8041  1.2939  1.2472
  116MOL0     H15657   7.541   9.739   2.696 -3.6435 -0.4617  0.3257
  116MOL0     H15658   7.367  10.039   2.888  0.0873  0.3378  0.0383
  116MOL0     H15659   7.847   9.878   3.427  4.0745 -2.6818  0.6864
  116MOL0     H15660   7.818   9.759   3.645  1.6677 -0.0895 -0.9360
  117MOL0     O15661   8.531   2.741   7.160  0.5825 -0.4259  0.1696
  117MOL0     C15662   8.605   2.823   7.217  0.1416  0.3110  0.7989
  117MOL0     O15663   8.655   2.938   7.153 -0.5393  0.1522 -0.7573
  117MOL0     C15664   8.644   2.968   7.021  0.5612 -0.0985  0.3132
  117MOL0     C15665   8.684   3.091   6.993 -0.5045  0.4229 -0.4432
  117MOL0     C15666   8.690   3.142   6.859 -0.0275 -0.6270 -0.6558
  117MOL0     C15667   8.625   3.067   6.761 -0.6577 -1.1596  0.3134
  117MOL0     O15668   8.630   3.121   6.632  0.0446 -0.3178 -0.6327
  117MOL0     C15669   8.617   3.028   6.519  0.1589 -0.0657 -0.9226
  117MOL0     C15670   8.623   3.119   6.401  0.9383  0.2363 -0.1807
  117MOL0     C15671   8.498   3.215   6.382 -0.1683  0.6685 -0.6641
  117MOL0     C15672   8.383   3.151   6.306 -0.8328 -0.6591 -0.2648
  117MOL0     C15673   8.266   3.243   6.273  0.6411 -0.3932 -0.4786
  117MOL0     C15674   8.190   3.290   6.398 -0.3597 -0.0011 -0.2714
  117MOL0     C15675   8.069   3.368   6.360  0.4764 -0.4606  0.1756
  117MOL0     C15676   8.094   3.513   6.326 -0.3081  0.5878 -0.1346
  117MOL0     N15677   8.044   3.546   6.192  0.5368  0.3505 -0.2623
  117MOL0     C15678   8.053   3.474   6.072 -0.4889  0.1881 -0.8510
  117MOL0     C15679   8.001   3.560   5.981 -0.6913 -0.7123  0.0211
  117MOL0     C15680   8.010   3.555   5.832  0.8529 -0.5800 -0.0201
  117MOL0     C15681   7.870   3.568   5.767 -0.5749  0.0903  0.8503
  117MOL0     C15682   7.789   3.438   5.774 -0.4836 -0.0046 -0.4827
  117MOL0     C15683   7.639   3.458   5.772 -0.3452 -0.4191 -0.0457
  117MOL0     O15684   7.574   3.325   5.803  0.4513  0.4901  0.5906
  117MOL0     C15685   7.436   3.316   5.805 -0.7363  0.4832 -0.0471
  117MOL0     C15686   7.358   3.397   5.726 -0.0658 -0.3957 -0.7211
  117MOL0     C15687   7.214   3.389   5.728 -0.9217 -0.4842 -0.3341
  117MOL0     C15688   7.141   3.483   5.630 -0.5206 -0.2871  0.2711
  117MOL0     C15689   7.145   3.316   5.815  0.2322 -1.0452 -0.2490
  117MOL0     C15690   6.992   3.295   5.818  0.2435 -0.6498  0.2952
  117MOL0     O15691   6.916   3.316   5.698 -0.6374  0.5685  0.0235
  117MOL0     C15692   6.782   3.289   5.693  0.8150 -0.7398  0.2662
  117MOL0     C15693   6.739   3.161   5.716 -0.3453 -0.1667  0.0842
  117MOL0     C15694   6.608   3.135   5.720 -0.6691  0.3432  0.4028
  117MOL0     C15695   6.515   3.235   5.686  0.3613  1.4929  0.1424
  117MOL0     O15696   6.389   3.192   5.681  0.0272  0.1070  0.1715
  117MOL0     C15697   6.302   3.228   5.568  0.6231 -0.5633  0.1477
  117MOL0     C15698   6.238   3.104   5.504  0.7139 -0.7013 -0.4908
  117MOL0     C15699   6.135   3.042   5.598  1.0792  0.5554  0.6089
  117MOL0     C15700   6.096   2.900   5.549 -0.0910 -0.4163 -0.1046
  117MOL0     C15701   6.011   2.916   5.415 -0.2299  0.2875  0.0120
  117MOL0     C15702   5.894   2.821   5.436  0.7113 -0.4615 -0.3861
  117MOL0     C15703   5.821   2.807   5.300 -0.1927 -0.0656 -1.0765
  117MOL0     C15704   5.897   2.724   5.199 -0.3038  0.1371  0.4061
  117MOL0    Cl15705   5.780   2.704   5.065  0.3680  0.5397 -0.0185
  117MOL0     C15706   6.553   3.363   5.660  0.0152 -0.5723  0.9174
  117MOL0     C15707   6.688   3.400   5.678  0.3387 -0.1058 -1.0550
  117MOL0     O15708   6.940   3.274   5.928  0.0252  0.3660  0.7831
  117MOL0     C15709   7.223   3.250   5.909  0.5683  0.9908  0.1867
  117MOL0     C15710   7.363   3.244   5.903 -0.1167 -0.3502  0.6118
  117MOL0     N15711   7.977   3.685   6.042 -0.9509  0.1227 -1.0008
  117MOL0     N15712   8.003   3.676   6.168 -0.4272 -0.2060  0.2857
  117MOL0     C15713   8.553   2.956   6.794  0.2166  0.2543  0.2564
  117MOL0     C15714   8.578   2.897   6.923  0.5924 -0.0211  0.8700
  117MOL0     C15715   8.617   2.814   7.364 -0.8364  0.3089 -0.4763
  117MOL0     C15716   8.699   2.911   7.433 -0.1883  0.5323 -0.9542
  117MOL0     C15717   8.725   2.886   7.570  0.2509  0.4406 -0.9141
  117MOL0     C15718   8.672   2.780   7.637 -0.1283 -0.8204  0.1256
  117MOL0     O15719   8.669   2.780   7.777  0.1556  0.6291  0.0653
  117MOL0     C15720   8.542   2.805   7.844 -0.2654 -0.6332  0.3289
  117MOL0     C15721   8.503   2.948   7.837  0.2212 -0.1591 -0.3036
  117MOL0     C15722   8.606   3.039   7.910  0.9162  0.8319  0.1724
  117MOL0     C15723   8.637   3.000   8.050 -0.2536 -0.0655 -1.6571
  117MOL0     C15724   8.519   3.003   8.141 -0.4125  0.8773  0.3981
  117MOL0     C15725   8.421   3.013   8.208 -0.1207  0.9390  0.4660
  117MOL0     C15726   8.584   2.697   7.568 -0.0373  0.6650 -0.5910
  117MOL0     C15727   8.554   2.709   7.434 -0.8915 -0.5436 -0.2215
  117MOL0     H15728   8.727   3.146   7.075  0.7155 -1.8905  0.5691
  117MOL0     H15729   8.736   3.236   6.830 -0.8932 -1.0803 -3.8667
  117MOL0     H15730   8.689   2.946   6.522 -0.9486 -1.0419  1.2895
  117MOL0     H15731   8.516   2.985   6.522  0.4949 -1.1077 -2.7242
  117MOL0     H15732   8.725   3.159   6.408  1.5963 -1.3425 -0.3502
  117MOL0     H15733   8.631   3.052   6.315  1.8376  0.5429 -0.3503
  117MOL0     H15734   8.462   3.254   6.477 -1.2978 -0.9935 -0.3603
  117MOL0     H15735   8.534   3.305   6.332  2.2056  2.0541  3.1580
  117MOL0     H15736   8.427   3.119   6.211 -0.8630 -0.9436 -0.1841
  117MOL0     H15737   8.344   3.059   6.349  0.9232 -2.0963 -1.6121
  117MOL0     H15738   8.303   3.340   6.237 -3.5795  1.3297 -0.6967
  117MOL0     H15739   8.190   3.201   6.208 -0.7172  4.7597 -2.7905
  117MOL0     H15740   8.151   3.203   6.451 -0.9695  1.3494  1.6064
  117MOL0     H15741   8.247   3.349   6.470 -1.9328  4.2004 -2.1157
  117MOL0     H15742   8.008   3.318   6.285  0.7926  1.0345 -1.1281
  117MOL0     H15743   7.999   3.382   6.443  0.0284  1.5446 -0.4967
  117MOL0     H15744   8.198   3.538   6.347 -0.6798  0.5696  1.9196
  117MOL0     H15745   8.041   3.569   6.403  1.1216 -1.4817  2.5256
  117MOL0     H15746   8.089   3.373   6.054 -1.4318 -0.1034 -1.1681
  117MOL0     H15747   8.057   3.650   5.807 -1.5803  1.0766  1.3160
  117MOL0     H15748   8.065   3.472   5.787 -3.9209 -3.0957 -2.0595
  117MOL0     H15749   7.878   3.606   5.664  1.1847  2.4002  1.7644
  117MOL0     H15750   7.806   3.635   5.825 -0.3710 -0.1055  1.3007
  117MOL0     H15751   7.813   3.388   5.869  0.4295  0.3647 -0.5000
  117MOL0     H15752   7.815   3.371   5.692  3.4920  0.7681 -0.1031
  117MOL0     H15753   7.606   3.504   5.678  0.8183 -1.0311 -0.7678
  117MOL0     H15754   7.617   3.528   5.854  0.1318 -1.3410  0.9053
  117MOL0     H15755   7.399   3.475   5.663 -0.5307  0.3482 -0.1177
  117MOL0     H15756   7.210   3.553   5.583 -1.5311 -0.0818 -0.9339
  117MOL0     H15757   7.115   3.412   5.551 -2.3115  0.0206  0.5495
  117MOL0     H15758   7.058   3.531   5.682 -1.4198 -2.3697  0.8545
  117MOL0     H15759   6.820   3.091   5.732 -1.2630 -1.3285 -0.2108
  117MOL0     H15760   6.586   3.031   5.741  0.4476 -0.3777 -1.6880
  117MOL0     H15761   6.215   3.291   5.588 -0.5224 -1.9342 -0.3922
  117MOL0     H15762   6.350   3.289   5.490 -2.7566  1.2632 -0.7005
  117MOL0     H15763   6.182   3.132   5.415 -0.2541  0.5854  0.4812
  117MOL0     H15764   6.316   3.031   5.482  2.6600  0.9032  0.7648
  117MOL0     H15765   6.051   3.112   5.587  1.5462  0.9550 -0.6087
  117MOL0     H15766   6.153   3.043   5.706 -1.6152 -1.5096  1.1830
  117MOL0     H15767   6.188   2.844   5.532 -0.2183 -0.0516 -2.2973
  117MOL0     H15768   6.040   2.849   5.627 -2.2508 -0.1900 -1.4383
  117MOL0     H15769   6.065   2.877   5.328  0.8172 -0.0555  0.7918
  117MOL0     H15770   5.972   3.017   5.398 -0.8683  0.2494  1.1159
  117MOL0     H15771   5.924   2.727   5.481  0.4972  0.1409  1.0729
  117MOL0     H15772   5.815   2.874   5.490 -0.3312 -0.7270 -1.5949
  117MOL0     H15773   5.794   2.898   5.246  1.1604 -0.3573 -2.3189
  117MOL0     H15774   5.724   2.764   5.326 -0.5009  0.3045 -1.6064
  117MOL0     H15775   5.937   2.630   5.239 -0.2119 -0.1540 -0.3520
  117MOL0     H15776   5.982   2.780   5.158 -1.4287 -0.0917 -2.4218
  117MOL0     H15777   6.477   3.438   5.644  0.2294 -0.5937 -0.3173
  117MOL0     H15778   6.728   3.499   5.660  5.8591 -1.0866  3.0362
  117MOL0     H15779   7.169   3.189   5.981 -1.4614  2.6835  0.1873
  117MOL0     H15780   7.404   3.189   5.988 -1.2727  0.7723  1.9277
  117MOL0     H15781   8.499   2.904   6.716  0.9974  2.0998 -1.5987
  117MOL0     H15782   8.538   2.797   6.934  0.5721 -0.2634 -1.0393
  117MOL0     H15783   8.739   2.998   7.382  2.8673 -0.7564 -0.9917
  117MOL0     H15784   8.766   2.970   7.626 -0.1383  2.1741 -3.0762
  117MOL0     H15785   8.458   2.743   7.811  1.9492 -2.5790 -2.1150
  117MOL0     H15786   8.552   2.788   7.952  0.1511  1.4176  0.6437
  117MOL0     H15787   8.404   2.980   7.870  1.0568 -0.3210  2.5951
  117MOL0     H15788   8.516   2.982   7.734  2.1393 -0.5402 -0.2274
  117MOL0     H15789   8.550   3.132   7.921  1.0493  1.6635 -4.4394
  117MOL0     H15790   8.699   3.055   7.854 -0.6217  1.8011 -2.2676
  117MOL0     H15791   8.703   3.080   8.083 -1.2590 -0.0527  0.4756
  117MOL0     H15792   8.692   2.906   8.052  2.2507  1.3327 -0.7290
  117MOL0     H15793   8.333   3.029   8.268  1.4225  4.8951  2.0537
  117MOL0     H15794   8.544   2.609   7.618  0.4842  0.2920 -0.8205
  117MOL0     H15795   8.498   2.632   7.382  1.7120 -0.8762 -2.7674
  118MOL0     O15796   7.245   9.525   0.553  0.2199  0.9823 -0.0978
  118MOL0     C15797   7.271   9.612   0.469  0.1108 -0.2940 -0.0097
  118MOL0     O15798   7.196   9.649   0.359  0.9524  0.4495  0.3953
  118MOL0     C15799   7.068   9.602   0.360 -0.5373 -0.7386 -0.4699
  118MOL0     C15800   7.030   9.488   0.288  0.3748  0.2798  0.8733
  118MOL0     C15801   6.893   9.445   0.284  0.3235 -0.7135  1.1388
  118MOL0     C15802   6.801   9.515   0.362  0.1281 -1.1764 -0.0676
  118MOL0     O15803   6.673   9.484   0.359 -0.2732  0.1273 -0.7898
  118MOL0     C15804   6.642   9.366   0.431  0.5369  0.7912  0.3729
  118MOL0     C15805   6.487   9.353   0.428 -0.1718 -0.1918  1.1742
  118MOL0     C15806   6.435   9.235   0.512 -0.8078 -0.5385 -0.2850
  118MOL0     C15807   6.291   9.204   0.475 -0.0227  0.9196 -0.7808
  118MOL0     C15808   6.221   9.102   0.572  0.7273 -0.5863 -0.1953
  118MOL0     C15809   6.288   8.965   0.560  0.4829  0.4361 -0.0645
  118MOL0     C15810   6.229   8.873   0.657 -0.2867 -0.5144  0.4965
  118MOL0     C15811   6.306   8.743   0.688  0.4420 -0.5236 -0.3827
  118MOL0     N15812   6.412   8.737   0.787 -0.1213  0.0621  1.2126
  118MOL0     C15813   6.398   8.752   0.925  0.6974 -0.9505  0.8173
  118MOL0     C15814   6.526   8.746   0.965 -0.4300 -0.3034 -0.3926
  118MOL0     C15815   6.571   8.762   1.103 -0.8419  0.4160  0.6176
  118MOL0     C15816   6.658   8.644   1.141  0.9847  0.5761 -0.9022
  118MOL0     C15817   6.762   8.674   1.242  0.5761 -0.2687 -0.4146
  118MOL0     C15818   6.906   8.710   1.208  0.2366  0.1754 -0.0837
  118MOL0     O15819   6.952   8.601   1.117 -0.1711  0.1377 -0.1446
  118MOL0     C15820   7.062   8.642   1.043  0.0345 -0.6495  0.6611
  118MOL0     C15821   7.176   8.717   1.087  0.0652  0.0696 -0.3679
  118MOL0     C15822   7.287   8.754   1.007 -0.0557  0.6938 -0.3095
  118MOL0     C15823   7.404   8.837   1.074 -0.4725 -0.5199 -0.5601
  118MOL0     C15824   7.296   8.702   0.874  1.1377  0.1742  0.3206
  118MOL0     C15825   7.417   8.703   0.782  0.2197  0.2946 -0.5295
  118MOL0     O15826   7.406   8.643   0.655  0.2905  0.4425 -0.3081
  118MOL0     C15827   7.501   8.672   0.560  0.5570  0.7337 -0.7491
  118MOL0     C15828   7.590   8.572   0.521 -0.7790  0.1441 -0.4594
  118MOL0     C15829   7.691   8.604   0.429  0.4148 -0.0657  0.3919
  118MOL0     C15830   7.713   8.735   0.386 -0.6034  0.1965  0.2737
  118MOL0     O15831   7.812   8.768   0.302  0.1328 -0.2166  0.1621
  118MOL0     C15832   7.922   8.680   0.289 -0.9419  0.0417 -0.9471
  118MOL0     C15833   8.038   8.752   0.219  0.5480 -0.2030 -0.0541
  118MOL0     C15834   8.073   8.886   0.291  0.1176  0.5160 -0.5896
  118MOL0     C15835   8.164   8.971   0.199  0.9684  0.0719 -0.2186
  118MOL0     C15836   8.291   8.896   0.153  0.1405  1.3208  0.6884
  118MOL0     C15837   8.417   8.884   0.243  1.0849 -0.6179 -0.2647
  118MOL0     C15838   8.541   8.824   0.181  0.1497 -0.5362 -0.4495
  118MOL0     C15839   8.665   8.865   0.256  0.5663 -0.5651 -0.2951
  118MOL0    Cl15840   8.810   8.792   0.208 -0.0774 -0.7830  0.2939
  118MOL0     C15841   7.613   8.829   0.418 -0.5112 -0.1489 -0.5040
  118MOL0     C15842   7.509   8.794   0.511  0.7759 -0.2166 -0.0870
  118MOL0     O15843   7.521   8.750   0.827 -0.1320 -0.0784 -1.2298
  118MOL0     C15844   7.173   8.648   0.815 -0.1976 -0.4083 -0.5027
  118MOL0     C15845   7.062   8.626   0.897  0.8147  0.2074  0.0142
  118MOL0     N15846   6.608   8.740   0.851  0.0059  0.7382  1.1655
  118MOL0     N15847   6.538   8.725   0.749 -0.5422  0.2761  0.4090
  118MOL0     C15848   6.840   9.635   0.431 -1.2686  0.1710 -0.3971
  118MOL0     C15849   6.974   9.678   0.434 -0.0739  0.2774  0.7310
  118MOL0     C15850   7.410   9.668   0.482  1.0506  1.2266  0.3599
  118MOL0     C15851   7.495   9.624   0.581  0.2411 -0.7297  0.5178
  118MOL0     C15852   7.624   9.678   0.593  0.1681 -0.7773 -0.0766
  118MOL0     C15853   7.672   9.771   0.500 -0.6937 -0.7619 -0.0781
  118MOL0     O15854   7.799   9.817   0.517 -0.9054 -0.3042  0.4288
  118MOL0     C15855   7.905   9.730   0.544 -0.0465  0.7363  0.0992
  118MOL0     C15856   7.968   9.744   0.689 -1.1236  0.2780 -0.8060
  118MOL0     C15857   7.969   9.891   0.732  0.0850 -0.6132  0.7742
  118MOL0     C15858   8.069   9.988   0.670 -0.0368  0.5346 -0.8447
  118MOL0     C15859   8.031  10.129   0.691 -0.5980  0.5525 -0.5099
  118MOL0     C15860   8.004  10.246   0.719 -0.2636 -0.0742 -0.5259
  118MOL0     C15861   7.582   9.818   0.405 -0.0931  0.5096 -0.3782
  118MOL0     C15862   7.455   9.764   0.401 -1.9090  0.1325  0.8148
  118MOL0     H15863   7.102   9.445   0.219  0.8401  0.1471  1.4336
  118MOL0     H15864   6.860   9.360   0.225  1.2202 -0.8858  0.8702
  118MOL0     H15865   6.683   9.273   0.391 -0.1532  0.4695  0.3930
  118MOL0     H15866   6.664   9.380   0.537 -1.7530  1.7063  0.7898
  118MOL0     H15867   6.438   9.448   0.449 -1.4489 -0.5385 -0.0720
  118MOL0     H15868   6.465   9.338   0.321  3.9244  3.7698 -0.5311
  118MOL0     H15869   6.510   9.156   0.499  0.2446  0.1464  1.2793
  118MOL0     H15870   6.442   9.258   0.619 -1.3034  0.5193 -0.4717
  118MOL0     H15871   6.235   9.298   0.469  1.7072  2.2139  1.4093
  118MOL0     H15872   6.298   9.162   0.374  0.9543  0.5795 -0.5845
  118MOL0     H15873   6.236   9.143   0.672 -1.8175  0.3511 -0.1330
  118MOL0     H15874   6.114   9.091   0.554  0.2262  3.0338 -0.1235
  118MOL0     H15875   6.263   8.915   0.465 -4.7893  0.3389  1.0514
  118MOL0     H15876   6.394   8.978   0.583  0.2752 -2.6595  3.4118
  118MOL0     H15877   6.210   8.932   0.747 -1.6605  0.9307 -0.6852
  118MOL0     H15878   6.128   8.856   0.618 -0.5707  1.8679  0.0707
  118MOL0     H15879   6.343   8.706   0.592  2.7772  0.3830  0.0870
  118MOL0     H15880   6.231   8.674   0.724 -1.8068  1.5891 -0.7665
  118MOL0     H15881   6.299   8.769   0.967 -0.3892 -0.8378 -1.6258
  118MOL0     H15882   6.631   8.853   1.110  1.0670 -0.7928  0.3899
  118MOL0     H15883   6.493   8.766   1.180 -1.5066  0.5840 -0.0424
  118MOL0     H15884   6.695   8.589   1.054  0.2071  1.1701 -1.6321
  118MOL0     H15885   6.593   8.567   1.183  0.4262  0.6251 -1.6529
  118MOL0     H15886   6.761   8.587   1.308 -0.1813  0.0480 -0.0006
  118MOL0     H15887   6.725   8.748   1.313 -0.3550 -2.0966  1.0989
  118MOL0     H15888   6.966   8.720   1.299  1.8414 -2.4543 -0.7342
  118MOL0     H15889   6.902   8.805   1.153  1.0009 -0.5252 -1.3876
  118MOL0     H15890   7.177   8.752   1.190 -0.7781  2.8149 -1.2116
  118MOL0     H15891   7.404   8.934   1.024 -4.3363 -1.3030 -2.5405
  118MOL0     H15892   7.376   8.862   1.176 -1.4597  0.7299 -1.1099
  118MOL0     H15893   7.498   8.781   1.076 -1.9110 -3.1533 -1.2783
  118MOL0     H15894   7.590   8.473   0.566 -1.2140 -0.0347 -0.8439
  118MOL0     H15895   7.764   8.525   0.413  0.3577 -0.4240  1.7712
  118MOL0     H15896   7.966   8.647   0.384 -4.3518  0.7668  1.0306
  118MOL0     H15897   7.891   8.583   0.249  1.5887 -1.5729  0.6661
  118MOL0     H15898   8.121   8.682   0.226  0.0257 -0.7721  0.5774
  118MOL0     H15899   8.017   8.764   0.112 -0.3548 -2.3016 -0.1710
  118MOL0     H15900   8.119   8.868   0.389 -0.0998  0.7322 -0.4471
  118MOL0     H15901   7.987   8.951   0.309  1.5097  2.0650  0.8292
  118MOL0     H15902   8.091   8.986   0.119  1.6703  0.6680 -0.7597
  118MOL0     H15903   8.179   9.069   0.246 -0.1161 -0.1002  0.4999
  118MOL0     H15904   8.323   8.932   0.054 -3.3221  0.0943 -1.0445
  118MOL0     H15905   8.270   8.790   0.139  1.6895  0.0400  6.0502
  118MOL0     H15906   8.438   8.989   0.267  1.8871 -0.9699  0.6015
  118MOL0     H15907   8.390   8.837   0.338  1.4502  1.1237  0.7430
  118MOL0     H15908   8.533   8.857   0.077 -1.3659  0.1155 -0.1553
  118MOL0     H15909   8.526   8.716   0.176 -0.4010 -0.6358  1.9915
  118MOL0     H15910   8.650   8.813   0.351  2.6418 -1.5426 -0.4545
  118MOL0     H15911   8.685   8.972   0.271  1.2113 -0.8007  0.5988
  118MOL0     H15912   7.630   8.933   0.391 -2.9408 -0.0974 -2.1573
  118MOL0     H15913   7.434   8.867   0.541 -0.3925 -1.6260  0.5226
  118MOL0     H15914   7.171   8.614   0.712  2.4242 -4.1745  0.4780
  118MOL0     H15915   6.973   8.574   0.863  1.6422  0.7248 -3.2847
  118MOL0     H15916   6.752   9.676   0.479  1.0296  3.3280  1.5073
  118MOL0     H15917   7.014   9.768   0.480  0.3969  2.1750 -2.9954
  118MOL0     H15918   7.463   9.550   0.653  3.1696 -0.7037  2.0083
  118MOL0     H15919   7.691   9.644   0.672 -0.8587 -1.5866  0.4836
  118MOL0     H15920   7.879   9.625   0.530  1.0390  0.0822  2.4892
  118MOL0     H15921   7.978   9.765   0.471 -1.5077  1.5569 -1.0113
  118MOL0     H15922   8.070   9.707   0.685 -1.4809 -0.7639 -0.6014
  118MOL0     H15923   7.917   9.686   0.766 -0.4850 -1.3417 -1.5673
  118MOL0     H15924   7.985   9.898   0.840  1.0438 -0.6742  0.6435
  118MOL0     H15925   7.867   9.925   0.709  1.0056  1.1390 -1.0546
  118MOL0     H15926   8.071   9.962   0.563  1.3743 -0.9132 -0.5097
  118MOL0     H15927   8.168   9.974   0.714  0.5927  3.1404 -1.2481
  118MOL0     H15928   7.981  10.350   0.734 -1.2470  0.2644 -3.6703
  118MOL0     H15929   7.626   9.892   0.339 -0.5861  0.5018 -0.7267
  118MOL0     H15930   7.391   9.826   0.339  2.4729  2.1195 -2.2233
  119MOL0     O15931   9.589   6.069  10.735 -0.1369  0.0364  0.6237
  119MOL0     C15932   9.669   6.110  10.816 -0.2566  0.4051 -0.4690
  119MOL0     O15933   9.736   6.231  10.804  0.5931  0.7681 -0.1706
  119MOL0     C15934   9.771   6.295  10.688  0.0337 -0.1734 -0.0386
  119MOL0     C15935   9.764   6.235  10.559 -0.3220  0.0246 -0.0555
  119MOL0     C15936   9.816   6.308  10.444 -0.2080  0.7213  0.2769
  119MOL0     C15937   9.849   6.442  10.454  0.7085 -0.5712 -0.1330
  119MOL0     O15938   9.899   6.516  10.355  0.0100  0.3473  0.8006
  119MOL0     C15939   9.969   6.441  10.255 -0.7548  0.5842  0.0803
  119MOL0     C15940  10.055   6.539  10.168 -0.3661 -0.5031  0.2188
  119MOL0     C15941   9.981   6.595  10.050  0.7572 -0.1403 -0.0859
  119MOL0     C15942   9.832   6.629  10.065 -0.1071 -0.7140 -0.3538
  119MOL0     C15943   9.778   6.705   9.935 -0.8731  0.2946 -0.0861
  119MOL0     C15944   9.823   6.850   9.932  0.2464 -0.3134  1.2095
  119MOL0     C15945   9.766   6.915   9.807  0.0497  0.9138  0.8332
  119MOL0     C15946   9.755   7.068   9.842  0.6991 -0.6712 -0.1681
  119MOL0     N15947   9.711   7.134   9.722  0.6958  0.2265 -0.1722
  119MOL0     C15948   9.589   7.105   9.671 -0.2287  0.0516  1.0637
  119MOL0     C15949   9.589   7.169   9.555 -0.8271  0.1446 -0.4259
  119MOL0     C15950   9.471   7.171   9.465 -0.0733 -1.1115  0.2109
  119MOL0     C15951   9.442   7.034   9.399  0.7527 -0.4577  0.6527
  119MOL0     C15952   9.552   6.992   9.304 -0.3208 -0.6595 -0.3473
  119MOL0     C15953   9.661   6.901   9.367  0.0431 -1.4267  0.2314
  119MOL0     O15954   9.601   6.784   9.418  1.1421 -0.1092 -0.5474
  119MOL0     C15955   9.676   6.680   9.467 -0.7416 -0.1302 -0.1546
  119MOL0     C15956   9.816   6.677   9.467 -0.1636  0.4472  0.0199
  119MOL0     C15957   9.889   6.571   9.529 -0.0131  0.2040  0.1472
  119MOL0     C15958  10.036   6.583   9.522 -0.4794  0.7857 -0.6444
  119MOL0     C15959   9.819   6.475   9.599  0.3882 -0.3335  0.6491
  119MOL0     C15960   9.874   6.377   9.688 -0.8396 -0.3308  0.4121
  119MOL0     O15961   9.816   6.365   9.807  0.0855  0.0698  0.2456
  119MOL0     C15962   9.846   6.259   9.888  0.0414  0.0964 -0.5515
  119MOL0     C15963   9.969   6.214   9.938 -0.7370 -0.1795 -0.0413
  119MOL0     C15964   9.990   6.114  10.028  0.0177  0.6969 -0.2032
  119MOL0     C15965   9.889   6.050  10.088  0.6325 -0.7910 -0.2555
  119MOL0     O15966   9.912   5.954  10.187 -0.6025 -0.2787  0.0318
  119MOL0     C15967   9.817   5.948  10.293  0.1439 -0.6526 -0.2554
  119MOL0     C15968   9.815   5.820  10.361  0.6054  0.4719 -0.8860
  119MOL0     C15969   9.758   5.706  10.275  0.5394 -0.1904 -0.1365
  119MOL0     C15970   9.693   5.602  10.362  0.8184  0.2756  0.6705
  119MOL0     C15971   9.631   5.485  10.287  0.3850  0.2955 -0.0920
  119MOL0     C15972   9.595   5.387  10.394 -0.6577 -0.5892 -0.2673
  119MOL0     C15973   9.508   5.276  10.324  0.0494 -0.3823  0.5700
  119MOL0     C15974   9.362   5.313  10.279  0.4638 -0.0627 -0.1075
  119MOL0    Cl15975   9.259   5.327  10.428  0.0842 -0.1991  0.1014
  119MOL0     C15976   9.757   6.094  10.051 -0.4069 -1.0551  0.9237
  119MOL0     C15977   9.737   6.186   9.945 -0.0017  0.1102 -0.5061
  119MOL0     O15978   9.960   6.306   9.640 -0.7938  0.6589  0.0482
  119MOL0     C15979   9.670   6.489   9.600 -0.6013  1.0724  0.4960
  119MOL0     C15980   9.604   6.598   9.543  0.2320 -0.0876 -0.7340
  119MOL0     N15981   9.710   7.227   9.535  0.0774 -0.3886 -0.9401
  119MOL0     N15982   9.786   7.213   9.639 -0.3705  0.4617 -0.7524
  119MOL0     C15983   9.833   6.505  10.576 -0.2129 -1.0460 -1.0106
  119MOL0     C15984   9.798   6.434  10.693 -0.7272 -1.0748 -1.4493
  119MOL0     C15985   9.689   6.039  10.942 -0.2175 -0.6206 -0.3966
  119MOL0     C15986   9.794   6.081  11.032  0.6153 -1.1924 -0.7263
  119MOL0     C15987   9.805   6.009  11.154 -0.8005 -0.5011 -0.5048
  119MOL0     C15988   9.729   5.900  11.187  0.0348  0.6894 -1.0164
  119MOL0     O15989   9.737   5.835  11.302 -0.5670  0.9405 -0.7780
  119MOL0     C15990   9.722   5.919  11.411 -0.2270 -0.2639  0.0394
  119MOL0     C15991   9.597   5.871  11.497  1.2910  0.1122  0.2133
  119MOL0     C15992   9.605   5.750  11.584  0.1208  0.9660 -0.8474
  119MOL0     C15993   9.619   5.776  11.738 -0.3717  0.5583  0.4291
  119MOL0     C15994   9.501   5.833  11.803  0.1050  0.6547  0.4571
  119MOL0     C15995   9.394   5.866  11.839  0.3927 -0.6331  0.1586
  119MOL0     C15996   9.626   5.861  11.098 -0.3903 -0.0900  0.2438
  119MOL0     C15997   9.611   5.936  10.980  0.4436  0.1073  0.6101
  119MOL0     H15998   9.738   6.131  10.550 -4.5162  1.0080 -1.6300
  119MOL0     H15999   9.824   6.249  10.353  3.2629 -0.1810  1.0355
  119MOL0     H16000  10.046   6.379  10.303 -1.9246 -0.6554  0.4283
  119MOL0     H16001   9.887   6.394  10.198 -0.5048  1.5125 -1.0895
  119MOL0     H16002  10.084   6.622  10.233 -0.2825  0.6250 -1.2111
  119MOL0     H16003  10.138   6.482  10.125 -0.0802 -1.1904  1.6060
  119MOL0     H16004  10.043   6.678  10.015  2.7294 -3.2305 -5.1591
  119MOL0     H16005   9.994   6.523   9.968 -0.9877  1.0909 -1.4999
  119MOL0     H16006   9.774   6.538  10.084 -0.5346 -0.6221 -1.1592
  119MOL0     H16007   9.829   6.697  10.150 -1.2666  0.0472 -0.9758
  119MOL0     H16008   9.800   6.666   9.835 -1.0403 -0.2057  0.0682
  119MOL0     H16009   9.669   6.697   9.943 -0.8605  1.9108  2.7066
  119MOL0     H16010   9.786   6.898  10.023 -0.0915  1.7450  0.0395
  119MOL0     H16011   9.931   6.868   9.937  0.3378 -1.0908  2.3621
  119MOL0     H16012   9.818   6.883   9.716 -1.7531  0.6010 -0.1488
  119MOL0     H16013   9.671   6.861   9.800  1.5263 -2.2684  2.7386
  119MOL0     H16014   9.856   7.105   9.859  0.9719 -0.6526 -1.7423
  119MOL0     H16015   9.689   7.085   9.928  1.1493 -1.1690  0.2807
  119MOL0     H16016   9.501   7.052   9.706 -0.0667  0.1104  1.5830
  119MOL0     H16017   9.377   7.198   9.515  0.3958  2.2734 -0.4798
  119MOL0     H16018   9.486   7.254   9.394  0.9427  0.0442  1.7148
  119MOL0     H16019   9.364   7.043   9.324  3.0398  0.2773 -1.8026
  119MOL0     H16020   9.429   6.953   9.471 -0.4182 -1.8086 -0.9947
  119MOL0     H16021   9.605   7.075   9.258 -1.6331 -1.4980 -3.6384
  119MOL0     H16022   9.518   6.936   9.216  1.4929 -0.1737 -1.3909
  119MOL0     H16023   9.706   6.957   9.450 -2.2364 -3.1332  2.7941
  119MOL0     H16024   9.737   6.888   9.289 -1.0620 -0.3009 -1.0867
  119MOL0     H16025   9.867   6.761   9.423 -0.7106  1.4677  1.2642
  119MOL0     H16026  10.080   6.482   9.521 -4.1731 -0.9764 -1.2226
  119MOL0     H16027  10.062   6.627   9.426  2.1672  0.5722 -0.1177
  119MOL0     H16028  10.085   6.641   9.601  0.1694  2.3764 -2.1664
  119MOL0     H16029  10.060   6.248   9.890 -2.6243  2.1556 -2.2335
  119MOL0     H16030  10.085   6.073  10.060  0.8676  1.4726 -1.6378
  119MOL0     H16031   9.839   6.027  10.365 -0.8936  1.1586 -1.8438
  119MOL0     H16032   9.712   5.965  10.269  0.6241  3.8900 -0.1187
  119MOL0     H16033   9.914   5.789  10.395  0.2003 -0.4703 -0.5079
  119MOL0     H16034   9.751   5.835  10.449  0.0962 -0.2453 -1.1226
  119MOL0     H16035   9.836   5.671  10.208  1.0680 -0.8392  0.8006
  119MOL0     H16036   9.681   5.739  10.205 -1.0520 -1.5598  0.8878
  119MOL0     H16037   9.778   5.576  10.425  1.9011  1.3479 -0.3071
  119MOL0     H16038   9.626   5.650  10.434  4.7246  0.2200  4.7510
  119MOL0     H16039   9.702   5.447  10.213  0.9361 -2.1771  1.5432
  119MOL0     H16040   9.540   5.531  10.248  0.7636  1.2635  0.1313
  119MOL0     H16041   9.685   5.344  10.439  1.7689  1.1965 -2.9819
  119MOL0     H16042   9.529   5.434  10.467 -2.3063 -0.5980 -1.6775
  119MOL0     H16043   9.505   5.204  10.406 -3.1218 -0.0427  0.8761
  119MOL0     H16044   9.545   5.226  10.234  0.3324  0.0935  0.4227
  119MOL0     H16045   9.313   5.239  10.216  1.9097  0.1019 -1.4889
  119MOL0     H16046   9.344   5.407  10.226 -3.8725 -1.4961 -1.5844
  119MOL0     H16047   9.679   6.048  10.111 -1.5975  0.6717  0.7672
  119MOL0     H16048   9.640   6.212   9.903 -1.2867 -2.1393  0.8487
  119MOL0     H16049   9.605   6.425   9.658 -0.0474  1.5691  1.7096
  119MOL0     H16050   9.499   6.617   9.563  0.2896 -0.1554 -0.3538
  119MOL0     H16051   9.871   6.605  10.597 -1.0585 -1.1023  0.8972
  119MOL0     H16052   9.802   6.500  10.779  1.5351 -0.0257 -2.2936
  119MOL0     H16053   9.871   6.156  11.019  1.1465 -0.3880  4.7629
  119MOL0     H16054   9.893   6.026  11.214 -1.3223 -0.8164  0.3562
  119MOL0     H16055   9.807   5.916  11.479 -0.5035 -1.5471  0.3533
  119MOL0     H16056   9.718   6.024  11.381  0.5672 -1.1327 -3.6046
  119MOL0     H16057   9.514   5.860  11.427  1.4311  1.7814 -0.2494
  119MOL0     H16058   9.562   5.944  11.570  0.6903 -1.2896  1.3947
  119MOL0     H16059   9.678   5.685  11.535  0.4914 -0.1443  1.0785
  119MOL0     H16060   9.513   5.696  11.560  0.1342  2.2552 -4.3213
  119MOL0     H16061   9.691   5.857  11.753  0.6357 -0.2637  0.2189
  119MOL0     H16062   9.664   5.684  11.777  1.2641  0.5591 -1.2915
  119MOL0     H16063   9.299   5.916  11.841  1.6478  2.0494 -1.8126
  119MOL0     H16064   9.555   5.780  11.111  1.8974 -2.7755 -2.2833
  119MOL0     H16065   9.535   5.910  10.907 -1.6232  0.1733  2.6151
  120MOL0     O16066  10.752   3.421   8.383  0.1225  0.3027  0.7646
  120MOL0     C16067  10.786   3.533   8.404  0.8406  0.2972  0.1390
  120MOL0     O16068  10.733   3.611   8.510  0.4086 -0.0339  0.5924
  120MOL0     C16069  10.663   3.538   8.604 -0.2009 -0.0772  0.6048
  120MOL0     C16070  10.737   3.491   8.716  0.9262  0.6447 -0.0854
  120MOL0     C16071  10.668   3.412   8.807  0.2525  0.3768  0.6594
  120MOL0     C16072  10.530   3.380   8.798 -0.4706  0.2349 -0.3120
  120MOL0     O16073  10.479   3.296   8.893 -0.1717  1.3073 -0.1519
  120MOL0     C16074  10.344   3.312   8.923 -0.1239  0.0020 -0.8611
  120MOL0     C16075  10.280   3.215   9.034 -0.3511  0.1380 -0.2640
  120MOL0     C16076  10.382   3.175   9.147  0.5038  0.3193 -0.1307
  120MOL0     C16077  10.333   3.059   9.236  0.3325 -0.7533 -0.0682
  120MOL0     C16078  10.427   3.027   9.355 -0.1295 -0.4402  0.6474
  120MOL0     C16079  10.361   2.939   9.463 -0.1835 -0.4615  0.1327
  120MOL0     C16080  10.447   2.887   9.575  0.0071  0.4004 -0.3948
  120MOL0     C16081  10.566   2.969   9.624 -0.2384  0.7303  0.3619
  120MOL0     N16082  10.621   2.913   9.751 -0.0056 -0.3355 -0.3526
  120MOL0     C16083  10.722   2.812   9.765  0.0769  0.5773 -0.1806
  120MOL0     C16084  10.756   2.815   9.897  0.1213 -0.2705 -0.2349
  120MOL0     C16085  10.887   2.755   9.959  0.5616  0.8999 -0.2462
  120MOL0     C16086  10.892   2.597   9.964 -0.4119  0.5479  0.6363
  120MOL0     C16087  10.806   2.531  10.076  0.1526 -0.7184  0.3927
  120MOL0     C16088  10.761   2.381  10.050  0.1290  0.6329 -0.6296
  120MOL0     O16089  10.739   2.305  10.169 -0.1319  1.1633 -0.4415
  120MOL0     C16090  10.672   2.353  10.271  0.5911 -0.3944 -1.1130
  120MOL0     C16091  10.543   2.403  10.261 -0.7715  0.1128  1.0456
  120MOL0     C16092  10.480   2.463  10.372  0.3740 -0.5759  0.2520
  120MOL0     C16093  10.328   2.496  10.377 -0.4814  0.3196  0.1410
  120MOL0     C16094  10.557   2.483  10.491 -0.1178  0.9734  0.4094
  120MOL0     C16095  10.507   2.566  10.597 -0.0211 -0.1711 -0.0849
  120MOL0     O16096  10.538   2.525  10.725  0.0655 -0.6694  0.2943
  120MOL0     C16097  10.450   2.564  10.829 -0.7477  0.0894 -0.3785
  120MOL0     C16098  10.318   2.615  10.812  0.1156  1.3526 -0.7253
  120MOL0     C16099  10.238   2.640  10.926 -0.3855  0.6422 -0.2188
  120MOL0     C16100  10.296   2.637  11.053  0.2783  0.4997 -1.0892
  120MOL0     O16101  10.223   2.694  11.158  1.0631  0.5067 -0.3617
  120MOL0     C16102  10.174   2.594  11.250  0.7043  0.0249  0.5423
  120MOL0     C16103  10.132   2.654  11.386 -0.5546  0.6375  0.4340
  120MOL0     C16104  10.092   2.537  11.472 -0.0436 -0.3290 -0.9324
  120MOL0     C16105  10.003   2.585  11.591 -0.0081 -0.2516 -0.1861
  120MOL0     C16106   9.962   2.464  11.678 -0.3952 -0.4332  0.9634
  120MOL0     C16107   9.873   2.505  11.801  0.0124 -0.6468  0.0198
  120MOL0     C16108   9.853   2.392  11.909 -0.4990  0.3871  0.1009
  120MOL0     C16109   9.713   2.375  11.962  0.6163 -0.4411  0.5590
  120MOL0    Cl16110   9.595   2.294  11.841 -0.0086 -0.1882 -0.1576
  120MOL0     C16111  10.432   2.589  11.075 -0.2743  0.2367 -0.0529
  120MOL0     C16112  10.499   2.556  10.965  0.3306 -0.4966  0.4192
  120MOL0     O16113  10.452   2.670  10.567 -0.1489 -0.1393  0.9106
  120MOL0     C16114  10.683   2.418  10.500  0.4158 -0.3239 -0.0803
  120MOL0     C16115  10.740   2.357  10.393 -0.3036 -0.3415  0.9427
  120MOL0     N16116  10.688   2.920   9.959  0.6485 -0.0935  0.2284
  120MOL0     N16117  10.603   2.968   9.875  0.3927 -1.3648  0.3736
  120MOL0     C16118  10.462   3.422   8.680  0.6408  0.6014 -0.3302
  120MOL0     C16119  10.524   3.508   8.588 -0.8964 -0.5594 -0.6816
  120MOL0     C16120  10.880   3.588   8.300 -0.7434  1.1464 -0.3142
  120MOL0     C16121  10.942   3.716   8.318 -0.7061  0.2391  0.1821
  120MOL0     C16122  11.037   3.762   8.234  0.5343 -0.2331 -0.4369
  120MOL0     C16123  11.086   3.677   8.135  0.6554  0.0881  1.1519
  120MOL0     O16124  11.188   3.703   8.044  0.0528  0.1076 -1.0361
  120MOL0     C16125  11.155   3.817   7.969 -1.4675 -0.2227 -0.0284
  120MOL0     C16126  11.280   3.871   7.904 -0.1743 -0.0238 -0.0709
  120MOL0     C16127  11.271   4.009   7.839  0.3136 -0.1533 -0.1255
  120MOL0     C16128  11.407   4.070   7.799  0.4136  0.5222 -0.4287
  120MOL0     C16129  11.480   4.109   7.919 -0.3193 -1.1668  0.3809
  120MOL0     C16130  11.521   4.149   8.025 -1.1430  0.0447 -0.6679
  120MOL0     C16131  11.027   3.556   8.108  0.0853 -0.0752  0.8036
  120MOL0     C16132  10.921   3.515   8.189 -0.1198 -0.0417 -0.2464
  120MOL0     H16133  10.843   3.511   8.731  1.2295  0.0777 -1.2624
  120MOL0     H16134  10.706   3.374   8.901 -0.9804 -0.0521  1.0100
  120MOL0     H16135  10.334   3.410   8.972 -0.8417 -0.0661 -0.8685
  120MOL0     H16136  10.273   3.310   8.840 -2.8270 -1.5628  1.3273
  120MOL0     H16137  10.198   3.270   9.081  0.3555 -1.6473  3.3762
  120MOL0     H16138  10.234   3.131   8.982  0.7381 -0.0608 -0.9440
  120MOL0     H16139  10.465   3.134   9.088  0.1633 -0.4892 -0.0580
  120MOL0     H16140  10.424   3.257   9.206  2.1207 -0.8705  0.4554
  120MOL0     H16141  10.238   3.099   9.274 -0.4768 -0.4547 -2.2375
  120MOL0     H16142  10.319   2.972   9.171  2.0924  0.5647 -2.3466
  120MOL0     H16143  10.511   2.968   9.318  1.5461  2.2311 -0.1309
  120MOL0     H16144  10.483   3.112   9.395 -0.4943 -0.8219  2.0298
  120MOL0     H16145  10.280   2.993   9.513  1.6400  1.3307  1.3037
  120MOL0     H16146  10.311   2.858   9.410  0.2218  0.5569 -1.9225
  120MOL0     H16147  10.390   2.866   9.666 -1.6441  1.1077 -1.2351
  120MOL0     H16148  10.480   2.787   9.545 -2.1620 -0.5434  0.1613
  120MOL0     H16149  10.534   3.073   9.634 -3.7690  0.1611 -2.8169
  120MOL0     H16150  10.643   2.963   9.546  0.3125  2.2682  0.7567
  120MOL0     H16151  10.761   2.752   9.683  3.2016 -0.2556  1.7451
  120MOL0     H16152  10.973   2.789   9.902  2.1334 -2.9293 -0.4408
  120MOL0     H16153  10.907   2.797  10.059  1.3068  1.0056 -0.4352
  120MOL0     H16154  10.995   2.560   9.968 -0.9416 -1.2513 -0.9471
  120MOL0     H16155  10.841   2.556   9.876  0.1910 -1.9541  1.3973
  120MOL0     H16156  10.713   2.589  10.081  0.7313  1.0114 -4.0949
  120MOL0     H16157  10.857   2.547  10.170  0.7120  4.0088 -0.4734
  120MOL0     H16158  10.852   2.341  10.005  1.2844  2.6491 -0.2319
  120MOL0     H16159  10.672   2.379   9.985 -2.3380  0.5393  2.4918
  120MOL0     H16160  10.493   2.381  10.168 -0.5752  0.3577  0.8824
  120MOL0     H16161  10.295   2.443  10.466  1.9199  4.0436  3.6002
  120MOL0     H16162  10.307   2.603  10.385  2.3185  0.8572  1.4221
  120MOL0     H16163  10.274   2.467  10.286 -0.6369 -1.7923  0.8627
  120MOL0     H16164  10.269   2.628  10.716 -2.3002 -0.5360  0.1512
  120MOL0     H16165  10.134   2.670  10.917 -1.2997 -0.7533  3.7249
  120MOL0     H16166  10.075   2.561  11.218  1.1636 -1.5772  0.6883
  120MOL0     H16167  10.237   2.505  11.256 -2.6114 -2.6279 -0.9892
  120MOL0     H16168  10.211   2.724  11.415 -1.9587  2.0787  0.8966
  120MOL0     H16169  10.045   2.718  11.371 -1.1001 -0.0533  0.6047
  120MOL0     H16170  10.183   2.481  11.496 -0.8925 -1.9276 -1.2774
  120MOL0     H16171  10.025   2.470  11.417 -0.0757 -1.2843  0.2355
  120MOL0     H16172  10.071   2.649  11.648  1.0730 -2.6525  1.3669
  120MOL0     H16173   9.908   2.628  11.557 -1.1244 -2.7936 -0.4965
  120MOL0     H16174  10.054   2.409  11.699  0.8988 -1.1204 -4.7319
  120MOL0     H16175   9.909   2.394  11.612  0.4045  0.6536 -0.9089
  120MOL0     H16176   9.920   2.587  11.857  1.0432 -1.8089  0.9381
  120MOL0     H16177   9.774   2.533  11.767  1.6053  3.1302 -2.1202
  120MOL0     H16178   9.926   2.419  11.986  2.4678 -1.9631 -1.6721
  120MOL0     H16179   9.887   2.298  11.864  1.9391  0.6599  1.1761
  120MOL0     H16180   9.677   2.473  11.997 -0.1595 -0.2234 -0.7634
  120MOL0     H16181   9.721   2.319  12.055  0.9815 -1.3702 -0.0157
  120MOL0     H16182  10.470   2.577  11.175  2.1887 -0.8615 -1.0395
  120MOL0     H16183  10.605   2.534  10.963  0.8486  1.8044 -0.7838
  120MOL0     H16184  10.742   2.426  10.590 -1.0923 -2.0235  1.1331
  120MOL0     H16185  10.843   2.323  10.390 -0.0282  0.5104 -0.6735
  120MOL0     H16186  10.360   3.385   8.673  1.0516 -0.7107  0.2778
  120MOL0     H16187  10.465   3.555   8.509 -1.6931 -1.9600 -0.9472
  120MOL0     H16188  10.909   3.783   8.396 -1.6459  1.3861 -1.1611
  120MOL0     H16189  11.079   3.862   8.247 -1.5550  0.7745 -1.0269
  120MOL0     H16190  11.086   3.786   7.891 -2.5192  1.1688  0.3044
  120MOL0     H16191  11.119   3.901   8.030  2.9788  0.5996  1.8783
  120MOL0     H16192  11.323   3.796   7.838 -0.2381  0.6586 -0.9071
  120MOL0     H16193  11.358   3.882   7.980  1.5038 -0.4328 -1.6703
  120MOL0     H16194  11.218   4.085   7.896  1.1558  1.3893 -1.3329
  120MOL0     H16195  11.211   3.982   7.752  0.5800 -3.4751  0.5735
  120MOL0     H16196  11.400   4.147   7.722  3.4934  1.3180 -0.0615
  120MOL0     H16197  11.465   3.990   7.752  4.4253  2.7758  0.1835
  120MOL0     H16198  11.551   4.176   8.125 -3.1697  1.6270 -0.4243
  120MOL0     H16199  11.062   3.488   8.032 -1.4180 -0.7129  0.6407
  120MOL0     H16200  10.859   3.427   8.174 -2.7688  1.4779  1.0356
  121MOL0     O16201   7.453   3.519   8.429 -0.1844  0.5330 -0.4483
  121MOL0     C16202   7.531   3.602   8.471  1.2021  0.0081  0.0232
  121MOL0     O16203   7.581   3.609   8.598 -0.2231  0.0477 -0.7409
  121MOL0     C16204   7.544   3.532   8.707  0.1429  0.7592 -0.1380
  121MOL0     C16205   7.585   3.577   8.830 -0.0719  0.2657  0.3375
  121MOL0     C16206   7.583   3.496   8.943  0.5249 -0.5469 -0.4727
  121MOL0     C16207   7.525   3.372   8.934 -0.6150 -0.1897  0.2356
  121MOL0     O16208   7.518   3.311   9.058  0.3249 -0.3513  0.1692
  121MOL0     C16209   7.525   3.167   9.059  0.5001 -0.1144 -0.1762
  121MOL0     C16210   7.557   3.140   9.202 -0.3393  0.0289  0.5861
  121MOL0     C16211   7.541   2.987   9.222 -0.3561 -0.0244 -0.1107
  121MOL0     C16212   7.555   2.961   9.362 -1.0262  0.4484 -0.2833
  121MOL0     C16213   7.578   2.812   9.397  0.3968 -0.5258  1.5237
  121MOL0     C16214   7.722   2.774   9.370 -0.8054  0.7568  0.5886
  121MOL0     C16215   7.831   2.840   9.444 -0.1881  1.4223 -0.3772
  121MOL0     C16216   7.963   2.751   9.413  0.3383 -0.2657 -0.6741
  121MOL0     N16217   8.085   2.808   9.472 -0.3307  0.1399 -0.0254
  121MOL0     C16218   8.163   2.904   9.424 -1.1595 -1.0373 -0.0246
  121MOL0     C16219   8.245   2.934   9.525 -0.3983 -0.2902 -0.1618
  121MOL0     C16220   8.356   3.030   9.515 -0.6383 -0.5059  0.1717
  121MOL0     C16221   8.508   2.981   9.523 -0.4687  0.1411 -0.0807
  121MOL0     C16222   8.529   2.831   9.480  0.7714  0.1420  0.4596
  121MOL0     C16223   8.481   2.711   9.572  0.4034 -0.3447  0.5050
  121MOL0     O16224   8.554   2.596   9.527 -0.2808  0.5845  0.8876
  121MOL0     C16225   8.516   2.501   9.429  1.2132 -0.3020 -1.2171
  121MOL0     C16226   8.570   2.372   9.433 -1.0436 -0.9267  0.9784
  121MOL0     C16227   8.531   2.263   9.350  0.3651 -0.0608 -0.4433
  121MOL0     C16228   8.599   2.132   9.358 -0.1022  0.6540  0.2683
  121MOL0     C16229   8.424   2.294   9.262 -0.0132 -0.2777  0.3957
  121MOL0     C16230   8.358   2.198   9.166  0.3857 -0.1047  0.3095
  121MOL0     O16231   8.334   2.254   9.043  0.3084  0.0172 -0.2828
  121MOL0     C16232   8.280   2.166   8.947 -0.7459 -0.3184  0.7214
  121MOL0     C16233   8.140   2.141   8.930 -0.9001 -0.9523  0.2961
  121MOL0     C16234   8.093   2.068   8.820  0.0866  0.5523 -0.4451
  121MOL0     C16235   8.194   2.003   8.735  0.6769 -0.0059  0.0172
  121MOL0     O16236   8.167   1.914   8.633 -0.3988  0.2200 -0.0576
  121MOL0     C16237   8.030   1.878   8.596  0.1171 -0.3715 -0.3308
  121MOL0     C16238   7.998   1.762   8.512 -0.5292  0.1056  0.2828
  121MOL0     C16239   8.074   1.643   8.576  0.8660  0.2663 -0.2827
  121MOL0     C16240   8.043   1.513   8.504 -0.3670 -0.6556 -0.7926
  121MOL0     C16241   8.104   1.389   8.569 -0.0210 -0.3584 -0.8339
  121MOL0     C16242   8.261   1.402   8.584 -0.0218  0.0259  0.4389
  121MOL0     C16243   8.329   1.278   8.639  0.6983  0.3368 -0.3278
  121MOL0     C16244   8.471   1.254   8.634  0.2082  0.2729 -0.9984
  121MOL0    Cl16245   8.542   1.398   8.708  0.2512  0.1627  0.1350
  121MOL0     C16246   8.331   2.034   8.747  0.1849 -0.2408  0.2517
  121MOL0     C16247   8.367   2.124   8.848  0.5810 -0.9588  0.4657
  121MOL0     O16248   8.326   2.086   9.197  0.3300 -0.3185  0.6991
  121MOL0     C16249   8.378   2.426   9.252 -0.8620 -1.1489 -0.0433
  121MOL0     C16250   8.417   2.526   9.335  0.7809 -0.2345  0.6348
  121MOL0     N16251   8.210   2.862   9.632 -1.1214 -0.1768 -0.2694
  121MOL0     N16252   8.125   2.780   9.600 -0.2553  0.2983  0.6075
  121MOL0     C16253   7.489   3.320   8.810 -0.4152  0.1384 -0.3278
  121MOL0     C16254   7.502   3.404   8.701  0.1395  0.9365  0.3974
  121MOL0     C16255   7.574   3.722   8.388  0.0812  0.2081 -1.0426
  121MOL0     C16256   7.539   3.723   8.256 -0.5794  0.2071  1.0867
  121MOL0     C16257   7.565   3.826   8.173 -0.9381 -0.8728  0.8657
  121MOL0     C16258   7.634   3.944   8.220  0.4300  0.0393  0.3016
  121MOL0     O16259   7.651   4.060   8.142  0.0600  1.0522 -0.3464
  121MOL0     C16260   7.599   4.178   8.206 -0.1165 -0.1473  0.0331
  121MOL0     C16261   7.559   4.278   8.088  0.6141  0.4313  0.2282
  121MOL0     C16262   7.476   4.202   7.987 -0.5667 -0.0878 -0.8209
  121MOL0     C16263   7.558   4.165   7.859  0.3613  0.9386 -0.5206
  121MOL0     C16264   7.474   4.094   7.762 -0.7965 -0.6701 -0.2028
  121MOL0     C16265   7.393   4.050   7.680  0.1971 -0.8740  0.6301
  121MOL0     C16266   7.679   3.935   8.351  0.4265  0.4655  0.2606
  121MOL0     C16267   7.655   3.828   8.438 -0.1708 -0.0169 -0.1611
  121MOL0     H16268   7.628   3.676   8.836 -1.1485  0.9137 -1.7792
  121MOL0     H16269   7.624   3.528   9.038 -0.2351  0.6905 -0.5332
  121MOL0     H16270   7.432   3.115   9.032  0.5535 -1.8877  2.6108
  121MOL0     H16271   7.611   3.119   9.013  0.6277  0.0200 -0.0781
  121MOL0     H16272   7.654   3.187   9.222  0.3468 -0.6001 -1.0770
  121MOL0     H16273   7.490   3.198   9.267  1.0169 -0.7730  2.8328
  121MOL0     H16274   7.440   2.958   9.193 -0.3861 -1.4977  1.3114
  121MOL0     H16275   7.616   2.923   9.174 -0.7175 -1.4074  1.0837
  121MOL0     H16276   7.632   3.022   9.411 -2.5284  2.8619 -0.7789
  121MOL0     H16277   7.462   3.001   9.403  0.0017 -0.6302  3.5911
  121MOL0     H16278   7.555   2.791   9.501 -1.5830 -1.5677  0.9218
  121MOL0     H16279   7.508   2.752   9.338 -0.2040 -0.6374  2.3285
  121MOL0     H16280   7.710   2.667   9.391 -2.8333  0.9579  0.7124
  121MOL0     H16281   7.749   2.795   9.266 -0.7350 -2.3708 -0.1256
  121MOL0     H16282   7.853   2.943   9.415  2.3853  1.4880  1.4041
  121MOL0     H16283   7.817   2.831   9.552  1.3254 -1.6741 -0.3240
  121MOL0     H16284   7.969   2.744   9.304  1.0887  0.2279 -0.6676
  121MOL0     H16285   7.947   2.651   9.453 -0.7219  0.2861  0.3523
  121MOL0     H16286   8.165   2.945   9.323  0.0921  1.2507  0.8654
  121MOL0     H16287   8.342   3.089   9.424  4.3255 -0.3923 -0.7997
  121MOL0     H16288   8.334   3.107   9.589 -1.4065 -0.6442  0.0971
  121MOL0     H16289   8.524   2.975   9.631  2.4495  0.8757 -0.3930
  121MOL0     H16290   8.582   3.046   9.475  0.8517 -2.6526 -2.1394
  121MOL0     H16291   8.636   2.813   9.463  0.5279 -0.6019 -0.3682
  121MOL0     H16292   8.476   2.825   9.384  0.9475 -0.1074  0.3747
  121MOL0     H16293   8.373   2.695   9.565  0.4222 -0.6869  0.9518
  121MOL0     H16294   8.506   2.724   9.677  2.8176  2.9576 -0.3146
  121MOL0     H16295   8.644   2.372   9.512  2.3022  4.9690 -1.5528
  121MOL0     H16296   8.688   2.140   9.421  3.6498 -1.1055 -4.2450
  121MOL0     H16297   8.534   2.052   9.394  2.7169 -0.2807  3.8188
  121MOL0     H16298   8.645   2.112   9.261  1.6580 -1.0313  1.3952
  121MOL0     H16299   8.074   2.190   9.000 -0.4910 -1.4020  1.0102
  121MOL0     H16300   7.986   2.054   8.806 -0.4486  3.1276  0.4909
  121MOL0     H16301   7.985   1.859   8.694  3.8652 -0.7542  1.4962
  121MOL0     H16302   7.986   1.967   8.549 -1.3680 -1.7852 -1.7162
  121MOL0     H16303   7.890   1.744   8.514 -0.5511  0.1316 -0.5371
  121MOL0     H16304   8.037   1.779   8.411 -0.3615  1.2196  0.5226
  121MOL0     H16305   8.047   1.637   8.682  2.1341  0.7090  0.0819
  121MOL0     H16306   8.181   1.667   8.579  0.5401  1.9907 -1.4604
  121MOL0     H16307   7.936   1.514   8.481  0.0955  0.0785 -3.2666
  121MOL0     H16308   8.096   1.513   8.408 -0.4637  0.3450 -0.8474
  121MOL0     H16309   8.066   1.301   8.515  0.4836 -0.3428 -1.2303
  121MOL0     H16310   8.060   1.378   8.668 -0.6965 -2.5472 -1.3203
  121MOL0     H16311   8.306   1.449   8.496 -0.5667  0.1842  0.2413
  121MOL0     H16312   8.278   1.475   8.663 -0.4128  0.4447  0.1410
  121MOL0     H16313   8.288   1.194   8.582  0.6159  0.3420 -0.2760
  121MOL0     H16314   8.285   1.261   8.738  0.6539  2.1149 -0.0154
  121MOL0     H16315   8.498   1.239   8.529 -0.2705  0.7184 -1.1892
  121MOL0     H16316   8.502   1.165   8.689  0.7662  1.3630  0.5306
  121MOL0     H16317   8.409   1.993   8.684  0.3603 -1.7486  1.3842
  121MOL0     H16318   8.472   2.153   8.853  0.7243 -1.5816  1.2563
  121MOL0     H16319   8.309   2.455   9.173 -1.0816 -2.1156 -0.2234
  121MOL0     H16320   8.368   2.622   9.322 -3.5243 -2.2167  0.4378
  121MOL0     H16321   7.455   3.217   8.804  0.6632 -0.1574 -1.6732
  121MOL0     H16322   7.470   3.355   8.609  1.5654  3.0195 -1.3060
  121MOL0     H16323   7.485   3.641   8.210 -3.1288  2.2075  0.2732
  121MOL0     H16324   7.516   3.840   8.077 -2.0413  0.8015  1.6181
  121MOL0     H16325   7.513   4.158   8.271  0.1303  1.1372  0.7886
  121MOL0     H16326   7.677   4.221   8.270 -0.3509 -0.2925  0.4226
  121MOL0     H16327   7.654   4.321   8.054  0.5467 -0.1015 -0.6519
  121MOL0     H16328   7.505   4.356   8.142  2.7069  0.6788  2.0910
  121MOL0     H16329   7.391   4.261   7.952 -1.1557 -1.0155 -1.0065
  121MOL0     H16330   7.444   4.107   8.031  0.1272 -0.1447 -0.4379
  121MOL0     H16331   7.650   4.110   7.882  0.0123  0.6480  0.2111
  121MOL0     H16332   7.598   4.257   7.816  3.5755 -0.4655 -0.7658
  121MOL0     H16333   7.322   4.009   7.611  0.6807 -0.7321  0.0332
  121MOL0     H16334   7.737   4.015   8.395 -0.7978  0.2607  2.3805
  121MOL0     H16335   7.694   3.840   8.538 -1.5179  2.8688  0.1286
  122MOL0     O16336  10.014  10.152   2.682  0.4153  0.5247  0.0456
  122MOL0     C16337   9.983  10.172   2.795  0.3927  1.1797 -0.1289
  122MOL0     O16338  10.007  10.087   2.900 -0.3662 -0.2981  0.2428
  122MOL0     C16339  10.067   9.965   2.877 -0.2878 -0.3240  0.6685
  122MOL0     C16340  10.011   9.858   2.930 -0.5484 -0.6425  0.1607
  122MOL0     C16341  10.073   9.732   2.927  1.0942 -0.4102  1.1377
  122MOL0     C16342  10.194   9.716   2.876 -0.9819  0.0918 -0.0033
  122MOL0     O16343  10.250   9.591   2.890  0.5251 -0.1561 -0.9651
  122MOL0     C16344  10.374   9.569   2.816  0.2933  0.8226 -0.3384
  122MOL0     C16345  10.494   9.616   2.899  0.0759 -0.6505 -0.6833
  122MOL0     C16346  10.633   9.576   2.839 -0.3091 -0.1529 -0.9058
  122MOL0     C16347  10.654   9.654   2.705  0.2067  0.6624 -0.2780
  122MOL0     C16348  10.788   9.634   2.632 -0.2931  0.0202 -0.0648
  122MOL0     C16349  10.820   9.752   2.542  0.1973  0.6944  0.0501
  122MOL0     C16350  10.971   9.734   2.505  1.5292 -0.7163 -0.2938
  122MOL0     C16351  11.008   9.850   2.412  0.3774 -0.0057  0.3728
  122MOL0     N16352  11.152   9.845   2.378 -0.6888 -0.6437 -0.3003
  122MOL0     C16353  11.195   9.752   2.286 -0.2890 -0.4270  0.2814
  122MOL0     C16354  11.332   9.775   2.291  0.8356 -0.1438 -0.4681
  122MOL0     C16355  11.434   9.714   2.206  0.3855  0.0450  0.6195
  122MOL0     C16356  11.566   9.749   2.255 -0.6955 -0.4504  0.5055
  122MOL0     C16357  11.678   9.713   2.154  0.7816 -0.3088  0.1531
  122MOL0     C16358  11.820   9.712   2.197  0.1520  0.3457 -0.2565
  122MOL0     O16359  11.867   9.843   2.223 -0.9243 -0.1559  0.7415
  122MOL0     C16360  11.997   9.862   2.254  0.9870 -0.2203  0.4459
  122MOL0     C16361  12.055   9.988   2.245 -0.0635  0.0251  0.4331
  122MOL0     C16362  12.192  10.014   2.259  0.0313 -0.3277 -0.2398
  122MOL0     C16363  12.247  10.149   2.231  0.2225  0.8094  0.1372
  122MOL0     C16364  12.276   9.907   2.297 -0.8366 -0.1134 -0.2170
  122MOL0     C16365  12.421   9.910   2.322 -0.5483 -0.9489  0.7226
  122MOL0     O16366  12.500  10.019   2.272  0.1669  0.5876 -0.5557
  122MOL0     C16367  12.635  10.012   2.273 -0.0926  0.6636  0.3920
  122MOL0     C16368  12.702  10.130   2.312  0.2195  0.5103 -0.9339
  122MOL0     C16369  12.838  10.134   2.347 -0.7829 -0.0657  0.8705
  122MOL0     C16370  12.920  10.026   2.319 -0.9315  0.6277 -1.5910
  122MOL0     O16371  13.058  10.024   2.329 -0.0163 -0.2965 -0.0946
  122MOL0     C16372  13.152   9.962   2.247 -0.2837 -0.9198 -0.4068
  122MOL0     C16373  13.287  10.013   2.289 -0.2193  0.3624 -0.4843
  122MOL0     C16374  13.409   9.998   2.200 -1.1341  0.3300  0.8838
  122MOL0     C16375  13.420   9.874   2.110  1.1926  0.0841  0.5341
  122MOL0     C16376  13.424   9.747   2.194 -0.3177  0.0871  0.1314
  122MOL0     C16377  13.564   9.737   2.269  0.3104 -0.4391 -0.1799
  122MOL0     C16378  13.568   9.595   2.324 -0.0094 -0.1533 -0.3419
  122MOL0     C16379  13.546   9.594   2.471 -0.8394  0.1604  0.1366
  122MOL0    Cl16380  13.578   9.430   2.520 -0.0861 -0.0065  0.3641
  122MOL0     C16381  12.855   9.909   2.275  0.5197  0.1118 -0.0884
  122MOL0     C16382  12.716   9.900   2.258  0.2296  0.4040 -0.2929
  122MOL0     O16383  12.469   9.809   2.369  0.5418  0.5618 -0.0059
  122MOL0     C16384  12.211   9.788   2.323  0.2455 -0.4781 -0.3676
  122MOL0     C16385  12.079   9.759   2.302 -0.4469  0.3118  0.7027
  122MOL0     N16386  11.360   9.873   2.382 -0.1040 -0.5269 -0.1215
  122MOL0     N16387  11.254   9.915   2.435  0.6990 -0.3600 -0.3543
  122MOL0     C16388  10.257   9.825   2.816  1.1707 -0.0712  0.0339
  122MOL0     C16389  10.197   9.956   2.822 -0.2061 -0.8081  0.5752
  122MOL0     C16390   9.928  10.308   2.820  0.5320  0.3639 -0.2815
  122MOL0     C16391   9.931  10.347   2.961  0.6224  0.0534 -0.3626
  122MOL0     C16392   9.923  10.478   2.998  0.9203 -0.2493  0.6337
  122MOL0     C16393   9.907  10.577   2.903  0.9264  0.1592  0.0334
  122MOL0     O16394   9.895  10.711   2.943  0.1866  0.1988  1.2091
  122MOL0     C16395   9.813  10.733   3.054 -0.9760 -0.2571 -0.8745
  122MOL0     C16396   9.660  10.695   3.052 -0.5303 -0.2759  0.7573
  122MOL0     C16397   9.569  10.779   2.949 -0.8861 -0.1351 -0.5959
  122MOL0     C16398   9.424  10.735   2.954 -0.1733  0.4740  0.3790
  122MOL0     C16399   9.417  10.600   2.894 -0.8621 -0.1212  0.2407
  122MOL0     C16400   9.401  10.487   2.846 -0.5766  0.1374 -0.2254
  122MOL0     C16401   9.906  10.545   2.772  1.2157  1.2096  0.1636
  122MOL0     C16402   9.919  10.410   2.729 -0.3274  0.1009  0.3562
  122MOL0     H16403   9.910   9.860   2.969 -1.8968 -1.7477 -2.9558
  122MOL0     H16404  10.022   9.643   2.961 -0.4695 -0.8371 -1.9648
  122MOL0     H16405  10.378   9.461   2.796 -2.5807  0.8765 -1.6510
  122MOL0     H16406  10.380   9.618   2.718  1.5511  2.7353  0.6288
  122MOL0     H16407  10.507   9.723   2.916  1.1604 -0.1265 -3.9650
  122MOL0     H16408  10.486   9.565   2.995  1.3020 -0.9117 -0.6956
  122MOL0     H16409  10.713   9.593   2.912  0.3245 -0.5467 -1.5090
  122MOL0     H16410  10.635   9.467   2.830 -1.6411 -0.2986  0.1470
  122MOL0     H16411  10.570   9.638   2.637  1.7736  0.6643 -2.3363
  122MOL0     H16412  10.650   9.759   2.735  1.6198  1.2250 -1.8985
  122MOL0     H16413  10.863   9.628   2.711  0.2533  1.4609 -0.4440
  122MOL0     H16414  10.799   9.544   2.571 -1.7193 -0.4331  0.2856
  122MOL0     H16415  10.756   9.754   2.454 -0.8122  1.9034  0.7861
  122MOL0     H16416  10.809   9.839   2.607 -1.5694 -0.2407  1.0833
  122MOL0     H16417  11.013   9.742   2.606 -3.3060 -1.4014  2.0602
  122MOL0     H16418  10.984   9.635   2.460 -0.0082  0.9872 -5.0901
  122MOL0     H16419  10.984   9.942   2.466 -0.1410  0.0417  0.0693
  122MOL0     H16420  10.945   9.841   2.323  0.4071 -2.1813  0.5272
  122MOL0     H16421  11.143   9.672   2.235  0.0613  1.2994 -3.1297
  122MOL0     H16422  11.412   9.608   2.189  2.6464  0.0915 -4.4129
  122MOL0     H16423  11.429   9.768   2.111  2.2776  1.3652  1.2149
  122MOL0     H16424  11.580   9.703   2.353 -2.9189 -1.7115  0.2815
  122MOL0     H16425  11.576   9.858   2.268 -0.0134 -0.3034 -1.0223
  122MOL0     H16426  11.664   9.781   2.069 -3.9321 -0.9539  0.1505
  122MOL0     H16427  11.658   9.610   2.123 -0.3118  0.1998 -0.9362
  122MOL0     H16428  11.872   9.660   2.116  2.4979  2.3517 -0.1414
  122MOL0     H16429  11.833   9.652   2.288 -0.8385 -0.3214 -0.5406
  122MOL0     H16430  11.982  10.061   2.211 -1.0636 -1.3679 -0.5084
  122MOL0     H16431  12.164  10.215   2.202 -1.7657 -0.5020  2.4695
  122MOL0     H16432  12.314  10.190   2.307  1.4716 -0.4428 -0.2510
  122MOL0     H16433  12.316  10.133   2.148  0.4245 -1.8212  0.7468
  122MOL0     H16434  12.629  10.208   2.331  0.0938 -0.3234  2.5860
  122MOL0     H16435  12.874  10.231   2.380  0.9224  0.8652 -3.0715
  122MOL0     H16436  13.151   9.856   2.274  0.1862 -0.3178  2.1941
  122MOL0     H16437  13.131   9.971   2.140 -2.4835 -1.1393 -0.0561
  122MOL0     H16438  13.278  10.120   2.305 -1.7963  0.2461 -0.4340
  122MOL0     H16439  13.313   9.962   2.383  1.7042  0.9128 -0.6608
  122MOL0     H16440  13.501  10.022   2.254  0.1046  0.9577 -1.3972
  122MOL0     H16441  13.401  10.086   2.136  4.7701  1.3271  0.9251
  122MOL0     H16442  13.332   9.862   2.047  1.3961 -2.8466  0.6904
  122MOL0     H16443  13.504   9.871   2.040  1.0364 -3.9185  0.2710
  122MOL0     H16444  13.390   9.659   2.139  0.6912 -0.7184  0.7646
  122MOL0     H16445  13.340   9.753   2.264 -0.3948  1.3394 -0.0456
  122MOL0     H16446  13.644   9.767   2.201  1.2946  0.6934  1.4303
  122MOL0     H16447  13.575   9.808   2.351  0.9169  0.7426 -1.2491
  122MOL0     H16448  13.673   9.575   2.299  0.3917  0.9493  0.4050
  122MOL0     H16449  13.493   9.530   2.277 -0.9557  1.0340 -0.5145
  122MOL0     H16450  13.441   9.616   2.496 -0.4886  0.5071  1.3693
  122MOL0     H16451  13.601   9.669   2.528 -0.5212 -1.1868  1.6945
  122MOL0     H16452  12.916   9.821   2.260  0.0916 -0.5459  1.7402
  122MOL0     H16453  12.665   9.810   2.227  1.4033 -0.4249  0.1156
  122MOL0     H16454  12.261   9.699   2.357 -1.0127 -1.7458 -1.6876
  122MOL0     H16455  12.043   9.662   2.335  2.7451 -0.4798  2.2458
  122MOL0     H16456  10.355   9.814   2.770 -0.0375 -2.3132 -2.2625
  122MOL0     H16457  10.247  10.046   2.789 -2.7015  0.3063 -0.4392
  122MOL0     H16458   9.934  10.270   3.039 -2.9733  0.6206  0.5047
  122MOL0     H16459   9.920  10.507   3.103  0.3694  0.1887  0.5017
  122MOL0     H16460   9.857  10.687   3.143 -2.1950 -1.0239 -0.6495
  122MOL0     H16461   9.832  10.837   3.082  2.8632 -1.1621  0.4919
  122MOL0     H16462   9.625  10.696   3.155 -0.5733  0.9730  0.7376
  122MOL0     H16463   9.651  10.592   3.015  2.6615 -0.1513 -0.7259
  122MOL0     H16464   9.609  10.763   2.849 -0.6240 -0.7658 -0.4009
  122MOL0     H16465   9.583  10.884   2.976 -1.1877 -0.8817  3.0647
  122MOL0     H16466   9.364  10.802   2.891 -1.6925 -1.7309 -0.6861
  122MOL0     H16467   9.390  10.739   3.058  2.6409 -1.5604  1.4901
  122MOL0     H16468   9.386  10.385   2.817 -0.9134 -0.0142  0.4709
  122MOL0     H16469   9.903  10.618   2.691  1.8683 -2.2460 -3.2859
  122MOL0     H16470   9.925  10.398   2.622 -1.7628  1.5798  0.0627
  123MOL0     O16471   2.452   1.099  11.247 -0.7023  0.5302 -0.4062
  123MOL0     C16472   2.448   1.201  11.314  0.5075 -0.6919  0.9942
  123MOL0     O16473   2.353   1.235  11.407  0.3926  0.9470 -0.9066
  123MOL0     C16474   2.278   1.136  11.468 -0.3146  0.3049 -0.5393
  123MOL0     C16475   2.199   1.049  11.392  0.4218  0.5364 -0.5747
  123MOL0     C16476   2.119   0.956  11.462 -1.2428  0.1898 -0.3324
  123MOL0     C16477   2.136   0.942  11.600  0.2129  0.8465  0.0956
  123MOL0     O16478   2.061   0.836  11.654  0.1407 -0.1552  1.0397
  123MOL0     C16479   2.064   0.811  11.794 -0.4840 -0.5916 -0.3814
  123MOL0     C16480   1.968   0.697  11.824  0.6341 -0.3033 -0.3724
  123MOL0     C16481   2.030   0.559  11.768 -0.7284  0.5612  0.6867
  123MOL0     C16482   1.941   0.440  11.811  0.4212  0.8673 -0.0197
  123MOL0     C16483   1.785   0.461  11.770 -0.3290  0.0877 -0.7382
  123MOL0     C16484   1.715   0.325  11.747  0.2022  1.0286  0.4568
  123MOL0     C16485   1.572   0.342  11.685 -0.7416 -0.4238 -0.4178
  123MOL0     C16486   1.474   0.224  11.682  0.0545 -0.8512  0.7245
  123MOL0     N16487   1.333   0.250  11.647  0.1313 -0.5250  0.1147
  123MOL0     C16488   1.272   0.373  11.657 -0.4587  0.3862 -0.4940
  123MOL0     C16489   1.167   0.366  11.571 -0.3021  0.4194 -0.9168
  123MOL0     C16490   1.067   0.471  11.531 -0.6661 -0.1467  0.3545
  123MOL0     C16491   1.140   0.567  11.438 -0.1583 -0.9702 -0.5913
  123MOL0     C16492   1.188   0.488  11.306 -0.6213  0.1785  0.1410
  123MOL0     C16493   1.324   0.546  11.255  0.3283  0.0084 -0.4973
  123MOL0     O16494   1.428   0.473  11.320  0.0891 -0.2390 -0.1793
  123MOL0     C16495   1.551   0.489  11.264  0.2638 -0.8979 -0.1396
  123MOL0     C16496   1.632   0.555  11.351 -0.6668  0.0523 -0.4370
  123MOL0     C16497   1.768   0.590  11.317  0.1856 -1.1670  0.1721
  123MOL0     C16498   1.849   0.672  11.421  0.2934  0.0771 -0.5069
  123MOL0     C16499   1.805   0.565  11.182  0.2097  0.9489 -0.2355
  123MOL0     C16500   1.935   0.603  11.124  0.2598  0.2855 -1.1395
  123MOL0     O16501   1.964   0.541  11.007  0.2171  1.1357  0.6343
  123MOL0     C16502   2.085   0.554  10.964 -0.0170 -0.3117 -0.1400
  123MOL0     C16503   2.181   0.482  11.034 -0.4599 -0.1677 -0.4246
  123MOL0     C16504   2.320   0.493  10.993  0.2520 -1.0829  1.2680
  123MOL0     C16505   2.366   0.593  10.903 -0.1274  0.3199 -0.3318
  123MOL0     O16506   2.504   0.609  10.891  0.4746  0.7381 -0.0036
  123MOL0     C16507   2.555   0.748  10.891  0.4768  0.8623  0.5196
  123MOL0     C16508   2.671   0.758  10.803 -0.5388 -0.3634 -0.0415
  123MOL0     C16509   2.638   0.805  10.660 -0.0729 -0.4164  0.3131
  123MOL0     C16510   2.755   0.802  10.559 -0.7047 -0.0654 -0.0916
  123MOL0     C16511   2.702   0.841  10.419  0.7058  0.4075  0.2619
  123MOL0     C16512   2.810   0.834  10.308 -0.3776 -0.0786  0.4797
  123MOL0     C16513   2.748   0.831  10.171 -0.9110  0.4040  0.5949
  123MOL0     C16514   2.701   0.968  10.114  0.5872  0.5058  0.3790
  123MOL0    Cl16515   2.554   1.016  10.221  0.1846 -0.1948  0.7852
  123MOL0     C16516   2.265   0.675  10.845  0.0154 -0.3510  0.1670
  123MOL0     C16517   2.133   0.652  10.882 -0.6261  0.2159  0.9844
  123MOL0     O16518   2.008   0.686  11.186 -0.6509 -0.8677  0.8797
  123MOL0     C16519   1.717   0.500  11.096 -0.2857  0.3652  0.3304
  123MOL0     C16520   1.590   0.461  11.131  0.1925 -0.7966 -0.7248
  123MOL0     N16521   1.163   0.232  11.512 -0.1871 -0.5299  0.0342
  123MOL0     N16522   1.269   0.170  11.561  0.1027 -0.5471  0.6003
  123MOL0     C16523   2.217   1.024  11.670 -0.4935  0.3970 -0.1189
  123MOL0     C16524   2.283   1.127  11.607 -0.1582 -0.2486 -0.5013
  123MOL0     C16525   2.551   1.301  11.290 -0.3252  0.0997  0.2745
  123MOL0     C16526   2.558   1.422  11.368 -0.3284 -0.3717  0.5781
  123MOL0     C16527   2.663   1.517  11.355  0.3204  0.4411  0.7273
  123MOL0     C16528   2.767   1.496  11.259 -0.6404 -0.7491 -0.0247
  123MOL0     O16529   2.864   1.593  11.250 -0.7024  0.3689 -0.8490
  123MOL0     C16530   2.998   1.553  11.210  0.9003  0.9093  0.1801
  123MOL0     C16531   3.067   1.497  11.334  0.8051  0.2032  0.4072
  123MOL0     C16532   3.219   1.460  11.319 -0.0745 -0.6598  0.6296
  123MOL0     C16533   3.242   1.328  11.248 -0.6211  0.0646  0.1618
  123MOL0     C16534   3.244   1.341  11.105 -0.5752 -1.6260 -0.6837
  123MOL0     C16535   3.244   1.365  10.988  0.5349 -0.3002  0.0486
  123MOL0     C16536   2.753   1.375  11.186 -0.1219  0.2582  0.0390
  123MOL0     C16537   2.653   1.279  11.201  0.1865 -0.7200  0.1515
  123MOL0     H16538   2.189   1.046  11.284 -1.1740 -1.1324 -0.4325
  123MOL0     H16539   2.054   0.886  11.411 -1.0078  0.5326 -1.1116
  123MOL0     H16540   2.163   0.794  11.837  0.1721 -0.2460 -1.6882
  123MOL0     H16541   2.033   0.902  11.846  1.8690  1.5488 -2.4239
  123MOL0     H16542   1.942   0.699  11.930 -2.0434 -1.4417 -0.9214
  123MOL0     H16543   1.877   0.725  11.769  0.4445 -1.1322 -0.4913
  123MOL0     H16544   2.041   0.555  11.659 -0.6170  0.1518  0.7117
  123MOL0     H16545   2.127   0.545  11.817  1.0242  0.6718 -2.4868
  123MOL0     H16546   1.979   0.351  11.760 -1.7221 -0.0294 -0.1528
  123MOL0     H16547   1.947   0.434  11.920  1.4905 -2.2972 -0.1261
  123MOL0     H16548   1.737   0.509  11.855 -0.6596 -2.1572  0.3981
  123MOL0     H16549   1.780   0.526  11.681  0.8666  1.1091 -0.0977
  123MOL0     H16550   1.770   0.257  11.681 -0.5998  2.0096 -1.2626
  123MOL0     H16551   1.707   0.267  11.840  0.5904  1.0926  0.5340
  123MOL0     H16552   1.528   0.427  11.739 -0.4405  0.4148 -1.4478
  123MOL0     H16553   1.579   0.371  11.580 -2.2516 -0.5182 -0.5735
  123MOL0     H16554   1.477   0.169  11.776  3.1278  0.4484  1.5253
  123MOL0     H16555   1.518   0.165  11.601 -1.3604  1.4452 -1.9031
  123MOL0     H16556   1.306   0.453  11.723  0.6766 -1.4139  1.1932
  123MOL0     H16557   0.985   0.440  11.466 -0.9033  3.1473 -1.0908
  123MOL0     H16558   1.032   0.528  11.618 -0.2771 -1.7140  1.6024
  123MOL0     H16559   1.224   0.619  11.486 -1.0827  0.0747 -0.0662
  123MOL0     H16560   1.059   0.635  11.410  0.4441  0.6536  1.3854
  123MOL0     H16561   1.103   0.501  11.238 -0.5176  3.0816  0.4529
  123MOL0     H16562   1.200   0.382  11.330  0.3552 -0.0991 -1.4486
  123MOL0     H16563   1.323   0.653  11.276 -1.4087 -0.1624  0.4773
  123MOL0     H16564   1.330   0.520  11.149  2.0084 -0.5062 -0.3018
  123MOL0     H16565   1.597   0.558  11.454  0.4919 -1.3742  0.0417
  123MOL0     H16566   1.865   0.777  11.398  0.8397  1.1252  3.8136
  123MOL0     H16567   1.782   0.667  11.507 -2.8962  1.8491 -2.7156
  123MOL0     H16568   1.949   0.634  11.447 -0.0791  0.1983  1.2354
  123MOL0     H16569   2.142   0.424  11.117  1.0602  0.2683  0.6457
  123MOL0     H16570   2.395   0.428  11.038  0.3462 -0.8442  1.4568
  123MOL0     H16571   2.480   0.820  10.857  0.6897 -0.3515 -2.8523
  123MOL0     H16572   2.584   0.760  10.996  2.4714  1.2432 -0.0343
  123MOL0     H16573   2.750   0.819  10.848 -0.7809 -0.9448  1.1943
  123MOL0     H16574   2.714   0.658  10.798 -2.4025 -1.1428 -1.6283
  123MOL0     H16575   2.600   0.908  10.666 -3.3279 -1.3578 -1.8029
  123MOL0     H16576   2.557   0.745  10.619 -0.5293  0.4688 -0.1155
  123MOL0     H16577   2.829   0.877  10.588  1.1258 -0.1594 -3.9417
  123MOL0     H16578   2.794   0.700  10.548 -2.2609 -0.6371 -0.7020
  123MOL0     H16579   2.655   0.940  10.425  1.1337  0.8601 -2.5534
  123MOL0     H16580   2.626   0.768  10.390  3.6359 -2.7306 -0.2628
  123MOL0     H16581   2.875   0.922  10.312  3.3628 -2.6322  0.9929
  123MOL0     H16582   2.866   0.740  10.310  0.9780  0.6879 -0.2551
  123MOL0     H16583   2.673   0.751  10.168 -1.6357  0.9119  3.1354
  123MOL0     H16584   2.825   0.800  10.099 -0.3025  2.3298  0.3632
  123MOL0     H16585   2.669   0.964  10.009 -0.2876  1.0878  0.6107
  123MOL0     H16586   2.784   1.039  10.127  0.1421  0.8703  1.2890
  123MOL0     H16587   2.293   0.759  10.781 -0.2981 -0.5487 -0.2255
  123MOL0     H16588   2.067   0.724  10.836 -1.6388  0.8245  3.2611
  123MOL0     H16589   1.739   0.479  10.992  1.2685 -1.3079  0.9362
  123MOL0     H16590   1.522   0.404  11.069 -0.8679  0.0281 -0.3566
  123MOL0     H16591   2.230   1.008  11.776 -1.1539 -2.8441 -0.4451
  123MOL0     H16592   2.331   1.193  11.678  0.4331  1.3652 -2.2974
  123MOL0     H16593   2.477   1.442  11.437 -0.1874 -0.1835  0.6896
  123MOL0     H16594   2.669   1.599  11.425  2.5242  0.9285  0.0154
  123MOL0     H16595   2.996   1.477  11.132  2.2341  1.3610 -0.3278
  123MOL0     H16596   3.048   1.643  11.172 -1.7167  0.8765 -3.9872
  123MOL0     H16597   3.016   1.407  11.371  0.4038 -0.9841 -2.7867
  123MOL0     H16598   3.053   1.576  11.409 -0.1471  1.1553 -0.7406
  123MOL0     H16599   3.251   1.465  11.423 -2.1289  2.9689  1.2853
  123MOL0     H16600   3.273   1.539  11.267 -2.7176 -1.2506 -3.4855
  123MOL0     H16601   3.156   1.266  11.276 -2.0778  1.9559  0.1142
  123MOL0     H16602   3.328   1.282  11.297 -0.1298  0.2280 -0.5362
  123MOL0     H16603   3.233   1.394  10.886 -0.4882  1.0032  0.4953
  123MOL0     H16604   2.831   1.354  11.114 -0.5153  0.7271 -0.5295
  123MOL0     H16605   2.637   1.195  11.134 -0.1037 -0.2473 -0.3857
  124MOL0     O16606   2.593   3.513   1.134  0.4293  0.1666 -0.4093
  124MOL0     C16607   2.623   3.555   1.017  0.2488  0.6457 -1.6106
  124MOL0     O16608   2.540   3.568   0.918 -0.5440  0.9829  0.4274
  124MOL0     C16609   2.408   3.535   0.918  0.2321  1.2702 -0.6359
  124MOL0     C16610   2.308   3.597   0.853  0.1365 -0.0262  1.0815
  124MOL0     C16611   2.172   3.564   0.842  0.7356  0.1929 -0.8537
  124MOL0     C16612   2.131   3.450   0.922 -0.5896 -0.1166  0.2788
  124MOL0     O16613   2.000   3.421   0.915  0.7608 -0.0119  0.2108
  124MOL0     C16614   1.972   3.296   0.853  0.2814  0.3168  0.0611
  124MOL0     C16615   1.838   3.255   0.920  0.4046  1.0512 -0.4502
  124MOL0     C16616   1.716   3.338   0.901 -0.7974  0.4583  0.2969
  124MOL0     C16617   1.589   3.245   0.895  0.0746  0.2261  0.5034
  124MOL0     C16618   1.458   3.303   0.841 -0.4645 -1.1062 -0.3177
  124MOL0     C16619   1.343   3.207   0.847 -0.3877 -0.0128 -0.4606
  124MOL0     C16620   1.253   3.193   0.971 -0.2516 -0.1170 -0.2413
  124MOL0     C16621   1.125   3.117   0.971  0.2094 -0.1449  0.6191
  124MOL0     N16622   1.143   2.980   0.914 -0.4770 -0.0428 -0.5906
  124MOL0     C16623   1.257   2.894   0.942  0.4611 -0.0655  1.0456
  124MOL0     C16624   1.228   2.782   0.872  0.0511  0.7147  0.0611
  124MOL0     C16625   1.298   2.654   0.853  0.8985 -0.8052  0.6220
  124MOL0     C16626   1.302   2.571   0.979 -0.0498 -1.3702  0.4577
  124MOL0     C16627   1.156   2.538   1.034 -0.3524 -1.0388  0.3458
  124MOL0     C16628   1.077   2.450   0.934 -0.2239 -0.8382  0.2087
  124MOL0     O16629   0.959   2.395   0.983 -0.4429  0.3861 -0.8406
  124MOL0     C16630   0.847   2.477   0.982 -0.0662  0.2984 -0.3080
  124MOL0     C16631   0.729   2.407   1.026 -0.1083  0.1156  0.4002
  124MOL0     C16632   0.600   2.472   1.016 -0.7717 -0.0778  1.2532
  124MOL0     C16633   0.474   2.400   1.070 -0.3874 -0.3331 -0.8904
  124MOL0     C16634   0.589   2.605   0.969  0.5625  0.6057  0.5385
  124MOL0     C16635   0.460   2.683   0.964 -0.0486 -0.5875 -0.5257
  124MOL0     O16636   0.355   2.635   1.029  0.8309  0.3808  0.1231
  124MOL0     C16637   0.236   2.712   1.061  0.7080  0.9297  0.2609
  124MOL0     C16638   0.217   2.850   1.042  0.8213  0.3691 -0.0308
  124MOL0     C16639   0.097   2.909   1.063 -0.3993 -0.2843 -0.3511
  124MOL0     C16640  -0.015   2.850   1.119  0.1551  0.0196 -0.3598
  124MOL0     O16641  -0.131   2.924   1.125 -0.6866  0.4270  0.2554
  124MOL0     C16642  -0.251   2.847   1.161  0.1753  0.4736  1.0400
  124MOL0     C16643  -0.374   2.928   1.183 -0.0018 -0.4686 -0.3969
  124MOL0     C16644  -0.367   3.026   1.303 -0.3016 -0.4265  0.3799
  124MOL0     C16645  -0.354   2.953   1.432 -0.1850  0.3695  0.0764
  124MOL0     C16646  -0.384   3.030   1.561  0.2912 -0.3375  0.2694
  124MOL0     C16647  -0.414   2.943   1.672 -0.4341  0.1959 -0.0941
  124MOL0     C16648  -0.409   3.006   1.806  0.0450  0.3568 -0.0622
  124MOL0     C16649  -0.418   2.900   1.916  0.1446 -0.0591  0.7805
  124MOL0    Cl16650  -0.570   2.800   1.886  0.6293  0.0106 -0.0544
  124MOL0     C16651   0.001   2.707   1.145  0.7909  0.5833 -0.0336
  124MOL0     C16652   0.120   2.637   1.100  0.4505  0.1797  0.2052
  124MOL0     O16653   0.458   2.785   0.895  0.3996 -0.1570 -0.3169
  124MOL0     C16654   0.712   2.679   0.937 -1.2460 -0.3421  0.4236
  124MOL0     C16655   0.840   2.609   0.943  0.8044 -0.6681  0.2499
  124MOL0     N16656   1.102   2.795   0.810  0.5145  0.7053  1.1172
  124MOL0     N16657   1.052   2.912   0.842  0.1708  0.9567  0.3746
  124MOL0     C16658   2.232   3.376   0.984  0.4552 -0.3121 -0.4619
  124MOL0     C16659   2.362   3.413   0.978  0.1099 -0.5006 -0.7944
  124MOL0     C16660   2.775   3.575   0.992  0.4742 -0.0254  0.6236
  124MOL0     C16661   2.820   3.652   0.883 -0.1345 -1.2056 -0.1697
  124MOL0     C16662   2.954   3.683   0.869 -0.6767 -0.6226  0.5308
  124MOL0     C16663   3.058   3.638   0.956 -1.2647  0.1703 -0.4053
  124MOL0     O16664   3.183   3.677   0.943 -0.4303  0.4967  0.6775
  124MOL0     C16665   3.288   3.609   1.006  0.3108 -0.0098  0.1380
  124MOL0     C16666   3.335   3.686   1.124 -0.0833 -0.9415 -0.4410
  124MOL0     C16667   3.427   3.801   1.081  0.0995 -0.1059 -0.4221
  124MOL0     C16668   3.543   3.812   1.169 -0.0277  0.4253  0.1433
  124MOL0     C16669   3.631   3.703   1.138 -0.2323  0.8673 -0.8453
  124MOL0     C16670   3.696   3.600   1.129 -0.6357 -0.3633  0.2937
  124MOL0     C16671   3.009   3.557   1.057 -0.2217  0.9794 -0.5676
  124MOL0     C16672   2.871   3.524   1.080 -0.3759  0.4925 -0.3215
  124MOL0     H16673   2.334   3.692   0.808  1.7713 -1.8880 -2.3295
  124MOL0     H16674   2.089   3.615   0.794 -1.2238 -2.6279 -0.7106
  124MOL0     H16675   1.953   3.317   0.747  0.7147  0.7377  0.0678
  124MOL0     H16676   2.052   3.221   0.855 -2.0935 -2.4171 -0.2629
  124MOL0     H16677   1.819   3.160   0.869 -0.6765 -0.1379  2.0197
  124MOL0     H16678   1.852   3.241   1.027 -3.6047  1.4543  0.2944
  124MOL0     H16679   1.704   3.422   0.969  2.2900  0.5738  0.8752
  124MOL0     H16680   1.745   3.379   0.803  2.1625  1.2717  1.4112
  124MOL0     H16681   1.596   3.155   0.833  0.4638 -0.0646  0.9631
  124MOL0     H16682   1.585   3.207   0.998 -1.6054 -1.3855 -0.0897
  124MOL0     H16683   1.433   3.397   0.891  0.5853 -0.5467 -0.8102
  124MOL0     H16684   1.467   3.331   0.735 -2.9772  4.5598  0.6181
  124MOL0     H16685   1.275   3.245   0.771 -1.2610 -0.5987  0.0100
  124MOL0     H16686   1.364   3.109   0.804  1.0711 -0.7473  1.7517
  124MOL0     H16687   1.313   3.151   1.053 -0.0246 -1.7931 -1.2341
  124MOL0     H16688   1.226   3.292   1.008  0.9527  0.2133 -0.1886
  124MOL0     H16689   1.062   3.184   0.911  1.1327  0.4546  0.2763
  124MOL0     H16690   1.088   3.116   1.073 -1.3932  1.0655  0.1022
  124MOL0     H16691   1.334   2.917   1.015  0.4643 -0.0665  1.0425
  124MOL0     H16692   1.246   2.599   0.774 -3.2144  1.5002  1.4314
  124MOL0     H16693   1.399   2.670   0.814  0.2429 -0.3290 -0.9519
  124MOL0     H16694   1.351   2.631   1.056 -6.0990  3.0293  1.6522
  124MOL0     H16695   1.371   2.488   0.964 -1.2679 -2.1739 -1.1390
  124MOL0     H16696   1.117   2.635   1.066  0.4887 -0.4425 -0.3590
  124MOL0     H16697   1.163   2.485   1.129 -4.0477 -1.3124  0.6138
  124MOL0     H16698   1.152   2.371   0.916  0.5986 -0.3729  1.4227
  124MOL0     H16699   1.062   2.501   0.839 -0.1026 -1.0525  0.0729
  124MOL0     H16700   0.743   2.306   1.065 -0.1200 -0.6551 -1.4810
  124MOL0     H16701   0.506   2.301   1.103 -0.4181 -0.5642 -1.5469
  124MOL0     H16702   0.439   2.457   1.157 -0.0698 -1.3059 -0.1180
  124MOL0     H16703   0.389   2.394   1.000 -0.1948 -3.4378 -0.9918
  124MOL0     H16704   0.305   2.907   1.012  1.7887 -0.5875  0.9499
  124MOL0     H16705   0.097   3.017   1.050 -0.7992 -0.4444 -1.9076
  124MOL0     H16706  -0.282   2.779   1.081 -1.7723  1.5681  0.8010
  124MOL0     H16707  -0.232   2.791   1.253  1.6137 -0.1507  0.3971
  124MOL0     H16708  -0.404   2.978   1.090  0.5663  0.5496 -0.0532
  124MOL0     H16709  -0.451   2.854   1.205  0.7158 -0.9762  0.4540
  124MOL0     H16710  -0.460   3.082   1.291  0.2461  0.2783 -0.9127
  124MOL0     H16711  -0.285   3.098   1.298  0.5084 -0.6016  5.5636
  124MOL0     H16712  -0.418   2.865   1.422  1.9446 -1.3928  1.1563
  124MOL0     H16713  -0.256   2.908   1.449  0.1203  0.5379 -1.1550
  124MOL0     H16714  -0.461   3.107   1.555  0.6425  0.3093  2.8820
  124MOL0     H16715  -0.289   3.077   1.590  2.5859 -3.5384 -1.4196
  124MOL0     H16716  -0.515   2.912   1.642 -1.6456  1.7752  2.1029
  124MOL0     H16717  -0.348   2.856   1.673  2.7080  2.4352  0.6324
  124MOL0     H16718  -0.489   3.080   1.812 -0.9948 -0.8543  2.3011
  124MOL0     H16719  -0.317   3.064   1.812  0.7370 -0.8189  1.7125
  124MOL0     H16720  -0.410   2.944   2.016  5.4117  3.1114 -0.6594
  124MOL0     H16721  -0.327   2.839   1.921 -1.0819 -1.9126  1.4122
  124MOL0     H16722  -0.085   2.646   1.172  0.4632  0.8822 -0.4088
  124MOL0     H16723   0.139   2.530   1.104  0.9226  0.0602 -2.9601
  124MOL0     H16724   0.697   2.781   0.903 -3.8200 -0.7456  0.1749
  124MOL0     H16725   0.921   2.678   0.923  1.5296 -1.2560  1.0675
  124MOL0     H16726   2.219   3.283   1.038 -2.7179  0.9188  1.1478
  124MOL0     H16727   2.435   3.347   1.023  0.1887 -2.2042 -3.2222
  124MOL0     H16728   2.749   3.682   0.807  0.1834 -0.8063 -0.3108
  124MOL0     H16729   2.989   3.733   0.779  1.3222 -2.4669  0.2011
  124MOL0     H16730   3.256   3.516   1.052 -1.4344 -0.0888 -1.1504
  124MOL0     H16731   3.360   3.581   0.928  0.3307  0.3681  0.0162
  124MOL0     H16732   3.396   3.625   1.190  0.9893  3.3579  3.0303
  124MOL0     H16733   3.262   3.729   1.193  0.7349  1.7797 -1.1252
  124MOL0     H16734   3.374   3.897   1.076  0.6384  0.1407 -3.0834
  124MOL0     H16735   3.464   3.787   0.979 -0.4611  0.3371 -0.6964
  124MOL0     H16736   3.512   3.798   1.274  1.6457 -3.6551  0.3085
  124MOL0     H16737   3.583   3.913   1.163 -1.1435  0.9315  0.9561
  124MOL0     H16738   3.754   3.514   1.102 -2.0297 -1.0902 -0.4963
  124MOL0     H16739   3.068   3.516   1.138  0.0119 -2.8154 -2.4429
  124MOL0     H16740   2.827   3.476   1.166 -3.1481  0.1188 -1.8391
  125MOL0     O16741   4.365   4.547   2.137 -0.5331  0.7449  0.1958
  125MOL0     C16742   4.375   4.609   2.028 -0.8528 -0.3043 -0.6908
  125MOL0     O16743   4.495   4.643   1.969  0.4723  0.3882  0.3035
  125MOL0     C16744   4.610   4.627   2.048  0.1309 -0.6561 -0.5769
  125MOL0     C16745   4.646   4.720   2.153  0.3777 -0.9346  1.1586
  125MOL0     C16746   4.769   4.712   2.210  0.7051  0.1568 -0.0166
  125MOL0     C16747   4.857   4.608   2.185 -1.0165 -0.4834 -0.3512
  125MOL0     O16748   4.988   4.603   2.243 -0.2723 -0.6233  0.6645
  125MOL0     C16749   5.043   4.704   2.330 -0.5390  0.3402 -0.5682
  125MOL0     C16750   5.193   4.688   2.370 -1.1224  0.3152  0.8702
  125MOL0     C16751   5.223   4.549   2.428  0.4229 -0.0066  0.3772
  125MOL0     C16752   5.113   4.480   2.510 -0.1766  0.0015 -0.4454
  125MOL0     C16753   5.184   4.360   2.578 -0.3200 -0.5292 -0.7846
  125MOL0     C16754   5.082   4.269   2.655  0.5983 -0.2177  0.1947
  125MOL0     C16755   5.035   4.307   2.793  0.2758  0.9194 -0.7675
  125MOL0     C16756   4.954   4.438   2.814 -0.0465 -0.2515  0.3827
  125MOL0     N16757   4.851   4.483   2.703  0.0193  0.9965 -0.6965
  125MOL0     C16758   4.746   4.407   2.654  0.2426  0.5485  0.0411
  125MOL0     C16759   4.661   4.489   2.590  0.6956 -1.1913 -0.6653
  125MOL0     C16760   4.536   4.459   2.529  0.6761 -1.0291 -0.4964
  125MOL0     C16761   4.547   4.387   2.395 -0.3461 -0.5712 -0.2404
  125MOL0     C16762   4.404   4.333   2.369 -0.4196 -0.9765 -0.5830
  125MOL0     C16763   4.376   4.199   2.425  0.4601  0.3683  0.5374
  125MOL0     O16764   4.240   4.166   2.411  0.1491 -0.4389  0.5359
  125MOL0     C16765   4.209   4.052   2.342  0.1296 -0.7111  0.7566
  125MOL0     C16766   4.289   3.992   2.242 -0.0313 -0.2193 -0.5426
  125MOL0     C16767   4.248   3.881   2.180  0.5783 -1.3600 -0.0984
  125MOL0     C16768   4.350   3.801   2.097  0.0590 -0.1239 -0.4018
  125MOL0     C16769   4.123   3.827   2.203 -0.4326  0.1868 -1.0595
  125MOL0     C16770   4.073   3.698   2.135  0.5679 -0.7823 -0.2678
  125MOL0     O16771   3.943   3.655   2.178  0.3839  0.8042  0.3109
  125MOL0     C16772   3.883   3.544   2.122  0.3656  0.5454  0.3757
  125MOL0     C16773   3.857   3.517   1.984  0.3553 -0.7776 -0.5836
  125MOL0     C16774   3.814   3.396   1.929  0.4115  0.6277 -0.2530
  125MOL0     C16775   3.792   3.286   2.017  0.0513 -0.4321 -0.0804
  125MOL0     O16776   3.768   3.155   1.994 -0.3513  0.0622 -0.3388
  125MOL0     C16777   3.797   3.114   1.866  0.3503 -0.3822 -0.7001
  125MOL0     C16778   3.749   2.970   1.842 -0.2469 -0.4716 -0.2999
  125MOL0     C16779   3.839   2.883   1.928 -0.2332  0.7274  0.8655
  125MOL0     C16780   3.778   2.743   1.928  0.4187 -0.2910  0.7276
  125MOL0     C16781   3.852   2.659   2.019 -0.6789 -0.3965 -0.8046
  125MOL0     C16782   3.999   2.640   1.987 -0.8395  0.7811 -0.7502
  125MOL0     C16783   4.093   2.728   2.065 -0.9100 -0.1544  0.8049
  125MOL0     C16784   4.237   2.718   2.004  0.2969 -0.3458 -0.1766
  125MOL0    Cl16785   4.318   2.565   2.029  0.6218  0.1391 -0.1568
  125MOL0     C16786   3.811   3.310   2.151 -0.3715 -0.2669 -0.1587
  125MOL0     C16787   3.858   3.437   2.206 -0.0320 -0.3269 -0.7271
  125MOL0     O16788   4.129   3.657   2.032 -0.0236  0.3985 -0.0072
  125MOL0     C16789   4.040   3.885   2.300 -1.0691  0.5341 -0.6785
  125MOL0     C16790   4.088   3.997   2.365  0.0594 -0.0679  0.5785
  125MOL0     N16791   4.713   4.614   2.593  0.8061  0.0407 -0.3745
  125MOL0     N16792   4.812   4.612   2.676 -0.6466 -0.8401 -0.1277
  125MOL0     C16793   4.816   4.510   2.087 -0.0099 -0.6455 -0.2257
  125MOL0     C16794   4.696   4.516   2.023  0.1073  0.3175  0.6962
  125MOL0     C16795   4.252   4.641   1.958 -0.0540 -0.8805  0.3985
  125MOL0     C16796   4.130   4.584   1.997 -0.5880 -0.6180 -0.2714
  125MOL0     C16797   4.007   4.617   1.934  0.3243  0.6038  0.0317
  125MOL0     C16798   3.998   4.712   1.831  0.0052  0.3929  0.2862
  125MOL0     O16799   3.874   4.735   1.786  0.1574 -0.4896  0.8556
  125MOL0     C16800   3.867   4.856   1.699  0.7350  0.2527 -1.0312
  125MOL0     C16801   3.858   4.833   1.552 -0.5283 -0.8146 -0.2224
  125MOL0     C16802   3.713   4.780   1.524  0.0701 -0.7433 -0.4243
  125MOL0     C16803   3.675   4.739   1.387  0.2711  0.1800  0.5560
  125MOL0     C16804   3.734   4.818   1.288  0.5560  0.3791 -0.0397
  125MOL0     C16805   3.798   4.892   1.212  0.6317  0.0443  0.1543
  125MOL0     C16806   4.121   4.763   1.783  0.9165  0.1715 -0.3454
  125MOL0     C16807   4.240   4.735   1.846  0.4059  0.4273 -0.6180
  125MOL0     H16808   4.572   4.794   2.180 -2.0016 -1.1945 -3.5891
  125MOL0     H16809   4.784   4.775   2.297 -2.6007  1.4872 -0.2863
  125MOL0     H16810   5.031   4.802   2.282  0.1923 -0.2934 -2.1071
  125MOL0     H16811   4.985   4.706   2.423  1.1165  2.6889  0.5157
  125MOL0     H16812   5.263   4.701   2.287 -2.5123 -0.2786 -0.4438
  125MOL0     H16813   5.219   4.761   2.448  1.7089 -1.4200  1.7178
  125MOL0     H16814   5.244   4.494   2.336  0.8057  1.0787 -0.1959
  125MOL0     H16815   5.313   4.555   2.491 -1.3316 -0.2301  3.0805
  125MOL0     H16816   5.089   4.556   2.585 -0.2999 -0.1829 -0.2987
  125MOL0     H16817   5.037   4.444   2.439  1.1761  1.1481 -2.5915
  125MOL0     H16818   5.242   4.299   2.507 -1.3998 -1.4838 -0.8874
  125MOL0     H16819   5.254   4.398   2.653  1.6876 -1.7818 -1.9076
  125MOL0     H16820   4.993   4.267   2.591 -1.5359  2.8807  2.7484
  125MOL0     H16821   5.123   4.168   2.663  1.1683  0.1230  1.7817
  125MOL0     H16822   4.965   4.227   2.817  0.0088  0.9818 -1.3336
  125MOL0     H16823   5.120   4.305   2.863 -0.6225  1.4888  0.3747
  125MOL0     H16824   5.031   4.515   2.818  2.6005 -2.5726 -1.6455
  125MOL0     H16825   4.901   4.436   2.910  1.1013 -1.1258  1.0319
  125MOL0     H16826   4.739   4.299   2.644 -3.8022  0.5882  0.8568
  125MOL0     H16827   4.480   4.394   2.597  0.4964  1.8357  2.3435
  125MOL0     H16828   4.480   4.553   2.524 -1.8678 -2.4471 -0.7891
  125MOL0     H16829   4.617   4.304   2.395  2.4169  1.6238  0.1687
  125MOL0     H16830   4.585   4.454   2.318 -3.6555 -1.6004 -3.0273
  125MOL0     H16831   4.395   4.325   2.260  1.2101 -2.2458 -0.6771
  125MOL0     H16832   4.329   4.406   2.398  0.5338  0.2909 -1.1974
  125MOL0     H16833   4.391   4.212   2.533  1.5024  0.8325  0.3381
  125MOL0     H16834   4.452   4.132   2.384  1.8997  2.6515 -0.6863
  125MOL0     H16835   4.374   4.041   2.197  0.6307 -1.5122 -0.7256
  125MOL0     H16836   4.311   3.777   1.998 -0.7915 -1.8374  0.2972
  125MOL0     H16837   4.441   3.860   2.084 -0.4759  0.5252 -1.3391
  125MOL0     H16838   4.366   3.707   2.151 -3.0959 -0.5425 -0.0224
  125MOL0     H16839   3.873   3.593   1.909 -0.3405 -1.6858 -1.6774
  125MOL0     H16840   3.818   3.376   1.822 -1.2272 -0.1655 -0.1955
  125MOL0     H16841   3.737   3.165   1.790  1.9209  0.2783 -1.5459
  125MOL0     H16842   3.902   3.134   1.840  0.5690 -0.6077 -0.0153
  125MOL0     H16843   3.645   2.962   1.873 -0.3351  0.9664 -0.1715
  125MOL0     H16844   3.767   2.944   1.737 -0.5456  2.0127 -1.0418
  125MOL0     H16845   3.839   2.911   2.034  0.6192  1.1518  0.7649
  125MOL0     H16846   3.937   2.891   1.880 -1.4640  0.6657 -1.8412
  125MOL0     H16847   3.671   2.744   1.952 -0.0146 -3.1761 -0.6232
  125MOL0     H16848   3.787   2.693   1.831  1.6812 -0.3331  0.8507
  125MOL0     H16849   3.809   2.559   2.008  0.3263 -0.8977 -0.3194
  125MOL0     H16850   3.838   2.693   2.122 -1.2010  0.5488 -1.1731
  125MOL0     H16851   4.032   2.538   2.010 -1.6235  0.6981  0.0556
  125MOL0     H16852   4.014   2.664   1.881  0.9657  4.5994  0.2156
  125MOL0     H16853   4.095   2.694   2.169  0.1721  0.1114  0.8841
  125MOL0     H16854   4.060   2.832   2.070 -0.3875  0.0050  1.0234
  125MOL0     H16855   4.300   2.793   2.052 -0.1268 -0.6608  0.8952
  125MOL0     H16856   4.224   2.742   1.898 -0.5413  2.5048  0.4936
  125MOL0     H16857   3.778   3.223   2.206 -1.4559 -1.1462 -2.1087
  125MOL0     H16858   3.873   3.444   2.313 -0.5294 -2.0322 -0.5301
  125MOL0     H16859   3.938   3.849   2.314 -0.2104 -1.7305  0.1657
  125MOL0     H16860   4.022   4.054   2.428  5.9645  4.4110  3.6836
  125MOL0     H16861   4.874   4.421   2.067  1.8024 -0.3017  2.7735
  125MOL0     H16862   4.684   4.448   1.939  1.6833  0.1021  0.5992
  125MOL0     H16863   4.123   4.516   2.081 -0.7539  1.1689  1.2132
  125MOL0     H16864   3.906   4.586   1.962  0.0271  2.4570  1.1996
  125MOL0     H16865   3.781   4.902   1.748  1.4163 -0.5794  1.0209
  125MOL0     H16866   3.951   4.923   1.720  0.4988  0.3814 -0.4865
  125MOL0     H16867   3.935   4.762   1.518  3.1220  3.3214 -1.6081
  125MOL0     H16868   3.871   4.930   1.503  2.2710  1.8929  4.9226
  125MOL0     H16869   3.646   4.859   1.560  1.4544 -0.8924  2.8010
  125MOL0     H16870   3.693   4.687   1.576 -1.7556 -2.5021 -3.8778
  125MOL0     H16871   3.566   4.750   1.383  0.2087  0.5340  2.2925
  125MOL0     H16872   3.695   4.632   1.379  0.9854  0.3728 -0.3865
  125MOL0     H16873   3.864   4.953   1.154  2.0824 -0.5781  1.0959
  125MOL0     H16874   4.126   4.833   1.700  0.0721  3.2065  1.9931
  125MOL0     H16875   4.324   4.779   1.792  1.1522 -0.8264 -0.5085
  126MOL0     O16876   9.572   1.178   1.083  0.5787 -0.1594  0.0374
  126MOL0     C16877   9.589   1.296   1.109 -0.1684 -0.2367  0.2706
  126MOL0     O16878   9.667   1.347   1.202  0.8994 -0.6359 -0.7116
  126MOL0     C16879   9.738   1.259   1.268  0.5611 -0.0037  0.3358
  126MOL0     C16880   9.704   1.216   1.398 -0.3745  0.8263  0.4536
  126MOL0     C16881   9.783   1.123   1.467 -0.1464 -0.6948 -0.6501
  126MOL0     C16882   9.897   1.075   1.409  1.1278 -0.0516  0.0656
  126MOL0     O16883   9.970   0.990   1.473  0.6383  0.4382 -0.1959
  126MOL0     C16884   9.946   0.852   1.435  0.0552  0.8007  0.4511
  126MOL0     C16885   9.978   0.759   1.554 -0.3129 -0.7518 -0.3366
  126MOL0     C16886   9.982   0.613   1.506  1.1194 -0.3982  0.0602
  126MOL0     C16887  10.110   0.567   1.435  0.0333 -0.6351  0.2827
  126MOL0     C16888  10.120   0.423   1.413 -0.1556  0.1833  0.4779
  126MOL0     C16889  10.254   0.374   1.344  0.2001  0.2867 -0.8158
  126MOL0     C16890  10.392   0.409   1.403 -0.0555 -1.0085 -0.6434
  126MOL0     C16891  10.394   0.376   1.547 -1.0458 -0.5550 -0.2717
  126MOL0     N16892  10.536   0.377   1.581 -0.2874 -0.4435  0.8600
  126MOL0     C16893  10.618   0.277   1.566 -0.1254 -0.4218  0.6766
  126MOL0     C16894  10.731   0.314   1.628 -0.0725 -0.1826 -0.0999
  126MOL0     C16895  10.848   0.216   1.660  0.4155  0.2345  0.1967
  126MOL0     C16896  10.893   0.119   1.556  0.1089  0.9135  0.2500
  126MOL0     C16897  10.938   0.180   1.419  0.1744 -0.8827  0.4130
  126MOL0     C16898  11.049   0.286   1.415 -0.5534 -0.4791  0.5524
  126MOL0     O16899  11.051   0.339   1.279  1.1190 -0.0862 -0.0598
  126MOL0     C16900  10.988   0.456   1.247 -0.3523 -0.2094  0.1525
  126MOL0     C16901  10.914   0.537   1.335 -0.9017 -0.2920 -0.1455
  126MOL0     C16902  10.864   0.662   1.299  0.3301  1.0648 -0.1842
  126MOL0     C16903  10.776   0.717   1.403  0.0433  0.1082 -0.0671
  126MOL0     C16904  10.905   0.722   1.172 -0.1070 -0.5156  0.0948
  126MOL0     C16905  10.877   0.865   1.135  0.8376 -0.2452 -0.4521
  126MOL0     O16906  10.950   0.898   1.031  0.3948  0.2187  1.0978
  126MOL0     C16907  11.001   1.025   1.009  0.1710 -0.4248 -1.2155
  126MOL0     C16908  11.040   1.058   0.882  0.0181 -0.4149  0.1569
  126MOL0     C16909  11.097   1.176   0.844  0.5160 -0.8497 -0.6621
  126MOL0     C16910  11.121   1.280   0.945 -0.3673  0.8154 -0.2608
  126MOL0     O16911  11.171   1.402   0.918 -0.5618  0.0842 -0.1790
  126MOL0     C16912  11.116   1.491   0.818 -0.1189 -0.4928 -0.8943
  126MOL0     C16913  11.230   1.517   0.710 -0.1197 -0.9614  0.0333
  126MOL0     C16914  11.358   1.589   0.749  0.3062 -0.0054 -0.5548
  126MOL0     C16915  11.350   1.735   0.765 -0.2044  0.3434 -0.5340
  126MOL0     C16916  11.437   1.789   0.874  0.4824  0.4795 -0.6878
  126MOL0     C16917  11.407   1.752   1.019 -0.3072 -0.9271  0.3361
  126MOL0     C16918  11.464   1.855   1.115 -1.7326  0.2985 -0.0242
  126MOL0     C16919  11.449   1.821   1.263  0.1180  0.5032  0.0619
  126MOL0    Cl16920  11.289   1.761   1.296 -0.2003  0.4838  0.2103
  126MOL0     C16921  11.092   1.250   1.076  0.3600  0.0348  0.4260
  126MOL0     C16922  11.034   1.124   1.107 -0.2769 -0.3968  1.5274
  126MOL0     O16923  10.816   0.947   1.202 -0.3864  0.4411  0.8078
  126MOL0     C16924  10.983   0.644   1.084  0.4534 -0.7781  0.2989
  126MOL0     C16925  11.019   0.511   1.119 -0.1821  0.3295  0.0443
  126MOL0     N16926  10.715   0.445   1.674  0.5609 -0.2131  0.1743
  126MOL0     N16927  10.591   0.479   1.652  0.1168 -0.1662 -0.2825
  126MOL0     C16928   9.934   1.114   1.287  0.4684 -0.3312 -0.2216
  126MOL0     C16929   9.857   1.206   1.212  0.7023  0.6596  0.6228
  126MOL0     C16930   9.525   1.401   1.027  0.2261 -1.2955  0.2610
  126MOL0     C16931   9.447   1.363   0.912 -1.0513  0.1100 -0.4925
  126MOL0     C16932   9.389   1.453   0.831 -0.8869 -0.6927  0.2396
  126MOL0     C16933   9.417   1.588   0.847 -0.0895 -0.6232  0.8966
  126MOL0     O16934   9.356   1.690   0.764 -0.7146  0.1150 -0.1659
  126MOL0     C16935   9.262   1.639   0.674 -0.0710 -0.8781  0.4912
  126MOL0     C16936   9.212   1.765   0.618 -0.3346 -0.0487  1.3368
  126MOL0     C16937   9.111   1.779   0.499  0.0402 -0.6898 -0.1047
  126MOL0     C16938   9.066   1.920   0.490  0.6754 -0.3034  0.3800
  126MOL0     C16939   9.165   2.011   0.432  0.0564 -0.0403 -0.1412
  126MOL0     C16940   9.263   2.076   0.400 -1.1755 -0.0449  0.1738
  126MOL0     C16941   9.484   1.638   0.962 -0.6930  0.4106 -1.0595
  126MOL0     C16942   9.545   1.541   1.049 -0.2805  0.6453 -0.6923
  126MOL0     H16943   9.613   1.256   1.442  0.2925  4.1310 -0.8172
  126MOL0     H16944   9.744   1.080   1.558 -3.2715  1.2131 -0.9353
  126MOL0     H16945   9.843   0.833   1.404  0.6958 -2.2763 -0.1774
  126MOL0     H16946  10.021   0.839   1.356  1.6614  0.8406  1.8982
  126MOL0     H16947  10.070   0.791   1.603 -2.0669  2.0074  1.4219
  126MOL0     H16948   9.893   0.766   1.623  1.2954  0.7176  1.6036
  126MOL0     H16949   9.987   0.559   1.601 -0.0844  1.3681  1.1725
  126MOL0     H16950   9.884   0.609   1.458  0.8531  0.2399  0.5321
  126MOL0     H16951  10.098   0.614   1.337  0.9212  0.8136  0.8277
  126MOL0     H16952  10.202   0.594   1.488  0.2882  0.3470 -0.6183
  126MOL0     H16953  10.105   0.377   1.511  3.1636 -1.7077  0.2300
  126MOL0     H16954  10.030   0.391   1.359 -0.7828  2.6703 -0.1028
  126MOL0     H16955  10.253   0.265   1.335 -0.2670  0.1787  0.3648
  126MOL0     H16956  10.243   0.418   1.244  1.8532  2.4091 -0.1468
  126MOL0     H16957  10.462   0.347   1.346  0.6626 -2.2809  1.4955
  126MOL0     H16958  10.423   0.512   1.381  2.7700 -1.2197  1.7736
  126MOL0     H16959  10.343   0.284   1.577 -0.8224 -1.0559 -1.3865
  126MOL0     H16960  10.349   0.456   1.606  1.4732  0.9847 -0.3036
  126MOL0     H16961  10.592   0.188   1.509 -2.8669  1.7628 -1.7915
  126MOL0     H16962  10.926   0.283   1.696 -0.4040  1.1222  0.3643
  126MOL0     H16963  10.807   0.153   1.739  1.0444  0.1744  0.4771
  126MOL0     H16964  10.803   0.061   1.534 -0.0057  1.0096  0.4602
  126MOL0     H16965  10.979   0.069   1.600  0.3729  0.1045 -1.1136
  126MOL0     H16966  10.847   0.215   1.369  0.2001 -0.8089  0.4170
  126MOL0     H16967  10.967   0.090   1.364 -3.4740 -0.7955 -1.9706
  126MOL0     H16968  11.150   0.244   1.424  0.0930  1.1629  1.4322
  126MOL0     H16969  11.049   0.367   1.488  1.6299  2.1768 -2.1273
  126MOL0     H16970  10.906   0.509   1.439  1.4718  3.4450  1.2331
  126MOL0     H16971  10.675   0.724   1.361  0.3955 -0.7308 -1.0858
  126MOL0     H16972  10.771   0.652   1.491 -1.3965  1.7989  1.1829
  126MOL0     H16973  10.812   0.813   1.442  1.7049  0.8429 -3.1357
  126MOL0     H16974  11.030   0.986   0.801 -0.1319 -0.0153 -0.1798
  126MOL0     H16975  11.144   1.213   0.754  1.6715 -1.5880 -0.3831
  126MOL0     H16976  11.019   1.456   0.781 -1.1989  1.4715 -0.0819
  126MOL0     H16977  11.107   1.591   0.861  1.2996  1.2373 -4.3254
  126MOL0     H16978  11.257   1.412   0.693  0.3721 -1.3506  2.7771
  126MOL0     H16979  11.194   1.560   0.616  3.4815  0.8508 -0.6601
  126MOL0     H16980  11.436   1.559   0.679 -0.2614 -2.8741 -0.0914
  126MOL0     H16981  11.395   1.544   0.842 -0.3411 -1.1815 -0.8446
  126MOL0     H16982  11.365   1.784   0.669 -0.7697  1.0166 -0.2878
  126MOL0     H16983  11.248   1.744   0.805 -0.9644 -3.9855 -0.9416
  126MOL0     H16984  11.421   1.897   0.867 -0.7194  0.2444 -1.9258
  126MOL0     H16985  11.543   1.769   0.854 -0.0742 -2.4157 -1.1931
  126MOL0     H16986  11.299   1.744   1.036 -0.3708 -1.1688 -0.1579
  126MOL0     H16987  11.440   1.651   1.046 -1.6829 -2.0461 -1.8153
  126MOL0     H16988  11.415   1.951   1.096  0.0251  1.0607 -1.0295
  126MOL0     H16989  11.572   1.864   1.101 -1.4556  0.2552  1.8696
  126MOL0     H16990  11.471   1.898   1.338  2.6555 -0.7288  0.6753
  126MOL0     H16991  11.513   1.736   1.286 -0.4695  0.2695  0.8590
  126MOL0     H16992  11.117   1.327   1.148  3.4278  0.4847 -0.9644
  126MOL0     H16993  11.025   1.116   1.214  4.3765  1.6409  2.3147
  126MOL0     H16994  11.008   0.671   0.981  0.6807 -4.9551 -0.9330
  126MOL0     H16995  11.068   0.448   1.046 -1.2899 -1.2041  0.5674
  126MOL0     H16996  10.018   1.070   1.235  0.2030 -0.2856 -0.6939
  126MOL0     H16997   9.881   1.226   1.108  1.1516 -2.5198  0.0000
  126MOL0     H16998   9.453   1.259   0.881  3.2912  0.0174 -0.0405
  126MOL0     H16999   9.342   1.424   0.737 -5.6400 -0.0858  2.1473
  126MOL0     H17000   9.304   1.576   0.595 -1.0583 -1.0963  0.1218
  126MOL0     H17001   9.195   1.590   0.744 -0.3331  1.1736  1.7610
  126MOL0     H17002   9.305   1.799   0.572  0.9376 -2.7232  1.7459
  126MOL0     H17003   9.182   1.827   0.703  2.4085 -1.7648  3.7426
  126MOL0     H17004   9.024   1.712   0.505 -0.0589 -0.5406  0.1482
  126MOL0     H17005   9.165   1.755   0.407 -0.7934 -0.4826 -0.6600
  126MOL0     H17006   9.040   1.948   0.593  2.4917  0.7666  0.5970
  126MOL0     H17007   8.963   1.924   0.453  0.9303  0.1323 -0.2951
  126MOL0     H17008   9.332   2.150   0.365 -3.9605  2.7162  0.0335
  126MOL0     H17009   9.475   1.746   0.969 -0.2011  0.3316  2.8660
  126MOL0     H17010   9.593   1.573   1.141 -3.6796  1.8818  0.8409
  127MOL0     O17011   1.455   6.909   6.327 -0.4838  0.1676  0.3412
  127MOL0     C17012   1.476   6.928   6.208  1.5830 -0.3354  0.1065
  127MOL0     O17013   1.378   6.983   6.126  0.0140 -0.0968 -0.0262
  127MOL0     C17014   1.263   7.031   6.190  0.4253  1.0199 -0.9427
  127MOL0     C17015   1.145   6.967   6.156  0.0206  0.5158  0.4910
  127MOL0     C17016   1.026   7.010   6.213  0.1136 -0.4709 -0.1716
  127MOL0     C17017   1.017   7.117   6.301  1.2336  0.0452  0.3279
  127MOL0     O17018   0.883   7.155   6.342 -0.7369 -0.2473 -0.1288
  127MOL0     C17019   0.867   7.266   6.435 -0.7767 -0.6001  0.3233
  127MOL0     C17020   0.722   7.282   6.469  0.8749 -0.6036  0.5223
  127MOL0     C17021   0.719   7.411   6.557  0.3961  1.0541  0.1531
  127MOL0     C17022   0.581   7.432   6.607  0.5737 -0.9179 -0.1680
  127MOL0     C17023   0.567   7.559   6.701 -0.1587  0.7261 -0.7433
  127MOL0     C17024   0.416   7.584   6.741  0.3405 -0.1984  0.0580
  127MOL0     C17025   0.370   7.512   6.869 -0.0654 -0.3021  0.0343
  127MOL0     C17026   0.238   7.582   6.916 -0.2889  0.0375  0.3415
  127MOL0     N17027   0.118   7.563   6.829 -0.5171  0.5276  0.6066
  127MOL0     C17028  -0.016   7.548   6.868  0.8948  0.2844  0.0926
  127MOL0     C17029  -0.092   7.547   6.755 -0.6285 -0.0539 -0.4273
  127MOL0     C17030  -0.243   7.519   6.757 -0.4215 -0.2486 -0.3451
  127MOL0     C17031  -0.340   7.640   6.714  0.0947  0.3560  0.4434
  127MOL0     C17032  -0.327   7.650   6.560 -0.6520  0.4249 -0.1019
  127MOL0     C17033  -0.374   7.778   6.518  0.3500 -0.0621  0.5401
  127MOL0     O17034  -0.520   7.787   6.491  0.1166  0.6139 -0.5428
  127MOL0     C17035  -0.606   7.836   6.582 -0.8822 -0.1003 -0.2601
  127MOL0     C17036  -0.570   7.961   6.636 -0.5260 -0.2605  0.0140
  127MOL0     C17037  -0.651   8.030   6.720  0.4214 -0.7483 -0.5184
  127MOL0     C17038  -0.601   8.161   6.779  0.0702 -0.1733  0.4049
  127MOL0     C17039  -0.775   7.962   6.765 -0.4498  0.2919  0.1673
  127MOL0     C17040  -0.856   8.010   6.886  0.7250  0.0798 -0.9214
  127MOL0     O17041  -0.970   7.938   6.910 -0.2548  0.2433  1.3021
  127MOL0     C17042  -1.054   7.980   7.005  0.3174  0.7428  0.9620
  127MOL0     C17043  -1.134   8.095   6.995 -0.4932  0.4151  1.2235
  127MOL0     C17044  -1.230   8.136   7.088  0.3460  0.8666 -0.1508
  127MOL0     C17045  -1.249   8.051   7.199  0.6077 -0.1058  0.2810
  127MOL0     O17046  -1.335   8.097   7.300  0.5533 -0.1389  0.5391
  127MOL0     C17047  -1.406   7.990   7.355 -0.3320  0.1828 -0.5400
  127MOL0     C17048  -1.525   8.052   7.439  0.2364  0.2636  0.1572
  127MOL0     C17049  -1.628   7.948   7.502 -0.9729 -0.2866  0.5540
  127MOL0     C17050  -1.750   8.029   7.551 -0.3939 -0.2430 -0.0472
  127MOL0     C17051  -1.845   7.918   7.606  1.1949  0.4919 -0.0970
  127MOL0     C17052  -1.974   7.974   7.675  0.6631  0.0303  0.7497
  127MOL0     C17053  -2.088   8.017   7.581  0.3661 -0.4804 -0.4337
  127MOL0     C17054  -2.182   8.100   7.649  0.7063 -0.4345 -0.2860
  127MOL0    Cl17055  -2.261   8.010   7.788 -0.1743 -0.4136 -0.0219
  127MOL0     C17056  -1.184   7.929   7.205  0.0068  0.0170 -0.0835
  127MOL0     C17057  -1.080   7.899   7.116 -0.0760 -0.4902  0.8119
  127MOL0     O17058  -0.821   8.105   6.951 -0.2284  0.3385 -0.0595
  127MOL0     C17059  -0.806   7.833   6.712  0.3296 -0.6109  0.1115
  127MOL0     C17060  -0.725   7.776   6.619 -0.5677  0.1449  0.6059
  127MOL0     N17061  -0.005   7.563   6.645  0.1140 -0.5276 -0.4840
  127MOL0     N17062   0.117   7.570   6.690  0.5189 -0.1854 -0.0752
  127MOL0     C17063   1.129   7.193   6.322 -0.2514  0.3983 -0.5403
  127MOL0     C17064   1.254   7.148   6.269 -0.0940  0.5282 -0.9790
  127MOL0     C17065   1.601   6.895   6.148  0.4196  0.4861  0.2000
  127MOL0     C17066   1.657   6.982   6.056  0.7974  0.9814 -0.0543
  127MOL0     C17067   1.784   6.970   6.009  0.4937  0.6939 -0.2847
  127MOL0     C17068   1.850   6.853   6.039 -0.8060  0.3181 -0.4256
  127MOL0     O17069   1.976   6.836   6.007 -0.1669 -0.6361  0.2357
  127MOL0     C17070   2.066   6.865   6.111 -0.2718 -0.6275  0.1062
  127MOL0     C17071   2.109   7.013   6.111  0.1341 -0.6179  0.5936
  127MOL0     C17072   2.201   7.028   6.236 -0.6391  0.3490 -0.7132
  127MOL0     C17073   2.292   7.156   6.211  0.9360 -0.3227 -0.0451
  127MOL0     C17074   2.222   7.270   6.153 -0.4130 -0.7349 -0.1367
  127MOL0     C17075   2.162   7.371   6.153  0.3899 -0.4094 -0.7897
  127MOL0     C17076   1.790   6.749   6.114  1.9428 -0.3727 -0.3039
  127MOL0     C17077   1.677   6.783   6.192 -0.5589 -0.3270 -0.7893
  127MOL0     H17078   1.150   6.876   6.096  0.4239  0.1464  1.0672
  127MOL0     H17079   0.933   6.959   6.189 -0.4466  0.3930  0.0985
  127MOL0     H17080   0.917   7.245   6.530 -0.4606 -0.1932  0.2469
  127MOL0     H17081   0.912   7.358   6.397 -0.3908 -1.1487 -0.5997
  127MOL0     H17082   0.661   7.287   6.378 -1.5246  0.1651  2.0619
  127MOL0     H17083   0.698   7.195   6.531  1.1655  0.1583  1.7393
  127MOL0     H17084   0.783   7.420   6.645  2.6396  0.7755 -1.3682
  127MOL0     H17085   0.740   7.493   6.488 -2.7393  0.6478 -1.4694
  127MOL0     H17086   0.523   7.442   6.516  2.2128  0.7414 -1.1049
  127MOL0     H17087   0.537   7.343   6.652 -2.2711 -0.3469 -1.6306
  127MOL0     H17088   0.624   7.538   6.792 -1.5112 -1.6562 -0.3717
  127MOL0     H17089   0.601   7.645   6.643 -0.7550  2.3048  1.1113
  127MOL0     H17090   0.416   7.688   6.774  0.8879 -0.1439 -0.0988
  127MOL0     H17091   0.352   7.565   6.654  1.9151  0.2747 -1.2667
  127MOL0     H17092   0.361   7.404   6.863 -1.0302 -0.1848 -0.7445
  127MOL0     H17093   0.430   7.539   6.957 -1.4912 -2.3145  1.6954
  127MOL0     H17094   0.246   7.691   6.925  1.3804 -0.0987  0.8059
  127MOL0     H17095   0.213   7.537   7.012  2.2671  2.1564  2.1643
  127MOL0     H17096  -0.064   7.555   6.965 -0.3118  4.1592 -0.5886
  127MOL0     H17097  -0.261   7.441   6.683 -0.4486  1.4326 -2.2035
  127MOL0     H17098  -0.269   7.476   6.854 -1.0565 -0.4935 -0.6174
  127MOL0     H17099  -0.303   7.737   6.750  1.5102  0.1428 -0.3411
  127MOL0     H17100  -0.441   7.612   6.745  0.9595 -2.4348  1.0145
  127MOL0     H17101  -0.388   7.565   6.529 -0.8953 -0.5264  2.7044
  127MOL0     H17102  -0.222   7.645   6.530 -1.7134 -0.4066 -4.3799
  127MOL0     H17103  -0.325   7.792   6.420 -1.7914  0.2711 -0.5378
  127MOL0     H17104  -0.331   7.857   6.580  0.1595  0.1881  0.3579
  127MOL0     H17105  -0.476   8.011   6.616  0.6293 -1.0419  2.9589
  127MOL0     H17106  -0.684   8.232   6.770 -0.0585 -0.2904  0.6544
  127MOL0     H17107  -0.567   8.141   6.881 -1.6847  0.4381  1.1605
  127MOL0     H17108  -0.522   8.210   6.722  0.8929 -1.3946  0.4626
  127MOL0     H17109  -1.120   8.156   6.906  1.3878 -0.5965  0.7762
  127MOL0     H17110  -1.281   8.232   7.080 -1.9533 -0.1662  1.1515
  127MOL0     H17111  -1.449   7.937   7.269  0.1500 -1.9429  0.4604
  127MOL0     H17112  -1.346   7.917   7.411 -1.0823 -1.5317 -1.8583
  127MOL0     H17113  -1.484   8.111   7.522 -0.0331  0.1653  0.3617
  127MOL0     H17114  -1.572   8.127   7.376  2.3282  0.5463 -1.1717
  127MOL0     H17115  -1.581   7.900   7.589  0.3029 -1.2035 -0.5802
  127MOL0     H17116  -1.643   7.868   7.429 -2.6830 -0.1898  0.7536
  127MOL0     H17117  -1.710   8.095   7.629 -0.0583  1.7673 -1.8169
  127MOL0     H17118  -1.791   8.095   7.475  0.2271  1.9540  1.4333
  127MOL0     H17119  -1.796   7.854   7.680  0.0761 -1.7011 -1.1368
  127MOL0     H17120  -1.876   7.856   7.520  0.6237 -0.4634  0.7737
  127MOL0     H17121  -2.013   7.892   7.735 -0.0201 -2.3671 -2.6855
  127MOL0     H17122  -1.939   8.058   7.736  1.3915 -1.0176  1.7980
  127MOL0     H17123  -2.136   7.931   7.535  0.3773  0.6442 -2.6487
  127MOL0     H17124  -2.056   8.074   7.494  1.7644 -1.5360 -0.6482
  127MOL0     H17125  -2.246   8.132   7.566  1.1404  0.4826 -0.2890
  127MOL0     H17126  -2.126   8.189   7.681  2.0351 -1.3304 -0.0389
  127MOL0     H17127  -1.207   7.860   7.285 -0.3554 -2.7718 -2.4201
  127MOL0     H17128  -1.036   7.801   7.127  1.7215  0.1299 -0.3735
  127MOL0     H17129  -0.896   7.778   6.737 -0.4818  0.2378 -0.8549
  127MOL0     H17130  -0.748   7.683   6.567 -1.5524  0.3619  0.6454
  127MOL0     H17131   1.127   7.291   6.369 -1.1727  0.3995 -0.5581
  127MOL0     H17132   1.342   7.212   6.270 -0.3447  0.8829 -1.1516
  127MOL0     H17133   1.623   7.085   6.070  3.7880  2.1873 -0.7930
  127MOL0     H17134   1.848   7.040   5.957  3.7655 -0.4019  1.9821
  127MOL0     H17135   2.034   6.845   6.214 -1.1209  0.1035 -0.0035
  127MOL0     H17136   2.153   6.800   6.102  0.1271  0.1993 -3.6097
  127MOL0     H17137   2.030   7.089   6.106  1.0034  0.2462 -0.8740
  127MOL0     H17138   2.170   7.019   6.020  0.8448  0.4947  1.1192
  127MOL0     H17139   2.259   6.938   6.259 -1.7749 -0.4316 -0.7980
  127MOL0     H17140   2.141   7.038   6.326 -2.6523  1.7553 -2.1033
  127MOL0     H17141   2.376   7.119   6.151 -0.1765 -0.5668 -1.4957
  127MOL0     H17142   2.329   7.191   6.308  1.1716  1.9341 -0.8884
  127MOL0     H17143   2.105   7.460   6.136 -0.1794 -0.8250 -1.1172
  127MOL0     H17144   1.843   6.656   6.132 -0.1822 -1.6098 -0.1336
  127MOL0     H17145   1.648   6.717   6.273  3.7763  0.0566  1.3682
  128MOL0     O17146   2.786  10.103   3.562 -0.3347  0.2011 -0.7018
  128MOL0     C17147   2.765  10.219   3.603  0.2848 -0.4911 -0.2680
  128MOL0     O17148   2.643  10.278   3.618 -0.1576  0.1743 -0.3168
  128MOL0     C17149   2.528  10.214   3.596  0.0610  0.3532  0.4900
  128MOL0     C17150   2.508  10.184   3.459  0.1600  0.1377  0.2247
  128MOL0     C17151   2.396  10.110   3.419 -0.7619  0.9740  0.8121
  128MOL0     C17152   2.306  10.051   3.514  0.9010 -0.0164 -0.5708
  128MOL0     O17153   2.204   9.974   3.478 -0.3283 -0.0388  0.4170
  128MOL0     C17154   2.097   9.940   3.563 -0.2395  0.2244  0.8791
  128MOL0     C17155   1.991   9.858   3.500  0.5623  0.7107  0.2077
  128MOL0     C17156   1.858   9.882   3.572 -0.4004 -0.3013  0.6272
  128MOL0     C17157   1.754   9.785   3.521 -0.2636 -0.0170 -0.6519
  128MOL0     C17158   1.622   9.803   3.607 -0.6405 -0.7502 -0.1041
  128MOL0     C17159   1.508   9.721   3.551  0.7843  0.5405  0.7734
  128MOL0     C17160   1.385   9.724   3.640  0.5637  0.1136  0.4946
  128MOL0     C17161   1.292   9.612   3.589  0.1824  0.1323  0.7210
  128MOL0     N17162   1.196   9.680   3.505 -0.0144  0.2795  0.2542
  128MOL0     C17163   1.218   9.745   3.391  0.5366  0.8381  0.4229
  128MOL0     C17164   1.103   9.803   3.344  0.3079 -0.5247  0.6463
  128MOL0     C17165   1.106   9.876   3.213  0.1102  1.1811  0.6239
  128MOL0     C17166   0.969   9.851   3.152 -0.3130 -0.0207  0.7492
  128MOL0     C17167   0.916   9.960   3.064 -0.1035 -0.1742 -1.1733
  128MOL0     C17168   0.783   9.928   2.994 -0.0726 -0.4377  0.3997
  128MOL0     O17169   0.802   9.806   2.915  0.3773  0.0098  0.0555
  128MOL0     C17170   0.710   9.760   2.832  0.6321  0.8967 -0.1984
  128MOL0     C17171   0.726   9.640   2.757  0.1164 -0.9108 -0.5628
  128MOL0     C17172   0.621   9.575   2.693 -0.5802 -0.3053  0.9729
  128MOL0     C17173   0.669   9.455   2.608  0.0548 -0.2653 -0.7200
  128MOL0     C17174   0.492   9.642   2.688 -0.2366  1.0148  0.7154
  128MOL0     C17175   0.378   9.586   2.615 -1.9971 -0.2557 -0.3115
  128MOL0     O17176   0.257   9.626   2.663  0.2239 -0.1494  0.6941
  128MOL0     C17177   0.135   9.581   2.614 -0.1176  0.5169  0.0777
  128MOL0     C17178   0.110   9.451   2.565  0.2879  0.7373  0.1470
  128MOL0     C17179  -0.017   9.408   2.522 -0.0241  0.3605 -0.9589
  128MOL0     C17180  -0.123   9.494   2.535 -1.3586  0.9483  0.3464
  128MOL0     O17181  -0.253   9.456   2.500 -0.3369  0.4357 -0.3031
  128MOL0     C17182  -0.302   9.319   2.470 -0.3274 -0.5972  0.0630
  128MOL0     C17183  -0.457   9.328   2.450 -0.2517 -0.4629 -0.8546
  128MOL0     C17184  -0.533   9.196   2.442  0.2535 -0.1922 -0.1486
  128MOL0     C17185  -0.526   9.111   2.571  0.2430  0.9142  0.5335
  128MOL0     C17186  -0.619   8.993   2.573  0.2196 -0.4989  0.2046
  128MOL0     C17187  -0.570   8.855   2.551 -0.2838 -0.5163  0.7770
  128MOL0     C17188  -0.467   8.824   2.667 -0.2368  0.0289 -0.4822
  128MOL0     C17189  -0.419   8.691   2.682 -0.5017 -0.7087  0.4651
  128MOL0    Cl17190  -0.297   8.678   2.792  0.3415  0.1448  0.1505
  128MOL0     C17191  -0.101   9.615   2.585  0.3705  0.3722 -0.3596
  128MOL0     C17192   0.027   9.667   2.627 -0.3791  0.0458 -0.4088
  128MOL0     O17193   0.388   9.518   2.517  0.1063  0.2972  0.1695
  128MOL0     C17194   0.471   9.759   2.756  1.1189 -0.4537 -0.9621
  128MOL0     C17195   0.583   9.823   2.819 -0.4067  0.3788  0.1957
  128MOL0     N17196   1.010   9.765   3.441 -0.1507  1.0294 -0.1323
  128MOL0     N17197   1.060   9.695   3.535 -0.2029 -0.0269  0.0951
  128MOL0     C17198   2.331  10.073   3.656  0.0593 -0.2262 -0.3017
  128MOL0     C17199   2.437  10.155   3.692 -0.3012 -1.2845 -0.8098
  128MOL0     C17200   2.881  10.298   3.655  0.0097  0.9932  0.4207
  128MOL0     C17201   3.017  10.259   3.637  0.2986 -0.4551  0.3766
  128MOL0     C17202   3.122  10.352   3.669  0.2618  0.4801 -1.1293
  128MOL0     C17203   3.091  10.482   3.728  0.2842  0.0804  0.6119
  128MOL0     O17204   3.192  10.574   3.758  0.0347  0.1725  0.9118
  128MOL0     C17205   3.265  10.639   3.648  0.1307 -0.2654 -0.0134
  128MOL0     C17206   3.396  10.579   3.615 -0.7407 -0.0088  0.2005
  128MOL0     C17207   3.506  10.663   3.542 -0.1649  0.3769 -0.2512
  128MOL0     C17208   3.609  10.737   3.633 -0.0856  0.0874 -0.2133
  128MOL0     C17209   3.692  10.631   3.693 -0.5341  1.6026  0.0975
  128MOL0     C17210   3.741  10.528   3.736 -0.1226 -0.0609  1.0659
  128MOL0     C17211   2.960  10.514   3.756  0.2028 -0.1708  0.5035
  128MOL0     C17212   2.860  10.425   3.710 -0.1478 -0.5036 -0.0227
  128MOL0     H17213   2.575  10.235   3.390 -0.1488 -0.1338 -0.2825
  128MOL0     H17214   2.397  10.090   3.312  3.2746  2.3575  0.4334
  128MOL0     H17215   2.128   9.879   3.648 -1.3475  0.7769  1.7177
  128MOL0     H17216   2.052  10.031   3.605 -1.3665 -0.1474  0.5330
  128MOL0     H17217   1.981   9.885   3.394 -1.7129 -1.4190 -0.2035
  128MOL0     H17218   2.004   9.750   3.507 -1.3972  0.2953 -1.5283
  128MOL0     H17219   1.869   9.864   3.679 -0.9043 -0.9912  0.5714
  128MOL0     H17220   1.831   9.987   3.557  1.4214  0.3153  1.4096
  128MOL0     H17221   1.735   9.820   3.419  0.8913  2.0969 -0.2002
  128MOL0     H17222   1.795   9.684   3.521  2.1990  0.6865  4.0485
  128MOL0     H17223   1.638   9.777   3.712  0.0558  1.0010  0.2535
  128MOL0     H17224   1.603   9.910   3.604  2.2520 -0.1514  0.1100
  128MOL0     H17225   1.490   9.748   3.447 -0.2556  3.2524  1.5837
  128MOL0     H17226   1.531   9.614   3.550 -1.3923  0.0233  0.8557
  128MOL0     H17227   1.399   9.690   3.743  0.8727 -1.7473 -0.1219
  128MOL0     H17228   1.342   9.825   3.642  2.4991  0.9689  0.6375
  128MOL0     H17229   1.241   9.557   3.669 -1.7790  0.7274 -0.0463
  128MOL0     H17230   1.339   9.529   3.536  1.2022  0.8408  0.4969
  128MOL0     H17231   1.312   9.759   3.339 -1.4947 -0.8451 -4.2769
  128MOL0     H17232   1.113   9.982   3.239 -0.2149  0.7291  2.7709
  128MOL0     H17233   1.187   9.845   3.146 -1.2981 -0.5617 -0.3750
  128MOL0     H17234   0.897   9.842   3.234  1.7895 -1.7958  2.5417
  128MOL0     H17235   0.977   9.758   3.095  0.8276  0.4924  0.0266
  128MOL0     H17236   0.986   9.988   2.985 -0.7736  0.1833 -1.6530
  128MOL0     H17237   0.891  10.050   3.122  1.6802 -0.1350 -0.3966
  128MOL0     H17238   0.757  10.009   2.925  2.5855  1.9200  1.9397
  128MOL0     H17239   0.711   9.902   3.072 -1.4019  1.6162 -0.0673
  128MOL0     H17240   0.824   9.595   2.744  0.1206 -0.4899 -2.1903
  128MOL0     H17241   0.583   9.389   2.601  0.3419 -0.5851 -1.2832
  128MOL0     H17242   0.710   9.497   2.515  1.9670 -0.7420 -0.1312
  128MOL0     H17243   0.752   9.402   2.656 -1.0237 -0.6976  0.7128
  128MOL0     H17244   0.197   9.387   2.574  1.2784  2.1340  1.1337
  128MOL0     H17245  -0.021   9.305   2.489  2.0970  0.3410 -1.2910
  128MOL0     H17246  -0.247   9.275   2.386  1.5788  1.3711  0.1830
  128MOL0     H17247  -0.291   9.254   2.558  1.7353  0.1724  0.4256
  128MOL0     H17248  -0.519   9.381   2.523  0.9489 -0.1891  0.0117
  128MOL0     H17249  -0.468   9.380   2.355 -0.9409  1.4938  0.2318
  128MOL0     H17250  -0.512   9.139   2.351  0.3091  1.4566 -1.2203
  128MOL0     H17251  -0.636   9.229   2.427  0.5634  0.1009 -1.8440
  128MOL0     H17252  -0.424   9.070   2.573 -0.8321 -1.9672  2.2381
  128MOL0     H17253  -0.547   9.180   2.653 -1.3606  2.1342 -0.8488
  128MOL0     H17254  -0.691   9.018   2.495  1.6988  0.1853 -0.9773
  128MOL0     H17255  -0.679   8.996   2.665 -3.6445  1.7587 -2.0993
  128MOL0     H17256  -0.647   8.777   2.554 -0.1629 -0.6036  1.9851
  128MOL0     H17257  -0.524   8.853   2.452  3.1199  1.2178  2.1645
  128MOL0     H17258  -0.519   8.856   2.758  2.1055  1.4393  0.4510
  128MOL0     H17259  -0.378   8.882   2.641 -0.1617  0.5505  0.8317
  128MOL0     H17260  -0.374   8.656   2.588 -0.0374 -1.1650  0.8491
  128MOL0     H17261  -0.501   8.622   2.706 -2.2472  1.3459  0.6695
  128MOL0     H17262  -0.193   9.662   2.617 -1.6847 -2.1133 -2.1147
  128MOL0     H17263   0.036   9.768   2.666 -1.7111 -0.8697  2.5273
  128MOL0     H17264   0.377   9.812   2.750  1.4989  1.0277  3.0432
  128MOL0     H17265   0.564   9.911   2.880 -1.3489 -0.6919  1.5253
  128MOL0     H17266   2.276  10.023   3.735  3.3217 -0.9199  1.7001
  128MOL0     H17267   2.462  10.169   3.797  1.3453  1.7611 -1.5167
  128MOL0     H17268   3.044  10.167   3.586 -1.8075 -0.7680 -0.2758
  128MOL0     H17269   3.229  10.335   3.661  0.7574  3.0217 -0.9276
  128MOL0     H17270   3.200  10.657   3.562  3.9180  1.9761 -2.7331
  128MOL0     H17271   3.288  10.740   3.685  1.9252 -0.6034 -0.1453
  128MOL0     H17272   3.373  10.488   3.558 -1.4027  1.5395 -2.1326
  128MOL0     H17273   3.431  10.552   3.715 -1.4156 -0.8691  0.2168
  128MOL0     H17274   3.466  10.741   3.475  0.2311 -0.5393 -1.5954
  128MOL0     H17275   3.560  10.588   3.484  1.0718 -2.0908  3.6771
  128MOL0     H17276   3.555  10.796   3.707  1.7767  1.1558  0.3781
  128MOL0     H17277   3.664  10.800   3.562  0.5718 -0.0291  0.1858
  128MOL0     H17278   3.784  10.438   3.776 -1.2543 -0.8884  0.4794
  128MOL0     H17279   2.944  10.614   3.794 -0.2890 -0.7530  1.9183
  128MOL0     H17280   2.758  10.463   3.708 -0.8426 -2.2887 -0.1064
  129MOL0     O17281  10.273   1.386   3.397 -0.5508 -0.3733  0.1433
  129MOL0     C17282  10.250   1.334   3.509 -1.3003 -0.6853  0.0797
  129MOL0     O17283  10.286   1.384   3.636 -0.2055  0.4515  0.3561
  129MOL0     C17284  10.344   1.507   3.633  0.4116 -0.3445  0.4952
  129MOL0     C17285  10.469   1.526   3.569 -0.3762  0.3426 -0.1739
  129MOL0     C17286  10.518   1.657   3.570  0.5270 -1.0688  0.6549
  129MOL0     C17287  10.457   1.768   3.631  0.0491 -1.1826  0.0500
  129MOL0     O17288  10.510   1.893   3.633 -0.1385 -0.5113  0.2353
  129MOL0     C17289  10.551   1.943   3.502 -0.2087  0.6241 -0.9063
  129MOL0     C17290  10.638   2.072   3.518  0.1173  0.1043  1.0410
  129MOL0     C17291  10.561   2.193   3.580 -0.9643  0.3505 -0.2748
  129MOL0     C17292  10.529   2.290   3.474 -0.3426  0.4439  0.4462
  129MOL0     C17293  10.469   2.420   3.525  0.4387  0.3573  0.6789
  129MOL0     C17294  10.328   2.422   3.591  0.2201  0.2958  0.0491
  129MOL0     C17295  10.221   2.367   3.494 -0.5284  0.1282 -0.2558
  129MOL0     C17296  10.083   2.418   3.531  0.6536 -0.0193  0.3483
  129MOL0     N17297  10.071   2.561   3.563  0.3814  0.1489 -0.4892
  129MOL0     C17298  10.005   2.615   3.677  0.1804  0.7222 -0.1897
  129MOL0     C17299   9.988   2.744   3.646 -0.0962 -0.0314 -0.4241
  129MOL0     C17300   9.922   2.836   3.742 -0.1791 -0.0088 -0.8788
  129MOL0     C17301   9.979   2.834   3.884 -0.8962 -0.5213 -0.3191
  129MOL0     C17302   9.930   2.951   3.972  0.3749  0.5201 -0.2515
  129MOL0     C17303  10.022   3.068   3.966  0.5981  1.1662 -0.4344
  129MOL0     O17304  10.035   3.134   3.842 -0.0912  0.4683 -0.9305
  129MOL0     C17305   9.928   3.195   3.776  1.3078 -0.7453 -1.0629
  129MOL0     C17306   9.799   3.224   3.828  0.4964 -0.2346 -0.2088
  129MOL0     C17307   9.696   3.301   3.763  0.2314  0.7302  1.0404
  129MOL0     C17308   9.569   3.312   3.824  0.8173  0.2190  0.9622
  129MOL0     C17309   9.717   3.353   3.633 -0.2633 -0.6123 -0.4995
  129MOL0     C17310   9.605   3.413   3.543  0.3369 -0.3011  0.7777
  129MOL0     O17311   9.640   3.509   3.456  0.0029 -0.5354  0.1694
  129MOL0     C17312   9.547   3.585   3.389  0.5364  0.5812  0.4688
  129MOL0     C17313   9.458   3.526   3.295 -0.7085 -0.1827  0.5126
  129MOL0     C17314   9.369   3.601   3.221 -0.2201 -0.5898  0.7654
  129MOL0     C17315   9.373   3.743   3.225 -0.3000 -0.4184 -0.3386
  129MOL0     O17316   9.287   3.813   3.144  0.1925  0.4740 -0.4839
  129MOL0     C17317   9.221   3.927   3.208  0.3736 -0.2483 -0.0651
  129MOL0     C17318   9.073   3.924   3.171  0.6243  0.1408  0.1137
  129MOL0     C17319   9.040   3.927   3.022 -0.0414  0.5178 -0.9367
  129MOL0     C17320   8.894   3.879   3.004  0.4620  0.7867 -0.3496
  129MOL0     C17321   8.861   3.858   2.853 -0.2411 -0.3164 -0.2834
  129MOL0     C17322   8.878   3.989   2.773  0.0758  0.4399  0.0916
  129MOL0     C17323   8.776   3.995   2.649 -0.6888 -0.5753 -0.0367
  129MOL0     C17324   8.800   4.122   2.565 -0.0857 -0.6325 -0.0995
  129MOL0    Cl17325   8.670   4.113   2.451 -0.2302 -0.3254 -0.4354
  129MOL0     C17326   9.459   3.797   3.330 -0.1670 -0.1942  1.0806
  129MOL0     C17327   9.554   3.727   3.397 -0.0662  0.6617  0.9671
  129MOL0     O17328   9.499   3.357   3.547  0.2374  0.2132  0.1286
  129MOL0     C17329   9.844   3.323   3.579  0.4294  1.2779 -0.7914
  129MOL0     C17330   9.953   3.251   3.647  0.7803  0.1737 -0.3042
  129MOL0     N17331  10.050   2.770   3.522  0.0280  0.0246  0.0302
  129MOL0     N17332  10.106   2.672   3.483 -0.0299  0.2598 -0.0724
  129MOL0     C17333  10.342   1.739   3.707 -0.2516 -0.3780  1.1075
  129MOL0     C17334  10.286   1.615   3.704 -0.2968 -0.0403 -0.6497
  129MOL0     C17335  10.182   1.206   3.498  0.3139  0.4303 -0.7746
  129MOL0     C17336  10.200   1.097   3.588  0.4704 -1.0982 -0.0561
  129MOL0     C17337  10.118   0.979   3.577  0.1702  0.0576 -0.1733
  129MOL0     C17338  10.013   0.974   3.489 -0.9269  0.4359  1.1838
  129MOL0     O17339   9.926   0.867   3.475 -0.8055  0.6672  0.1798
  129MOL0     C17340   9.976   0.779   3.375  0.1961  0.3278 -0.0872
  129MOL0     C17341   9.871   0.764   3.267 -0.0433  0.1798  0.8649
  129MOL0     C17342   9.754   0.668   3.298  0.0169 -0.5773 -0.1613
  129MOL0     C17343   9.667   0.653   3.168 -0.4285  0.4889  0.8413
  129MOL0     C17344   9.532   0.592   3.203 -0.2003  0.4995  0.7573
  129MOL0     C17345   9.422   0.536   3.232  0.0913 -0.0462 -0.1737
  129MOL0     C17346   9.992   1.086   3.409 -0.4526 -0.3388 -0.3425
  129MOL0     C17347  10.076   1.197   3.410  0.6426  0.0831  0.0846
  129MOL0     H17348  10.516   1.448   3.511  1.3609 -1.1617  2.9659
  129MOL0     H17349  10.610   1.670   3.513  0.4617 -1.8948  0.3463
  129MOL0     H17350  10.612   1.863   3.459 -2.1285 -0.8288 -1.0484
  129MOL0     H17351  10.464   1.959   3.437  0.5544  1.4478 -1.7628
  129MOL0     H17352  10.713   2.041   3.592 -0.1244 -1.8293  0.5338
  129MOL0     H17353  10.707   2.078   3.434  4.4141 -0.6637  4.1274
  129MOL0     H17354  10.467   2.151   3.616 -0.9688  1.1584  0.7226
  129MOL0     H17355  10.629   2.236   3.655  0.7658  0.7592 -1.9977
  129MOL0     H17356  10.616   2.312   3.411 -0.4762 -3.9901 -1.6475
  129MOL0     H17357  10.462   2.234   3.410  0.9056 -3.0111  1.9287
  129MOL0     H17358  10.549   2.453   3.593  3.2482  1.0454 -2.6813
  129MOL0     H17359  10.480   2.489   3.440  3.0201 -0.7926 -0.0281
  129MOL0     H17360  10.330   2.347   3.671  0.6082 -1.5874 -1.6302
  129MOL0     H17361  10.307   2.525   3.620  2.6323  0.7960  0.2173
  129MOL0     H17362  10.243   2.408   3.395 -0.4827  1.7544  0.3988
  129MOL0     H17363  10.226   2.258   3.495  1.2888  0.1892  1.1325
  129MOL0     H17364  10.038   2.358   3.610  0.3333  0.7945  0.7956
  129MOL0     H17365  10.025   2.399   3.439 -2.2314  1.2618  1.7733
  129MOL0     H17366   9.964   2.567   3.765  0.4425 -0.3372 -0.6290
  129MOL0     H17367   9.918   2.936   3.696  0.0277  0.2007 -0.4493
  129MOL0     H17368   9.817   2.808   3.759 -0.2612  0.9097  0.3093
  129MOL0     H17369  10.088   2.827   3.878 -0.7495  0.6892  0.5132
  129MOL0     H17370   9.948   2.737   3.922  0.4627 -0.4288  1.0946
  129MOL0     H17371   9.941   2.906   4.071 -1.6714 -1.7498 -0.9588
  129MOL0     H17372   9.823   2.970   3.958  0.3107  2.8398  2.4209
  129MOL0     H17373  10.119   3.026   3.995 -0.2336 -2.8889 -2.7819
  129MOL0     H17374   9.997   3.152   4.031 -1.1369  0.0185  0.4530
  129MOL0     H17375   9.777   3.196   3.930  1.0228 -0.8380 -0.2540
  129MOL0     H17376   9.514   3.406   3.811  1.9381  0.8935  0.9967
  129MOL0     H17377   9.507   3.240   3.770  0.2804  1.6299 -0.3733
  129MOL0     H17378   9.567   3.289   3.931  1.2599 -1.0407  0.7136
  129MOL0     H17379   9.471   3.418   3.290  0.9584 -0.3158  4.2371
  129MOL0     H17380   9.294   3.550   3.161  0.3294 -0.9417  0.3709
  129MOL0     H17381   9.225   3.925   3.317 -0.2987  2.9458  0.0952
  129MOL0     H17382   9.261   4.026   3.185 -0.6123  1.0958  3.3978
  129MOL0     H17383   9.049   3.828   3.219 -0.4810  1.5586  2.5908
  129MOL0     H17384   9.024   4.004   3.227 -1.4605  1.2800 -3.0638
  129MOL0     H17385   9.110   3.859   2.973  2.4848  2.0136  0.3641
  129MOL0     H17386   9.047   4.028   2.981 -0.7706  0.4708 -1.1966
  129MOL0     H17387   8.878   3.787   3.062  0.0633  1.7154  1.0687
  129MOL0     H17388   8.824   3.954   3.042  0.4867  0.3932  0.5132
  129MOL0     H17389   8.762   3.814   2.842  1.2156 -3.6344 -1.5883
  129MOL0     H17390   8.923   3.780   2.808 -1.0555 -2.5551  2.2091
  129MOL0     H17391   8.870   4.071   2.845  0.1677  0.4758  0.0621
  129MOL0     H17392   8.984   4.000   2.747  0.6086  0.5943  2.1445
  129MOL0     H17393   8.672   4.000   2.682 -0.5632 -0.1711  0.3050
  129MOL0     H17394   8.790   3.911   2.580  0.7209 -0.7407  0.4162
  129MOL0     H17395   8.895   4.117   2.512  0.2318 -1.7701  0.5290
  129MOL0     H17396   8.792   4.216   2.620 -0.7996 -0.5545 -0.3196
  129MOL0     H17397   9.461   3.905   3.340 -0.1550  0.0119 -0.7950
  129MOL0     H17398   9.625   3.777   3.462  1.3389  0.7499 -0.5611
  129MOL0     H17399   9.867   3.366   3.482  0.8662  1.0185 -0.8077
  129MOL0     H17400  10.052   3.235   3.604  0.7415 -2.0829  0.2951
  129MOL0     H17401  10.294   1.810   3.774  2.1189  0.0314  2.4913
  129MOL0     H17402  10.203   1.601   3.773 -0.6185 -0.4489 -1.1112
  129MOL0     H17403  10.281   1.096   3.660 -0.3434 -1.9434  0.8820
  129MOL0     H17404  10.146   0.901   3.648 -0.3457  0.2393  0.2329
  129MOL0     H17405  10.062   0.816   3.317 -1.6595  0.1144 -3.2229
  129MOL0     H17406  10.006   0.681   3.415  1.0872  1.7840  3.0751
  129MOL0     H17407   9.929   0.725   3.182  2.6503  1.3094  2.0675
  129MOL0     H17408   9.826   0.859   3.235  0.2238  0.1932  0.5163
  129MOL0     H17409   9.686   0.707   3.374  0.8575  0.6698 -0.0155
  129MOL0     H17410   9.791   0.570   3.333  0.3786 -0.2332  0.4367
  129MOL0     H17411   9.722   0.589   3.098  0.6511  1.7528  0.4914
  129MOL0     H17412   9.651   0.749   3.118  3.1604  2.3491  2.8972
  129MOL0     H17413   9.334   0.480   3.257  0.0849 -2.1681 -4.2123
  129MOL0     H17414   9.895   1.084   3.359 -1.2571  0.8677  1.0817
  129MOL0     H17415  10.044   1.267   3.333  0.0142 -0.3268 -0.0323
  130MOL0     O17416   8.042   3.156   5.764 -0.3967  0.4456 -0.3338
  130MOL0     C17417   8.031   3.035   5.766 -0.2760 -0.9886  0.3073
  130MOL0     O17418   7.939   2.967   5.699 -0.5532  0.2120 -0.7679
  130MOL0     C17419   7.860   3.035   5.611  0.1950  0.4972  0.6656
  130MOL0     C17420   7.904   3.071   5.484 -0.2927  0.0750  0.0796
  130MOL0     C17421   7.838   3.153   5.398  0.2326 -0.3348  0.2829
  130MOL0     C17422   7.706   3.200   5.436 -0.0929  0.7503 -0.0176
  130MOL0     O17423   7.636   3.273   5.343 -0.2484  0.3551  0.2156
  130MOL0     C17424   7.523   3.344   5.392 -0.1995  0.2103 -0.2424
  130MOL0     C17425   7.481   3.453   5.287 -0.7353  0.3193 -0.6453
  130MOL0     C17426   7.338   3.510   5.316  0.0047 -0.1094 -1.1995
  130MOL0     C17427   7.296   3.609   5.212 -0.5240  0.5365  0.2846
  130MOL0     C17428   7.171   3.691   5.259  0.5150 -0.0620  0.1612
  130MOL0     C17429   7.214   3.796   5.371 -0.6405 -0.2545  0.3275
  130MOL0     C17430   7.105   3.890   5.403  0.5466 -0.1526 -0.1195
  130MOL0     C17431   6.970   3.848   5.461 -0.0505 -0.3944 -1.2318
  130MOL0     N17432   6.886   3.777   5.366 -0.5884  0.6747 -0.3186
  130MOL0     C17433   6.851   3.822   5.241 -1.1556  0.2549 -0.2512
  130MOL0     C17434   6.792   3.718   5.174  0.2477  0.1407  0.3224
  130MOL0     C17435   6.737   3.727   5.036 -0.5219  0.2206 -0.2887
  130MOL0     C17436   6.582   3.733   5.061  0.6515 -0.4745  0.8447
  130MOL0     C17437   6.513   3.598   5.084 -0.2111 -0.5347  0.1061
  130MOL0     C17438   6.558   3.488   4.995  0.8204  0.5592  0.0166
  130MOL0     O17439   6.538   3.513   4.855 -0.4447  0.0985  0.1725
  130MOL0     C17440   6.420   3.480   4.785  0.5696  0.1296 -0.2149
  130MOL0     C17441   6.290   3.460   4.834  0.0202  0.2754 -0.5432
  130MOL0     C17442   6.186   3.421   4.759 -0.5540  0.1597 -0.3369
  130MOL0     C17443   6.053   3.392   4.829  0.3235 -0.1153  0.2517
  130MOL0     C17444   6.202   3.419   4.614 -0.3697  0.5526 -0.2580
  130MOL0     C17445   6.096   3.367   4.516  0.5087 -0.1872 -0.3228
  130MOL0     O17446   5.964   3.357   4.556  0.2220 -0.5853  0.2714
  130MOL0     C17447   5.877   3.291   4.474 -0.3425  0.2092 -0.6007
  130MOL0     C17448   5.765   3.359   4.419 -0.4566  0.0277 -0.1277
  130MOL0     C17449   5.671   3.299   4.334  0.3644 -0.0123 -1.0686
  130MOL0     C17450   5.687   3.160   4.317  0.0195 -1.2392  0.1029
  130MOL0     O17451   5.597   3.108   4.224 -0.6171  0.8910 -0.2873
  130MOL0     C17452   5.618   2.973   4.182  0.4120  1.6426 -0.1638
  130MOL0     C17453   5.507   2.922   4.084  0.0560  0.8363  0.7900
  130MOL0     C17454   5.485   3.023   3.959  0.1919 -0.2524 -0.4011
  130MOL0     C17455   5.359   2.988   3.875 -0.2356  0.1250 -0.2720
  130MOL0     C17456   5.306   3.094   3.773 -0.5192  0.8548 -1.1840
  130MOL0     C17457   5.418   3.101   3.667  0.3214 -0.3207  0.7988
  130MOL0     C17458   5.344   3.169   3.544  0.0083 -0.1978  0.2938
  130MOL0     C17459   5.432   3.172   3.419  0.4590  1.0315  0.5771
  130MOL0    Cl17460   5.337   3.223   3.268  0.6896 -0.1035  0.3673
  130MOL0     C17461   5.795   3.090   4.378 -0.7679  0.3008  0.0406
  130MOL0     C17462   5.889   3.156   4.450  0.1942 -0.2949 -0.8646
  130MOL0     O17463   6.133   3.331   4.407 -0.4716 -0.8961  0.0690
  130MOL0     C17464   6.337   3.442   4.554  0.1957  0.0671  0.5466
  130MOL0     C17465   6.440   3.479   4.644  0.3264 -0.1253  0.1741
  130MOL0     N17466   6.789   3.611   5.266  0.2805 -0.1832 -0.0003
  130MOL0     N17467   6.843   3.647   5.384 -0.5636  1.8025  0.3982
  130MOL0     C17468   7.650   3.156   5.561 -0.3549  0.2672  0.4659
  130MOL0     C17469   7.722   3.074   5.647 -0.5675  0.0995 -0.4927
  130MOL0     C17470   8.123   2.958   5.849 -0.9783  0.3569  0.2517
  130MOL0     C17471   8.248   3.012   5.892  0.2662  0.4309  0.6219
  130MOL0     C17472   8.329   2.939   5.971 -0.3905  0.1072 -0.5168
  130MOL0     C17473   8.312   2.809   6.005 -0.9673 -0.3658 -0.4932
  130MOL0     O17474   8.404   2.737   6.074 -0.6435  0.9271  0.4336
  130MOL0     C17475   8.495   2.796   6.168  0.7944  0.1035  1.0610
  130MOL0     C17476   8.576   2.694   6.244 -1.0517  0.7825 -0.4869
  130MOL0     C17477   8.500   2.605   6.351  0.4575 -0.4996 -0.1618
  130MOL0     C17478   8.422   2.480   6.297  0.0483 -0.4361  0.2139
  130MOL0     C17479   8.508   2.382   6.240 -0.2850  0.1067 -0.7817
  130MOL0     C17480   8.600   2.327   6.184 -0.2598 -0.5299 -0.4469
  130MOL0     C17481   8.194   2.756   5.962 -0.1360  0.3204  0.4282
  130MOL0     C17482   8.095   2.832   5.896  0.1181 -1.2373  0.4012
  130MOL0     H17483   7.999   3.024   5.465 -0.7918 -0.2911 -1.6808
  130MOL0     H17484   7.872   3.170   5.296  0.5630  1.2362  0.6334
  130MOL0     H17485   7.441   3.274   5.410  1.1598 -0.5979  3.9073
  130MOL0     H17486   7.544   3.384   5.491 -2.1808  1.3871 -0.2500
  130MOL0     H17487   7.557   3.531   5.294 -1.6511  1.1055  1.2574
  130MOL0     H17488   7.479   3.407   5.188  2.1234  3.4721 -2.3630
  130MOL0     H17489   7.263   3.430   5.317  0.1098 -0.2735  1.3320
  130MOL0     H17490   7.341   3.558   5.414  0.0980  1.3866 -1.9100
  130MOL0     H17491   7.379   3.677   5.188  0.6170 -1.5091 -1.9441
  130MOL0     H17492   7.270   3.560   5.118  1.2968  0.6299 -0.3115
  130MOL0     H17493   7.143   3.742   5.167  1.1058  0.4782  0.2721
  130MOL0     H17494   7.094   3.621   5.292 -1.0543  2.4975  2.3010
  130MOL0     H17495   7.229   3.731   5.458  1.7416  0.0691  0.2301
  130MOL0     H17496   7.309   3.845   5.348  0.7130 -2.7217  0.2105
  130MOL0     H17497   7.149   3.969   5.465  0.5739  2.4915 -3.2428
  130MOL0     H17498   7.087   3.944   5.310 -0.9960  0.8438  0.7180
  130MOL0     H17499   6.921   3.944   5.482  2.7594  0.7842  0.6931
  130MOL0     H17500   6.980   3.805   5.561  1.4754  3.2725  0.3869
  130MOL0     H17501   6.868   3.921   5.201  0.1293 -0.9184 -2.8935
  130MOL0     H17502   6.785   3.814   4.990 -0.6188  1.8172  2.3876
  130MOL0     H17503   6.773   3.653   4.964 -0.5178  3.0023 -3.3751
  130MOL0     H17504   6.539   3.780   4.973 -2.0026  1.4580  2.9797
  130MOL0     H17505   6.545   3.797   5.142 -0.6850 -1.0113  0.6841
  130MOL0     H17506   6.404   3.609   5.084 -0.4189 -2.3668  0.4222
  130MOL0     H17507   6.523   3.567   5.189 -0.5152 -0.5617  0.1263
  130MOL0     H17508   6.497   3.405   5.030  3.7900 -1.7251  0.2245
  130MOL0     H17509   6.658   3.447   5.012 -1.0593 -4.4858  0.4563
  130MOL0     H17510   6.284   3.470   4.942 -1.9449 -2.1133 -0.3416
  130MOL0     H17511   5.987   3.477   4.810  0.3385 -0.5373 -1.9209
  130MOL0     H17512   6.010   3.302   4.783 -0.8017  1.6530 -2.3690
  130MOL0     H17513   6.072   3.381   4.936 -0.2444  0.8670  0.4652
  130MOL0     H17514   5.745   3.463   4.446 -4.1163 -0.3841 -0.6792
  130MOL0     H17515   5.598   3.366   4.289 -0.1748  0.2463  0.1697
  130MOL0     H17516   5.715   2.956   4.135  0.5056  0.9492  0.2610
  130MOL0     H17517   5.620   2.901   4.264 -2.0901  1.9872  0.2975
  130MOL0     H17518   5.546   2.826   4.049  0.9049  1.2457  0.5910
  130MOL0     H17519   5.413   2.921   4.140 -0.9170 -0.4372 -0.7905
  130MOL0     H17520   5.570   3.033   3.891 -1.4787 -2.2304 -3.0011
  130MOL0     H17521   5.463   3.120   4.004  2.6401  0.1278  0.1185
  130MOL0     H17522   5.371   2.886   3.838 -1.2431 -0.3758  0.7008
  130MOL0     H17523   5.272   2.970   3.940  0.1313 -1.1878 -0.1132
  130MOL0     H17524   5.299   3.197   3.808  4.8070  1.1177 -0.1555
  130MOL0     H17525   5.211   3.074   3.722 -1.8733  0.2118  1.3848
  130MOL0     H17526   5.506   3.156   3.701  1.7114 -2.0976  0.2567
  130MOL0     H17527   5.449   3.004   3.627 -1.5428 -1.2098  1.3544
  130MOL0     H17528   5.305   3.271   3.555  0.0643 -0.1249 -0.1792
  130MOL0     H17529   5.268   3.098   3.511  1.7908 -1.6737 -0.8683
  130MOL0     H17530   5.485   3.078   3.404 -0.3066  0.5606  0.7729
  130MOL0     H17531   5.513   3.241   3.443  0.5299  2.1060 -2.2971
  130MOL0     H17532   5.816   2.985   4.361  4.5591  0.8921  1.2020
  130MOL0     H17533   5.977   3.108   4.491 -0.2356 -0.5950 -0.2592
  130MOL0     H17534   6.356   3.434   4.448  1.9153  1.2224  0.7318
  130MOL0     H17535   6.537   3.504   4.603  0.6195 -0.8351  0.4170
  130MOL0     H17536   7.550   3.187   5.588 -0.9554  0.3677 -1.7446
  130MOL0     H17537   7.677   3.039   5.739 -1.2976  0.5013 -0.6934
  130MOL0     H17538   8.277   3.112   5.861  3.7655  0.2958  2.8576
  130MOL0     H17539   8.418   2.990   6.006 -1.3310  0.6475  1.2162
  130MOL0     H17540   8.558   2.866   6.112  1.9505 -3.5859 -2.7760
  130MOL0     H17541   8.443   2.860   6.240 -0.3462 -0.8886  1.1368
  130MOL0     H17542   8.643   2.755   6.307  1.0515 -2.3429  0.5476
  130MOL0     H17543   8.645   2.636   6.183 -0.4079  1.0619 -0.0387
  130MOL0     H17544   8.430   2.676   6.396  0.4909 -0.1115 -0.7206
  130MOL0     H17545   8.568   2.568   6.428  1.4870  0.1659 -0.7397
  130MOL0     H17546   8.349   2.516   6.224 -1.6287  0.4608  2.2325
  130MOL0     H17547   8.351   2.439   6.370  0.0989  3.5151  2.7573
  130MOL0     H17548   8.683   2.265   6.154  1.4093  0.5175  1.6808
  130MOL0     H17549   8.179   2.649   5.970 -0.5805  0.0104 -3.1608
  130MOL0     H17550   7.992   2.800   5.882 -1.7660  3.6406  1.0397
  131MOL0     O17551   8.279   6.597   9.285 -0.5261  0.6853 -0.5243
  131MOL0     C17552   8.315   6.711   9.284 -0.3419 -0.4551  1.2815
  131MOL0     O17553   8.293   6.802   9.381 -0.4924  0.1111 -0.1144
  131MOL0     C17554   8.211   6.785   9.487 -1.5581 -0.0999  0.6208
  131MOL0     C17555   8.225   6.882   9.586 -0.4483 -0.0691 -1.3154
  131MOL0     C17556   8.171   6.874   9.713  0.5052  0.6175 -0.4709
  131MOL0     C17557   8.080   6.776   9.745  0.0746  0.2236  0.6869
  131MOL0     O17558   8.018   6.768   9.869 -0.3420 -0.2600  0.1381
  131MOL0     C17559   7.883   6.723   9.873 -0.6173  0.1833  0.5701
  131MOL0     C17560   7.809   6.753  10.007 -0.7425  0.4862  0.4911
  131MOL0     C17561   7.894   6.705  10.124 -0.2971 -0.3243  0.7319
  131MOL0     C17562   7.799   6.674  10.232 -0.0460  0.5390 -0.6888
  131MOL0     C17563   7.716   6.791  10.292 -0.7998  0.8025 -0.9241
  131MOL0     C17564   7.668   6.762  10.440  0.1818  0.0739  0.1480
  131MOL0     C17565   7.575   6.647  10.445 -1.4996 -0.5150  0.9490
  131MOL0     C17566   7.540   6.624  10.599  0.0330 -0.8573  0.7337
  131MOL0     N17567   7.421   6.705  10.646  0.2698  0.3208  0.3889
  131MOL0     C17568   7.313   6.661  10.720 -0.3292  0.0945  0.3284
  131MOL0     C17569   7.241   6.769  10.757 -0.0474  1.2592  0.1075
  131MOL0     C17570   7.129   6.756  10.859  0.3999  0.0763 -0.3312
  131MOL0     C17571   6.991   6.731  10.783 -0.2119 -0.2518 -1.0279
  131MOL0     C17572   6.938   6.849  10.707  0.4750  0.3569  0.6229
  131MOL0     C17573   6.785   6.851  10.692 -0.3506 -0.0902  0.4458
  131MOL0     O17574   6.729   6.899  10.819 -0.2681 -0.0880  0.4374
  131MOL0     C17575   6.586   6.918  10.820  0.0509  0.2999  0.2673
  131MOL0     C17576   6.542   7.008  10.913  0.3852  0.1151  0.0320
  131MOL0     C17577   6.411   7.043  10.926  0.0214  0.0062  0.8383
  131MOL0     C17578   6.390   7.156  11.028  0.2245  0.4128 -1.0437
  131MOL0     C17579   6.318   7.005  10.830  0.3116 -0.0089  0.0893
  131MOL0     C17580   6.191   7.073  10.809 -0.0612  0.1886 -0.2380
  131MOL0     O17581   6.141   7.164  10.898 -0.5517 -0.4019  0.0732
  131MOL0     C17582   6.059   7.266  10.859 -0.5530 -0.5128  0.5252
  131MOL0     C17583   5.932   7.245  10.819  0.8997 -0.0468  0.9369
  131MOL0     C17584   5.846   7.339  10.785 -0.2566 -0.3597 -0.0958
  131MOL0     C17585   5.875   7.475  10.792 -0.5945  0.4680 -0.2829
  131MOL0     O17586   5.790   7.572  10.752  0.2079 -0.6837 -0.7076
  131MOL0     C17587   5.828   7.709  10.753 -0.0459  0.4543  0.2001
  131MOL0     C17588   5.694   7.784  10.733  0.0156  0.2736  0.1827
  131MOL0     C17589   5.606   7.730  10.614  0.1685 -0.2234  0.2426
  131MOL0     C17590   5.473   7.798  10.606 -0.2359 -0.1359 -0.6578
  131MOL0     C17591   5.376   7.731  10.506  0.1605 -0.1834 -0.1875
  131MOL0     C17592   5.297   7.839  10.438 -0.0309  0.0406 -0.4479
  131MOL0     C17593   5.184   7.787  10.345 -0.8216 -0.2681 -0.4096
  131MOL0     C17594   5.109   7.902  10.272 -0.2439 -0.1283  1.6233
  131MOL0    Cl17595   5.000   7.828  10.156 -0.4986 -0.1558 -0.2415
  131MOL0     C17596   5.998   7.507  10.836  0.3160  0.0220 -0.4990
  131MOL0     C17597   6.091   7.396  10.869  0.0134  0.3466 -0.4029
  131MOL0     O17598   6.124   7.038  10.709  0.1026 -0.3578 -0.2477
  131MOL0     C17599   6.364   6.912  10.734 -0.6980  0.2847 -0.5322
  131MOL0     C17600   6.490   6.864  10.732  0.0320  0.4146 -0.6787
  131MOL0     N17601   7.299   6.879  10.697  0.1938 -0.5054 -0.4758
  131MOL0     N17602   7.405   6.845  10.631  1.2114  0.0378 -0.5577
  131MOL0     C17603   8.059   6.679   9.640 -0.5376  0.0239  0.5023
  131MOL0     C17604   8.119   6.686   9.510 -0.0985 -0.0510  0.3025
  131MOL0     C17605   8.414   6.752   9.186 -0.7437  0.1414 -0.0818
  131MOL0     C17606   8.503   6.865   9.193 -0.8892 -0.2840  0.0484
  131MOL0     C17607   8.597   6.892   9.095 -0.1123  0.3141  0.3585
  131MOL0     C17608   8.612   6.806   8.988  0.2115  0.6910  0.4703
  131MOL0     O17609   8.698   6.839   8.886 -0.1553  0.0333 -0.3570
  131MOL0     C17610   8.815   6.755   8.865  0.2656 -0.1488  0.0428
  131MOL0     C17611   8.924   6.812   8.779  0.4953 -0.0038  0.8318
  131MOL0     C17612   8.979   6.949   8.832  0.6029 -0.0542  0.7460
  131MOL0     C17613   9.058   6.947   8.965  0.7023  0.1638  0.8807
  131MOL0     C17614   9.185   6.871   8.965  0.0707 -0.4580 -1.1064
  131MOL0     C17615   9.288   6.811   8.978 -0.2607 -1.1847 -0.1758
  131MOL0     C17616   8.521   6.703   8.973  0.3610 -1.4961 -0.4065
  131MOL0     C17617   8.429   6.677   9.068 -0.3825 -0.1691 -0.6819
  131MOL0     H17618   8.303   6.958   9.578  1.8076 -1.8052  1.7934
  131MOL0     H17619   8.196   6.935   9.799  0.8406  0.7808 -0.6866
  131MOL0     H17620   7.834   6.786   9.798  1.0351  3.4175  1.9953
  131MOL0     H17621   7.885   6.614   9.859  0.0481  0.4562 -2.0300
  131MOL0     H17622   7.805   6.862  10.009  3.1643  0.9146 -2.5024
  131MOL0     H17623   7.708   6.712   9.997 -0.1534 -0.6496 -1.3446
  131MOL0     H17624   7.969   6.630  10.095 -1.6167 -0.6456 -2.1415
  131MOL0     H17625   7.964   6.782  10.160 -0.6021  1.0750 -1.4488
  131MOL0     H17626   7.738   6.586  10.207 -1.3447  0.7704  1.4229
  131MOL0     H17627   7.860   6.651  10.320 -0.1050  2.9977  0.0671
  131MOL0     H17628   7.775   6.882  10.284  0.4017  0.0433 -0.9470
  131MOL0     H17629   7.631   6.819  10.229 -0.1355  3.4713 -0.7533
  131MOL0     H17630   7.753   6.752  10.508  0.2050 -0.7955  0.0026
  131MOL0     H17631   7.613   6.848  10.480 -0.1127 -1.1241  2.4354
  131MOL0     H17632   7.482   6.665  10.390 -2.2230 -0.7621  2.0428
  131MOL0     H17633   7.617   6.554  10.406  0.7223 -0.5667  3.2379
  131MOL0     H17634   7.621   6.642  10.671 -0.3791  0.7253  0.8201
  131MOL0     H17635   7.510   6.519  10.603 -1.5730 -0.4638 -0.2795
  131MOL0     H17636   7.290   6.562  10.758 -1.2848 -1.0268 -2.8058
  131MOL0     H17637   7.140   6.655  10.899  0.0322 -1.0494 -2.8300
  131MOL0     H17638   7.122   6.841  10.927  0.1276  0.9892 -1.4505
  131MOL0     H17639   6.914   6.709  10.857 -0.1111  0.5354 -0.6804
  131MOL0     H17640   6.989   6.644  10.718  0.1564  0.8377 -2.5536
  131MOL0     H17641   6.973   6.845  10.603 -0.5238  1.0386  0.2428
  131MOL0     H17642   6.970   6.950  10.736 -0.6921  1.1094 -0.5419
  131MOL0     H17643   6.744   6.751  10.675 -2.8943  1.3388 -2.6720
  131MOL0     H17644   6.748   6.918  10.614 -3.1623 -0.8457  1.0210
  131MOL0     H17645   6.610   7.058  10.981  0.3611  0.7143 -0.3754
  131MOL0     H17646   6.472   7.150  11.101  0.9721  0.9121 -1.8107
  131MOL0     H17647   6.419   7.251  10.980 -0.1597  0.1644 -1.7837
  131MOL0     H17648   6.292   7.156  11.075 -1.0932  4.0428 -3.3533
  131MOL0     H17649   5.896   7.143  10.805 -3.5183  1.6768 -2.7674
  131MOL0     H17650   5.750   7.317  10.740  0.3955  1.1888 -2.4380
  131MOL0     H17651   5.868   7.743  10.849  2.8996  1.9199 -1.3974
  131MOL0     H17652   5.907   7.727  10.679 -1.2938 -0.0552 -1.2927
  131MOL0     H17653   5.636   7.788  10.826  0.3035  1.8482  0.3303
  131MOL0     H17654   5.730   7.887  10.720 -0.9467  0.7117  0.9103
  131MOL0     H17655   5.596   7.622  10.628  1.8213 -0.7618 -2.1020
  131MOL0     H17656   5.672   7.752  10.529 -0.2346  2.5220  0.5418
  131MOL0     H17657   5.429   7.793  10.707 -1.6557 -1.4723 -1.2975
  131MOL0     H17658   5.484   7.904  10.582  1.5824  0.1889  1.2991
  131MOL0     H17659   5.312   7.665  10.565  0.8112 -0.9823 -0.3461
  131MOL0     H17660   5.423   7.671  10.428  1.2209  2.6980 -1.9187
  131MOL0     H17661   5.250   7.915  10.502 -1.6238  0.0058 -1.5063
  131MOL0     H17662   5.362   7.898  10.374 -0.2975  0.3774 -0.4165
  131MOL0     H17663   5.107   7.744  10.409 -0.5410  0.0890  0.1746
  131MOL0     H17664   5.237   7.719  10.277 -0.6475 -0.4057 -0.1371
  131MOL0     H17665   5.190   7.943  10.211 -1.4476  0.1326  0.1277
  131MOL0     H17666   5.044   7.962  10.337 -2.4016 -2.6735  2.0066
  131MOL0     H17667   6.033   7.609  10.848 -0.3816  0.2044  0.0171
  131MOL0     H17668   6.181   7.423  10.924 -0.0431  1.8058 -0.9794
  131MOL0     H17669   6.282   6.863  10.681 -1.0855 -1.7946  1.7985
  131MOL0     H17670   6.527   6.799  10.654  0.8814 -2.1295  1.6922
  131MOL0     H17671   7.988   6.597   9.653  0.4850 -1.3339 -1.8526
  131MOL0     H17672   8.092   6.613   9.434  0.8009  1.5668 -1.6783
  131MOL0     H17673   8.506   6.934   9.276 -2.9289  0.3782 -0.3729
  131MOL0     H17674   8.665   6.976   9.100 -1.2476  1.6404 -3.2541
  131MOL0     H17675   8.864   6.729   8.959 -3.0728 -4.1014  0.9772
  131MOL0     H17676   8.780   6.659   8.826  0.5429 -1.1707  2.1721
  131MOL0     H17677   8.880   6.810   8.679 -0.2985 -0.6392  1.1820
  131MOL0     H17678   9.009   6.744   8.782 -0.6322 -1.4810  0.6756
  131MOL0     H17679   8.893   7.016   8.837  1.3583  1.0161 -0.0937
  131MOL0     H17680   9.036   7.001   8.753 -0.2857 -0.9392 -0.5179
  131MOL0     H17681   9.003   6.908   9.050 -0.6863 -3.1082 -1.3357
  131MOL0     H17682   9.095   7.049   8.979 -1.3192  1.1816 -0.7082
  131MOL0     H17683   9.380   6.765   9.009  0.6251  1.7921  2.0309
  131MOL0     H17684   8.527   6.627   8.896 -1.1986 -1.4087 -0.6525
  131MOL0     H17685   8.363   6.591   9.060 -0.9095  0.2324 -0.7426
  132MOL0     O17686  10.836   2.681   6.580  0.1279  0.1135 -0.4403
  132MOL0     C17687  10.878   2.565   6.608  0.0038 -0.5027  0.2759
  132MOL0     O17688  10.971   2.540   6.701 -0.2488 -0.1026  0.6749
  132MOL0     C17689  11.013   2.642   6.780 -0.1509 -0.8455  0.8975
  132MOL0     C17690  11.136   2.693   6.786  0.1181  0.0460  0.9572
  132MOL0     C17691  11.186   2.764   6.893  1.1480  0.8527  0.5667
  132MOL0     C17692  11.096   2.801   6.997 -0.4116  0.2979 -0.4049
  132MOL0     O17693  11.140   2.866   7.110  0.0937 -0.5712 -0.6795
  132MOL0     C17694  11.234   2.976   7.084  0.2359 -0.8943 -0.3070
  132MOL0     C17695  11.283   3.042   7.224 -0.0375 -0.9870  1.0646
  132MOL0     C17696  11.377   3.163   7.196  0.0648  0.4934 -0.4874
  132MOL0     C17697  11.377   3.240   7.329  0.4644  0.8534  0.0446
  132MOL0     C17698  11.464   3.364   7.326  0.1516 -0.1534 -0.0340
  132MOL0     C17699  11.601   3.336   7.276 -0.2542  0.7359 -0.7156
  132MOL0     C17700  11.724   3.424   7.303  0.1147 -0.4727 -0.7180
  132MOL0     C17701  11.692   3.565   7.292  0.8329  0.4660  0.0767
  132MOL0     N17702  11.809   3.644   7.290  0.1200  0.1036  0.1208
  132MOL0     C17703  11.908   3.630   7.195  0.3258  0.6982 -0.8839
  132MOL0     C17704  12.000   3.714   7.250  0.6840  0.8857  0.3937
  132MOL0     C17705  12.124   3.764   7.181 -0.6437 -0.0076 -0.4343
  132MOL0     C17706  12.080   3.808   7.041 -0.4951 -0.3263 -0.1447
  132MOL0     C17707  12.003   3.942   7.035 -1.2212 -0.2313  0.5931
  132MOL0     C17708  11.853   3.945   7.002 -0.5975  0.6321 -0.1067
  132MOL0     O17709  11.837   3.849   6.893 -0.0265 -0.1564 -0.9754
  132MOL0     C17710  11.737   3.760   6.908  0.8313 -0.3146  0.4953
  132MOL0     C17711  11.763   3.631   6.859  1.2866 -0.6171  1.1024
  132MOL0     C17712  11.664   3.531   6.865 -0.6080  0.3812 -0.1703
  132MOL0     C17713  11.696   3.403   6.778  0.7528  0.2130  0.1608
  132MOL0     C17714  11.534   3.559   6.922  0.0602  0.6867 -0.2724
  132MOL0     C17715  11.426   3.459   6.928 -0.5653  0.2011  0.6539
  132MOL0     O17716  11.297   3.517   6.948 -0.1022 -0.5962 -0.2761
  132MOL0     C17717  11.184   3.441   6.924  0.1743  0.8899  0.8667
  132MOL0     C17718  11.090   3.414   7.028  0.6911  0.2477  0.0854
  132MOL0     C17719  10.980   3.324   6.998 -0.4279 -0.0933 -0.9132
  132MOL0     C17720  10.955   3.272   6.869 -1.0219  0.9580 -0.0307
  132MOL0     O17721  10.853   3.170   6.859 -1.1104  0.4836 -0.3278
  132MOL0     C17722  10.812   3.117   6.730 -0.0607  0.3508 -0.6229
  132MOL0     C17723  10.745   3.222   6.637 -0.9076  0.6102  0.1423
  132MOL0     C17724  10.612   3.277   6.690  0.5586 -0.4666  1.1256
  132MOL0     C17725  10.634   3.402   6.780 -0.5745 -0.4333 -0.3826
  132MOL0     C17726  10.495   3.482   6.788 -0.0416  0.0187  0.0966
  132MOL0     C17727  10.493   3.618   6.862 -0.6058  0.8469  0.2451
  132MOL0     C17728  10.494   3.611   7.012 -0.2580  0.1723  0.0761
  132MOL0     C17729  10.500   3.746   7.068  0.3755 -0.1441 -1.1319
  132MOL0    Cl17730  10.346   3.844   7.046  0.3998  0.2748  0.6675
  132MOL0     C17731  11.052   3.304   6.767 -0.0049  0.0926 -0.1243
  132MOL0     C17732  11.162   3.377   6.804  0.3428  0.2348 -0.1635
  132MOL0     O17733  11.455   3.338   6.929 -0.0702  0.1000 -0.0211
  132MOL0     C17734  11.508   3.687   6.975  0.5462 -0.2974 -0.4545
  132MOL0     C17735  11.608   3.791   6.964 -0.4172  1.1990  0.6113
  132MOL0     N17736  11.953   3.778   7.364 -0.1513 -0.5552 -0.8186
  132MOL0     N17737  11.836   3.733   7.384  0.4700  0.0894  0.6522
  132MOL0     C17738  10.970   2.750   6.992 -0.2264  0.2252 -0.6719
  132MOL0     C17739  10.925   2.676   6.885 -0.0161  0.4261 -0.7466
  132MOL0     C17740  10.804   2.445   6.561 -0.2570 -0.3055 -0.2560
  132MOL0     C17741  10.847   2.316   6.603  0.2560  0.6030 -0.1359
  132MOL0     C17742  10.796   2.197   6.530 -0.1677  0.0202 -0.1357
  132MOL0     C17743  10.691   2.215   6.447  0.4024  1.2398 -1.1939
  132MOL0     O17744  10.640   2.104   6.391 -0.2530 -0.3220  0.9855
  132MOL0     C17745  10.524   2.111   6.300 -0.2453 -0.2974  1.0671
  132MOL0     C17746  10.534   2.171   6.160  0.6959 -0.2120  0.1953
  132MOL0     C17747  10.629   2.103   6.065  1.0134  0.3598  0.2265
  132MOL0     C17748  10.610   2.159   5.920 -0.1583  0.9318 -0.6644
  132MOL0     C17749  10.703   2.086   5.842  0.8263 -0.5147 -0.6835
  132MOL0     C17750  10.782   2.020   5.787  0.8266 -0.5893  0.3089
  132MOL0     C17751  10.639   2.341   6.418  0.3891 -0.5419  0.1336
  132MOL0     C17752  10.695   2.460   6.472 -0.6904  0.5236  0.5584
  132MOL0     H17753  11.223   2.675   6.723  1.8149 -0.6429  3.3511
  132MOL0     H17754  11.288   2.800   6.887  1.1869  0.6951  0.2544
  132MOL0     H17755  11.329   2.947   7.039  1.5803  0.4176  1.5053
  132MOL0     H17756  11.195   3.051   7.015  1.9166 -0.3047 -0.6781
  132MOL0     H17757  11.197   3.090   7.272 -0.1035  1.7064 -1.4283
  132MOL0     H17758  11.316   2.962   7.290 -3.4007 -3.1112  0.4243
  132MOL0     H17759  11.473   3.115   7.176 -0.1221  0.1236 -0.5230
  132MOL0     H17760  11.352   3.222   7.108  1.2918 -1.8436 -2.5306
  132MOL0     H17761  11.275   3.274   7.349 -0.0762  0.2141 -1.4539
  132MOL0     H17762  11.409   3.175   7.410 -3.5864 -2.2129 -0.5225
  132MOL0     H17763  11.424   3.441   7.259 -0.8339 -1.0730 -0.5257
  132MOL0     H17764  11.481   3.396   7.429  4.9468 -3.3243  0.4655
  132MOL0     H17765  11.634   3.238   7.310 -1.2560  0.3971 -0.6996
  132MOL0     H17766  11.602   3.328   7.167  4.0468  0.5378 -0.8564
  132MOL0     H17767  11.738   3.410   7.411  3.4341  0.1789 -0.9605
  132MOL0     H17768  11.820   3.399   7.256  1.6857  0.9493  1.5288
  132MOL0     H17769  11.615   3.601   7.361  1.3743  0.4852  0.6812
  132MOL0     H17770  11.647   3.565   7.193 -0.8057  2.3580  0.7703
  132MOL0     H17771  11.895   3.574   7.103 -2.0491 -0.1263 -0.0951
  132MOL0     H17772  12.154   3.856   7.232 -2.0297  2.2975 -3.4448
  132MOL0     H17773  12.206   3.692   7.189  0.4729  1.3433  0.8510
  132MOL0     H17774  12.037   3.724   6.987  0.2093  0.4981 -2.0753
  132MOL0     H17775  12.176   3.828   6.991 -1.9065  2.5966 -1.9899
  132MOL0     H17776  12.051   3.988   6.948 -1.8670  0.3930  0.5577
  132MOL0     H17777  12.024   4.003   7.123  0.6913  3.0981 -1.9463
  132MOL0     H17778  11.824   4.046   6.973 -0.5074  0.3579 -1.2087
  132MOL0     H17779  11.799   3.904   7.088 -0.2065 -1.1076 -0.6444
  132MOL0     H17780  11.863   3.617   6.821  0.4681  1.7559 -2.4788
  132MOL0     H17781  11.775   3.415   6.703 -1.3891  6.6038 -1.7326
  132MOL0     H17782  11.713   3.322   6.850 -2.0848 -0.3119  0.3646
  132MOL0     H17783  11.611   3.379   6.713  0.6063  0.2822  0.3263
  132MOL0     H17784  11.117   3.442   7.129  1.3973 -0.7509  0.1895
  132MOL0     H17785  10.914   3.289   7.078 -1.3299 -0.1043 -1.6408
  132MOL0     H17786  10.905   3.088   6.681  0.7666  0.3618  0.8935
  132MOL0     H17787  10.747   3.029   6.736  0.0213  0.2377 -1.2769
  132MOL0     H17788  10.807   3.308   6.610 -1.7912  0.9593 -0.8045
  132MOL0     H17789  10.728   3.176   6.539 -0.6396 -0.1569  0.4426
  132MOL0     H17790  10.548   3.206   6.744 -1.0207  0.2090  0.2254
  132MOL0     H17791  10.552   3.298   6.600  0.8933 -1.3384  0.6824
  132MOL0     H17792  10.676   3.365   6.874 -2.0551 -0.5563  0.2519
  132MOL0     H17793  10.708   3.469   6.735 -0.8057  1.9783  2.4748
  132MOL0     H17794  10.411   3.424   6.825 -2.2728  0.3593 -3.9048
  132MOL0     H17795  10.454   3.492   6.687  0.4454 -2.1540 -0.3736
  132MOL0     H17796  10.587   3.674   6.856 -1.0663  2.1699  3.2969
  132MOL0     H17797  10.423   3.694   6.829  0.5002  3.3331  3.1246
  132MOL0     H17798  10.581   3.560   7.054 -0.6984  0.6780  1.6718
  132MOL0     H17799  10.405   3.561   7.051  0.0100 -0.9023 -0.6263
  132MOL0     H17800  10.577   3.804   7.017  2.2725 -0.9535  0.6467
  132MOL0     H17801  10.517   3.743   7.176 -0.2542  2.8956 -0.8733
  132MOL0     H17802  11.056   3.263   6.667 -1.3185  0.5035 -0.3652
  132MOL0     H17803  11.240   3.396   6.731  1.1097  5.0716  1.5325
  132MOL0     H17804  11.417   3.705   7.031  1.2866 -0.1739  0.7423
  132MOL0     H17805  11.582   3.887   7.008 -0.2765  1.4094  0.2452
  132MOL0     H17806  10.903   2.777   7.073  1.8663 -3.4871  2.7107
  132MOL0     H17807  10.823   2.643   6.870  0.1276  0.8150 -3.0297
  132MOL0     H17808  10.931   2.315   6.672  0.7067 -0.7718 -0.6679
  132MOL0     H17809  10.826   2.094   6.520 -1.5495 -0.2273 -2.3867
  132MOL0     H17810  10.493   2.007   6.290  0.1032 -0.2745 -0.5609
  132MOL0     H17811  10.444   2.166   6.350  0.5003  1.7449  0.1782
  132MOL0     H17812  10.570   2.275   6.156  1.0799 -0.3638 -0.3708
  132MOL0     H17813  10.435   2.163   6.115  0.0698  1.5242  1.1492
  132MOL0     H17814  10.616   1.995   6.056  1.6999  0.0886  1.9870
  132MOL0     H17815  10.735   2.121   6.086  1.5825  0.3687 -2.3390
  132MOL0     H17816  10.639   2.264   5.920 -1.1570  1.3685  3.4069
  132MOL0     H17817  10.509   2.141   5.879 -0.1877  0.0643 -0.2438
  132MOL0     H17818  10.853   1.964   5.730  0.7696  0.1930 -0.5454
  132MOL0     H17819  10.549   2.362   6.362  1.9418  1.1149 -1.8941
  132MOL0     H17820  10.662   2.556   6.434 -2.0854 -0.8662 -1.9628
  133MOL0     O17821   9.804   6.199   9.234  0.6147  0.3694 -0.4853
  133MOL0     C17822   9.922   6.181   9.265 -0.3184  0.8529 -0.0855
  133MOL0     O17823   9.981   6.065   9.311 -0.7679 -0.6281  0.2074
  133MOL0     C17824   9.886   5.977   9.355 -0.9285 -0.4589  0.5478
  133MOL0     C17825   9.897   5.848   9.320  0.5531  1.0155  0.2473
  133MOL0     C17826   9.797   5.755   9.372 -0.2367  0.4627  0.2624
  133MOL0     C17827   9.691   5.795   9.454 -0.1906 -0.3488 -0.0351
  133MOL0     O17828   9.588   5.709   9.499  0.3452  0.6948  0.9858
  133MOL0     C17829   9.573   5.574   9.447 -0.3321 -0.5999 -0.6322
  133MOL0     C17830   9.460   5.486   9.502 -0.3382 -0.0830 -1.1222
  133MOL0     C17831   9.478   5.332   9.479 -0.1136 -0.2465  0.0312
  133MOL0     C17832   9.353   5.249   9.525  0.1044  0.4853 -0.7347
  133MOL0     C17833   9.351   5.107   9.469  0.2970 -0.8030  0.2516
  133MOL0     C17834   9.486   5.033   9.493 -0.5963 -0.4168 -0.5371
  133MOL0     C17835   9.478   4.881   9.461  0.4724 -0.2155 -0.3651
  133MOL0     C17836   9.429   4.790   9.572 -0.4755 -0.2142 -0.9394
  133MOL0     N17837   9.281   4.782   9.595 -1.4627 -0.1061  0.9996
  133MOL0     C17838   9.206   4.837   9.694 -0.2640 -0.8595 -0.7566
  133MOL0     C17839   9.077   4.814   9.668 -0.2783 -0.3773  0.0761
  133MOL0     C17840   8.971   4.896   9.732  0.3744 -0.8587  0.5301
  133MOL0     C17841   8.927   4.826   9.856  0.5483  0.4192  0.0437
  133MOL0     C17842   8.810   4.886   9.930  0.5311 -0.2675  0.2014
  133MOL0     C17843   8.732   4.782  10.017 -0.1767 -0.3308 -0.6696
  133MOL0     O17844   8.649   4.851  10.110 -0.4072 -0.8158  0.0716
  133MOL0     C17845   8.693   4.890  10.234  0.0498  0.1739 -0.0501
  133MOL0     C17846   8.824   4.884  10.277 -0.0712  0.2353 -0.4547
  133MOL0     C17847   8.855   4.883  10.419 -0.3642  0.0728  0.0498
  133MOL0     C17848   8.989   4.832  10.462  0.1295 -0.5245  0.0244
  133MOL0     C17849   8.755   4.924  10.516 -0.1287  0.5049 -0.1048
  133MOL0     C17850   8.770   4.945  10.670 -0.3608  0.2279 -0.6957
  133MOL0     O17851   8.659   4.946  10.750 -0.3272 -0.2471 -1.2969
  133MOL0     C17852   8.675   5.017  10.862  0.0158 -0.5467 -0.5046
  133MOL0     C17853   8.627   5.143  10.882  0.0390 -0.0725  1.2863
  133MOL0     C17854   8.629   5.209  11.002  0.2633 -0.4206  1.0739
  133MOL0     C17855   8.679   5.149  11.120  0.3785  0.4726  0.1865
  133MOL0     O17856   8.677   5.200  11.243  0.0316 -0.4606 -0.1451
  133MOL0     C17857   8.784   5.173  11.332  0.3970 -0.3712  0.3613
  133MOL0     C17858   8.921   5.218  11.291  0.5036 -0.3696  0.0154
  133MOL0     C17859   8.943   5.363  11.304 -0.6623  0.0088  0.1137
  133MOL0     C17860   9.041   5.411  11.197 -0.5464  0.4130  0.6554
  133MOL0     C17861   9.016   5.565  11.174 -0.5086 -0.6039  0.4428
  133MOL0     C17862   9.105   5.623  11.072 -0.3792 -0.7674  1.1578
  133MOL0     C17863   9.083   5.781  11.072  0.8278 -0.3262 -0.2690
  133MOL0     C17864   9.165   5.849  10.966 -0.3888  0.1374 -0.0104
  133MOL0    Cl17865   9.138   6.025  10.964  0.1367  0.4831 -0.3592
  133MOL0     C17866   8.745   5.030  11.090 -0.0391  0.1009  0.0978
  133MOL0     C17867   8.737   4.964  10.970  0.5996  0.6024  0.5033
  133MOL0     O17868   8.882   4.969  10.710 -0.5949 -0.2523  0.3055
  133MOL0     C17869   8.631   4.941  10.463 -0.0669  0.4161 -0.4156
  133MOL0     C17870   8.593   4.923  10.333  0.4907  1.1701  0.8350
  133MOL0     N17871   9.084   4.717   9.571 -0.4274  0.4152  0.3278
  133MOL0     N17872   9.200   4.699   9.527 -0.5170 -0.0242 -0.7851
  133MOL0     C17873   9.678   5.933   9.483  0.8059 -0.1536  0.2640
  133MOL0     C17874   9.788   6.011   9.449  0.6135 -0.8973 -0.4283
  133MOL0     C17875  10.022   6.283   9.232  0.1980  0.7072 -0.0424
  133MOL0     C17876  10.163   6.270   9.264 -0.5277 -0.5775 -0.3183
  133MOL0     C17877  10.253   6.364   9.210  0.1621  0.2414 -0.4806
  133MOL0     C17878  10.212   6.480   9.136  1.2612 -0.1476 -0.2858
  133MOL0     O17879  10.292   6.578   9.092  0.5287  0.0991 -0.4850
  133MOL0     C17880  10.436   6.550   9.084 -0.0988  0.0035  0.2555
  133MOL0     C17881  10.489   6.658   8.985 -0.3451 -0.0766  0.0802
  133MOL0     C17882  10.472   6.799   9.041 -0.1210 -0.7063  0.1652
  133MOL0     C17883  10.522   6.906   8.946 -0.6684 -0.0388  0.3564
  133MOL0     C17884  10.433   6.915   8.826 -0.3714  0.4241 -0.4863
  133MOL0     C17885  10.376   6.933   8.724 -0.3507 -0.1722  0.3043
  133MOL0     C17886  10.074   6.495   9.111 -1.2384 -0.2835 -0.0140
  133MOL0     C17887   9.979   6.399   9.167 -0.3580  0.7010  0.2555
  133MOL0     H17888   9.976   5.818   9.252 -0.3357 -0.3961 -0.2229
  133MOL0     H17889   9.800   5.651   9.344 -0.0010 -0.3420  3.0248
  133MOL0     H17890   9.569   5.573   9.338  3.4068 -0.3858 -0.9047
  133MOL0     H17891   9.671   5.528   9.465 -0.3461 -0.6307 -0.6368
  133MOL0     H17892   9.441   5.507   9.607 -1.4524 -0.1835 -1.2935
  133MOL0     H17893   9.377   5.522   9.440 -1.4941 -2.2949 -0.9499
  133MOL0     H17894   9.509   5.297   9.380  1.3350  0.0523  0.3652
  133MOL0     H17895   9.559   5.304   9.547  2.1083  2.2410 -1.3915
  133MOL0     H17896   9.363   5.242   9.634  0.1194  1.3071 -0.6763
  133MOL0     H17897   9.255   5.295   9.506 -1.4145 -2.3178 -0.2099
  133MOL0     H17898   9.264   5.056   9.511  1.9194 -4.7026 -0.6747
  133MOL0     H17899   9.337   5.120   9.361 -1.9638  0.6247  0.6436
  133MOL0     H17900   9.563   5.086   9.436 -1.2884  0.4746 -0.6663
  133MOL0     H17901   9.504   5.052   9.599 -1.4914 -0.3202 -0.3994
  133MOL0     H17902   9.424   4.871   9.366  0.7717 -1.0957 -0.4484
  133MOL0     H17903   9.569   4.828   9.432 -0.3558 -2.2137  0.5425
  133MOL0     H17904   9.467   4.826   9.669  3.0617 -1.5113 -1.7039
  133MOL0     H17905   9.464   4.689   9.551 -1.1326 -0.2488 -1.8834
  133MOL0     H17906   9.244   4.892   9.779 -1.9597 -1.7154  0.6056
  133MOL0     H17907   9.010   4.997   9.749  1.8575 -0.6204 -3.2440
  133MOL0     H17908   8.897   4.911   9.653  0.7592 -0.0074  0.3180
  133MOL0     H17909   9.017   4.815   9.917 -1.0895 -1.6895  2.3006
  133MOL0     H17910   8.893   4.725   9.832  1.3461 -0.9606  3.9957
  133MOL0     H17911   8.732   4.922   9.862  0.4348 -4.7781 -2.3987
  133MOL0     H17912   8.855   4.968   9.987 -0.0932  0.1817  0.0681
  133MOL0     H17913   8.809   4.720  10.066 -1.9304 -2.3078 -0.2838
  133MOL0     H17914   8.667   4.725   9.951  0.7278  0.3912 -2.2442
  133MOL0     H17915   8.910   4.862  10.215 -1.2259 -2.8603 -1.1289
  133MOL0     H17916   8.976   4.751  10.533  1.0302 -0.7605 -0.0656
  133MOL0     H17917   9.058   4.805  10.382  0.7955 -0.6295  0.6248
  133MOL0     H17918   9.038   4.902  10.531 -3.5770  3.4653 -0.9441
  133MOL0     H17919   8.583   5.179  10.790 -2.0430 -3.0092  0.9980
  133MOL0     H17920   8.575   5.303  11.005 -4.0657 -2.3668 -3.1297
  133MOL0     H17921   8.773   5.234  11.422 -0.4034  2.0050 -1.2561
  133MOL0     H17922   8.783   5.067  11.360 -1.9077 -1.1124 -2.1549
  133MOL0     H17923   8.978   5.152  11.357 -1.3474 -2.0870 -0.0195
  133MOL0     H17924   8.950   5.189  11.190 -1.3310  4.6626 -2.2517
  133MOL0     H17925   8.988   5.388  11.400  0.8971  2.1092 -1.0899
  133MOL0     H17926   8.848   5.411  11.278 -0.1367 -0.5777 -3.4283
  133MOL0     H17927   9.146   5.395  11.221  0.4755  1.1227 -2.7730
  133MOL0     H17928   9.022   5.354  11.105 -1.2489  1.7100 -0.0409
  133MOL0     H17929   9.024   5.621  11.268 -5.1764 -1.7266  1.7956
  133MOL0     H17930   8.909   5.575  11.153  0.1701 -0.3517 -3.6573
  133MOL0     H17931   9.211   5.598  11.083 -1.0219 -3.7970  1.2966
  133MOL0     H17932   9.074   5.587  10.973 -0.2973  1.7876  0.1054
  133MOL0     H17933   9.118   5.821  11.168  2.4483 -0.2730 -0.8647
  133MOL0     H17934   8.976   5.801  11.058  0.8696 -0.1816 -0.3732
  133MOL0     H17935   9.133   5.814  10.867  0.8771  2.6824 -1.4199
  133MOL0     H17936   9.272   5.828  10.977 -0.2777  1.1878  1.1460
  133MOL0     H17937   8.795   4.975  11.168  3.2117  2.6966  0.0469
  133MOL0     H17938   8.771   4.862  10.955 -0.6383  0.1896  0.4111
  133MOL0     H17939   8.553   4.974  10.531  1.6031  4.5309 -0.1966
  133MOL0     H17940   8.491   4.947  10.305  1.3024  5.2304  0.7751
  133MOL0     H17941   9.599   5.979   9.541 -0.2900 -0.0940 -1.2226
  133MOL0     H17942   9.793   6.110   9.491  1.2455 -0.8832 -0.5259
  133MOL0     H17943  10.209   6.201   9.333  1.1053  0.5542 -0.2046
  133MOL0     H17944  10.358   6.355   9.238  0.5383 -2.5107 -2.3513
  133MOL0     H17945  10.487   6.561   9.181  1.1085  2.8461 -0.5933
  133MOL0     H17946  10.459   6.451   9.044  0.1186  0.2471 -0.2213
  133MOL0     H17947  10.425   6.657   8.896  1.3084  0.6561 -1.1668
  133MOL0     H17948  10.589   6.630   8.951 -0.6680  1.1258 -2.0099
  133MOL0     H17949  10.509   6.809   9.144 -0.7087 -0.8831  0.3999
  133MOL0     H17950  10.367   6.826   9.059 -0.0748  1.2234 -2.0687
  133MOL0     H17951  10.629   6.900   8.923 -0.8949 -0.1654 -0.7450
  133MOL0     H17952  10.510   7.005   8.989 -1.5502  0.0945 -0.1766
  133MOL0     H17953  10.330   6.967   8.633  0.6414 -2.7908 -1.2842
  133MOL0     H17954  10.051   6.589   9.062  1.2062  0.6685  0.5385
  133MOL0     H17955   9.872   6.409   9.148 -0.1969 -0.5633 -1.6215
  134MOL0     O17956   6.983   9.732  10.921 -0.1199 -0.1032 -0.8156
  134MOL0     C17957   7.070   9.724  10.839 -0.1861 -0.2160  0.0730
  134MOL0     O17958   7.123   9.827  10.768 -0.1426 -1.2070 -0.4049
  134MOL0     C17959   7.066   9.957  10.799  0.1777  0.0215  0.1863
  134MOL0     C17960   6.966  10.012  10.719 -0.2552 -0.4779 -0.0581
  134MOL0     C17961   6.899  10.125  10.768  0.3578 -0.3729 -0.8566
  134MOL0     C17962   6.921  10.184  10.894 -0.9055  0.5237 -0.7062
  134MOL0     O17963   6.843  10.281  10.938  0.0444 -0.5324  0.2721
  134MOL0     C17964   6.778  10.283  11.069  0.0356 -0.3302 -0.5222
  134MOL0     C17965   6.631  10.279  11.040  0.5587 -0.4586 -0.3457
  134MOL0     C17966   6.585  10.131  11.029 -0.3479  0.7394  1.0575
  134MOL0     C17967   6.428  10.122  11.008 -0.8874 -1.0359  1.0080
  134MOL0     C17968   6.387  10.163  10.864  0.5145 -1.0902 -0.1989
  134MOL0     C17969   6.243  10.123  10.827  0.5745 -0.1412 -0.8547
  134MOL0     C17970   6.204  10.212  10.720 -0.1101 -0.0952  0.7898
  134MOL0     C17971   6.052  10.206  10.677 -0.0362 -0.0758  0.0196
  134MOL0     N17972   6.009  10.068  10.638  0.5190 -0.0493  0.5034
  134MOL0     C17973   5.911   9.988  10.709 -0.1666 -1.1055  0.2766
  134MOL0     C17974   5.892   9.884  10.625  0.4744  0.1866  0.3180
  134MOL0     C17975   5.820   9.760  10.665  0.2032  1.0301  0.2502
  134MOL0     C17976   5.868   9.689  10.795  0.2281  0.2435 -0.0843
  134MOL0     C17977   5.806   9.757  10.917 -0.0611  0.1749 -0.0209
  134MOL0     C17978   5.778   9.668  11.041 -0.1234 -0.0143 -0.3490
  134MOL0     O17979   5.652   9.600  11.038 -0.2408  0.8790  0.9826
  134MOL0     C17980   5.609   9.510  11.128 -0.5446 -0.5162 -0.3659
  134MOL0     C17981   5.476   9.495  11.142  0.1590  0.4270 -0.3911
  134MOL0     C17982   5.405   9.424  11.245  0.0909 -0.4635 -0.1847
  134MOL0     C17983   5.254   9.404  11.222  0.1198  0.7477  0.3470
  134MOL0     C17984   5.486   9.363  11.342  0.2699  0.2294 -0.4874
  134MOL0     C17985   5.434   9.276  11.456  1.1667 -0.3128  0.4610
  134MOL0     O17986   5.524   9.225  11.544 -0.7546 -0.1991 -0.2084
  134MOL0     C17987   5.484   9.184  11.675  0.0027 -0.8864 -0.0703
  134MOL0     C17988   5.522   9.057  11.712 -0.7424 -0.9523 -0.2282
  134MOL0     C17989   5.479   9.009  11.842  1.1205 -0.6688  0.6901
  134MOL0     C17990   5.403   9.097  11.921 -0.3064 -0.2920 -0.1755
  134MOL0     O17991   5.346   9.080  12.039  0.6761 -0.4203 -0.1342
  134MOL0     C17992   5.344   8.941  12.081 -0.4677  0.1480  0.6618
  134MOL0     C17993   5.267   8.938  12.212  0.4544  0.4006  0.7327
  134MOL0     C17994   5.117   8.943  12.184  0.1396 -0.7221  0.5187
  134MOL0     C17995   5.041   8.990  12.318  0.4467  0.1148  0.2394
  134MOL0     C17996   4.885   8.982  12.314  0.1561 -0.4532 -0.1393
  134MOL0     C17997   4.826   8.846  12.347  0.9785 -0.2801  0.0180
  134MOL0     C17998   4.679   8.837  12.339  0.3066 -0.0733 -0.6252
  134MOL0     C17999   4.621   8.868  12.198 -1.0350  0.9459 -0.7676
  134MOL0    Cl18000   4.565   9.032  12.225 -0.1350  0.1223  0.2210
  134MOL0     C18001   5.382   9.227  11.884  0.8288  0.4795 -0.0886
  134MOL0     C18002   5.423   9.275  11.763 -0.2683  0.5657 -1.3826
  134MOL0     O18003   5.318   9.250  11.460 -0.5770  0.3892  0.2072
  134MOL0     C18004   5.629   9.376  11.336  0.1034  1.2151  0.6648
  134MOL0     C18005   5.687   9.458  11.233  0.4195 -0.3003  0.6552
  134MOL0     N18006   5.968   9.891  10.508 -0.1676  0.4616 -0.2337
  134MOL0     N18007   6.028  10.010  10.514 -0.4131  0.4453 -0.0934
  134MOL0     C18008   7.028  10.133  10.975 -0.2681  0.3323 -0.0384
  134MOL0     C18009   7.088  10.015  10.927 -0.5527  0.6087  0.1463
  134MOL0     C18010   7.134   9.589  10.822 -0.0125 -0.0398  0.1330
  134MOL0     C18011   7.242   9.586  10.730  0.3448  0.3221 -0.4138
  134MOL0     C18012   7.308   9.461  10.703  0.5264 -0.1985  0.2514
  134MOL0     C18013   7.285   9.352  10.782 -0.8231  0.2766 -0.1817
  134MOL0     O18014   7.350   9.234  10.768  0.3615 -0.3472  0.0154
  134MOL0     C18015   7.490   9.253  10.753  0.0368  0.4557 -0.4215
  134MOL0     C18016   7.561   9.135  10.688 -0.5264  0.9098  1.5861
  134MOL0     C18017   7.523   9.109  10.544 -0.4336  0.3192  0.2695
  134MOL0     C18018   7.597   8.992  10.471  0.2687 -0.4990  0.7450
  134MOL0     C18019   7.514   8.871  10.475 -0.5942  0.6835  0.6084
  134MOL0     C18020   7.463   8.754  10.479 -0.2780  0.2830  0.1098
  134MOL0     C18021   7.173   9.350  10.869  0.7322 -0.1938 -0.1066
  134MOL0     C18022   7.093   9.473  10.891 -0.9107  0.0128 -0.8385
  134MOL0     H18023   6.946   9.975  10.619  1.4671 -0.1562 -0.5545
  134MOL0     H18024   6.824  10.186  10.720  4.0371  3.0760 -2.7873
  134MOL0     H18025   6.810  10.201  11.134 -1.8526 -1.0459 -0.4308
  134MOL0     H18026   6.798  10.383  11.108 -2.4239  0.8012 -1.9715
  134MOL0     H18027   6.575  10.318  11.125 -3.1099 -1.1678 -2.2311
  134MOL0     H18028   6.597  10.342  10.956  2.0989  1.4483  0.3742
  134MOL0     H18029   6.632  10.078  10.946 -1.5003 -0.3111  1.0474
  134MOL0     H18030   6.607  10.075  11.120  1.9729 -0.7344 -0.3276
  134MOL0     H18031   6.383  10.027  11.035  1.4892 -1.7047  2.8572
  134MOL0     H18032   6.389  10.192  11.082 -2.3219 -4.2092  3.4838
  134MOL0     H18033   6.389  10.273  10.861 -0.2243 -1.0037  1.4943
  134MOL0     H18034   6.464  10.129  10.793  0.3352 -1.8017 -0.0582
  134MOL0     H18035   6.240  10.017  10.801 -1.5549 -0.8692  1.9123
  134MOL0     H18036   6.186  10.128  10.920  1.0618 -1.9453 -0.4240
  134MOL0     H18037   6.226  10.318  10.736  1.6388 -0.3789  0.5351
  134MOL0     H18038   6.269  10.186  10.636 -0.0411  0.2874  0.7200
  134MOL0     H18039   6.026  10.280  10.601  3.7289 -0.4973 -1.9047
  134MOL0     H18040   6.003  10.229  10.772 -1.0200  0.2719 -0.5511
  134MOL0     H18041   5.870   9.995  10.810 -1.8264 -2.7250 -0.2408
  134MOL0     H18042   5.714   9.790  10.665  1.0205  4.9961 -3.6096
  134MOL0     H18043   5.836   9.680  10.591  1.1975 -1.1555  2.6795
  134MOL0     H18044   5.975   9.670  10.813  0.3149  3.0407  3.4647
  134MOL0     H18045   5.823   9.589  10.790 -1.7010  1.1085 -0.9747
  134MOL0     H18046   5.719   9.819  10.894 -1.6477 -1.1925  1.8727
  134MOL0     H18047   5.880   9.823  10.964 -2.3509 -0.2013  4.7739
  134MOL0     H18048   5.785   9.716  11.139  2.0448 -3.1861  1.2399
  134MOL0     H18049   5.868   9.606  11.046 -1.4726 -2.0651 -0.1333
  134MOL0     H18050   5.412   9.539  11.067 -1.5751  0.5083  1.0762
  134MOL0     H18051   5.203   9.430  11.315 -0.9552 -1.7553  0.5405
  134MOL0     H18052   5.215   9.478  11.151 -2.4078  0.6658  1.5567
  134MOL0     H18053   5.230   9.300  11.195 -1.2773  0.6569  1.8176
  134MOL0     H18054   5.584   8.997  11.646 -0.8481  0.4885 -1.7130
  134MOL0     H18055   5.488   8.906  11.877  2.6814 -1.6235 -2.1480
  134MOL0     H18056   5.282   8.883  12.012 -0.0508  0.8424 -0.3083
  134MOL0     H18057   5.447   8.909  12.096  0.0218  0.0811 -2.2664
  134MOL0     H18058   5.296   8.850  12.269  0.9209  2.6802  4.3457
  134MOL0     H18059   5.289   9.024  12.276  0.1270  1.9129 -1.0842
  134MOL0     H18060   5.090   8.840  12.155  0.0881  0.0409 -2.4984
  134MOL0     H18061   5.089   8.994  12.091 -0.3521 -3.6458 -1.0853
  134MOL0     H18062   5.083   8.946  12.409 -0.8057  2.2897  1.9763
  134MOL0     H18063   5.055   9.097  12.335  0.2676  0.2626 -0.5101
  134MOL0     H18064   4.854   9.029  12.220  0.0549  0.5017  0.3633
  134MOL0     H18065   4.846   9.049  12.391  1.4067 -0.3670  0.4374
  134MOL0     H18066   4.872   8.758  12.301 -0.3514 -1.6694  1.2087
  134MOL0     H18067   4.837   8.835  12.455  3.1014 -0.1554 -0.1491
  134MOL0     H18068   4.629   8.898  12.415 -2.9877 -3.8004  0.5449
  134MOL0     H18069   4.655   8.733  12.364 -2.3994 -0.1644 -3.0705
  134MOL0     H18070   4.539   8.797  12.181 -0.4395 -0.4464  1.7275
  134MOL0     H18071   4.687   8.842  12.114 -2.4168  1.3151 -2.0188
  134MOL0     H18072   5.341   9.300  11.953 -0.0480  0.5599 -0.6744
  134MOL0     H18073   5.394   9.375  11.732 -1.7087  0.8592  0.6983
  134MOL0     H18074   5.695   9.333  11.410  1.0466 -1.1027 -1.3636
  134MOL0     H18075   5.794   9.474  11.235  1.0205 -2.6319 -3.1105
  134MOL0     H18076   7.055  10.185  11.067 -2.5474 -0.8100  1.3721
  134MOL0     H18077   7.166   9.972  10.990 -2.1728 -1.7507  0.6552
  134MOL0     H18078   7.277   9.668  10.669 -1.0103  1.3714  0.1511
  134MOL0     H18079   7.374   9.467  10.617  0.1423  0.6821  0.0081
  134MOL0     H18080   7.506   9.345  10.697 -3.0724  1.3494 -0.0531
  134MOL0     H18081   7.528   9.267  10.855 -1.5118 -1.4357  0.4798
  134MOL0     H18082   7.537   9.049  10.751 -0.4613 -0.0475  0.3549
  134MOL0     H18083   7.669   9.147  10.696 -0.4406  1.3020  0.1370
  134MOL0     H18084   7.546   9.205  10.497 -3.7333 -0.0290 -2.3905
  134MOL0     H18085   7.414   9.105  10.533 -0.8226 -0.0159  3.2336
  134MOL0     H18086   7.692   8.975  10.523  1.2473  4.9800  1.3487
  134MOL0     H18087   7.616   9.018  10.366 -2.1096 -0.7856  0.1801
  134MOL0     H18088   7.439   8.650  10.492  0.2411  0.4122  2.5118
  134MOL0     H18089   7.154   9.259  10.926 -2.5470 -1.2499 -2.6008
  134MOL0     H18090   7.013   9.486  10.963 -1.0493  1.0494 -1.1529
  135MOL0     O18091   1.029   3.506   2.050 -0.8169  0.4308 -0.4352
  135MOL0     C18092   0.951   3.593   2.081  0.7062 -0.4936 -0.9584
  135MOL0     O18093   0.819   3.582   2.106  0.3731 -0.3397 -0.6578
  135MOL0     C18094   0.748   3.470   2.063  0.1445  0.2305 -1.0573
  135MOL0     C18095   0.685   3.387   2.152 -0.8817  0.5570 -0.7690
  135MOL0     C18096   0.605   3.280   2.110 -0.2766  0.7135  0.4008
  135MOL0     C18097   0.619   3.232   1.975  0.1930  1.1188 -0.5413
  135MOL0     O18098   0.550   3.118   1.930  0.8772 -0.3905 -0.2965
  135MOL0     C18099   0.477   3.127   1.808  0.3907  0.3336  0.5216
  135MOL0     C18100   0.325   3.135   1.816  0.1479 -0.8811 -0.3463
  135MOL0     C18101   0.278   3.277   1.866  1.2365  0.0148  0.4443
  135MOL0     C18102   0.283   3.392   1.759 -0.8651  0.4555  0.6542
  135MOL0     C18103   0.314   3.528   1.824  0.6887  0.3474 -0.4347
  135MOL0     C18104   0.332   3.643   1.720  0.0116 -0.0250  0.6267
  135MOL0     C18105   0.473   3.638   1.651 -0.1601  0.8263 -0.3397
  135MOL0     C18106   0.487   3.744   1.547 -0.3179 -0.4516 -0.1102
  135MOL0     N18107   0.486   3.885   1.596  0.4244  0.2086 -0.5560
  135MOL0     C18108   0.373   3.969   1.620 -0.1490  1.0052  0.0986
  135MOL0     C18109   0.424   4.088   1.649 -0.2644 -0.2288  0.6397
  135MOL0     C18110   0.360   4.229   1.652 -0.4638 -0.2532  0.2758
  135MOL0     C18111   0.278   4.247   1.776  0.2162 -0.5548 -0.4046
  135MOL0     C18112   0.367   4.305   1.898  0.4794 -0.5515 -0.3776
  135MOL0     C18113   0.317   4.282   2.045  0.0349 -1.4078  0.3011
  135MOL0     O18114   0.181   4.321   2.065 -0.5426 -0.0716 -0.6755
  135MOL0     C18115   0.100   4.295   2.173  0.4318 -0.1493  0.5206
  135MOL0     C18116  -0.033   4.319   2.150  0.0286 -0.4938  0.4588
  135MOL0     C18117  -0.128   4.305   2.248 -0.7694  0.0693 -0.3736
  135MOL0     C18118  -0.270   4.328   2.212  1.5894  0.5352  0.1279
  135MOL0     C18119  -0.088   4.255   2.376 -0.8907 -0.7398  0.2115
  135MOL0     C18120  -0.184   4.238   2.495  0.1586 -0.8397 -0.1167
  135MOL0     O18121  -0.294   4.332   2.501 -0.5872  0.6728 -0.9824
  135MOL0     C18122  -0.404   4.285   2.565 -0.2181  1.3649  0.4232
  135MOL0     C18123  -0.456   4.153   2.538 -0.0018  0.1199  0.5528
  135MOL0     C18124  -0.573   4.123   2.583 -0.6203  0.6332 -0.1122
  135MOL0     C18125  -0.642   4.203   2.673 -1.1292 -0.1998 -0.1879
  135MOL0     O18126  -0.763   4.164   2.729 -0.9198  0.5253  0.3560
  135MOL0     C18127  -0.812   4.027   2.708  0.1121  0.1966 -0.4868
  135MOL0     C18128  -0.949   4.014   2.773  0.0885 -0.8094 -0.4217
  135MOL0     C18129  -0.971   4.073   2.912  0.1302  0.2473  0.0528
  135MOL0     C18130  -0.907   3.983   3.034  0.2091 -0.7881 -0.5410
  135MOL0     C18131  -0.975   4.014   3.169  0.4458 -0.2638 -0.4609
  135MOL0     C18132  -0.872   4.064   3.277 -0.9660  0.6875 -0.1924
  135MOL0     C18133  -0.775   3.950   3.333  0.0930 -0.3209  1.4318
  135MOL0     C18134  -0.678   4.017   3.430 -0.1078  0.1956 -0.9063
  135MOL0    Cl18135  -0.765   4.042   3.585 -0.0660  0.3430  0.3072
  135MOL0     C18136  -0.587   4.328   2.706 -1.1597  0.0555  0.3946
  135MOL0     C18137  -0.459   4.359   2.655  1.0804  0.3666  0.1221
  135MOL0     O18138  -0.158   4.149   2.579 -0.7303  0.3170  1.1978
  135MOL0     C18139   0.047   4.224   2.392 -0.4507 -0.6623  0.1515
  135MOL0     C18140   0.145   4.250   2.294  0.0549 -0.1666  0.0532
  135MOL0     N18141   0.562   4.078   1.654 -0.3608 -0.8070  0.4353
  135MOL0     N18142   0.593   3.956   1.629  0.6059 -0.6033  0.0938
  135MOL0     C18143   0.687   3.312   1.886  0.4513  0.4106 -0.1167
  135MOL0     C18144   0.747   3.431   1.930 -0.3869 -0.5565  0.0294
  135MOL0     C18145   1.018   3.718   2.120  0.2565 -0.1052  0.6468
  135MOL0     C18146   1.155   3.734   2.156 -0.3242  0.2921 -1.1071
  135MOL0     C18147   1.201   3.866   2.190 -0.2756 -0.7430 -0.8007
  135MOL0     C18148   1.120   3.978   2.187  0.0459 -0.2333  0.3146
  135MOL0     O18149   1.164   4.102   2.198 -0.0889 -0.2668  0.5475
  135MOL0     C18150   1.269   4.128   2.287 -0.2471  0.4054  0.3688
  135MOL0     C18151   1.276   4.277   2.303 -0.2123  0.5392  0.3016
  135MOL0     C18152   1.147   4.331   2.372 -0.5751  0.1667  0.4625
  135MOL0     C18153   1.174   4.472   2.433  0.0316  0.1697  0.5177
  135MOL0     C18154   1.047   4.543   2.457  0.3242  0.1802  0.3549
  135MOL0     C18155   0.954   4.623   2.473 -0.3527 -0.5453  0.1973
  135MOL0     C18156   0.991   3.969   2.148 -0.0419 -0.1900  0.1946
  135MOL0     C18157   0.935   3.835   2.120  0.4743  0.0484  1.0888
  135MOL0     H18158   0.667   3.421   2.253 -2.4374 -1.7226 -0.1938
  135MOL0     H18159   0.537   3.222   2.172  1.2398 -1.7379 -0.0695
  135MOL0     H18160   0.523   3.204   1.746  1.9353  0.5665  1.8892
  135MOL0     H18161   0.485   3.034   1.751  0.9238  0.1785  0.8486
  135MOL0     H18162   0.277   3.100   1.725 -0.4848 -0.2753 -0.2495
  135MOL0     H18163   0.294   3.071   1.899  0.4516  0.1519  0.5826
  135MOL0     H18164   0.177   3.270   1.908  2.0873  0.1514  2.6233
  135MOL0     H18165   0.339   3.303   1.952  0.4083  0.6041  0.8623
  135MOL0     H18166   0.368   3.384   1.690  0.0572 -0.8874  1.8882
  135MOL0     H18167   0.194   3.394   1.696  0.9977  0.2128 -2.2271
  135MOL0     H18168   0.226   3.549   1.886  1.1631 -0.3645  0.4917
  135MOL0     H18169   0.399   3.511   1.890 -0.1819 -2.4411  0.1451
  135MOL0     H18170   0.259   3.631   1.639  1.7496 -0.1000 -0.9942
  135MOL0     H18171   0.331   3.738   1.774  0.9141 -0.5866  1.6598
  135MOL0     H18172   0.551   3.639   1.728  0.5635 -0.8094 -1.0134
  135MOL0     H18173   0.494   3.539   1.610  2.7666  0.2628  2.0884
  135MOL0     H18174   0.414   3.719   1.471  0.2557  0.7164 -1.0880
  135MOL0     H18175   0.588   3.737   1.505  0.0336  2.3353  0.0524
  135MOL0     H18176   0.265   3.955   1.615 -0.0575 -0.8217  2.1534
  135MOL0     H18177   0.438   4.306   1.657 -1.4373  0.7117  1.3297
  135MOL0     H18178   0.290   4.229   1.568  2.3483 -2.7445 -2.2741
  135MOL0     H18179   0.221   4.157   1.800  0.7980 -0.7262  0.3877
  135MOL0     H18180   0.199   4.318   1.751  2.0181  0.7776 -2.8358
  135MOL0     H18181   0.356   4.414   1.889 -1.6307 -0.7206 -0.3509
  135MOL0     H18182   0.468   4.266   1.884  0.7635 -0.1530  0.4539
  135MOL0     H18183   0.389   4.331   2.111  1.7164  0.2959 -2.5941
  135MOL0     H18184   0.327   4.175   2.062  2.1874 -1.2460  0.3197
  135MOL0     H18185  -0.061   4.348   2.049 -1.2576 -0.3568  0.8329
  135MOL0     H18186  -0.320   4.389   2.289 -1.1933 -0.0873 -1.0406
  135MOL0     H18187  -0.270   4.367   2.110  1.9311 -3.8371 -1.7674
  135MOL0     H18188  -0.316   4.228   2.208  1.0011  0.6877  2.0580
  135MOL0     H18189  -0.410   4.087   2.465  0.6449  2.1347 -0.9631
  135MOL0     H18190  -0.613   4.023   2.568  0.1322 -0.0569  2.0399
  135MOL0     H18191  -0.816   4.011   2.600 -1.1219  1.2363 -0.6212
  135MOL0     H18192  -0.746   3.956   2.759  0.9496 -0.7686 -2.8183
  135MOL0     H18193  -1.027   4.053   2.708 -0.2374 -0.9789 -0.1358
  135MOL0     H18194  -0.976   3.909   2.792 -1.2086 -0.5566 -0.7621
  135MOL0     H18195  -1.079   4.073   2.928  0.2072 -1.5842  0.8515
  135MOL0     H18196  -0.928   4.173   2.904 -0.7831  0.7583  1.2944
  135MOL0     H18197  -0.920   3.874   3.028  0.6109 -0.8571 -0.2468
  135MOL0     H18198  -0.800   4.005   3.043  0.5618 -3.0026  1.8922
  135MOL0     H18199  -1.019   3.917   3.196 -0.1899  0.5797  1.6773
  135MOL0     H18200  -1.061   4.081   3.173 -0.1160 -0.9825  3.9250
  135MOL0     H18201  -0.822   4.150   3.232  0.9857  1.1145  2.5283
  135MOL0     H18202  -0.935   4.093   3.362 -0.0466  1.9786  0.0678
  135MOL0     H18203  -0.733   3.888   3.252  2.6209 -1.5405  3.5373
  135MOL0     H18204  -0.843   3.879   3.380 -1.8286 -0.4338 -1.2855
  135MOL0     H18205  -0.645   4.111   3.384  2.4650 -0.4750 -0.6079
  135MOL0     H18206  -0.589   3.958   3.452  0.1958 -0.5687 -3.7746
  135MOL0     H18207  -0.642   4.391   2.775  3.7614  2.8256  2.2578
  135MOL0     H18208  -0.420   4.458   2.677 -2.4553  1.9041  0.1847
  135MOL0     H18209   0.088   4.177   2.481  4.6349  1.7886 -0.5421
  135MOL0     H18210   0.247   4.229   2.325 -0.0506  1.4494  1.6951
  135MOL0     H18211   0.718   3.274   1.789 -0.4351 -1.9586  0.4507
  135MOL0     H18212   0.807   3.488   1.861 -3.1354  2.3366 -0.1958
  135MOL0     H18213   1.223   3.649   2.153 -1.6663 -0.9852  1.4202
  135MOL0     H18214   1.309   3.877   2.193 -0.6019  4.8321  0.5349
  135MOL0     H18215   1.262   4.076   2.383 -0.0854  0.7869  0.5863
  135MOL0     H18216   1.363   4.099   2.239 -1.1390 -0.5293 -0.9011
  135MOL0     H18217   1.281   4.330   2.207 -3.1738 -0.9298 -0.7814
  135MOL0     H18218   1.368   4.290   2.361  1.3835 -2.6098 -1.2597
  135MOL0     H18219   1.108   4.256   2.442 -0.6429 -0.5788 -0.3593
  135MOL0     H18220   1.074   4.336   2.291 -0.8652  0.6014  0.7446
  135MOL0     H18221   1.226   4.533   2.358  0.6731 -0.3318  0.5483
  135MOL0     H18222   1.241   4.474   2.519  1.5876  0.0454 -0.6396
  135MOL0     H18223   0.874   4.691   2.493  2.4571  2.8638  0.8242
  135MOL0     H18224   0.926   4.055   2.143  0.9959  0.6220  0.4897
  135MOL0     H18225   0.831   3.827   2.090  0.5077 -0.2641  1.0550
  136MOL0     O18226   3.241   9.649   1.021 -0.0046  0.2864 -0.6419
  136MOL0     C18227   3.315   9.631   0.928  0.7051  1.2419  0.8676
  136MOL0     O18228   3.268   9.580   0.807 -1.1571 -0.0645  0.0756
  136MOL0     C18229   3.131   9.543   0.791 -0.0180 -0.5139 -0.7651
  136MOL0     C18230   3.045   9.643   0.762  0.2489  0.6185  0.5338
  136MOL0     C18231   2.905   9.616   0.740 -0.1651 -0.7960  0.1470
  136MOL0     C18232   2.866   9.487   0.763 -0.1870  0.0477 -0.9487
  136MOL0     O18233   2.736   9.436   0.745 -0.7013  0.2182  0.1495
  136MOL0     C18234   2.637   9.514   0.680  1.1964  0.2486  0.1104
  136MOL0     C18235   2.672   9.551   0.538 -0.0041 -0.5481 -0.1363
  136MOL0     C18236   2.678   9.439   0.426  0.2585 -0.2042  0.3488
  136MOL0     C18237   2.615   9.309   0.481 -0.5363  0.3770  0.2981
  136MOL0     C18238   2.607   9.212   0.365 -0.7826 -0.1240  0.8685
  136MOL0     C18239   2.562   9.076   0.413 -0.3873  0.1086  0.0923
  136MOL0     C18240   2.566   8.978   0.297  0.0704 -0.0256 -1.0818
  136MOL0     C18241   2.503   8.839   0.333  0.2983  0.1690  0.3487
  136MOL0     N18242   2.360   8.845   0.344  0.4264  0.6919 -0.1194
  136MOL0     C18243   2.274   8.772   0.268 -0.0395  0.5141 -0.3322
  136MOL0     C18244   2.156   8.806   0.307 -0.1440 -0.3969  0.1608
  136MOL0     C18245   2.020   8.754   0.256  0.0952  0.0160 -0.2348
  136MOL0     C18246   1.999   8.604   0.293  0.8796 -0.2405  0.3045
  136MOL0     C18247   1.884   8.540   0.214  0.0602  0.5752  0.2006
  136MOL0     C18248   1.862   8.392   0.240  0.7093 -0.2761 -0.7711
  136MOL0     O18249   1.812   8.374   0.375 -0.2813  0.8705  0.2930
  136MOL0     C18250   1.676   8.370   0.400 -0.5350  0.2744 -1.1490
  136MOL0     C18251   1.581   8.290   0.334 -0.2291 -0.2473 -0.4455
  136MOL0     C18252   1.450   8.276   0.377 -0.1045  0.2013  0.2844
  136MOL0     C18253   1.367   8.175   0.297  0.0696 -0.6837 -0.8260
  136MOL0     C18254   1.404   8.351   0.488  0.4764  0.0429 -0.6353
  136MOL0     C18255   1.266   8.339   0.532  0.2888  1.3117 -0.7239
  136MOL0     O18256   1.198   8.215   0.533 -0.5968  0.2637  0.1139
  136MOL0     C18257   1.068   8.215   0.560  0.0671  0.1749  0.3369
  136MOL0     C18258   1.022   8.187   0.697  1.1525  0.5255  0.4276
  136MOL0     C18259   0.888   8.180   0.720  0.6326  0.7446  0.5681
  136MOL0     C18260   0.797   8.222   0.620 -0.2593 -0.7956  0.5296
  136MOL0     O18261   0.667   8.212   0.620  0.2446 -0.6410 -0.6827
  136MOL0     C18262   0.595   8.209   0.739 -0.4081  0.3196  0.4728
  136MOL0     C18263   0.457   8.254   0.706 -1.6019 -0.3637 -0.6154
  136MOL0     C18264   0.364   8.176   0.611  0.1656  0.7468 -0.3170
  136MOL0     C18265   0.276   8.280   0.534  0.1566 -0.2663 -0.4393
  136MOL0     C18266   0.361   8.370   0.443 -0.4252 -0.0615 -0.5131
  136MOL0     C18267   0.460   8.298   0.353 -0.1656  0.1964  0.4574
  136MOL0     C18268   0.517   8.397   0.253 -0.0196 -0.4137  0.2514
  136MOL0     C18269   0.547   8.328   0.117 -0.4290  0.6802 -0.2155
  136MOL0    Cl18270   0.673   8.203   0.141  0.1006  0.3528  0.3218
  136MOL0     C18271   0.832   8.271   0.490  0.4451 -0.4972 -0.2043
  136MOL0     C18272   0.965   8.252   0.461 -0.6827 -0.4980 -0.8002
  136MOL0     O18273   1.216   8.446   0.554 -0.1526  0.0481 -0.4790
  136MOL0     C18274   1.498   8.442   0.550  0.8566  0.0821  0.2890
  136MOL0     C18275   1.629   8.444   0.512 -0.0678  0.6636 -0.7723
  136MOL0     N18276   2.163   8.883   0.412 -0.2850 -1.0252  0.2586
  136MOL0     N18277   2.286   8.905   0.433  0.5692 -0.2286 -0.0309
  136MOL0     C18278   2.962   9.385   0.800  0.6058 -0.5594 -0.7575
  136MOL0     C18279   3.097   9.415   0.800  0.3656 -0.8338 -0.1545
  136MOL0     C18280   3.456   9.659   0.951 -0.3446 -0.1580  0.3048
  136MOL0     C18281   3.549   9.653   0.838  0.5023  0.0632 -0.7695
  136MOL0     C18282   3.685   9.654   0.860  0.4032  0.2859 -0.4411
  136MOL0     C18283   3.738   9.660   0.986  0.0776  0.2782  0.2417
  136MOL0     O18284   3.873   9.657   1.023 -0.2215  0.2532 -0.7455
  136MOL0     C18285   3.952   9.599   0.923 -0.5539  0.5744 -0.1710
  136MOL0     C18286   4.088   9.592   0.988  0.1675  0.3723  0.3883
  136MOL0     C18287   4.086   9.531   1.131 -0.1333 -0.3724  0.0766
  136MOL0     C18288   4.218   9.521   1.209  0.1602  0.2914 -0.4239
  136MOL0     C18289   4.242   9.619   1.315 -0.1701  0.7141 -0.4755
  136MOL0     C18290   4.253   9.691   1.413 -0.2821 -0.2302  0.4342
  136MOL0     C18291   3.649   9.676   1.092  0.5406 -0.2449 -0.0130
  136MOL0     C18292   3.513   9.669   1.076 -0.4524 -0.4879  0.0098
  136MOL0     H18293   3.074   9.748   0.752 -0.0103  0.8101  1.7178
  136MOL0     H18294   2.837   9.699   0.724  0.4587 -0.0308  1.2853
  136MOL0     H18295   2.539   9.468   0.680  0.6068  1.3587 -2.2572
  136MOL0     H18296   2.637   9.610   0.733 -4.9890  1.6928 -1.6959
  136MOL0     H18297   2.593   9.622   0.509 -2.2847 -2.4130  1.1574
  136MOL0     H18298   2.764   9.611   0.537  0.8894 -1.8771 -0.3440
  136MOL0     H18299   2.630   9.476   0.335 -1.6689 -1.6343  0.7020
  136MOL0     H18300   2.785   9.421   0.410  0.1691  0.6837 -1.3971
  136MOL0     H18301   2.685   9.268   0.555  1.9742  3.4140 -0.1801
  136MOL0     H18302   2.515   9.332   0.519 -0.6223  0.2599  0.1427
  136MOL0     H18303   2.554   9.258   0.280  1.1600 -0.2256 -0.4648
  136MOL0     H18304   2.706   9.199   0.320 -0.6445 -2.1087  1.6156
  136MOL0     H18305   2.627   9.034   0.491 -0.2575 -0.5425 -0.3534
  136MOL0     H18306   2.465   9.085   0.463 -0.2626  1.9708  0.0560
  136MOL0     H18307   2.520   9.023   0.209 -1.4894  2.4863  0.8927
  136MOL0     H18308   2.672   8.958   0.277  0.8514  1.7112  0.8853
  136MOL0     H18309   2.552   8.815   0.427 -0.5352  0.4217  0.8528
  136MOL0     H18310   2.528   8.766   0.256  0.2986 -1.3415  1.7413
  136MOL0     H18311   2.301   8.702   0.189 -0.0710 -2.5659  2.1580
  136MOL0     H18312   1.945   8.812   0.310 -0.8387 -0.5068 -0.9435
  136MOL0     H18313   2.010   8.771   0.149  2.1401 -1.0023 -0.6476
  136MOL0     H18314   1.996   8.587   0.401  1.9433  0.3964  0.4498
  136MOL0     H18315   2.087   8.549   0.258  0.4704 -1.3463  0.9516
  136MOL0     H18316   1.903   8.545   0.106  0.8172 -1.8031  0.1573
  136MOL0     H18317   1.789   8.586   0.242 -0.6645 -2.5068  3.7332
  136MOL0     H18318   1.962   8.347   0.240  0.9095  0.0050  2.2217
  136MOL0     H18319   1.792   8.357   0.163 -1.7911 -1.0324  1.7005
  136MOL0     H18320   1.609   8.232   0.247  2.7403 -0.9088  0.8351
  136MOL0     H18321   1.346   8.093   0.366 -1.0803  0.7807  0.6202
  136MOL0     H18322   1.271   8.210   0.258  0.3511 -0.2583 -1.1455
  136MOL0     H18323   1.426   8.141   0.211 -0.5334  0.7236 -1.8396
  136MOL0     H18324   1.089   8.175   0.782  2.0035 -1.1406 -0.4184
  136MOL0     H18325   0.850   8.146   0.816 -0.0333  0.5065  0.2235
  136MOL0     H18326   0.585   8.102   0.760  0.0523  0.1388 -0.1789
  136MOL0     H18327   0.638   8.259   0.826 -0.1605  0.5763  0.2040
  136MOL0     H18328   0.396   8.254   0.796 -0.2380  1.3924  0.3708
  136MOL0     H18329   0.470   8.357   0.672 -0.1888 -0.0097  0.8830
  136MOL0     H18330   0.299   8.107   0.664  0.0441  3.4611  3.5085
  136MOL0     H18331   0.426   8.130   0.534 -2.4019 -3.9370  0.0632
  136MOL0     H18332   0.211   8.226   0.465  2.0454 -0.3810 -2.2495
  136MOL0     H18333   0.224   8.346   0.604 -0.1836 -2.1253  1.1580
  136MOL0     H18334   0.408   8.452   0.498 -1.7586 -0.0644  0.7007
  136MOL0     H18335   0.286   8.416   0.378 -0.4306 -1.0247 -1.2224
  136MOL0     H18336   0.539   8.249   0.411 -1.8096 -2.6847  0.4593
  136MOL0     H18337   0.414   8.215   0.298  0.3706 -1.1081  1.8830
  136MOL0     H18338   0.603   8.447   0.298  0.4716 -0.3076 -0.7786
  136MOL0     H18339   0.443   8.475   0.234  1.2411  0.8243  0.2500
  136MOL0     H18340   0.559   8.398   0.034 -2.0398 -3.0538 -3.9671
  136MOL0     H18341   0.451   8.280   0.094 -1.5300  2.2081  0.9520
  136MOL0     H18342   0.763   8.306   0.415  1.0801 -0.4283 -0.7657
  136MOL0     H18343   0.998   8.289   0.364  0.2984  1.7825  0.3207
  136MOL0     H18344   1.467   8.499   0.636  0.1013  1.6339 -0.9578
  136MOL0     H18345   1.690   8.506   0.578  0.3315 -0.3023 -0.1920
  136MOL0     H18346   2.917   9.286   0.805  1.5690 -1.0955 -2.1002
  136MOL0     H18347   3.178   9.343   0.806  1.1539  0.1520  3.7725
  136MOL0     H18348   3.501   9.637   0.742  0.0378 -0.0462 -0.5249
  136MOL0     H18349   3.746   9.647   0.771  1.5079  2.4823  0.0746
  136MOL0     H18350   3.923   9.500   0.888 -0.0831 -0.0845  1.2273
  136MOL0     H18351   3.954   9.659   0.832 -1.4871 -1.9263 -1.9230
  136MOL0     H18352   4.141   9.687   0.997  0.9574  0.1701 -1.5206
  136MOL0     H18353   4.146   9.526   0.922 -0.7743 -0.3367  0.2487
  136MOL0     H18354   4.058   9.426   1.116 -0.7542 -0.1990 -0.0074
  136MOL0     H18355   4.015   9.586   1.193  0.3480  0.5656 -0.1930
  136MOL0     H18356   4.307   9.522   1.145  0.5577 -1.5621  0.0363
  136MOL0     H18357   4.225   9.422   1.257  0.9607  0.8135  0.5963
  136MOL0     H18358   4.246   9.760   1.494 -1.7468 -0.0370  0.1719
  136MOL0     H18359   3.685   9.679   1.195  1.0029 -1.9957 -0.0875
  136MOL0     H18360   3.434   9.678   1.149 -1.4345 -1.0585 -0.9519
  137MOL0     O18361   1.372   3.167   8.175  0.3833  0.2263  0.1239
  137MOL0     C18362   1.493   3.183   8.198  0.2218  0.2997  0.5292
  137MOL0     O18363   1.544   3.196   8.323 -0.4540  0.5372 -0.4028
  137MOL0     C18364   1.447   3.195   8.414  1.3668  1.8561 -0.7071
  137MOL0     C18365   1.440   3.084   8.502  0.3214  0.2721 -0.7448
  137MOL0     C18366   1.360   3.089   8.616 -0.0073  0.0075 -0.6917
  137MOL0     C18367   1.287   3.197   8.655  0.7542 -0.7804  0.2999
  137MOL0     O18368   1.192   3.200   8.749  0.2011 -0.0520 -0.9613
  137MOL0     C18369   1.230   3.121   8.868  0.2882  0.1518 -0.2590
  137MOL0     C18370   1.170   3.160   9.008 -0.2312  0.6364  1.1453
  137MOL0     C18371   1.214   3.302   9.057 -0.5644  0.3560 -0.4828
  137MOL0     C18372   1.158   3.336   9.198  0.6428 -0.0687 -0.7745
  137MOL0     C18373   1.231   3.455   9.263  0.4268 -0.8211  0.0180
  137MOL0     C18374   1.218   3.583   9.177  0.1487  0.3062  0.0950
  137MOL0     C18375   1.246   3.701   9.260  0.4221 -0.2870 -0.0713
  137MOL0     C18376   1.263   3.838   9.195  0.1486 -0.3146  0.0952
  137MOL0     N18377   1.144   3.870   9.107 -0.3680  0.1874  0.1937
  137MOL0     C18378   1.022   3.880   9.153 -0.0055  0.1152 -0.4075
  137MOL0     C18379   0.961   3.952   9.063  0.3249  0.2784 -0.9365
  137MOL0     C18380   0.817   4.000   9.070 -0.2992  0.2413 -0.2290
  137MOL0     C18381   0.789   4.130   8.997 -0.0578  0.5955  0.1996
  137MOL0     C18382   0.647   4.185   9.013  1.2198 -0.1216 -0.3124
  137MOL0     C18383   0.540   4.082   8.963 -0.4759 -0.2759  0.2674
  137MOL0     O18384   0.407   4.125   8.996  0.0750 -0.4068 -1.1798
  137MOL0     C18385   0.303   4.031   9.005  0.4172 -1.0264 -0.2252
  137MOL0     C18386   0.168   4.081   8.996 -0.0758  0.6238  0.2337
  137MOL0     C18387   0.061   3.993   8.988 -0.4888 -0.7944  0.2157
  137MOL0     C18388  -0.075   4.040   8.939 -1.2268  0.6907  0.3590
  137MOL0     C18389   0.077   3.862   9.024 -1.4936 -0.6858 -1.0728
  137MOL0     C18390  -0.029   3.764   9.034 -0.3259 -0.6145  0.5193
  137MOL0     O18391  -0.053   3.673   8.934  0.6867 -0.0677  0.2854
  137MOL0     C18392  -0.161   3.595   8.946  0.7281  0.5663 -0.0991
  137MOL0     C18393  -0.295   3.649   8.968 -0.3100  0.2288  0.1249
  137MOL0     C18394  -0.403   3.560   8.976 -0.2437 -0.1229 -0.4511
  137MOL0     C18395  -0.383   3.419   8.952  0.9120  0.6276  0.1370
  137MOL0     O18396  -0.493   3.335   8.964  0.4255  0.4411 -0.3443
  137MOL0     C18397  -0.469   3.194   8.961 -0.0635 -0.1360  0.0561
  137MOL0     C18398  -0.454   3.120   8.823  0.3720  0.2416  0.5063
  137MOL0     C18399  -0.589   3.124   8.737  0.3317 -0.4563  0.3491
  137MOL0     C18400  -0.701   3.033   8.795  0.0914 -0.1869 -0.1347
  137MOL0     C18401  -0.791   2.977   8.676  0.3127 -0.6783 -0.5012
  137MOL0     C18402  -0.825   3.088   8.580  0.7553  0.7426  0.2140
  137MOL0     C18403  -0.954   3.059   8.498  0.1561  0.1375  0.0920
  137MOL0     C18404  -0.976   3.174   8.404  0.1556  0.1791  1.0143
  137MOL0    Cl18405  -1.128   3.163   8.311  0.1561 -0.1802 -0.2497
  137MOL0     C18406  -0.252   3.371   8.932  0.6993 -1.3357 -0.1387
  137MOL0     C18407  -0.142   3.456   8.942  0.1194 -0.1419 -0.1268
  137MOL0     O18408  -0.089   3.764   9.138  0.5081 -0.3855 -0.3428
  137MOL0     C18409   0.210   3.814   9.046  0.3517  0.5367  0.9635
  137MOL0     C18410   0.320   3.897   9.030 -0.0487 -0.0730 -1.0127
  137MOL0     N18411   1.042   3.984   8.959 -0.1716  0.0205  0.3237
  137MOL0     N18412   1.155   3.928   8.978  0.3099 -0.4225 -0.6098
  137MOL0     C18413   1.298   3.312   8.567  0.0297 -0.4356 -0.7807
  137MOL0     C18414   1.376   3.309   8.443 -0.0662 -0.0282  0.0139
  137MOL0     C18415   1.587   3.204   8.077 -0.0306  0.1243 -0.3889
  137MOL0     C18416   1.542   3.171   7.951  0.5434  0.2206  0.1197
  137MOL0     C18417   1.627   3.201   7.841  0.0288  0.1403  0.9296
  137MOL0     C18418   1.751   3.255   7.870 -0.0717 -0.2187 -0.4191
  137MOL0     O18419   1.839   3.265   7.769  0.5059 -0.2491 -0.1655
  137MOL0     C18420   1.889   3.395   7.745 -0.1285  0.2755 -0.1184
  137MOL0     C18421   1.790   3.495   7.677  0.2224 -0.2542  0.4762
  137MOL0     C18422   1.732   3.472   7.538 -0.9254  0.4708  0.5102
  137MOL0     C18423   1.598   3.550   7.523 -0.4508 -0.2850  0.1500
  137MOL0     C18424   1.486   3.482   7.589  0.1250 -0.5609  0.1547
  137MOL0     C18425   1.386   3.439   7.645 -0.2481  0.4121  0.4514
  137MOL0     C18426   1.803   3.265   7.998  0.1751  0.8541 -0.1133
  137MOL0     C18427   1.721   3.241   8.104 -0.0834  0.7905  0.0838
  137MOL0     H18428   1.501   2.996   8.482  2.7819  1.8093 -0.4092
  137MOL0     H18429   1.349   2.998   8.675  1.8034  0.2365  0.0621
  137MOL0     H18430   1.183   3.024   8.848 -0.9598  0.7893 -0.4849
  137MOL0     H18431   1.339   3.122   8.871  0.4337  0.6221  5.4301
  137MOL0     H18432   1.062   3.155   8.997  0.0307 -1.3303 -1.2503
  137MOL0     H18433   1.206   3.088   9.082  2.2125  0.5083 -0.0738
  137MOL0     H18434   1.323   3.311   9.063 -0.7092  1.1086  2.6970
  137MOL0     H18435   1.176   3.382   8.992  0.7105  3.8547  2.7357
  137MOL0     H18436   1.049   3.340   9.201  0.6372 -0.1391  2.2861
  137MOL0     H18437   1.194   3.249   9.255  0.1734 -0.2921 -0.8170
  137MOL0     H18438   1.198   3.475   9.365  0.8847  2.2142 -0.3327
  137MOL0     H18439   1.334   3.420   9.275 -0.2024 -2.7854  0.1182
  137MOL0     H18440   1.275   3.572   9.085 -3.4714  0.8702 -2.4111
  137MOL0     H18441   1.110   3.585   9.161 -0.4597 -3.8287  2.1304
  137MOL0     H18442   1.160   3.703   9.329  1.4467  0.2384  1.2231
  137MOL0     H18443   1.343   3.694   9.308  0.9068  1.8553 -0.6547
  137MOL0     H18444   1.363   3.843   9.151  0.7885 -1.0386  1.4138
  137MOL0     H18445   1.275   3.903   9.282  3.1260 -0.1279 -0.3657
  137MOL0     H18446   0.991   3.849   9.252  0.7132  1.8794  0.4178
  137MOL0     H18447   0.756   3.913   9.044 -0.7071  0.2661  0.6168
  137MOL0     H18448   0.793   4.012   9.175 -0.8177  2.1558 -0.5352
  137MOL0     H18449   0.824   4.118   8.894  0.7319 -1.5140  0.6540
  137MOL0     H18450   0.858   4.204   9.037 -2.3255  2.1871  1.4199
  137MOL0     H18451   0.644   4.281   8.959 -0.5794  0.3889  0.5961
  137MOL0     H18452   0.617   4.205   9.117  3.4957 -0.0929  0.3967
  137MOL0     H18453   0.559   3.982   9.004  0.5520 -0.6805 -1.1253
  137MOL0     H18454   0.545   4.078   8.854 -1.0138  0.9159  0.1891
  137MOL0     H18455   0.143   4.181   8.963 -3.8830 -0.5921 -1.0596
  137MOL0     H18456  -0.103   3.974   8.856  2.0309 -0.8046  0.3195
  137MOL0     H18457  -0.151   4.037   9.017 -0.4938  2.9222  1.2388
  137MOL0     H18458  -0.061   4.146   8.917  1.1867  1.0491  3.1169
  137MOL0     H18459  -0.307   3.757   8.959 -1.5534  0.0557 -0.5084
  137MOL0     H18460  -0.504   3.598   8.989 -0.2908 -0.5800  0.5370
  137MOL0     H18461  -0.380   3.163   9.017 -0.7221 -2.0140  0.1450
  137MOL0     H18462  -0.551   3.159   9.024 -0.7305  1.5824  0.1999
  137MOL0     H18463  -0.374   3.165   8.763 -0.0807 -0.8063 -0.9322
  137MOL0     H18464  -0.430   3.014   8.839 -0.8502  0.0494  1.1260
  137MOL0     H18465  -0.567   3.094   8.634 -1.1334  1.1516 -0.4846
  137MOL0     H18466  -0.628   3.225   8.722 -0.8899 -1.0623 -0.8253
  137MOL0     H18467  -0.667   2.957   8.865 -1.4526 -1.6066 -0.8752
  137MOL0     H18468  -0.757   3.100   8.860 -1.3836 -3.4762  2.2218
  137MOL0     H18469  -0.881   2.948   8.730  0.9462 -0.5732  0.6331
  137MOL0     H18470  -0.745   2.898   8.615  0.2497  0.0243 -1.4819
  137MOL0     H18471  -0.844   3.175   8.643 -2.4390 -0.5540  1.2558
  137MOL0     H18472  -0.751   3.102   8.501 -3.7872 -2.3360 -5.3625
  137MOL0     H18473  -1.026   3.070   8.580  0.5435  1.4337  0.2729
  137MOL0     H18474  -0.953   2.958   8.456 -0.6618 -1.2048  3.0371
  137MOL0     H18475  -0.888   3.177   8.339  0.6093 -1.6606  1.4782
  137MOL0     H18476  -1.001   3.261   8.465 -1.7475 -0.0687  0.6649
  137MOL0     H18477  -0.228   3.270   8.901 -2.9081 -2.4285  0.1685
  137MOL0     H18478  -0.040   3.422   8.951 -0.1064 -0.5940  0.8648
  137MOL0     H18479   0.226   3.706   9.048 -0.1566  0.4699  1.8483
  137MOL0     H18480   0.417   3.849   9.041 -0.2471 -0.8914 -2.6364
  137MOL0     H18481   1.242   3.396   8.606  1.8442 -0.0435  1.2118
  137MOL0     H18482   1.386   3.399   8.385 -0.6591 -0.1911 -0.3496
  137MOL0     H18483   1.444   3.126   7.939  0.8091 -1.1112  2.2849
  137MOL0     H18484   1.591   3.182   7.741  1.9003  0.4527  0.1548
  137MOL0     H18485   1.937   3.444   7.830  2.7889 -2.8807  0.2830
  137MOL0     H18486   1.971   3.382   7.673 -2.0562  0.8623 -2.5434
  137MOL0     H18487   1.857   3.581   7.668 -0.7641  0.5170  0.4124
  137MOL0     H18488   1.708   3.510   7.748  0.0920  3.7766 -0.3174
  137MOL0     H18489   1.708   3.367   7.519  2.0032 -0.1703 -0.1647
  137MOL0     H18490   1.802   3.509   7.462 -0.3822  2.2524  1.8183
  137MOL0     H18491   1.584   3.567   7.415  1.9918 -0.7409 -0.3106
  137MOL0     H18492   1.607   3.648   7.570  2.1747  1.0877 -2.8078
  137MOL0     H18493   1.301   3.385   7.680  0.1984  0.0298  0.9660
  137MOL0     H18494   1.901   3.307   8.018  0.3506 -0.2061  1.4793
  137MOL0     H18495   1.750   3.254   8.208  3.4388 -1.6512 -0.4090
  138MOL0     O18496   7.653   2.430   5.681  0.5484  0.9561  0.3106
  138MOL0     C18497   7.576   2.401   5.586 -0.2203 -0.4398 -0.3580
  138MOL0     O18498   7.508   2.287   5.579 -0.9588 -0.0370  0.2852
  138MOL0     C18499   7.533   2.191   5.675 -0.1588 -0.3044  1.1516
  138MOL0     C18500   7.435   2.146   5.759  0.1715  0.0216 -0.3243
  138MOL0     C18501   7.455   2.041   5.848 -0.2652  0.9477  0.6594
  138MOL0     C18502   7.570   1.970   5.849 -0.0261 -0.2125 -1.0510
  138MOL0     O18503   7.572   1.869   5.943  0.5927 -0.5003  0.4607
  138MOL0     C18504   7.699   1.797   5.955 -0.5030  0.6224 -0.3638
  138MOL0     C18505   7.780   1.864   6.073  0.3498  0.9270  0.8792
  138MOL0     C18506   7.693   1.863   6.203  0.3872  0.3678  0.0622
  138MOL0     C18507   7.784   1.907   6.323 -0.2078 -0.1603  1.2140
  138MOL0     C18508   7.721   1.930   6.466  0.0210  0.2875  0.0123
  138MOL0     C18509   7.647   2.060   6.473 -0.2582  0.5398 -0.1838
  138MOL0     C18510   7.559   2.069   6.590 -0.1053  0.2781 -0.5353
  138MOL0     C18511   7.425   1.986   6.575  0.5738 -0.1441  0.0017
  138MOL0     N18512   7.315   2.065   6.629  0.1031  0.4734 -0.4691
  138MOL0     C18513   7.256   2.168   6.567  0.3668  0.5069  0.6511
  138MOL0     C18514   7.190   2.238   6.656  0.2018  0.1312 -0.3775
  138MOL0     C18515   7.124   2.375   6.625  0.2173  0.2491 -0.5356
  138MOL0     C18516   7.046   2.374   6.487 -0.2350 -0.1955  0.2654
  138MOL0     C18517   6.949   2.494   6.458 -0.9261  0.3147 -1.6466
  138MOL0     C18518   6.864   2.462   6.331 -0.6717 -0.1086  0.2410
  138MOL0     O18519   6.756   2.553   6.314  0.8582 -0.8430  0.7063
  138MOL0     C18520   6.738   2.594   6.182 -0.1170  0.1037  0.4245
  138MOL0     C18521   6.837   2.635   6.099 -0.8695 -0.0253  0.6437
  138MOL0     C18522   6.821   2.674   5.961 -0.2938 -0.3125 -0.2950
  138MOL0     C18523   6.942   2.735   5.895 -0.8373 -0.0334  0.7484
  138MOL0     C18524   6.693   2.650   5.901 -0.0258 -0.2606 -0.0315
  138MOL0     C18525   6.661   2.680   5.762  0.2158  0.2020  0.1999
  138MOL0     O18526   6.535   2.633   5.721  0.2444  0.1241 -0.6725
  138MOL0     C18527   6.510   2.628   5.587 -0.5540 -0.9254 -0.1268
  138MOL0     C18528   6.505   2.504   5.528  0.1421  0.3479 -0.8337
  138MOL0     C18529   6.464   2.502   5.393  0.1001  0.1899  0.5271
  138MOL0     C18530   6.438   2.620   5.320  0.8461 -0.4524 -0.5561
  138MOL0     O18531   6.410   2.623   5.190  0.2089 -0.6480  0.5979
  138MOL0     C18532   6.409   2.496   5.126  0.1594  0.2892 -0.1230
  138MOL0     C18533   6.381   2.522   4.978 -0.9494  0.4847  0.6892
  138MOL0     C18534   6.479   2.628   4.904  0.1621  0.7622  0.7391
  138MOL0     C18535   6.609   2.552   4.848 -0.1710  0.0392 -0.5420
  138MOL0     C18536   6.698   2.655   4.768  0.3441  0.2852  0.7982
  138MOL0     C18537   6.792   2.586   4.676  0.5885 -0.4162 -0.6816
  138MOL0     C18538   6.885   2.473   4.734  0.4915  0.0568  0.8233
  138MOL0     C18539   6.999   2.419   4.654 -0.9527 -0.6144  0.1079
  138MOL0    Cl18540   7.129   2.535   4.631  0.2582 -0.5402  0.3373
  138MOL0     C18541   6.439   2.744   5.382  0.1165 -0.0138 -0.0322
  138MOL0     C18542   6.481   2.746   5.511  0.3277  0.1947 -0.8978
  138MOL0     O18543   6.742   2.724   5.682  0.0172  0.3453  0.1506
  138MOL0     C18544   6.596   2.590   5.988 -0.2217  0.3023 -0.4943
  138MOL0     C18545   6.614   2.576   6.128  0.6939  0.3531 -1.2920
  138MOL0     N18546   7.206   2.183   6.778 -0.1161 -0.2355 -0.5024
  138MOL0     N18547   7.277   2.076   6.761 -0.0402 -0.3166 -0.3196
  138MOL0     C18548   7.676   2.010   5.758 -0.4731  0.6717  0.3327
  138MOL0     C18549   7.655   2.127   5.674  0.7307 -0.4953 -0.2967
  138MOL0     C18550   7.547   2.524   5.501 -0.2919 -0.2152 -0.1061
  138MOL0     C18551   7.449   2.512   5.401 -0.0910  0.1398 -1.0619
  138MOL0     C18552   7.417   2.620   5.317 -0.2456  0.1090  1.5965
  138MOL0     C18553   7.471   2.754   5.340 -0.9063  0.5606 -0.0310
  138MOL0     O18554   7.431   2.848   5.254  0.3549 -0.3868 -0.5311
  138MOL0     C18555   7.469   2.982   5.279 -0.1852 -0.7148  0.0554
  138MOL0     C18556   7.428   3.074   5.157  0.5133 -0.1529 -0.1180
  138MOL0     C18557   7.289   3.139   5.171 -0.6118 -0.9552 -1.0655
  138MOL0     C18558   7.243   3.195   5.029  0.6450  0.5791  0.0793
  138MOL0     C18559   7.128   3.279   5.049 -0.1222 -0.0384 -0.9078
  138MOL0     C18560   7.024   3.337   5.061  0.1915 -0.7836 -0.4130
  138MOL0     C18561   7.560   2.768   5.446  0.0589  0.1963  0.9988
  138MOL0     C18562   7.609   2.651   5.518 -0.0859 -0.0411  0.4690
  138MOL0     H18563   7.342   2.202   5.766 -0.6185 -1.3149  0.0632
  138MOL0     H18564   7.368   2.011   5.906  0.1885 -1.5347  0.1817
  138MOL0     H18565   7.679   1.692   5.977  1.3971  0.2288 -0.3711
  138MOL0     H18566   7.766   1.780   5.870  0.8420 -1.6897  1.0332
  138MOL0     H18567   7.868   1.803   6.093 -0.5271 -0.3958  0.8798
  138MOL0     H18568   7.801   1.960   6.025 -1.2306  0.4805 -0.8265
  138MOL0     H18569   7.599   1.918   6.198 -1.0325 -2.0571 -1.7928
  138MOL0     H18570   7.651   1.766   6.231 -2.7256  0.4877 -3.5222
  138MOL0     H18571   7.867   1.840   6.345  0.1463 -0.2716 -0.3974
  138MOL0     H18572   7.833   2.001   6.297  1.0164 -0.3685  2.6050
  138MOL0     H18573   7.651   1.846   6.474 -1.1357  1.0382 -1.4864
  138MOL0     H18574   7.794   1.932   6.546  0.3385  3.2532 -0.2288
  138MOL0     H18575   7.713   2.147   6.479  0.5335  0.2553 -3.3419
  138MOL0     H18576   7.575   2.072   6.392 -0.0557  0.9253 -0.3092
  138MOL0     H18577   7.616   2.036   6.677  1.5031  1.4727 -1.0927
  138MOL0     H18578   7.535   2.170   6.623  2.0863 -0.7990  5.8191
  138MOL0     H18579   7.438   1.883   6.610  0.2163  0.3599  1.7503
  138MOL0     H18580   7.401   1.976   6.469  0.0149 -2.6011  0.2955
  138MOL0     H18581   7.272   2.206   6.467  1.8766  2.7003  1.6395
  138MOL0     H18582   7.051   2.398   6.703 -1.7319  0.3847 -2.2839
  138MOL0     H18583   7.207   2.446   6.626  1.8692 -1.5679 -1.2382
  138MOL0     H18584   6.976   2.290   6.486 -2.2843  1.4308  0.1533
  138MOL0     H18585   7.121   2.361   6.409  1.4111 -0.9659  1.9248
  138MOL0     H18586   7.002   2.584   6.425  0.8671 -0.7766 -1.8695
  138MOL0     H18587   6.888   2.522   6.544  1.3344  1.1564 -0.2416
  138MOL0     H18588   6.817   2.363   6.334 -2.7280  0.8263  0.2707
  138MOL0     H18589   6.926   2.458   6.241 -2.8718  2.5355 -1.5445
  138MOL0     H18590   6.934   2.644   6.147 -0.5522 -2.2687  0.5035
  138MOL0     H18591   7.030   2.717   5.957  0.9984  0.0810 -1.6730
  138MOL0     H18592   6.953   2.683   5.799 -2.5893 -2.7058  1.8655
  138MOL0     H18593   6.920   2.842   5.890 -1.1893 -0.1517 -0.7589
  138MOL0     H18594   6.503   2.409   5.581 -2.3363  0.5824 -0.3449
  138MOL0     H18595   6.435   2.405   5.353  1.8309 -0.0401 -0.2509
  138MOL0     H18596   6.503   2.446   5.149  0.6985  0.1599 -2.4412
  138MOL0     H18597   6.325   2.437   5.166 -1.8836  1.8806 -1.8497
  138MOL0     H18598   6.376   2.424   4.929 -0.7387  0.4319  0.7754
  138MOL0     H18599   6.285   2.576   4.981 -0.1160  2.3835 -2.5044
  138MOL0     H18600   6.520   2.706   4.968 -0.8675  2.0329 -0.0812
  138MOL0     H18601   6.416   2.664   4.822  1.6356  0.1665 -0.7101
  138MOL0     H18602   6.663   2.518   4.937  1.5619  2.5079 -0.5304
  138MOL0     H18603   6.588   2.464   4.788 -1.7914  1.3160 -1.9541
  138MOL0     H18604   6.750   2.720   4.839 -0.8714 -0.3801  2.3536
  138MOL0     H18605   6.631   2.719   4.709 -1.7327 -2.1037  0.4044
  138MOL0     H18606   6.732   2.547   4.593  0.6629 -1.4213 -0.2874
  138MOL0     H18607   6.844   2.668   4.626 -1.8275  1.7592  0.2064
  138MOL0     H18608   6.818   2.390   4.759 -1.8286  1.4126 -0.5279
  138MOL0     H18609   6.918   2.519   4.828  0.8197 -0.1766  0.8238
  138MOL0     H18610   6.953   2.385   4.561 -1.2059  0.0508 -0.0157
  138MOL0     H18611   7.041   2.331   4.703  2.1080 -0.3037 -1.6538
  138MOL0     H18612   6.421   2.825   5.312 -2.0556 -1.3658 -1.1334
  138MOL0     H18613   6.484   2.841   5.564  1.8879 -1.0884  1.5488
  138MOL0     H18614   6.499   2.554   5.953 -0.3355  0.9215 -0.8188
  138MOL0     H18615   6.541   2.529   6.192  0.2338  2.4942 -0.1574
  138MOL0     H18616   7.769   1.953   5.753  0.4736  1.8537  2.6066
  138MOL0     H18617   7.725   2.168   5.602  0.6250  1.2501  0.5668
  138MOL0     H18618   7.401   2.419   5.375 -0.8850  0.9830 -2.7783
  138MOL0     H18619   7.356   2.590   5.232 -0.1881 -3.6838  2.6847
  138MOL0     H18620   7.419   3.007   5.373 -1.2178 -2.9853  0.1784
  138MOL0     H18621   7.577   2.989   5.292  0.0599 -0.5138 -1.8247
  138MOL0     H18622   7.425   3.011   5.068  2.0490 -0.1281 -0.2147
  138MOL0     H18623   7.505   3.153   5.154 -1.2176  1.7171  1.5331
  138MOL0     H18624   7.296   3.227   5.234 -0.1449 -0.3731 -1.9106
  138MOL0     H18625   7.213   3.070   5.208 -0.2146 -0.4894  0.7085
  138MOL0     H18626   7.217   3.106   4.972 -3.3053  1.0991  0.7936
  138MOL0     H18627   7.325   3.244   4.975 -1.4107  1.6592 -2.2220
  138MOL0     H18628   6.939   3.398   5.079 -0.1736 -1.2152 -0.6579
  138MOL0     H18629   7.607   2.863   5.473  1.5328 -0.1459 -0.2102
  138MOL0     H18630   7.676   2.674   5.600  1.5848  4.4101 -1.7721
  139MOL0     O18631  10.513   5.707   4.980  0.5121 -0.5880 -0.0461
  139MOL0     C18632  10.423   5.657   5.043 -0.3745  0.6812 -0.3216
  139MOL0     O18633  10.322   5.575   4.991  1.5593  0.0308  0.3579
  139MOL0     C18634  10.318   5.519   4.861 -0.3473 -0.7459  0.1020
  139MOL0     C18635  10.191   5.469   4.831  0.0911 -0.2206  1.2647
  139MOL0     C18636  10.175   5.411   4.710 -0.3352 -0.0161  0.4982
  139MOL0     C18637  10.279   5.398   4.617  0.9702 -0.2848  0.3434
  139MOL0     O18638  10.271   5.330   4.502 -0.5890 -0.3165 -0.4785
  139MOL0     C18639  10.383   5.234   4.464  0.8733 -0.1549  0.1812
  139MOL0     C18640  10.322   5.117   4.392 -0.0204 -0.6826  1.8217
  139MOL0     C18641  10.275   5.007   4.488 -0.9734 -0.1650  0.4689
  139MOL0     C18642  10.259   4.871   4.424 -0.4211 -0.0692 -1.1696
  139MOL0     C18643  10.385   4.805   4.364  0.3746 -0.1923  0.5832
  139MOL0     C18644  10.399   4.821   4.215  0.3710 -0.7812  0.4083
  139MOL0     C18645  10.552   4.796   4.191 -0.0721  0.1714  0.3910
  139MOL0     C18646  10.601   4.822   4.049  0.1963  0.0655 -0.9630
  139MOL0     N18647  10.581   4.962   4.020  0.2209 -0.3922  0.9156
  139MOL0     C18648  10.556   5.019   3.898 -0.4448 -0.0540 -0.2367
  139MOL0     C18649  10.556   5.154   3.917  0.0189 -1.0757  1.0036
  139MOL0     C18650  10.530   5.266   3.809 -0.4373  0.2561  0.2771
  139MOL0     C18651  10.661   5.340   3.782 -0.4229  0.0122 -0.4531
  139MOL0     C18652  10.791   5.257   3.764  0.6627 -0.1550 -0.4727
  139MOL0     C18653  10.873   5.229   3.893 -0.3651  0.0663  0.4688
  139MOL0     O18654  10.996   5.168   3.845 -0.1086 -1.0418  0.1164
  139MOL0     C18655  11.103   5.244   3.872 -1.2278 -0.6077  0.4335
  139MOL0     C18656  11.184   5.204   3.966 -0.5684  0.9127 -0.7326
  139MOL0     C18657  11.298   5.270   4.007 -0.0151  0.0288  0.5534
  139MOL0     C18658  11.378   5.223   4.119  0.3259  0.4034 -0.0583
  139MOL0     C18659  11.332   5.393   3.946  0.6273  0.0126 -1.3288
  139MOL0     C18660  11.459   5.478   3.981  0.0016  0.1724  0.2269
  139MOL0     O18661  11.453   5.608   3.927  0.1924 -0.5574  0.2066
  139MOL0     C18662  11.558   5.698   3.941  0.0628  1.2630 -0.7770
  139MOL0     C18663  11.612   5.752   3.826 -0.3094 -0.0308  0.5425
  139MOL0     C18664  11.711   5.851   3.845  0.2525  0.0386  0.6187
  139MOL0     C18665  11.766   5.892   3.969 -0.5605  0.1653 -0.0708
  139MOL0     O18666  11.866   5.978   3.988 -0.3681  0.6528  0.0726
  139MOL0     C18667  11.929   6.046   3.874  0.0612  1.1665 -0.0473
  139MOL0     C18668  12.024   5.944   3.792 -0.1503 -0.1893  0.9950
  139MOL0     C18669  12.167   5.952   3.834  0.9396 -1.0968 -0.3315
  139MOL0     C18670  12.230   6.070   3.774 -0.8061 -0.0738  0.3752
  139MOL0     C18671  12.385   6.066   3.796 -0.6152 -0.4510  0.4713
  139MOL0     C18672  12.435   6.151   3.907 -0.6370  0.6107  0.5278
  139MOL0     C18673  12.584   6.190   3.885  0.3146 -0.2001 -0.2266
  139MOL0     C18674  12.605   6.339   3.882  0.6094  0.2768  0.2863
  139MOL0    Cl18675  12.779   6.383   3.884  0.2801  0.2849  0.0767
  139MOL0     C18676  11.721   5.833   4.078 -0.0416  0.8534  0.1735
  139MOL0     C18677  11.613   5.739   4.068  0.4030 -0.3760 -0.0051
  139MOL0     O18678  11.558   5.420   4.023 -0.3104  0.0200 -0.2819
  139MOL0     C18679  11.244   5.444   3.852  0.5942  1.1049  0.3603
  139MOL0     C18680  11.128   5.371   3.811  0.3364 -0.1939 -0.2687
  139MOL0     N18681  10.575   5.178   4.048 -0.3318 -0.1627 -0.2325
  139MOL0     N18682  10.588   5.063   4.105  0.2885 -1.0546  0.1827
  139MOL0     C18683  10.398   5.447   4.656  0.2519 -0.5504  0.1982
  139MOL0     C18684  10.425   5.508   4.783  0.3171  0.2016 -0.6044
  139MOL0     C18685  10.409   5.699   5.179 -0.1312 -0.4789  0.8992
  139MOL0     C18686  10.512   5.756   5.243 -0.7787 -0.5803  0.9371
  139MOL0     C18687  10.500   5.808   5.373 -0.1596  0.5060 -0.0633
  139MOL0     C18688  10.382   5.795   5.441  0.2634 -0.0877 -0.5444
  139MOL0     O18689  10.376   5.863   5.554 -0.3489  0.5398 -0.7539
  139MOL0     C18690  10.323   5.798   5.662  0.0622 -0.2914 -1.4458
  139MOL0     C18691  10.374   5.856   5.800 -0.3905 -0.5942 -0.5426
  139MOL0     C18692  10.522   5.893   5.782  0.2198  0.4181  0.0687
  139MOL0     C18693  10.610   5.866   5.912  0.4389 -0.0265  1.0190
  139MOL0     C18694  10.607   5.978   6.019 -0.7724  0.3129  0.6283
  139MOL0     C18695  10.620   6.068   6.104  0.1010  0.0886 -0.0796
  139MOL0     C18696  10.273   5.739   5.373  0.2848 -0.1748  0.3351
  139MOL0     C18697  10.285   5.688   5.245  0.9568  0.0349 -0.7346
  139MOL0     H18698  10.108   5.484   4.900 -2.7269  1.7143 -2.2387
  139MOL0     H18699  10.079   5.361   4.697  1.0952 -2.5394 -1.1589
  139MOL0     H18700  10.450   5.288   4.396 -0.8010 -0.1608 -1.5687
  139MOL0     H18701  10.442   5.203   4.550  2.9411  1.3256 -0.6207
  139MOL0     H18702  10.241   5.160   4.332  0.8237  0.7356  1.6421
  139MOL0     H18703  10.406   5.081   4.331  2.2043  1.9300  3.1167
  139MOL0     H18704  10.350   4.999   4.568 -0.1076  1.3130 -0.1325
  139MOL0     H18705  10.175   5.031   4.525 -1.1757 -0.6728  0.2567
  139MOL0     H18706  10.230   4.808   4.508  0.7535  0.9756  0.0689
  139MOL0     H18707  10.183   4.868   4.346 -1.8529  2.6766 -0.0486
  139MOL0     H18708  10.477   4.831   4.417  1.3989  1.8526 -1.9815
  139MOL0     H18709  10.384   4.697   4.381  3.0939 -0.5515 -0.8989
  139MOL0     H18710  10.337   4.746   4.165 -0.4266 -0.8062  1.4039
  139MOL0     H18711  10.363   4.919   4.182  0.0513 -0.0957  2.6635
  139MOL0     H18712  10.616   4.852   4.259  1.1120 -0.6849  0.0054
  139MOL0     H18713  10.569   4.689   4.204 -2.4242 -0.3274 -0.0571
  139MOL0     H18714  10.564   4.759   3.967  1.2359  1.5086 -2.6221
  139MOL0     H18715  10.708   4.800   4.042  0.0904 -0.1753 -1.9975
  139MOL0     H18716  10.556   4.959   3.807  1.5868 -0.3645 -0.0741
  139MOL0     H18717  10.497   5.227   3.712 -1.2316  0.0031  0.6420
  139MOL0     H18718  10.450   5.334   3.840 -1.1278 -0.0532 -0.7649
  139MOL0     H18719  10.694   5.396   3.871 -0.3280 -0.4601 -0.1891
  139MOL0     H18720  10.663   5.407   3.696 -0.2459 -1.8107 -1.9309
  139MOL0     H18721  10.856   5.307   3.691  2.2724 -0.3440  0.7507
  139MOL0     H18722  10.756   5.164   3.720  0.0114  0.5746 -1.5387
  139MOL0     H18723  10.817   5.167   3.964  0.9330 -3.4642 -1.3576
  139MOL0     H18724  10.881   5.320   3.953 -5.5452  1.2252 -0.0683
  139MOL0     H18725  11.172   5.110   4.019  0.6969  0.3596 -1.3757
  139MOL0     H18726  11.390   5.300   4.196  0.4684  1.1180 -0.7893
  139MOL0     H18727  11.337   5.133   4.166  0.7383  0.6429  0.7775
  139MOL0     H18728  11.475   5.197   4.075 -0.6571 -3.6034 -0.2437
  139MOL0     H18729  11.565   5.727   3.731  0.7245  1.5577 -0.4389
  139MOL0     H18730  11.748   5.908   3.760  1.0377 -0.4740  0.6091
  139MOL0     H18731  11.847   6.094   3.819 -2.2230 -2.3539 -0.0459
  139MOL0     H18732  12.001   6.120   3.910 -0.4317  1.4750  0.3146
  139MOL0     H18733  11.997   5.839   3.806  0.5650 -0.7575 -1.5622
  139MOL0     H18734  12.019   5.951   3.683 -0.2428 -1.2258  0.9188
  139MOL0     H18735  12.225   5.861   3.815  0.6806 -1.3791  0.2155
  139MOL0     H18736  12.179   5.963   3.942  5.5409 -1.2009 -0.6310
  139MOL0     H18737  12.210   6.067   3.667 -2.7291  2.9756  0.5516
  139MOL0     H18738  12.190   6.162   3.817  1.2999  2.0247 -1.7999
  139MOL0     H18739  12.435   6.105   3.707 -0.7011  1.5144  1.2351
  139MOL0     H18740  12.427   5.965   3.806  1.5913  0.0577 -2.4402
  139MOL0     H18741  12.378   6.243   3.921 -2.1772  0.0092 -1.3165
  139MOL0     H18742  12.433   6.088   3.997  2.0445 -4.6643 -2.6019
  139MOL0     H18743  12.621   6.144   3.793  2.6151  1.7040 -0.3672
  139MOL0     H18744  12.642   6.150   3.968  1.7379 -1.0492 -1.5776
  139MOL0     H18745  12.558   6.373   3.975 -2.0384 -1.1442 -0.4055
  139MOL0     H18746  12.558   6.386   3.795  1.1987  0.1689 -0.0975
  139MOL0     H18747  11.757   5.856   4.178 -2.1182 -0.4181  1.3034
  139MOL0     H18748  11.575   5.690   4.157 -0.8851  4.7455  2.7107
  139MOL0     H18749  11.263   5.540   3.805  4.0609  0.7011  0.6848
  139MOL0     H18750  11.060   5.415   3.739  1.2227 -1.9377 -2.3311
  139MOL0     H18751  10.478   5.440   4.582  0.1154 -1.4735  0.1299
  139MOL0     H18752  10.518   5.541   4.829 -0.1753 -1.2030  1.5274
  139MOL0     H18753  10.608   5.769   5.193  0.0284 -2.9585  1.7152
  139MOL0     H18754  10.573   5.884   5.401  0.4154  1.1537 -2.9729
  139MOL0     H18755  10.215   5.819   5.662 -0.5901 -3.2469 -0.8924
  139MOL0     H18756  10.333   5.690   5.671  1.5957 -0.0261  0.5843
  139MOL0     H18757  10.356   5.781   5.878  0.1417  0.0761  0.2407
  139MOL0     H18758  10.317   5.947   5.819 -2.2107 -1.8780  0.3611
  139MOL0     H18759  10.520   5.997   5.748 -0.4314  0.4404  0.1540
  139MOL0     H18760  10.565   5.831   5.703  1.1069  3.6640 -2.1744
  139MOL0     H18761  10.715   5.869   5.883  0.1777 -0.5625 -0.0148
  139MOL0     H18762  10.600   5.764   5.951 -0.6281 -0.1523  0.4743
  139MOL0     H18763  10.636   6.156   6.161 -0.6529  1.3673 -1.7506
  139MOL0     H18764  10.180   5.754   5.426 -0.5906  1.4997 -1.5273
  139MOL0     H18765  10.191   5.671   5.192 -0.1977  1.9866  0.5827
  140MOL0     O18766   5.947  10.886   9.643 -0.4258  0.0291 -0.7300
  140MOL0     C18767   6.011  10.818   9.567  0.2370 -0.2083 -0.1185
  140MOL0     O18768   5.998  10.823   9.425 -0.5156 -0.4596 -0.2733
  140MOL0     C18769   5.912  10.906   9.367 -0.3652  0.0427  0.3980
  140MOL0     C18770   5.822  10.850   9.275  0.7227 -0.9896 -0.1739
  140MOL0     C18771   5.727  10.939   9.214 -0.4734 -0.2376 -0.0734
  140MOL0     C18772   5.728  11.085   9.236 -0.3397  1.4714 -0.0892
  140MOL0     O18773   5.647  11.173   9.168  0.1057  0.2243  0.0604
  140MOL0     C18774   5.527  11.110   9.103 -0.4029  0.8740 -0.1760
  140MOL0     C18775   5.427  11.219   9.082 -0.2707  0.2761 -0.7254
  140MOL0     C18776   5.464  11.303   8.960 -0.3499 -0.9220  0.4165
  140MOL0     C18777   5.381  11.264   8.827  0.2365 -0.6260  0.3001
  140MOL0     C18778   5.241  11.329   8.840  0.1657  0.1451 -0.9252
  140MOL0     C18779   5.152  11.260   8.739 -0.4838  1.2462  0.3323
  140MOL0     C18780   5.002  11.274   8.779  0.4445 -1.0592 -0.3336
  140MOL0     C18781   4.944  11.413   8.794 -0.8076  0.5031  0.7404
  140MOL0     N18782   4.808  11.411   8.849 -0.2316  0.0669  0.7426
  140MOL0     C18783   4.726  11.304   8.857 -0.2178  1.1522  0.1284
  140MOL0     C18784   4.632  11.345   8.947 -0.5306  0.9123 -0.7691
  140MOL0     C18785   4.503  11.274   8.975 -0.9683 -0.1534 -0.2812
  140MOL0     C18786   4.385  11.356   8.952  0.9034 -0.3764 -0.8832
  140MOL0     C18787   4.256  11.280   8.937  0.5757 -0.1465  0.5362
  140MOL0     C18788   4.139  11.368   8.883 -0.5161  0.1214 -0.1341
  140MOL0     O18789   4.021  11.327   8.947 -0.8515 -0.3777 -0.4590
  140MOL0     C18790   3.909  11.403   8.953  0.1388 -0.2556  0.2954
  140MOL0     C18791   3.806  11.345   9.031 -0.9081 -0.9582 -0.6135
  140MOL0     C18792   3.692  11.418   9.073 -1.0806  0.3169  0.1597
  140MOL0     C18793   3.606  11.355   9.182  0.3645  0.2810 -1.0073
  140MOL0     C18794   3.674  11.550   9.016 -0.1232 -0.4867 -0.8624
  140MOL0     C18795   3.552  11.641   9.042 -0.2848  0.1669 -0.3582
  140MOL0     O18796   3.457  11.603   9.130 -0.0067 -1.0134  0.0715
  140MOL0     C18797   3.338  11.665   9.160  0.3050  0.6842  0.3366
  140MOL0     C18798   3.248  11.587   9.235 -0.2741  0.7084  0.5626
  140MOL0     C18799   3.127  11.633   9.280  0.4359  0.3729  0.1256
  140MOL0     C18800   3.100  11.769   9.262  0.4067 -0.5557  0.6323
  140MOL0     O18801   2.986  11.817   9.315  0.6007  0.3630  0.8363
  140MOL0     C18802   3.005  11.957   9.365  0.3350  0.8540  0.1128
  140MOL0     C18803   2.887  11.995   9.471  0.2321 -0.2056  0.4808
  140MOL0     C18804   2.757  11.996   9.394  0.2631 -0.1750 -0.5272
  140MOL0     C18805   2.643  12.047   9.480  0.4985 -0.8892 -0.9251
  140MOL0     C18806   2.499  12.024   9.424  0.6215  0.0498  0.6565
  140MOL0     C18807   2.473  12.127   9.309 -0.4423 -0.1352 -0.6429
  140MOL0     C18808   2.324  12.147   9.272  0.2211 -0.0953 -0.2202
  140MOL0     C18809   2.273  12.042   9.190 -0.0924 -0.2516  0.0677
  140MOL0    Cl18810   2.092  12.092   9.161 -0.4874 -0.1313  0.1182
  140MOL0     C18811   3.187  11.847   9.189  0.1331 -0.4808 -0.8164
  140MOL0     C18812   3.299  11.796   9.138 -0.4580  0.4262 -1.0780
  140MOL0     O18813   3.544  11.738   8.970 -0.0023 -0.8910  0.3216
  140MOL0     C18814   3.775  11.603   8.927 -0.0269  0.9090  0.7522
  140MOL0     C18815   3.886  11.530   8.900 -0.5135  0.4566 -0.4097
  140MOL0     N18816   4.680  11.468   9.001  0.5230  0.0594  0.2738
  140MOL0     N18817   4.782  11.503   8.940  0.0273 -0.5506 -0.3382
  140MOL0     C18818   5.831  11.132   9.317 -0.0787  0.2885 -0.0988
  140MOL0     C18819   5.914  11.043   9.383  0.1321 -0.4771  0.7750
  140MOL0     C18820   6.109  10.717   9.621  0.3454 -0.4121  1.0194
  140MOL0     C18821   6.128  10.692   9.759 -0.5087  0.7486 -0.0495
  140MOL0     C18822   6.199  10.579   9.818 -0.9756  0.2002  0.4365
  140MOL0     C18823   6.260  10.493   9.718  0.8981  0.4106 -0.5059
  140MOL0     O18824   6.300  10.367   9.760  0.6419 -0.5804  0.0473
  140MOL0     C18825   6.416  10.383   9.851 -0.4810  0.1804  0.3113
  140MOL0     C18826   6.479  10.252   9.878 -0.2656  0.4385 -0.6060
  140MOL0     C18827   6.519  10.177   9.759  0.0498  0.4431 -0.3124
  140MOL0     C18828   6.540  10.028   9.795 -0.2876 -0.1282  0.1007
  140MOL0     C18829   6.587   9.925   9.695  0.3748 -0.3063  0.4795
  140MOL0     C18830   6.629   9.857   9.606  0.1371  0.1514 -0.9871
  140MOL0     C18831   6.252  10.518   9.581  0.1087  0.3147  0.8723
  140MOL0     C18832   6.172  10.625   9.532  0.4951  0.6585  0.9656
  140MOL0     H18833   5.822  10.748   9.240 -1.4131 -0.4925 -1.8290
  140MOL0     H18834   5.654  10.894   9.147  0.3236 -0.8332 -0.5438
  140MOL0     H18835   5.547  11.063   9.006 -0.0776  1.5920 -0.4639
  140MOL0     H18836   5.491  11.032   9.171  1.2948 -0.0070 -0.2546
  140MOL0     H18837   5.333  11.165   9.068  0.8408 -3.0893  2.8769
  140MOL0     H18838   5.412  11.275   9.175  1.3009  1.1937 -0.9862
  140MOL0     H18839   5.440  11.404   8.995 -2.6011 -2.1452  2.6235
  140MOL0     H18840   5.573  11.297   8.952 -0.1685  0.3324  1.6149
  140MOL0     H18841   5.440  11.283   8.737  3.0146 -1.1219  1.9062
  140MOL0     H18842   5.370  11.155   8.827  0.5090 -0.6634 -0.6663
  140MOL0     H18843   5.194  11.319   8.937  0.1546  3.4653 -0.4710
  140MOL0     H18844   5.250  11.436   8.819  6.3665  0.1714  0.0392
  140MOL0     H18845   5.171  11.312   8.645  2.2593  0.0454  0.1295
  140MOL0     H18846   5.178  11.154   8.730 -0.8746  1.1714  0.0597
  140MOL0     H18847   4.939  11.229   8.702 -0.7109  1.5359 -1.0201
  140MOL0     H18848   4.988  11.223   8.875 -1.4110  1.4215  0.8510
  140MOL0     H18849   4.925  11.449   8.692  1.9170  2.9098  0.9553
  140MOL0     H18850   4.994  11.492   8.851 -1.3265  2.7420 -1.6558
  140MOL0     H18851   4.734  11.223   8.786 -1.1288  1.6991 -0.6174
  140MOL0     H18852   4.495  11.182   8.916  2.2138 -0.6726 -0.0658
  140MOL0     H18853   4.496  11.230   9.075 -0.2548  0.2899 -0.0352
  140MOL0     H18854   4.400  11.410   8.858  3.1643  2.9823  1.1714
  140MOL0     H18855   4.370  11.424   9.037 -1.2858 -0.0576 -1.4491
  140MOL0     H18856   4.228  11.242   9.036  1.5563  1.3903  1.4399
  140MOL0     H18857   4.259  11.186   8.880 -1.7757 -0.3547  0.6420
  140MOL0     H18858   4.120  11.354   8.776 -1.4079 -2.1478  0.2634
  140MOL0     H18859   4.160  11.475   8.893  2.6874 -0.5137  0.8911
  140MOL0     H18860   3.828  11.247   9.072 -0.2711 -1.0225 -1.0855
  140MOL0     H18861   3.498  11.350   9.163  0.0944  0.6375  0.3413
  140MOL0     H18862   3.643  11.254   9.198  0.7301  0.6845  1.0038
  140MOL0     H18863   3.615  11.406   9.278  1.2913  0.2939 -1.0934
  140MOL0     H18864   3.273  11.482   9.251  0.3718  0.7470 -0.1163
  140MOL0     H18865   3.058  11.572   9.337 -0.5926  3.6265  2.7074
  140MOL0     H18866   3.100  11.974   9.417  2.3483  0.4376 -3.1771
  140MOL0     H18867   3.010  12.023   9.278  0.7699  0.0055 -0.5197
  140MOL0     H18868   2.886  11.929   9.558  0.7472 -0.6495  0.1649
  140MOL0     H18869   2.912  12.098   9.498  2.5385 -0.2845 -1.0256
  140MOL0     H18870   2.732  11.892   9.375  0.5110 -0.3083 -0.1351
  140MOL0     H18871   2.763  12.031   9.291 -2.5504  0.7949 -0.4559
  140MOL0     H18872   2.652  11.979   9.566  1.4357  0.3137 -0.0268
  140MOL0     H18873   2.663  12.147   9.521  1.9828 -1.5959  0.1570
  140MOL0     H18874   2.434  12.043   9.510  2.4665 -1.3448  2.4583
  140MOL0     H18875   2.473  11.923   9.392  0.4051  0.8191 -1.8149
  140MOL0     H18876   2.508  12.222   9.351  3.0945 -0.2012 -2.9702
  140MOL0     H18877   2.536  12.118   9.219  0.1832 -1.2149 -0.1166
  140MOL0     H18878   2.315  12.244   9.223 -3.1367  0.0950  0.5690
  140MOL0     H18879   2.269  12.149   9.366 -1.3906 -1.5679 -1.0743
  140MOL0     H18880   2.265  11.944   9.238  0.5801 -0.3338  0.0178
  140MOL0     H18881   2.321  12.022   9.094 -2.2077 -1.8956 -0.7222
  140MOL0     H18882   3.153  11.945   9.159 -1.1306 -0.9171 -0.8921
  140MOL0     H18883   3.359  11.865   9.079  0.9434 -1.8133 -2.4140
  140MOL0     H18884   3.746  11.696   8.881 -2.6391  1.2414  2.7971
  140MOL0     H18885   3.943  11.584   8.825  1.3928 -0.3666  0.3925
  140MOL0     H18886   5.833  11.240   9.331  0.7160  0.4410 -1.2616
  140MOL0     H18887   5.977  11.079   9.463  0.7631 -0.0168  0.0795
  140MOL0     H18888   6.082  10.757   9.833  1.9206  0.4987  1.8118
  140MOL0     H18889   6.195  10.549   9.922  0.0141 -3.3300 -0.3788
  140MOL0     H18890   6.494  10.445   9.805 -0.7555  1.5439  1.6064
  140MOL0     H18891   6.393  10.430   9.947 -3.3978  0.5164 -0.4627
  140MOL0     H18892   6.400  10.192   9.923  1.2623 -0.0690  1.5335
  140MOL0     H18893   6.565  10.259   9.945  0.1724 -2.9175 -0.6345
  140MOL0     H18894   6.613  10.213   9.717 -0.0195  0.6058 -0.3289
  140MOL0     H18895   6.436  10.170   9.687 -0.0796 -1.6017 -0.0189
  140MOL0     H18896   6.443  10.003   9.839 -0.3314  1.9342  1.2989
  140MOL0     H18897   6.607  10.027   9.881 -1.3970  1.8926  1.0673
  140MOL0     H18898   6.679   9.788   9.541  1.9808 -0.8838  1.3562
  140MOL0     H18899   6.293  10.444   9.514  0.1301  1.2620 -0.1836
  140MOL0     H18900   6.174  10.629   9.423  1.6790  0.1525  0.9540
  141MOL0     O18901   9.000   9.106   6.437  0.2508 -0.4032  0.0485
  141MOL0     C18902   8.971   9.222   6.422  0.2567  0.0519 -0.1309
  141MOL0     O18903   8.864   9.269   6.347  0.2129  0.9388  0.2821
  141MOL0     C18904   8.750   9.196   6.299 -0.3152  0.3091  0.2372
  141MOL0     C18905   8.713   9.068   6.358  0.5831  0.1673 -0.0218
  141MOL0     C18906   8.614   8.989   6.298  0.3240 -0.2489 -0.4903
  141MOL0     C18907   8.549   9.036   6.187  0.4924  0.2374 -0.1166
  141MOL0     O18908   8.451   8.960   6.123 -0.4572 -0.2671 -0.7048
  141MOL0     C18909   8.503   8.912   5.995  0.4159 -0.2988 -0.7365
  141MOL0     C18910   8.424   8.782   5.967 -0.0628  0.4291 -0.1880
  141MOL0     C18911   8.489   8.710   5.853  0.7247 -0.1800 -0.3196
  141MOL0     C18912   8.392   8.661   5.753 -0.6947  0.6217 -0.4390
  141MOL0     C18913   8.303   8.543   5.823 -0.8262 -0.1767 -0.3368
  141MOL0     C18914   8.190   8.491   5.736 -0.6053  1.0962  0.5146
  141MOL0     C18915   8.103   8.386   5.797  0.4173  1.1364 -0.5922
  141MOL0     C18916   7.986   8.380   5.705  0.6507 -0.5810  0.5013
  141MOL0     N18917   7.963   8.239   5.686  0.6430  0.0660  0.7417
  141MOL0     C18918   7.861   8.175   5.737 -0.7777  0.3167 -0.6480
  141MOL0     C18919   7.827   8.069   5.650 -0.4946  0.0846 -0.1852
  141MOL0     C18920   7.712   7.971   5.670 -0.0879 -0.7008 -0.5712
  141MOL0     C18921   7.746   7.829   5.654  1.0254 -0.5354  0.7986
  141MOL0     C18922   7.850   7.791   5.755  0.5975 -0.9795 -0.5578
  141MOL0     C18923   7.882   7.644   5.773  0.0908 -0.2633  0.8671
  141MOL0     O18924   7.766   7.557   5.764  0.8168 -0.1144  0.5277
  141MOL0     C18925   7.679   7.539   5.865 -0.7389  0.4891 -0.2149
  141MOL0     C18926   7.549   7.586   5.871 -0.3682  1.2178 -0.1985
  141MOL0     C18927   7.467   7.568   5.986 -0.0860 -0.0274  0.1265
  141MOL0     C18928   7.344   7.663   5.984  0.1819 -0.3984 -0.6276
  141MOL0     C18929   7.504   7.459   6.079 -0.1379 -0.5209  0.5191
  141MOL0     C18930   7.416   7.406   6.181 -0.4020 -0.6929  0.2449
  141MOL0     O18931   7.454   7.288   6.233 -0.7134  0.3456  0.6315
  141MOL0     C18932   7.377   7.213   6.321 -0.3150  0.3903  0.2091
  141MOL0     C18933   7.337   7.266   6.440  0.6758  0.7344  0.4750
  141MOL0     C18934   7.241   7.202   6.518  0.0915  0.2366 -0.8348
  141MOL0     C18935   7.182   7.077   6.482 -0.7036  0.0716 -0.6888
  141MOL0     O18936   7.084   7.008   6.556  0.5674  0.3210  0.1112
  141MOL0     C18937   7.054   7.068   6.680 -0.4568  0.3031  0.3500
  141MOL0     C18938   6.967   6.966   6.761  0.4227 -0.0179 -0.2680
  141MOL0     C18939   7.056   6.861   6.829  0.4619 -0.0471  0.7371
  141MOL0     C18940   6.976   6.763   6.915 -0.4786 -0.3792  0.4137
  141MOL0     C18941   7.039   6.630   6.924  0.2108  0.8662 -0.1527
  141MOL0     C18942   6.958   6.534   7.018 -0.0830  0.9658  0.8896
  141MOL0     C18943   7.031   6.401   7.052 -0.1134  0.5237  0.9217
  141MOL0     C18944   6.948   6.301   7.141 -0.8997  0.1536 -0.4525
  141MOL0    Cl18945   6.881   6.363   7.298  0.0123  0.2215 -0.4290
  141MOL0     C18946   7.227   7.023   6.363 -0.6844  0.4002  0.6696
  141MOL0     C18947   7.327   7.089   6.282 -0.0301 -0.3461  0.1363
  141MOL0     O18948   7.312   7.469   6.210  0.4364 -0.7485 -0.2108
  141MOL0     C18949   7.634   7.405   6.062  0.1412  0.4373 -0.0134
  141MOL0     C18950   7.715   7.446   5.957 -0.4981  0.3794 -0.2541
  141MOL0     N18951   7.923   8.071   5.549 -0.7695  0.0462  0.8091
  141MOL0     N18952   7.998   8.180   5.568  0.1077  0.7116 -0.0002
  141MOL0     C18953   8.576   9.169   6.136 -0.1010  0.6859  0.1346
  141MOL0     C18954   8.683   9.248   6.185 -0.7402 -0.7928  0.5123
  141MOL0     C18955   9.052   9.333   6.473  0.4638 -0.1306 -0.4283
  141MOL0     C18956   8.996   9.461   6.481 -0.1741 -0.4571 -0.1902
  141MOL0     C18957   9.065   9.563   6.540 -0.2309  0.8085 -0.5331
  141MOL0     C18958   9.194   9.547   6.586 -0.8037  0.1818  0.1760
  141MOL0     O18959   9.268   9.655   6.623 -0.2541  0.1763  0.4636
  141MOL0     C18960   9.259   9.782   6.554 -0.5682 -0.0595  0.1299
  141MOL0     C18961   9.157   9.880   6.620  0.5833 -0.7084 -0.0213
  141MOL0     C18962   9.215   9.966   6.736 -0.1820  0.2058  0.3863
  141MOL0     C18963   9.141  10.088   6.790  0.0135  0.1446 -0.0603
  141MOL0     C18964   8.997  10.054   6.807  0.0285 -0.1072  0.6763
  141MOL0     C18965   8.886  10.025   6.840 -0.3792  0.0370 -0.0801
  141MOL0     C18966   9.254   9.422   6.568 -0.7367 -0.2788 -0.0252
  141MOL0     C18967   9.184   9.312   6.511  0.6311 -0.0571  1.7252
  141MOL0     H18968   8.778   9.041   6.441  0.3798 -2.6745 -0.6956
  141MOL0     H18969   8.602   8.885   6.327  0.7403 -0.8396 -2.3445
  141MOL0     H18970   8.473   8.975   5.910  0.7718 -0.4217 -0.9544
  141MOL0     H18971   8.611   8.900   6.005  0.2846 -1.1423 -0.2210
  141MOL0     H18972   8.429   8.709   6.048  1.4078 -0.8116 -1.3359
  141MOL0     H18973   8.322   8.805   5.934 -0.6618  0.3331  1.4760
  141MOL0     H18974   8.552   8.780   5.798  2.5047 -1.2191  0.3048
  141MOL0     H18975   8.549   8.626   5.890 -2.8088 -3.3763 -1.2152
  141MOL0     H18976   8.339   8.749   5.715  1.9620  2.2310 -0.7200
  141MOL0     H18977   8.449   8.620   5.668 -1.3491 -1.2222 -0.0298
  141MOL0     H18978   8.363   8.456   5.849 -0.3846  0.7813  2.0837
  141MOL0     H18979   8.264   8.577   5.919 -2.5344  0.2241 -1.1296
  141MOL0     H18980   8.141   8.584   5.705  0.6968  1.4003 -0.7022
  141MOL0     H18981   8.236   8.447   5.648  1.5615  0.2980  1.9557
  141MOL0     H18982   8.154   8.290   5.805 -1.7912 -0.3545 -2.9911
  141MOL0     H18983   8.077   8.419   5.898  1.1957  0.1951 -0.0694
  141MOL0     H18984   7.999   8.430   5.609  2.0785  1.4150  1.6691
  141MOL0     H18985   7.893   8.419   5.749 -0.6871 -3.0065  0.0113
  141MOL0     H18986   7.819   8.190   5.836 -1.2158 -2.4469 -0.3310
  141MOL0     H18987   7.667   7.980   5.769  1.3693 -0.3999  0.0876
  141MOL0     H18988   7.633   7.998   5.599 -1.4710  1.5303  1.6469
  141MOL0     H18989   7.790   7.814   5.555 -1.9724 -1.3620 -0.5235
  141MOL0     H18990   7.652   7.774   5.664 -1.9900  3.7230 -0.9523
  141MOL0     H18991   7.804   7.830   5.846 -2.0258  1.1310 -2.6148
  141MOL0     H18992   7.944   7.841   5.727  0.2078  0.2842  0.3102
  141MOL0     H18993   7.929   7.626   5.870 -1.3983  3.1885  2.3958
  141MOL0     H18994   7.954   7.614   5.697  0.0870 -1.0995  1.1785
  141MOL0     H18995   7.514   7.654   5.794 -3.0792  2.5472  1.9843
  141MOL0     H18996   7.260   7.599   6.011  2.1604 -1.1187  5.3006
  141MOL0     H18997   7.352   7.742   6.060 -0.8953  0.9691 -1.8890
  141MOL0     H18998   7.324   7.695   5.882 -0.8540 -0.0897 -0.3356
  141MOL0     H18999   7.380   7.358   6.477  0.3651  0.5906  1.2162
  141MOL0     H19000   7.213   7.244   6.614 -1.1097  1.6853 -1.7780
  141MOL0     H19001   7.142   7.096   6.739  0.4690 -2.6692  0.5118
  141MOL0     H19002   6.994   7.158   6.663 -0.4754  0.0488 -1.0874
  141MOL0     H19003   6.921   7.023   6.843  1.7207  0.9156 -0.1593
  141MOL0     H19004   6.894   6.922   6.693 -0.1820  1.2964 -0.5153
  141MOL0     H19005   7.125   6.918   6.891  2.4534 -0.5705 -0.8942
  141MOL0     H19006   7.118   6.807   6.756  3.4747  0.1393  2.9764
  141MOL0     H19007   6.971   6.814   7.012  2.0314  2.0161 -0.5888
  141MOL0     H19008   6.871   6.759   6.882 -0.5706  2.2034  0.1317
  141MOL0     H19009   7.142   6.646   6.957  1.1318 -2.6031 -0.9578
  141MOL0     H19010   7.050   6.583   6.825  0.9115 -2.8901  1.5421
  141MOL0     H19011   6.932   6.583   7.112  1.3673 -1.8533  2.8983
  141MOL0     H19012   6.870   6.498   6.963  0.3866 -2.4503  2.1592
  141MOL0     H19013   7.120   6.414   7.115  1.8562  1.2527 -1.8258
  141MOL0     H19014   7.071   6.351   6.963 -0.4656  3.1066 -0.8032
  141MOL0     H19015   7.003   6.208   7.155 -0.1978  0.5502 -0.5470
  141MOL0     H19016   6.864   6.280   7.073  0.0620  1.3530 -2.0764
  141MOL0     H19017   7.190   6.930   6.320 -2.5879  0.9230  1.1245
  141MOL0     H19018   7.358   7.051   6.185 -2.1232  0.4099 -0.8698
  141MOL0     H19019   7.674   7.323   6.121 -0.5622 -2.5664 -3.4108
  141MOL0     H19020   7.811   7.396   5.947 -0.4253  0.2888  0.8495
  141MOL0     H19021   8.515   9.202   6.052  2.1567  0.9416 -1.4954
  141MOL0     H19022   8.718   9.342   6.143  0.1865 -2.1968 -2.1087
  141MOL0     H19023   8.899   9.486   6.439 -0.1518 -0.7492 -0.4200
  141MOL0     H19024   9.023   9.663   6.542 -0.3159  0.7644  0.7663
  141MOL0     H19025   9.358   9.827   6.547 -1.3297  1.3622 -3.8608
  141MOL0     H19026   9.232   9.742   6.456  4.3644 -1.3856 -0.9557
  141MOL0     H19027   9.072   9.828   6.665  0.0369  2.3655  2.8878
  141MOL0     H19028   9.111   9.951   6.551  0.7821  0.3174  0.8634
  141MOL0     H19029   9.317   9.992   6.707  0.9932 -3.4631  0.7237
  141MOL0     H19030   9.220   9.895   6.819  0.6348  0.4719  0.5800
  141MOL0     H19031   9.161  10.163   6.713  3.0390 -1.7865 -1.3225
  141MOL0     H19032   9.192  10.110   6.884  0.3585  0.3528 -0.2950
  141MOL0     H19033   8.791  10.012   6.888  0.1284 -0.3375  0.8583
  141MOL0     H19034   9.352   9.411   6.613 -1.2590 -2.7766  0.6572
  141MOL0     H19035   9.231   9.217   6.493  2.4001  0.8115  1.5466
  142MOL0     O19036   4.459   5.762  10.608 -0.0400  0.2863 -0.8309
  142MOL0     C19037   4.467   5.882  10.596  0.5349 -0.5292 -0.6757
  142MOL0     O19038   4.365   5.974  10.615  0.3803 -1.2431 -0.0708
  142MOL0     C19039   4.242   5.953  10.657  1.0633 -0.8123 -0.4499
  142MOL0     C19040   4.140   6.037  10.608 -0.3271  0.3264 -0.0179
  142MOL0     C19041   4.003   6.033  10.652 -0.5947 -0.7336 -0.3786
  142MOL0     C19042   3.967   5.935  10.741  0.5257  0.0599 -0.1207
  142MOL0     O19043   3.850   5.923  10.806 -0.1946 -0.0112 -0.3323
  142MOL0     C19044   3.752   6.021  10.776 -0.8780  0.3917 -0.4739
  142MOL0     C19045   3.618   5.988  10.840 -0.3559 -0.2132 -0.0162
  142MOL0     C19046   3.556   5.854  10.797 -0.2449  0.4357  0.5503
  142MOL0     C19047   3.519   5.773  10.916 -0.2781 -0.0243  0.8273
  142MOL0     C19048   3.436   5.660  10.868  0.1243  0.2561 -1.2072
  142MOL0     C19049   3.358   5.595  10.994 -1.0355 -0.7410  0.7820
  142MOL0     C19050   3.258   5.485  10.952 -0.4089  0.9657  0.7775
  142MOL0     C19051   3.133   5.557  10.881  0.0172 -0.0617 -1.3010
  142MOL0     N19052   3.053   5.466  10.805 -0.0501  0.1256  0.9957
  142MOL0     C19053   2.999   5.343  10.841  0.6214 -0.0372  0.4239
  142MOL0     C19054   2.925   5.303  10.731  0.0223 -0.3936  0.2322
  142MOL0     C19055   2.841   5.188  10.709 -0.4156  0.3103 -0.6110
  142MOL0     C19056   2.896   5.080  10.607 -0.8593  0.3075  0.0883
  142MOL0     C19057   2.832   4.940  10.633  0.3782  0.0043 -0.9209
  142MOL0     C19058   2.875   4.855  10.518 -0.0846  0.2976  0.2062
  142MOL0     O19059   2.806   4.877  10.392  0.3389 -0.2523 -0.8185
  142MOL0     C19060   2.692   4.805  10.362 -0.6107  0.4579  1.0017
  142MOL0     C19061   2.614   4.735  10.452 -0.7503 -1.0011  0.1428
  142MOL0     C19062   2.505   4.667  10.427  0.3233  0.1977  0.0813
  142MOL0     C19063   2.431   4.612  10.544 -0.3274  0.7149  0.6132
  142MOL0     C19064   2.466   4.650  10.290  0.5222 -0.3519  0.2631
  142MOL0     C19065   2.351   4.568  10.240  0.1386  1.4770 -0.0799
  142MOL0     O19066   2.304   4.603  10.115 -0.0856 -0.2565 -0.5596
  142MOL0     C19067   2.190   4.554  10.060 -0.3620 -0.6389  0.2133
  142MOL0     C19068   2.158   4.611   9.938 -0.8729  0.2498 -0.4274
  142MOL0     C19069   2.045   4.577   9.874  0.8238 -0.5784 -0.5864
  142MOL0     C19070   1.953   4.481   9.914 -1.2307  0.4338 -0.4184
  142MOL0     O19071   1.831   4.452   9.855  0.4499  0.1587 -0.5459
  142MOL0     C19072   1.820   4.492   9.715  0.0484 -0.0046  0.5013
  142MOL0     C19073   1.686   4.419   9.676  0.2136  0.2171  0.3904
  142MOL0     C19074   1.641   4.446   9.530 -0.6965  0.4698  0.5451
  142MOL0     C19075   1.763   4.430   9.435 -0.2376  0.4190 -0.1285
  142MOL0     C19076   1.727   4.445   9.282  0.1153 -0.5220 -0.4294
  142MOL0     C19077   1.696   4.594   9.254  0.1725  0.0136 -0.0103
  142MOL0     C19078   1.689   4.615   9.105  0.2091  0.1260 -0.2320
  142MOL0     C19079   1.626   4.751   9.085 -0.2055  0.0955 -0.0401
  142MOL0    Cl19080   1.728   4.879   9.163  0.2767 -0.0901  0.0087
  142MOL0     C19081   1.983   4.419  10.034 -0.7212  0.2458 -0.7100
  142MOL0     C19082   2.104   4.449  10.096 -0.3704 -0.5619 -1.1571
  142MOL0     O19083   2.318   4.472  10.305  0.4150  0.7960  0.2404
  142MOL0     C19084   2.548   4.718  10.192 -0.7032 -0.5182 -0.0946
  142MOL0     C19085   2.662   4.799  10.229 -0.2799  0.9429 -0.1688
  142MOL0     N19086   2.962   5.400  10.632  0.0208 -0.6028 -0.5305
  142MOL0     N19087   3.028   5.496  10.678  0.0780  0.6958 -0.7767
  142MOL0     C19088   4.062   5.847  10.788 -0.8743  0.8091  0.2552
  142MOL0     C19089   4.199   5.856  10.743  0.4543  0.5928 -0.5426
  142MOL0     C19090   4.589   5.938  10.553 -0.0317 -0.5049  0.2765
  142MOL0     C19091   4.694   5.849  10.539 -0.2038  0.2065 -0.5158
  142MOL0     C19092   4.819   5.894  10.499 -0.3122 -0.8026  0.0758
  142MOL0     C19093   4.830   6.027  10.453  0.6492 -0.0757  0.2838
  142MOL0     O19094   4.949   6.076  10.401 -0.3666  1.1247  0.2502
  142MOL0     C19095   4.978   6.069  10.256  0.1856  0.0068 -0.5049
  142MOL0     C19096   5.126   6.120  10.243  0.6500  0.5293  0.5726
  142MOL0     C19097   5.159   6.134  10.100  0.2284  0.5425  0.0505
  142MOL0     C19098   5.105   6.264  10.028  0.1331  0.2296  0.1756
  142MOL0     C19099   5.072   6.370  10.121 -0.2256  0.5564 -0.5919
  142MOL0     C19100   5.056   6.473  10.185  0.2120 -0.8359  1.8798
  142MOL0     C19101   4.721   6.113  10.462  0.5710 -0.0179 -0.8527
  142MOL0     C19102   4.602   6.071  10.519 -0.9645 -0.4822  0.0622
  142MOL0     H19103   4.170   6.120  10.545 -2.3589  2.3943  1.5604
  142MOL0     H19104   3.935   6.116  10.635  1.3616  0.9652 -0.2904
  142MOL0     H19105   3.792   6.115  10.813 -2.5854  2.3348 -3.2001
  142MOL0     H19106   3.748   6.014  10.667 -1.1105  1.3882 -0.5356
  142MOL0     H19107   3.635   6.002  10.947 -1.4380 -0.9540  0.2702
  142MOL0     H19108   3.560   6.073  10.803  1.8990  1.9420  1.0922
  142MOL0     H19109   3.468   5.876  10.735  0.1952  0.4045 -0.0932
  142MOL0     H19110   3.629   5.808  10.731 -0.9224 -1.9024  1.3178
  142MOL0     H19111   3.600   5.742  10.982 -0.4414  0.7638  1.4138
  142MOL0     H19112   3.454   5.837  10.977  0.2762  1.2612  0.1109
  142MOL0     H19113   3.361   5.698  10.798 -0.2954  0.6166 -0.5676
  142MOL0     H19114   3.506   5.585  10.830  1.3765  1.0789 -0.5651
  142MOL0     H19115   3.432   5.558  11.065 -2.2054  0.2050  2.5668
  142MOL0     H19116   3.311   5.671  11.056  0.8774  1.0269  0.2057
  142MOL0     H19117   3.305   5.417  10.880  1.2206  2.3012  0.5157
  142MOL0     H19118   3.214   5.440  11.041  0.6581  2.4918  2.1357
  142MOL0     H19119   3.162   5.641  10.818 -0.6368  2.9244  2.0289
  142MOL0     H19120   3.061   5.589  10.957 -0.2968 -2.0752 -0.6777
  142MOL0     H19121   2.995   5.296  10.939 -0.2886  0.3863  0.6001
  142MOL0     H19122   2.821   5.144  10.807  2.2979  2.6517  1.1462
  142MOL0     H19123   2.743   5.218  10.673 -1.1970 -3.1401 -1.7290
  142MOL0     H19124   3.005   5.080  10.604 -0.8572  0.7888 -2.0816
  142MOL0     H19125   2.870   5.117  10.507  0.7868 -0.5381 -0.6890
  142MOL0     H19126   2.724   4.944  10.650  0.4659  5.1963  0.0006
  142MOL0     H19127   2.877   4.909  10.728  2.2807  2.6264 -0.8447
  142MOL0     H19128   2.855   4.751  10.547 -4.5417  1.1651  0.9435
  142MOL0     H19129   2.984   4.848  10.513  0.0091  1.8466 -0.5812
  142MOL0     H19130   2.639   4.752  10.556 -0.4794  0.2360 -0.1158
  142MOL0     H19131   2.501   4.583  10.624  1.7170 -2.8287 -2.1609
  142MOL0     H19132   2.353   4.683  10.571 -2.4686  0.3890 -3.9553
  142MOL0     H19133   2.396   4.510  10.526  0.1566 -0.0772  3.5795
  142MOL0     H19134   2.210   4.704   9.917  0.5433 -0.1819  0.9343
  142MOL0     H19135   2.019   4.641   9.790 -1.2301  0.5917  0.8288
  142MOL0     H19136   1.807   4.598   9.696  3.2201  0.0222 -2.3358
  142MOL0     H19137   1.908   4.461   9.658  1.3345  5.4629 -1.0867
  142MOL0     H19138   1.698   4.313   9.702 -3.1559 -0.1263  0.9431
  142MOL0     H19139   1.618   4.464   9.750  1.4983  3.7327 -0.3541
  142MOL0     H19140   1.612   4.551   9.517  1.7542  1.3063  1.4245
  142MOL0     H19141   1.565   4.371   9.506  1.4285 -2.7065  2.9442
  142MOL0     H19142   1.838   4.509   9.449 -0.0668  0.1569  0.4753
  142MOL0     H19143   1.814   4.333   9.447  0.6656  0.7700 -0.9707
  142MOL0     H19144   1.646   4.379   9.251  1.1585 -1.7498 -0.5909
  142MOL0     H19145   1.812   4.407   9.225 -1.4490  0.0081 -3.2792
  142MOL0     H19146   1.595   4.626   9.281 -0.2256 -1.4348  0.2936
  142MOL0     H19147   1.780   4.653   9.292  0.7810 -2.0934  2.1614
  142MOL0     H19148   1.635   4.526   9.071  0.2663 -1.4605  3.3291
  142MOL0     H19149   1.795   4.615   9.081  0.1506  2.1867 -0.5932
  142MOL0     H19150   1.525   4.749   9.127 -0.6793 -1.0007 -1.1570
  142MOL0     H19151   1.617   4.759   8.976  0.9642  2.5789 -0.0052
  142MOL0     H19152   1.917   4.342  10.073  0.8298 -0.6714  0.2310
  142MOL0     H19153   2.134   4.388  10.181  0.3207  2.0921  0.6177
  142MOL0     H19154   2.538   4.725  10.084  2.1628 -0.8830 -0.4821
  142MOL0     H19155   2.723   4.836  10.148 -2.6127 -0.4646 -2.7452
  142MOL0     H19156   4.035   5.760  10.847  1.9438 -1.1552 -1.1180
  142MOL0     H19157   4.263   5.783  10.792 -0.4087  1.4022  1.9506
  142MOL0     H19158   4.701   5.742  10.551  4.9112  0.0810 -2.4697
  142MOL0     H19159   4.908   5.834  10.484  0.3477 -0.3269  1.8010
  142MOL0     H19160   4.958   5.968  10.219 -3.3524 -1.3153  4.0043
  142MOL0     H19161   4.911   6.132  10.197 -1.0772  0.9972  1.8621
  142MOL0     H19162   5.192   6.044  10.285  0.1471  0.2637  0.9049
  142MOL0     H19163   5.133   6.210  10.305  0.3961  1.5845 -0.8815
  142MOL0     H19164   5.146   6.038  10.048 -0.4298 -0.8247  2.5771
  142MOL0     H19165   5.269   6.136  10.100  0.4952 -3.8373 -0.4408
  142MOL0     H19166   5.021   6.233   9.966 -0.4977 -2.1377  2.0677
  142MOL0     H19167   5.186   6.308   9.968  0.7863  3.6411  3.1821
  142MOL0     H19168   5.047   6.577  10.211  0.7638 -0.1733 -0.3143
  142MOL0     H19169   4.742   6.217  10.439  1.7967  0.2002  1.0481
  142MOL0     H19170   4.529   6.151  10.527 -0.8267 -0.2410 -0.9140
  143MOL0     O19171  10.583  11.145  11.207  0.2143  0.5500 -0.4193
  143MOL0     C19172  10.544  11.247  11.155  0.2517  0.5411  0.4350
  143MOL0     O19173  10.417  11.302  11.168 -0.0758 -0.6888 -0.5504
  143MOL0     C19174  10.346  11.289  11.285 -0.1102 -0.9321 -0.1079
  143MOL0     C19175  10.224  11.353  11.287  0.0874 -0.6836  0.4477
  143MOL0     C19176  10.154  11.362  11.406  0.1939 -0.9074  0.2773
  143MOL0     C19177  10.187  11.298  11.520  0.1158 -0.1788  0.0986
  143MOL0     O19178  10.112  11.309  11.626  0.1123 -0.3931 -0.3464
  143MOL0     C19179  10.011  11.207  11.616  0.2728  0.7377  0.2553
  143MOL0     C19180   9.933  11.207  11.742  0.3095 -0.6770  0.1917
  143MOL0     C19181   9.995  11.141  11.861 -0.0952 -0.0748  0.0987
  143MOL0     C19182   9.967  11.209  11.996  0.2288  0.0574  0.5010
  143MOL0     C19183   9.827  11.222  12.048 -0.3689 -0.5981  0.4076
  143MOL0     C19184   9.765  11.353  12.008  0.2256  0.5429 -0.6204
  143MOL0     C19185   9.619  11.345  11.951 -0.3767 -0.3979  0.7702
  143MOL0     C19186   9.568  11.483  11.918  0.6681  0.4502 -0.8957
  143MOL0     N19187   9.427  11.470  11.861 -0.0911  0.1213 -0.4297
  143MOL0     C19188   9.315  11.480  11.938 -0.6781  1.2129 -0.4937
  143MOL0     C19189   9.215  11.499  11.841  0.4864  0.2345 -0.4854
  143MOL0     C19190   9.071  11.488  11.888 -0.5023 -0.0016  0.9002
  143MOL0     C19191   8.971  11.573  11.816 -0.9386 -0.3125 -0.6537
  143MOL0     C19192   8.962  11.528  11.669  0.2878  0.0399  0.2997
  143MOL0     C19193   8.868  11.621  11.583  0.7911 -0.4426  0.7724
  143MOL0     O19194   8.891  11.768  11.586 -0.3605 -0.1452  0.7446
  143MOL0     C19195   8.811  11.842  11.505 -0.2258  0.3624 -0.3221
  143MOL0     C19196   8.689  11.810  11.456 -0.1541 -0.9744  0.3728
  143MOL0     C19197   8.613  11.912  11.392 -0.8926  0.5836  0.3011
  143MOL0     C19198   8.480  11.871  11.341 -0.3857  0.3446 -0.1170
  143MOL0     C19199   8.663  12.042  11.383  0.8271  0.3269 -0.1444
  143MOL0     C19200   8.581  12.160  11.337  0.3066  0.4307  0.1613
  143MOL0     O19201   8.512  12.147  11.216 -0.1373  0.1922 -0.0367
  143MOL0     C19202   8.464  12.261  11.164 -0.0112  0.7092  0.8296
  143MOL0     C19203   8.327  12.299  11.163 -1.0249 -0.0108  0.9172
  143MOL0     C19204   8.276  12.413  11.104 -0.3726  0.6622 -0.5899
  143MOL0     C19205   8.362  12.495  11.034  0.4576 -0.5036  0.6290
  143MOL0     O19206   8.300  12.596  10.957  0.3222 -1.2318  0.6837
  143MOL0     C19207   8.382  12.678  10.861  0.2009 -1.1888 -0.1622
  143MOL0     C19208   8.282  12.768  10.775 -0.2642  0.3721  0.0283
  143MOL0     C19209   8.204  12.869  10.864 -0.5677 -0.1922  0.9971
  143MOL0     C19210   8.125  12.964  10.757 -0.2024 -0.4158  0.7089
  143MOL0     C19211   8.038  13.072  10.822  0.2324 -0.4953 -1.0530
  143MOL0     C19212   7.983  13.175  10.722  0.4737 -0.3053 -0.2296
  143MOL0     C19213   8.086  13.277  10.680  1.0117 -0.1779  0.1901
  143MOL0     C19214   8.077  13.324  10.538 -0.8961 -0.4904 -0.3455
  143MOL0    Cl19215   7.906  13.401  10.519 -0.5230 -0.3548 -0.0079
  143MOL0     C19216   8.499  12.477  11.030  1.3699  0.9759 -0.3718
  143MOL0     C19217   8.547  12.361  11.095 -0.9035 -0.8814 -0.3873
  143MOL0     O19218   8.606  12.267  11.396  0.1631 -0.6750 -0.2760
  143MOL0     C19219   8.797  12.070  11.425  0.1476  0.2409 -0.4063
  143MOL0     C19220   8.860  11.970  11.491 -0.5711  0.4142  1.2990
  143MOL0     N19221   9.271  11.551  11.732  0.2065 -0.1472 -0.2059
  143MOL0     N19222   9.399  11.528  11.742  0.5061  0.1617  0.0771
  143MOL0     C19223  10.310  11.231  11.523 -0.5019 -0.5193 -0.4666
  143MOL0     C19224  10.400  11.235  11.412 -0.0581 -0.0798 -0.3957
  143MOL0     C19225  10.630  11.322  11.058 -0.8588  0.1876  0.1517
  143MOL0     C19226  10.599  11.452  11.027 -0.4864 -0.4969  0.5146
  143MOL0     C19227  10.685  11.523  10.942 -0.9873 -0.6722 -0.1884
  143MOL0     C19228  10.799  11.465  10.889  0.6136  0.2599  0.3453
  143MOL0     O19229  10.881  11.529  10.796  0.3759  0.8908  0.8952
  143MOL0     C19230  10.847  11.663  10.754  0.6844 -0.2284  0.4180
  143MOL0     C19231  10.977  11.733  10.696  1.5393 -0.5360 -0.3850
  143MOL0     C19232  11.067  11.761  10.815 -0.5114 -0.2110  0.3969
  143MOL0     C19233  11.179  11.862  10.788 -0.1597 -0.3069  0.4994
  143MOL0     C19234  11.289  11.798  10.712 -0.0360 -0.5171 -0.7794
  143MOL0     C19235  11.370  11.729  10.649  0.0549 -0.6043  0.3757
  143MOL0     C19236  10.835  11.335  10.933  0.0611 -0.6769 -0.3208
  143MOL0     C19237  10.747  11.266  11.012 -0.2332 -0.2385  0.9413
  143MOL0     H19238  10.192  11.405  11.197  3.7739  0.3644 -0.4132
  143MOL0     H19239  10.064  11.423  11.405  1.5935  1.3137  1.3362
  143MOL0     H19240   9.942  11.211  11.531  0.2927 -0.5092  0.1732
  143MOL0     H19241  10.053  11.108  11.600 -1.8249  0.0608 -1.6910
  143MOL0     H19242   9.905  11.311  11.762  1.6375  0.2110 -2.1798
  143MOL0     H19243   9.842  11.148  11.726  0.3704 -1.0605  1.1521
  143MOL0     H19244   9.960  11.039  11.876 -0.5447  0.4453  3.3368
  143MOL0     H19245  10.103  11.137  11.846 -0.2080 -0.1291 -0.8092
  143MOL0     H19246  10.020  11.153  12.074  0.6694  3.6171  3.0178
  143MOL0     H19247  10.008  11.308  11.977  0.7761 -0.5042 -1.4484
  143MOL0     H19248   9.770  11.133  12.020 -2.1175  0.9924 -1.4250
  143MOL0     H19249   9.806  11.204  12.154 -2.1244 -0.1102  0.1744
  143MOL0     H19250   9.761  11.419  12.095 -1.4731 -2.5806  1.8741
  143MOL0     H19251   9.826  11.406  11.934  1.3039  0.2157  0.0196
  143MOL0     H19252   9.624  11.282  11.862  4.3942 -4.5276  3.3961
  143MOL0     H19253   9.553  11.294  12.023  0.6064 -2.7699  0.0935
  143MOL0     H19254   9.636  11.520  11.841  2.7334 -0.7548  0.2844
  143MOL0     H19255   9.580  11.552  12.001 -1.8308  0.6832 -0.6378
  143MOL0     H19256   9.310  11.445  12.041 -0.2712 -3.7584 -1.8868
  143MOL0     H19257   9.045  11.382  11.880 -3.5739  0.6354  1.1214
  143MOL0     H19258   9.075  11.523  11.992 -2.8355 -2.8386  2.0938
  143MOL0     H19259   8.993  11.679  11.824 -0.6030 -0.3774 -0.7070
  143MOL0     H19260   8.874  11.558  11.865  0.7431  0.2306  3.1119
  143MOL0     H19261   8.919  11.429  11.651 -1.6133  1.0762 -1.2196
  143MOL0     H19262   9.058  11.533  11.617 -0.9069  3.1529 -1.9207
  143MOL0     H19263   8.764  11.611  11.616 -0.6318  0.1650 -2.9465
  143MOL0     H19264   8.855  11.582  11.482  0.6897  1.3126  0.0727
  143MOL0     H19265   8.632  11.719  11.475 -1.3070 -0.5503 -0.8944
  143MOL0     H19266   8.482  11.893  11.234  0.8094 -4.7509 -1.4230
  143MOL0     H19267   8.455  11.766  11.356 -0.5559  0.2330 -1.1348
  143MOL0     H19268   8.401  11.923  11.395 -2.4104  0.6055 -3.0801
  143MOL0     H19269   8.258  12.238  11.221 -2.7840 -0.2035 -1.2733
  143MOL0     H19270   8.170  12.438  11.099 -0.9992 -1.7842 -0.9878
  143MOL0     H19271   8.454  12.740  10.916  0.2920  0.9583 -2.4911
  143MOL0     H19272   8.422  12.606  10.790 -0.9018 -4.5329  2.3367
  143MOL0     H19273   8.341  12.814  10.695  1.2919  1.5258  1.7603
  143MOL0     H19274   8.215  12.692  10.733  0.7223  0.1094 -1.1590
  143MOL0     H19275   8.274  12.928  10.925  3.2223 -4.5484  1.4251
  143MOL0     H19276   8.143  12.799  10.922 -0.0243 -1.2891  0.2834
  143MOL0     H19277   8.195  13.020  10.694 -2.9747  0.7288 -1.6282
  143MOL0     H19278   8.074  12.904  10.681 -0.8157 -0.4729  1.1599
  143MOL0     H19279   8.089  13.120  10.906  1.2412  1.3996 -2.6594
  143MOL0     H19280   7.949  13.018  10.855 -0.3707  0.6974 -0.6629
  143MOL0     H19281   7.966  13.116  10.631  1.9896  1.5916 -1.8198
  143MOL0     H19282   7.893  13.224  10.760  1.0908  1.2164 -0.6902
  143MOL0     H19283   8.183  13.231  10.703  1.7768  2.0313  1.7984
  143MOL0     H19284   8.083  13.363  10.747  0.0451 -1.3979  1.7937
  143MOL0     H19285   8.095  13.246  10.463  0.4892 -0.9702  0.4649
  143MOL0     H19286   8.155  13.397  10.517 -1.1131  0.8223  2.8350
  143MOL0     H19287   8.562  12.538  10.966 -3.4559  3.3453 -3.4933
  143MOL0     H19288   8.652  12.337  11.106 -0.6326  0.4858  0.1927
  143MOL0     H19289   8.846  12.167  11.419  2.1663 -0.7702 -1.2959
  143MOL0     H19290   8.958  11.990  11.533 -0.8231  2.1281  1.1405
  143MOL0     H19291  10.332  11.185  11.618 -1.8859  2.4091  1.3982
  143MOL0     H19292  10.493  11.180  11.411 -0.0753 -0.1423 -2.1485
  143MOL0     H19293  10.519  11.510  11.071  0.4877  1.8600 -0.6568
  143MOL0     H19294  10.670  11.629  10.924  0.5007 -0.2522  0.7928
  143MOL0     H19295  10.770  11.656  10.677  0.2455  1.7373  0.6086
  143MOL0     H19296  10.803  11.727  10.831 -3.1463 -1.3111 -0.6643
  143MOL0     H19297  10.963  11.830  10.646  0.3595 -0.4951 -0.0090
  143MOL0     H19298  11.025  11.663  10.627 -3.0344 -1.9806 -2.5225
  143MOL0     H19299  11.110  11.670  10.858 -1.5140 -0.1698  1.5397
  143MOL0     H19300  11.012  11.806  10.898  1.0335 -0.4952  1.6322
  143MOL0     H19301  11.231  11.922  10.863  1.0596 -0.5516 -0.1343
  143MOL0     H19302  11.135  11.938  10.723  0.3343 -1.7061 -1.5679
  143MOL0     H19303  11.445  11.671  10.600 -1.0981 -2.0967  0.3223
  143MOL0     H19304  10.926  11.290  10.896  0.0506 -0.6937 -0.3253
  143MOL0     H19305  10.779  11.168  11.046 -1.9544  0.2278  4.3764
  144MOL0     O19306   0.276   7.782   9.883 -0.4471 -1.0493 -0.1257
  144MOL0     C19307   0.250   7.707   9.972 -0.3763 -0.3539  1.4483
  144MOL0     O19308   0.136   7.706  10.047 -0.6726 -0.2265  0.2517
  144MOL0     C19309   0.035   7.791  10.009 -0.1268 -0.4698 -0.1904
  144MOL0     C19310  -0.055   7.760   9.918  0.3219 -0.4068 -0.6672
  144MOL0     C19311  -0.160   7.843   9.887  0.5196  0.7666  0.2853
  144MOL0     C19312  -0.170   7.972   9.938 -1.0067 -0.5203 -0.2563
  144MOL0     O19313  -0.262   8.071   9.908 -0.3756 -0.6966  0.6097
  144MOL0     C19314  -0.302   8.098   9.766 -0.9323  1.0715 -0.7231
  144MOL0     C19315  -0.418   8.186   9.761 -0.1737 -0.3187  0.4112
  144MOL0     C19316  -0.440   8.263   9.626  0.3328  0.7752 -0.4938
  144MOL0     C19317  -0.558   8.352   9.628  0.0387  0.2533  0.1956
  144MOL0     C19318  -0.576   8.430   9.500  0.5357  0.8831  0.4258
  144MOL0     C19319  -0.725   8.482   9.484  1.1746  0.5416  0.1954
  144MOL0     C19320  -0.741   8.584   9.373  0.2367  0.8314  0.4934
  144MOL0     C19321  -0.877   8.618   9.325  0.4743 -0.4412  0.8004
  144MOL0     N19322  -0.949   8.492   9.285  0.3025 -0.3812  0.2182
  144MOL0     C19323  -1.015   8.410   9.367 -0.5901 -0.4058 -0.8325
  144MOL0     C19324  -1.049   8.303   9.291 -0.4690  0.0537 -0.9326
  144MOL0     C19325  -1.100   8.172   9.353  0.5652 -0.2301  0.3089
  144MOL0     C19326  -1.224   8.115   9.278  0.2280  0.2100 -0.5670
  144MOL0     C19327  -1.347   8.205   9.306 -0.2854 -1.0101  0.6634
  144MOL0     C19328  -1.474   8.160   9.220  0.6922 -0.6882  0.3341
  144MOL0     O19329  -1.509   8.020   9.239  1.2735  0.6468 -0.0523
  144MOL0     C19330  -1.571   7.960   9.134  0.4193  0.4854  0.9451
  144MOL0     C19331  -1.509   7.871   9.051 -0.1734 -0.0505 -0.5101
  144MOL0     C19332  -1.574   7.798   8.953  0.4954  0.4354 -0.5419
  144MOL0     C19333  -1.497   7.704   8.865  0.2558  0.3995 -0.0399
  144MOL0     C19334  -1.709   7.822   8.928  0.0142 -0.7312 -0.2554
  144MOL0     C19335  -1.787   7.754   8.820 -0.2574 -0.4058  0.1048
  144MOL0     O19336  -1.903   7.813   8.770 -0.3468 -0.2663 -0.6222
  144MOL0     C19337  -1.967   7.759   8.665  0.0783  0.5131  0.5865
  144MOL0     C19338  -1.946   7.807   8.533  0.1788 -0.2250  0.2782
  144MOL0     C19339  -2.036   7.771   8.431  1.0264  0.4106  0.1935
  144MOL0     C19340  -2.139   7.681   8.460 -0.3587 -0.5358 -0.4098
  144MOL0     O19341  -2.229   7.634   8.370 -0.7101 -0.3337  0.1735
  144MOL0     C19342  -2.274   7.735   8.279  0.0557 -0.4605 -0.1992
  144MOL0     C19343  -2.217   7.720   8.134  0.8697  0.4316  0.0478
  144MOL0     C19344  -2.268   7.591   8.060 -0.8473 -0.0857  0.3019
  144MOL0     C19345  -2.428   7.587   8.025 -0.3047  0.0760 -0.4308
  144MOL0     C19346  -2.464   7.677   7.904 -0.1218  0.4064  0.0620
  144MOL0     C19347  -2.617   7.662   7.879 -0.5508 -0.9760  1.2379
  144MOL0     C19348  -2.642   7.770   7.777  0.7652  0.6435 -0.2749
  144MOL0     C19349  -2.752   7.718   7.681 -0.2642 -0.2692 -0.7844
  144MOL0    Cl19350  -2.896   7.664   7.764  0.3336  0.2680  0.2876
  144MOL0     C19351  -2.135   7.616   8.589  0.3646 -0.7516  0.4175
  144MOL0     C19352  -2.064   7.664   8.696 -0.2737 -0.5885 -0.1203
  144MOL0     O19353  -1.745   7.649   8.776  1.0435  0.5414  0.5136
  144MOL0     C19354  -1.769   7.914   9.011 -0.0631 -0.9378  0.3913
  144MOL0     C19355  -1.703   7.979   9.111 -0.4052  0.1340 -0.8176
  144MOL0     N19356  -1.016   8.339   9.155 -0.3738  0.4884 -1.4735
  144MOL0     N19357  -0.953   8.454   9.150 -0.4491  0.0376 -0.2673
  144MOL0     C19358  -0.068   8.009  10.033  0.1330  0.0178  0.3902
  144MOL0     C19359   0.031   7.916  10.063  0.6375 -1.0106 -0.0906
  144MOL0     C19360   0.344   7.600   9.983  0.1503 -0.7087  0.3003
  144MOL0     C19361   0.337   7.507  10.084 -0.4215  0.2828  0.4418
  144MOL0     C19362   0.428   7.407  10.101 -0.6841  0.0121 -0.2078
  144MOL0     C19363   0.523   7.382   9.997  0.2807  0.1171  0.1513
  144MOL0     O19364   0.601   7.267   9.984  0.3602 -0.3372  0.0461
  144MOL0     C19365   0.596   7.171  10.086  0.0288  1.3156  0.3087
  144MOL0     C19366   0.690   7.228  10.209 -0.0568 -0.0920  0.2324
  144MOL0     C19367   0.686   7.140  10.329 -1.4596 -0.9424  0.0895
  144MOL0     C19368   0.557   7.064  10.376 -0.2247  0.3231 -0.2396
  144MOL0     C19369   0.439   7.150  10.391  0.5996  0.0478  0.2456
  144MOL0     C19370   0.337   7.208  10.421 -0.3125  0.8188 -0.3090
  144MOL0     C19371   0.529   7.467   9.890 -0.0830 -0.5708 -0.0870
  144MOL0     C19372   0.451   7.588   9.891  0.2834 -0.3022  0.0293
  144MOL0     H19373  -0.042   7.659   9.881  1.9947 -1.7023  2.9775
  144MOL0     H19374  -0.235   7.799   9.822 -1.3991  2.3060  1.3600
  144MOL0     H19375  -0.219   8.161   9.732  0.0805  0.2463  0.1668
  144MOL0     H19376  -0.303   8.008   9.704 -0.3828  0.6496 -0.1283
  144MOL0     H19377  -0.507   8.135   9.799  0.5113  0.0281  2.6155
  144MOL0     H19378  -0.390   8.268   9.828 -1.7980 -0.3644  1.2016
  144MOL0     H19379  -0.349   8.321   9.608  1.1804 -0.6571 -0.9596
  144MOL0     H19380  -0.444   8.195   9.541 -0.7593  1.1968 -0.8007
  144MOL0     H19381  -0.639   8.281   9.647  1.3991 -1.5799 -0.5490
  144MOL0     H19382  -0.565   8.432   9.703 -1.2476  1.8193 -1.5049
  144MOL0     H19383  -0.504   8.512   9.489  1.4680 -0.0089 -0.2817
  144MOL0     H19384  -0.562   8.363   9.415 -1.7425 -0.6055  1.1169
  144MOL0     H19385  -0.779   8.388   9.466  1.7340 -0.0668  1.5077
  144MOL0     H19386  -0.767   8.531   9.572  0.0449  1.7285 -0.9799
  144MOL0     H19387  -0.693   8.678   9.404 -0.1133  0.8162  1.0907
  144MOL0     H19388  -0.679   8.552   9.288  1.0872  0.7789  1.1188
  144MOL0     H19389  -0.875   8.685   9.239  3.4243  1.2788  2.0890
  144MOL0     H19390  -0.938   8.666   9.402  1.8932  2.6834  0.1389
  144MOL0     H19391  -1.031   8.420   9.474 -0.3099  0.4796 -0.8682
  144MOL0     H19392  -1.029   8.089   9.350 -2.4362 -2.9905 -0.1642
  144MOL0     H19393  -1.128   8.187   9.457  1.8535  1.6803  0.4305
  144MOL0     H19394  -1.247   8.014   9.312  1.3195 -0.0916 -0.6699
  144MOL0     H19395  -1.210   8.106   9.170  3.5673  1.0175 -0.3088
  144MOL0     H19396  -1.317   8.310   9.293 -2.7359 -0.4526 -1.4204
  144MOL0     H19397  -1.366   8.184   9.412 -1.0099 -1.2226  0.4954
  144MOL0     H19398  -1.443   8.181   9.117 -1.0607 -0.7489 -0.2244
  144MOL0     H19399  -1.557   8.229   9.236 -0.1436 -0.8846 -2.6141
  144MOL0     H19400  -1.401   7.869   9.064 -0.2111 -0.8746 -0.2409
  144MOL0     H19401  -1.543   7.607   8.883  0.0357  0.6822  1.0107
  144MOL0     H19402  -1.507   7.729   8.759 -2.3546 -1.1201 -0.2288
  144MOL0     H19403  -1.393   7.715   8.899 -0.3448  2.5579  1.3303
  144MOL0     H19404  -1.865   7.874   8.506  1.0032 -0.3874  2.1741
  144MOL0     H19405  -2.028   7.789   8.325 -0.2913  0.6900  0.1247
  144MOL0     H19406  -2.383   7.734   8.283  0.0842 -0.1131  3.4499
  144MOL0     H19407  -2.248   7.834   8.318  1.2325 -1.6222  2.1851
  144MOL0     H19408  -2.238   7.812   8.079 -1.7974  0.6470  1.2726
  144MOL0     H19409  -2.108   7.712   8.134  0.7961 -0.7596  0.1057
  144MOL0     H19410  -2.233   7.503   8.115 -2.0777  1.0699  3.0942
  144MOL0     H19411  -2.216   7.589   7.964  5.6851  1.0757  3.2983
  144MOL0     H19412  -2.448   7.485   7.991 -0.6286  0.6647 -2.0998
  144MOL0     H19413  -2.497   7.619   8.103  0.4714 -0.3744  0.4598
  144MOL0     H19414  -2.396   7.649   7.824  1.3470 -1.5868  1.9058
  144MOL0     H19415  -2.445   7.782   7.929  0.4345 -0.0266  1.5635
  144MOL0     H19416  -2.635   7.563   7.835 -1.5291 -0.5279  0.5858
  144MOL0     H19417  -2.682   7.696   7.960  0.1131  0.2237  1.2810
  144MOL0     H19418  -2.550   7.796   7.724  2.1886 -1.9530  0.7159
  144MOL0     H19419  -2.683   7.855   7.831  0.9763  1.5107 -1.4436
  144MOL0     H19420  -2.719   7.650   7.602 -0.4520 -0.2411 -0.8890
  144MOL0     H19421  -2.790   7.804   7.624  2.2481 -1.3840 -4.4794
  144MOL0     H19422  -2.216   7.549   8.614 -2.4700  2.1184 -0.3466
  144MOL0     H19423  -2.073   7.623   8.796  0.1186 -0.1805  0.0867
  144MOL0     H19424  -1.876   7.931   8.999  0.1517  2.5541  2.2701
  144MOL0     H19425  -1.769   8.042   9.171 -0.8477 -1.0625 -0.0182
  144MOL0     H19426  -0.068   8.112  10.066 -2.3131 -0.9158  3.9091
  144MOL0     H19427   0.108   7.962  10.125 -0.9541  0.0157  1.1896
  144MOL0     H19428   0.256   7.508  10.157  0.7937 -0.8792  1.8790
  144MOL0     H19429   0.426   7.338  10.184 -0.9953 -0.1983 -0.3884
  144MOL0     H19430   0.493   7.150  10.116  0.2202  1.4966  1.1388
  144MOL0     H19431   0.621   7.068  10.059  0.2750  0.7642  2.4274
  144MOL0     H19432   0.663   7.331  10.237 -1.8844  0.2952 -2.5793
  144MOL0     H19433   0.793   7.231  10.171 -0.5534  0.9803 -1.1304
  144MOL0     H19434   0.725   7.197  10.413 -0.7205 -3.4853  1.5902
  144MOL0     H19435   0.761   7.060  10.318 -0.6531 -0.3177  0.8959
  144MOL0     H19436   0.574   7.028  10.478 -2.1543  0.7436  0.2783
  144MOL0     H19437   0.540   6.979  10.310  0.6591 -0.0139 -0.0456
  144MOL0     H19438   0.245   7.254  10.452 -0.1810  0.4687  0.6292
  144MOL0     H19439   0.596   7.442   9.809 -2.9236 -3.1977 -1.8296
  144MOL0     H19440   0.471   7.662   9.814  2.1516  1.8343  2.3678
  145MOL0     O19441   6.592   3.824   2.289  0.4763 -0.3264 -0.4371
  145MOL0     C19442   6.678   3.899   2.250  0.5253 -0.2286 -0.9286
  145MOL0     O19443   6.729   4.005   2.322 -0.1576  0.0850  0.4485
  145MOL0     C19444   6.688   4.003   2.464  0.2728 -0.3079  0.2880
  145MOL0     C19445   6.554   4.020   2.498 -0.2157 -0.5859  0.3410
  145MOL0     C19446   6.508   4.003   2.627 -0.1371 -0.1491  0.5255
  145MOL0     C19447   6.593   3.956   2.720 -0.3279 -0.0391 -0.6868
  145MOL0     O19448   6.551   3.922   2.849 -0.2297  0.0660  0.3456
  145MOL0     C19449   6.407   3.926   2.887  0.1690  0.4721 -1.1112
  145MOL0     C19450   6.367   4.062   2.945 -0.7654  0.1727 -0.0864
  145MOL0     C19451   6.223   4.052   2.990 -0.1886  0.4149 -0.2996
  145MOL0     C19452   6.140   4.173   2.978 -0.0284  0.2453 -0.9537
  145MOL0     C19453   6.002   4.163   3.051  0.5337  1.1282  0.7483
  145MOL0     C19454   5.911   4.278   3.049  0.0139  0.4297 -0.5673
  145MOL0     C19455   5.849   4.283   2.910  0.4622  0.3641 -0.3932
  145MOL0     C19456   5.761   4.407   2.895  0.6736 -0.2430 -0.2185
  145MOL0     N19457   5.682   4.423   2.770  0.0410 -0.4489  0.6917
  145MOL0     C19458   5.666   4.334   2.674  0.0537  0.1323  0.4362
  145MOL0     C19459   5.591   4.400   2.579 -0.7744  0.9556  0.7241
  145MOL0     C19460   5.570   4.353   2.444 -0.4954  0.0655  0.3712
  145MOL0     C19461   5.678   4.265   2.379  0.6336  0.7120  0.7437
  145MOL0     C19462   5.636   4.224   2.233 -0.4043  0.3192  0.2752
  145MOL0     C19463   5.736   4.118   2.176 -0.0936  0.9177  0.0767
  145MOL0     O19464   5.736   3.998   2.258  0.0634 -0.0073 -0.5119
  145MOL0     C19465   5.811   3.883   2.226  0.4885 -0.1717  0.8568
  145MOL0     C19466   5.810   3.777   2.318 -0.5153  0.5193  0.5054
  145MOL0     C19467   5.873   3.653   2.286 -1.0762 -0.5842 -0.5966
  145MOL0     C19468   5.883   3.550   2.392 -0.3229 -0.5621  0.1560
  145MOL0     C19469   5.941   3.633   2.166  0.1112  0.1681 -0.2174
  145MOL0     C19470   6.020   3.512   2.130  0.2642  0.4751  0.5092
  145MOL0     O19471   5.990   3.398   2.195  0.6253 -0.1867 -0.0529
  145MOL0     C19472   6.045   3.280   2.176 -0.1360 -0.2624  0.3787
  145MOL0     C19473   5.980   3.183   2.245  0.7808  0.0119  0.2316
  145MOL0     C19474   6.011   3.049   2.230  0.4544 -0.6824 -0.3218
  145MOL0     C19475   6.125   3.017   2.159 -0.4166  1.3028 -0.7216
  145MOL0     O19476   6.161   2.881   2.162 -0.0497 -0.1792 -0.3305
  145MOL0     C19477   6.264   2.823   2.072 -0.8294  0.1671 -0.1966
  145MOL0     C19478   6.410   2.811   2.129 -0.0933 -0.1692 -0.1322
  145MOL0     C19479   6.472   2.942   2.178 -0.5908 -0.0123 -1.3179
  145MOL0     C19480   6.609   2.916   2.249 -0.1499 -0.7810 -0.3969
  145MOL0     C19481   6.698   3.041   2.249 -0.1606  0.0943 -0.1350
  145MOL0     C19482   6.840   2.995   2.286  1.0804  0.0657 -0.2771
  145MOL0     C19483   6.947   3.105   2.255 -0.7748 -1.1644  0.0997
  145MOL0     C19484   6.966   3.147   2.104  0.6836 -0.8191 -0.6387
  145MOL0    Cl19485   7.000   3.014   2.001  0.2989 -0.1902 -0.0530
  145MOL0     C19486   6.201   3.111   2.098  0.0230  0.3603 -0.9855
  145MOL0     C19487   6.157   3.242   2.101  0.6559 -0.0960 -0.2821
  145MOL0     O19488   6.118   3.533   2.059  0.4437  0.2004  0.4780
  145MOL0     C19489   5.944   3.741   2.078  0.4380  0.1137  0.0611
  145MOL0     C19490   5.878   3.865   2.105 -0.6060 -0.2026 -0.0042
  145MOL0     N19491   5.541   4.519   2.632 -0.0855  0.1152  0.3389
  145MOL0     N19492   5.605   4.531   2.743  0.6022  1.1960  0.3515
  145MOL0     C19493   6.731   3.955   2.700 -0.6264 -0.0119 -0.6115
  145MOL0     C19494   6.781   3.967   2.566  0.6761  0.2026  0.2999
  145MOL0     C19495   6.746   3.875   2.128  0.2002 -0.7989 -0.2278
  145MOL0     C19496   6.825   3.977   2.067 -0.8328 -0.8736 -0.2078
  145MOL0     C19497   6.891   3.961   1.943  0.5730 -0.4841 -0.1977
  145MOL0     C19498   6.861   3.851   1.861 -0.3468 -0.4146  0.4700
  145MOL0     O19499   6.940   3.848   1.748 -0.1573 -0.4542  0.0391
  145MOL0     C19500   6.916   3.737   1.657  0.4646  0.3857 -0.1861
  145MOL0     C19501   6.973   3.753   1.519  0.1883  0.4454  0.7911
  145MOL0     C19502   6.962   3.608   1.468  0.4404  0.8396 -0.6191
  145MOL0     C19503   6.818   3.548   1.463  0.3689 -0.0998  0.4452
  145MOL0     C19504   6.814   3.422   1.389  1.0367  0.2860 -0.9297
  145MOL0     C19505   6.826   3.310   1.335 -0.6238 -0.6033 -0.0704
  145MOL0     C19506   6.772   3.759   1.915  2.0077 -0.1643  0.9985
  145MOL0     C19507   6.719   3.766   2.046 -0.6349 -1.2225 -0.6055
  145MOL0     H19508   6.481   4.052   2.424 -0.2035 -0.1847  0.4961
  145MOL0     H19509   6.403   4.027   2.643 -0.1671 -0.1502  0.3360
  145MOL0     H19510   6.341   3.887   2.808  0.4535 -1.1276 -0.5761
  145MOL0     H19511   6.401   3.852   2.966 -0.9421 -1.5601 -2.9813
  145MOL0     H19512   6.431   4.107   3.021 -1.1203  0.5147  0.0154
  145MOL0     H19513   6.371   4.132   2.861  0.0837  2.9680  2.1067
  145MOL0     H19514   6.165   3.981   2.930  2.5599 -0.1676 -2.4487
  145MOL0     H19515   6.222   4.021   3.095  0.6600  1.6180  0.0828
  145MOL0     H19516   6.202   4.254   3.017 -2.5993  1.6335  0.5989
  145MOL0     H19517   6.122   4.197   2.873 -1.9663 -3.0288 -1.5097
  145MOL0     H19518   5.956   4.077   3.002  0.9795 -1.5266  4.5932
  145MOL0     H19519   6.007   4.123   3.152  0.5493 -0.4585  0.1542
  145MOL0     H19520   5.831   4.270   3.123  1.8913 -0.6910  1.4653
  145MOL0     H19521   5.963   4.367   3.085  0.2287  0.3876 -0.7710
  145MOL0     H19522   5.926   4.286   2.832  1.0360 -0.6883  0.0976
  145MOL0     H19523   5.800   4.186   2.897 -0.5925  0.9372 -0.7516
  145MOL0     H19524   5.820   4.496   2.917  0.7731 -1.4263  6.0373
  145MOL0     H19525   5.670   4.404   2.956  0.3386  0.2538 -0.6871
  145MOL0     H19526   5.722   4.242   2.664  0.1587 -0.0054  2.0160
  145MOL0     H19527   5.474   4.301   2.439 -1.6929  1.9996  1.9415
  145MOL0     H19528   5.567   4.448   2.390 -3.4971  0.8829  1.7967
  145MOL0     H19529   5.690   4.175   2.440  0.2763  0.9132  1.1119
  145MOL0     H19530   5.776   4.314   2.385  0.3925  1.1966  0.7501
  145MOL0     H19531   5.621   4.312   2.170 -3.4752 -1.4162 -1.6711
  145MOL0     H19532   5.539   4.174   2.236  0.4587 -1.4570 -0.0251
  145MOL0     H19533   5.832   4.169   2.167 -0.0875  0.7667 -0.8371
  145MOL0     H19534   5.698   4.093   2.076  3.1855  0.9452 -1.3148
  145MOL0     H19535   5.766   3.800   2.414 -3.3560  0.1239 -0.6016
  145MOL0     H19536   5.989   3.527   2.411 -0.3889 -0.4331  0.6797
  145MOL0     H19537   5.831   3.589   2.480  0.7907 -1.6111  1.3290
  145MOL0     H19538   5.826   3.460   2.366  0.2972 -0.5330 -1.4415
  145MOL0     H19539   5.893   3.214   2.303 -0.0915 -2.0160  0.1102
  145MOL0     H19540   5.940   2.987   2.285 -2.1089  4.0123  2.2266
  145MOL0     H19541   6.242   2.716   2.062  1.1999 -0.3824  0.5884
  145MOL0     H19542   6.254   2.884   1.982 -0.2929  2.6526  1.3219
  145MOL0     H19543   6.418   2.731   2.203 -1.7180 -1.3044 -1.1149
  145MOL0     H19544   6.469   2.780   2.042 -0.9108 -1.2302 -0.3382
  145MOL0     H19545   6.407   2.996   2.249  1.6470 -2.3867  2.9625
  145MOL0     H19546   6.488   2.994   2.083 -0.1719  0.5369 -0.9557
  145MOL0     H19547   6.593   2.895   2.355  0.1953  0.2396 -0.1333
  145MOL0     H19548   6.657   2.835   2.193  0.2942 -0.2319 -0.8153
  145MOL0     H19549   6.661   3.101   2.332 -1.0161  1.2586 -1.3099
  145MOL0     H19550   6.686   3.101   2.158  0.8123  0.8028  0.1918
  145MOL0     H19551   6.843   2.975   2.394  0.9542  0.0043 -0.2848
  145MOL0     H19552   6.863   2.902   2.234 -1.0954 -1.4860  1.3064
  145MOL0     H19553   7.045   3.074   2.290 -0.6501  1.4876  2.4903
  145MOL0     H19554   6.923   3.195   2.313  1.2130 -0.4844 -0.0518
  145MOL0     H19555   7.047   3.220   2.104  0.3733  0.1009  5.9469
  145MOL0     H19556   6.876   3.202   2.077 -1.7930 -4.4484 -0.4364
  145MOL0     H19557   6.296   3.091   2.050 -0.0132 -0.2547 -0.8125
  145MOL0     H19558   6.218   3.314   2.047  0.3243  0.2016 -0.2634
  145MOL0     H19559   5.994   3.729   1.982  0.0412  1.6806 -0.3835
  145MOL0     H19560   5.882   3.945   2.031  3.2327  0.9778  1.2307
  145MOL0     H19561   6.808   3.939   2.774  0.6649  4.0529 -0.8151
  145MOL0     H19562   6.883   3.930   2.564  0.5814 -0.2295  2.1650
  145MOL0     H19563   6.840   4.075   2.111  0.4417 -0.1766 -2.0375
  145MOL0     H19564   6.963   4.039   1.918 -0.6193  0.8026  0.2734
  145MOL0     H19565   6.961   3.650   1.706 -0.0822 -1.5294 -2.8698
  145MOL0     H19566   6.808   3.724   1.659  0.1247  2.6545  2.4644
  145MOL0     H19567   7.079   3.776   1.520  0.7094 -1.7108  2.3089
  145MOL0     H19568   6.912   3.825   1.463  0.3637  1.4643  1.8855
  145MOL0     H19569   7.021   3.536   1.525 -3.2523 -1.6980  0.3820
  145MOL0     H19570   7.003   3.597   1.368 -1.9458  0.8628 -1.6727
  145MOL0     H19571   6.750   3.617   1.412  0.6582  2.6145  3.4397
  145MOL0     H19572   6.774   3.538   1.563  0.4544 -0.4683  0.4498
  145MOL0     H19573   6.824   3.214   1.288 -2.4055 -0.8100  0.3614
  145MOL0     H19574   6.739   3.670   1.863 -2.5311  1.9737 -0.2918
  145MOL0     H19575   6.661   3.684   2.087 -1.4623 -0.1408  0.5036
  146MOL0     O19576   0.476   6.006   4.409 -0.0765 -0.2634 -0.1856
  146MOL0     C19577   0.582   6.069   4.425 -0.2747  0.0565  0.6072
  146MOL0     O19578   0.603   6.156   4.533  0.5330  0.2484 -0.1586
  146MOL0     C19579   0.503   6.201   4.611 -0.1255 -0.0419  0.6478
  146MOL0     C19580   0.441   6.311   4.558  0.6893  0.1802 -0.1312
  146MOL0     C19581   0.327   6.366   4.632  0.9902 -0.3104 -0.3472
  146MOL0     C19582   0.277   6.300   4.744  0.1131  0.5165  0.0286
  146MOL0     O19583   0.165   6.356   4.801  0.1623  1.0289  0.3639
  146MOL0     C19584   0.101   6.303   4.913 -0.2952 -0.2293 -0.1835
  146MOL0     C19585   0.009   6.392   5.001 -0.3639  0.8628  0.1674
  146MOL0     C19586  -0.078   6.290   5.084  1.2114  0.7578  0.5566
  146MOL0     C19587  -0.145   6.349   5.214 -0.9745 -0.3761 -0.3633
  146MOL0     C19588  -0.209   6.237   5.295  0.3234 -0.1246  0.2498
  146MOL0     C19589  -0.300   6.281   5.407  0.0481 -0.2245 -0.3721
  146MOL0     C19590  -0.259   6.401   5.495 -0.4280  0.0844 -0.3773
  146MOL0     C19591  -0.115   6.399   5.546  1.7176 -0.2581 -0.1234
  146MOL0     N19592  -0.112   6.313   5.661 -0.7875 -0.6006 -0.6961
  146MOL0     C19593  -0.168   6.343   5.788 -0.7569 -0.4884 -0.8846
  146MOL0     C19594  -0.162   6.221   5.846  0.1741  0.8115 -0.1942
  146MOL0     C19595  -0.188   6.176   5.987  0.4632  0.0543  0.2652
  146MOL0     C19596  -0.326   6.110   6.003 -0.6287  0.7328  0.1614
  146MOL0     C19597  -0.346   6.059   6.149  0.1340  0.5173  0.0928
  146MOL0     C19598  -0.483   6.007   6.179 -0.7076 -0.0135 -0.3772
  146MOL0     O19599  -0.479   5.970   6.322 -0.0234 -0.3960 -0.0054
  146MOL0     C19600  -0.566   5.867   6.353 -0.2685 -0.2589  0.6939
  146MOL0     C19601  -0.646   5.789   6.274 -0.7460  0.2868  0.7980
  146MOL0     C19602  -0.722   5.685   6.323  0.2800  0.9396 -0.0400
  146MOL0     C19603  -0.801   5.601   6.219 -0.7852  0.2779 -0.6856
  146MOL0     C19604  -0.709   5.648   6.456  0.7001 -0.0929 -0.6472
  146MOL0     C19605  -0.779   5.535   6.517 -0.7366  0.1725 -0.2521
  146MOL0     O19606  -0.834   5.557   6.635  0.8644  0.5407 -0.4005
  146MOL0     C19607  -0.859   5.452   6.723  0.1027 -0.0275  1.6109
  146MOL0     C19608  -0.749   5.377   6.760 -0.8904 -0.3148  0.1372
  146MOL0     C19609  -0.755   5.254   6.834  0.3351 -0.9294  1.5181
  146MOL0     C19610  -0.888   5.203   6.873 -0.1726 -0.8687 -0.2338
  146MOL0     O19611  -0.902   5.102   6.956  0.2098  0.7035 -0.6433
  146MOL0     C19612  -1.027   5.085   7.026  0.2584 -0.0032 -0.7538
  146MOL0     C19613  -1.003   4.991   7.154 -0.4830 -0.2063  0.1782
  146MOL0     C19614  -0.916   5.042   7.266  0.8182  0.3265 -0.8370
  146MOL0     C19615  -0.970   4.998   7.408  0.5473 -0.4477  0.3312
  146MOL0     C19616  -0.942   4.851   7.444  0.2174 -0.1637 -0.0514
  146MOL0     C19617  -0.807   4.822   7.495  0.5105  1.6685  0.0552
  146MOL0     C19618  -0.788   4.664   7.510  0.3058 -0.7004 -0.2510
  146MOL0     C19619  -0.739   4.593   7.378 -0.0123  0.6198  0.4149
  146MOL0    Cl19620  -0.688   4.425   7.414 -0.0063  0.2232 -0.1801
  146MOL0     C19621  -0.995   5.277   6.825  0.3652 -0.1765 -0.0254
  146MOL0     C19622  -0.985   5.395   6.748 -0.0843 -0.1923  0.6451
  146MOL0     O19623  -0.748   5.422   6.471  0.8285 -0.0930 -0.2665
  146MOL0     C19624  -0.637   5.732   6.540  0.0794 -0.0924 -0.1777
  146MOL0     C19625  -0.562   5.836   6.485 -0.9033 -0.3539 -0.4363
  146MOL0     N19626  -0.107   6.122   5.763  0.3758 -0.6417  0.1532
  146MOL0     N19627  -0.078   6.183   5.650 -0.2445 -0.9166 -0.6335
  146MOL0     C19628   0.343   6.189   4.788  0.2625  0.4966  0.2507
  146MOL0     C19629   0.458   6.139   4.726  0.6610 -0.3351 -0.5931
  146MOL0     C19630   0.703   6.023   4.348  0.5677  0.2315 -1.3500
  146MOL0     C19631   0.691   5.936   4.247 -0.4573 -0.2814  0.3519
  146MOL0     C19632   0.802   5.883   4.171  0.4346 -0.5727 -0.2055
  146MOL0     C19633   0.930   5.926   4.203  0.5671  0.5072  0.2287
  146MOL0     O19634   1.046   5.882   4.152 -0.0459  0.6086  0.9277
  146MOL0     C19635   1.060   5.766   4.066  0.8649 -0.4818  1.5697
  146MOL0     C19636   1.191   5.798   3.987  0.4143  0.1355 -1.1284
  146MOL0     C19637   1.247   5.669   3.938  0.2445  0.2950  0.4675
  146MOL0     C19638   1.372   5.683   3.851 -0.3825 -0.4536  0.3074
  146MOL0     C19639   1.344   5.707   3.718 -0.6530  0.0955 -0.0753
  146MOL0     C19640   1.326   5.734   3.598  0.4872 -0.3917 -0.1563
  146MOL0     C19641   0.944   6.015   4.313  0.5996  0.4168  0.0897
  146MOL0     C19642   0.835   6.058   4.383 -0.7800 -1.0106  1.1770
  146MOL0     H19643   0.480   6.361   4.470  0.0461  3.4064  1.3005
  146MOL0     H19644   0.261   6.442   4.591  0.8445 -0.5948 -0.6435
  146MOL0     H19645   0.052   6.216   4.869  1.5535 -0.1605 -2.5946
  146MOL0     H19646   0.173   6.256   4.980 -0.8763  1.6972  1.8968
  146MOL0     H19647   0.075   6.452   5.065  1.8195 -1.7035  0.5017
  146MOL0     H19648  -0.061   6.452   4.942 -0.0692 -0.6373 -1.8194
  146MOL0     H19649  -0.160   6.258   5.019  1.7234 -2.2042  1.2198
  146MOL0     H19650  -0.024   6.202   5.119  0.5873  0.8755  1.9054
  146MOL0     H19651  -0.065   6.401   5.267  0.0316 -0.3867 -1.8033
  146MOL0     H19652  -0.221   6.425   5.191 -1.2426 -0.1854  1.0760
  146MOL0     H19653  -0.266   6.181   5.220  0.4964  0.5967 -0.4392
  146MOL0     H19654  -0.123   6.179   5.328  0.4555  1.5184  3.1017
  146MOL0     H19655  -0.394   6.319   5.367  0.2877 -0.0367 -0.7647
  146MOL0     H19656  -0.309   6.187   5.463 -3.7983 -1.9426 -3.3860
  146MOL0     H19657  -0.275   6.493   5.438 -1.4770  0.7261  0.8900
  146MOL0     H19658  -0.331   6.404   5.578 -0.2507 -4.2063  0.1529
  146MOL0     H19659  -0.102   6.505   5.570 -0.2917 -0.0108  0.0530
  146MOL0     H19660  -0.038   6.371   5.473  2.5183  0.1095  0.5628
  146MOL0     H19661  -0.209   6.434   5.830 -1.6410 -0.0499 -2.5951
  146MOL0     H19662  -0.108   6.107   6.017  0.3462 -0.8352 -1.3784
  146MOL0     H19663  -0.197   6.261   6.054 -0.6607  1.3126 -1.4044
  146MOL0     H19664  -0.329   6.021   5.940  2.7794 -0.3304  1.2932
  146MOL0     H19665  -0.402   6.181   5.968 -2.4062 -0.6653  1.0095
  146MOL0     H19666  -0.348   6.137   6.226 -2.9560  1.6328 -0.9747
  146MOL0     H19667  -0.280   5.975   6.174 -0.5157 -0.3978 -1.1553
  146MOL0     H19668  -0.497   5.925   6.108  3.4489 -1.2813  0.0493
  146MOL0     H19669  -0.552   6.090   6.158 -4.0220 -2.5008 -0.2769
  146MOL0     H19670  -0.664   5.811   6.169  0.7074  1.2787  0.7344
  146MOL0     H19671  -0.903   5.641   6.210 -0.4511  1.6096  0.9551
  146MOL0     H19672  -0.756   5.601   6.119  0.3234  2.6427 -0.2684
  146MOL0     H19673  -0.819   5.497   6.245 -1.4633  0.1526 -1.6197
  146MOL0     H19674  -0.649   5.414   6.741 -1.7983  1.0697 -2.4875
  146MOL0     H19675  -0.658   5.212   6.859  1.0601 -0.9172 -0.9765
  146MOL0     H19676  -1.063   5.181   7.063  2.2050  0.5866 -0.2818
  146MOL0     H19677  -1.100   5.046   6.954 -0.3585  0.2854 -0.2915
  146MOL0     H19678  -1.100   4.977   7.203  0.6572  1.1929  3.0880
  146MOL0     H19679  -0.962   4.894   7.127 -1.5344 -0.9482  1.1371
  146MOL0     H19680  -0.911   5.151   7.260  1.3458  0.2823 -1.1802
  146MOL0     H19681  -0.814   5.005   7.252  0.8878  0.0831  0.2210
  146MOL0     H19682  -0.917   5.056   7.484 -0.0838  0.7582 -0.1166
  146MOL0     H19683  -1.078   5.015   7.409  0.8756  2.0814  2.0642
  146MOL0     H19684  -0.962   4.774   7.368  0.1715 -2.0045  1.7270
  146MOL0     H19685  -1.002   4.817   7.528  0.4064 -0.6357 -0.1012
  146MOL0     H19686  -0.740   4.870   7.424  0.8590  0.7845 -0.2362
  146MOL0     H19687  -0.784   4.860   7.595  3.9426 -3.0257  1.4168
  146MOL0     H19688  -0.880   4.618   7.546 -0.7235  2.3441  1.4209
  146MOL0     H19689  -0.709   4.655   7.585  1.0255  1.5165 -0.6457
  146MOL0     H19690  -0.655   4.651   7.338 -0.0010  0.9237  0.8770
  146MOL0     H19691  -0.827   4.603   7.312 -2.1363  3.0722  3.3152
  146MOL0     H19692  -1.094   5.235   6.845 -0.6670  2.1345 -0.0370
  146MOL0     H19693  -1.072   5.447   6.710 -1.0955 -1.9232  0.5002
  146MOL0     H19694  -0.625   5.698   6.643  1.5927 -0.4371 -0.4540
  146MOL0     H19695  -0.486   5.877   6.551 -0.8304 -0.5136 -0.4209
  146MOL0     H19696   0.307   6.126   4.868  0.5104 -0.3491 -0.2918
  146MOL0     H19697   0.509   6.050   4.761 -0.3197 -0.8978 -0.5601
  146MOL0     H19698   0.587   5.921   4.220  0.0075  0.4508 -2.0761
  146MOL0     H19699   0.782   5.826   4.080  0.4221 -1.1314  0.1456
  146MOL0     H19700   1.063   5.678   4.130  2.0158 -2.2019 -0.7338
  146MOL0     H19701   0.976   5.767   3.995  0.9729  2.3140  1.3664
  146MOL0     H19702   1.275   5.842   4.041  2.0313 -2.0446 -1.7128
  146MOL0     H19703   1.169   5.870   3.908 -0.8197  1.9621  0.7829
  146MOL0     H19704   1.168   5.621   3.879 -0.8797  0.0650  2.1070
  146MOL0     H19705   1.267   5.613   4.029  1.3690  0.9042  0.6129
  146MOL0     H19706   1.426   5.588   3.848 -0.2597 -0.4076  0.9189
  146MOL0     H19707   1.440   5.757   3.894 -0.7845  0.0002  0.1858
  146MOL0     H19708   1.304   5.762   3.497  0.5186 -0.8356 -0.2911
  146MOL0     H19709   1.049   6.024   4.339  0.6713  0.4472 -0.2103
  146MOL0     H19710   0.846   6.116   4.474 -2.8446 -0.4585  1.1192
  147MOL0     O19711   5.723   6.777   9.588  0.0728 -0.9270  0.3683
  147MOL0     C19712   5.746   6.737   9.698 -0.1605 -0.1970 -0.7815
  147MOL0     O19713   5.647   6.687   9.789 -0.2510 -0.4670 -0.2346
  147MOL0     C19714   5.516   6.659   9.762 -0.1864 -0.7549 -0.8855
  147MOL0     C19715   5.441   6.628   9.880  0.0734 -0.0046  0.0292
  147MOL0     C19716   5.314   6.588   9.869  0.3177 -0.3163  0.3026
  147MOL0     C19717   5.251   6.607   9.750  0.5957  0.3420 -0.1907
  147MOL0     O19718   5.123   6.576   9.738  0.2903 -0.0830 -0.8197
  147MOL0     C19719   5.040   6.683   9.689 -0.4678 -0.7996 -0.0469
  147MOL0     C19720   4.896   6.639   9.691  1.1698  0.1007 -0.6961
  147MOL0     C19721   4.845   6.568   9.820 -0.4414 -0.2050  0.4747
  147MOL0     C19722   4.718   6.483   9.796  0.4605  0.2321  0.0981
  147MOL0     C19723   4.669   6.395   9.904 -1.0624 -0.0562 -0.1644
  147MOL0     C19724   4.537   6.321   9.872 -0.2272  1.0243  0.2146
  147MOL0     C19725   4.487   6.235   9.999 -0.5668 -0.1077  0.7394
  147MOL0     C19726   4.352   6.167   9.953  0.4505  0.3672 -0.4962
  147MOL0     N19727   4.310   6.061  10.042 -1.1867 -0.0022  0.4445
  147MOL0     C19728   4.202   6.067  10.113  0.6836  0.6635  0.3834
  147MOL0     C19729   4.202   5.952  10.191  0.3833  0.6567  0.4961
  147MOL0     C19730   4.098   5.916  10.300 -0.1326 -0.3744  0.3537
  147MOL0     C19731   4.010   5.804  10.268 -0.0875  0.7011 -0.0613
  147MOL0     C19732   4.087   5.668  10.257  0.2762 -0.0654  0.1997
  147MOL0     C19733   3.995   5.554  10.226  0.4820  0.2571  0.2517
  147MOL0     O19734   3.921   5.587  10.105 -0.5323  0.1354 -0.6712
  147MOL0     C19735   3.817   5.500  10.073  0.1349  0.4425  0.0050
  147MOL0     C19736   3.788   5.384  10.142  0.0986  0.0758  0.0121
  147MOL0     C19737   3.684   5.295  10.099 -0.0215  0.2181 -0.8562
  147MOL0     C19738   3.659   5.175  10.186 -0.9273 -0.5450 -0.0976
  147MOL0     C19739   3.614   5.318   9.979 -0.5481 -0.8413 -0.1108
  147MOL0     C19740   3.516   5.219   9.913 -0.0883  0.0361  0.1465
  147MOL0     O19741   3.424   5.263   9.826  0.2019 -0.1873  0.4415
  147MOL0     C19742   3.340   5.191   9.748  0.9863  0.7395 -0.3434
  147MOL0     C19743   3.335   5.051   9.722  0.0899 -0.6442 -0.2325
  147MOL0     C19744   3.233   5.000   9.638 -0.4386 -0.0951  0.6685
  147MOL0     C19745   3.128   5.078   9.580  0.2696  0.2370  0.1769
  147MOL0     O19746   3.035   5.003   9.502 -0.4858  0.2934  0.1706
  147MOL0     C19747   2.928   5.084   9.443  0.9316  0.3115  0.0570
  147MOL0     C19748   2.968   5.171   9.313 -0.4553  0.7240  0.0495
  147MOL0     C19749   2.896   5.307   9.312  0.3232  0.3897 -0.4167
  147MOL0     C19750   2.972   5.395   9.207 -1.2844  0.3396  0.3289
  147MOL0     C19751   2.938   5.541   9.203  0.1367  0.4801  0.6605
  147MOL0     C19752   2.959   5.624   9.334 -0.5206  0.8863  0.2720
  147MOL0     C19753   2.901   5.761   9.306  0.6820  0.4328 -0.3541
  147MOL0     C19754   2.996   5.859   9.239 -1.0849 -0.2635 -0.6801
  147MOL0    Cl19755   3.153   5.897   9.333  0.6258  0.0160 -0.0720
  147MOL0     C19756   3.131   5.217   9.617 -0.1236  0.4399  0.5926
  147MOL0     C19757   3.235   5.268   9.694  0.3539  0.0619 -0.2022
  147MOL0     O19758   3.528   5.103   9.939 -0.2970  0.6056 -0.0837
  147MOL0     C19759   3.658   5.428   9.910  0.2850 -0.2222  0.7197
  147MOL0     C19760   3.750   5.526   9.959 -0.2393  0.5636  0.5473
  147MOL0     N19761   4.312   5.874  10.144 -0.1067 -0.4436  0.0281
  147MOL0     N19762   4.373   5.939  10.049 -0.5587 -0.2188  0.0169
  147MOL0     C19763   5.318   6.642   9.625 -0.6911  0.3974 -0.6794
  147MOL0     C19764   5.455   6.666   9.640 -0.4760 -0.1894 -0.7108
  147MOL0     C19765   5.886   6.742   9.761 -0.5749 -0.9881  0.9215
  147MOL0     C19766   5.902   6.722   9.895 -0.4926  0.7678  0.5783
  147MOL0     C19767   6.028   6.731   9.950  0.6311 -0.4558 -0.3054
  147MOL0     C19768   6.139   6.737   9.873 -0.1868 -0.3912  0.4370
  147MOL0     O19769   6.271   6.748   9.920  0.1279  0.3199  0.6546
  147MOL0     C19770   6.295   6.826  10.034  0.2350  0.1232 -0.3769
  147MOL0     C19771   6.332   6.971   9.987  0.0482  0.3100 -0.1980
  147MOL0     C19772   6.443   6.964   9.872  0.5932  0.0003  0.2775
  147MOL0     C19773   6.526   7.091   9.843 -0.2134  0.3420 -0.3598
  147MOL0     C19774   6.443   7.203   9.792  1.1151  0.0130 -0.0814
  147MOL0     C19775   6.373   7.291   9.755  0.3309  0.1858  0.3920
  147MOL0     C19776   6.127   6.755   9.735  0.0788  0.7497 -0.3405
  147MOL0     C19777   6.002   6.760   9.673  0.5988  0.2208  0.3006
  147MOL0     H19778   5.490   6.613   9.975 -0.9577 -0.5493  0.4928
  147MOL0     H19779   5.272   6.551   9.962  1.1199  0.3333  0.9352
  147MOL0     H19780   5.065   6.763   9.759  0.2025 -1.8335  0.9324
  147MOL0     H19781   5.065   6.728   9.593  0.3468  0.3324  0.6799
  147MOL0     H19782   4.820   6.712   9.662 -0.5679 -1.0041  0.8551
  147MOL0     H19783   4.890   6.557   9.618  0.0153 -1.8970  1.4897
  147MOL0     H19784   4.925   6.512   9.869  0.5963  2.1603  1.6425
  147MOL0     H19785   4.825   6.656   9.883  2.8430  0.7029  0.4288
  147MOL0     H19786   4.638   6.552   9.768  0.2251  0.2666  0.8401
  147MOL0     H19787   4.737   6.415   9.713  0.1052  2.1303 -1.5983
  147MOL0     H19788   4.747   6.323   9.929  0.8038  1.7624 -0.5527
  147MOL0     H19789   4.653   6.465   9.986  1.6219 -0.4786  0.8110
  147MOL0     H19790   4.460   6.395   9.847  0.9160  2.8027  1.7013
  147MOL0     H19791   4.567   6.255   9.790  3.5599  1.3174  1.1784
  147MOL0     H19792   4.565   6.164  10.029 -1.9001 -1.3911  1.2817
  147MOL0     H19793   4.471   6.301  10.084  0.5640 -0.5734  1.3462
  147MOL0     H19794   4.372   6.128   9.853  0.5866  0.7869 -0.6352
  147MOL0     H19795   4.278   6.248   9.948 -0.5314 -0.1204  3.0506
  147MOL0     H19796   4.125   6.144  10.118 -1.2134 -1.1654  0.8532
  147MOL0     H19797   4.154   5.897  10.392 -0.2421  1.3348  0.8016
  147MOL0     H19798   4.034   6.004  10.310  0.1435 -0.1455  0.1256
  147MOL0     H19799   3.958   5.827  10.174  1.0100 -3.0702 -1.7666
  147MOL0     H19800   3.929   5.797  10.342  2.0519  0.1104  2.3610
  147MOL0     H19801   4.145   5.643  10.346 -0.3030 -1.5459  0.1860
  147MOL0     H19802   4.157   5.673  10.173 -2.7660 -2.6941 -2.8154
  147MOL0     H19803   3.929   5.546  10.313 -1.6700 -0.5106 -1.3680
  147MOL0     H19804   4.056   5.467  10.202  2.0499  1.3000  0.2742
  147MOL0     H19805   3.855   5.349  10.219 -0.3217  0.5083  0.5783
  147MOL0     H19806   3.554   5.148  10.201 -1.4262  1.7658  1.1850
  147MOL0     H19807   3.721   5.099  10.138 -1.0385 -0.0903 -0.9693
  147MOL0     H19808   3.688   5.194  10.290 -1.6061  0.6986 -0.1089
  147MOL0     H19809   3.413   4.986   9.760  0.4118  0.6866  1.4970
  147MOL0     H19810   3.238   4.893   9.622 -2.5039 -0.3960  1.6799
  147MOL0     H19811   2.846   5.018   9.413  0.3378  1.6276 -1.3558
  147MOL0     H19812   2.888   5.155   9.516  1.8920 -0.2925  1.1999
  147MOL0     H19813   3.077   5.178   9.318 -0.2673 -1.2304 -0.7308
  147MOL0     H19814   2.947   5.114   9.222 -1.5973  2.2883 -0.7081
  147MOL0     H19815   2.897   5.347   9.414  0.7933 -0.6661  0.0119
  147MOL0     H19816   2.794   5.295   9.275 -0.5616 -2.3124  2.4413
  147MOL0     H19817   3.077   5.383   9.236 -1.4574 -0.5164  0.6252
  147MOL0     H19818   2.954   5.353   9.108 -1.5590 -1.0425  0.9282
  147MOL0     H19819   2.834   5.557   9.171  0.7230  3.4761 -0.0547
  147MOL0     H19820   2.991   5.584   9.118 -1.5293 -2.6074 -2.2166
  147MOL0     H19821   2.927   5.575   9.426  0.7852  0.0387  0.3058
  147MOL0     H19822   3.066   5.638   9.351 -0.8384  0.9636  2.5591
  147MOL0     H19823   2.859   5.795   9.401  1.6332  5.1309 -1.3736
  147MOL0     H19824   2.809   5.764   9.246  0.2517 -0.2812  0.2524
  147MOL0     H19825   2.938   5.951   9.229 -2.8573 -1.2889 -0.2308
  147MOL0     H19826   3.030   5.819   9.144  3.3033  2.0695 -0.3674
  147MOL0     H19827   3.062   5.290   9.576  1.5238  1.6084 -0.2175
  147MOL0     H19828   3.234   5.375   9.712 -0.0751 -0.2862  2.2697
  147MOL0     H19829   3.627   5.458   9.810 -0.0010 -2.2454  0.1685
  147MOL0     H19830   3.759   5.622   9.911 -5.3075  0.2901 -1.5217
  147MOL0     H19831   5.275   6.644   9.526 -3.2701  0.8184  0.3800
  147MOL0     H19832   5.518   6.691   9.555  1.2686  1.7924  1.0434
  147MOL0     H19833   5.827   6.695   9.969  0.8234  0.6885  1.9289
  147MOL0     H19834   6.035   6.713  10.057 -2.6927  0.3801  0.1520
  147MOL0     H19835   6.201   6.822  10.090 -1.4194  1.3361 -2.8656
  147MOL0     H19836   6.381   6.787  10.088 -0.5254  2.8078  3.1452
  147MOL0     H19837   6.367   7.027  10.075 -1.3303 -0.3542  0.8118
  147MOL0     H19838   6.251   7.021   9.932  1.1232  0.0251 -2.1124
  147MOL0     H19839   6.399   6.943   9.774  0.5191  1.5884 -0.0610
  147MOL0     H19840   6.516   6.888   9.901  1.2028  1.0915  1.7562
  147MOL0     H19841   6.593   7.062   9.761  1.3928 -2.0769  1.6592
  147MOL0     H19842   6.587   7.121   9.928 -1.0767 -1.4299  0.9563
  147MOL0     H19843   6.320   7.371   9.708 -0.8577 -1.1704 -0.6415
  147MOL0     H19844   6.218   6.772   9.679  0.6229 -1.4833 -0.2465
  147MOL0     H19845   5.985   6.781   9.568  0.8697 -2.7148 -0.4139
  148MOL0     O19846   5.897   9.648   5.024 -0.8391  0.4102 -0.1906
  148MOL0     C19847   5.862   9.553   5.095 -0.6128  0.1254  0.2622
  148MOL0     O19848   5.941   9.447   5.122 -0.0961 -0.0385  0.0840
  148MOL0     C19849   6.075   9.459   5.120  0.1652 -0.9192  0.1459
  148MOL0     C19850   6.139   9.409   4.997 -0.5519  0.2333  0.0567
  148MOL0     C19851   6.284   9.415   5.000 -0.3761  0.2650  0.5661
  148MOL0     C19852   6.353   9.461   5.116 -0.8975 -0.1513  0.8843
  148MOL0     O19853   6.490   9.481   5.123  0.1647 -0.0071  0.0518
  148MOL0     C19854   6.567   9.532   5.014  0.1700  0.1850  0.4492
  148MOL0     C19855   6.569   9.684   5.017 -0.3110  0.0370 -0.0606
  148MOL0     C19856   6.433   9.742   4.968  0.6702 -0.7773  1.0196
  148MOL0     C19857   6.420   9.894   4.939 -0.2659  0.0304  0.2456
  148MOL0     C19858   6.282   9.958   4.971  0.8761 -0.3882  0.2716
  148MOL0     C19859   6.243   9.982   5.119  0.4314  1.0966  0.8765
  148MOL0     C19860   6.104  10.032   5.138 -0.0968  0.1494  0.3849
  148MOL0     C19861   5.994   9.937   5.082 -0.9840  0.5457 -0.4664
  148MOL0     N19862   5.858   9.985   5.113 -0.3796 -0.9549  0.4499
  148MOL0     C19863   5.797   9.981   5.236  0.4286  0.6160  0.7252
  148MOL0     C19864   5.700  10.069   5.232  0.0650 -0.2423 -0.1077
  148MOL0     C19865   5.605  10.109   5.339  0.5465 -0.2986 -0.3525
  148MOL0     C19866   5.658  10.229   5.412  0.3572  0.1708  0.7773
  148MOL0     C19867   5.637  10.220   5.566  0.5364  0.5740 -0.3416
  148MOL0     C19868   5.689  10.339   5.627 -0.0269  0.1468 -0.5629
  148MOL0     O19869   5.640  10.339   5.762  0.0144  0.6929  0.2271
  148MOL0     C19870   5.717  10.398   5.861  0.2807  0.1788  0.4216
  148MOL0     C19871   5.716  10.340   5.988 -0.4113 -0.8708  0.0447
  148MOL0     C19872   5.789  10.401   6.092  0.6254  0.1767  0.1895
  148MOL0     C19873   5.790  10.319   6.217  0.4346  0.3440 -0.4006
  148MOL0     C19874   5.873  10.518   6.067  0.9868  0.5895 -0.7146
  148MOL0     C19875   5.982  10.566   6.159 -0.6482 -0.2727  0.5275
  148MOL0     O19876   6.075  10.646   6.095  0.5599 -0.5007 -0.3661
  148MOL0     C19877   6.191  10.706   6.150  0.8968 -0.3990 -0.0684
  148MOL0     C19878   6.239  10.695   6.281 -0.4475  0.2536  0.2976
  148MOL0     C19879   6.334  10.783   6.314  0.4862 -0.9895  0.5306
  148MOL0     C19880   6.406  10.870   6.232  0.0686 -0.1578 -0.0394
  148MOL0     O19881   6.512  10.944   6.286  0.1776 -0.0085  0.1504
  148MOL0     C19882   6.603  11.021   6.205  0.2693  0.6368 -0.0258
  148MOL0     C19883   6.717  11.079   6.296 -0.2536  0.3887 -0.0759
  148MOL0     C19884   6.801  11.168   6.212  0.1259 -0.7601 -0.1497
  148MOL0     C19885   6.895  11.236   6.312  0.2311  0.2720 -0.9495
  148MOL0     C19886   6.950  11.376   6.287  0.4416  0.3368 -0.2200
  148MOL0     C19887   6.982  11.458   6.420 -0.3902 -0.6344  0.6454
  148MOL0     C19888   7.090  11.385   6.498 -0.1951 -0.1553  0.2772
  148MOL0     C19889   7.133  11.449   6.627 -0.1672  0.3864 -1.2120
  148MOL0    Cl19890   7.186  11.606   6.591  0.3785 -0.3827  0.7284
  148MOL0     C19891   6.376  10.862   6.096 -1.5665  0.1675 -0.2817
  148MOL0     C19892   6.262  10.786   6.055 -0.0941  0.1713 -1.2652
  148MOL0     O19893   5.993  10.513   6.270 -0.1983 -0.2587  0.6416
  148MOL0     C19894   5.848  10.588   5.947  1.3318 -0.1172  0.1327
  148MOL0     C19895   5.774  10.524   5.843 -0.0745 -0.9087 -0.6685
  148MOL0     N19896   5.703  10.147   5.122 -0.5384 -0.4181 -0.1736
  148MOL0     N19897   5.794  10.096   5.048  0.3584  0.5184 -0.8887
  148MOL0     C19898   6.285   9.501   5.233 -0.7369 -0.5259 -0.0285
  148MOL0     C19899   6.148   9.504   5.233  0.8624 -0.7497 -0.7457
  148MOL0     C19900   5.724   9.533   5.156 -0.0733  0.0490 -1.5249
  148MOL0     C19901   5.677   9.407   5.188  0.2535 -0.0605  0.0647
  148MOL0     C19902   5.553   9.377   5.227  0.4616 -0.9745  0.2861
  148MOL0     C19903   5.462   9.484   5.227  0.3866 -0.0468  1.5912
  148MOL0     O19904   5.336   9.461   5.276  0.6349  0.2059  0.4869
  148MOL0     C19905   5.335   9.491   5.417  0.0050 -0.7006  0.1322
  148MOL0     C19906   5.320   9.349   5.473  0.0040  0.1073 -0.0741
  148MOL0     C19907   5.199   9.268   5.422  0.4273 -0.2421  0.1506
  148MOL0     C19908   5.206   9.116   5.445 -0.9765 -0.2526  0.8769
  148MOL0     C19909   5.092   9.038   5.415  0.4817 -0.0271 -0.2416
  148MOL0     C19910   4.997   8.964   5.380 -0.8806  0.2150  0.8632
  148MOL0     C19911   5.503   9.613   5.205  0.2195  0.9727  0.0209
  148MOL0     C19912   5.636   9.640   5.167 -0.4869 -0.2104 -0.3019
  148MOL0     H19913   6.083   9.364   4.916 -1.1721 -1.1933  1.2454
  148MOL0     H19914   6.331   9.386   4.906 -1.2636  0.2013  0.1282
  148MOL0     H19915   6.668   9.494   5.030 -0.0948 -0.7812 -0.0550
  148MOL0     H19916   6.528   9.490   4.921  2.1352  1.9017 -1.2118
  148MOL0     H19917   6.600   9.723   5.114  2.8744  0.3185 -1.0712
  148MOL0     H19918   6.642   9.722   4.946 -0.0854  1.3319  0.8324
  148MOL0     H19919   6.395   9.690   4.880  1.8507  2.5661 -1.6912
  148MOL0     H19920   6.375   9.719   5.058  1.0962  0.4027  1.6259
  148MOL0     H19921   6.483   9.957   5.003 -1.9739  1.3792  0.6613
  148MOL0     H19922   6.438   9.910   4.832 -2.0148  1.2334  0.0877
  148MOL0     H19923   6.290  10.058   4.928  3.3774  1.3190  4.0951
  148MOL0     H19924   6.204   9.894   4.929  0.4404 -0.9517  1.8492
  148MOL0     H19925   6.264   9.893   5.180  1.2819 -0.3140 -1.3648
  148MOL0     H19926   6.312  10.057   5.158  0.4346  0.9790  1.1008
  148MOL0     H19927   6.088  10.044   5.245  1.6145 -0.7582  0.7746
  148MOL0     H19928   6.098  10.133   5.097  3.6600  1.0518  1.6956
  148MOL0     H19929   6.006   9.832   5.111  0.8380 -0.4746 -4.1593
  148MOL0     H19930   6.008   9.928   4.974 -0.0300  1.5739 -0.4480
  148MOL0     H19931   5.811   9.902   5.310 -0.6596  0.6389  0.9779
  148MOL0     H19932   5.507  10.132   5.297  0.9317  1.0988 -0.5482
  148MOL0     H19933   5.592  10.023   5.405 -1.3805 -0.6217 -1.0908
  148MOL0     H19934   5.620  10.325   5.376  2.4569  1.8610  2.7400
  148MOL0     H19935   5.767  10.232   5.400  0.2994 -1.5543 -0.6966
  148MOL0     H19936   5.685  10.128   5.602 -0.7277  0.7587  1.9411
  148MOL0     H19937   5.530  10.220   5.588  0.9929  0.3916  2.1292
  148MOL0     H19938   5.641  10.426   5.580 -3.0997  0.3477  2.5425
  148MOL0     H19939   5.798  10.343   5.621 -0.0402  1.3171 -0.3426
  148MOL0     H19940   5.661  10.246   5.994  1.6637 -2.0596  1.3314
  148MOL0     H19941   5.744  10.221   6.203  0.7034 -0.2074  2.0822
  148MOL0     H19942   5.893  10.289   6.234  0.0825 -0.6855 -0.0149
  148MOL0     H19943   5.746  10.355   6.311 -0.8350  1.0006 -1.2043
  148MOL0     H19944   6.210  10.619   6.353  1.9807 -2.1617 -1.0841
  148MOL0     H19945   6.375  10.774   6.415  1.6130  1.5644  0.4040
  148MOL0     H19946   6.644  10.960   6.124  1.0391 -0.2847  1.0191
  148MOL0     H19947   6.540  11.104   6.173  1.4746  1.8065  0.5203
  148MOL0     H19948   6.673  11.141   6.375 -1.9645  2.9115 -2.7544
  148MOL0     H19949   6.768  10.991   6.334 -3.7790 -1.1402  1.5823
  148MOL0     H19950   6.727  11.239   6.172  0.5860 -0.6933 -0.8950
  148MOL0     H19951   6.865  11.114   6.142  1.7313 -1.0729  1.4789
  148MOL0     H19952   6.837  11.249   6.405  0.8078  1.9901 -0.7894
  148MOL0     H19953   6.978  11.167   6.330 -1.7964 -2.1908 -0.4390
  148MOL0     H19954   6.867  11.434   6.245  0.0148  0.2249  0.4537
  148MOL0     H19955   7.026  11.379   6.208 -0.2416  2.7093 -0.8824
  148MOL0     H19956   7.000  11.565   6.407 -0.5223 -0.8071 -1.3513
  148MOL0     H19957   6.889  11.459   6.478 -0.0004  0.6334  1.2751
  148MOL0     H19958   7.181  11.369   6.439 -1.5980 -1.6600 -1.6357
  148MOL0     H19959   7.043  11.288   6.516 -0.8401  0.0220 -0.3780
  148MOL0     H19960   7.220  11.394   6.665 -1.5934 -0.9103  0.2959
  148MOL0     H19961   7.052  11.452   6.700 -0.1529  0.1040 -1.1825
  148MOL0     H19962   6.427  10.912   6.014  0.1409  0.9010  1.1395
  148MOL0     H19963   6.221  10.800   5.955 -2.1599  1.0420 -0.3479
  148MOL0     H19964   5.892  10.686   5.938 -0.5305  1.2266  3.6609
  148MOL0     H19965   5.774  10.582   5.751  0.4739  2.5195  1.3338
  148MOL0     H19966   6.347   9.535   5.316  1.7814  0.2691 -2.0853
  148MOL0     H19967   6.094   9.542   5.320 -1.8005 -3.5722 -0.9901
  148MOL0     H19968   5.736   9.316   5.192 -1.5432 -1.2923 -0.6148
  148MOL0     H19969   5.526   9.273   5.242  2.6225 -1.3433  2.1399
  148MOL0     H19970   5.429   9.531   5.457 -1.0109  1.2517  0.6764
  148MOL0     H19971   5.251   9.554   5.445 -0.6159 -0.7951 -1.4178
  148MOL0     H19972   5.317   9.353   5.582  0.1057  0.1309 -0.0723
  148MOL0     H19973   5.410   9.294   5.442 -1.2099 -0.9812 -1.8452
  148MOL0     H19974   5.189   9.281   5.314 -0.8468 -2.1069  0.0079
  148MOL0     H19975   5.107   9.303   5.469  0.7105  1.3921 -0.4454
  148MOL0     H19976   5.230   9.089   5.548 -1.0137 -0.3664  0.8551
  148MOL0     H19977   5.279   9.096   5.365 -1.6465  2.4424 -0.5357
  148MOL0     H19978   4.926   8.890   5.349 -2.7062  2.4359 -0.5617
  148MOL0     H19979   5.424   9.688   5.205 -2.0489 -1.2933 -1.0726
  148MOL0     H19980   5.673   9.741   5.155 -0.3538 -0.4078 -1.7707
  149MOL0     O19981   8.026   2.695   7.198 -0.2777 -0.6110 -0.0046
  149MOL0     C19982   7.951   2.757   7.275  0.0789  0.6068  0.3241
  149MOL0     O19983   7.826   2.805   7.245 -0.1095  0.0904  0.6358
  149MOL0     C19984   7.783   2.779   7.118 -0.6466  0.2453  0.7073
  149MOL0     C19985   7.724   2.883   7.050 -0.0848  0.8060  0.4284
  149MOL0     C19986   7.647   2.854   6.927 -1.1792  0.1919  0.3157
  149MOL0     C19987   7.662   2.735   6.860 -0.2713  0.0319 -0.0513
  149MOL0     O19988   7.612   2.721   6.738 -0.5645 -0.2450  0.4663
  149MOL0     C19989   7.643   2.598   6.664  0.3371  0.8031 -0.2423
  149MOL0     C19990   7.612   2.625   6.514  0.0996 -0.1301 -0.8461
  149MOL0     C19991   7.478   2.588   6.460 -1.5349  0.7122  0.1195
  149MOL0     C19992   7.437   2.667   6.339 -0.2195  0.3222 -0.4691
  149MOL0     C19993   7.288   2.663   6.325 -0.2309  0.1965  0.4767
  149MOL0     C19994   7.225   2.707   6.184 -0.0459  0.0213 -0.4335
  149MOL0     C19995   7.247   2.857   6.157 -0.5725  0.0918  0.6148
  149MOL0     C19996   7.188   2.955   6.264  0.0129 -0.2398 -0.2023
  149MOL0     N19997   7.050   2.926   6.288  0.1536  0.4346 -0.7391
  149MOL0     C19998   6.944   2.987   6.215  0.1595 -0.2369  0.0036
  149MOL0     C19999   6.840   2.981   6.298  0.4204 -0.5541 -0.0920
  149MOL0     C20000   6.700   3.042   6.265  0.8074  0.7368 -0.4235
  149MOL0     C20001   6.631   2.952   6.162 -0.0095  0.0922 -0.5460
  149MOL0     C20002   6.484   2.986   6.152  0.5681 -0.1831 -0.2751
  149MOL0     C20003   6.412   2.917   6.040 -0.4550  0.3789 -0.9753
  149MOL0     O20004   6.336   2.806   6.093 -0.0709 -0.0668 -0.3837
  149MOL0     C20005   6.275   2.718   6.013  0.0761 -0.2610  0.9027
  149MOL0     C20006   6.211   2.610   6.060  0.4340  0.8629  0.1657
  149MOL0     C20007   6.128   2.525   5.982  0.3231 -0.6876 -0.6598
  149MOL0     C20008   6.037   2.432   6.056 -0.5247  0.8864 -0.4791
  149MOL0     C20009   6.141   2.535   5.838  0.0932 -0.0020 -0.4894
  149MOL0     C20010   6.080   2.438   5.744 -0.1099  0.0374 -0.1560
  149MOL0     O20011   6.142   2.438   5.632  0.1143  0.5610 -0.3330
  149MOL0     C20012   6.097   2.383   5.516 -0.6300 -0.5647  0.1891
  149MOL0     C20013   6.016   2.260   5.511  0.0569 -0.3701  0.0829
  149MOL0     C20014   5.988   2.195   5.392 -0.4155 -0.3129 -0.0794
  149MOL0     C20015   6.024   2.267   5.274 -0.1270  0.0749 -0.1477
  149MOL0     O20016   5.999   2.213   5.151  0.8209 -0.0777 -0.6086
  149MOL0     C20017   6.026   2.073   5.119 -0.0557  0.3098  0.3742
  149MOL0     C20018   6.007   2.082   4.966  0.4593  0.0829 -0.2303
  149MOL0     C20019   5.858   2.052   4.935  0.8031 -0.3476  0.1948
  149MOL0     C20020   5.830   1.907   4.946  0.3568  1.0024 -0.0018
  149MOL0     C20021   5.684   1.875   4.914 -0.9229  0.1973  0.0861
  149MOL0     C20022   5.653   1.725   4.903 -0.0498  0.3466  0.8241
  149MOL0     C20023   5.540   1.688   4.804  0.9579  0.2122  0.6898
  149MOL0     C20024   5.588   1.688   4.652 -0.5098  0.9858  0.4887
  149MOL0    Cl20025   5.698   1.541   4.637 -0.1099 -0.1973 -0.1755
  149MOL0     C20026   6.060   2.401   5.273  1.0536 -0.1727 -0.2867
  149MOL0     C20027   6.116   2.451   5.388 -0.4659 -0.3076  0.3807
  149MOL0     O20028   5.980   2.376   5.773 -0.0155  1.3966  0.6532
  149MOL0     C20029   6.196   2.653   5.788  0.5228 -0.0065  0.2317
  149MOL0     C20030   6.260   2.742   5.875  0.5095  0.2454  0.0146
  149MOL0     N20031   6.870   2.897   6.406 -0.5225 -0.5774 -0.2835
  149MOL0     N20032   6.992   2.865   6.398 -0.4922 -0.8565  0.0037
  149MOL0     C20033   7.740   2.635   6.927  0.6915  0.6374  0.1657
  149MOL0     C20034   7.778   2.647   7.056 -1.1681  0.0614 -0.7650
  149MOL0     C20035   7.994   2.772   7.414 -0.4650 -0.2386 -0.6994
  149MOL0     C20036   7.904   2.775   7.527  0.2677  0.3692  0.7078
  149MOL0     C20037   7.942   2.779   7.658 -0.3442 -0.4670 -0.7512
  149MOL0     C20038   8.083   2.773   7.686 -0.0288 -0.0572  0.4562
  149MOL0     O20039   8.145   2.749   7.802 -0.4609 -0.1548 -0.2703
  149MOL0     C20040   8.066   2.740   7.918 -0.4626 -0.6017 -0.4158
  149MOL0     C20041   8.079   2.867   7.992  0.6918 -0.9918  0.0180
  149MOL0     C20042   7.960   2.896   8.087 -0.4964 -0.1273  0.4477
  149MOL0     C20043   7.811   2.908   8.030 -0.8445  0.2291 -1.5159
  149MOL0     C20044   7.793   2.992   7.916  0.5219  0.5074 -0.1233
  149MOL0     C20045   7.791   3.059   7.814  0.0020 -0.2196 -0.7781
  149MOL0     C20046   8.172   2.778   7.581  0.4234  0.0182 -0.4647
  149MOL0     C20047   8.128   2.777   7.447 -0.8841 -0.2850  0.9962
  149MOL0     H20048   7.724   2.980   7.099  1.4234  0.3429  1.4378
  149MOL0     H20049   7.595   2.939   6.884  0.1647 -1.3850 -5.2655
  149MOL0     H20050   7.749   2.571   6.662  1.1955  3.8623  0.0795
  149MOL0     H20051   7.583   2.511   6.692  2.5120 -0.3681  1.0980
  149MOL0     H20052   7.645   2.727   6.491  3.2519 -0.7406  0.4126
  149MOL0     H20053   7.688   2.571   6.456  0.6990 -1.4508  1.0619
  149MOL0     H20054   7.475   2.482   6.434  2.2745  0.3621  0.5658
  149MOL0     H20055   7.399   2.619   6.529 -3.8728 -0.7786 -1.7683
  149MOL0     H20056   7.470   2.771   6.344 -1.1382  0.5965  0.2596
  149MOL0     H20057   7.481   2.622   6.250  0.6116  1.8301 -0.8699
  149MOL0     H20058   7.253   2.560   6.339  1.8862 -0.7834 -0.9433
  149MOL0     H20059   7.236   2.719   6.404 -1.7962  0.2446 -0.5427
  149MOL0     H20060   7.260   2.654   6.095  1.5089  0.0857  0.1010
  149MOL0     H20061   7.119   2.681   6.184 -0.4028  1.1683 -3.1553
  149MOL0     H20062   7.357   2.857   6.163 -0.5761 -2.1223  1.6874
  149MOL0     H20063   7.219   2.893   6.057  0.2270  2.2507  1.1063
  149MOL0     H20064   7.216   3.057   6.236  1.7320 -1.5107 -3.7858
  149MOL0     H20065   7.247   2.942   6.355  1.6633 -4.6023 -1.6345
  149MOL0     H20066   6.952   3.035   6.118 -1.9904 -0.1382 -0.1768
  149MOL0     H20067   6.643   3.059   6.357  1.5962  1.4762 -0.0531
  149MOL0     H20068   6.701   3.147   6.235  1.0542  1.2545  1.2773
  149MOL0     H20069   6.636   2.852   6.207  0.7366  0.8635  1.1588
  149MOL0     H20070   6.674   2.967   6.062  2.6417  0.6776  0.5847
  149MOL0     H20071   6.471   3.092   6.128 -1.0303 -0.7944 -2.4409
  149MOL0     H20072   6.430   2.968   6.245  0.6673  0.3657 -0.1118
  149MOL0     H20073   6.479   2.884   5.960 -2.5380 -0.5160 -2.4357
  149MOL0     H20074   6.342   2.987   5.994 -0.4003  3.8392  3.5145
  149MOL0     H20075   6.199   2.599   6.167 -3.5333 -2.3885 -0.3656
  149MOL0     H20076   6.028   2.341   5.996  3.6264 -0.9498  1.2980
  149MOL0     H20077   6.081   2.378   6.141 -1.9535  0.9820  0.3557
  149MOL0     H20078   5.944   2.483   6.084 -1.6392 -1.0436 -0.4635
  149MOL0     H20079   6.001   2.219   5.610  1.9572  3.4531  2.1859
  149MOL0     H20080   5.945   2.096   5.387  1.4225 -1.2647  1.5461
  149MOL0     H20081   6.128   2.048   5.149 -1.2073 -3.1509  1.9313
  149MOL0     H20082   5.957   2.000   5.162 -1.6364  1.9503  0.7096
  149MOL0     H20083   6.031   2.178   4.919 -2.7956  0.5326 -1.2797
  149MOL0     H20084   6.077   2.018   4.912  1.5176  2.9689 -2.5876
  149MOL0     H20085   5.831   2.081   4.833  2.2950  0.3661 -0.0182
  149MOL0     H20086   5.796   2.106   5.008  1.5154 -0.8123  1.1740
  149MOL0     H20087   5.901   1.865   4.874  1.1345  0.8907  0.7989
  149MOL0     H20088   5.842   1.864   5.046 -0.2655  0.1814 -0.2711
  149MOL0     H20089   5.654   1.927   4.822 -0.2979 -2.4199 -1.7109
  149MOL0     H20090   5.627   1.914   4.998 -0.2966  0.0331  0.5970
  149MOL0     H20091   5.738   1.662   4.876 -1.6444 -3.2345  3.2558
  149MOL0     H20092   5.630   1.699   5.007  0.8890  0.0373  0.9649
  149MOL0     H20093   5.445   1.740   4.817  0.5456 -0.6134  1.1112
  149MOL0     H20094   5.516   1.583   4.826 -0.5968  0.5171  0.5666
  149MOL0     H20095   5.642   1.780   4.626 -3.0831  1.8936 -2.1653
  149MOL0     H20096   5.502   1.681   4.585  1.3892 -3.2766 -1.9028
  149MOL0     H20097   6.050   2.461   5.183  2.8004 -0.9124 -0.9934
  149MOL0     H20098   6.162   2.550   5.386  1.4877 -1.1774 -1.8684
  149MOL0     H20099   6.195   2.668   5.680  4.7220 -3.3374 -0.5403
  149MOL0     H20100   6.285   2.838   5.831 -2.6300  1.6515  1.0605
  149MOL0     H20101   7.758   2.536   6.886  0.5585  0.2697  0.9737
  149MOL0     H20102   7.821   2.568   7.116  0.8358 -0.0142 -2.1666
  149MOL0     H20103   7.797   2.780   7.510 -0.0203  0.3496  2.3484
  149MOL0     H20104   7.868   2.769   7.736 -1.8540 -0.3175 -2.1226
  149MOL0     H20105   7.964   2.708   7.895 -1.6338  2.0783  0.6061
  149MOL0     H20106   8.098   2.650   7.972 -2.3695 -2.4035 -2.0743
  149MOL0     H20107   8.087   2.954   7.925  0.4645  0.5449  1.9095
  149MOL0     H20108   8.168   2.877   8.054  1.4748 -0.1116 -1.2059
  149MOL0     H20109   7.984   2.982   8.149 -0.1507  0.4313 -0.4426
  149MOL0     H20110   7.940   2.804   8.143 -3.3787 -0.9302 -1.6385
  149MOL0     H20111   7.754   2.948   8.114 -0.7750  2.6614 -2.5694
  149MOL0     H20112   7.774   2.809   8.001 -1.4854  0.3992 -1.3172
  149MOL0     H20113   7.804   3.127   7.732  2.2240 -0.7029 -0.8732
  149MOL0     H20114   8.272   2.796   7.618  0.0251  0.3081  0.5112
  149MOL0     H20115   8.207   2.786   7.374 -2.3742  0.3641 -0.6229
  150MOL0     O20116   5.033   3.146   3.339  0.3405 -0.5211  0.0622
  150MOL0     C20117   4.925   3.082   3.333  0.3712 -0.9977  0.2174
  150MOL0     O20118   4.872   3.021   3.217 -0.1953  0.1917 -0.2217
  150MOL0     C20119   4.973   2.982   3.123 -0.3824 -0.8846 -0.0628
  150MOL0     C20120   5.024   2.856   3.110  0.2444  0.8857 -0.2956
  150MOL0     C20121   5.119   2.826   3.009  0.7509  0.8350  0.8018
  150MOL0     C20122   5.150   2.922   2.915 -0.9472 -0.0159  0.3185
  150MOL0     O20123   5.248   2.891   2.819 -1.1791  0.5709 -0.2340
  150MOL0     C20124   5.369   2.977   2.805  0.8773  0.3560  0.8724
  150MOL0     C20125   5.456   2.985   2.928 -0.2853  0.4222 -0.7183
  150MOL0     C20126   5.593   3.050   2.888 -1.0919  0.0382 -0.1679
  150MOL0     C20127   5.693   3.041   3.004  0.2333 -0.2603  0.6236
  150MOL0     C20128   5.793   3.144   2.965 -0.1271 -0.3144  0.7630
  150MOL0     C20129   5.929   3.128   3.041  0.3365 -1.0148  0.1356
  150MOL0     C20130   6.034   3.243   3.024 -0.5436  0.0065 -0.2161
  150MOL0     C20131   5.963   3.383   3.038 -1.1983 -0.3480  1.2088
  150MOL0     N20132   6.040   3.503   3.045 -1.0851 -0.1725 -0.6939
  150MOL0     C20133   6.077   3.554   3.172  0.0045  0.2004  0.5459
  150MOL0     C20134   6.159   3.657   3.138 -0.8006 -0.1414 -0.5965
  150MOL0     C20135   6.232   3.742   3.242 -0.5473 -0.8783  0.2774
  150MOL0     C20136   6.359   3.668   3.297 -0.9529  0.0543  0.5792
  150MOL0     C20137   6.462   3.759   3.376  0.8037 -0.3867  0.4184
  150MOL0     C20138   6.593   3.691   3.402  0.1601  0.2530  0.4099
  150MOL0     O20139   6.677   3.781   3.490  0.2185  0.2862  0.7427
  150MOL0     C20140   6.756   3.875   3.429 -0.3704 -0.7463  0.2966
  150MOL0     C20141   6.755   3.908   3.293  0.5131  0.0512  0.2587
  150MOL0     C20142   6.820   4.026   3.246  1.2330 -0.2388 -0.8981
  150MOL0     C20143   6.808   4.057   3.101  0.4435  0.6994 -0.6268
  150MOL0     C20144   6.913   4.084   3.329 -0.5823 -0.5619  1.2531
  150MOL0     C20145   6.997   4.206   3.291  0.5921 -0.0073 -0.7188
  150MOL0     O20146   6.916   4.298   3.222 -0.6817 -0.2962  0.4353
  150MOL0     C20147   6.967   4.378   3.119  0.3405 -0.8848  0.3409
  150MOL0     C20148   6.877   4.469   3.062  0.7077 -0.0493 -0.3003
  150MOL0     C20149   6.907   4.555   2.952  0.3508  0.1082 -0.9006
  150MOL0     C20150   7.028   4.536   2.889 -0.2293 -0.3505 -0.1364
  150MOL0     O20151   7.072   4.602   2.779  0.3264 -0.2485  0.6808
  150MOL0     C20152   7.070   4.529   2.652  0.0700  0.7616 -0.3169
  150MOL0     C20153   6.926   4.501   2.606  0.8424 -0.5256  0.5745
  150MOL0     C20154   6.880   4.619   2.509 -0.5464 -0.5221 -0.6762
  150MOL0     C20155   6.735   4.606   2.462 -0.0490 -0.2165  0.0073
  150MOL0     C20156   6.676   4.721   2.382 -0.3525 -0.2796 -0.4649
  150MOL0     C20157   6.518   4.722   2.382 -0.3078 -0.3090  0.6393
  150MOL0     C20158   6.470   4.856   2.329  0.0806  1.1460  0.2565
  150MOL0     C20159   6.478   4.970   2.430 -0.4823 -0.5709  1.0297
  150MOL0    Cl20160   6.422   5.115   2.364 -0.4885 -0.2329 -0.3374
  150MOL0     C20161   7.113   4.443   2.941 -0.9080 -0.0858 -0.8206
  150MOL0     C20162   7.093   4.366   3.057  0.8575 -0.0936  0.4810
  150MOL0     O20163   7.116   4.218   3.321  0.0157 -0.4654  0.3815
  150MOL0     C20164   6.942   4.039   3.458 -0.3161  0.1228 -0.2327
  150MOL0     C20165   6.849   3.946   3.513  0.6613  0.1173  0.6865
  150MOL0     N20166   6.160   3.683   2.995  0.7726  0.0387  0.0598
  150MOL0     N20167   6.076   3.593   2.947  0.4042 -0.4434  0.0907
  150MOL0     C20168   5.090   3.046   2.918  0.0111 -0.2811 -0.6374
  150MOL0     C20169   5.012   3.078   3.027 -0.7724 -0.3894  1.2716
  150MOL0     C20170   4.834   3.085   3.450 -0.9992  0.0653 -0.4040
  150MOL0     C20171   4.696   3.059   3.447  0.5378  0.5285 -0.1769
  150MOL0     C20172   4.613   3.090   3.555 -0.1503  0.1324  0.5922
  150MOL0     C20173   4.670   3.138   3.681  0.1227  0.7001  0.7560
  150MOL0     O20174   4.586   3.168   3.779 -0.2350  0.3727  0.6390
  150MOL0     C20175   4.627   3.134   3.907 -0.1106 -0.6961 -0.0778
  150MOL0     C20176   4.592   3.240   4.009  0.0759  0.3984 -0.4784
  150MOL0     C20177   4.558   3.366   3.951 -0.2843  0.1190 -0.1911
  150MOL0     C20178   4.531   3.491   4.039 -0.5881  0.0337 -0.3979
  150MOL0     C20179   4.416   3.472   4.123 -0.0970  0.0879 -0.1298
  150MOL0     C20180   4.308   3.460   4.181  0.2909 -0.0425 -0.9177
  150MOL0     C20181   4.812   3.160   3.684 -0.3186 -0.7363  0.0883
  150MOL0     C20182   4.886   3.143   3.566 -0.2491  0.3661 -0.2700
  150MOL0     H20183   4.990   2.782   3.182 -2.3972  0.1350 -2.1342
  150MOL0     H20184   5.172   2.731   3.011  1.0525  1.0086  1.5072
  150MOL0     H20185   5.423   2.937   2.719 -2.3275 -2.4082 -0.1151
  150MOL0     H20186   5.333   3.077   2.780  1.6352  0.6278  0.8577
  150MOL0     H20187   5.407   3.028   3.015 -2.6548 -1.4602 -1.0198
  150MOL0     H20188   5.475   2.884   2.964 -1.4863  0.8421  1.2236
  150MOL0     H20189   5.638   3.013   2.796 -0.8362  4.6224 -2.1706
  150MOL0     H20190   5.569   3.155   2.871  0.2555  1.1885  3.9187
  150MOL0     H20191   5.650   3.068   3.101  0.2996  0.1130  0.5502
  150MOL0     H20192   5.742   2.944   3.021 -0.9903 -1.1405 -0.5998
  150MOL0     H20193   5.805   3.138   2.856  3.4785  1.5768  0.9095
  150MOL0     H20194   5.750   3.240   2.994 -0.1780 -0.9282  2.8517
  150MOL0     H20195   5.913   3.114   3.148  4.0017  2.5000  1.4272
  150MOL0     H20196   5.967   3.039   2.990  0.7801 -1.1769  0.7329
  150MOL0     H20197   6.124   3.238   3.086 -1.5155  1.4036  1.3957
  150MOL0     H20198   6.068   3.232   2.921 -1.2181 -0.6822 -0.3714
  150MOL0     H20199   5.910   3.374   3.133  2.4730 -0.6280  3.4236
  150MOL0     H20200   5.893   3.406   2.957  1.6923 -0.9397 -1.6658
  150MOL0     H20201   6.062   3.515   3.272 -2.4661 -0.4189  0.0101
  150MOL0     H20202   6.270   3.835   3.197  3.7273 -1.1894  2.6631
  150MOL0     H20203   6.170   3.769   3.327  1.3071  1.1567  1.0936
  150MOL0     H20204   6.406   3.629   3.206 -1.4545 -0.2757  0.4591
  150MOL0     H20205   6.329   3.583   3.359 -0.7884  1.1430  2.2061
  150MOL0     H20206   6.416   3.784   3.472 -0.3185  0.2726 -0.2737
  150MOL0     H20207   6.484   3.854   3.326 -1.5952 -0.2261 -0.4614
  150MOL0     H20208   6.658   3.670   3.316  3.6274  0.5239  2.7542
  150MOL0     H20209   6.591   3.587   3.435 -0.3885  0.4157  0.9011
  150MOL0     H20210   6.691   3.865   3.216  0.4657  3.7401 -1.9888
  150MOL0     H20211   6.736   4.136   3.077  0.5992  1.5554  1.5197
  150MOL0     H20212   6.909   4.093   3.078  1.2434  2.0269  3.9630
  150MOL0     H20213   6.788   3.968   3.041  1.3968  0.7134 -0.9807
  150MOL0     H20214   6.788   4.498   3.118  1.2582  3.4244 -0.9731
  150MOL0     H20215   6.847   4.640   2.921  2.3296  2.2588  0.7848
  150MOL0     H20216   7.122   4.578   2.570  2.1000 -1.7186 -0.6407
  150MOL0     H20217   7.109   4.428   2.668 -0.9263 -0.1022 -2.8056
  150MOL0     H20218   6.924   4.413   2.541  0.4780  0.6728 -1.0881
  150MOL0     H20219   6.855   4.483   2.688 -0.6046  0.4119 -0.4243
  150MOL0     H20220   6.939   4.638   2.419 -1.3548  4.4945 -0.4464
  150MOL0     H20221   6.886   4.714   2.563  2.9601 -1.2906  0.5818
  150MOL0     H20222   6.734   4.516   2.399 -1.9584  0.9245 -1.6896
  150MOL0     H20223   6.666   4.590   2.546 -0.5170 -4.3377 -0.9428
  150MOL0     H20224   6.698   4.714   2.275  1.0436 -2.5023 -0.0936
  150MOL0     H20225   6.717   4.817   2.414 -0.2685  0.5295 -2.7507
  150MOL0     H20226   6.467   4.646   2.322 -1.0296 -0.1208  1.0181
  150MOL0     H20227   6.474   4.714   2.482 -3.0204  0.5104 -0.4029
  150MOL0     H20228   6.366   4.849   2.296  0.8075  2.3417 -2.6164
  150MOL0     H20229   6.527   4.881   2.239  1.0098  1.7717  0.9934
  150MOL0     H20230   6.583   4.992   2.452 -0.3417 -1.9551  1.8785
  150MOL0     H20231   6.429   4.946   2.525  2.1434 -3.4406  1.8045
  150MOL0     H20232   7.208   4.430   2.891  0.2946  1.8777  0.8115
  150MOL0     H20233   7.169   4.298   3.092 -0.3786 -2.0300 -0.4168
  150MOL0     H20234   7.016   4.079   3.527 -0.3332  1.2861 -0.8644
  150MOL0     H20235   6.871   3.916   3.615  1.2203  2.8176  1.4282
  150MOL0     H20236   5.122   3.121   2.846  3.5275  1.9017  2.8190
  150MOL0     H20237   4.966   3.177   3.027 -2.4182 -1.0689 -0.7573
  150MOL0     H20238   4.649   3.037   3.351  1.4542  3.3600 -1.3941
  150MOL0     H20239   4.506   3.072   3.552 -0.1312 -0.0477  0.8969
  150MOL0     H20240   4.587   3.035   3.929  1.6216 -1.5773 -0.6714
  150MOL0     H20241   4.735   3.119   3.922 -0.3328 -1.5185  0.7746
  150MOL0     H20242   4.683   3.261   4.067  1.1321  0.5680 -2.1191
  150MOL0     H20243   4.524   3.191   4.079  1.7823 -1.1496  0.2048
  150MOL0     H20244   4.465   3.352   3.895 -2.5351  2.9289  2.4567
  150MOL0     H20245   4.634   3.399   3.880  0.8664  1.4989  1.5813
  150MOL0     H20246   4.538   3.585   3.984  0.4704  1.8564  2.6023
  150MOL0     H20247   4.610   3.500   4.114 -1.0999 -0.3668  0.2124
  150MOL0     H20248   4.212   3.450   4.228  0.4729 -2.0821 -0.8887
  150MOL0     H20249   4.857   3.211   3.769 -3.1849  1.9600  0.1949
  150MOL0     H20250   4.990   3.176   3.572 -0.1935  1.0722 -3.2329
  151MOL0     O20251   2.602   7.008   0.178 -0.6556 -0.1854 -0.7729
  151MOL0     C20252   2.578   6.998   0.296 -0.0118 -0.3768  0.0096
  151MOL0     O20253   2.606   6.894   0.373  0.1312  0.3508 -0.1418
  151MOL0     C20254   2.683   6.787   0.328 -0.4547  0.3394  0.8695
  151MOL0     C20255   2.812   6.809   0.278  0.7407  0.8353  0.5540
  151MOL0     C20256   2.880   6.705   0.227 -0.1810 -0.0128 -0.0332
  151MOL0     C20257   2.846   6.574   0.238 -0.2663 -0.2659 -0.2289
  151MOL0     O20258   2.917   6.472   0.190 -0.1499 -0.1744 -0.9856
  151MOL0     C20259   2.965   6.382   0.297 -0.4110  0.1588 -0.9034
  151MOL0     C20260   3.050   6.278   0.229  0.0719 -0.0324  0.1014
  151MOL0     C20261   3.176   6.349   0.167  0.2476  0.2687 -0.1105
  151MOL0     C20262   3.246   6.260   0.066 -0.5280  0.6720  0.5464
  151MOL0     C20263   3.335   6.338  -0.030  0.6854  0.1388  0.0081
  151MOL0     C20264   3.382   6.230  -0.126 -0.5450 -0.2666  1.2713
  151MOL0     C20265   3.472   6.288  -0.236  0.3002 -0.1415 -0.9102
  151MOL0     C20266   3.521   6.190  -0.347 -0.5080 -1.3747 -0.3039
  151MOL0     N20267   3.637   6.247  -0.415  0.1571 -0.8500 -0.6656
  151MOL0     C20268   3.766   6.231  -0.366 -0.4793 -0.7871 -1.0967
  151MOL0     C20269   3.852   6.291  -0.458  0.0519 -0.1516 -0.5889
  151MOL0     C20270   3.998   6.293  -0.456  0.8358 -0.3752 -0.9196
  151MOL0     C20271   4.080   6.339  -0.575 -0.7613 -0.4029  0.6800
  151MOL0     C20272   4.234   6.359  -0.556 -0.7220 -0.5952 -0.0881
  151MOL0     C20273   4.298   6.223  -0.538  0.0307 -0.3962 -1.0578
  151MOL0     O20274   4.442   6.227  -0.566  0.6287 -0.0188  0.1637
  151MOL0     C20275   4.507   6.107  -0.545  0.3565 -0.8642 -1.0673
  151MOL0     C20276   4.447   5.985  -0.517 -0.1560  0.0254  0.0572
  151MOL0     C20277   4.526   5.868  -0.502 -0.2610 -0.4396  0.6152
  151MOL0     C20278   4.453   5.741  -0.447  0.6005 -0.7355  0.6357
  151MOL0     C20279   4.663   5.872  -0.522 -0.4492 -1.2631  0.4869
  151MOL0     C20280   4.762   5.759  -0.514 -0.0208  0.0222  0.6547
  151MOL0     O20281   4.888   5.784  -0.562 -0.0708  0.8685 -0.1421
  151MOL0     C20282   4.944   5.678  -0.631  0.7584  0.2128 -0.1717
  151MOL0     C20283   4.876   5.587  -0.713  0.1002  0.3401  0.2886
  151MOL0     C20284   4.956   5.501  -0.788 -0.4077  0.2296  0.9128
  151MOL0     C20285   5.097   5.504  -0.784  0.3705  0.1086  0.2592
  151MOL0     O20286   5.180   5.419  -0.862 -0.1329 -0.0960 -0.1260
  151MOL0     C20287   5.126   5.372  -0.983  0.3903 -0.3320 -0.1068
  151MOL0     C20288   5.242   5.343  -1.082  0.9352 -0.0780 -0.9455
  151MOL0     C20289   5.366   5.267  -1.035  0.8426  0.2852  0.3518
  151MOL0     C20290   5.321   5.117  -1.009  0.8610  0.8856 -0.6572
  151MOL0     C20291   5.432   5.030  -0.962  0.2293  0.0949  0.8048
  151MOL0     C20292   5.401   4.887  -0.919  0.6273  0.1447 -0.2947
  151MOL0     C20293   5.515   4.814  -0.859  0.5218 -0.0590  0.9332
  151MOL0     C20294   5.651   4.850  -0.927  0.1339  0.9230 -0.3299
  151MOL0    Cl20295   5.773   4.720  -0.890  0.1564  0.1887 -0.3362
  151MOL0     C20296   5.163   5.584  -0.691 -0.7112 -0.4496 -0.1815
  151MOL0     C20297   5.082   5.668  -0.605 -1.1550 -1.1995  0.6039
  151MOL0     O20298   4.714   5.652  -0.475  0.1914 -0.5379 -0.0133
  151MOL0     C20299   4.717   5.992  -0.570  0.6407 -0.0959  1.0375
  151MOL0     C20300   4.641   6.110  -0.572 -0.7702  0.2481 -0.0745
  151MOL0     N20301   3.763   6.341  -0.554 -0.8674  0.0293  0.5742
  151MOL0     N20302   3.638   6.326  -0.518  0.5008 -0.7965  0.8063
  151MOL0     C20303   2.716   6.552   0.289  0.4189 -0.9392 -0.1427
  151MOL0     C20304   2.628   6.661   0.329 -0.2695  1.0742  0.0566
  151MOL0     C20305   2.497   7.112   0.346  0.3889 -0.5964  0.7842
  151MOL0     C20306   2.431   7.211   0.261  0.7592 -0.4881  0.4320
  151MOL0     C20307   2.357   7.317   0.325 -0.3438 -0.5358 -0.1175
  151MOL0     C20308   2.349   7.321   0.466 -0.2073  0.1162 -0.2779
  151MOL0     O20309   2.288   7.418   0.531  0.0342 -0.2994 -0.1786
  151MOL0     C20310   2.155   7.378   0.560  0.4208 -0.1167  1.4717
  151MOL0     C20311   2.102   7.473   0.665 -0.7286  0.4852  0.5678
  151MOL0     C20312   1.955   7.491   0.642  0.2811 -0.2918 -0.1507
  151MOL0     C20313   1.886   7.574   0.755  0.5189  0.8880  0.1587
  151MOL0     C20314   1.933   7.713   0.754 -0.9011  0.4329 -0.6388
  151MOL0     C20315   1.986   7.827   0.750  0.1459 -0.0254 -0.2087
  151MOL0     C20316   2.413   7.225   0.542 -0.3234  0.6557  0.4756
  151MOL0     C20317   2.485   7.123   0.481 -0.0100  0.5742 -0.4888
  151MOL0     H20318   2.850   6.911   0.272  0.4765  1.1573  3.2306
  151MOL0     H20319   2.984   6.718   0.201  0.4483 -1.6010  1.5427
  151MOL0     H20320   3.025   6.435   0.372  2.8709 -0.5980 -2.7863
  151MOL0     H20321   2.879   6.343   0.353  1.0679  0.9961  2.1718
  151MOL0     H20322   3.071   6.196   0.298 -3.4689  2.8214  5.1888
  151MOL0     H20323   2.993   6.239   0.143  0.9474  1.4562 -1.2109
  151MOL0     H20324   3.145   6.444   0.125 -1.2623 -0.0653  0.2110
  151MOL0     H20325   3.250   6.357   0.248 -0.0064  0.1539  0.1369
  151MOL0     H20326   3.304   6.182   0.115  1.5504 -0.4567 -3.3116
  151MOL0     H20327   3.169   6.210   0.005  1.7518 -2.7694  0.2550
  151MOL0     H20328   3.265   6.409  -0.075  0.3366 -0.3349 -0.2059
  151MOL0     H20329   3.412   6.393   0.025 -0.8216  1.2093  1.1314
  151MOL0     H20330   3.434   6.145  -0.082 -0.4142 -0.8295  0.0838
  151MOL0     H20331   3.298   6.191  -0.184  0.2273  1.5782 -1.2622
  151MOL0     H20332   3.410   6.369  -0.275 -0.1398  0.4145  0.8533
  151MOL0     H20333   3.562   6.323  -0.185 -0.7464 -2.9138  3.4205
  151MOL0     H20334   3.443   6.179  -0.422  1.7320 -2.3916 -2.6265
  151MOL0     H20335   3.556   6.093  -0.309  2.8920  0.0346  0.5020
  151MOL0     H20336   3.797   6.175  -0.279  1.5569 -1.7441 -2.3516
  151MOL0     H20337   4.028   6.347  -0.367 -0.7347 -0.5226 -0.2731
  151MOL0     H20338   4.021   6.187  -0.440  0.0677 -0.5183 -0.7356
  151MOL0     H20339   4.028   6.424  -0.620  0.7828  0.5583  0.6729
  151MOL0     H20340   4.076   6.255  -0.645 -0.6768 -2.1464  2.6662
  151MOL0     H20341   4.249   6.411  -0.461 -0.9951  1.7440 -1.2681
  151MOL0     H20342   4.280   6.418  -0.636  0.4763 -1.5477 -0.1277
  151MOL0     H20343   4.248   6.158  -0.612 -1.1441  0.8457 -1.4012
  151MOL0     H20344   4.277   6.183  -0.438  0.8535 -0.3261 -0.8534
  151MOL0     H20345   4.341   5.975  -0.495  0.2588 -0.7349  1.8795
  151MOL0     H20346   4.509   5.711  -0.358 -2.8940 -0.9668  2.9545
  151MOL0     H20347   4.348   5.758  -0.421 -0.2602 -0.8236 -2.4001
  151MOL0     H20348   4.455   5.665  -0.525 -0.1715  0.2541 -0.3881
  151MOL0     H20349   4.768   5.590  -0.718  0.0087 -2.3914 -2.0780
  151MOL0     H20350   4.909   5.423  -0.848  2.1824 -0.5245 -0.2491
  151MOL0     H20351   5.068   5.281  -0.967 -0.1624  0.1723  0.8712
  151MOL0     H20352   5.059   5.446  -1.026 -0.3604 -1.5448 -1.1046
  151MOL0     H20353   5.196   5.305  -1.174  0.3867  0.4801 -0.9043
  151MOL0     H20354   5.276   5.446  -1.095 -1.0862  0.5354 -1.7990
  151MOL0     H20355   5.420   5.306  -0.947 -0.0868 -5.3541  3.9507
  151MOL0     H20356   5.438   5.286  -1.115 -0.8700 -0.7957 -1.5260
  151MOL0     H20357   5.238   5.120  -0.937  0.8876 -1.1922 -0.4733
  151MOL0     H20358   5.275   5.074  -1.098  4.2547  0.4811 -2.3521
  151MOL0     H20359   5.479   5.090  -0.884 -0.6006  1.1727  0.4984
  151MOL0     H20360   5.510   5.039  -1.039  1.1456  0.5065  1.7572
  151MOL0     H20361   5.325   4.896  -0.841 -0.3515 -0.3204 -1.1633
  151MOL0     H20362   5.356   4.833  -1.003 -1.4962 -0.1793  0.9690
  151MOL0     H20363   5.502   4.706  -0.875 -0.8140  0.2163 -0.0807
  151MOL0     H20364   5.525   4.823  -0.751  0.0076  1.7309  0.8532
  151MOL0     H20365   5.688   4.946  -0.891  1.4058  1.1894 -2.2010
  151MOL0     H20366   5.631   4.848  -1.035 -0.3599 -4.3199 -0.4024
  151MOL0     H20367   5.270   5.576  -0.679 -0.8398 -0.9181  0.8377
  151MOL0     H20368   5.134   5.738  -0.540  3.4293 -0.4147 -3.3037
  151MOL0     H20369   4.819   6.000  -0.606 -0.1322  0.3495 -1.1652
  151MOL0     H20370   4.671   6.207  -0.610  1.8036 -0.6194 -0.5080
  151MOL0     H20371   2.678   6.450   0.294  0.4059 -0.9074  0.5706
  151MOL0     H20372   2.524   6.646   0.358  0.5757 -2.2324  1.8047
  151MOL0     H20373   2.436   7.208   0.153  0.8907 -1.0214  0.4494
  151MOL0     H20374   2.299   7.382   0.262 -2.3836 -1.7084  0.4666
  151MOL0     H20375   2.096   7.379   0.468  0.1369 -0.8943  1.6458
  151MOL0     H20376   2.147   7.273   0.587 -0.9736 -0.8991 -1.5690
  151MOL0     H20377   2.149   7.572   0.658 -1.5474  0.8576  0.3008
  151MOL0     H20378   2.124   7.434   0.765  4.4899  0.2901 -0.3513
  151MOL0     H20379   1.911   7.391   0.646  1.1342 -1.1760 -5.4253
  151MOL0     H20380   1.937   7.543   0.547  0.6950  1.9144  0.9372
  151MOL0     H20381   1.891   7.520   0.850  0.0609 -1.0077 -0.8501
  151MOL0     H20382   1.779   7.575   0.731  0.3516 -0.0813  0.7879
  151MOL0     H20383   2.030   7.924   0.749  1.7401 -0.7055  0.5677
  151MOL0     H20384   2.407   7.240   0.649 -1.6601 -1.6674  0.7836
  151MOL0     H20385   2.548   7.066   0.548  0.5467  2.7035  0.9207
  152MOL0     O20386  10.264   5.963   7.530 -0.5982 -0.2329 -0.6638
  152MOL0     C20387  10.339   5.926   7.444  0.3488  0.0159  0.5429
  152MOL0     O20388  10.320   5.949   7.307 -0.8065 -0.1636  0.1090
  152MOL0     C20389  10.206   6.002   7.256 -1.1227  0.6054 -0.2039
  152MOL0     C20390  10.078   5.994   7.310 -0.8046 -0.7761 -0.0441
  152MOL0     C20391   9.970   6.065   7.258  0.1083  0.2352 -0.7443
  152MOL0     C20392   9.987   6.117   7.138  0.7489  0.6435  0.8222
  152MOL0     O20393   9.887   6.179   7.061 -0.6585  0.6447  1.0182
  152MOL0     C20394   9.763   6.211   7.129  0.2551  0.1859 -0.4369
  152MOL0     C20395   9.696   6.319   7.056  0.6547 -0.8658 -0.3996
  152MOL0     C20396   9.635   6.270   6.924  0.1196 -0.0538  0.4067
  152MOL0     C20397   9.576   6.388   6.855 -0.1890  0.6284 -0.5925
  152MOL0     C20398   9.530   6.354   6.716 -0.8405  0.4555  0.5243
  152MOL0     C20399   9.496   6.491   6.643 -0.1354 -0.6886 -0.1202
  152MOL0     C20400   9.484   6.455   6.489  0.5489  0.0096  0.2381
  152MOL0     C20401   9.602   6.519   6.405  0.6674 -0.5105  0.2097
  152MOL0     N20402   9.590   6.666   6.386  0.4252 -0.2375  0.6472
  152MOL0     C20403   9.479   6.731   6.331  0.3813 -0.6869 -0.3788
  152MOL0     C20404   9.509   6.857   6.323 -0.0423 -0.3641  0.1312
  152MOL0     C20405   9.428   6.980   6.270  1.0476 -0.3723 -0.1157
  152MOL0     C20406   9.460   7.036   6.137  0.0048 -0.0034  0.1752
  152MOL0     C20407   9.610   7.067   6.118 -0.5788 -0.1741  0.7183
  152MOL0     C20408   9.667   7.189   6.191  0.1710  0.5684 -0.2346
  152MOL0     O20409   9.805   7.220   6.148  0.1534  0.3669  0.1420
  152MOL0     C20410   9.921   7.151   6.189  0.0424  0.2609  0.2180
  152MOL0     C20411   9.918   7.060   6.292 -0.3708  0.5026  0.1681
  152MOL0     C20412  10.030   7.000   6.334 -0.5397 -0.5067 -0.6197
  152MOL0     C20413  10.007   6.883   6.437  0.2008  0.1728  0.6514
  152MOL0     C20414  10.156   7.046   6.285  0.0674  0.2182 -0.8205
  152MOL0     C20415  10.281   6.989   6.336 -0.2821 -0.4384  0.5397
  152MOL0     O20416  10.388   7.073   6.337  0.7080 -0.7212 -0.5611
  152MOL0     C20417  10.512   7.011   6.373  1.1698  0.0612 -0.6093
  152MOL0     C20418  10.571   7.034   6.497  0.3326 -0.4312 -0.9066
  152MOL0     C20419  10.677   6.954   6.543  0.0829 -0.1428  0.2744
  152MOL0     C20420  10.733   6.855   6.452 -0.5079 -0.4631 -0.0616
  152MOL0     O20421  10.837   6.790   6.507  1.0223 -0.4653 -0.8876
  152MOL0     C20422  10.828   6.649   6.486  0.0144 -0.7620 -0.3232
  152MOL0     C20423  10.937   6.586   6.579  0.4723 -0.0928  0.2901
  152MOL0     C20424  10.921   6.636   6.728  0.7600 -0.0864 -0.6407
  152MOL0     C20425  11.010   6.550   6.808 -0.4403  0.4471 -0.1993
  152MOL0     C20426  11.035   6.620   6.947 -0.2677  0.1692  0.2793
  152MOL0     C20427  11.175   6.590   6.997 -0.7104 -0.0973 -0.2381
  152MOL0     C20428  11.212   6.669   7.115 -0.1883  1.0000 -1.0913
  152MOL0     C20429  11.156   6.621   7.249  0.4109  0.2728 -0.0508
  152MOL0    Cl20430  11.059   6.753   7.326  0.3202  0.1709 -0.7327
  152MOL0     C20431  10.682   6.837   6.323  0.6189 -0.2274  0.4737
  152MOL0     C20432  10.571   6.908   6.287 -0.4724 -1.6235  1.0543
  152MOL0     O20433  10.295   6.865   6.348 -0.0733 -0.5879  0.4276
  152MOL0     C20434  10.169   7.155   6.193  0.4532  0.2922 -0.5689
  152MOL0     C20435  10.046   7.205   6.144 -0.2797 -0.2697  0.7770
  152MOL0     N20436   9.632   6.876   6.376 -0.0159 -0.2332 -0.6689
  152MOL0     N20437   9.686   6.760   6.389 -0.2663 -0.1522 -0.8883
  152MOL0     C20438  10.108   6.106   7.071 -1.0627  0.3810 -0.3845
  152MOL0     C20439  10.222   6.052   7.135  0.0857  0.3408  0.2282
  152MOL0     C20440  10.450   5.844   7.498 -0.5943 -0.5619 -0.8900
  152MOL0     C20441  10.493   5.854   7.634  0.5969  0.3349  1.0105
  152MOL0     C20442  10.585   5.767   7.683 -0.0828 -0.1706  0.2291
  152MOL0     C20443  10.672   5.699   7.596 -0.1743  0.1158  0.9705
  152MOL0     O20444  10.787   5.641   7.638 -0.8251 -0.0085  0.1605
  152MOL0     C20445  10.787   5.589   7.770 -0.9206  0.3689  0.3892
  152MOL0     C20446  10.871   5.459   7.772  0.3404  0.2414 -0.0495
  152MOL0     C20447  11.017   5.496   7.764  0.0028  0.0480  0.0663
  152MOL0     C20448  11.112   5.366   7.754  0.5358  0.6528 -0.1808
  152MOL0     C20449  11.254   5.408   7.760  0.4205  0.1736 -0.3685
  152MOL0     C20450  11.374   5.434   7.761 -0.2680 -0.0043  0.3331
  152MOL0     C20451  10.639   5.712   7.457 -0.9515  0.2981 -1.3147
  152MOL0     C20452  10.528   5.770   7.408  0.4136  0.1062 -0.5690
  152MOL0     H20453  10.048   5.929   7.392  0.6243  0.5480  1.5923
  152MOL0     H20454   9.875   6.071   7.310 -0.3046 -1.2724 -1.2640
  152MOL0     H20455   9.688   6.133   7.145  0.9199 -0.7679 -1.7685
  152MOL0     H20456   9.774   6.257   7.228 -1.2570 -1.4326  0.5447
  152MOL0     H20457   9.621   6.368   7.118  1.1945  1.5496 -1.5412
  152MOL0     H20458   9.770   6.399   7.050  2.4996 -2.4574 -0.0064
  152MOL0     H20459   9.715   6.236   6.859 -0.0198 -0.2759  0.3502
  152MOL0     H20460   9.568   6.183   6.930 -0.5980  0.5219  0.9877
  152MOL0     H20461   9.484   6.405   6.911 -0.1417  0.6837 -0.5314
  152MOL0     H20462   9.624   6.486   6.863 -2.1107  1.4435  2.7874
  152MOL0     H20463   9.612   6.309   6.660 -0.2551  1.5831  0.4383
  152MOL0     H20464   9.441   6.291   6.717  1.8268 -3.8315 -2.0284
  152MOL0     H20465   9.397   6.531   6.668  0.6295  0.4181  1.2661
  152MOL0     H20466   9.569   6.572   6.648 -1.0112  0.1694 -0.8650
  152MOL0     H20467   9.470   6.349   6.467 -0.9359  0.5357 -1.6679
  152MOL0     H20468   9.389   6.498   6.455  1.1492  0.8150 -0.4900
  152MOL0     H20469   9.616   6.474   6.306 -0.6639 -1.5176  0.4468
  152MOL0     H20470   9.692   6.502   6.465  1.4726  1.5087 -0.3619
  152MOL0     H20471   9.395   6.681   6.285  0.4038  0.8143 -2.1790
  152MOL0     H20472   9.321   6.954   6.270  1.6085 -2.9593 -0.8618
  152MOL0     H20473   9.436   7.056   6.348 -0.4262 -1.9346  1.6878
  152MOL0     H20474   9.398   7.122   6.111 -0.2423 -0.0028  0.7367
  152MOL0     H20475   9.439   6.954   6.067  0.4502  0.1760 -0.1735
  152MOL0     H20476   9.634   7.075   6.011 -0.9789 -0.2524  0.6199
  152MOL0     H20477   9.658   6.971   6.138 -0.3932 -0.9864 -2.8686
  152MOL0     H20478   9.664   7.172   6.299  0.1284  0.8274 -0.1934
  152MOL0     H20479   9.603   7.272   6.159 -0.0072  1.2869  1.7991
  152MOL0     H20480   9.822   7.028   6.330 -1.7605  1.0237 -2.6336
  152MOL0     H20481  10.060   6.795   6.399 -0.2497  0.7941 -1.5241
  152MOL0     H20482  10.052   6.907   6.534  2.7722  4.0355 -1.2072
  152MOL0     H20483   9.901   6.855   6.441  1.0751 -3.8205 -0.1011
  152MOL0     H20484  10.519   7.100   6.566  1.3493  0.7249 -1.2111
  152MOL0     H20485  10.721   6.968   6.641 -1.4793  4.2787  0.5625
  152MOL0     H20486  10.731   6.606   6.514  0.1282 -1.8475 -1.5024
  152MOL0     H20487  10.855   6.604   6.390  4.1943 -2.5862  1.4323
  152MOL0     H20488  10.938   6.476   6.578 -0.8348 -0.1140  0.0990
  152MOL0     H20489  11.036   6.619   6.547 -0.6574  1.0554 -2.2473
  152MOL0     H20490  10.818   6.639   6.764  0.3790  2.5612 -1.6883
  152MOL0     H20491  10.959   6.738   6.739  0.0806 -0.1706  4.6486
  152MOL0     H20492  10.960   6.453   6.814  2.1591 -0.9269  1.0903
  152MOL0     H20493  11.106   6.545   6.757 -0.5876 -0.3192 -0.4108
  152MOL0     H20494  10.963   6.581   7.019  0.6100 -1.2451  0.4384
  152MOL0     H20495  11.040   6.729   6.940  2.6401  0.2225  1.4214
  152MOL0     H20496  11.175   6.482   7.015 -0.3566 -0.2710 -1.2325
  152MOL0     H20497  11.246   6.629   6.925  0.0417  0.7997  0.9419
  152MOL0     H20498  11.190   6.774   7.099  1.7167  1.9654  1.8267
  152MOL0     H20499  11.320   6.653   7.124 -0.7518 -2.9056  1.1277
  152MOL0     H20500  11.238   6.587   7.313  1.0717 -4.9298 -3.0851
  152MOL0     H20501  11.098   6.529   7.234  0.9278 -0.5968  2.7981
  152MOL0     H20502  10.716   6.755   6.259 -2.8158 -1.5819  0.2009
  152MOL0     H20503  10.519   6.870   6.199  0.9673 -1.3648  0.0531
  152MOL0     H20504  10.271   7.179   6.166  1.2644 -0.3083  1.7205
  152MOL0     H20505  10.048   7.288   6.074 -0.7081  0.4390  1.5942
  152MOL0     H20506  10.117   6.157   6.976  1.3153  1.6260  0.4203
  152MOL0     H20507  10.314   6.053   7.077  1.9815 -0.5434  2.9963
  152MOL0     H20508  10.438   5.922   7.698  1.3842  0.3787  1.6564
  152MOL0     H20509  10.584   5.771   7.792 -4.6712 -1.7615  0.4595
  152MOL0     H20510  10.826   5.668   7.836 -0.9310  0.5736  0.1526
  152MOL0     H20511  10.683   5.574   7.800 -1.4966  1.5481 -0.9197
  152MOL0     H20512  10.849   5.397   7.684  2.9971  1.8259 -2.0126
  152MOL0     H20513  10.843   5.399   7.859  0.6002 -0.6718 -0.5860
  152MOL0     H20514  11.044   5.556   7.852 -1.1398  0.7489 -0.0373
  152MOL0     H20515  11.043   5.564   7.682  2.0697 -2.5801 -1.6238
  152MOL0     H20516  11.088   5.314   7.661  2.2005  1.4731 -1.1291
  152MOL0     H20517  11.106   5.304   7.844  2.4871  1.1932  0.3787
  152MOL0     H20518  11.480   5.446   7.769 -0.7016  3.8618  2.5037
  152MOL0     H20519  10.712   5.665   7.393  2.1866  2.5975  0.2995
  152MOL0     H20520  10.509   5.775   7.302 -0.8600 -2.7470 -0.5618
  153MOL0     O20521   6.730   2.915  10.279 -0.2454  1.0140  0.4985
  153MOL0     C20522   6.784   2.805  10.264 -0.1519  0.9856 -0.0796
  153MOL0     O20523   6.870   2.741  10.352 -0.5172 -0.0775  0.0888
  153MOL0     C20524   6.952   2.810  10.446  0.3108 -0.0271  0.1673
  153MOL0     C20525   7.009   2.731  10.545 -0.0274 -0.1164 -0.2013
  153MOL0     C20526   7.090   2.786  10.646 -0.3632  1.6174  0.5310
  153MOL0     C20527   7.113   2.930  10.652  0.4728  0.8631 -0.3428
  153MOL0     O20528   7.198   2.999  10.738  0.2365 -0.4157  0.5963
  153MOL0     C20529   7.178   2.955  10.880  0.2855 -0.6942 -0.8785
  153MOL0     C20530   7.295   3.006  10.960 -0.2469 -0.7891 -0.5198
  153MOL0     C20531   7.338   3.151  10.944  0.0429  0.7913  0.2746
  153MOL0     C20532   7.455   3.202  11.036 -0.6030 -0.0735 -0.2483
  153MOL0     C20533   7.402   3.210  11.181 -0.0919 -0.6776  0.6777
  153MOL0     C20534   7.518   3.238  11.279  0.5258  0.0901 -0.5294
  153MOL0     C20535   7.467   3.208  11.421  0.1654 -0.1068 -1.2227
  153MOL0     C20536   7.559   3.288  11.512  0.2270  0.7596 -0.3591
  153MOL0     N20537   7.538   3.234  11.646  0.0027 -0.8259  0.7609
  153MOL0     C20538   7.637   3.217  11.738 -0.1873 -0.5594  0.2308
  153MOL0     C20539   7.572   3.165  11.849 -1.3787 -0.5712  0.7406
  153MOL0     C20540   7.654   3.146  11.973 -0.8976 -0.0631 -0.5338
  153MOL0     C20541   7.781   3.222  11.988 -1.0955  0.2559 -0.0607
  153MOL0     C20542   7.837   3.225  12.123 -0.0000  0.6732 -0.3913
  153MOL0     C20543   7.907   3.094  12.163  0.1142  0.0958  0.1764
  153MOL0     O20544   7.940   3.103  12.298  0.0567 -0.6763 -0.3364
  153MOL0     C20545   8.028   3.018  12.360 -0.8399 -0.3144 -0.4101
  153MOL0     C20546   8.048   3.020  12.495  0.5380 -0.7307  0.1208
  153MOL0     C20547   8.127   2.930  12.562 -1.4531 -0.4421  0.4466
  153MOL0     C20548   8.139   2.957  12.711  0.2595 -0.2522 -0.1970
  153MOL0     C20549   8.189   2.817  12.496 -0.1125 -0.3051 -0.6084
  153MOL0     C20550   8.264   2.715  12.565  0.0705 -0.0921 -0.1723
  153MOL0     O20551   8.316   2.623  12.479  0.5076  0.3748  0.8178
  153MOL0     C20552   8.399   2.521  12.524  0.4273 -0.9346  0.3559
  153MOL0     C20553   8.352   2.422  12.621  0.3309  0.1909  0.2606
  153MOL0     C20554   8.445   2.338  12.672 -1.0241 -0.0206  0.5871
  153MOL0     C20555   8.579   2.320  12.632  0.1947  0.8628  0.0697
  153MOL0     O20556   8.646   2.207  12.663  0.6915 -0.3552 -0.8540
  153MOL0     C20557   8.749   2.220  12.750 -0.4044 -0.3199  0.6775
  153MOL0     C20558   8.842   2.080  12.749 -0.0169  0.0842 -0.4138
  153MOL0     C20559   8.751   1.962  12.787 -0.5958  0.1505 -0.4673
  153MOL0     C20560   8.827   1.837  12.826  1.1464  0.3732 -0.1451
  153MOL0     C20561   8.736   1.711  12.861  0.1824  0.5016 -0.0629
  153MOL0     C20562   8.803   1.593  12.934  0.4283 -0.9360 -0.1931
  153MOL0     C20563   8.704   1.489  12.974  0.6394 -0.4349 -0.3369
  153MOL0     C20564   8.780   1.372  13.018 -0.8006 -0.2115  0.7339
  153MOL0    Cl20565   8.691   1.235  13.078  0.1870  0.6834 -0.1823
  153MOL0     C20566   8.619   2.403  12.518  0.0999 -0.2570  0.5140
  153MOL0     C20567   8.530   2.510  12.467  1.0194 -0.5131  0.5188
  153MOL0     O20568   8.263   2.712  12.687 -0.1143  0.1926 -0.1775
  153MOL0     C20569   8.174   2.811  12.358  0.4126 -1.4400  0.1130
  153MOL0     C20570   8.089   2.907  12.291  0.5292 -0.0280 -0.0320
  153MOL0     N20571   7.443   3.151  11.816 -1.1780 -0.7374 -0.8195
  153MOL0     N20572   7.421   3.205  11.700  0.2723 -0.2511  0.0829
  153MOL0     C20573   7.052   3.008  10.546 -0.5131  0.1027  0.2324
  153MOL0     C20574   6.979   2.950  10.446 -0.3905 -0.3969  0.5167
  153MOL0     C20575   6.754   2.740  10.138 -0.4636 -0.7658 -0.5126
  153MOL0     C20576   6.790   2.602  10.124 -0.0411  0.2444  1.1647
  153MOL0     C20577   6.776   2.536   9.999  0.6260 -0.0783  0.3322
  153MOL0     C20578   6.722   2.610   9.888 -0.3233  0.4072 -0.6082
  153MOL0     O20579   6.719   2.534   9.774  0.0221  0.0437 -0.5233
  153MOL0     C20580   6.741   2.598   9.653 -0.4710 -0.3974 -0.5096
  153MOL0     C20581   6.794   2.503   9.554  0.4321  0.1748  0.1270
  153MOL0     C20582   6.692   2.450   9.456 -1.1683  0.4904  0.0424
  153MOL0     C20583   6.746   2.368   9.345 -0.6806  0.8945 -0.2630
  153MOL0     C20584   6.804   2.444   9.234  0.4003 -0.6934  0.2932
  153MOL0     C20585   6.847   2.539   9.167 -0.7586 -1.0570 -0.4561
  153MOL0     C20586   6.686   2.738   9.904  0.8887  0.4110  0.5274
  153MOL0     C20587   6.701   2.801  10.024  0.3646  0.2429  0.0040
  153MOL0     H20588   6.970   2.630  10.549 -2.1315  0.6424 -0.3372
  153MOL0     H20589   7.132   2.710  10.711  1.9738  1.2060 -1.3211
  153MOL0     H20590   7.095   3.009  10.925  0.8650 -1.0930  0.7184
  153MOL0     H20591   7.178   2.846  10.893  2.1549 -0.9605 -2.5958
  153MOL0     H20592   7.273   2.991  11.066  3.9987  0.2718  0.6783
  153MOL0     H20593   7.388   2.954  10.938  1.3911  1.8650 -0.2543
  153MOL0     H20594   7.379   3.165  10.844 -0.7623  0.2173 -0.1463
  153MOL0     H20595   7.256   3.223  10.945 -1.1766 -0.3481 -3.4690
  153MOL0     H20596   7.536   3.129  11.025 -0.3024  0.3102 -0.6396
  153MOL0     H20597   7.497   3.301  11.015  0.4073 -0.3734  0.2942
  153MOL0     H20598   7.325   3.287  11.187 -0.4043 -0.5647 -2.8460
  153MOL0     H20599   7.348   3.123  11.220 -2.7912  1.5466  2.2262
  153MOL0     H20600   7.599   3.176  11.241  1.6436  2.4707 -2.2881
  153MOL0     H20601   7.549   3.340  11.253 -0.9203  0.3102 -1.4751
  153MOL0     H20602   7.362   3.239  11.426 -0.4210 -2.1598  1.2047
  153MOL0     H20603   7.482   3.102  11.442  0.1892  0.3781  1.6370
  153MOL0     H20604   7.535   3.395  11.509  0.4961  0.8182 -0.5580
  153MOL0     H20605   7.667   3.284  11.493  0.8050 -0.6004  2.6639
  153MOL0     H20606   7.745   3.220  11.724 -0.3663 -0.6551 -1.4447
  153MOL0     H20607   7.593   3.188  12.054  1.2100  0.6306  0.7716
  153MOL0     H20608   7.671   3.038  11.975 -2.1099 -0.3031 -1.5141
  153MOL0     H20609   7.764   3.316  11.934  0.2746  1.7550  1.9696
  153MOL0     H20610   7.859   3.172  11.929  1.7870 -0.1584  3.6931
  153MOL0     H20611   7.756   3.255  12.189  0.9287  1.5378  0.3902
  153MOL0     H20612   7.917   3.299  12.129 -0.5613  1.1805  2.0354
  153MOL0     H20613   7.996   3.083  12.100 -0.1856  2.0177 -0.6587
  153MOL0     H20614   7.839   3.009  12.150 -0.4570  0.5687  0.0447
  153MOL0     H20615   8.009   3.094  12.564 -0.6718 -2.5648  1.4526
  153MOL0     H20616   8.122   3.061  12.741 -1.6021 -0.3152 -0.9053
  153MOL0     H20617   8.077   2.893  12.774  0.1115 -0.5856 -0.6738
  153MOL0     H20618   8.244   2.944  12.739  1.0413  0.4570 -2.5432
  153MOL0     H20619   8.248   2.409  12.646 -0.5561 -2.8309 -3.8160
  153MOL0     H20620   8.417   2.268  12.750 -0.8061 -0.2006  0.5063
  153MOL0     H20621   8.817   2.300  12.720 -3.1115  2.7705  2.0965
  153MOL0     H20622   8.711   2.242  12.850  0.8851 -0.9077  1.3193
  153MOL0     H20623   8.896   2.056  12.657  2.1398 -1.6239  1.1986
  153MOL0     H20624   8.923   2.090  12.821  1.6955 -2.1801 -1.8974
  153MOL0     H20625   8.682   1.944  12.703 -1.6571 -0.0453  0.4200
  153MOL0     H20626   8.683   1.979  12.871 -1.1519 -1.1871 -0.6115
  153MOL0     H20627   8.898   1.804  12.750 -0.4679  0.8730 -1.9468
  153MOL0     H20628   8.886   1.857  12.916  0.1302  0.0643  0.6016
  153MOL0     H20629   8.693   1.672  12.768 -0.5324 -0.6957  0.7505
  153MOL0     H20630   8.653   1.745  12.924 -1.4760 -0.1033 -1.8148
  153MOL0     H20631   8.871   1.542  12.866  0.3439 -0.8583 -0.3354
  153MOL0     H20632   8.848   1.629  13.027 -0.3486 -0.7594  0.1287
  153MOL0     H20633   8.631   1.471  12.894 -1.9547  1.6903  1.3537
  153MOL0     H20634   8.655   1.516  13.068  1.8977  0.9514 -0.0396
  153MOL0     H20635   8.850   1.407  13.095 -1.5055  3.0695  0.0619
  153MOL0     H20636   8.841   1.317  12.946 -1.9556  2.6287 -2.7152
  153MOL0     H20637   8.716   2.379  12.476  0.1665 -0.0084  0.5219
  153MOL0     H20638   8.565   2.564  12.379 -0.4027 -0.1837  0.1305
  153MOL0     H20639   8.226   2.740  12.294 -0.3799 -0.7836 -1.2999
  153MOL0     H20640   8.067   2.885  12.188 -1.2769  4.7653 -0.9506
  153MOL0     H20641   7.084   3.112  10.547  1.5854 -0.4828 -0.1451
  153MOL0     H20642   6.928   3.016  10.377 -3.7437 -3.1329  0.1531
  153MOL0     H20643   6.814   2.538  10.208 -3.5111  0.3179  2.3443
  153MOL0     H20644   6.799   2.431   9.985 -2.8005 -1.1633  1.7359
  153MOL0     H20645   6.651   2.656   9.629  0.3902  0.4171 -1.9303
  153MOL0     H20646   6.813   2.680   9.656  0.5764 -1.1617  4.6891
  153MOL0     H20647   6.840   2.419   9.607  1.4459  1.8948  2.1339
  153MOL0     H20648   6.873   2.557   9.500  2.0571  1.1546  3.2738
  153MOL0     H20649   6.644   2.541   9.419 -0.4433  1.8618  2.2231
  153MOL0     H20650   6.619   2.396   9.517  0.7513 -1.1005  1.0594
  153MOL0     H20651   6.665   2.314   9.295  1.7041 -2.3344 -1.0186
  153MOL0     H20652   6.824   2.295   9.371 -1.4713 -0.3063 -1.1250
  153MOL0     H20653   6.880   2.621   9.107 -4.5373 -0.7027 -2.3193
  153MOL0     H20654   6.655   2.809   9.828 -4.8707  0.5331  2.4710
  153MOL0     H20655   6.669   2.904  10.041 -2.2090 -0.4828 -0.0154
  154MOL0     O20656   1.753  10.813   6.417  0.0758  0.2906  0.7168
  154MOL0     C20657   1.685  10.896   6.350 -0.9484 -0.2937  0.0158
  154MOL0     O20658   1.624  11.001   6.406 -0.6652 -0.6737 -0.2663
  154MOL0     C20659   1.610  10.998   6.547  0.0307 -0.4910 -0.4776
  154MOL0     C20660   1.726  11.030   6.629  0.2192  0.4351 -0.3693
  154MOL0     C20661   1.720  11.055   6.767  0.2554  0.4565  0.3349
  154MOL0     C20662   1.594  11.032   6.827  0.0585  0.6008  0.3425
  154MOL0     O20663   1.569  11.058   6.959 -0.6587  0.4235 -0.9978
  154MOL0     C20664   1.670  11.064   7.065  0.5719 -0.2656 -0.0529
  154MOL0     C20665   1.605  11.031   7.196 -0.7147  0.2276  0.1026
  154MOL0     C20666   1.703  11.066   7.318 -0.1753  0.3251  0.0844
  154MOL0     C20667   1.632  11.060   7.454  0.0806 -0.6801  0.3315
  154MOL0     C20668   1.741  11.018   7.555 -0.4793  0.3405  0.2648
  154MOL0     C20669   1.668  11.014   7.697 -0.5017  0.4302  0.0529
  154MOL0     C20670   1.611  10.879   7.749  0.3473 -0.8044 -0.2559
  154MOL0     C20671   1.552  10.882   7.887 -1.0418  0.0078 -0.1669
  154MOL0     N20672   1.676  10.912   7.971  0.0857  0.3011  0.0559
  154MOL0     C20673   1.709  11.033   8.033  0.1004  0.4127 -0.0263
  154MOL0     C20674   1.829  11.024   8.094 -0.4648 -1.1352  0.8354
  154MOL0     C20675   1.941  11.117   8.161 -0.1915 -0.2690  0.3106
  154MOL0     C20676   1.941  11.141   8.314  0.2183  1.2949  0.0498
  154MOL0     C20677   2.065  11.216   8.369 -0.0601 -0.1512  0.1750
  154MOL0     C20678   2.026  11.281   8.502 -0.8339  0.2548  0.6960
  154MOL0     O20679   2.145  11.346   8.554  0.5150  1.0176  0.0891
  154MOL0     C20680   2.218  11.288   8.655  0.1810  0.1942 -0.5554
  154MOL0     C20681   2.329  11.363   8.689 -0.4263  0.5906 -0.1620
  154MOL0     C20682   2.406  11.326   8.809 -1.0318 -1.2231  0.3457
  154MOL0     C20683   2.528  11.394   8.839 -0.7933  0.5627 -0.2724
  154MOL0     C20684   2.372  11.211   8.876 -0.2991 -0.9980 -0.8052
  154MOL0     C20685   2.440  11.162   9.008  1.4673 -0.8069  0.4530
  154MOL0     O20686   2.572  11.133   9.001 -0.1246  0.4160 -0.4677
  154MOL0     C20687   2.639  11.096   9.116  0.0054  0.3348 -0.1763
  154MOL0     C20688   2.705  10.977   9.131  0.2149  0.4617 -0.0954
  154MOL0     C20689   2.764  10.937   9.245 -0.5837  0.5021  0.0483
  154MOL0     C20690   2.757  11.008   9.360  0.1817 -0.4806  0.4841
  154MOL0     O20691   2.817  10.952   9.468 -0.5281  0.1592  0.0039
  154MOL0     C20692   2.787  11.014   9.595  0.0624  0.2703 -1.0416
  154MOL0     C20693   2.868  10.935   9.697  0.3057  0.2712  0.3588
  154MOL0     C20694   2.806  10.949   9.837  0.2822 -0.6321 -0.0320
  154MOL0     C20695   2.790  11.089   9.883  0.3750  0.5037  0.3237
  154MOL0     C20696   2.751  11.078  10.028  0.3605  0.6369 -0.1446
  154MOL0     C20697   2.707  11.211  10.080 -0.0469 -0.1304  0.3888
  154MOL0     C20698   2.823  11.317  10.109  0.1609  0.1929  0.2493
  154MOL0     C20699   2.763  11.447  10.170 -0.5762 -0.5536 -0.5950
  154MOL0    Cl20700   2.656  11.529  10.058  0.2227  0.0952  0.2169
  154MOL0     C20701   2.687  11.131   9.350 -0.3551  0.4631  0.2473
  154MOL0     C20702   2.635  11.175   9.230  0.8363  0.3547 -0.6187
  154MOL0     O20703   2.369  11.142   9.104 -0.1379 -0.3409  0.0942
  154MOL0     C20704   2.253  11.144   8.850  1.4547  0.1038  0.9569
  154MOL0     C20705   2.172  11.187   8.744 -0.1827 -0.1336 -0.3016
  154MOL0     N20706   1.870  10.892   8.071  0.0631 -0.3618 -0.3493
  154MOL0     N20707   1.771  10.822   8.009  0.0920 -0.9251  0.8571
  154MOL0     C20708   1.483  11.010   6.748  1.0946 -0.7733  0.2919
  154MOL0     C20709   1.483  10.988   6.605  0.3028  0.4986 -0.6212
  154MOL0     C20710   1.660  10.861   6.215  0.1432  0.3391  0.8494
  154MOL0     C20711   1.767  10.846   6.125  0.3685 -0.8197  0.2029
  154MOL0     C20712   1.738  10.817   5.992 -0.6719 -0.4029  0.1425
  154MOL0     C20713   1.605  10.809   5.948  0.3113 -0.1551  0.0426
  154MOL0     O20714   1.588  10.784   5.812  0.7378  0.2469 -0.0515
  154MOL0     C20715   1.451  10.754   5.765 -0.2763 -0.9737  0.2467
  154MOL0     C20716   1.446  10.719   5.611 -0.0424  0.2855 -0.6694
  154MOL0     C20717   1.509  10.823   5.526 -0.2633 -0.2759  0.6196
  154MOL0     C20718   1.501  10.798   5.379 -0.7787  0.5806 -0.0314
  154MOL0     C20719   1.582  10.679   5.348  0.5250  0.8629 -0.7448
  154MOL0     C20720   1.641  10.576   5.315  0.4624  0.2102  0.6075
  154MOL0     C20721   1.496  10.806   6.031 -0.7556  0.2524 -0.2665
  154MOL0     C20722   1.528  10.840   6.170 -0.3899 -0.9699  0.5390
  154MOL0     H20723   1.821  11.035   6.578 -0.6522  1.0706 -2.0030
  154MOL0     H20724   1.808  11.072   6.828 -0.4773  1.0047  1.2650
  154MOL0     H20725   1.755  10.995   7.058  1.6584  1.1005 -0.9559
  154MOL0     H20726   1.714  11.163   7.053 -0.4561  0.0903 -1.0270
  154MOL0     H20727   1.514  11.093   7.199  0.2003  1.6678 -0.5018
  154MOL0     H20728   1.577  10.926   7.198 -0.0561 -0.2133 -4.1790
  154MOL0     H20729   1.777  10.986   7.316 -0.6608 -0.1217 -0.4837
  154MOL0     H20730   1.751  11.164   7.311 -1.1295  0.7034 -1.5202
  154MOL0     H20731   1.585  11.156   7.477 -0.0978  0.4081 -3.8341
  154MOL0     H20732   1.563  10.975   7.452  2.9270 -3.2616  2.6478
  154MOL0     H20733   1.783  10.919   7.537 -1.4580 -0.4636  2.0359
  154MOL0     H20734   1.823  11.087   7.536 -1.6358  1.5454 -0.5760
  154MOL0     H20735   1.730  11.073   7.764 -1.2425  4.0476 -2.2108
  154MOL0     H20736   1.574  11.070   7.693  0.0432  1.4542  1.1309
  154MOL0     H20737   1.531  10.856   7.678 -1.8476  2.8197  0.7672
  154MOL0     H20738   1.688  10.801   7.743  0.8821 -0.3514  0.5992
  154MOL0     H20739   1.517  10.784   7.921  1.9039 -0.3222  2.3696
  154MOL0     H20740   1.478  10.961   7.897  0.1463  1.7557 -3.4598
  154MOL0     H20741   1.641  11.112   8.003  0.0554  0.5111  0.3319
  154MOL0     H20742   2.039  11.075   8.137  0.5655  0.1820  2.4060
  154MOL0     H20743   1.935  11.215   8.113  1.1737  0.3563  1.3487
  154MOL0     H20744   1.928  11.046   8.367  0.6130  0.5905 -1.0613
  154MOL0     H20745   1.854  11.206   8.324 -0.0778  0.6669  2.0050
  154MOL0     H20746   2.090  11.290   8.293 -0.0043  1.6414  1.8774
  154MOL0     H20747   2.158  11.158   8.377  2.3015  3.3358  0.1878
  154MOL0     H20748   1.984  11.201   8.563 -1.5331  0.1817  0.1352
  154MOL0     H20749   1.945  11.353   8.487 -1.7074 -0.6663  0.9338
  154MOL0     H20750   2.364  11.444   8.625 -1.1678  0.5885 -0.5820
  154MOL0     H20751   2.602  11.314   8.836 -2.4634 -1.0564 -2.9659
  154MOL0     H20752   2.562  11.465   8.764  3.2924 -1.6767 -0.8445
  154MOL0     H20753   2.530  11.445   8.936 -0.0089  2.1501 -1.0885
  154MOL0     H20754   2.735  10.915   9.047 -1.5928 -1.0143  0.2934
  154MOL0     H20755   2.812  10.839   9.244 -0.6356  0.3377 -4.0752
  154MOL0     H20756   2.792  11.123   9.597 -0.7332  0.3227 -1.4854
  154MOL0     H20757   2.680  10.995   9.611 -0.1031 -0.3294 -2.6786
  154MOL0     H20758   2.864  10.828   9.677 -1.4198  0.2493  0.6516
  154MOL0     H20759   2.971  10.972   9.692  0.0571  0.8225 -1.5571
  154MOL0     H20760   2.863  10.886   9.906  0.5219  1.7668  2.1146
  154MOL0     H20761   2.702  10.915   9.843  0.0284  0.2895  1.1582
  154MOL0     H20762   2.884  11.145   9.892  1.4338 -1.2717  0.6404
  154MOL0     H20763   2.717  11.146   9.825  0.3684  0.2526  0.0880
  154MOL0     H20764   2.831  11.038  10.091  0.1556 -2.2286 -1.5455
  154MOL0     H20765   2.666  11.011  10.038 -0.5665  1.5528 -1.4432
  154MOL0     H20766   2.644  11.262  10.008  0.2403  1.4974  1.2550
  154MOL0     H20767   2.647  11.201  10.171 -2.4661 -0.6621 -1.1856
  154MOL0     H20768   2.872  11.333  10.013  0.2060 -4.0640 -0.6638
  154MOL0     H20769   2.898  11.278  10.179 -0.4485  1.4711  1.6670
  154MOL0     H20770   2.854  11.507  10.180 -0.9477 -0.1891  0.8077
  154MOL0     H20771   2.722  11.428  10.270  1.0552  2.3665  0.7854
  154MOL0     H20772   2.677  11.187   9.442 -1.6268  1.5854 -0.5319
  154MOL0     H20773   2.586  11.272   9.220 -1.3013 -0.7858 -1.7092
  154MOL0     H20774   2.226  11.051   8.898 -3.6162 -0.9485 -3.1079
  154MOL0     H20775   2.077  11.133   8.738 -0.6703  0.7008 -0.1806
  154MOL0     H20776   1.388  10.996   6.799  1.7966 -1.2222  1.5226
  154MOL0     H20777   1.391  10.950   6.561  0.8485  0.6906 -1.9628
  154MOL0     H20778   1.868  10.867   6.157  0.9385  3.2124 -3.3249
  154MOL0     H20779   1.816  10.820   5.916 -0.9421  1.6304 -0.1034
  154MOL0     H20780   1.418  10.665   5.819 -0.4276 -0.4860  0.9766
  154MOL0     H20781   1.383  10.838   5.781  0.7260  0.0000 -0.4444
  154MOL0     H20782   1.341  10.699   5.587 -0.2418  0.3527  0.1142
  154MOL0     H20783   1.495  10.623   5.591  2.9494  1.8688 -1.5370
  154MOL0     H20784   1.614  10.833   5.556  0.6946 -4.4258 -0.7351
  154MOL0     H20785   1.454  10.917   5.528 -2.4702 -1.4814 -0.6095
  154MOL0     H20786   1.544  10.883   5.325 -0.3520  0.5047  0.1855
  154MOL0     H20787   1.401  10.784   5.337  0.9701 -0.8448 -4.3552
  154MOL0     H20788   1.705  10.491   5.299 -2.1999 -1.8600  0.1499
  154MOL0     H20789   1.392  10.792   6.003 -0.9145  1.0596 -0.1292
  154MOL0     H20790   1.444  10.869   6.233 -0.1805  0.8623  0.0537
  155MOL0     O20791   8.941   4.458   2.490  0.3293  0.6990 -0.2339
  155MOL0     C20792   8.999   4.363   2.441  0.7371  0.2191 -0.7248
  155MOL0     O20793   9.078   4.272   2.504 -0.3377 -0.3483  0.2206
  155MOL0     C20794   9.115   4.291   2.635 -0.2485  0.6397 -0.0027
  155MOL0     C20795   9.217   4.196   2.680  0.6223 -0.0791 -0.1316
  155MOL0     C20796   9.266   4.186   2.808  0.0406 -0.6076 -0.1409
  155MOL0     C20797   9.219   4.270   2.910 -0.0589  0.7959  0.2264
  155MOL0     O20798   9.267   4.278   3.028 -0.0354 -0.2546 -0.4393
  155MOL0     C20799   9.408   4.235   3.058 -0.4092  0.1853 -0.4594
  155MOL0     C20800   9.452   4.257   3.206  0.6943 -0.0225 -0.2249
  155MOL0     C20801   9.407   4.397   3.254  0.0794 -0.9958 -0.9802
  155MOL0     C20802   9.480   4.509   3.162 -0.3772  0.2417 -0.0056
  155MOL0     C20803   9.461   4.642   3.218  0.2632 -0.6651 -0.5111
  155MOL0     C20804   9.543   4.750   3.140  0.4043 -0.3755 -0.0100
  155MOL0     C20805   9.501   4.898   3.175  0.3455  0.3728 -0.0086
  155MOL0     C20806   9.614   4.995   3.141  0.4267 -0.2235 -0.7141
  155MOL0     N20807   9.566   5.133   3.141  0.3789 -0.2405  1.0596
  155MOL0     C20808   9.520   5.206   3.032 -0.1216 -0.1919  0.1328
  155MOL0     C20809   9.528   5.339   3.082 -0.1305  1.3186  0.1380
  155MOL0     C20810   9.508   5.445   2.989 -0.3374 -0.4325 -0.0147
  155MOL0     C20811   9.446   5.573   3.052 -0.2957  0.1564 -0.3941
  155MOL0     C20812   9.449   5.685   2.951  1.0217  0.0172  0.2385
  155MOL0     C20813   9.338   5.698   2.846  0.1643  0.5476  0.9380
  155MOL0     O20814   9.395   5.798   2.752 -0.5119 -0.3473 -0.8899
  155MOL0     C20815   9.360   5.768   2.625 -0.0720  0.6853  0.0120
  155MOL0     C20816   9.233   5.801   2.580  0.0180  0.0716 -1.1364
  155MOL0     C20817   9.186   5.790   2.451 -0.8890  0.9635 -0.4842
  155MOL0     C20818   9.054   5.858   2.411 -0.1980  0.0296  0.0706
  155MOL0     C20819   9.270   5.738   2.349  1.0146  0.5978 -0.2775
  155MOL0     C20820   9.244   5.742   2.201 -0.7226  0.2083 -0.1539
  155MOL0     O20821   9.359   5.772   2.123 -0.8839  0.1736  0.1173
  155MOL0     C20822   9.348   5.735   1.990 -0.3771  0.1958 -1.0548
  155MOL0     C20823   9.341   5.836   1.895  0.0286 -0.5886 -0.0362
  155MOL0     C20824   9.351   5.806   1.756  0.0897  0.1288  0.2143
  155MOL0     C20825   9.371   5.670   1.728  0.3947 -0.5407  0.6804
  155MOL0     O20826   9.381   5.645   1.593  0.1226  0.5436 -0.5737
  155MOL0     C20827   9.520   5.655   1.540 -0.5642 -0.1722  0.0485
  155MOL0     C20828   9.529   5.612   1.400 -0.3656 -0.0092 -0.1231
  155MOL0     C20829   9.519   5.459   1.384 -0.2813  0.1555  0.4338
  155MOL0     C20830   9.512   5.418   1.233  0.5551 -0.9018 -1.0836
  155MOL0     C20831   9.509   5.268   1.207 -0.6259 -0.9037 -1.2406
  155MOL0     C20832   9.530   5.240   1.059  0.0858  0.5386  0.1434
  155MOL0     C20833   9.493   5.093   1.015 -0.2105 -0.4371 -1.5435
  155MOL0     C20834   9.499   5.068   0.861 -0.5324  0.3321  0.0594
  155MOL0    Cl20835   9.645   5.165   0.793 -0.4899 -0.3825 -0.0434
  155MOL0     C20836   9.396   5.570   1.822 -0.7467 -0.4218 -0.1078
  155MOL0     C20837   9.374   5.599   1.953 -0.1861 -0.6313 -0.7717
  155MOL0     O20838   9.141   5.705   2.151  0.4075  0.5034 -1.5078
  155MOL0     C20839   9.400   5.698   2.395  0.7455  0.5021  0.2039
  155MOL0     C20840   9.448   5.717   2.525 -0.0070 -0.0028  0.3143
  155MOL0     N20841   9.569   5.333   3.211 -0.0939 -0.6085 -0.5661
  155MOL0     N20842   9.588   5.219   3.251  0.5263 -0.2939 -0.1143
  155MOL0     C20843   9.125   4.372   2.870 -0.2460 -0.3651  0.4285
  155MOL0     C20844   9.066   4.374   2.739  0.1077  0.0981  0.0043
  155MOL0     C20845   8.964   4.324   2.305  0.1297 -0.0389  1.0416
  155MOL0     C20846   8.862   4.392   2.235  0.8944  0.2136 -0.1647
  155MOL0     C20847   8.812   4.333   2.114  0.0536 -0.4372 -0.7876
  155MOL0     C20848   8.882   4.241   2.042 -0.2325  0.2171 -0.4398
  155MOL0     O20849   8.851   4.186   1.924  0.9326 -0.4049 -0.1044
  155MOL0     C20850   8.714   4.211   1.879 -0.0926  0.7077 -0.1485
  155MOL0     C20851   8.726   4.207   1.729 -0.9234 -0.6580 -0.1514
  155MOL0     C20852   8.688   4.082   1.665  0.0450 -0.2603 -0.4742
  155MOL0     C20853   8.696   4.105   1.512 -0.0328 -0.0080  0.2950
  155MOL0     C20854   8.664   3.988   1.440  0.5888  0.8550  0.7915
  155MOL0     C20855   8.663   3.896   1.366  0.5060  0.6041 -0.3532
  155MOL0     C20856   8.996   4.184   2.103  0.2285  0.2078  0.1960
  155MOL0     C20857   9.034   4.223   2.232  0.7467 -0.2930 -0.6581
  155MOL0     H20858   9.248   4.126   2.603  0.0438 -1.5578  0.9265
  155MOL0     H20859   9.339   4.110   2.833 -0.3638 -2.0012 -2.7916
  155MOL0     H20860   9.426   4.129   3.037 -0.5732  0.3361 -1.3972
  155MOL0     H20861   9.472   4.288   2.987 -1.4357  0.6938 -1.0392
  155MOL0     H20862   9.394   4.183   3.262 -0.8635 -0.0956 -1.8127
  155MOL0     H20863   9.556   4.238   3.232  0.3893 -3.1053 -0.8944
  155MOL0     H20864   9.299   4.415   3.253  0.2879  0.9051  1.3247
  155MOL0     H20865   9.426   4.404   3.362 -1.9985 -5.9115 -0.0048
  155MOL0     H20866   9.588   4.492   3.157 -0.5941 -2.4079  1.9710
  155MOL0     H20867   9.445   4.502   3.059  0.1077 -3.3179 -0.0357
  155MOL0     H20868   9.359   4.683   3.225  0.4405 -0.5698  2.2291
  155MOL0     H20869   9.500   4.642   3.320 -0.7304 -2.0343 -0.1059
  155MOL0     H20870   9.651   4.743   3.153  0.1923 -1.1020  1.4820
  155MOL0     H20871   9.533   4.726   3.033  0.3718  1.1862 -0.3817
  155MOL0     H20872   9.416   4.925   3.111  2.1957  0.2400 -2.6886
  155MOL0     H20873   9.480   4.901   3.282 -1.7296 -2.1243 -0.2415
  155MOL0     H20874   9.648   4.975   3.039  0.7602  0.1473 -0.6810
  155MOL0     H20875   9.689   4.984   3.220 -0.5929 -2.5893 -0.0077
  155MOL0     H20876   9.502   5.166   2.933  2.2134 -2.8535  0.6424
  155MOL0     H20877   9.606   5.471   2.949 -1.0765  0.6522 -1.1622
  155MOL0     H20878   9.441   5.409   2.910 -2.4604  2.7344  0.1597
  155MOL0     H20879   9.510   5.611   3.132  1.1930  1.1851 -2.0138
  155MOL0     H20880   9.342   5.556   3.081 -0.1197 -0.6368 -0.1952
  155MOL0     H20881   9.543   5.684   2.895  0.2515 -1.6213 -1.0996
  155MOL0     H20882   9.457   5.777   3.011  3.4721  1.5145 -2.1563
  155MOL0     H20883   9.249   5.739   2.894 -0.4494  1.9035 -1.2252
  155MOL0     H20884   9.306   5.614   2.785  1.6776  1.5646 -1.3901
  155MOL0     H20885   9.173   5.843   2.660 -0.7210 -3.5492  0.4386
  155MOL0     H20886   8.980   5.789   2.371  1.0277 -2.0308  1.1902
  155MOL0     H20887   8.997   5.891   2.498 -1.2387 -0.4932 -0.4015
  155MOL0     H20888   9.077   5.945   2.348  1.5366 -0.4972 -0.0607
  155MOL0     H20889   9.335   5.934   1.941 -1.4810 -0.3801 -0.6182
  155MOL0     H20890   9.344   5.885   1.681 -1.1263 -0.4457 -0.2947
  155MOL0     H20891   9.542   5.762   1.544 -1.6219  0.0235  1.2255
  155MOL0     H20892   9.590   5.586   1.588  0.0394  0.9462  0.8121
  155MOL0     H20893   9.447   5.655   1.342 -0.9423  1.0171  1.3984
  155MOL0     H20894   9.629   5.637   1.362 -0.3204 -0.5646 -0.3825
  155MOL0     H20895   9.437   5.424   1.447 -0.9172 -0.5309 -0.7445
  155MOL0     H20896   9.614   5.419   1.419 -0.1029  2.0504  2.3291
  155MOL0     H20897   9.418   5.459   1.195  0.0622  0.2750  1.2149
  155MOL0     H20898   9.588   5.474   1.178  0.0821  1.8702  0.8563
  155MOL0     H20899   9.416   5.217   1.234 -0.2488 -0.4243  1.1945
  155MOL0     H20900   9.589   5.213   1.258  1.2703  1.3464 -1.5630
  155MOL0     H20901   9.471   5.310   0.999  0.6933  1.3446  0.4729
  155MOL0     H20902   9.637   5.251   1.038 -0.1049  1.1138 -0.5365
  155MOL0     H20903   9.401   5.058   1.062  1.5793 -1.3490  1.5509
  155MOL0     H20904   9.572   5.037   1.065  0.2357  0.2736 -1.4435
  155MOL0     H20905   9.407   5.102   0.813  1.2579  2.8014 -1.9459
  155MOL0     H20906   9.516   4.961   0.843  1.6464  0.8357 -1.3690
  155MOL0     H20907   9.440   5.477   1.790 -0.1527 -0.1351 -0.1419
  155MOL0     H20908   9.378   5.519   2.026  1.4928  0.9342  0.9837
  155MOL0     H20909   9.469   5.660   2.320 -0.9213 -1.2730 -0.5032
  155MOL0     H20910   9.553   5.694   2.540 -0.3494 -1.5649  0.4699
  155MOL0     H20911   9.104   4.449   2.944  1.8073 -0.7672  1.5371
  155MOL0     H20912   8.973   4.428   2.724  1.1403  2.0040  0.1265
  155MOL0     H20913   8.800   4.459   2.292 -0.0629 -2.1312  1.7141
  155MOL0     H20914   8.716   4.370   2.078 -0.7862 -1.3471  0.4562
  155MOL0     H20915   8.632   4.152   1.922  0.0957  0.2703 -0.3787
  155MOL0     H20916   8.697   4.318   1.891 -0.0657  0.9077 -1.6983
  155MOL0     H20917   8.825   4.230   1.689 -0.7452 -1.8088 -0.4113
  155MOL0     H20918   8.659   4.280   1.682 -0.6588 -1.8144 -2.5107
  155MOL0     H20919   8.589   4.053   1.702  1.7743 -3.4437  2.1854
  155MOL0     H20920   8.761   4.013   1.708  0.1742  0.4507  0.4920
  155MOL0     H20921   8.792   4.141   1.473 -0.7626 -0.8472 -2.4861
  155MOL0     H20922   8.628   4.190   1.498  0.5407  0.4520  0.2444
  155MOL0     H20923   8.653   3.806   1.308  2.1980  1.3248 -1.8788
  155MOL0     H20924   9.052   4.102   2.058 -1.8170 -0.8297 -0.5803
  155MOL0     H20925   9.120   4.176   2.279 -0.7470 -0.7652  1.8118
  156MOL0     O20926   2.675   5.856   2.280  1.1828  0.8514 -0.2902
  156MOL0     C20927   2.603   5.758   2.312 -0.2755  0.6958 -0.8846
  156MOL0     O20928   2.616   5.632   2.258  0.3081  0.0430  0.1239
  156MOL0     C20929   2.688   5.602   2.143 -0.0725 -0.3763 -0.6291
  156MOL0     C20930   2.794   5.674   2.088 -0.5794 -0.5419  0.6653
  156MOL0     C20931   2.875   5.627   1.981  0.2115  0.3000 -0.2582
  156MOL0     C20932   2.847   5.501   1.928 -0.3975 -0.3350 -0.2168
  156MOL0     O20933   2.916   5.462   1.825 -0.4774 -0.5779 -0.2745
  156MOL0     C20934   3.019   5.362   1.854 -0.5576  0.1183 -0.3515
  156MOL0     C20935   3.072   5.305   1.721  0.8716  0.0607 -0.0686
  156MOL0     C20936   2.958   5.266   1.623  1.0422 -0.3277  0.5559
  156MOL0     C20937   3.001   5.169   1.513  0.4372  0.0644  0.0366
  156MOL0     C20938   2.881   5.123   1.438 -1.1128 -1.4319  0.5446
  156MOL0     C20939   2.932   5.064   1.304 -0.3860 -0.5249 -1.0658
  156MOL0     C20940   2.835   4.970   1.255  0.0336  0.2755  0.6784
  156MOL0     C20941   2.715   5.040   1.177  1.2823  0.0192  1.6640
  156MOL0     N20942   2.744   5.042   1.030 -0.1745  0.0247 -0.4706
  156MOL0     C20943   2.830   5.126   0.963 -0.0480  0.1897 -0.6890
  156MOL0     C20944   2.832   5.084   0.835  0.7506  0.1866 -1.3655
  156MOL0     C20945   2.907   5.136   0.720  0.1007  1.7936 -0.6879
  156MOL0     C20946   2.852   5.269   0.679  0.2546 -0.2949  0.2861
  156MOL0     C20947   2.911   5.340   0.552  0.0821  0.0095 -0.2971
  156MOL0     C20948   2.804   5.385   0.458 -0.5534  0.5189  1.0086
  156MOL0     O20949   2.724   5.497   0.509 -0.1898 -0.0265  0.4824
  156MOL0     C20950   2.762   5.635   0.509  0.4447  0.4212 -0.1408
  156MOL0     C20951   2.890   5.686   0.473 -0.8361  0.2577 -0.5686
  156MOL0     C20952   2.927   5.820   0.488  0.4092  0.5171  0.5689
  156MOL0     C20953   3.070   5.859   0.481 -0.2623 -0.0111  0.1695
  156MOL0     C20954   2.829   5.907   0.534  0.0166 -1.2385  0.2883
  156MOL0     C20955   2.852   6.056   0.551 -0.5746 -0.3143  0.1316
  156MOL0     O20956   2.767   6.121   0.630  0.1223 -0.2580 -0.2050
  156MOL0     C20957   2.817   6.181   0.748  0.5822  0.1916  1.4839
  156MOL0     C20958   2.945   6.167   0.794 -0.1607 -0.5550 -0.0295
  156MOL0     C20959   2.985   6.222   0.912  1.1992  0.2656  0.2662
  156MOL0     C20960   2.895   6.296   0.988  1.1659  0.5585 -1.3948
  156MOL0     O20961   2.944   6.357   1.107 -0.2489  0.2206  0.7690
  156MOL0     C20962   2.869   6.475   1.157 -0.0403  0.1866 -0.0844
  156MOL0     C20963   2.882   6.602   1.071 -0.4963 -0.6465 -0.4187
  156MOL0     C20964   2.784   6.714   1.093  0.0594 -1.0874 -0.2741
  156MOL0     C20965   2.642   6.664   1.125  0.5734 -0.1093  0.7835
  156MOL0     C20966   2.541   6.793   1.098 -0.0659 -0.4724  0.2455
  156MOL0     C20967   2.389   6.761   1.102  0.7864  0.0751  0.0478
  156MOL0     C20968   2.300   6.888   1.131  0.2920  0.1357  0.8092
  156MOL0     C20969   2.144   6.856   1.141  0.0687 -0.8715 -0.0840
  156MOL0    Cl20970   2.042   7.006   1.155 -0.1764  0.3113  0.2623
  156MOL0     C20971   2.756   6.307   0.950  0.6956 -0.2765  0.4011
  156MOL0     C20972   2.725   6.250   0.830  0.6193  1.2776  0.2629
  156MOL0     O20973   2.939   6.110   0.485  0.1189  0.7281 -0.1665
  156MOL0     C20974   2.705   5.858   0.566 -0.1599 -0.3824 -0.4287
  156MOL0     C20975   2.665   5.721   0.552  0.4031 -0.4166 -0.0229
  156MOL0     N20976   2.751   4.974   0.825  0.3634  1.3803 -0.0260
  156MOL0     N20977   2.690   4.954   0.938  0.4139  0.0205 -0.5336
  156MOL0     C20978   2.754   5.419   1.993  0.5902 -0.1230 -1.0545
  156MOL0     C20979   2.674   5.473   2.100  0.6637 -0.7595  0.0130
  156MOL0     C20980   2.491   5.792   2.409 -1.0509 -0.0235 -0.1343
  156MOL0     C20981   2.508   5.887   2.500  0.2801 -0.8954 -1.2802
  156MOL0     C20982   2.419   5.911   2.606  0.1550 -0.8028 -0.5158
  156MOL0     C20983   2.299   5.850   2.612 -0.7650 -0.9546  0.7901
  156MOL0     O20984   2.213   5.881   2.722  0.0584 -0.8242  0.0779
  156MOL0     C20985   2.070   5.850   2.701 -0.8216 -0.4495 -0.6854
  156MOL0     C20986   2.002   5.844   2.837  0.9060 -0.1682  0.6643
  156MOL0     C20987   2.002   5.982   2.905 -1.0327 -0.1149 -0.2707
  156MOL0     C20988   1.883   6.071   2.864 -0.9641 -0.4633 -0.3909
  156MOL0     C20989   1.901   6.203   2.921 -0.5841 -0.9726 -0.3598
  156MOL0     C20990   1.917   6.319   2.964  0.2722  0.6227  0.6446
  156MOL0     C20991   2.281   5.740   2.523 -0.3963  0.1769  0.6057
  156MOL0     C20992   2.375   5.705   2.422  0.4403  0.1897  0.1802
  156MOL0     H20993   2.819   5.774   2.124 -2.7624 -0.1126  1.1263
  156MOL0     H20994   2.945   5.690   1.926  0.5916 -0.9173 -1.1979
  156MOL0     H20995   3.102   5.408   1.909 -0.6841  2.0387 -1.6585
  156MOL0     H20996   2.974   5.283   1.914 -0.5100  0.2820 -0.0977
  156MOL0     H20997   3.141   5.371   1.667  0.5515 -0.2664 -0.8980
  156MOL0     H20998   3.139   5.224   1.750  0.1117 -0.1546  1.1283
  156MOL0     H20999   2.871   5.230   1.678  1.5023 -0.7881  0.9953
  156MOL0     H21000   2.928   5.354   1.565 -2.6297 -3.3348 -2.5969
  156MOL0     H21001   3.069   5.220   1.445 -2.3699  1.2485 -2.0470
  156MOL0     H21002   3.033   5.078   1.564 -2.1434 -0.1687  1.4426
  156MOL0     H21003   2.835   5.053   1.508 -5.3951  0.0936 -0.4526
  156MOL0     H21004   2.809   5.201   1.411  2.1766  2.4651  2.0524
  156MOL0     H21005   2.938   5.152   1.239 -1.1919 -2.4349 -3.9279
  156MOL0     H21006   3.027   5.011   1.318  0.3086  0.6293 -1.3217
  156MOL0     H21007   2.887   4.907   1.182  0.1518  2.4977 -1.2849
  156MOL0     H21008   2.788   4.911   1.334 -1.8305 -2.0710 -1.9823
  156MOL0     H21009   2.698   5.140   1.216 -1.9782 -0.5612  2.0317
  156MOL0     H21010   2.625   4.979   1.184  1.7873 -0.8507  0.8215
  156MOL0     H21011   2.876   5.218   0.995 -1.3164  0.8201 -0.6107
  156MOL0     H21012   3.008   5.146   0.759  0.3381 -2.2381  0.1767
  156MOL0     H21013   2.905   5.054   0.648  1.1561  0.7179  0.4573
  156MOL0     H21014   2.876   5.341   0.758  0.5524 -2.6546  2.4654
  156MOL0     H21015   2.745   5.254   0.667  0.4533 -1.0489 -0.6587
  156MOL0     H21016   2.987   5.275   0.509 -2.7657 -0.9491 -4.5512
  156MOL0     H21017   2.968   5.424   0.593 -0.9676 -0.1571  1.6356
  156MOL0     H21018   2.747   5.300   0.418  2.5651  0.2457 -3.7628
  156MOL0     H21019   2.857   5.421   0.369 -0.6040  2.0727  1.5891
  156MOL0     H21020   2.967   5.614   0.449 -3.6396 -3.1690 -0.0123
  156MOL0     H21021   3.094   5.926   0.398 -1.1588 -1.4770 -1.3171
  156MOL0     H21022   3.099   5.901   0.578 -1.9042  0.7117  0.3684
  156MOL0     H21023   3.135   5.772   0.464 -1.5098 -0.4931 -2.5818
  156MOL0     H21024   3.014   6.099   0.743 -3.2684 -1.8118 -2.8985
  156MOL0     H21025   3.087   6.198   0.942  2.1258  1.4316 -1.7594
  156MOL0     H21026   2.762   6.453   1.161 -0.2975  1.4873  0.4659
  156MOL0     H21027   2.897   6.502   1.259  0.0484 -0.5543  0.0948
  156MOL0     H21028   2.980   6.650   1.081 -1.5692  2.2015 -2.3050
  156MOL0     H21029   2.870   6.575   0.966 -0.7277  2.8237 -1.3918
  156MOL0     H21030   2.780   6.762   0.995 -2.5272  0.4402  0.4840
  156MOL0     H21031   2.818   6.794   1.161  0.6714 -1.3029 -0.3193
  156MOL0     H21032   2.598   6.587   1.061  0.5830  1.2848 -0.9966
  156MOL0     H21033   2.642   6.627   1.228  1.2257 -0.6431  0.5976
  156MOL0     H21034   2.558   6.818   0.993  1.4233 -0.0291  0.5695
  156MOL0     H21035   2.578   6.879   1.155 -1.0908  0.5856 -0.6421
  156MOL0     H21036   2.345   6.700   1.023 -0.2579  1.2861 -0.3508
  156MOL0     H21037   2.391   6.703   1.195 -0.2857 -1.5141 -0.8785
  156MOL0     H21038   2.315   6.945   1.039  1.2514  2.4980  2.3395
  156MOL0     H21039   2.345   6.937   1.217  3.2845 -0.7445 -0.1432
  156MOL0     H21040   2.128   6.801   1.234 -3.1239  0.8124  0.4944
  156MOL0     H21041   2.121   6.793   1.055 -1.3380 -1.3816  0.6402
  156MOL0     H21042   2.678   6.360   1.002 -0.1958 -0.1799 -0.9782
  156MOL0     H21043   2.623   6.256   0.793 -0.0122 -0.5020  1.5788
  156MOL0     H21044   2.634   5.932   0.604  3.1648  1.3729  3.0580
  156MOL0     H21045   2.560   5.700   0.569  0.2831 -0.2823 -0.5769
  156MOL0     H21046   2.723   5.319   1.965 -0.3704  0.0587 -0.6706
  156MOL0     H21047   2.600   5.416   2.155 -2.3762  0.1913 -2.7293
  156MOL0     H21048   2.591   5.956   2.483 -0.1375  0.1847  0.7155
  156MOL0     H21049   2.442   5.989   2.678 -2.4347 -0.4747  0.0570
  156MOL0     H21050   2.028   5.935   2.646 -2.3851 -0.9384 -0.2884
  156MOL0     H21051   2.049   5.752   2.655 -3.6941 -0.0019 -0.5029
  156MOL0     H21052   2.046   5.771   2.904 -1.5499 -0.4713  2.0850
  156MOL0     H21053   1.897   5.816   2.823  0.9573 -2.2286  3.5917
  156MOL0     H21054   2.097   6.024   2.871 -0.3865 -2.0785 -1.0131
  156MOL0     H21055   2.011   5.958   3.012  0.4462 -3.8294 -1.0536
  156MOL0     H21056   1.793   6.012   2.887  0.4597 -3.1409 -1.1964
  156MOL0     H21057   1.874   6.082   2.755 -0.9855  0.2955 -0.3168
  156MOL0     H21058   1.933   6.421   2.991  2.0435  0.6406 -0.3339
  156MOL0     H21059   2.201   5.667   2.525  2.4618 -3.2467  4.1918
  156MOL0     H21060   2.365   5.618   2.358 -2.0927  0.0111  0.6910
  157MOL0     O21061   2.513   2.224   9.430 -0.0533 -0.6201 -0.5892
  157MOL0     C21062   2.416   2.300   9.416  0.4744  0.4834 -0.0462
  157MOL0     O21063   2.381   2.404   9.497  0.5465  0.3777 -0.6027
  157MOL0     C21064   2.455   2.448   9.603  0.6912  0.3113  0.4375
  157MOL0     C21065   2.382   2.482   9.723 -0.6582  0.2755  0.0174
  157MOL0     C21066   2.450   2.521   9.839  0.6442  0.5462 -0.5049
  157MOL0     C21067   2.583   2.540   9.844 -0.1868 -0.5424 -0.1550
  157MOL0     O21068   2.637   2.577   9.959 -0.5614  0.6069 -0.4728
  157MOL0     C21069   2.785   2.609   9.951  0.9407  1.2411 -0.2794
  157MOL0     C21070   2.839   2.650  10.087 -0.1802  0.7065 -0.1183
  157MOL0     C21071   2.981   2.710  10.083  0.7602  1.2879 -0.0817
  157MOL0     C21072   3.052   2.729  10.221 -0.0115  0.8975 -0.4041
  157MOL0     C21073   3.188   2.673  10.212  1.1428  0.4957  0.3661
  157MOL0     C21074   3.254   2.682  10.348  0.0055  0.5246 -0.6473
  157MOL0     C21075   3.406   2.682  10.345  0.1126 -0.8471 -0.4245
  157MOL0     C21076   3.454   2.545  10.309 -0.2370 -0.8250 -0.2391
  157MOL0     N21077   3.600   2.547  10.296 -0.1461  0.3133  0.4631
  157MOL0     C21078   3.687   2.473  10.374  0.2846 -0.1640  0.0418
  157MOL0     C21079   3.804   2.506  10.324 -0.2823 -1.3442 -0.8261
  157MOL0     C21080   3.934   2.461  10.375 -0.4134 -0.0028  0.7568
  157MOL0     C21081   3.977   2.319  10.334  0.2998  0.1800 -0.2883
  157MOL0     C21082   4.121   2.282  10.367 -0.7596 -0.0182 -0.3597
  157MOL0     C21083   4.233   2.363  10.296  0.9696  0.1924 -0.7347
  157MOL0     O21084   4.361   2.324  10.335 -0.1762  0.3296  0.5240
  157MOL0     C21085   4.454   2.318  10.237 -0.2435 -0.4191  0.7527
  157MOL0     C21086   4.562   2.228  10.246  0.4603  0.1987 -0.4707
  157MOL0     C21087   4.659   2.217  10.150  0.6729  0.3084  1.3821
  157MOL0     C21088   4.765   2.114  10.168 -0.4007  0.0005  0.6499
  157MOL0     C21089   4.659   2.303  10.037 -0.7724  0.3037  0.6071
  157MOL0     C21090   4.744   2.290   9.922  0.3903  0.2091  0.3280
  157MOL0     O21091   4.791   2.169   9.881 -0.3579  0.4734 -0.6039
  157MOL0     C21092   4.836   2.150   9.755 -0.4099 -0.8956 -0.7179
  157MOL0     C21093   4.816   2.024   9.706 -0.0740  0.1530  0.2073
  157MOL0     C21094   4.876   1.979   9.593 -0.6686 -0.3466  0.3605
  157MOL0     C21095   4.937   2.073   9.511  0.9346  1.2528  0.0391
  157MOL0     O21096   4.976   2.032   9.386  0.3185 -0.4899  0.0101
  157MOL0     C21097   5.075   1.931   9.386  0.5775 -0.2775 -0.6525
  157MOL0     C21098   5.152   1.942   9.259  0.0996 -0.8076  1.3984
  157MOL0     C21099   5.252   1.822   9.237 -0.4646  0.1968  0.2599
  157MOL0     C21100   5.313   1.838   9.100 -0.0242 -0.3496 -0.1001
  157MOL0     C21101   5.359   1.702   9.053 -0.7264 -0.1837 -0.7707
  157MOL0     C21102   5.448   1.707   8.926 -0.0862 -1.5441  1.1980
  157MOL0     C21103   5.459   1.563   8.861 -0.8674 -0.7845 -0.4198
  157MOL0     C21104   5.537   1.570   8.732  0.6627 -0.1891 -0.1632
  157MOL0    Cl21105   5.558   1.407   8.664 -0.2145  0.0335 -0.1732
  157MOL0     C21106   4.956   2.205   9.550  0.5075  0.7321  0.0794
  157MOL0     C21107   4.905   2.248   9.673  0.3161 -0.1573  0.5879
  157MOL0     O21108   4.773   2.395   9.871 -0.1278  0.2777  0.2592
  157MOL0     C21109   4.558   2.401  10.041 -0.4218 -0.1455 -0.2476
  157MOL0     C21110   4.459   2.410  10.134 -0.6860  0.1961 -0.1814
  157MOL0     N21111   3.794   2.599  10.227  0.5898  0.0812  0.5063
  157MOL0     N21112   3.671   2.617  10.204 -0.5284  0.0039  0.5031
  157MOL0     C21113   2.658   2.495   9.731 -0.2911 -0.0568  0.4962
  157MOL0     C21114   2.596   2.447   9.620 -0.2054  0.3641 -1.2391
  157MOL0     C21115   2.338   2.275   9.294 -0.8189 -0.6429 -0.7256
  157MOL0     C21116   2.271   2.381   9.236  0.3542  0.3662  1.0726
  157MOL0     C21117   2.182   2.359   9.127  0.6200 -0.6187  0.0579
  157MOL0     C21118   2.163   2.228   9.083 -0.7011  0.1546  0.3207
  157MOL0     O21119   2.098   2.183   8.964 -0.6471 -0.2613 -0.6784
  157MOL0     C21120   2.038   2.287   8.881 -1.2354 -0.0165  0.1489
  157MOL0     C21121   1.915   2.232   8.814  0.2952 -0.1584  0.9345
  157MOL0     C21122   1.919   2.075   8.782  0.2030  0.5739  0.0835
  157MOL0     C21123   1.784   2.032   8.723 -0.3207 -0.7441  0.0049
  157MOL0     C21124   1.767   2.059   8.580 -0.3670  0.5331 -0.1544
  157MOL0     C21125   1.750   2.073   8.459 -0.4911 -0.1761 -0.2191
  157MOL0     C21126   2.229   2.125   9.151 -0.3310 -0.1663 -0.9979
  157MOL0     C21127   2.319   2.137   9.257  0.0034  0.1054 -0.1729
  157MOL0     H21128   2.273   2.486   9.726 -0.6157  1.7860  0.8749
  157MOL0     H21129   2.389   2.531   9.928  1.7210 -0.6634  0.4117
  157MOL0     H21130   2.845   2.522   9.922  0.5781  0.0171  2.3305
  157MOL0     H21131   2.809   2.691   9.884 -0.3113  3.0915  1.4050
  157MOL0     H21132   2.762   2.715  10.131 -1.2440 -1.1681  0.9146
  157MOL0     H21133   2.830   2.555  10.140  0.4269  1.2875  1.0738
  157MOL0     H21134   3.031   2.631  10.026 -0.3846 -0.3820  1.1182
  157MOL0     H21135   2.973   2.796  10.016 -0.6652  0.3726 -1.1764
  157MOL0     H21136   3.058   2.832  10.257 -1.5159  0.3783  1.4327
  157MOL0     H21137   2.999   2.678  10.302  1.4957  2.6368  1.7949
  157MOL0     H21138   3.183   2.567  10.186 -2.1543  0.8306 -0.8607
  157MOL0     H21139   3.239   2.735  10.137 -0.7379  1.5377 -0.1093
  157MOL0     H21140   3.229   2.780  10.388 -0.4703 -0.5137  1.7724
  157MOL0     H21141   3.227   2.600  10.415  0.2418  1.6086  0.8086
  157MOL0     H21142   3.437   2.745  10.261 -2.4282  1.3575  0.1324
  157MOL0     H21143   3.445   2.715  10.442 -0.4949  0.9020 -0.7332
  157MOL0     H21144   3.411   2.521  10.212  0.1135 -2.0653 -0.1010
  157MOL0     H21145   3.431   2.470  10.386  2.1588 -1.7268 -0.3232
  157MOL0     H21146   3.669   2.390  10.442  1.6343 -0.0382  0.5908
  157MOL0     H21147   4.008   2.528  10.331 -0.1736  1.1226  2.7427
  157MOL0     H21148   3.923   2.482  10.482 -1.9935  4.7308 -0.0964
  157MOL0     H21149   3.970   2.307  10.225  2.0262  0.9357 -0.5113
  157MOL0     H21150   3.906   2.250  10.380 -0.3089 -0.5681 -2.2731
  157MOL0     H21151   4.157   2.181  10.343  0.9926  0.9479 -2.0752
  157MOL0     H21152   4.132   2.298  10.475  2.5399 -1.5610 -0.3414
  157MOL0     H21153   4.218   2.467  10.325  1.1451 -0.5761  2.5245
  157MOL0     H21154   4.211   2.353  10.190 -0.0907 -3.7612 -0.3128
  157MOL0     H21155   4.552   2.146  10.317 -0.0178  1.3788  0.8839
  157MOL0     H21156   4.784   2.087  10.272 -1.8083  0.9572  1.1855
  157MOL0     H21157   4.730   2.025  10.115 -0.1196 -0.7616  1.7201
  157MOL0     H21158   4.855   2.162  10.129  0.7521 -1.9407  0.8322
  157MOL0     H21159   4.749   1.963   9.764 -0.0446  0.9298  1.0832
  157MOL0     H21160   4.854   1.874   9.575  1.3920 -1.5924  4.0018
  157MOL0     H21161   5.151   1.945   9.463 -1.6730  1.4186  1.4292
  157MOL0     H21162   5.026   1.832   9.388 -1.2093  0.5315 -1.6607
  157MOL0     H21163   5.085   1.958   9.174  0.0649 -2.5854  1.0377
  157MOL0     H21164   5.216   2.030   9.259  1.6419 -1.7795 -1.9256
  157MOL0     H21165   5.192   1.731   9.245 -3.6195  2.0466 -0.7380
  157MOL0     H21166   5.337   1.820   9.307  0.0342  1.7858 -0.2395
  157MOL0     H21167   5.240   1.877   9.029  1.9567  0.2204 -1.9409
  157MOL0     H21168   5.386   1.919   9.100 -0.4230  0.0309  0.9982
  157MOL0     H21169   5.274   1.637   9.030  0.0993 -1.0707 -1.4249
  157MOL0     H21170   5.408   1.641   9.129 -2.4620 -0.5386  0.1115
  157MOL0     H21171   5.424   1.787   8.856  4.1091 -0.6978  0.4428
  157MOL0     H21172   5.548   1.735   8.962  0.4082 -3.3980  1.3747
  157MOL0     H21173   5.359   1.521   8.846 -1.0464 -0.9011  0.9659
  157MOL0     H21174   5.508   1.486   8.921  0.5315  0.1076 -0.3776
  157MOL0     H21175   5.639   1.599   8.758  0.9049 -3.5539  3.6230
  157MOL0     H21176   5.482   1.639   8.667  0.2351 -0.2075  0.1689
  157MOL0     H21177   5.011   2.270   9.483  0.5014 -1.2277 -1.9413
  157MOL0     H21178   4.922   2.352   9.698  0.0989 -0.5877  2.7343
  157MOL0     H21179   4.546   2.466   9.955 -5.1362 -1.7585 -1.1341
  157MOL0     H21180   4.393   2.495  10.128 -1.3447 -0.3493 -0.8765
  157MOL0     H21181   2.766   2.499   9.724 -0.4412  0.9705 -3.8455
  157MOL0     H21182   2.644   2.411   9.530 -0.7231  0.5182 -1.5796
  157MOL0     H21183   2.285   2.487   9.258  0.4895  0.6853 -0.3930
  157MOL0     H21184   2.136   2.444   9.078  0.5440 -0.5625  0.2240
  157MOL0     H21185   2.001   2.373   8.938 -1.7408 -1.4356  2.0442
  157MOL0     H21186   2.105   2.334   8.808  1.7538  1.1065  3.3636
  157MOL0     H21187   1.902   2.284   8.719  1.7042 -1.7536 -0.1893
  157MOL0     H21188   1.826   2.249   8.877  2.5771  3.3080  3.6094
  157MOL0     H21189   1.925   2.014   8.872 -5.3230  4.6038  3.8218
  157MOL0     H21190   1.999   2.056   8.709  0.1116 -0.1907  0.1783
  157MOL0     H21191   1.705   2.083   8.777 -1.5416 -2.4171 -0.1315
  157MOL0     H21192   1.781   1.923   8.734  0.9668 -0.8936 -0.8539
  157MOL0     H21193   1.738   2.072   8.353  1.5474  1.6609 -0.5255
  157MOL0     H21194   2.235   2.036   9.089  1.8376  0.1163 -1.2617
  157MOL0     H21195   2.383   2.056   9.289 -1.7345 -2.2814 -2.3495
  158MOL0     O21196  10.356  10.813   7.325 -0.3730  0.2523 -0.0323
  158MOL0     C21197  10.341  10.745   7.423  0.6429  1.0000 -0.2652
  158MOL0     O21198  10.267  10.635   7.426  0.3782 -0.2191 -0.2066
  158MOL0     C21199  10.227  10.566   7.314 -0.4653 -0.6106 -0.0295
  158MOL0     C21200  10.210  10.607   7.181  0.4041 -1.4192 -0.2721
  158MOL0     C21201  10.152  10.527   7.085  0.0123  0.1425  0.0918
  158MOL0     C21202  10.107  10.401   7.120 -0.0848  0.0932  0.2001
  158MOL0     O21203  10.061  10.308   7.026 -0.2549 -0.9627  0.2925
  158MOL0     C21204   9.935  10.326   6.963  0.0402  0.2331  0.4031
  158MOL0     C21205   9.941  10.339   6.806 -0.3424  0.0377  0.5082
  158MOL0     C21206   9.990  10.208   6.735  0.8541 -0.7757 -0.0119
  158MOL0     C21207   9.976  10.215   6.585  0.0761 -0.1955  0.6499
  158MOL0     C21208  10.038  10.094   6.511 -0.5363  0.3538  0.0236
  158MOL0     C21209   9.996  10.110   6.360 -0.7743  0.0515  0.7980
  158MOL0     C21210  10.063   9.990   6.293  0.7369  1.2139 -0.0775
  158MOL0     C21211  10.016   9.955   6.140 -0.0017  0.1895  0.1589
  158MOL0     N21212   9.968  10.085   6.084  0.3196  0.5847  0.2043
  158MOL0     C21213  10.061  10.172   6.031 -0.3973  0.4183 -0.2987
  158MOL0     C21214   9.975  10.267   5.979  0.3190 -0.7816 -0.4228
  158MOL0     C21215  10.016  10.399   5.907 -0.0268  0.3134 -0.1496
  158MOL0     C21216   9.924  10.422   5.789  0.6454 -0.0547  0.2778
  158MOL0     C21217   9.959  10.554   5.705 -0.8592  0.1965  0.2518
  158MOL0     C21218   9.992  10.686   5.780  0.1417  0.0197 -0.0882
  158MOL0     O21219   9.886  10.740   5.841  0.1448 -0.4241 -0.3888
  158MOL0     C21220   9.898  10.832   5.942 -0.1726 -0.0463  0.0769
  158MOL0     C21221   9.781  10.848   6.024  0.1271  0.5613 -0.5382
  158MOL0     C21222   9.781  10.959   6.115  0.2522 -0.4339 -0.0044
  158MOL0     C21223   9.662  10.973   6.204  0.8430 -0.2048  0.9059
  158MOL0     C21224   9.891  11.052   6.115 -1.0837  1.4773 -0.1184
  158MOL0     C21225   9.905  11.172   6.191 -0.2923 -0.3990  0.4361
  158MOL0     O21226   9.944  11.292   6.122  0.0178  1.0792  0.4310
  158MOL0     C21227   9.883  11.406   6.163 -0.0378  0.4977  0.3376
  158MOL0     C21228   9.965  11.516   6.174 -0.0646  0.7649  0.2176
  158MOL0     C21229   9.921  11.637   6.234 -0.2552 -0.0792  0.7638
  158MOL0     C21230   9.788  11.640   6.280  0.3626  0.3483 -0.2314
  158MOL0     O21231   9.765  11.760   6.338 -0.2642 -0.1326 -0.0169
  158MOL0     C21232   9.634  11.798   6.368 -0.4788  0.4436 -0.3128
  158MOL0     C21233   9.622  11.939   6.419 -0.4065 -0.1432 -0.8119
  158MOL0     C21234   9.632  12.037   6.308 -0.6338  0.0577 -0.2039
  158MOL0     C21235   9.570  12.178   6.346 -0.2705  0.5003  0.3895
  158MOL0     C21236   9.601  12.283   6.240  0.6850  0.9039  0.1910
  158MOL0     C21237   9.506  12.398   6.272 -0.1332 -0.5179  0.8800
  158MOL0     C21238   9.483  12.505   6.161  0.2803 -0.1677 -0.7900
  158MOL0     C21239   9.610  12.581   6.108  0.9018  0.7560 -0.0931
  158MOL0    Cl21240   9.556  12.711   5.991  0.3648  0.1108 -0.2587
  158MOL0     C21241   9.709  11.531   6.274 -0.0831 -0.3093  0.6516
  158MOL0     C21242   9.754  11.414   6.204 -0.6040  0.1782 -0.3603
  158MOL0     O21243   9.860  11.167   6.308  0.1468 -0.0418  0.2916
  158MOL0     C21244   9.991  11.031   6.019 -0.7468 -0.3775 -0.0877
  158MOL0     C21245   9.999  10.924   5.933  0.0560 -0.3437  0.6839
  158MOL0     N21246   9.847  10.244   6.015 -0.4501  0.1758  0.7441
  158MOL0     N21247   9.843  10.133   6.082  0.1109  0.5326 -0.3037
  158MOL0     C21248  10.142  10.348   7.244  0.2934 -0.1585 -0.3093
  158MOL0     C21249  10.191  10.432   7.346 -0.0305 -0.3626 -0.2249
  158MOL0     C21250  10.387  10.802   7.545 -1.2837  0.1478 -0.1073
  158MOL0     C21251  10.409  10.715   7.658 -0.2389  0.8322  0.0525
  158MOL0     C21252  10.483  10.763   7.769 -0.4216  0.2715 -0.0324
  158MOL0     C21253  10.528  10.894   7.781 -0.3157 -0.2527  0.2075
  158MOL0     O21254  10.602  10.922   7.892  0.6296 -0.4496 -0.5333
  158MOL0     C21255  10.741  10.943   7.878  0.0054  0.4953 -0.2324
  158MOL0     C21256  10.821  10.824   7.927 -0.4578 -0.0827  0.7037
  158MOL0     C21257  10.861  10.832   8.082  0.4188  0.4057 -0.1439
  158MOL0     C21258  10.745  10.859   8.185  0.4461  0.0204 -0.1324
  158MOL0     C21259  10.622  10.774   8.183  0.0133 -0.9478  0.2294
  158MOL0     C21260  10.523  10.709   8.193 -0.0835 -0.5749 -0.8149
  158MOL0     C21261  10.497  10.977   7.674 -0.6845  0.0134  0.6307
  158MOL0     C21262  10.433  10.934   7.554 -1.0936 -0.6070 -1.1136
  158MOL0     H21263  10.246  10.700   7.137  2.8163 -2.3485 -0.4075
  158MOL0     H21264  10.146  10.567   6.985 -1.4228 -0.9919 -0.3068
  158MOL0     H21265   9.874  10.238   6.984  0.7617  0.2087  2.6671
  158MOL0     H21266   9.874  10.413   6.989 -0.8172 -0.9016  2.3445
  158MOL0     H21267   9.843  10.379   6.778  1.1414  3.7721  0.0399
  158MOL0     H21268  10.013  10.416   6.775  1.8662 -2.3333 -0.6296
  158MOL0     H21269  10.092  10.187   6.770  0.7152 -1.2914  0.0965
  158MOL0     H21270   9.919  10.131   6.766 -3.1575  2.2875 -0.7553
  158MOL0     H21271   9.872  10.223   6.552  0.0045 -1.9988  0.2921
  158MOL0     H21272  10.030  10.303   6.549 -0.6904  0.0387  0.0462
  158MOL0     H21273  10.147  10.093   6.519 -0.6379  1.8928  2.4594
  158MOL0     H21274  10.004   9.999   6.552  4.2280 -3.3391 -3.3586
  158MOL0     H21275   9.888  10.123   6.345 -0.4796  1.6825 -0.3417
  158MOL0     H21276  10.043  10.204   6.327 -2.2845  1.3625  2.1979
  158MOL0     H21277  10.172   9.983   6.300  0.8650  1.7812 -1.1569
  158MOL0     H21278  10.028   9.904   6.350  2.2226 -0.6214 -1.7960
  158MOL0     H21279   9.934   9.884   6.151  0.3977 -0.5171 -1.2036
  158MOL0     H21280  10.098   9.910   6.083  1.3132 -0.2894  2.2965
  158MOL0     H21281  10.168  10.167   6.014 -0.6339  1.3971 -2.3853
  158MOL0     H21282   9.999  10.482   5.976  0.0468  1.1542 -1.1271
  158MOL0     H21283  10.121  10.395   5.876  0.3832  0.1179  1.1771
  158MOL0     H21284   9.818  10.430   5.812  0.9663 -1.2565  2.4370
  158MOL0     H21285   9.931  10.334   5.723  2.7192  0.4516 -0.2720
  158MOL0     H21286   9.879  10.568   5.631 -2.4585 -1.2978  1.6223
  158MOL0     H21287  10.057  10.532   5.661 -0.9110  0.1003  0.1845
  158MOL0     H21288  10.007  10.758   5.700  1.1882  0.0246  0.0963
  158MOL0     H21289  10.081  10.686   5.843  0.0050  0.4467  0.1094
  158MOL0     H21290   9.700  10.779   6.005 -0.7773  1.0882  1.1301
  158MOL0     H21291   9.582  10.913   6.160  3.1910 -2.9390  0.0621
  158MOL0     H21292   9.690  10.931   6.301 -2.5326 -4.0539  0.4599
  158MOL0     H21293   9.619  11.074   6.203 -0.3622 -0.6973  0.4197
  158MOL0     H21294  10.065  11.517   6.132  0.1991 -0.2205  0.7905
  158MOL0     H21295   9.971  11.733   6.242 -3.5314  1.7276  0.9608
  158MOL0     H21296   9.568  11.771   6.285  1.6087 -0.6123 -1.6996
  158MOL0     H21297   9.607  11.737   6.455  1.4115 -0.0148  0.0025
  158MOL0     H21298   9.518  11.945   6.454 -0.9491 -2.4975 -1.8616
  158MOL0     H21299   9.685  11.973   6.501 -0.7389  1.6297 -1.2407
  158MOL0     H21300   9.585  12.003   6.216 -0.7975  3.8358 -1.6890
  158MOL0     H21301   9.734  12.061   6.278  0.3275 -1.8057  1.3558
  158MOL0     H21302   9.464  12.154   6.354 -1.0098  3.2545 -0.2641
  158MOL0     H21303   9.607  12.218   6.441  2.7607  1.0100 -0.8800
  158MOL0     H21304   9.570  12.234   6.147 -0.5777 -1.6136  1.8099
  158MOL0     H21305   9.705  12.314   6.230  0.8486  0.2246 -0.2774
  158MOL0     H21306   9.410  12.361   6.309  0.8706 -1.1575  2.9807
  158MOL0     H21307   9.551  12.456   6.353  0.7413 -0.1006  0.1219
  158MOL0     H21308   9.403  12.566   6.204  1.7788 -0.0794  2.1139
  158MOL0     H21309   9.446  12.455   6.071  2.3293 -0.6116 -1.4484
  158MOL0     H21310   9.668  12.499   6.066  0.0356 -0.4183  0.9072
  158MOL0     H21311   9.664  12.614   6.197 -1.3990  1.9898  0.9521
  158MOL0     H21312   9.607  11.522   6.310 -0.2222 -0.9553  0.1139
  158MOL0     H21313   9.695  11.323   6.202  1.9417 -1.7863  3.1456
  158MOL0     H21314  10.084  11.085   6.007  0.8199 -2.7953  0.5166
  158MOL0     H21315  10.083  10.916   5.864 -0.9876  0.2158 -0.6922
  158MOL0     H21316  10.125  10.243   7.263 -0.7386 -0.1904 -1.2792
  158MOL0     H21317  10.187  10.392   7.447 -0.0913 -0.6572 -0.3426
  158MOL0     H21318  10.364  10.618   7.675 -2.2078  2.1912  3.5894
  158MOL0     H21319  10.506  10.701   7.856  2.7432  0.3593 -0.6693
  158MOL0     H21320  10.766  10.954   7.772 -1.3544  0.5020 -0.5697
  158MOL0     H21321  10.778  11.032   7.930  0.4564  0.1100  0.1079
  158MOL0     H21322  10.903  10.817   7.855 -2.3647  1.4360 -1.7919
  158MOL0     H21323  10.761  10.732   7.927 -0.6976  0.0122 -1.4736
  158MOL0     H21324  10.933  10.913   8.093  2.5278 -0.8751 -3.1903
  158MOL0     H21325  10.916  10.747   8.123 -0.2831  0.4854  1.0351
  158MOL0     H21326  10.706  10.961   8.174 -1.9550 -0.8116  0.1445
  158MOL0     H21327  10.782  10.870   8.287  2.2996  2.9112 -0.9812
  158MOL0     H21328  10.428  10.661   8.199  0.6317 -1.9479 -0.0102
  158MOL0     H21329  10.535  11.078   7.679  0.1886 -0.2080 -0.9931
  158MOL0     H21330  10.406  11.008   7.479 -1.8731 -2.7906 -3.0925
  159MOL0     O21331   7.019   6.382   8.428  0.0545  0.5366 -0.9465
  159MOL0     C21332   7.124   6.320   8.443  0.1417 -0.4518  0.0135
  159MOL0     O21333   7.158   6.238   8.546 -0.0907  0.2859  0.8190
  159MOL0     C21334   7.069   6.209   8.639  0.5788 -0.3490 -0.4737
  159MOL0     C21335   6.933   6.184   8.618  0.7625  0.3162  0.1216
  159MOL0     C21336   6.848   6.131   8.716  0.1069  0.0425  0.6064
  159MOL0     C21337   6.886   6.104   8.842  0.0243 -0.2570 -0.2235
  159MOL0     O21338   6.803   6.047   8.940  0.2531  0.8681 -0.2039
  159MOL0     C21339   6.679   5.979   8.906  0.6520  0.2696  0.6155
  159MOL0     C21340   6.557   6.066   8.929  0.3813 -0.2934  0.2449
  159MOL0     C21341   6.429   5.997   8.881  0.6479  0.1750  1.2519
  159MOL0     C21342   6.304   6.054   8.943 -0.4986 -0.0339  0.7481
  159MOL0     C21343   6.179   5.989   8.880 -0.3366  0.5750  0.2852
  159MOL0     C21344   6.048   6.048   8.920  0.6241 -0.5321 -0.0002
  159MOL0     C21345   5.928   5.998   8.847 -0.4028  0.3795  1.0207
  159MOL0     C21346   5.860   5.885   8.921 -0.0627 -0.3651  0.4227
  159MOL0     N21347   5.731   5.860   8.849 -0.3329 -0.2711  0.1754
  159MOL0     C21348   5.693   5.747   8.775 -0.2697 -0.0629  0.5043
  159MOL0     C21349   5.559   5.745   8.749  0.0694 -0.7981  0.6175
  159MOL0     C21350   5.486   5.657   8.659  0.0683  0.3759 -0.9780
  159MOL0     C21351   5.408   5.549   8.725  0.2487  0.4569 -0.2467
  159MOL0     C21352   5.263   5.590   8.758 -0.6480  0.2990  0.6221
  159MOL0     C21353   5.177   5.479   8.833 -0.8499 -0.0517 -0.1873
  159MOL0     O21354   5.048   5.533   8.870 -0.5946 -0.1389  1.0221
  159MOL0     C21355   4.964   5.470   8.953 -0.3463  0.7078  0.2544
  159MOL0     C21356   4.838   5.514   8.977  0.2725 -0.6012 -1.0792
  159MOL0     C21357   4.743   5.443   9.054  0.6070 -0.1520 -0.4735
  159MOL0     C21358   4.611   5.509   9.075 -1.0466 -0.5453 -0.7191
  159MOL0     C21359   4.779   5.320   9.120 -0.2803  0.6289  0.3037
  159MOL0     C21360   4.687   5.253   9.222  0.6339 -0.3722  0.2633
  159MOL0     O21361   4.606   5.333   9.297 -0.4501  0.7471 -0.3373
  159MOL0     C21362   4.493   5.307   9.378  0.1862 -0.2529  0.6659
  159MOL0     C21363   4.417   5.416   9.424 -1.4711  0.2592  0.1697
  159MOL0     C21364   4.318   5.404   9.524  0.4468 -0.7048  0.9248
  159MOL0     C21365   4.289   5.278   9.575 -0.4545 -0.6760  0.0549
  159MOL0     O21366   4.182   5.262   9.654  0.5743  0.2289  0.6286
  159MOL0     C21367   4.208   5.166   9.765  0.7797  0.2965 -0.5667
  159MOL0     C21368   4.113   5.184   9.893 -0.8228 -0.3646  0.2004
  159MOL0     C21369   4.154   5.299   9.986  0.0826  0.6724 -0.3564
  159MOL0     C21370   4.284   5.274  10.061 -0.4658 -0.3961 -0.1380
  159MOL0     C21371   4.303   5.355  10.188 -0.0846  0.0528  0.3061
  159MOL0     C21372   4.445   5.387  10.231  0.8898  0.6786 -0.0268
  159MOL0     C21373   4.429   5.446  10.365  0.5247 -0.2030  0.4414
  159MOL0     C21374   4.568   5.503  10.413 -0.2242 -0.4034  0.0620
  159MOL0    Cl21375   4.653   5.385  10.517 -0.2128  0.1780  0.1182
  159MOL0     C21376   4.352   5.173   9.517 -0.0252  1.2738  0.9937
  159MOL0     C21377   4.448   5.184   9.418  0.4787 -0.5034  0.1345
  159MOL0     O21378   4.698   5.132   9.226  0.8312  0.8159 -0.5437
  159MOL0     C21379   4.907   5.269   9.088 -0.7959 -0.3256  0.5131
  159MOL0     C21380   4.995   5.346   9.002  0.4949  0.8128 -0.4243
  159MOL0     N21381   5.522   5.849   8.836  0.5306 -0.0963 -1.0593
  159MOL0     N21382   5.616   5.918   8.890  0.2946  0.0913  0.2648
  159MOL0     C21383   7.019   6.142   8.873 -0.0193 -0.2928  0.1557
  159MOL0     C21384   7.105   6.194   8.773  0.1155  0.1343  0.3142
  159MOL0     C21385   7.227   6.343   8.340  0.2548 -0.5945  0.5217
  159MOL0     C21386   7.347   6.264   8.352 -0.1679 -0.3244  0.0264
  159MOL0     C21387   7.457   6.293   8.266 -0.0811 -0.9711 -0.3488
  159MOL0     C21388   7.452   6.397   8.177  0.6770  0.9443 -0.3295
  159MOL0     O21389   7.556   6.433   8.099 -0.0651  0.4264 -1.5719
  159MOL0     C21390   7.689   6.390   8.139  0.9636  0.0231  0.6662
  159MOL0     C21391   7.792   6.476   8.049  0.4478 -0.1067 -0.9032
  159MOL0     C21392   7.940   6.471   8.076 -0.4924  0.6623  0.4881
  159MOL0     C21393   7.991   6.548   8.196 -0.4133 -0.3056  1.2239
  159MOL0     C21394   7.969   6.497   8.327  0.6059 -0.8333 -0.1736
  159MOL0     C21395   7.951   6.444   8.432 -1.4201  0.7838 -0.8947
  159MOL0     C21396   7.336   6.466   8.167 -0.2807 -0.9313  0.0835
  159MOL0     C21397   7.231   6.443   8.247  1.2457  0.0583 -0.1192
  159MOL0     H21398   6.889   6.189   8.519  1.5667  0.4449 -0.2428
  159MOL0     H21399   6.747   6.114   8.678  1.0166 -1.7772 -1.2193
  159MOL0     H21400   6.675   5.930   8.808  1.4062 -1.8836  1.5999
  159MOL0     H21401   6.675   5.890   8.969 -0.7700 -0.9012 -1.0280
  159MOL0     H21402   6.550   6.092   9.035 -0.3335  1.6671 -0.2449
  159MOL0     H21403   6.560   6.158   8.870 -0.6808 -0.0027  0.6306
  159MOL0     H21404   6.420   6.000   8.772  0.0342 -1.5813  1.2158
  159MOL0     H21405   6.442   5.891   8.904  0.7493  0.5424  3.0510
  159MOL0     H21406   6.303   6.047   9.052 -3.8594 -0.3941  0.7975
  159MOL0     H21407   6.308   6.162   8.926 -0.8725  0.2506  2.3312
  159MOL0     H21408   6.187   6.000   8.772 -4.8089 -1.2867 -0.4659
  159MOL0     H21409   6.180   5.881   8.897  2.4798  0.2689 -1.3764
  159MOL0     H21410   6.023   6.046   9.027 -2.1790 -0.4244 -0.5714
  159MOL0     H21411   6.057   6.155   8.898  0.9998  0.1913  3.1271
  159MOL0     H21412   5.859   6.083   8.845 -0.0771  0.6419  0.8629
  159MOL0     H21413   5.954   5.969   8.745  0.4936  1.7599  0.8249
  159MOL0     H21414   5.837   5.926   9.020 -0.2556  1.4803 -0.3496
  159MOL0     H21415   5.915   5.791   8.926 -0.1939 -0.8699 -3.8351
  159MOL0     H21416   5.758   5.668   8.739  1.2051  0.3894  2.0293
  159MOL0     H21417   5.415   5.698   8.587 -2.7787 -0.9576  0.8980
  159MOL0     H21418   5.565   5.600   8.608  1.3512 -0.8319  2.0861
  159MOL0     H21419   5.450   5.526   8.824  1.3654  0.8839 -0.5975
  159MOL0     H21420   5.413   5.457   8.667  0.2067  0.0740  0.3513
  159MOL0     H21421   5.215   5.622   8.665  1.0058  5.7702  1.3006
  159MOL0     H21422   5.272   5.679   8.821  0.8001  1.7425 -1.5098
  159MOL0     H21423   5.226   5.443   8.924  0.9202 -1.2374 -1.5458
  159MOL0     H21424   5.159   5.390   8.772 -0.1166  0.4512 -1.1641
  159MOL0     H21425   4.818   5.611   8.935 -0.2125  0.1684  0.8268
  159MOL0     H21426   4.600   5.604   9.021  0.6960  0.6612  0.9551
  159MOL0     H21427   4.531   5.439   9.050 -2.7996  1.8084 -2.1957
  159MOL0     H21428   4.599   5.532   9.181 -0.3562 -2.5635 -0.1626
  159MOL0     H21429   4.438   5.510   9.374  3.0438 -0.3493  0.5648
  159MOL0     H21430   4.268   5.494   9.558 -1.2101 -0.9767 -0.6194
  159MOL0     H21431   4.193   5.064   9.729 -0.8341 -0.1140  1.0713
  159MOL0     H21432   4.305   5.196   9.807 -0.6539  0.9212  2.5822
  159MOL0     H21433   4.009   5.202   9.866  0.3150  2.1979 -3.1789
  159MOL0     H21434   4.124   5.089   9.947  1.0286 -0.5575 -0.4340
  159MOL0     H21435   4.082   5.316  10.067  0.7340  0.8851  0.1828
  159MOL0     H21436   4.149   5.391   9.927  0.0487 -0.8456 -2.8534
  159MOL0     H21437   4.287   5.167  10.081 -2.1860 -0.5785 -0.7260
  159MOL0     H21438   4.364   5.306   9.993  0.2524 -0.8724  0.4612
  159MOL0     H21439   4.247   5.299  10.264  0.2594 -0.1324  0.4278
  159MOL0     H21440   4.249   5.448  10.167  0.4390  0.9749  2.7284
  159MOL0     H21441   4.504   5.296  10.245 -0.8468 -0.4009  0.6343
  159MOL0     H21442   4.500   5.449  10.161  1.0627  0.0953 -0.4133
  159MOL0     H21443   4.384   5.382  10.442  1.5338 -0.9130  0.4632
  159MOL0     H21444   4.359   5.530  10.358 -0.4718 -0.7618  2.6231
  159MOL0     H21445   4.540   5.594  10.468 -1.4716 -0.4351 -0.4785
  159MOL0     H21446   4.629   5.534  10.328  0.6554 -3.4336 -0.5284
  159MOL0     H21447   4.312   5.073   9.532 -1.5329  1.8287  0.8961
  159MOL0     H21448   4.499   5.098   9.374  0.5795 -0.1434 -0.4617
  159MOL0     H21449   4.934   5.171   9.126 -4.1239 -0.9766  1.4928
  159MOL0     H21450   5.087   5.296   8.976 -0.4018 -1.3185  0.2162
  159MOL0     H21451   7.042   6.143   8.979 -0.6800 -1.5014  0.3246
  159MOL0     H21452   7.212   6.207   8.790 -0.4022  1.3481  3.3868
  159MOL0     H21453   7.370   6.180   8.418  0.5553  0.4706  0.8260
  159MOL0     H21454   7.549   6.238   8.285  2.5077  2.7326 -1.0961
  159MOL0     H21455   7.703   6.410   8.246 -1.6873  0.8592  0.9219
  159MOL0     H21456   7.706   6.288   8.103 -0.7029  0.5478 -1.8705
  159MOL0     H21457   7.766   6.582   8.053 -0.0118 -0.1616 -2.0918
  159MOL0     H21458   7.774   6.427   7.953  1.2672 -2.5701  0.0994
  159MOL0     H21459   7.990   6.523   7.994  1.5722 -0.6753  0.8075
  159MOL0     H21460   7.968   6.365   8.067 -0.6997  0.7475 -1.8501
  159MOL0     H21461   7.942   6.646   8.195  0.8608  0.4103 -1.2950
  159MOL0     H21462   8.097   6.569   8.182 -0.3291 -1.7797 -0.7472
  159MOL0     H21463   7.957   6.390   8.525  3.3530 -0.5805 -1.7131
  159MOL0     H21464   7.335   6.542   8.090  2.5315 -0.6442  0.2135
  159MOL0     H21465   7.142   6.502   8.229  1.1582 -0.4026 -1.2725
  160MOL0     O21466   2.044   8.463   9.101 -0.6844  0.1373  0.8676
  160MOL0     C21467   1.974   8.369   9.060  0.4483  0.1014  0.6312
  160MOL0     O21468   1.959   8.253   9.113 -1.0577  1.0032 -0.4143
  160MOL0     C21469   2.044   8.203   9.209 -0.2143 -0.0642 -0.2386
  160MOL0     C21470   2.052   8.061   9.219 -0.8890  0.0335  0.4087
  160MOL0     C21471   2.131   7.985   9.299 -0.1332  1.0611 -0.1831
  160MOL0     C21472   2.206   8.055   9.395 -0.0490  0.3635  0.5039
  160MOL0     O21473   2.264   7.981   9.492  0.0824 -0.3475 -0.3505
  160MOL0     C21474   2.380   8.042   9.558 -0.1066 -0.6364 -0.1978
  160MOL0     C21475   2.508   8.055   9.462 -0.7815 -1.9518  0.0332
  160MOL0     C21476   2.640   8.055   9.535 -0.1042  0.7427 -0.1097
  160MOL0     C21477   2.643   8.145   9.661  0.3008 -0.5478 -0.0690
  160MOL0     C21478   2.771   8.134   9.741 -0.8260  0.6329  0.1011
  160MOL0     C21479   2.748   8.042   9.862  0.4369 -0.3075 -1.0281
  160MOL0     C21480   2.875   8.007   9.936 -0.1908 -1.3207  0.9364
  160MOL0     C21481   2.903   8.123  10.039  0.0400  1.0205 -0.8816
  160MOL0     N21482   3.044   8.150  10.061  0.4834  0.0690  0.1136
  160MOL0     C21483   3.142   8.060  10.058 -0.3190  0.1283 -0.4182
  160MOL0     C21484   3.255   8.129  10.088 -0.3067 -0.0438 -1.0323
  160MOL0     C21485   3.389   8.062  10.103  0.0672  0.0444  0.5047
  160MOL0     C21486   3.474   8.067   9.976 -0.0748 -0.3994  0.5378
  160MOL0     C21487   3.417   7.988   9.851  0.0199 -0.2913 -1.2437
  160MOL0     C21488   3.329   8.082   9.770 -0.6363 -0.0560  0.1667
  160MOL0     O21489   3.256   8.007   9.676 -0.1626  0.1402 -0.3621
  160MOL0     C21490   3.176   8.081   9.595 -0.4650 -0.0718  0.6444
  160MOL0     C21491   3.117   8.202   9.630  0.8015 -0.1375  0.2087
  160MOL0     C21492   3.026   8.262   9.545 -0.2393 -0.0500 -0.2470
  160MOL0     C21493   2.963   8.393   9.602  0.0970 -0.4160  0.1812
  160MOL0     C21494   3.002   8.211   9.415  0.0669  0.2034 -0.8051
  160MOL0     C21495   2.905   8.282   9.324  0.1386  0.8033  0.7116
  160MOL0     O21496   2.877   8.415   9.325  0.0710 -0.4962  0.0823
  160MOL0     C21497   2.778   8.459   9.240 -0.7410  0.6203 -0.1979
  160MOL0     C21498   2.642   8.436   9.268  0.0733  1.1137  0.1080
  160MOL0     C21499   2.538   8.488   9.187  0.5120  0.3312  0.8388
  160MOL0     C21500   2.577   8.576   9.077 -0.0764 -0.9582 -0.1626
  160MOL0     O21501   2.493   8.631   8.979 -0.7089 -0.2304 -0.8402
  160MOL0     C21502   2.372   8.556   8.957 -0.3832  1.0211 -0.0907
  160MOL0     C21503   2.335   8.597   8.818 -0.2303 -0.7843  1.2215
  160MOL0     C21504   2.270   8.739   8.809  0.6083 -0.5988 -0.6848
  160MOL0     C21505   2.294   8.814   8.677  0.2210 -0.1109  0.2466
  160MOL0     C21506   2.312   8.969   8.691  0.3353  0.1458 -0.6561
  160MOL0     C21507   2.170   9.023   8.690  0.4374 -0.0055 -0.1864
  160MOL0     C21508   2.187   9.176   8.681 -0.5897  0.1147  0.3248
  160MOL0     C21509   2.250   9.247   8.804  0.0910 -0.8062  0.1789
  160MOL0    Cl21510   2.182   9.220   8.962  0.4890 -0.1278  0.4764
  160MOL0     C21511   2.712   8.602   9.062  0.1090  0.3222  0.6577
  160MOL0     C21512   2.804   8.543   9.136 -1.0469 -0.1889 -0.6378
  160MOL0     O21513   2.848   8.208   9.243  0.3789  0.5856  0.3062
  160MOL0     C21514   3.057   8.093   9.375 -1.0351 -0.3282  0.6141
  160MOL0     C21515   3.146   8.031   9.467 -0.3213 -0.0216  0.2246
  160MOL0     N21516   3.229   8.262  10.109 -0.1719  0.3732 -0.3016
  160MOL0     N21517   3.099   8.275  10.091 -0.2167  0.3220  0.5992
  160MOL0     C21518   2.217   8.198   9.385 -1.4064  0.2198 -0.2863
  160MOL0     C21519   2.134   8.270   9.293 -0.8639 -0.3333  0.5674
  160MOL0     C21520   1.888   8.405   8.943 -0.2388 -0.2349  0.3780
  160MOL0     C21521   1.909   8.526   8.869 -0.1515 -0.6022 -0.2493
  160MOL0     C21522   1.850   8.555   8.752  0.0278  0.0735  0.7781
  160MOL0     C21523   1.749   8.473   8.717  0.0063  0.0298  0.2036
  160MOL0     O21524   1.685   8.518   8.606 -0.1720  0.1846 -0.1996
  160MOL0     C21525   1.565   8.460   8.577 -0.4603 -0.1782 -0.4500
  160MOL0     C21526   1.513   8.529   8.457 -0.0826 -0.2811  0.3056
  160MOL0     C21527   1.483   8.677   8.476 -0.2860  0.5272  0.0722
  160MOL0     C21528   1.392   8.717   8.594  0.9482 -0.2751 -0.5551
  160MOL0     C21529   1.256   8.666   8.586 -0.2003 -0.3716 -0.6378
  160MOL0     C21530   1.139   8.643   8.591 -0.0835 -0.6084  0.1411
  160MOL0     C21531   1.712   8.359   8.783 -1.2133 -0.0634 -0.4778
  160MOL0     C21532   1.786   8.324   8.895  0.2056 -0.4512  0.3481
  160MOL0     H21533   1.976   8.011   9.160 -1.2221 -1.3520  1.9224
  160MOL0     H21534   2.134   7.877   9.292 -0.0486  1.1871 -3.6066
  160MOL0     H21535   2.359   8.135   9.613 -3.4339 -0.5457 -1.3553
  160MOL0     H21536   2.397   7.967   9.635  1.3154 -1.0465 -0.8903
  160MOL0     H21537   2.511   7.975   9.387 -0.5675  0.1649 -2.3467
  160MOL0     H21538   2.506   8.151   9.409  0.6863 -1.1298  1.4063
  160MOL0     H21539   2.649   7.952   9.570 -1.4527  0.8767  0.7183
  160MOL0     H21540   2.719   8.079   9.463  0.5201 -1.8868 -0.4044
  160MOL0     H21541   2.645   8.250   9.628 -2.8007 -0.1405  0.7905
  160MOL0     H21542   2.560   8.144   9.731  0.5998 -1.9171  0.2863
  160MOL0     H21543   2.833   8.075   9.673  1.9201  1.5615  1.6353
  160MOL0     H21544   2.823   8.228   9.762  1.1790 -0.2158 -0.7095
  160MOL0     H21545   2.674   8.079   9.934 -2.4627 -1.5180 -3.1490
  160MOL0     H21546   2.704   7.954   9.814 -1.0130  1.1567 -2.5593
  160MOL0     H21547   2.869   7.908   9.981 -0.9119 -1.8903 -0.3414
  160MOL0     H21548   2.959   8.005   9.866 -1.8242  0.8421 -1.2733
  160MOL0     H21549   2.847   8.083  10.124 -1.0802  1.2919 -1.4560
  160MOL0     H21550   2.862   8.224  10.024 -0.1274  0.6991 -2.9523
  160MOL0     H21551   3.130   7.956  10.030 -0.5248  0.1052 -0.2482
  160MOL0     H21552   3.442   8.125  10.175  2.0831 -1.7361  0.6781
  160MOL0     H21553   3.384   7.955  10.122  2.2371 -0.5721 -1.8304
  160MOL0     H21554   3.572   8.031  10.010  0.0479  0.1415  0.7675
  160MOL0     H21555   3.482   8.173   9.951 -0.6958 -0.2850  0.8050
  160MOL0     H21556   3.351   7.913   9.895  1.0041  0.5242  1.8612
  160MOL0     H21557   3.494   7.943   9.788  1.0300  1.5451 -1.3652
  160MOL0     H21558   3.400   8.146   9.716  1.1428 -2.6610 -0.7749
  160MOL0     H21559   3.269   8.135   9.845 -0.9968 -1.9289  1.2729
  160MOL0     H21560   3.130   8.245   9.729  2.6706  0.2111 -0.1346
  160MOL0     H21561   3.004   8.415   9.702 -0.7404  1.6702  0.1260
  160MOL0     H21562   2.988   8.480   9.540 -0.0382  1.1790  2.2144
  160MOL0     H21563   2.854   8.383   9.597  0.1612 -0.7141 -0.6773
  160MOL0     H21564   2.615   8.372   9.352 -2.1757  3.0639  0.9890
  160MOL0     H21565   2.434   8.460   9.201  0.2281  0.5903 -0.5884
  160MOL0     H21566   2.387   8.449   8.941 -1.9347  0.8914 -0.9298
  160MOL0     H21567   2.287   8.584   9.021 -0.5547  0.6055 -0.1313
  160MOL0     H21568   2.423   8.587   8.754 -1.5351 -1.4639 -0.5494
  160MOL0     H21569   2.268   8.514   8.792  1.8515 -1.8362 -1.1760
  160MOL0     H21570   2.320   8.801   8.884 -1.6804  1.7702 -0.9641
  160MOL0     H21571   2.162   8.739   8.828  0.3866  1.7031 -1.5647
  160MOL0     H21572   2.390   8.784   8.632  1.2638  1.4979  1.2943
  160MOL0     H21573   2.209   8.802   8.610 -0.8331  2.5989  1.0021
  160MOL0     H21574   2.379   9.005   8.612  0.0507 -0.2417 -1.0798
  160MOL0     H21575   2.354   8.997   8.788 -0.9148 -1.4635  0.4071
  160MOL0     H21576   2.123   8.999   8.594 -0.5049  3.1699 -0.6378
  160MOL0     H21577   2.117   8.985   8.778 -0.0859 -0.3789 -0.6555
  160MOL0     H21578   2.086   9.217   8.679 -0.9440 -0.7320  0.3864
  160MOL0     H21579   2.242   9.200   8.589  0.8996 -0.0720  1.1264
  160MOL0     H21580   2.247   9.355   8.788 -0.9547 -0.8206  0.2353
  160MOL0     H21581   2.355   9.218   8.810  0.8901  1.2083 -2.0540
  160MOL0     H21582   2.760   8.661   8.985  0.9897 -3.2930 -1.8704
  160MOL0     H21583   2.905   8.572   9.109 -0.7491  0.0913  0.6695
  160MOL0     H21584   3.056   8.055   9.273  3.6086  0.8962 -0.0906
  160MOL0     H21585   3.174   7.928   9.445 -3.4535 -0.5546 -2.0242
  160MOL0     H21586   2.274   8.255   9.458 -1.4989  1.0432 -0.8438
  160MOL0     H21587   2.136   8.378   9.308  0.3651 -0.6394  3.2198
  160MOL0     H21588   1.972   8.609   8.901 -2.4338  0.2535  2.4959
  160MOL0     H21589   1.879   8.642   8.692  0.2545 -1.1513 -0.9646
  160MOL0     H21590   1.573   8.353   8.559 -0.2824 -0.4350  1.0331
  160MOL0     H21591   1.499   8.468   8.664  0.8970 -1.4574  0.7515
  160MOL0     H21592   1.421   8.478   8.427 -1.2862  1.1195  1.4677
  160MOL0     H21593   1.584   8.523   8.374  0.3120  2.6704  0.3279
  160MOL0     H21594   1.434   8.711   8.384  0.2791  2.2762  0.3791
  160MOL0     H21595   1.574   8.736   8.489  0.6070 -0.5079 -1.1173
  160MOL0     H21596   1.405   8.825   8.599  2.4848 -0.3554 -1.9837
  160MOL0     H21597   1.435   8.685   8.689 -0.7463  1.6272  0.9498
  160MOL0     H21598   1.042   8.598   8.598  1.2582 -3.5542  1.9199
  160MOL0     H21599   1.612   8.317   8.782 -2.2698  2.0277  2.8101
  160MOL0     H21600   1.736   8.247   8.954 -0.6517  1.0456  1.6462
  161MOL0     O21601  11.008   1.975   8.942  0.2313 -1.1244 -0.3269
  161MOL0     C21602  10.989   2.091   8.971 -0.3604 -0.1566 -0.2281
  161MOL0     O21603  11.095   2.175   9.004 -1.4662  0.8115 -0.1822
  161MOL0     C21604  11.219   2.125   8.998 -0.0405 -0.1800 -0.1464
  161MOL0     C21605  11.265   2.076   8.877 -0.1938  0.1630  0.3505
  161MOL0     C21606  11.378   1.999   8.876 -0.4046  0.2047 -0.1516
  161MOL0     C21607  11.466   1.988   8.992 -0.5772  1.5671  0.6215
  161MOL0     O21608  11.591   1.927   8.987  0.9967 -0.4068 -0.4538
  161MOL0     C21609  11.693   2.020   8.967 -0.8879 -0.5414 -0.0297
  161MOL0     C21610  11.721   2.107   9.080  0.6742 -0.2240 -0.1360
  161MOL0     C21611  11.742   2.028   9.216 -0.2358 -0.5512 -0.2534
  161MOL0     C21612  11.752   2.126   9.337 -0.5696 -0.1396  0.2361
  161MOL0     C21613  11.827   2.075   9.459  0.4865 -0.4762 -0.7667
  161MOL0     C21614  11.975   2.067   9.439 -0.7617  0.2084 -1.0225
  161MOL0     C21615  12.049   2.020   9.568 -0.1806 -0.1267  0.2651
  161MOL0     C21616  12.195   2.072   9.588 -0.0252  0.6708 -0.1660
  161MOL0     N21617  12.264   2.024   9.711  0.1998  0.1641 -0.8973
  161MOL0     C21618  12.251   2.083   9.837  0.4210  0.7535 -0.4935
  161MOL0     C21619  12.295   1.984   9.918  0.5454  0.4713  0.3079
  161MOL0     C21620  12.273   1.970  10.063 -0.4326  0.0803  0.3320
  161MOL0     C21621  12.133   1.994  10.116  0.1423 -0.4102  0.9096
  161MOL0     C21622  12.038   1.875  10.108  0.2436  0.0445 -0.3484
  161MOL0     C21623  12.016   1.805  10.247  0.6600  0.5611  0.2207
  161MOL0     O21624  12.092   1.685  10.259  0.1567 -0.6656 -0.2080
  161MOL0     C21625  12.045   1.562  10.226 -1.1946  0.0660  0.0124
  161MOL0     C21626  11.925   1.544  10.156 -0.2829 -0.2252 -0.3662
  161MOL0     C21627  11.878   1.415  10.111  0.5168 -0.7576  0.6153
  161MOL0     C21628  11.748   1.406  10.039  0.3984 -0.0890 -1.3295
  161MOL0     C21629  11.967   1.303  10.119 -0.7037 -0.1061 -0.1313
  161MOL0     C21630  11.941   1.167  10.058  0.2142  0.4700  0.2982
  161MOL0     O21631  12.051   1.084  10.041  0.2928  0.4416 -0.1235
  161MOL0     C21632  12.032   0.950  10.045  0.5116 -0.1629 -0.4033
  161MOL0     C21633  12.015   0.876   9.929 -0.1443 -0.2070  0.3718
  161MOL0     C21634  12.011   0.737   9.932  0.9132  0.6374 -0.2573
  161MOL0     C21635  12.023   0.662  10.052 -0.6782  0.1742 -0.1443
  161MOL0     O21636  12.029   0.523  10.044 -0.0344  0.5290  0.4800
  161MOL0     C21637  12.094   0.450  10.149  0.0454 -0.3122  0.9223
  161MOL0     C21638  12.081   0.303  10.133 -0.1842 -1.2808  0.7014
  161MOL0     C21639  12.143   0.216  10.239  0.2748 -1.1266  0.2021
  161MOL0     C21640  12.290   0.237  10.277  0.0567  0.1994  1.0178
  161MOL0     C21641  12.384   0.226  10.153  0.9244 -0.9054  0.2437
  161MOL0     C21642  12.403   0.087  10.113 -0.1079 -0.2069  0.2277
  161MOL0     C21643  12.480   0.094   9.979 -0.9848  0.7306  0.2866
  161MOL0     C21644  12.517  -0.046   9.926 -0.1168 -0.9239  0.0344
  161MOL0    Cl21645  12.622  -0.129  10.029 -0.6683 -0.1946  0.1253
  161MOL0     C21646  12.036   0.741  10.168 -0.2209  1.0181 -0.4579
  161MOL0     C21647  12.032   0.875  10.166  0.0045  0.0383 -0.3264
  161MOL0     O21648  11.825   1.131  10.071 -0.3639  0.6362  0.0422
  161MOL0     C21649  12.102   1.332  10.169  0.2292  0.2989 -0.0157
  161MOL0     C21650  12.131   1.458  10.224  0.0514  0.7234 -0.3959
  161MOL0     N21651  12.334   1.880   9.841 -0.3870  0.5163  0.4166
  161MOL0     N21652  12.305   1.897   9.722 -0.1380 -0.1258  0.3861
  161MOL0     C21653  11.423   2.041   9.103  0.2507 -0.0666 -0.3392
  161MOL0     C21654  11.294   2.106   9.116  0.0887  0.4872 -0.2023
  161MOL0     C21655  10.853   2.138   8.976  0.2444 -0.1792  0.0742
  161MOL0     C21656  10.744   2.053   8.940 -0.4676  0.0976  0.4931
  161MOL0     C21657  10.622   2.099   8.928  0.5061  0.1161  0.6160
  161MOL0     C21658  10.581   2.225   8.967  0.0142 -0.0643  0.5231
  161MOL0     O21659  10.450   2.262   8.948  0.1428  0.3400 -0.0746
  161MOL0     C21660  10.342   2.172   8.920 -0.4519  0.0228  0.4288
  161MOL0     C21661  10.201   2.250   8.907  0.2389  0.8062 -0.1195
  161MOL0     C21662  10.213   2.351   8.784 -0.5021 -0.5080  0.2446
  161MOL0     C21663  10.081   2.406   8.733 -0.0545  0.6100  0.2266
  161MOL0     C21664  10.002   2.306   8.663  0.7518  0.0500 -0.1353
  161MOL0     C21665   9.944   2.225   8.600  0.2773 -0.1077 -0.3213
  161MOL0     C21666  10.682   2.313   9.018 -1.0710  0.1779  0.6054
  161MOL0     C21667  10.820   2.266   9.029  0.0984  0.0076 -1.1386
  161MOL0     H21668  11.216   2.082   8.780  0.1471 -1.6697  0.0171
  161MOL0     H21669  11.400   1.958   8.778  0.9106  2.1794 -0.7295
  161MOL0     H21670  11.787   1.965   8.955  0.0730  1.1509 -0.5407
  161MOL0     H21671  11.673   2.086   8.882 -0.9194  1.7693  1.6822
  161MOL0     H21672  11.818   2.152   9.057  1.6963 -1.7123  1.0321
  161MOL0     H21673  11.649   2.185   9.105  0.1743 -0.3370 -1.1936
  161MOL0     H21674  11.669   1.948   9.234  2.2592 -2.7828  0.7202
  161MOL0     H21675  11.839   1.978   9.203  1.0438  2.2492 -2.6434
  161MOL0     H21676  11.802   2.221   9.314  1.8942 -1.5858 -0.7656
  161MOL0     H21677  11.649   2.150   9.363 -1.2267  1.6950 -3.4683
  161MOL0     H21678  11.793   2.130   9.547 -0.3713 -2.0158 -0.0964
  161MOL0     H21679  11.799   1.969   9.470  2.1627 -0.9112 -0.4640
  161MOL0     H21680  12.006   2.003   9.356  5.2485  0.1049  0.8352
  161MOL0     H21681  12.010   2.170   9.425 -0.7665  0.1826 -1.2239
  161MOL0     H21682  12.005   2.063   9.659  1.1628 -1.7395  1.7638
  161MOL0     H21683  12.044   1.911   9.575 -2.7916 -0.7069 -5.4981
  161MOL0     H21684  12.190   2.181   9.578 -1.9336  0.4351 -3.3164
  161MOL0     H21685  12.260   2.044   9.505  0.5493  0.9288  0.1947
  161MOL0     H21686  12.189   2.168   9.861 -1.7164 -0.7338 -0.4256
  161MOL0     H21687  12.297   1.867  10.088 -1.5388  0.2194  2.0910
  161MOL0     H21688  12.338   2.047  10.106  3.1112 -1.5437 -1.7184
  161MOL0     H21689  12.084   2.075  10.062 -2.0042 -1.4201  1.2412
  161MOL0     H21690  12.141   2.026  10.220  3.1211 -2.8335  1.5876
  161MOL0     H21691  12.067   1.802  10.032 -0.8384  0.6772 -1.3950
  161MOL0     H21692  11.939   1.913  10.081  0.8332 -1.0081 -4.7298
  161MOL0     H21693  11.912   1.774  10.263  1.2231 -0.3112  2.5355
  161MOL0     H21694  12.046   1.872  10.328 -0.3751  0.2167  0.9065
  161MOL0     H21695  11.867   1.630  10.124  0.5491 -0.4282 -2.6236
  161MOL0     H21696  11.697   1.502  10.024 -0.0102  0.6235  3.2180
  161MOL0     H21697  11.739   1.340   9.952 -2.8902 -3.0967  1.0146
  161MOL0     H21698  11.681   1.357  10.110  0.5184 -2.0806 -2.5215
  161MOL0     H21699  12.011   0.921   9.830  0.1924 -1.7132 -0.3673
  161MOL0     H21700  12.009   0.700   9.830  2.8345  0.4679 -0.2652
  161MOL0     H21701  12.193   0.496  10.139 -0.7036  1.1491 -0.2440
  161MOL0     H21702  12.050   0.483  10.243  1.5596  1.6917  0.9930
  161MOL0     H21703  11.978   0.271  10.120  0.0513 -1.5553 -0.6908
  161MOL0     H21704  12.129   0.276  10.038  0.3766 -1.0034  0.8973
  161MOL0     H21705  12.111   0.116  10.209  0.1704 -0.8331 -0.7058
  161MOL0     H21706  12.081   0.236  10.327 -2.6881 -1.9354 -1.5860
  161MOL0     H21707  12.297   0.337  10.322  1.2970 -0.0025  1.3212
  161MOL0     H21708  12.317   0.160  10.350  0.3161  0.8898  1.6739
  161MOL0     H21709  12.482   0.268  10.181  0.4234  0.2799  0.2870
  161MOL0     H21710  12.336   0.278  10.070 -1.1213 -1.1256  1.2408
  161MOL0     H21711  12.472   0.039  10.183 -0.4633 -1.0607  0.0174
  161MOL0     H21712  12.315   0.023  10.126 -0.2781 -0.2186 -0.9178
  161MOL0     H21713  12.565   0.162   9.985  1.8017 -2.5139  0.3248
  161MOL0     H21714  12.419   0.145   9.904  0.3585  1.4021 -0.3653
  161MOL0     H21715  12.569  -0.033   9.830  1.1150 -0.9289  0.6796
  161MOL0     H21716  12.423  -0.100   9.911  0.7992 -2.7368  0.5607
  161MOL0     H21717  12.048   0.680  10.257 -0.3372  3.5775  1.4173
  161MOL0     H21718  12.043   0.928  10.261 -0.6545  2.3474 -1.4473
  161MOL0     H21719  12.175   1.252  10.181 -1.4275 -1.5419 -1.5746
  161MOL0     H21720  12.229   1.460  10.272  0.0388 -0.6862 -0.2618
  161MOL0     H21721  11.476   2.014   9.194  0.7885  1.0011 -0.3265
  161MOL0     H21722  11.257   2.137   9.214 -0.0774  1.9381 -0.6940
  161MOL0     H21723  10.764   1.958   8.891 -2.0804  0.3237 -0.6770
  161MOL0     H21724  10.555   2.029   8.879  1.9348 -0.0121 -1.3156
  161MOL0     H21725  10.367   2.118   8.829 -1.6232 -4.0885  2.3418
  161MOL0     H21726  10.343   2.101   9.003 -1.9185 -0.7272 -0.1684
  161MOL0     H21727  10.161   2.299   8.996  1.3727 -0.0047  0.8866
  161MOL0     H21728  10.121   2.180   8.882  0.2175 -0.2268  2.4868
  161MOL0     H21729  10.269   2.300   8.705  1.9222  0.4520  1.2418
  161MOL0     H21730  10.278   2.431   8.820 -0.5119  1.1333 -3.0955
  161MOL0     H21731  10.119   2.483   8.664  2.2160 -2.9917 -3.0110
  161MOL0     H21732  10.024   2.459   8.809 -1.6397  0.3586 -0.7380
  161MOL0     H21733   9.894   2.151   8.542 -1.5581 -0.6936  1.8698
  161MOL0     H21734  10.653   2.410   9.057 -1.8439 -0.0299  0.5805
  161MOL0     H21735  10.894   2.329   9.077 -1.7454 -1.4560  4.3536
  162MOL0     O21736   2.091   8.160   3.376  0.1251 -0.6324  0.3408
  162MOL0     C21737   2.102   8.052   3.432 -0.7803  0.1964 -1.2710
  162MOL0     O21738   2.215   8.014   3.507  0.3282 -0.2536 -0.1320
  162MOL0     C21739   2.331   8.088   3.511 -0.2384  0.3723  0.4650
  162MOL0     C21740   2.450   8.011   3.508  0.7998  0.1818  0.0340
  162MOL0     C21741   2.576   8.072   3.528  0.5872 -0.0904 -0.0517
  162MOL0     C21742   2.590   8.213   3.525 -0.1350 -0.0334  0.4040
  162MOL0     O21743   2.713   8.276   3.515  0.0165  0.8147 -0.3990
  162MOL0     C21744   2.828   8.188   3.484 -0.5868 -0.0827 -0.6516
  162MOL0     C21745   2.937   8.284   3.428 -0.2377  0.3326  0.3164
  162MOL0     C21746   3.056   8.211   3.378 -1.0498 -1.0304 -0.0560
  162MOL0     C21747   3.190   8.286   3.402  0.2523  0.1247  0.0616
  162MOL0     C21748   3.316   8.203   3.380  0.6268  0.3125 -0.9033
  162MOL0     C21749   3.436   8.290   3.405  0.1137  0.3393  0.8757
  162MOL0     C21750   3.568   8.212   3.419 -0.6284 -0.0274  0.1172
  162MOL0     C21751   3.678   8.309   3.476  0.4226  0.0692  0.3710
  162MOL0     N21752   3.796   8.227   3.500  0.6422  0.3730 -0.1261
  162MOL0     C21753   3.898   8.198   3.406  0.4918  0.3645 -0.3571
  162MOL0     C21754   3.990   8.144   3.488  0.6158  0.0029  1.0812
  162MOL0     C21755   4.126   8.117   3.435 -0.1137 -0.4142 -0.5256
  162MOL0     C21756   4.203   8.241   3.392 -0.0781  0.9255 -0.3071
  162MOL0     C21757   4.201   8.357   3.495  0.6644 -0.1263  1.1866
  162MOL0     C21758   4.293   8.463   3.461  1.5502  0.6426  0.3483
  162MOL0     O21759   4.424   8.415   3.430 -0.2135  0.2216  0.5260
  162MOL0     C21760   4.503   8.399   3.532 -0.5603 -0.4153  0.0441
  162MOL0     C21761   4.529   8.267   3.573  0.2279  0.4905 -0.1027
  162MOL0     C21762   4.616   8.244   3.678  0.6538 -0.3119  0.7883
  162MOL0     C21763   4.630   8.096   3.728 -0.0944 -1.0592  0.6918
  162MOL0     C21764   4.677   8.354   3.749 -0.6408 -0.0693  0.2223
  162MOL0     C21765   4.764   8.326   3.868 -0.0933 -0.7350  0.8710
  162MOL0     O21766   4.721   8.381   3.984 -0.3925  0.1963 -0.0342
  162MOL0     C21767   4.793   8.362   4.099  0.0493  0.0179  0.3747
  162MOL0     C21768   4.719   8.308   4.212 -0.5393  0.0281 -0.3506
  162MOL0     C21769   4.797   8.272   4.327  0.5529 -0.5125  0.2141
  162MOL0     C21770   4.936   8.306   4.335 -0.7380 -0.1262  0.0223
  162MOL0     O21771   5.026   8.258   4.430 -0.7597  0.4754 -0.4925
  162MOL0     C21772   4.995   8.139   4.504  0.0723  0.1467 -0.1125
  162MOL0     C21773   5.128   8.072   4.533 -0.2989  0.1294  0.3476
  162MOL0     C21774   5.133   7.927   4.509  1.7195  0.3275 -0.2429
  162MOL0     C21775   5.264   7.851   4.524  0.4514  0.8963  0.9025
  162MOL0     C21776   5.338   7.880   4.662  0.6079  0.4302 -0.5827
  162MOL0     C21777   5.457   7.782   4.678 -0.6708 -0.1119  0.0179
  162MOL0     C21778   5.543   7.816   4.796 -0.8837 -0.4926 -0.6428
  162MOL0     C21779   5.480   7.804   4.937  0.1539  0.4295  0.0901
  162MOL0    Cl21780   5.591   7.912   5.021 -0.4541  0.0698  0.0809
  162MOL0     C21781   4.993   8.354   4.216 -0.7962 -0.4538  0.0149
  162MOL0     C21782   4.931   8.380   4.103 -0.0563  0.4866 -0.1139
  162MOL0     O21783   4.875   8.280   3.846 -0.4449  0.1310  0.4891
  162MOL0     C21784   4.643   8.486   3.708  0.1009 -0.3456 -0.4428
  162MOL0     C21785   4.558   8.506   3.601 -0.5415  0.5437  0.1251
  162MOL0     N21786   3.955   8.158   3.620  0.8722  0.7351  0.3522
  162MOL0     N21787   3.835   8.208   3.624  0.2165 -0.1974 -0.5967
  162MOL0     C21788   2.469   8.289   3.519 -0.0685 -0.1291  0.2924
  162MOL0     C21789   2.341   8.231   3.529 -0.6769  0.4100 -0.1872
  162MOL0     C21790   1.972   7.988   3.456 -0.2413  0.2271 -0.0261
  162MOL0     C21791   1.968   7.854   3.497 -0.8606  0.4116 -0.1490
  162MOL0     C21792   1.844   7.779   3.504  0.3870 -0.0691  0.7080
  162MOL0     C21793   1.722   7.830   3.464 -0.8121 -0.0812  0.8693
  162MOL0     O21794   1.601   7.783   3.464 -0.1216  0.1809 -0.4518
  162MOL0     C21795   1.596   7.638   3.456  0.0585 -0.1821 -0.0541
  162MOL0     C21796   1.452   7.589   3.412 -0.3457 -0.1043  0.7021
  162MOL0     C21797   1.352   7.597   3.530  0.3469 -0.1488  0.1917
  162MOL0     C21798   1.224   7.512   3.509 -0.0999 -0.3904 -0.6658
  162MOL0     C21799   1.121   7.567   3.422  1.0440 -0.4538 -0.6157
  162MOL0     C21800   1.022   7.589   3.368 -0.1208 -0.7535 -0.1180
  162MOL0     C21801   1.728   7.962   3.420  0.2249  0.3285  0.0751
  162MOL0     C21802   1.845   8.042   3.443  0.8881  0.5495  0.0257
  162MOL0     H21803   2.463   7.904   3.495  1.5725  0.1891  0.6760
  162MOL0     H21804   2.664   8.010   3.546  0.2755 -0.8844 -1.2018
  162MOL0     H21805   2.862   8.122   3.564  1.2902  0.5180 -0.8905
  162MOL0     H21806   2.809   8.129   3.394  2.9392 -3.8866  0.7695
  162MOL0     H21807   2.905   8.351   3.348  0.6430  1.9863  1.2923
  162MOL0     H21808   2.966   8.354   3.507  1.2549 -1.0006  1.0157
  162MOL0     H21809   3.072   8.107   3.407 -0.3268 -1.9192 -3.2159
  162MOL0     H21810   3.046   8.215   3.269 -2.7114  3.0498  0.0887
  162MOL0     H21811   3.192   8.375   3.339 -2.5964  0.7806  0.7517
  162MOL0     H21812   3.188   8.298   3.511  0.3853  0.1343  0.0629
  162MOL0     H21813   3.323   8.119   3.449  0.1236  1.0007  0.0203
  162MOL0     H21814   3.314   8.169   3.277  0.3680  2.9273 -1.8498
  162MOL0     H21815   3.454   8.362   3.325 -0.0417  1.1987  1.5890
  162MOL0     H21816   3.412   8.345   3.497  1.5013  2.5253  0.0299
  162MOL0     H21817   3.556   8.127   3.488  0.8611 -2.2815 -2.1825
  162MOL0     H21818   3.592   8.165   3.323 -3.0672 -0.9875 -0.1010
  162MOL0     H21819   3.639   8.361   3.564  3.7618 -1.7549  3.1996
  162MOL0     H21820   3.703   8.392   3.408  1.4268  1.9697  2.9108
  162MOL0     H21821   3.914   8.216   3.300 -0.9045  0.0853 -0.6379
  162MOL0     H21822   4.196   8.073   3.506  1.7282 -0.1579 -2.0779
  162MOL0     H21823   4.116   8.057   3.344 -0.3198  1.0151 -1.4951
  162MOL0     H21824   4.173   8.277   3.293  0.0675  1.0289 -0.3145
  162MOL0     H21825   4.301   8.193   3.385 -0.9227 -0.7028 -1.5425
  162MOL0     H21826   4.226   8.322   3.596 -0.7818 -0.0855  1.5700
  162MOL0     H21827   4.104   8.406   3.507  1.7663  3.4808 -2.3297
  162MOL0     H21828   4.297   8.520   3.553  0.1212 -1.4223  1.7874
  162MOL0     H21829   4.247   8.526   3.384  1.7497  0.9278  0.4641
  162MOL0     H21830   4.470   8.190   3.524  1.1769 -0.5217  0.3114
  162MOL0     H21831   4.557   8.093   3.810  2.1681  1.5060  3.0152
  162MOL0     H21832   4.610   8.017   3.656  0.6484 -0.5798 -0.0498
  162MOL0     H21833   4.732   8.081   3.765  0.6132 -1.3690 -1.2950
  162MOL0     H21834   4.611   8.296   4.209 -0.5983  0.2970  0.4608
  162MOL0     H21835   4.759   8.213   4.410 -2.6568  2.6419  1.2233
  162MOL0     H21836   4.932   8.154   4.592  0.7899  2.3746  0.0890
  162MOL0     H21837   4.957   8.071   4.427  2.2578 -1.4201  0.1027
  162MOL0     H21838   5.217   8.111   4.482  0.2578 -0.5027  0.8158
  162MOL0     H21839   5.129   8.088   4.641 -1.2048  1.2967  0.2019
  162MOL0     H21840   5.097   7.900   4.409  1.7784 -1.3594  0.1688
  162MOL0     H21841   5.060   7.883   4.578  2.9295  0.1951  0.9894
  162MOL0     H21842   5.232   7.747   4.528 -0.0457  1.0246  0.4517
  162MOL0     H21843   5.340   7.863   4.446  2.4182 -3.9985  1.7567
  162MOL0     H21844   5.267   7.875   4.745  0.2261  1.6706 -0.8062
  162MOL0     H21845   5.379   7.982   4.660  2.3520 -0.2049  0.4388
  162MOL0     H21846   5.418   7.681   4.691  0.7699 -0.3590  3.4158
  162MOL0     H21847   5.520   7.777   4.589  1.3723 -1.3542  1.4627
  162MOL0     H21848   5.569   7.922   4.808 -0.1867 -0.9822  6.0894
  162MOL0     H21849   5.640   7.766   4.791 -0.4979  0.2890 -1.3422
  162MOL0     H21850   5.473   7.699   4.967 -2.3896 -0.0353 -1.8507
  162MOL0     H21851   5.382   7.852   4.940  1.0160  2.3684 -0.8721
  162MOL0     H21852   5.100   8.371   4.224 -1.2001  1.3067  2.8343
  162MOL0     H21853   4.975   8.407   4.007  0.5812 -5.2437 -1.8370
  162MOL0     H21854   4.696   8.569   3.754  1.1436 -0.1696 -1.8697
  162MOL0     H21855   4.523   8.607   3.581 -0.3287  1.4459  3.5902
  162MOL0     H21856   2.471   8.396   3.501 -1.5239  0.0330  0.9429
  162MOL0     H21857   2.259   8.301   3.532  2.0102  3.8849 -0.6013
  162MOL0     H21858   2.059   7.802   3.524 -0.5569  0.7863 -0.4250
  162MOL0     H21859   1.843   7.674   3.532  2.6676 -0.0671  0.9548
  162MOL0     H21860   1.673   7.613   3.381  1.2390  4.8865 -0.8717
  162MOL0     H21861   1.610   7.586   3.551  0.4679  4.6002  2.8157
  162MOL0     H21862   1.459   7.486   3.376  0.6166  0.4725 -0.8325
  162MOL0     H21863   1.420   7.642   3.323 -0.4924 -4.4753 -2.1491
  162MOL0     H21864   1.316   7.700   3.538  0.5305  0.2173 -2.7930
  162MOL0     H21865   1.404   7.567   3.622  3.8704 -3.4569 -2.5654
  162MOL0     H21866   1.176   7.496   3.606 -0.1829  2.4806 -0.1530
  162MOL0     H21867   1.244   7.420   3.452  0.4290 -0.1118 -0.9387
  162MOL0     H21868   0.931   7.600   3.314  0.1620 -0.0323 -0.4620
  162MOL0     H21869   1.643   8.015   3.378 -2.3725 -0.8325  3.4321
  162MOL0     H21870   1.848   8.145   3.409  0.4524  0.6391  0.2491
  163MOL0     O21871  10.515   3.246   0.070 -0.3184 -0.0912  0.6914
  163MOL0     C21872  10.593   3.219   0.163 -0.7753 -0.1741 -0.8016
  163MOL0     O21873  10.707   3.143   0.153 -0.2639  0.3021 -0.1830
  163MOL0     C21874  10.746   3.087   0.037  0.3917  0.4737 -0.0544
  163MOL0     C21875  10.810   2.960   0.058  0.8211  0.1950  0.3001
  163MOL0     C21876  10.848   2.890  -0.056 -0.4852  0.7269  0.2207
  163MOL0     C21877  10.846   2.942  -0.186  0.9602 -0.1784 -0.2665
  163MOL0     O21878  10.899   2.873  -0.290 -0.5221  0.3686  0.4186
  163MOL0     C21879  11.035   2.835  -0.277 -0.4836  0.5496  0.5515
  163MOL0     C21880  11.123   2.929  -0.364  0.5854 -0.1452  0.1314
  163MOL0     C21881  11.260   2.876  -0.376  0.0306  0.4974  0.6683
  163MOL0     C21882  11.270   2.782  -0.489  0.3847 -0.0202  0.1372
  163MOL0     C21883  11.367   2.830  -0.601  0.2466  0.6461 -0.2215
  163MOL0     C21884  11.318   2.960  -0.665  1.2836  0.4416 -0.1768
  163MOL0     C21885  11.400   3.020  -0.777 -0.7566 -0.0663 -0.6956
  163MOL0     C21886  11.344   2.954  -0.916 -0.4406 -0.5902 -0.0169
  163MOL0     N21887  11.266   3.048  -1.000 -0.0838 -0.5715  0.4284
  163MOL0     C21888  11.175   3.135  -0.951  0.8961 -0.0119 -0.7089
  163MOL0     C21889  11.118   3.207  -1.049  0.4605 -0.7919  0.7454
  163MOL0     C21890  11.023   3.324  -1.030  0.6269 -0.1597 -0.4209
  163MOL0     C21891  11.038   3.416  -1.151  0.3295 -0.3716 -0.8778
  163MOL0     C21892  10.957   3.548  -1.133  0.8138  0.3218  0.2511
  163MOL0     C21893  10.976   3.641  -1.252 -0.0916 -0.4637  0.5133
  163MOL0     O21894  10.869   3.614  -1.347  0.1874  0.4136 -0.0304
  163MOL0     C21895  10.820   3.722  -1.407  0.7154 -0.5451  0.5533
  163MOL0     C21896  10.683   3.765  -1.389  0.2318  0.3600 -0.3209
  163MOL0     C21897  10.628   3.890  -1.446  0.5748  0.1727  0.4519
  163MOL0     C21898  10.478   3.913  -1.451  1.3494 -1.1518 -0.4763
  163MOL0     C21899  10.726   3.979  -1.502  0.8160  0.2829 -0.7023
  163MOL0     C21900  10.684   4.111  -1.550 -0.7357 -0.2290  0.5325
  163MOL0     O21901  10.744   4.160  -1.665 -0.8754 -0.4329  0.5494
  163MOL0     C21902  10.733   4.290  -1.699  1.0192 -1.2102  0.7309
  163MOL0     C21903  10.641   4.342  -1.797 -0.5772  0.4007  0.3607
  163MOL0     C21904  10.634   4.473  -1.827 -0.7368  0.0345 -0.4619
  163MOL0     C21905  10.709   4.570  -1.755  0.1036 -0.1995 -0.2829
  163MOL0     O21906  10.698   4.704  -1.780 -0.1449  0.8216 -0.0675
  163MOL0     C21907  10.649   4.742  -1.910 -0.1473  0.4556 -0.9018
  163MOL0     C21908  10.631   4.889  -1.891 -0.1110 -0.9383 -0.0905
  163MOL0     C21909  10.552   4.946  -2.024  0.3025 -0.3332  0.0196
  163MOL0     C21910  10.618   5.067  -2.088  0.4113  0.4357  0.0352
  163MOL0     C21911  10.601   5.198  -2.014  0.3835 -1.2156 -0.2477
  163MOL0     C21912  10.629   5.313  -2.112  0.5488  0.0259 -0.3086
  163MOL0     C21913  10.620   5.451  -2.057  0.4826 -0.4801 -0.0532
  163MOL0     C21914  10.657   5.542  -2.177  0.7401 -0.5494 -0.5120
  163MOL0    Cl21915  10.637   5.722  -2.123 -0.0782  0.3501  0.3215
  163MOL0     C21916  10.793   4.531  -1.656  0.2518  0.6484 -0.6791
  163MOL0     C21917  10.802   4.391  -1.626  0.0510  0.2559  0.1990
  163MOL0     O21918  10.621   4.184  -1.475  0.0890  0.0427  0.7267
  163MOL0     C21919  10.860   3.929  -1.518  0.4685 -0.4826 -1.1512
  163MOL0     C21920  10.903   3.812  -1.468 -0.3969  0.3756  0.3562
  163MOL0     N21921  11.182   3.172  -1.170 -0.6523 -0.0889  0.5733
  163MOL0     N21922  11.275   3.082  -1.132 -1.9895 -0.1620  0.5459
  163MOL0     C21923  10.797   3.077  -0.195  0.5124  0.1277  0.8750
  163MOL0     C21924  10.737   3.145  -0.087  0.8681 -0.8722 -1.4273
  163MOL0     C21925  10.583   3.273   0.301  0.0162  0.6596  0.5604
  163MOL0     C21926  10.472   3.350   0.327 -0.0811 -0.6013 -0.2589
  163MOL0     C21927  10.437   3.398   0.454  0.5608  0.6033  0.2806
  163MOL0     C21928  10.521   3.375   0.562 -0.0698 -0.2502  0.4108
  163MOL0     O21929  10.491   3.403   0.686  0.2058 -0.2425  0.4454
  163MOL0     C21930  10.373   3.458   0.730 -0.1736 -0.3880 -0.4252
  163MOL0     C21931  10.377   3.501   0.877  0.6968  0.6426 -0.4333
  163MOL0     C21932  10.360   3.379   0.979 -0.3485 -0.6699  0.6164
  163MOL0     C21933  10.314   3.421   1.119 -0.9979  0.1470  0.5794
  163MOL0     C21934  10.208   3.522   1.112 -0.4365 -0.5292 -0.9372
  163MOL0     C21935  10.137   3.616   1.136  0.0132  0.1372  0.3842
  163MOL0     C21936  10.645   3.307   0.540  0.1130  0.3519  0.5257
  163MOL0     C21937  10.672   3.253   0.411 -1.3705 -0.4944  1.1849
  163MOL0     H21938  10.824   2.907   0.151 -0.1757 -0.6104  0.0179
  163MOL0     H21939  10.905   2.797  -0.051  1.0713  1.3881 -2.5571
  163MOL0     H21940  11.075   2.850  -0.176  0.6734  1.2122  0.0135
  163MOL0     H21941  11.034   2.726  -0.285 -1.8692  0.4033  2.0477
  163MOL0     H21942  11.081   2.936  -0.465 -1.3737 -1.6268  0.7649
  163MOL0     H21943  11.122   3.028  -0.319  2.9528 -0.8389  1.9008
  163MOL0     H21944  11.334   2.956  -0.391 -0.7704  0.7102 -3.1369
  163MOL0     H21945  11.274   2.807  -0.292 -0.8547 -2.2006 -1.2540
  163MOL0     H21946  11.281   2.678  -0.457 -4.5312 -0.9964 -0.5472
  163MOL0     H21947  11.178   2.765  -0.545 -0.8797 -2.3884  2.6930
  163MOL0     H21948  11.469   2.840  -0.565  1.1532  0.1564 -2.4512
  163MOL0     H21949  11.361   2.743  -0.667  1.0189 -1.3735  2.2076
  163MOL0     H21950  11.219   2.941  -0.706  2.2959 -1.3763 -1.9602
  163MOL0     H21951  11.310   3.036  -0.586 -0.0631 -0.7178  0.8397
  163MOL0     H21952  11.401   3.129  -0.774 -0.3678 -0.0719  1.4114
  163MOL0     H21953  11.505   2.993  -0.758 -0.6683 -0.5432 -1.7905
  163MOL0     H21954  11.279   2.867  -0.901 -2.9719  1.3236  0.9423
  163MOL0     H21955  11.428   2.920  -0.976 -0.9531  0.6347 -1.4881
  163MOL0     H21956  11.171   3.146  -0.843  2.1874 -4.1257 -0.0863
  163MOL0     H21957  10.923   3.283  -1.014  0.6807  0.0381  0.4717
  163MOL0     H21958  11.045   3.388  -0.945  1.0693  0.2341 -0.8292
  163MOL0     H21959  11.012   3.371  -1.247  2.1047  2.4479 -2.8342
  163MOL0     H21960  11.142   3.441  -1.173  0.6009 -1.7426 -1.2811
  163MOL0     H21961  11.004   3.602  -1.050  3.6828 -2.3993  0.6179
  163MOL0     H21962  10.854   3.530  -1.104  0.7693  2.9367  2.0919
  163MOL0     H21963  11.071   3.624  -1.303 -0.9812 -1.5463 -0.8709
  163MOL0     H21964  10.966   3.743  -1.213  1.6815  0.7322 -1.9103
  163MOL0     H21965  10.609   3.706  -1.336 -2.4848  0.4432 -3.6603
  163MOL0     H21966  10.417   3.824  -1.468 -0.4116  0.0250 -0.5060
  163MOL0     H21967  10.453   3.949  -1.351 -3.4537 -0.6350 -1.6224
  163MOL0     H21968  10.451   4.000  -1.510 -0.8523  2.2824  4.8507
  163MOL0     H21969  10.596   4.267  -1.863  0.8631  2.4692 -3.2575
  163MOL0     H21970  10.559   4.498  -1.901  0.9463 -0.7656 -2.5550
  163MOL0     H21971  10.719   4.706  -1.985 -1.0241  0.3897 -1.7128
  163MOL0     H21972  10.555   4.693  -1.940  1.1222 -0.0348 -4.5821
  163MOL0     H21973  10.562   4.906  -1.808 -2.2658  0.7442 -2.0844
  163MOL0     H21974  10.721   4.945  -1.865 -1.8667  0.2160  4.1754
  163MOL0     H21975  10.460   4.990  -1.983  1.6142  2.0080  0.6916
  163MOL0     H21976  10.526   4.869  -2.096  0.9756  0.7127 -1.4044
  163MOL0     H21977  10.723   5.044  -2.107  0.7429  1.4132  0.6425
  163MOL0     H21978  10.563   5.075  -2.182  1.6295 -0.4205 -0.7649
  163MOL0     H21979  10.672   5.205  -1.930  1.6312 -1.8391 -1.2111
  163MOL0     H21980  10.501   5.214  -1.972 -0.0022 -2.9719 -0.4227
  163MOL0     H21981  10.733   5.305  -2.147  0.2215 -2.7548 -0.8906
  163MOL0     H21982  10.571   5.295  -2.203  0.3854  0.8388 -0.3730
  163MOL0     H21983  10.684   5.461  -1.969  0.7137  0.4503 -0.3171
  163MOL0     H21984  10.517   5.464  -2.023  1.3889  0.4023  2.5918
  163MOL0     H21985  10.594   5.538  -2.266 -0.5057  1.5293  0.1966
  163MOL0     H21986  10.755   5.518  -2.218  0.2249 -1.5916 -1.1796
  163MOL0     H21987  10.826   4.602  -1.581 -1.2814 -0.5773  1.2688
  163MOL0     H21988  10.868   4.373  -1.542 -0.3801 -0.6055  0.3649
  163MOL0     H21989  10.938   3.979  -1.573  0.0875  1.1301 -0.3022
  163MOL0     H21990  11.010   3.793  -1.469 -0.6629 -1.3078 -0.4547
  163MOL0     H21991  10.783   3.114  -0.296 -1.0973  0.7370  1.2922
  163MOL0     H21992  10.686   3.240  -0.099  1.7867  0.1096  1.5213
  163MOL0     H21993  10.414   3.390   0.245 -2.0086  0.0273  1.3009
  163MOL0     H21994  10.346   3.455   0.468  1.0157  1.0716  1.4721
  163MOL0     H21995  10.366   3.551   0.674  2.1442 -2.6874 -5.0681
  163MOL0     H21996  10.292   3.384   0.723 -0.1483 -0.7554  2.2026
  163MOL0     H21997  10.307   3.584   0.885 -1.2852 -1.0021  0.2325
  163MOL0     H21998  10.476   3.543   0.898 -0.1931  1.2199  3.5309
  163MOL0     H21999  10.446   3.312   0.991  1.2554  0.9066 -1.4472
  163MOL0     H22000  10.281   3.316   0.937  0.0635 -0.7935  0.0098
  163MOL0     H22001  10.398   3.467   1.172 -1.1273  0.1717  0.7610
  163MOL0     H22002  10.282   3.331   1.172 -0.3663  0.1841  1.0283
  163MOL0     H22003  10.093   3.709   1.164 -0.2196  1.4802 -3.8382
  163MOL0     H22004  10.717   3.286   0.618  1.5856  1.8085 -0.3699
  163MOL0     H22005  10.767   3.203   0.398 -0.4354  0.8233  2.6342
  164MOL0     O22006   9.004   6.849   9.588  0.1433 -0.0104 -0.1173
  164MOL0     C22007   9.091   6.868   9.504  0.0988  0.4438 -0.2063
  164MOL0     O22008   9.130   6.992   9.455  0.5231 -0.0727 -0.0672
  164MOL0     C22009   9.098   7.114   9.517  0.0074 -0.3033  0.3654
  164MOL0     C22010   9.096   7.229   9.435 -0.7164  0.0824  0.5407
  164MOL0     C22011   9.085   7.365   9.483  0.1300  1.0141 -0.2912
  164MOL0     C22012   9.075   7.379   9.618  0.0390  0.4517  0.2141
  164MOL0     O22013   9.061   7.490   9.694 -0.0277  0.5329  0.6015
  164MOL0     C22014   9.049   7.617   9.639  0.2173  0.3525  0.3174
  164MOL0     C22015   8.906   7.647   9.604  0.5740 -0.8178  0.0066
  164MOL0     C22016   8.894   7.777   9.527  0.3607  0.0602 -0.7474
  164MOL0     C22017   8.782   7.772   9.425  1.1584  0.1634  0.3928
  164MOL0     C22018   8.639   7.771   9.495  0.0036 -0.9457  0.1521
  164MOL0     C22019   8.533   7.810   9.390 -0.1203  0.5031 -0.4270
  164MOL0     C22020   8.390   7.815   9.450  0.3898 -0.1940  0.1484
  164MOL0     C22021   8.391   7.848   9.600 -0.2392 -0.3352  0.3361
  164MOL0     N22022   8.260   7.861   9.664 -0.5213 -0.9959  0.9153
  164MOL0     C22023   8.190   7.987   9.656  0.1524  0.1950  0.0317
  164MOL0     C22024   8.111   7.973   9.766  0.4560 -0.2353  1.5248
  164MOL0     C22025   8.022   8.086   9.813  0.1453 -0.6423  0.6006
  164MOL0     C22026   8.074   8.170   9.932 -0.0303 -0.4828 -0.2643
  164MOL0     C22027   7.996   8.302   9.935  0.3728 -0.3713 -0.3340
  164MOL0     C22028   8.059   8.401  10.033  0.2916 -1.0912 -0.4181
  164MOL0     O22029   7.969   8.500  10.094 -0.0685 -0.3951 -0.6529
  164MOL0     C22030   8.009   8.612  10.166 -1.2251 -0.4026 -0.1196
  164MOL0     C22031   8.143   8.667  10.171 -0.1002  0.6907 -0.5346
  164MOL0     C22032   8.177   8.784  10.231  0.7864 -0.0484 -0.3032
  164MOL0     C22033   8.323   8.844  10.226  0.8186 -0.1198 -0.2649
  164MOL0     C22034   8.067   8.863  10.284 -1.3389  0.7640 -1.1258
  164MOL0     C22035   8.079   8.999  10.345 -0.9119 -0.2406  0.3359
  164MOL0     O22036   7.965   9.074  10.349  0.7074  0.1632 -0.9020
  164MOL0     C22037   7.962   9.203  10.398 -0.0379  0.3390  0.2869
  164MOL0     C22038   7.861   9.256  10.474 -0.3381 -0.6589  1.1912
  164MOL0     C22039   7.864   9.398  10.499  0.3972 -0.1382 -0.0402
  164MOL0     C22040   7.976   9.481  10.471  0.6549 -0.1746  0.1593
  164MOL0     O22041   7.977   9.612  10.521  0.0409 -0.2506  0.4625
  164MOL0     C22042   8.085   9.702  10.488 -0.0962 -0.2916  0.4654
  164MOL0     C22043   8.074   9.831  10.579 -0.0760  0.8836  0.7816
  164MOL0     C22044   8.098   9.787  10.718  1.0939 -0.2789 -1.5165
  164MOL0     C22045   8.111   9.902  10.824 -0.6466  0.0476  0.3134
  164MOL0     C22046   8.094   9.823  10.958 -0.4183 -0.8185 -0.4138
  164MOL0     C22047   8.182   9.891  11.068  0.5449 -0.3867  0.0643
  164MOL0     C22048   8.169   9.814  11.205 -0.3009 -0.2050  0.1251
  164MOL0     C22049   8.038   9.840  11.277 -0.5525  0.3198 -0.2527
  164MOL0    Cl22050   8.008   9.724  11.414  0.2410 -0.1156  0.0133
  164MOL0     C22051   8.081   9.417  10.407 -0.8791 -0.5500  0.3923
  164MOL0     C22052   8.078   9.284  10.370  0.8170  0.0472 -0.0862
  164MOL0     O22053   8.189   9.032  10.387  0.4121 -0.8184  0.1239
  164MOL0     C22054   7.942   8.808  10.274 -0.2024  0.8645  0.5178
  164MOL0     C22055   7.907   8.680  10.219 -0.9866 -0.0506  0.1867
  164MOL0     N22056   8.120   7.845   9.822  0.2960 -0.5184 -0.7974
  164MOL0     N22057   8.205   7.775   9.750 -0.1231 -1.0974  0.5461
  164MOL0     C22058   9.065   7.265   9.701  0.6276 -0.5651 -0.0641
  164MOL0     C22059   9.070   7.139   9.649 -0.5856  0.2611 -0.1394
  164MOL0     C22060   9.165   6.741   9.455  0.3682  0.1810  0.1921
  164MOL0     C22061   9.263   6.744   9.346 -0.1181  0.0212 -0.9777
  164MOL0     C22062   9.336   6.630   9.316  0.1828  0.0829 -0.9556
  164MOL0     C22063   9.320   6.508   9.391  0.4671  0.4281  0.3470
  164MOL0     O22064   9.379   6.390   9.363  0.3655  0.1846 -0.2365
  164MOL0     C22065   9.508   6.393   9.301 -0.3785 -0.5439 -0.8495
  164MOL0     C22066   9.490   6.357   9.153 -0.2818  0.2335 -0.3779
  164MOL0     C22067   9.491   6.469   9.049  0.5624  0.6167  0.5850
  164MOL0     C22068   9.512   6.412   8.909  0.4378  0.4385 -0.3921
  164MOL0     C22069   9.390   6.350   8.846  0.1816 -0.4555  0.2542
  164MOL0     C22070   9.300   6.292   8.790  1.5185  0.1790  0.8794
  164MOL0     C22071   9.228   6.511   9.497  0.4262 -0.4333 -0.2892
  164MOL0     C22072   9.155   6.624   9.529  0.0085  0.7832 -0.7784
  164MOL0     H22073   9.097   7.203   9.330  2.7631 -0.6978  0.6278
  164MOL0     H22074   9.081   7.445   9.410 -1.0436  0.0974 -1.2947
  164MOL0     H22075   9.092   7.692   9.705 -0.2644 -1.5042  2.9026
  164MOL0     H22076   9.101   7.620   9.543 -0.6529 -0.5708 -0.2034
  164MOL0     H22077   8.868   7.569   9.537 -4.3964 -0.0299  1.4606
  164MOL0     H22078   8.832   7.661   9.684  0.0977  1.4171 -0.7683
  164MOL0     H22079   8.884   7.856   9.603 -1.1622 -0.0765 -0.7761
  164MOL0     H22080   8.984   7.769   9.466  0.2435 -3.0671 -0.6427
  164MOL0     H22081   8.793   7.856   9.356 -1.0902 -1.6851 -2.4646
  164MOL0     H22082   8.803   7.681   9.368  0.7820  0.1477  0.2727
  164MOL0     H22083   8.627   7.671   9.538 -0.2709 -0.7300  0.5785
  164MOL0     H22084   8.645   7.844   9.575 -1.0508  0.9469 -1.4010
  164MOL0     H22085   8.561   7.906   9.347  0.2564  0.0927 -1.1067
  164MOL0     H22086   8.547   7.732   9.314  0.7332  0.3369 -0.1064
  164MOL0     H22087   8.340   7.887   9.384  3.4825  0.4548 -1.7015
  164MOL0     H22088   8.355   7.712   9.447 -1.7140  0.2472  3.8136
  164MOL0     H22089   8.434   7.948   9.609 -1.1507  0.9518 -5.5310
  164MOL0     H22090   8.445   7.769   9.653 -0.8063  0.5659  2.3496
  164MOL0     H22091   8.210   8.076   9.597  1.6201  0.3132  0.6398
  164MOL0     H22092   8.011   8.148   9.724  0.4118 -2.9034 -1.0896
  164MOL0     H22093   7.927   8.045   9.848  1.1039 -1.1823  2.7582
  164MOL0     H22094   8.181   8.188   9.915 -0.5798 -0.3904 -5.0676
  164MOL0     H22095   8.071   8.111  10.024 -0.5424 -1.0741 -0.6526
  164MOL0     H22096   7.891   8.284   9.959  0.0578 -1.7259 -2.4410
  164MOL0     H22097   7.995   8.353   9.838 -3.1754  1.4576  0.4875
  164MOL0     H22098   8.131   8.456   9.972 -0.6504  1.2948  0.4935
  164MOL0     H22099   8.119   8.357  10.112 -1.9331 -0.4572  1.7467
  164MOL0     H22100   8.222   8.610  10.123 -0.4236  0.7320 -1.1305
  164MOL0     H22101   8.356   8.844  10.330 -1.2357 -0.7100  0.4427
  164MOL0     H22102   8.393   8.780  10.171  1.7540 -0.5343  1.3492
  164MOL0     H22103   8.327   8.942  10.178  2.2106 -0.0043  0.0457
  164MOL0     H22104   7.793   9.184  10.518  0.4958 -0.6882  2.4751
  164MOL0     H22105   7.774   9.434  10.547 -1.2148  0.7680 -3.4222
  164MOL0     H22106   8.186   9.661  10.499  0.2109 -0.1744 -1.5967
  164MOL0     H22107   8.073   9.742  10.388  1.0824  2.8511  1.4534
  164MOL0     H22108   8.154   9.898  10.548  1.6926 -0.8796  1.3486
  164MOL0     H22109   7.984   9.892  10.564 -1.0239 -1.1709 -3.1415
  164MOL0     H22110   8.178   9.712  10.720  0.4422 -1.0488  2.0811
  164MOL0     H22111   8.006   9.734  10.746 -0.0513  1.3680 -2.0427
  164MOL0     H22112   8.210   9.943  10.805 -0.2013 -1.9191 -2.1882
  164MOL0     H22113   8.031   9.976  10.819  1.7968  2.8783  0.7791
  164MOL0     H22114   8.121   9.718  10.946 -1.4478 -0.8403 -3.1847
  164MOL0     H22115   7.985   9.821  10.970 -0.5406  1.5760 -0.6418
  164MOL0     H22116   8.287   9.896  11.037  0.1061  3.2868 -1.4183
  164MOL0     H22117   8.142   9.992  11.081 -1.3666 -1.4558  3.6203
  164MOL0     H22118   8.252   9.853  11.266 -0.0885  0.7626 -0.7452
  164MOL0     H22119   8.178   9.706  11.188  2.7974 -0.2855  1.4621
  164MOL0     H22120   7.956   9.833  11.206  0.2173  0.4445 -1.1853
  164MOL0     H22121   8.047   9.937  11.327 -0.9483  0.3520 -0.2448
  164MOL0     H22122   8.174   9.468  10.382 -2.0311  1.2143 -0.5015
  164MOL0     H22123   8.154   9.252  10.300 -0.2900  1.0487 -1.8159
  164MOL0     H22124   7.850   8.855  10.310 -1.1822 -0.8250  0.3408
  164MOL0     H22125   7.804   8.649  10.211 -1.1957  0.9632 -1.4169
  164MOL0     H22126   9.060   7.281   9.808  3.8787 -1.1594  0.2792
  164MOL0     H22127   9.073   7.062   9.726  0.8404  2.1884  1.8654
  164MOL0     H22128   9.275   6.833   9.285  1.6290  0.6077  0.1646
  164MOL0     H22129   9.413   6.633   9.240  1.4932 -2.3573  0.1592
  164MOL0     H22130   9.563   6.487   9.313 -0.6048 -0.7039  2.1548
  164MOL0     H22131   9.573   6.318   9.347  0.3605  1.2877  1.2671
  164MOL0     H22132   9.403   6.293   9.140  0.6949 -1.8583  2.4442
  164MOL0     H22133   9.580   6.297   9.133  1.2955  2.4660 -0.3683
  164MOL0     H22134   9.549   6.557   9.079  0.1535  0.3593  2.1687
  164MOL0     H22135   9.391   6.512   9.045 -0.5859 -1.9447 -0.5544
  164MOL0     H22136   9.590   6.335   8.910  0.6483  0.5912 -2.2108
  164MOL0     H22137   9.548   6.484   8.836 -1.6958  0.5334 -1.4401
  164MOL0     H22138   9.227   6.230   8.743 -0.2776  1.0649  2.3586
  164MOL0     H22139   9.206   6.418   9.549 -1.7145  0.5512  0.7024
  164MOL0     H22140   9.084   6.621   9.611  2.4558  1.2325  1.5014
  165MOL0     O22141  10.549   6.047   9.615 -0.1665  0.4055 -0.5799
  165MOL0     C22142  10.438   6.076   9.585 -0.1194  0.5599  0.3014
  165MOL0     O22143  10.403   6.180   9.518  0.4065  0.5728 -0.0340
  165MOL0     C22144  10.493   6.284   9.497 -0.1534 -0.0910  0.4174
  165MOL0     C22145  10.453   6.416   9.531 -0.0539 -0.0377  0.2109
  165MOL0     C22146  10.538   6.525   9.502  0.0172 -0.1377  0.6443
  165MOL0     C22147  10.658   6.509   9.441 -0.5070  0.1565 -0.5413
  165MOL0     O22148  10.747   6.621   9.454  0.3203  0.1480 -0.0058
  165MOL0     C22149  10.816   6.640   9.333 -0.2302  0.5967  0.1501
  165MOL0     C22150  10.857   6.788   9.332  0.2092 -0.5253 -0.2802
  165MOL0     C22151  10.757   6.887   9.291  0.1101 -0.0608  0.3241
  165MOL0     C22152  10.797   7.038   9.309 -0.5385 -0.2645  0.7761
  165MOL0     C22153  10.673   7.127   9.292  0.4400 -0.6018 -0.2934
  165MOL0     C22154  10.692   7.272   9.336  0.3103 -0.4428 -0.7915
  165MOL0     C22155  10.814   7.340   9.262  0.0679  0.4239  0.6062
  165MOL0     C22156  10.786   7.366   9.113  0.3723 -0.1424  0.3829
  165MOL0     N22157  10.805   7.256   9.024  0.1578 -0.1975  0.4940
  165MOL0     C22158  10.930   7.190   8.998  0.1309  0.2605 -0.8810
  165MOL0     C22159  10.902   7.103   8.901  1.1349  0.0447  0.1989
  165MOL0     C22160  10.998   6.994   8.863  0.8324  0.4584 -0.4218
  165MOL0     C22161  10.946   6.854   8.913  0.1731 -0.4360  0.5711
  165MOL0     C22162  11.053   6.752   8.867 -0.0763 -0.2828 -0.0528
  165MOL0     C22163  10.999   6.611   8.904  0.2539  0.2633  0.8927
  165MOL0     O22164  10.911   6.565   8.795 -0.4701  0.1997 -1.2117
  165MOL0     C22165  10.815   6.463   8.810  0.2242  0.6766 -0.2757
  165MOL0     C22166  10.805   6.373   8.931 -0.2781 -0.7570  0.4134
  165MOL0     C22167  10.701   6.288   8.952 -0.4597  0.8437 -0.3588
  165MOL0     C22168  10.697   6.229   9.083  0.4711  0.7750  0.1962
  165MOL0     C22169  10.598   6.281   8.871  0.0986  1.1058  0.3749
  165MOL0     C22170  10.473   6.201   8.890 -0.1174 -0.9119  0.8207
  165MOL0     O22171  10.363   6.238   8.818 -0.0016 -0.4845  0.1113
  165MOL0     C22172  10.234   6.183   8.816 -0.0713  0.1327 -1.0241
  165MOL0     C22173  10.163   6.126   8.920  0.0582  0.2165 -0.1267
  165MOL0     C22174  10.024   6.084   8.904  0.1311  0.5172  0.0775
  165MOL0     C22175   9.965   6.082   8.778 -0.2631  0.3784 -0.2032
  165MOL0     O22176   9.841   6.030   8.755 -0.4220  0.1984 -0.1410
  165MOL0     C22177   9.735   6.077   8.842  0.7026 -0.5953 -0.1722
  165MOL0     C22178   9.632   5.974   8.889  0.7421  0.5968 -0.4227
  165MOL0     C22179   9.677   5.893   9.010  0.2572  0.3271  0.1669
  165MOL0     C22180   9.576   5.792   9.066 -0.1255  0.6827  0.2110
  165MOL0     C22181   9.457   5.853   9.133  0.1934  0.1211  0.2456
  165MOL0     C22182   9.320   5.828   9.073 -0.0691  0.6497  0.3598
  165MOL0     C22183   9.278   5.682   9.049 -0.0880 -0.0995  0.2243
  165MOL0     C22184   9.212   5.627   9.170  0.0387  1.2118 -0.0981
  165MOL0    Cl22185   9.167   5.443   9.136 -0.3478  0.0889 -0.4090
  165MOL0     C22186  10.042   6.121   8.668  0.8779  0.5273  0.5949
  165MOL0     C22187  10.177   6.174   8.691  0.7353 -0.6305  0.2875
  165MOL0     O22188  10.469   6.119   8.973  0.1079 -0.2319  0.3474
  165MOL0     C22189  10.600   6.373   8.758  1.7014  0.6313  0.1495
  165MOL0     C22190  10.712   6.455   8.727  0.2994 -0.4859  0.1923
  165MOL0     N22191  10.768   7.123   8.859 -0.6973  0.1187  0.6332
  165MOL0     N22192  10.711   7.211   8.931  0.4432 -0.0489 -0.3118
  165MOL0     C22193  10.694   6.382   9.402 -0.1080 -0.5550 -0.2213
  165MOL0     C22194  10.611   6.266   9.430 -0.1662 -0.2337  0.3773
  165MOL0     C22195  10.323   5.993   9.634 -0.1735 -0.0375 -0.4281
  165MOL0     C22196  10.334   5.862   9.681 -0.1932  0.3473 -0.0077
  165MOL0     C22197  10.225   5.784   9.713 -0.6300  0.3528 -0.2254
  165MOL0     C22198  10.096   5.836   9.711  0.1270  1.2534  0.3233
  165MOL0     O22199  10.000   5.752   9.757  0.7995  0.2533 -0.3682
  165MOL0     C22200   9.872   5.806   9.798 -0.9444  0.0880 -0.3133
  165MOL0     C22201   9.762   5.697   9.797 -0.1641 -0.2780  0.6680
  165MOL0     C22202   9.787   5.594   9.910 -0.2782 -0.2150 -0.3547
  165MOL0     C22203   9.691   5.471   9.897  0.5251  0.4755  0.0078
  165MOL0     C22204   9.550   5.508   9.943 -0.8745 -0.0185  0.6356
  165MOL0     C22205   9.447   5.529   9.987  1.1732 -0.6128 -0.3811
  165MOL0     C22206  10.085   5.974   9.676 -0.4076  0.2581 -0.2949
  165MOL0     C22207  10.195   6.046   9.622 -0.0492  0.4479  0.2609
  165MOL0     H22208  10.359   6.425   9.585 -1.2818 -2.9689 -1.2040
  165MOL0     H22209  10.520   6.629   9.524 -0.6638  0.3491 -1.8690
  165MOL0     H22210  10.901   6.572   9.320  0.3137  1.6476 -2.4536
  165MOL0     H22211  10.754   6.614   9.247  0.5807 -0.9162 -0.0272
  165MOL0     H22212  10.884   6.834   9.427  0.1452  0.2037 -0.6105
  165MOL0     H22213  10.943   6.799   9.265 -1.7827 -1.1874 -3.1509
  165MOL0     H22214  10.737   6.859   9.187 -1.7272 -3.0496  1.3276
  165MOL0     H22215  10.666   6.869   9.348 -0.2868 -2.2186 -0.8603
  165MOL0     H22216  10.830   7.058   9.411  1.9679 -1.9823  0.3863
  165MOL0     H22217  10.884   7.060   9.246  0.0147 -0.0497  1.5989
  165MOL0     H22218  10.632   7.131   9.191  0.1779 -0.1804 -0.1730
  165MOL0     H22219  10.589   7.093   9.354  0.8095  0.0041  0.5608
  165MOL0     H22220  10.600   7.331   9.333  0.5054 -0.1600 -2.7203
  165MOL0     H22221  10.714   7.265   9.443 -1.3394  1.2466 -0.2833
  165MOL0     H22222  10.827   7.441   9.303  1.2617  1.3271 -1.7854
  165MOL0     H22223  10.904   7.279   9.272  0.7403  1.3328  0.3099
  165MOL0     H22224  10.846   7.455   9.091  0.4234  1.3128  5.2664
  165MOL0     H22225  10.687   7.412   9.102  0.4821  0.4582  1.6473
  165MOL0     H22226  11.025   7.207   9.050 -0.0779 -1.0658 -0.0277
  165MOL0     H22227  11.000   6.987   8.754 -2.8028  0.1426 -0.5883
  165MOL0     H22228  11.104   7.011   8.887  1.9325 -3.0596 -2.1812
  165MOL0     H22229  10.850   6.831   8.866  0.1498 -1.1587  0.9392
  165MOL0     H22230  10.925   6.862   9.021 -3.5676 -0.1864 -0.0359
  165MOL0     H22231  11.153   6.762   8.911 -0.3691 -3.4340  1.6278
  165MOL0     H22232  11.068   6.753   8.759 -1.3988 -3.7717 -0.3909
  165MOL0     H22233  10.960   6.609   9.007  0.8672  0.9689  1.1560
  165MOL0     H22234  11.085   6.546   8.890  1.0029  1.1170  1.4001
  165MOL0     H22235  10.877   6.377   9.012 -0.1370  0.0449  0.2546
  165MOL0     H22236  10.686   6.120   9.088 -2.6499  0.9136 -1.3159
  165MOL0     H22237  10.777   6.265   9.149 -0.7209  2.9815  0.5213
  165MOL0     H22238  10.602   6.267   9.122  0.3453  2.0312 -1.2683
  165MOL0     H22239  10.199   6.119   9.022  0.4710 -0.6178 -0.3218
  165MOL0     H22240   9.967   6.041   8.986 -1.3938  2.1131 -0.0860
  165MOL0     H22241   9.767   6.132   8.931 -2.0382 -0.1322  0.6462
  165MOL0     H22242   9.684   6.155   8.784  1.9622 -0.9895 -1.9085
  165MOL0     H22243   9.544   6.036   8.908  1.1099  0.7027  1.0582
  165MOL0     H22244   9.597   5.909   8.808  1.1489 -0.8161  0.4944
  165MOL0     H22245   9.710   5.959   9.091  0.8986  1.1216 -0.7342
  165MOL0     H22246   9.765   5.842   8.969  0.5350  1.8949 -1.2553
  165MOL0     H22247   9.542   5.747   8.972  1.6215 -0.2581 -0.0186
  165MOL0     H22248   9.617   5.708   9.122 -0.7041  0.1304 -0.1793
  165MOL0     H22249   9.470   5.961   9.124  0.3960 -0.0292 -1.7008
  165MOL0     H22250   9.453   5.813   9.235  1.8635 -2.0368 -0.4585
  165MOL0     H22251   9.236   5.877   9.123 -0.1341  3.4848 -2.2134
  165MOL0     H22252   9.321   5.884   8.978  1.0635  2.1829  1.2254
  165MOL0     H22253   9.360   5.617   9.020  0.5184  0.1071  1.4193
  165MOL0     H22254   9.213   5.687   8.961  2.3675  0.1984 -1.6780
  165MOL0     H22255   9.127   5.692   9.195  0.5445  1.5876  0.6739
  165MOL0     H22256   9.283   5.631   9.252 -1.5160  0.3628  1.3659
  165MOL0     H22257   9.993   6.122   8.571 -2.0057  0.0616  1.9318
  165MOL0     H22258  10.230   6.217   8.606 -0.4251  1.7421  0.6774
  165MOL0     H22259  10.521   6.375   8.684 -0.5080 -0.8782  2.3105
  165MOL0     H22260  10.707   6.510   8.633 -3.4001 -1.5840 -0.4138
  165MOL0     H22261  10.792   6.365   9.358 -0.5515  1.7244 -2.2391
  165MOL0     H22262  10.645   6.167   9.404  0.6216  0.0615  0.2484
  165MOL0     H22263  10.435   5.829   9.702  0.1449  1.2021 -0.2550
  165MOL0     H22264  10.222   5.682   9.750 -1.7646  0.7813  0.9238
  165MOL0     H22265   9.882   5.851   9.897 -2.9031 -1.4220  0.6449
  165MOL0     H22266   9.847   5.872   9.715  1.1160 -1.6032 -2.4074
  165MOL0     H22267   9.774   5.630   9.711 -2.8069 -1.2034  0.9218
  165MOL0     H22268   9.660   5.736   9.804  0.6361  2.3069 -0.9418
  165MOL0     H22269   9.775   5.658   9.998  0.3139  1.4597 -1.4496
  165MOL0     H22270   9.891   5.562   9.905  0.5945  2.2479  0.5491
  165MOL0     H22271   9.725   5.386   9.957  0.1272 -0.4182 -1.0129
  165MOL0     H22272   9.677   5.420   9.801  2.3550 -0.6298  0.2865
  165MOL0     H22273   9.353   5.554  10.032  0.7241  0.2683 -1.7735
  165MOL0     H22274   9.982   6.006   9.673 -1.3427 -2.4162  0.5614
  165MOL0     H22275  10.166   6.139   9.574  2.0200  0.1618 -1.7367
  166MOL0     O22276   2.689   6.394   4.644 -0.2816 -0.3464 -0.8343
  166MOL0     C22277   2.718   6.461   4.550  0.4454 -0.5377  0.0185
  166MOL0     O22278   2.796   6.576   4.552  0.5578  0.3211  1.4192
  166MOL0     C22279   2.871   6.608   4.665  0.4726  0.2942  0.4595
  166MOL0     C22280   2.825   6.708   4.748 -0.1223  0.4457 -0.4284
  166MOL0     C22281   2.887   6.729   4.873  0.2160 -0.6150 -0.7038
  166MOL0     C22282   2.999   6.657   4.905  0.1646 -0.9309 -0.0391
  166MOL0     O22283   3.052   6.681   5.032  0.4298  0.2606  0.4418
  166MOL0     C22284   3.082   6.567   5.109 -0.1803 -0.5307 -0.7011
  166MOL0     C22285   2.951   6.499   5.156  0.3777 -0.6301  0.6472
  166MOL0     C22286   2.973   6.354   5.192  0.0348 -0.2175 -0.1560
  166MOL0     C22287   2.840   6.287   5.240 -1.2299 -0.0398 -0.4713
  166MOL0     C22288   2.884   6.150   5.304  1.1549 -0.3655 -0.2617
  166MOL0     C22289   2.762   6.058   5.338  1.0990 -0.4587  0.8814
  166MOL0     C22290   2.689   6.104   5.474  0.0170 -0.7129 -0.2288
  166MOL0     C22291   2.553   6.037   5.487 -0.3122 -0.2466  0.2494
  166MOL0     N22292   2.453   6.118   5.422  0.2632 -0.3109 -0.2783
  166MOL0     C22293   2.415   6.104   5.295 -0.9628 -0.1125  0.3623
  166MOL0     C22294   2.321   6.195   5.276  0.6205 -0.2470  0.4333
  166MOL0     C22295   2.254   6.209   5.146 -0.2832  0.3819  0.4776
  166MOL0     C22296   2.305   6.351   5.097  0.3209  0.7236 -0.3614
  166MOL0     C22297   2.284   6.362   4.940 -0.1571  0.4510  0.7400
  166MOL0     C22298   2.135   6.334   4.914 -0.8064  0.3807  0.6697
  166MOL0     O22299   2.092   6.374   4.789  0.5984  0.0490  0.2665
  166MOL0     C22300   1.975   6.446   4.780  0.2987  0.5333 -0.2221
  166MOL0     C22301   1.866   6.430   4.868  0.6906 -0.9277  0.2306
  166MOL0     C22302   1.743   6.493   4.862 -0.2836 -0.2080  0.3024
  166MOL0     C22303   1.625   6.454   4.939  0.4586 -0.8613  0.1262
  166MOL0     C22304   1.736   6.593   4.762  0.5522  0.2747 -0.0287
  166MOL0     C22305   1.615   6.682   4.732 -0.0115  0.5296 -0.4812
  166MOL0     O22306   1.652   6.794   4.662 -0.0295  0.2015  0.2719
  166MOL0     C22307   1.550   6.886   4.648  0.0974  1.1500  0.5446
  166MOL0     C22308   1.585   7.008   4.702 -1.0700  0.1340  0.5400
  166MOL0     C22309   1.499   7.117   4.698 -0.6185 -0.7045  1.0278
  166MOL0     C22310   1.392   7.120   4.616  0.0392  0.5172 -1.1471
  166MOL0     O22311   1.322   7.239   4.607 -0.4561 -0.6040 -0.3295
  166MOL0     C22312   1.307   7.291   4.472  0.1309 -0.4980  0.5002
  166MOL0     C22313   1.352   7.434   4.489 -0.5807  0.3882 -0.5411
  166MOL0     C22314   1.267   7.504   4.593  0.6645 -0.5845  0.3020
  166MOL0     C22315   1.296   7.656   4.595  0.2158 -0.9796 -0.0693
  166MOL0     C22316   1.209   7.737   4.689  0.0831 -0.1297 -0.8069
  166MOL0     C22317   1.203   7.875   4.635  0.3652 -0.4621  0.1654
  166MOL0     C22318   1.112   7.966   4.706 -0.0573 -0.1312  0.4457
  166MOL0     C22319   1.156   8.001   4.841 -0.7189 -0.6331 -0.2961
  166MOL0    Cl22320   1.059   8.131   4.919  0.2946 -0.2033 -0.4622
  166MOL0     C22321   1.359   7.000   4.554 -0.2266 -0.8800  0.0137
  166MOL0     C22322   1.431   6.880   4.577 -0.1350 -0.1229  0.0457
  166MOL0     O22323   1.496   6.646   4.765 -0.5867 -0.1700  0.5618
  166MOL0     C22324   1.843   6.607   4.673 -0.9543  0.2621 -0.1577
  166MOL0     C22325   1.957   6.532   4.679 -0.0853 -0.6404  0.0626
  166MOL0     N22326   2.293   6.259   5.396  0.0072 -0.2913  0.7264
  166MOL0     N22327   2.380   6.217   5.479  0.8626  0.2189  0.1999
  166MOL0     C22328   3.058   6.568   4.813 -0.1988 -0.5589  0.3389
  166MOL0     C22329   2.990   6.536   4.695 -0.7773  0.2604 -0.3236
  166MOL0     C22330   2.645   6.431   4.418  0.0641 -0.5741 -0.5335
  166MOL0     C22331   2.541   6.334   4.430  0.0064  0.3666  0.1355
  166MOL0     C22332   2.466   6.312   4.315 -1.0105  0.3658  0.4668
  166MOL0     C22333   2.485   6.402   4.209  0.0120  0.5901  0.3109
  166MOL0     O22334   2.395   6.391   4.103 -0.8415 -0.0316  0.7067
  166MOL0     C22335   2.423   6.444   3.976  0.2400  0.1501 -0.2271
  166MOL0     C22336   2.323   6.399   3.877 -0.1674 -0.1604  0.2022
  166MOL0     C22337   2.348   6.461   3.742  0.4497 -0.0474  0.4488
  166MOL0     C22338   2.486   6.427   3.672 -0.3318  0.9974 -0.1051
  166MOL0     C22339   2.470   6.298   3.602 -0.1659  0.0426  0.3296
  166MOL0     C22340   2.443   6.183   3.552  0.9704 -0.1447  0.4081
  166MOL0     C22341   2.589   6.489   4.195 -0.9641 -0.5422 -0.2256
  166MOL0     C22342   2.678   6.499   4.300 -0.2922 -0.1914 -0.1165
  166MOL0     H22343   2.728   6.755   4.738 -1.7166 -1.2068  4.4505
  166MOL0     H22344   2.847   6.794   4.950 -1.2975 -3.1953  0.8479
  166MOL0     H22345   3.140   6.501   5.044 -0.6306 -1.0221 -0.6190
  166MOL0     H22346   3.146   6.582   5.197  0.9050  1.8629 -1.8392
  166MOL0     H22347   2.909   6.561   5.236 -1.9354  0.1045 -0.9963
  166MOL0     H22348   2.871   6.499   5.081 -1.2500  0.5276  2.2857
  166MOL0     H22349   3.008   6.315   5.096 -1.0897  1.1106 -1.1570
  166MOL0     H22350   3.056   6.341   5.262  2.0913 -1.2081 -2.5972
  166MOL0     H22351   2.786   6.347   5.314  1.3376  0.7030  0.9215
  166MOL0     H22352   2.781   6.262   5.151 -2.9102  1.0438  0.2731
  166MOL0     H22353   2.945   6.103   5.226  0.9353  1.6358 -1.7181
  166MOL0     H22354   2.937   6.167   5.398 -0.3610  2.1834  0.2210
  166MOL0     H22355   2.691   6.063   5.255 -0.1372  2.4335  1.9832
  166MOL0     H22356   2.790   5.953   5.345 -0.3955 -1.0707 -1.2719
  166MOL0     H22357   2.756   6.078   5.557 -0.1331 -1.2734 -0.2774
  166MOL0     H22358   2.678   6.212   5.485 -0.9358 -0.8462  0.2667
  166MOL0     H22359   2.525   6.033   5.592  1.3505  0.6500  0.7696
  166MOL0     H22360   2.543   5.941   5.436 -4.0233  0.9929 -1.7291
  166MOL0     H22361   2.462   6.035   5.225 -0.2468  0.0053  0.7126
  166MOL0     H22362   2.288   6.129   5.078  1.4611  1.7794 -0.3761
  166MOL0     H22363   2.145   6.211   5.154 -0.3497 -1.9527  1.1024
  166MOL0     H22364   2.412   6.364   5.116 -0.2024  2.3186  1.8006
  166MOL0     H22365   2.254   6.433   5.148 -1.0958  0.4191 -1.2392
  166MOL0     H22366   2.360   6.302   4.889  1.0593  3.3397 -1.1157
  166MOL0     H22367   2.302   6.467   4.919 -1.2193  1.8713  5.6532
  166MOL0     H22368   2.082   6.391   4.991 -1.2524 -1.0886  1.4989
  166MOL0     H22369   2.115   6.229   4.937 -0.4275  0.8609  3.6009
  166MOL0     H22370   1.870   6.347   4.938 -0.6366 -2.1347 -1.0435
  166MOL0     H22371   1.539   6.434   4.876 -0.3714  3.3877 -0.3631
  166MOL0     H22372   1.639   6.361   4.996  1.2903 -1.0138 -0.3160
  166MOL0     H22373   1.608   6.532   5.014  1.9870 -3.7751  3.8231
  166MOL0     H22374   1.689   7.022   4.729 -0.6695 -2.5176  0.5984
  166MOL0     H22375   1.524   7.214   4.738 -1.3378 -0.5206  1.0443
  166MOL0     H22376   1.380   7.246   4.403 -0.5650  0.9917 -1.2994
  166MOL0     H22377   1.203   7.287   4.436 -0.7179  2.0025  2.4197
  166MOL0     H22378   1.459   7.434   4.509 -0.8253 -1.8079  1.1011
  166MOL0     H22379   1.338   7.484   4.392 -1.7356 -0.3074 -0.7612
  166MOL0     H22380   1.287   7.459   4.691  0.0079 -1.1463  0.1855
  166MOL0     H22381   1.163   7.477   4.571  0.4595  0.9463 -0.8241
  166MOL0     H22382   1.402   7.673   4.620  0.5711 -2.2310 -0.6441
  166MOL0     H22383   1.288   7.692   4.492  0.7608 -2.1757 -0.5408
  166MOL0     H22384   1.261   7.729   4.785  0.2245 -0.2208 -0.8909
  166MOL0     H22385   1.114   7.684   4.697 -1.0733  2.0044  0.9058
  166MOL0     H22386   1.303   7.920   4.633  1.0785 -1.8802  1.6828
  166MOL0     H22387   1.164   7.860   4.534  1.8664 -1.4821 -0.2944
  166MOL0     H22388   1.009   7.928   4.699  0.1289 -0.2960 -1.9706
  166MOL0     H22389   1.106   8.064   4.657 -2.5289 -1.3988 -2.0667
  166MOL0     H22390   1.253   8.046   4.817 -1.5363  0.4267 -1.8148
  166MOL0     H22391   1.171   7.920   4.913 -0.2693  2.6435  3.6086
  166MOL0     H22392   1.273   7.001   4.488  0.0426  0.0752 -0.3442
  166MOL0     H22393   1.401   6.788   4.527  0.3513  0.0316 -0.5496
  166MOL0     H22394   1.843   6.685   4.598  0.9359 -1.9489 -2.6091
  166MOL0     H22395   2.035   6.551   4.606 -0.0432  1.3349  0.5578
  166MOL0     H22396   3.149   6.511   4.827  1.3939  1.9413  0.7739
  166MOL0     H22397   3.026   6.473   4.614  0.4958 -1.3540  1.4045
  166MOL0     H22398   2.516   6.277   4.519 -0.3966  3.5050  2.1856
  166MOL0     H22399   2.379   6.248   4.306 -0.9890  0.5842 -1.8293
  166MOL0     H22400   2.421   6.553   3.991  1.8356 -0.0477  1.9531
  166MOL0     H22401   2.527   6.421   3.950  1.2209  2.4489  1.2794
  166MOL0     H22402   2.218   6.418   3.899 -1.2549 -2.4670 -2.4338
  166MOL0     H22403   2.331   6.293   3.851 -2.4417 -0.4776  0.5944
  166MOL0     H22404   2.358   6.570   3.743  1.4478 -0.1238 -0.0397
  166MOL0     H22405   2.272   6.436   3.667  1.5889  0.1618 -0.8148
  166MOL0     H22406   2.570   6.424   3.742 -0.4411  2.4438  0.1169
  166MOL0     H22407   2.520   6.501   3.599  2.3163 -0.3459 -0.3594
  166MOL0     H22408   2.407   6.093   3.507  2.7508  0.3243 -2.1344
  166MOL0     H22409   2.598   6.554   4.108 -0.9156 -0.8608 -0.4610
  166MOL0     H22410   2.742   6.586   4.286 -3.2549  2.6778  2.4460
  167MOL0     O22411   7.150  10.407   3.142  0.6021  0.1367  0.0158
  167MOL0     C22412   7.071  10.485   3.088  0.2791  0.2557  0.5739
  167MOL0     O22413   7.101  10.606   3.034 -0.0696  0.4657  1.1012
  167MOL0     C22414   7.231  10.645   3.027 -0.2084  0.1792 -0.2066
  167MOL0     C22415   7.268  10.778   3.042 -0.2003  0.9707  0.0019
  167MOL0     C22416   7.406  10.817   3.026  0.1863  0.9832 -0.5161
  167MOL0     C22417   7.503  10.737   2.972 -0.0865  0.1357  0.0832
  167MOL0     O22418   7.627  10.791   2.940  0.2573  0.6244  0.0991
  167MOL0     C22419   7.723  10.704   2.878 -0.4383 -0.6157 -0.6828
  167MOL0     C22420   7.853  10.781   2.855  0.2904  0.2994 -0.0833
  167MOL0     C22421   7.960  10.695   2.793  0.5387 -0.4445 -0.2849
  167MOL0     C22422   8.089  10.779   2.763 -0.1596  0.4352 -0.1462
  167MOL0     C22423   8.191  10.697   2.680 -0.9165  1.0367  0.4109
  167MOL0     C22424   8.310  10.791   2.646 -0.2186  0.9812  0.0699
  167MOL0     C22425   8.408  10.712   2.542 -0.2911  0.0117 -0.8370
  167MOL0     C22426   8.526  10.784   2.478 -0.5442 -0.7726 -1.1214
  167MOL0     N22427   8.612  10.672   2.434  0.6332 -0.1132  0.5265
  167MOL0     C22428   8.738  10.652   2.485  0.2937  0.1553 -0.8318
  167MOL0     C22429   8.771  10.532   2.439 -0.3474  0.2695 -0.5767
  167MOL0     C22430   8.891  10.447   2.468 -0.5450  0.6459 -1.2356
  167MOL0     C22431   8.952  10.466   2.613 -1.1472 -0.2457  0.0200
  167MOL0     C22432   8.892  10.399   2.735  0.1675  0.3791  0.6350
  167MOL0     C22433   8.963  10.445   2.865 -1.0187 -0.3285 -0.3097
  167MOL0     O22434   8.932  10.589   2.899 -0.0664 -0.4362  0.1930
  167MOL0     C22435   8.831  10.595   2.988  0.6240  0.2759  0.9931
  167MOL0     C22436   8.825  10.521   3.109  0.2912  0.4751  0.3275
  167MOL0     C22437   8.694  10.516   3.184 -1.2710  0.3132 -0.1462
  167MOL0     C22438   8.697  10.426   3.301 -1.4084  0.5194 -0.1376
  167MOL0     C22439   8.583  10.586   3.130 -0.4293 -0.5769 -0.2873
  167MOL0     C22440   8.450  10.588   3.185  1.4009  0.2965 -0.3808
  167MOL0     O22441   8.371  10.700   3.155  0.7382 -0.1921 -1.0763
  167MOL0     C22442   8.228  10.709   3.190  0.1145  0.3578  1.7982
  167MOL0     C22443   8.150  10.593   3.208 -0.5492 -0.9249  0.2398
  167MOL0     C22444   8.017  10.601   3.246  0.7314 -0.3031 -0.3006
  167MOL0     C22445   7.958  10.726   3.250  0.1350 -0.3585  1.1753
  167MOL0     O22446   7.826  10.756   3.270 -0.9712 -0.5199 -0.4435
  167MOL0     C22447   7.747  10.654   3.300 -0.4134  0.7055  0.1121
  167MOL0     C22448   7.609  10.710   3.335 -0.5543 -0.8317 -0.3876
  167MOL0     C22449   7.497  10.608   3.362 -0.2446  0.4106 -1.2594
  167MOL0     C22450   7.465  10.597   3.515  0.1671  0.7086 -0.0596
  167MOL0     C22451   7.332  10.519   3.526 -0.1044 -0.0639 -1.1410
  167MOL0     C22452   7.285  10.518   3.670 -0.0083  0.5142  0.6117
  167MOL0     C22453   7.172  10.416   3.708  0.0840  0.4000  0.3190
  167MOL0     C22454   7.045  10.474   3.663 -0.0253  0.8288  0.6982
  167MOL0    Cl22455   6.978  10.590   3.792 -0.0627  0.5653  0.1017
  167MOL0     C22456   8.033  10.849   3.227  1.7786  1.4436  0.4447
  167MOL0     C22457   8.170  10.831   3.206  0.5796 -0.5008 -0.6885
  167MOL0     O22458   8.420  10.502   3.259  0.1871 -0.0791  0.2248
  167MOL0     C22459   8.602  10.664   3.012  0.3538 -0.4480 -0.5169
  167MOL0     C22460   8.719  10.669   2.950  0.7618 -0.1515 -0.8815
  167MOL0     N22461   8.669  10.485   2.353 -0.6096  0.0031 -0.3702
  167MOL0     N22462   8.585  10.576   2.341  0.1104 -0.0953  0.2145
  167MOL0     C22463   7.472  10.600   2.974  0.3376  0.5396  0.8262
  167MOL0     C22464   7.333  10.559   2.997 -0.8699 -0.4046 -0.2376
  167MOL0     C22465   6.924  10.451   3.107  0.2861  1.1059  1.2911
  167MOL0     C22466   6.833  10.518   3.025  1.4321 -0.0736 -0.2283
  167MOL0     C22467   6.699  10.485   3.016 -0.4096 -0.0295 -0.3540
  167MOL0     C22468   6.649  10.381   3.098  0.7862 -0.2347  0.2734
  167MOL0     O22469   6.510  10.348   3.088 -0.5773 -0.1042  0.0752
  167MOL0     C22470   6.421  10.403   3.187 -0.5876 -0.5417  0.9572
  167MOL0     C22471   6.407  10.560   3.168 -0.6819  0.4058 -0.3776
  167MOL0     C22472   6.477  10.622   3.288  0.7748  0.5340 -0.6211
  167MOL0     C22473   6.384  10.630   3.408 -0.3019  0.2079 -0.7018
  167MOL0     C22474   6.256  10.694   3.381  0.7318 -0.4551 -0.0683
  167MOL0     C22475   6.141  10.734   3.358 -0.6004  0.4687  0.0835
  167MOL0     C22476   6.738  10.321   3.191 -0.1383  0.0391  0.9187
  167MOL0     C22477   6.879  10.341   3.191 -0.7055 -0.9665 -0.6151
  167MOL0     H22478   7.197  10.853   3.074 -2.2461 -1.2217  0.9042
  167MOL0     H22479   7.435  10.920   3.043 -0.6530  0.9869  1.1549
  167MOL0     H22480   7.752  10.615   2.934  0.2119  0.3176  0.5206
  167MOL0     H22481   7.674  10.655   2.793  0.8262 -2.0026 -0.6601
  167MOL0     H22482   7.842  10.862   2.782  1.5027  0.1323 -0.4697
  167MOL0     H22483   7.889  10.818   2.952 -2.8311 -0.6482  1.5642
  167MOL0     H22484   7.987  10.614   2.862  3.7024  1.2329  0.6651
  167MOL0     H22485   7.910  10.658   2.704 -0.4439  1.9011 -0.7655
  167MOL0     H22486   8.057  10.872   2.716  2.5733  0.7251 -1.6391
  167MOL0     H22487   8.140  10.810   2.855  1.8897 -1.9072 -0.3824
  167MOL0     H22488   8.218  10.605   2.732 -0.7395 -0.3399 -1.9933
  167MOL0     H22489   8.137  10.668   2.589 -2.4968  2.4866  0.8348
  167MOL0     H22490   8.268  10.870   2.583 -3.3518 -1.3601 -1.0392
  167MOL0     H22491   8.355  10.839   2.733 -0.3578  2.4006 -0.6066
  167MOL0     H22492   8.443  10.626   2.600 -3.3737  0.1504  1.4715
  167MOL0     H22493   8.348  10.664   2.464 -3.2953 -0.5225  1.6022
  167MOL0     H22494   8.572  10.848   2.554 -1.6243 -2.9348  1.5289
  167MOL0     H22495   8.485  10.845   2.397  0.2015  2.7212  0.9234
  167MOL0     H22496   8.790  10.708   2.563  3.0853  1.5496 -3.5090
  167MOL0     H22497   8.863  10.343   2.447 -0.0998  0.4216 -0.7410
  167MOL0     H22498   8.967  10.478   2.396  1.5780  0.5396  0.8374
  167MOL0     H22499   8.971  10.574   2.623  0.7416 -0.4928 -0.4770
  167MOL0     H22500   9.051  10.421   2.598 -1.4109 -1.1218  0.8075
  167MOL0     H22501   8.912  10.293   2.716  0.7110  1.0469 -3.7447
  167MOL0     H22502   8.783  10.409   2.740 -0.0899 -1.7314  0.2667
  167MOL0     H22503   9.071  10.430   2.853 -1.3266 -2.5127 -0.7979
  167MOL0     H22504   8.929  10.373   2.940  1.9870  0.3414  1.9064
  167MOL0     H22505   8.909  10.459   3.137 -1.0202 -1.2997  0.5625
  167MOL0     H22506   8.699  10.478   3.398 -0.2222  0.1464  0.0532
  167MOL0     H22507   8.611  10.360   3.293 -0.5333 -0.5188 -1.2688
  167MOL0     H22508   8.774  10.348   3.292 -1.7369  0.4398 -3.5583
  167MOL0     H22509   8.193  10.499   3.174  2.5056  0.4124  0.1380
  167MOL0     H22510   7.956  10.514   3.268  1.2734 -0.6268 -0.0709
  167MOL0     H22511   7.731  10.590   3.213 -2.4277  0.2173  0.7873
  167MOL0     H22512   7.785  10.600   3.387  1.9112  1.8866 -0.0903
  167MOL0     H22513   7.617  10.771   3.425  1.9606 -0.8432 -0.5349
  167MOL0     H22514   7.569  10.774   3.255 -0.5294 -1.3520 -0.8212
  167MOL0     H22515   7.542  10.511   3.338  1.0122  0.0951  1.7982
  167MOL0     H22516   7.403  10.625   3.309 -2.8054 -3.1997  1.5678
  167MOL0     H22517   7.548  10.540   3.557 -1.4218 -1.9559 -0.3011
  167MOL0     H22518   7.451  10.697   3.557  0.5258  2.2192 -3.2170
  167MOL0     H22519   7.355  10.420   3.488 -1.7583 -0.6232 -0.7942
  167MOL0     H22520   7.256  10.562   3.460  0.0455  1.6497 -0.2726
  167MOL0     H22521   7.365  10.476   3.732  1.3538  1.9165 -0.1329
  167MOL0     H22522   7.267  10.624   3.691 -0.2268  0.4777  0.6190
  167MOL0     H22523   7.167  10.396   3.816  1.2882  0.3681  0.3754
  167MOL0     H22524   7.197  10.324   3.656  2.0253  1.5047 -0.7969
  167MOL0     H22525   6.968  10.399   3.644 -1.7455  2.4093  1.1226
  167MOL0     H22526   7.069  10.530   3.572  2.0813  0.8681  1.2371
  167MOL0     H22527   7.969  10.936   3.234  0.0042  0.0930  2.8254
  167MOL0     H22528   8.228  10.922   3.195  1.0529 -0.1399  3.3497
  167MOL0     H22529   8.528  10.731   2.969 -0.8723 -1.4819 -0.0648
  167MOL0     H22530   8.722  10.728   2.859  2.1208  2.4128  0.7186
  167MOL0     H22531   7.544  10.522   2.953  1.4749  1.9215 -0.5672
  167MOL0     H22532   7.320  10.451   2.985 -0.0918 -0.2967 -2.7809
  167MOL0     H22533   6.862  10.608   2.971 -0.3291  0.1014 -0.9336
  167MOL0     H22534   6.659  10.546   2.936 -0.5620  1.4154  0.7614
  167MOL0     H22535   6.324  10.355   3.178  0.1525 -2.3258  1.8981
  167MOL0     H22536   6.455  10.370   3.286  2.3546 -2.0778 -0.4221
  167MOL0     H22537   6.307  10.598   3.146  0.2608  1.6573 -2.8770
  167MOL0     H22538   6.464  10.586   3.078 -1.3049  2.5911 -0.2148
  167MOL0     H22539   6.522  10.718   3.261 -0.6765  0.8201 -2.2190
  167MOL0     H22540   6.564  10.560   3.312 -0.7689 -0.4292  3.1451
  167MOL0     H22541   6.427  10.685   3.493 -0.0953 -3.0404  1.4630
  167MOL0     H22542   6.363  10.533   3.454  0.0807  0.3395 -0.2430
  167MOL0     H22543   6.037  10.759   3.352 -1.0837 -1.5631 -0.8478
  167MOL0     H22544   6.688  10.251   3.257 -1.6074  1.3365  1.2552
  167MOL0     H22545   6.943  10.282   3.257  1.6462  2.5086  0.5190
  168MOL0     O22546   8.065   3.345  11.079 -0.2923 -0.1198 -0.6449
  168MOL0     C22547   7.986   3.324  11.173 -0.9581  0.0912 -0.1326
  168MOL0     O22548   7.875   3.249  11.161 -0.6965 -0.3664 -0.6324
  168MOL0     C22549   7.843   3.204  11.038  0.3254 -1.5197  0.0091
  168MOL0     C22550   7.777   3.283  10.944 -0.3272  0.3790  0.9888
  168MOL0     C22551   7.745   3.214  10.825  0.5495  0.0703  0.3368
  168MOL0     C22552   7.776   3.078  10.792  0.2356 -0.4178  0.9163
  168MOL0     O22553   7.754   3.020  10.674  0.3573 -1.0399 -0.2219
  168MOL0     C22554   7.866   2.965  10.608 -0.5071 -0.4141 -0.1896
  168MOL0     C22555   7.984   3.064  10.587 -0.2611 -0.6190 -0.0952
  168MOL0     C22556   8.103   3.047  10.697 -0.2217  0.2886 -0.0499
  168MOL0     C22557   8.214   3.145  10.672 -0.8233  0.0980  0.1082
  168MOL0     C22558   8.322   3.140  10.780  0.8231  0.0785  0.3119
  168MOL0     C22559   8.428   3.253  10.785 -0.2183 -0.1186 -0.1710
  168MOL0     C22560   8.486   3.275  10.652  0.0571 -0.7281  1.1920
  168MOL0     C22561   8.583   3.390  10.661  0.1886 -0.1956  0.0556
  168MOL0     N22562   8.521   3.523  10.632  0.1394  0.0524 -0.9929
  168MOL0     C22563   8.480   3.568  10.513  0.4705  0.1017  0.6001
  168MOL0     C22564   8.401   3.678  10.541 -0.6041  1.0144 -0.2067
  168MOL0     C22565   8.333   3.785  10.449 -0.3098 -0.1512 -0.3946
  168MOL0     C22566   8.438   3.886  10.385  0.6211 -0.5823  0.1285
  168MOL0     C22567   8.413   3.914  10.241 -0.6508  0.8327 -0.0753
  168MOL0     C22568   8.292   4.010  10.211  0.1218  0.7470 -0.5383
  168MOL0     O22569   8.296   4.056  10.077  0.2798  0.7234  0.3888
  168MOL0     C22570   8.339   4.185  10.039 -1.0873  0.0787  0.5003
  168MOL0     C22571   8.455   4.243  10.095 -0.5763  0.5483  0.4337
  168MOL0     C22572   8.528   4.345  10.029  0.6108  0.3742 -0.2463
  168MOL0     C22573   8.659   4.384  10.085 -0.5858  0.1440 -0.0753
  168MOL0     C22574   8.477   4.386   9.896  0.7334 -1.5634  0.1034
  168MOL0     C22575   8.546   4.481   9.798  0.0134 -0.4704  0.1652
  168MOL0     O22576   8.466   4.545   9.698 -0.1777 -0.2051 -1.0500
  168MOL0     C22577   8.525   4.646   9.624 -0.5807 -0.1347  0.2026
  168MOL0     C22578   8.511   4.783   9.655  0.6761  0.9825 -0.2418
  168MOL0     C22579   8.576   4.886   9.589  0.1333 -0.6811  0.4229
  168MOL0     C22580   8.665   4.857   9.483  0.1776  0.0864 -0.1507
  168MOL0     O22581   8.745   4.955   9.427 -0.0173  0.1997  0.6555
  168MOL0     C22582   8.811   4.926   9.308 -1.0894 -0.0165 -0.1457
  168MOL0     C22583   8.894   5.050   9.270  0.3450  0.4108 -0.3641
  168MOL0     C22584   9.011   5.027   9.161  1.5730 -0.2430  0.3926
  168MOL0     C22585   9.144   4.959   9.204 -0.7155 -0.0322  0.2122
  168MOL0     C22586   9.240   4.958   9.082  0.4020 -0.4809  0.5624
  168MOL0     C22587   9.319   5.087   9.063  0.4684 -0.2115 -0.4474
  168MOL0     C22588   9.402   5.076   8.936  0.9039 -0.8322  0.7423
  168MOL0     C22589   9.520   4.986   8.940 -0.8043  0.1596 -0.5668
  168MOL0    Cl22590   9.633   5.001   9.088  0.0179 -0.0412 -0.1874
  168MOL0     C22591   8.668   4.718   9.443  0.8028 -0.3888  0.1355
  168MOL0     C22592   8.601   4.621   9.513  0.2863  0.5923 -0.2078
  168MOL0     O22593   8.666   4.499   9.814 -0.1803 -0.2229  0.3889
  168MOL0     C22594   8.351   4.336   9.852  0.4041 -0.2792  0.3569
  168MOL0     C22595   8.294   4.237   9.919  0.4362  0.3503 -0.0033
  168MOL0     N22596   8.404   3.698  10.680 -0.0261  0.2979 -0.9919
  168MOL0     N22597   8.475   3.605  10.733  0.6993  0.4354  0.7105
  168MOL0     C22598   7.831   3.009  10.897  0.8494 -0.2276  0.3680
  168MOL0     C22599   7.864   3.075  11.025  1.0963  1.0437  0.3901
  168MOL0     C22600   8.019   3.359  11.315 -0.9337  0.0085  0.2711
  168MOL0     C22601   8.141   3.383  11.359  0.2696  0.0054 -0.3451
  168MOL0     C22602   8.163   3.370  11.496 -1.0012  0.5906  0.3841
  168MOL0     C22603   8.063   3.375  11.593  0.1838 -0.0320 -0.0630
  168MOL0     O22604   8.063   3.366  11.728  0.1733 -0.0087 -0.2202
  168MOL0     C22605   8.193   3.390  11.787  0.1437 -0.5524 -0.1109
  168MOL0     C22606   8.195   3.406  11.942  0.1044 -0.0616 -0.4745
  168MOL0     C22607   8.154   3.547  11.977 -0.8283 -0.0471  0.1656
  168MOL0     C22608   8.147   3.590  12.126 -0.3023 -0.1946  0.6302
  168MOL0     C22609   8.253   3.535  12.209  0.5250 -0.3426  0.3974
  168MOL0     C22610   8.339   3.496  12.278 -0.3271  1.3861 -0.4674
  168MOL0     C22611   7.937   3.375  11.532 -0.0089  0.5364 -0.8008
  168MOL0     C22612   7.909   3.360  11.393 -0.8299  0.0625 -0.8715
  168MOL0     H22613   7.736   3.381  10.967 -0.0229  0.8898 -0.5567
  168MOL0     H22614   7.698   3.270  10.745  2.7392  1.0119 -0.3899
  168MOL0     H22615   7.908   2.876  10.657  0.4866  0.0508 -0.1744
  168MOL0     H22616   7.828   2.942  10.508 -0.6181  0.9762 -0.4832
  168MOL0     H22617   8.030   3.042  10.490 -0.1519 -0.1725 -0.1487
  168MOL0     H22618   7.952   3.168  10.578  1.5050  0.1144  1.4357
  168MOL0     H22619   8.070   3.070  10.799  3.6365 -0.8891  1.6528
  168MOL0     H22620   8.133   2.942  10.701 -1.8120 -0.1651  0.3369
  168MOL0     H22621   8.253   3.120  10.573 -4.7176 -1.5608 -1.2219
  168MOL0     H22622   8.174   3.247  10.665  1.5037  1.1272  0.8956
  168MOL0     H22623   8.273   3.145  10.878 -0.0447 -0.6719 -0.0711
  168MOL0     H22624   8.380   3.049  10.760 -1.6342 -0.9774 -2.8232
  168MOL0     H22625   8.380   3.339  10.832 -0.1733 -1.8824  3.3894
  168MOL0     H22626   8.506   3.212  10.850  0.5439 -1.5856 -1.9410
  168MOL0     H22627   8.544   3.186  10.625  2.9780  1.9921 -2.7036
  168MOL0     H22628   8.408   3.284  10.576  2.4742  0.5329 -1.3392
  168MOL0     H22629   8.661   3.381  10.585  0.1971  4.5828 -0.7963
  168MOL0     H22630   8.637   3.384  10.756  0.1904  0.6569  0.1152
  168MOL0     H22631   8.499   3.524  10.415 -3.1101  1.7583 -1.0024
  168MOL0     H22632   8.288   3.728  10.367  0.2679 -0.9445 -0.1630
  168MOL0     H22633   8.257   3.841  10.505  1.3265  1.2693  0.4817
  168MOL0     H22634   8.536   3.839  10.397  1.2505  0.6171 -0.0855
  168MOL0     H22635   8.440   3.982  10.439  1.7589  0.3450 -1.4845
  168MOL0     H22636   8.398   3.821  10.185  0.8067  1.0897 -0.9571
  168MOL0     H22637   8.505   3.959  10.201 -0.8381 -1.6476 -3.9090
  168MOL0     H22638   8.312   4.099  10.272  1.7750 -0.3853  0.6468
  168MOL0     H22639   8.196   3.966  10.241  1.4925 -0.0320  3.2225
  168MOL0     H22640   8.499   4.185  10.176 -0.1756 -0.8062 -0.7320
  168MOL0     H22641   8.689   4.329  10.174  1.5394  1.9490  0.4209
  168MOL0     H22642   8.742   4.370  10.016 -0.7966  0.7124 -0.4585
  168MOL0     H22643   8.657   4.492  10.106 -1.2182  0.1330 -0.0472
  168MOL0     H22644   8.439   4.815   9.729  0.6674  2.1014 -0.7092
  168MOL0     H22645   8.547   4.989   9.610 -1.8566 -1.0064 -0.4692
  168MOL0     H22646   8.888   4.851   9.330  0.3318  2.2609  3.5032
  168MOL0     H22647   8.757   4.890   9.220  0.9030  0.6105 -1.7007
  168MOL0     H22648   8.830   5.130   9.233 -0.1712 -0.1821 -0.7893
  168MOL0     H22649   8.942   5.089   9.360  1.4212  1.7605 -1.4842
  168MOL0     H22650   9.040   5.129   9.133 -0.8380  0.5512  0.4999
  168MOL0     H22651   8.957   4.982   9.077 -1.8182  0.3837  2.0324
  168MOL0     H22652   9.183   5.004   9.296 -0.4228 -1.3435  0.7536
  168MOL0     H22653   9.133   4.852   9.224  1.2564 -0.7456 -2.0572
  168MOL0     H22654   9.172   4.934   8.999 -0.5666  2.3623  0.4333
  168MOL0     H22655   9.313   4.876   9.090  2.4621  1.3087  0.8315
  168MOL0     H22656   9.244   5.165   9.049  1.8352  1.5613  1.5106
  168MOL0     H22657   9.377   5.110   9.153 -1.1741 -0.5155  0.7502
  168MOL0     H22658   9.440   5.175   8.909 -0.5855 -0.7288 -1.2164
  168MOL0     H22659   9.328   5.055   8.859 -0.8321 -0.4680  2.2421
  168MOL0     H22660   9.581   5.002   8.851 -0.3797  1.8099 -0.0063
  168MOL0     H22661   9.492   4.880   8.938 -1.4618  0.3264 -0.4045
  168MOL0     H22662   8.733   4.689   9.362  3.3062  1.5139  1.3311
  168MOL0     H22663   8.596   4.522   9.470  2.5718  1.7342 -3.4609
  168MOL0     H22664   8.308   4.371   9.758 -2.8422 -1.1456  1.3988
  168MOL0     H22665   8.213   4.181   9.873  0.2408  1.4931 -1.1118
  168MOL0     H22666   7.835   2.901  10.888  1.6036 -0.1265 -0.7003
  168MOL0     H22667   7.900   3.015  11.108  3.0414  1.4321 -0.1114
  168MOL0     H22668   8.229   3.392  11.296 -1.6511  0.3478 -3.1658
  168MOL0     H22669   8.266   3.373  11.529 -0.7594  0.4285 -0.3259
  168MOL0     H22670   8.257   3.307  11.754  1.9336  0.6054  0.2843
  168MOL0     H22671   8.253   3.469  11.741  1.2475 -2.8308 -2.8910
  168MOL0     H22672   8.291   3.391  11.993  0.9928  2.5216 -1.1924
  168MOL0     H22673   8.127   3.334  11.987 -1.0564  1.6808  0.7077
  168MOL0     H22674   8.056   3.562  11.932  0.5658  2.2134 -2.4494
  168MOL0     H22675   8.212   3.623  11.924  0.0486 -1.7394 -1.4084
  168MOL0     H22676   8.052   3.554  12.168 -1.1831 -1.6879 -2.3472
  168MOL0     H22677   8.139   3.698  12.137 -0.2148 -0.4150  3.9470
  168MOL0     H22678   8.425   3.458  12.329 -0.6908  0.5419 -0.4605
  168MOL0     H22679   7.853   3.380  11.601  0.7763  1.1944  0.1289
  168MOL0     H22680   7.808   3.353  11.354 -1.0201 -0.6805 -0.2686
  169MOL0     O22681  11.254   9.633   1.648  0.1738  1.1579 -0.1675
  169MOL0     C22682  11.291   9.593   1.758 -0.0996 -0.0893 -0.8417
  169MOL0     O22683  11.426   9.583   1.803  0.5026  0.0269 -0.5443
  169MOL0     C22684  11.529   9.578   1.715 -0.2758 -0.9379 -0.7739
  169MOL0     C22685  11.649   9.649   1.751 -0.2274 -0.0066  0.3095
  169MOL0     C22686  11.763   9.654   1.674  0.6261 -0.0762  0.6811
  169MOL0     C22687  11.759   9.597   1.542  0.0122 -0.2853  0.2643
  169MOL0     O22688  11.869   9.616   1.456  0.2000 -0.3859  0.0659
  169MOL0     C22689  11.915   9.507   1.383 -0.9564  0.1635  0.1913
  169MOL0     C22690  12.069   9.522   1.349 -0.7526 -0.1271  0.3864
  169MOL0     C22691  12.147   9.398   1.294  0.4071 -0.2250  0.0261
  169MOL0     C22692  12.269   9.431   1.218 -0.0514 -0.7046  0.0379
  169MOL0     C22693  12.379   9.340   1.238 -0.4547  0.9227  0.1750
  169MOL0     C22694  12.516   9.377   1.158  0.4314  1.0539 -0.2097
  169MOL0     C22695  12.593   9.250   1.137  0.3291  0.4704 -0.2362
  169MOL0     C22696  12.632   9.174   1.267  0.1955  0.1150  0.5650
  169MOL0     N22697  12.716   9.253   1.349 -0.1530  0.2430 -0.0681
  169MOL0     C22698  12.848   9.235   1.375  0.2459 -0.2960 -0.4424
  169MOL0     C22699  12.870   9.302   1.496 -1.0884  0.0180  0.2052
  169MOL0     C22700  13.002   9.330   1.571 -0.2626  0.1916 -0.0002
  169MOL0     C22701  13.088   9.453   1.519  0.6420  0.0126 -0.1244
  169MOL0     C22702  13.125   9.437   1.376 -0.8641 -0.1115  0.7605
  169MOL0     C22703  13.245   9.520   1.330 -0.6572 -0.0172  0.2247
  169MOL0     O22704  13.280   9.494   1.193  0.4843  0.0266 -0.5693
  169MOL0     C22705  13.394   9.557   1.145 -0.5784 -0.4508  0.6257
  169MOL0     C22706  13.430   9.539   1.013 -0.6372 -0.0189  0.0031
  169MOL0     C22707  13.544   9.595   0.939  1.1359 -0.2302 -0.6481
  169MOL0     C22708  13.537   9.589   0.789 -0.5779 -0.4019  0.9039
  169MOL0     C22709  13.637   9.653   1.034  0.6278 -0.4325  0.4380
  169MOL0     C22710  13.761   9.720   0.993  0.1171 -0.6353 -0.5246
  169MOL0     O22711  13.869   9.738   1.078  0.2964 -0.0255  0.3956
  169MOL0     C22712  13.976   9.807   1.023  1.1918 -0.0928 -0.8357
  169MOL0     C22713  14.098   9.747   1.010 -0.3377  0.7236  0.8040
  169MOL0     C22714  14.211   9.809   0.952  0.3300 -0.1734 -0.0826
  169MOL0     C22715  14.194   9.946   0.892  0.2865  0.9573 -0.4252
  169MOL0     O22716  14.294   9.997   0.819 -0.1224 -0.0133  0.0872
  169MOL0     C22717  14.419  10.030   0.885  0.2239  0.4643  1.5713
  169MOL0     C22718  14.405  10.120   1.001 -0.7532 -1.0724 -0.0131
  169MOL0     C22719  14.335  10.255   0.954 -0.5367 -0.4274  0.6144
  169MOL0     C22720  14.387  10.378   1.019 -0.4153  0.2243  0.1830
  169MOL0     C22721  14.534  10.419   1.012 -0.2892  0.2547  1.1709
  169MOL0     C22722  14.540  10.563   1.066  0.1351  0.3544 -0.0948
  169MOL0     C22723  14.677  10.626   1.062  0.3164 -0.4490 -0.8662
  169MOL0     C22724  14.673  10.771   1.061  0.5285  0.2682 -0.4301
  169MOL0    Cl22725  14.599  10.839   1.204  0.1759  0.0603 -0.1527
  169MOL0     C22726  14.074  10.005   0.918  0.6736 -0.5363 -0.5006
  169MOL0     C22727  13.961   9.938   0.977 -0.5647  0.5054 -0.2584
  169MOL0     O22728  13.764   9.749   0.874  0.0255 -0.4798 -0.5145
  169MOL0     C22729  13.612   9.663   1.172  0.8744  0.2942  0.0992
  169MOL0     C22730  13.487   9.628   1.218 -0.3195  0.8239 -0.2445
  169MOL0     N22731  12.753   9.355   1.536  0.2558  0.3202 -0.1609
  169MOL0     N22732  12.666   9.320   1.450 -0.6160 -0.5211  0.5643
  169MOL0     C22733  11.637   9.540   1.503 -0.9353  0.1082  0.0554
  169MOL0     C22734  11.525   9.527   1.583  0.1653  0.8697  0.0199
  169MOL0     C22735  11.174   9.559   1.843 -0.2508  0.5059  0.4588
  169MOL0     C22736  11.209   9.500   1.961 -0.1096  0.5397 -0.0016
  169MOL0     C22737  11.113   9.477   2.058  0.7523  0.6490 -0.7141
  169MOL0     C22738  10.970   9.507   2.042  0.5980 -0.6218 -0.1324
  169MOL0     O22739  10.887   9.492   2.153  0.0517  0.9304  0.0020
  169MOL0     C22740  10.762   9.558   2.130 -0.9681 -0.9701  0.0934
  169MOL0     C22741  10.669   9.518   2.236 -0.3785 -0.4302  0.3283
  169MOL0     C22742  10.625   9.374   2.210  0.4909  0.5165  0.2819
  169MOL0     C22743  10.517   9.327   2.306 -0.8540 -0.4092  0.2872
  169MOL0     C22744  10.560   9.320   2.448  0.5710 -0.3462  0.3186
  169MOL0     C22745  10.594   9.312   2.569 -0.3670  0.1056  0.5342
  169MOL0     C22746  10.942   9.561   1.914  0.6140  0.5037  0.8574
  169MOL0     C22747  11.038   9.576   1.813 -0.5729  0.1041 -0.6592
  169MOL0     H22748  11.656   9.696   1.849 -1.6973 -0.5483  0.7015
  169MOL0     H22749  11.856   9.700   1.708 -0.6326  2.8756  0.4342
  169MOL0     H22750  11.904   9.412   1.436 -0.4877 -1.3158 -2.2091
  169MOL0     H22751  11.853   9.501   1.293 -1.5395 -1.1208  0.6407
  169MOL0     H22752  12.067   9.601   1.274  0.0098  0.3101  0.8116
  169MOL0     H22753  12.124   9.561   1.436 -1.3472  1.3364  0.1282
  169MOL0     H22754  12.176   9.324   1.370 -0.2074 -2.1466 -1.5428
  169MOL0     H22755  12.086   9.338   1.225  2.3763 -2.0684 -0.2188
  169MOL0     H22756  12.248   9.441   1.111  1.6253 -3.1040 -0.6061
  169MOL0     H22757  12.320   9.518   1.261  2.3189 -3.2304  2.7346
  169MOL0     H22758  12.395   9.329   1.346 -1.3805  1.6164  0.4010
  169MOL0     H22759  12.354   9.238   1.208  5.1279 -0.2766 -1.4452
  169MOL0     H22760  12.489   9.419   1.060 -0.1459  2.0011  0.3391
  169MOL0     H22761  12.572   9.458   1.205  1.0728  1.6846 -1.9629
  169MOL0     H22762  12.535   9.183   1.073 -1.3787 -0.0164  1.7256
  169MOL0     H22763  12.689   9.282   1.096  1.2754 -2.1869 -0.2714
  169MOL0     H22764  12.685   9.081   1.247 -1.2724 -0.9441  1.4300
  169MOL0     H22765  12.538   9.167   1.323 -0.9986  0.6348 -1.2819
  169MOL0     H22766  12.909   9.182   1.303 -3.1225 -2.2343 -2.0989
  169MOL0     H22767  12.969   9.361   1.670  3.0270 -0.4574  1.3967
  169MOL0     H22768  13.069   9.244   1.584  0.1238  0.5496  0.3777
  169MOL0     H22769  13.168   9.448   1.593 -0.9633  0.3532  1.7002
  169MOL0     H22770  13.026   9.542   1.531 -0.0937 -0.5022 -0.0479
  169MOL0     H22771  13.038   9.455   1.312 -0.5100  0.6294  0.4713
  169MOL0     H22772  13.151   9.334   1.353 -2.3164 -0.1140 -1.0595
  169MOL0     H22773  13.328   9.489   1.394  2.5000 -0.1301 -3.5488
  169MOL0     H22774  13.227   9.626   1.349 -4.2370 -0.0166 -2.2681
  169MOL0     H22775  13.348   9.493   0.958 -1.6538  0.1766  1.2855
  169MOL0     H22776  13.486   9.507   0.737  1.9993 -0.7084 -1.3655
  169MOL0     H22777  13.487   9.679   0.751  1.6483  0.7574  0.5380
  169MOL0     H22778  13.640   9.592   0.752 -1.2218  2.6585 -0.9922
  169MOL0     H22779  14.113   9.643   1.040  3.0962  0.4437 -1.3605
  169MOL0     H22780  14.311   9.768   0.952  0.2333 -0.4315 -1.1719
  169MOL0     H22781  14.462   9.934   0.916  2.3228  1.4925  2.0116
  169MOL0     H22782  14.486  10.067   0.807 -0.2750 -2.6045 -0.4885
  169MOL0     H22783  14.353  10.071   1.084 -1.0036  0.2456  0.6241
  169MOL0     H22784  14.506  10.140   1.039 -1.2653  1.1099  0.3287
  169MOL0     H22785  14.227  10.245   0.964 -0.8991 -0.1486 -2.2263
  169MOL0     H22786  14.358  10.279   0.849 -2.1469 -1.9268 -0.1391
  169MOL0     H22787  14.318  10.455   0.985 -0.9862 -1.2035 -2.1289
  169MOL0     H22788  14.364  10.366   1.125  2.6350  1.6916  1.1211
  169MOL0     H22789  14.572  10.409   0.910 -0.1250 -2.2498  1.4086
  169MOL0     H22790  14.593  10.353   1.076 -0.7457 -1.1319  0.2174
  169MOL0     H22791  14.470  10.622   1.005  0.1064  0.7299  0.2998
  169MOL0     H22792  14.503  10.558   1.168 -0.0330 -0.8266 -0.1980
  169MOL0     H22793  14.734  10.594   0.973 -1.1276 -5.6296 -0.2827
  169MOL0     H22794  14.724  10.589   1.154  1.9082  2.6214 -0.3176
  169MOL0     H22795  14.621  10.805   0.971 -0.4651 -2.5552 -1.0322
  169MOL0     H22796  14.775  10.810   1.065  0.6729 -0.0291 -1.1217
  169MOL0     H22797  14.071  10.110   0.892  0.9549 -0.2634  0.5195
  169MOL0     H22798  13.870   9.995   0.997  0.4251  1.9609  0.3127
  169MOL0     H22799  13.681   9.701   1.247 -0.4432  0.2596  1.3783
  169MOL0     H22800  13.469   9.631   1.325 -1.6700 -2.4140 -0.2468
  169MOL0     H22801  11.648   9.507   1.401  0.4772  1.2379 -0.1906
  169MOL0     H22802  11.440   9.472   1.543  1.4270 -0.4323 -0.9959
  169MOL0     H22803  11.315   9.478   1.969 -0.1601  0.5826  1.0005
  169MOL0     H22804  11.134   9.426   2.152 -0.8604 -1.9845 -1.6566
  169MOL0     H22805  10.781   9.665   2.130  1.4036 -1.3200 -0.0426
  169MOL0     H22806  10.711   9.518   2.042 -3.2005 -0.7845  1.2493
  169MOL0     H22807  10.587   9.591   2.233 -2.7857 -2.9211  1.1209
  169MOL0     H22808  10.724   9.511   2.330  0.2369  2.2825  0.2626
  169MOL0     H22809  10.714   9.310   2.210  0.6197  0.6476 -1.6250
  169MOL0     H22810  10.587   9.371   2.108  1.1520  0.4351  0.0290
  169MOL0     H22811  10.489   9.229   2.267 -1.1900 -1.4167  2.8993
  169MOL0     H22812  10.434   9.397   2.291 -0.1146  0.1729 -1.4044
  169MOL0     H22813  10.648   9.336   2.659 -0.3116  2.7413 -0.1042
  169MOL0     H22814  10.841   9.595   1.893  0.3371 -0.0731  1.2417
  169MOL0     H22815  10.996   9.612   1.719 -3.2892 -1.8612 -0.3274
  170MOL0     O22816  10.348   5.857   3.185  0.0036 -0.1816  0.0047
  170MOL0     C22817  10.466   5.885   3.165 -0.1118 -0.2279 -0.0792
  170MOL0     O22818  10.531   5.860   3.048 -0.1236 -0.2692  0.3196
  170MOL0     C22819  10.485   5.749   2.967 -0.0564 -0.0826 -0.3182
  170MOL0     C22820  10.496   5.752   2.826  0.1036 -0.0150  0.4316
  170MOL0     C22821  10.434   5.650   2.745  0.2095 -0.1923  0.2337
  170MOL0     C22822  10.363   5.544   2.796  0.0355  0.3583 -0.7782
  170MOL0     O22823  10.308   5.451   2.711  0.3247 -0.4249 -0.0776
  170MOL0     C22824  10.395   5.367   2.641  1.1205  0.0350  0.1407
  170MOL0     C22825  10.393   5.390   2.491 -0.2580  0.2895 -0.4422
  170MOL0     C22826  10.254   5.359   2.426 -0.2767  0.7331 -0.0043
  170MOL0     C22827  10.274   5.369   2.272 -0.4606  0.0181  0.4984
  170MOL0     C22828  10.169   5.306   2.193  1.0503 -0.3355 -0.4915
  170MOL0     C22829  10.179   5.293   2.046  0.8412 -0.3818  0.3098
  170MOL0     C22830  10.250   5.410   1.974  0.2611  0.3469  0.3008
  170MOL0     C22831  10.160   5.526   1.925  0.7105 -1.2182 -0.5379
  170MOL0     N22832  10.080   5.488   1.806  1.1790 -0.8909 -0.6486
  170MOL0     C22833  10.100   5.530   1.680  0.3872  0.8714 -0.1277
  170MOL0     C22834   9.985   5.491   1.614  0.2514 -0.7110 -0.0533
  170MOL0     C22835   9.969   5.515   1.464 -0.1044  0.8297 -0.8844
  170MOL0     C22836  10.011   5.370   1.403  0.1747 -0.2727  0.3805
  170MOL0     C22837   9.914   5.252   1.435  0.9338 -1.1064 -0.8370
  170MOL0     C22838   9.915   5.145   1.315  0.2501 -0.8504 -0.6633
  170MOL0     O22839  10.040   5.090   1.293 -0.4121  0.1954 -0.0974
  170MOL0     C22840  10.044   4.995   1.190  0.6024  0.5288 -0.5161
  170MOL0     C22841  10.158   4.917   1.170  0.2926  0.6907 -0.6658
  170MOL0     C22842  10.162   4.826   1.060 -0.1451 -0.9296 -0.0603
  170MOL0     C22843  10.308   4.771   1.044 -0.0170  0.3777 -1.0980
  170MOL0     C22844  10.052   4.803   0.986 -0.3382 -1.1907 -0.2546
  170MOL0     C22845  10.044   4.706   0.874 -0.5295  0.5797 -0.1634
  170MOL0     O22846   9.935   4.692   0.792 -0.7955  0.2563  0.5251
  170MOL0     C22847   9.928   4.599   0.695 -1.2926 -0.1714  0.2187
  170MOL0     C22848   9.886   4.469   0.721 -0.3017  1.1614 -0.6990
  170MOL0     C22849   9.867   4.373   0.613 -0.6024 -0.6201 -0.7026
  170MOL0     C22850   9.884   4.411   0.484 -0.3126 -0.2957  0.5144
  170MOL0     O22851   9.857   4.317   0.391  0.3405 -0.4073  0.5823
  170MOL0     C22852   9.849   4.363   0.259 -0.4251 -0.1506  0.2830
  170MOL0     C22853   9.779   4.256   0.171 -0.1329 -0.0161  0.3506
  170MOL0     C22854   9.628   4.296   0.161 -0.7012  0.9297  0.1741
  170MOL0     C22855   9.553   4.209   0.059  0.5804  0.6498  1.2011
  170MOL0     C22856   9.393   4.226   0.060 -0.6703  0.8653 -0.0065
  170MOL0     C22857   9.357   4.366   0.019 -0.0089  0.3399 -0.1169
  170MOL0     C22858   9.209   4.402   0.016  1.1070 -0.1818 -0.1791
  170MOL0     C22859   9.155   4.365  -0.121 -0.6271 -0.3107 -0.3670
  170MOL0    Cl22860   9.218   4.480  -0.249  0.0282 -0.4777  0.0375
  170MOL0     C22861   9.930   4.546   0.462  0.0690  0.4318  0.0382
  170MOL0     C22862   9.952   4.633   0.565  0.7193 -0.2155  0.7479
  170MOL0     O22863  10.142   4.626   0.868  0.1916  0.0896  0.2947
  170MOL0     C22864   9.940   4.874   1.000 -0.9638  0.4929  0.0059
  170MOL0     C22865   9.931   4.968   1.102 -0.3147  0.6412  0.4196
  170MOL0     N22866   9.894   5.442   1.699  0.5063 -0.3734 -0.6403
  170MOL0     N22867   9.949   5.440   1.818 -0.3205 -0.8138 -0.9321
  170MOL0     C22868  10.346   5.541   2.940 -0.4291  0.3514 -0.4450
  170MOL0     C22869  10.414   5.635   3.016  0.5220  0.3859 -0.2395
  170MOL0     C22870  10.533   5.943   3.288 -0.0151 -1.0284 -0.3173
  170MOL0     C22871  10.660   6.001   3.280 -0.2513  0.4400  1.1061
  170MOL0     C22872  10.721   6.054   3.388 -0.6828  0.4406 -0.1873
  170MOL0     C22873  10.663   6.050   3.511  0.2420 -0.2222 -0.2189
  170MOL0     O22874  10.719   6.096   3.625 -0.0367  0.1628  0.2534
  170MOL0     C22875  10.697   6.029   3.756  0.7836  0.0441 -0.2491
  170MOL0     C22876  10.777   5.903   3.761 -0.3685 -0.2161  0.6567
  170MOL0     C22877  10.750   5.833   3.890 -0.0499  0.3620  0.5115
  170MOL0     C22878  10.838   5.706   3.895  0.3718 -0.0696  0.2962
  170MOL0     C22879  10.800   5.620   4.010 -0.0693 -0.0816  0.6160
  170MOL0     C22880  10.784   5.543   4.097  0.1991  0.1486  1.1909
  170MOL0     C22881  10.534   5.988   3.523 -0.3964 -0.0908 -0.3639
  170MOL0     C22882  10.467   5.941   3.409  1.1213  0.1785 -0.2635
  170MOL0     H22883  10.560   5.826   2.779 -1.0636 -0.8221 -2.6304
  170MOL0     H22884  10.450   5.656   2.638 -0.9959  1.8790  0.1120
  170MOL0     H22885  10.500   5.381   2.671  1.1606 -0.2055  0.1157
  170MOL0     H22886  10.381   5.262   2.670  1.6165 -0.4598 -1.3086
  170MOL0     H22887  10.412   5.497   2.477  2.9602  0.0064  0.7091
  170MOL0     H22888  10.471   5.326   2.448  0.2830  0.8367 -0.2926
  170MOL0     H22889  10.222   5.259   2.456  0.1961  0.8332  0.8912
  170MOL0     H22890  10.179   5.430   2.462 -0.7807  0.4669 -0.5237
  170MOL0     H22891  10.288   5.476   2.253  1.5488 -0.3497 -0.3793
  170MOL0     H22892  10.364   5.312   2.248  0.3221  0.5190  2.1630
  170MOL0     H22893  10.159   5.206   2.235  5.7227 -1.2072 -1.0113
  170MOL0     H22894  10.070   5.349   2.211  0.2872 -2.5139  0.8471
  170MOL0     H22895  10.231   5.199   2.022 -0.4657 -2.0892  3.5049
  170MOL0     H22896  10.076   5.283   2.011  1.4139 -0.1158 -1.5734
  170MOL0     H22897  10.327   5.460   2.034  1.4545  0.0431 -0.9218
  170MOL0     H22898  10.311   5.368   1.893  0.1754  1.4791 -0.3794
  170MOL0     H22899  10.228   5.609   1.903  2.1496 -2.3651 -0.5707
  170MOL0     H22900  10.088   5.558   2.002  0.2525 -1.2321 -0.9572
  170MOL0     H22901  10.188   5.572   1.633 -0.9652  2.4147 -1.3872
  170MOL0     H22902   9.866   5.547   1.447 -0.4302  0.1017 -0.3162
  170MOL0     H22903  10.041   5.593   1.435  1.1846  0.3464  0.8500
  170MOL0     H22904  10.115   5.355   1.432  0.2728 -1.0411 -0.3121
  170MOL0     H22905  10.022   5.381   1.294  0.6565  0.8914  0.5303
  170MOL0     H22906   9.813   5.293   1.429  1.2726 -0.0023  0.3962
  170MOL0     H22907   9.935   5.203   1.531  0.4343  0.1061 -0.0901
  170MOL0     H22908   9.872   5.200   1.230  1.7415 -1.2033 -1.6900
  170MOL0     H22909   9.845   5.070   1.354 -1.6986  0.5245 -1.3491
  170MOL0     H22910  10.249   4.921   1.228 -0.2308 -1.5910  0.4292
  170MOL0     H22911  10.385   4.810   1.110 -1.0790 -3.1572  2.6738
  170MOL0     H22912  10.303   4.665   1.072  0.5221  0.9043  1.1731
  170MOL0     H22913  10.332   4.774   0.937  0.5960 -1.4736 -1.0504
  170MOL0     H22914   9.859   4.435   0.821  1.8151 -0.9455 -0.7478
  170MOL0     H22915   9.844   4.270   0.637  3.5097 -1.6518 -0.3338
  170MOL0     H22916   9.783   4.450   0.262 -2.6554 -1.7337 -0.4197
  170MOL0     H22917   9.951   4.390   0.231 -0.1319 -0.2724  1.1782
  170MOL0     H22918   9.812   4.253   0.067  0.8743  3.2016  0.4692
  170MOL0     H22919   9.795   4.151   0.198 -2.4081 -0.6688 -0.6391
  170MOL0     H22920   9.619   4.402   0.135 -1.0162  0.8626  0.0079
  170MOL0     H22921   9.591   4.270   0.261  0.8600 -2.0643  0.1046
  170MOL0     H22922   9.597   4.234  -0.038  1.0950  1.1739  1.5657
  170MOL0     H22923   9.568   4.103   0.080  1.3928 -0.0609 -2.2818
  170MOL0     H22924   9.352   4.203   0.159 -1.2909  1.1928 -0.1787
  170MOL0     H22925   9.341   4.155  -0.005  2.3522 -1.0869 -0.4705
  170MOL0     H22926   9.419   4.434   0.078  1.1716  0.1027 -1.0477
  170MOL0     H22927   9.403   4.382  -0.079  1.4378  2.1540  0.7882
  170MOL0     H22928   9.202   4.511   0.026  2.7895  0.2630 -2.9195
  170MOL0     H22929   9.148   4.346   0.088 -1.6120  0.3983 -1.8931
  170MOL0     H22930   9.046   4.378  -0.121 -0.4945  1.2684  1.5638
  170MOL0     H22931   9.182   4.264  -0.152  3.0337  1.2468 -2.9892
  170MOL0     H22932   9.969   4.579   0.366 -3.4873  2.3203 -0.9670
  170MOL0     H22933   9.994   4.731   0.545 -1.4191  0.2118 -2.2758
  170MOL0     H22934   9.854   4.857   0.936 -1.4224 -0.6732  0.8803
  170MOL0     H22935   9.836   5.020   1.106 -0.0160  1.3898 -1.4543
  170MOL0     H22936  10.281   5.465   2.981  0.9886  0.3630  2.0022
  170MOL0     H22937  10.405   5.627   3.123 -1.1994 -0.4204 -0.4194
  170MOL0     H22938  10.711   6.011   3.184 -0.9849 -2.1747  0.3761
  170MOL0     H22939  10.816   6.106   3.388 -0.9058  0.8575 -0.7650
  170MOL0     H22940  10.719   6.099   3.837 -0.9950  1.5453 -0.9957
  170MOL0     H22941  10.591   6.019   3.783  1.9407 -0.9053  4.9974
  170MOL0     H22942  10.884   5.926   3.758 -0.0362 -1.3946 -3.7909
  170MOL0     H22943  10.749   5.837   3.678 -3.5839 -0.1139  1.5079
  170MOL0     H22944  10.642   5.820   3.892 -0.4891  2.9130 -1.2697
  170MOL0     H22945  10.786   5.886   3.979  1.6715  1.8723 -0.9956
  170MOL0     H22946  10.944   5.729   3.909  0.2397  0.0418  1.1821
  170MOL0     H22947  10.826   5.638   3.810 -3.8665  2.3032 -1.2971
  170MOL0     H22948  10.760   5.495   4.189 -0.7273 -0.9534  0.3981
  170MOL0     H22949  10.487   5.978   3.620 -1.1645  0.8653 -0.6320
  170MOL0     H22950  10.366   5.902   3.412  1.9926 -2.6806 -2.9591
  171MOL0     O22951   1.890   8.033  10.709 -0.0503 -0.3234  0.1469
  171MOL0     C22952   2.006   8.054  10.748  0.2438  0.3177  0.3589
  171MOL0     O22953   2.040   8.081  10.878  0.2697  0.8088 -0.5179
  171MOL0     C22954   1.957   8.125  10.982 -0.5797 -0.8223 -0.4403
  171MOL0     C22955   1.833   8.165  10.964  1.0365  0.1252  0.6296
  171MOL0     C22956   1.764   8.241  11.064  0.1645 -0.0295  1.5424
  171MOL0     C22957   1.829   8.262  11.186  0.8667  0.0088 -0.5950
  171MOL0     O22958   1.778   8.334  11.292 -0.4093 -0.8961 -0.3031
  171MOL0     C22959   1.641   8.391  11.297 -1.0136  0.4267  0.1971
  171MOL0     C22960   1.613   8.470  11.427  0.3549  1.0423 -0.3135
  171MOL0     C22961   1.473   8.524  11.415 -1.1397 -0.3518 -0.1718
  171MOL0     C22962   1.428   8.627  11.520  0.7820 -0.7723  0.2354
  171MOL0     C22963   1.324   8.575  11.617  0.3251  0.4370  0.5860
  171MOL0     C22964   1.282   8.675  11.714 -1.3431  0.3441  0.5130
  171MOL0     C22965   1.146   8.620  11.771 -0.1371  0.3298  0.1696
  171MOL0     C22966   1.100   8.705  11.886 -0.1053 -0.1556 -0.0487
  171MOL0     N22967   0.963   8.700  11.918  0.7217 -0.0773  0.4066
  171MOL0     C22968   0.920   8.635  12.030 -0.0948  0.6143  0.4159
  171MOL0     C22969   0.785   8.658  12.035  0.4209  0.5759 -0.5232
  171MOL0     C22970   0.682   8.607  12.132 -0.7861 -0.7396 -0.1374
  171MOL0     C22971   0.684   8.669  12.282 -0.2844 -0.4529  0.6764
  171MOL0     C22972   0.607   8.583  12.371 -0.3611  0.0254 -0.4666
  171MOL0     C22973   0.643   8.617  12.517  0.3851 -0.4977 -0.6878
  171MOL0     O22974   0.567   8.540  12.615 -0.2441 -0.0766  0.1502
  171MOL0     C22975   0.436   8.562  12.640  0.2707  0.8716 -0.0741
  171MOL0     C22976   0.378   8.442  12.697  0.7339 -0.8658 -0.0834
  171MOL0     C22977   0.236   8.435  12.723  0.0888  0.2081  0.0577
  171MOL0     C22978   0.188   8.312  12.799  0.3639 -0.5410 -0.3371
  171MOL0     C22979   0.160   8.550  12.680  0.2729 -0.5132 -0.2339
  171MOL0     C22980   0.007   8.561  12.708  0.7595 -0.1962 -0.1750
  171MOL0     O22981  -0.045   8.683  12.712  0.3023  0.6164 -0.2620
  171MOL0     C22982  -0.185   8.698  12.690  0.3157  0.6004  0.4264
  171MOL0     C22983  -0.248   8.629  12.587  0.2695  0.3424  0.4285
  171MOL0     C22984  -0.389   8.642  12.569 -0.3725  0.5838  0.4118
  171MOL0     C22985  -0.457   8.711  12.663  1.0292 -0.2766 -0.0640
  171MOL0     O22986  -0.593   8.734  12.654 -0.0299  0.7907  0.2374
  171MOL0     C22987  -0.617   8.830  12.548  0.3458  0.1393  0.9611
  171MOL0     C22988  -0.764   8.829  12.512 -0.3492  0.2245 -0.7291
  171MOL0     C22989  -0.827   8.968  12.508 -0.1400  0.7410  0.2817
  171MOL0     C22990  -0.756   9.066  12.405  0.3638  0.2401 -0.1485
  171MOL0     C22991  -0.844   9.179  12.375  0.9459  0.4295  0.1247
  171MOL0     C22992  -0.798   9.271  12.254 -0.5525  0.5093 -0.9861
  171MOL0     C22993  -0.690   9.359  12.293 -0.1670 -0.1011 -0.2876
  171MOL0     C22994  -0.736   9.467  12.397 -0.4229 -0.2438  0.6901
  171MOL0    Cl22995  -0.597   9.572  12.449  0.0260  0.1039  0.1183
  171MOL0     C22996  -0.397   8.784  12.764  0.3939  0.6212  1.0107
  171MOL0     C22997  -0.257   8.779  12.770 -0.1485  0.4880 -0.9018
  171MOL0     O22998  -0.061   8.457  12.716 -0.0088 -0.4792 -0.5517
  171MOL0     C22999   0.224   8.664  12.618 -0.2477  0.6124 -0.1629
  171MOL0     C23000   0.359   8.666  12.597  0.2669 -0.2126 -0.5314
  171MOL0     N23001   0.759   8.753  11.942 -0.7833  0.0310  0.4640
  171MOL0     N23002   0.869   8.787  11.875  0.6441 -0.0493 -0.3190
  171MOL0     C23003   1.964   8.214  11.206  0.0052 -0.5916  0.5074
  171MOL0     C23004   2.030   8.151  11.099  0.2585 -0.5770 -0.9910
  171MOL0     C23005   2.126   8.026  10.657  0.2214  0.5141 -1.0224
  171MOL0     C23006   2.104   7.949  10.537 -0.9495  0.3204 -1.3941
  171MOL0     C23007   2.206   7.943  10.446 -0.7033  0.3081 -0.0013
  171MOL0     C23008   2.336   7.987  10.459 -0.6258 -0.5243 -0.2983
  171MOL0     O23009   2.439   7.967  10.373 -0.0962  0.9718 -0.4942
  171MOL0     C23010   2.424   7.902  10.246  0.4019 -0.2732 -0.6979
  171MOL0     C23011   2.342   7.985  10.134  0.1328  1.4650 -0.7482
  171MOL0     C23012   2.412   8.112  10.105 -0.0111  0.1552  0.5197
  171MOL0     C23013   2.342   8.183   9.993  0.0045 -0.1001 -0.0652
  171MOL0     C23014   2.218   8.252  10.030  0.2136  0.8987  0.2177
  171MOL0     C23015   2.112   8.317  10.040  0.3197 -0.0159  1.3363
  171MOL0     C23016   2.350   8.069  10.574 -0.3072 -0.4413  0.1491
  171MOL0     C23017   2.247   8.084  10.673  0.1247 -0.3989  0.3538
  171MOL0     H23018   1.778   8.145  10.872  1.4946  3.3222 -0.4803
  171MOL0     H23019   1.665   8.284  11.047 -0.8835 -0.7864  4.9787
  171MOL0     H23020   1.632   8.458  11.211  1.2325 -2.3333 -2.4038
  171MOL0     H23021   1.570   8.308  11.295  0.2305 -0.7167  1.0195
  171MOL0     H23022   1.615   8.392  11.504 -1.7186  2.4073  1.2521
  171MOL0     H23023   1.691   8.543  11.450  0.2238  1.1904 -0.3357
  171MOL0     H23024   1.478   8.571  11.316 -1.4044  1.1307  0.4933
  171MOL0     H23025   1.399   8.444  11.417 -2.3728  0.7377 -0.9401
  171MOL0     H23026   1.513   8.664  11.578 -0.6812  1.3790  1.1712
  171MOL0     H23027   1.391   8.713  11.464  1.6298 -1.5448 -1.5716
  171MOL0     H23028   1.239   8.542  11.556  0.7466 -0.4469  0.4580
  171MOL0     H23029   1.359   8.483  11.666  0.4053  0.0165 -0.2423
  171MOL0     H23030   1.361   8.693  11.787  0.3779 -0.6375 -1.0301
  171MOL0     H23031   1.294   8.764  11.652  4.3849 -2.9819 -4.1701
  171MOL0     H23032   1.063   8.641  11.702  1.8733  1.9336 -1.9517
  171MOL0     H23033   1.144   8.515  11.800  0.1612  0.6889  1.5783
  171MOL0     H23034   1.124   8.806  11.852  0.8151 -1.1327 -2.5421
  171MOL0     H23035   1.158   8.687  11.977 -0.8212  0.1337  0.4762
  171MOL0     H23036   0.995   8.588  12.092  1.6821  0.0841 -2.0145
  171MOL0     H23037   0.582   8.598  12.089 -0.1526 -2.6504 -1.3131
  171MOL0     H23038   0.697   8.500  12.144 -1.2765 -0.9406 -1.1935
  171MOL0     H23039   0.649   8.773  12.286 -0.7276 -0.4712 -1.6138
  171MOL0     H23040   0.785   8.668  12.324 -0.4689  1.0726  1.2219
  171MOL0     H23041   0.632   8.478  12.352  2.2089  0.7020 -1.1242
  171MOL0     H23042   0.499   8.604  12.367 -0.2536  0.6715 -0.1508
  171MOL0     H23043   0.614   8.722  12.528 -0.4214 -1.0003  3.2911
  171MOL0     H23044   0.751   8.604  12.521  0.0636 -3.6036  0.4629
  171MOL0     H23045   0.452   8.369  12.730 -0.9451 -1.9602  1.4122
  171MOL0     H23046   0.084   8.286  12.777  0.4802  0.9904 -2.9436
  171MOL0     H23047   0.255   8.231  12.768  0.1688 -0.6605 -0.4456
  171MOL0     H23048   0.199   8.334  12.906 -0.2235  2.7652 -0.8725
  171MOL0     H23049  -0.196   8.575  12.509 -1.7581  0.4184 -1.0360
  171MOL0     H23050  -0.421   8.591  12.479  1.7544  2.1026 -1.3348
  171MOL0     H23051  -0.585   8.929  12.582 -1.5105  0.7786  0.9569
  171MOL0     H23052  -0.563   8.801  12.457  0.9204  2.4558  0.4858
  171MOL0     H23053  -0.789   8.769  12.424  2.6367  0.3651 -1.7786
  171MOL0     H23054  -0.817   8.779  12.594 -3.7426 -1.8256 -3.8516
  171MOL0     H23055  -0.821   9.023  12.603  0.8080  0.3761  0.4462
  171MOL0     H23056  -0.933   8.945  12.496  0.3035 -0.7500 -1.0430
  171MOL0     H23057  -0.656   9.105  12.427  0.2573  1.0404 -0.9959
  171MOL0     H23058  -0.736   9.013  12.311 -0.0651  0.8667 -0.5995
  171MOL0     H23059  -0.853   9.238  12.467 -1.2624  0.6634 -0.1859
  171MOL0     H23060  -0.939   9.142  12.335  0.8782 -0.8003  1.3798
  171MOL0     H23061  -0.760   9.209  12.172  1.4013  3.2431 -2.3127
  171MOL0     H23062  -0.887   9.324  12.219 -0.0534  1.7691 -0.4348
  171MOL0     H23063  -0.646   9.416  12.209  0.8698  0.9432  0.9086
  171MOL0     H23064  -0.611   9.298  12.337  0.0582  0.1953 -0.2686
  171MOL0     H23065  -0.778   9.424  12.489  0.0844 -0.6081  0.7519
  171MOL0     H23066  -0.814   9.524  12.346 -0.6677  0.2564  1.6006
  171MOL0     H23067  -0.457   8.833  12.840 -1.7820 -1.2782  0.6587
  171MOL0     H23068  -0.208   8.824  12.855 -0.2112  0.8332 -1.0456
  171MOL0     H23069   0.163   8.744  12.578  1.3050  1.1660 -1.5147
  171MOL0     H23070   0.411   8.750  12.551 -2.1849  1.4406 -0.4807
  171MOL0     H23071   2.013   8.234  11.301 -1.3017  0.7211  0.9509
  171MOL0     H23072   2.136   8.131  11.108  0.9621  2.8268 -0.5955
  171MOL0     H23073   2.013   7.893  10.514  0.6149 -2.2154 -1.7521
  171MOL0     H23074   2.186   7.889  10.354 -1.2884  1.1358 -0.3712
  171MOL0     H23075   2.524   7.875  10.213  1.1833  0.2779  1.0736
  171MOL0     H23076   2.367   7.810  10.262  2.2228 -1.1873  0.8231
  171MOL0     H23077   2.246   8.003  10.184 -1.1299 -0.1931 -2.4250
  171MOL0     H23078   2.318   7.925  10.046 -1.8440  2.1987 -0.7615
  171MOL0     H23079   2.512   8.083  10.071 -0.8911  0.4570 -2.6082
  171MOL0     H23080   2.430   8.177  10.191  2.4482 -0.7974  0.7982
  171MOL0     H23081   2.301   8.111   9.922 -3.8059  0.3185  1.4334
  171MOL0     H23082   2.418   8.250   9.951 -0.6927  0.2167 -0.8539
  171MOL0     H23083   2.028   8.383  10.034  1.6456  1.6075 -2.7349
  171MOL0     H23084   2.448   8.115  10.586 -1.2641  1.0749  2.6556
  171MOL0     H23085   2.249   8.150  10.759 -0.4145 -0.3233  0.3079
  172MOL0     O23086   6.818   5.361   3.612 -0.1805 -0.3792 -0.3684
  172MOL0     C23087   6.839   5.486   3.645  0.8263  0.2073 -0.3988
  172MOL0     O23088   6.907   5.528   3.757 -0.3566 -0.4468  0.3424
  172MOL0     C23089   6.993   5.441   3.826 -0.5580 -0.1369  0.4088
  172MOL0     C23090   7.059   5.342   3.760 -1.0502 -0.2534  0.0005
  172MOL0     C23091   7.156   5.259   3.831  0.1041  0.9305  0.7730
  172MOL0     C23092   7.168   5.282   3.967 -0.9316 -0.7278 -0.6100
  172MOL0     O23093   7.247   5.197   4.038 -0.6917 -0.4777 -0.2686
  172MOL0     C23094   7.326   5.251   4.143 -0.3906  0.0358 -0.2915
  172MOL0     C23095   7.445   5.159   4.176  0.3406 -0.5819  0.4761
  172MOL0     C23096   7.530   5.211   4.293 -0.7834  0.2980  0.1455
  172MOL0     C23097   7.635   5.107   4.333  0.2165  0.4049 -0.5533
  172MOL0     C23098   7.729   5.164   4.458 -0.3990  1.1658  0.0670
  172MOL0     C23099   7.818   5.059   4.516  0.2163  0.1357  0.0014
  172MOL0     C23100   7.912   5.109   4.633 -0.3785 -0.1057  0.5769
  172MOL0     C23101   8.013   5.011   4.672 -0.2037 -0.8200 -0.2528
  172MOL0     N23102   7.955   4.907   4.761  0.1387 -0.0550 -0.6946
  172MOL0     C23103   7.880   4.917   4.879  0.2954  0.3041  0.3601
  172MOL0     C23104   7.861   4.790   4.920  0.6205  0.5280 -0.0955
  172MOL0     C23105   7.767   4.746   5.036  0.3223  0.3834 -0.1509
  172MOL0     C23106   7.643   4.822   5.063 -0.1681  0.4124  0.8473
  172MOL0     C23107   7.561   4.809   4.935  0.8293  0.3942  0.4627
  172MOL0     C23108   7.495   4.678   4.883 -1.1333 -0.9021 -0.7506
  172MOL0     O23109   7.455   4.600   4.997 -0.3274 -0.3734 -0.0415
  172MOL0     C23110   7.325   4.614   5.037 -0.3020 -0.1126  0.3516
  172MOL0     C23111   7.274   4.490   5.081 -0.1732  0.0884 -0.9003
  172MOL0     C23112   7.134   4.481   5.114  0.3988 -1.0071 -0.8669
  172MOL0     C23113   7.075   4.339   5.136 -0.2281  0.2508  0.1029
  172MOL0     C23114   7.062   4.603   5.134 -0.3212  0.9610  0.0710
  172MOL0     C23115   6.920   4.599   5.170  0.4720  0.2204  0.6851
  172MOL0     O23116   6.854   4.715   5.125  0.1857  0.6902 -0.2495
  172MOL0     C23117   6.725   4.725   5.165  0.1149 -0.2450 -0.4233
  172MOL0     C23118   6.619   4.637   5.116  0.2142  0.7665 -0.6306
  172MOL0     C23119   6.483   4.666   5.158  0.6039  0.2737  0.6099
  172MOL0     C23120   6.452   4.762   5.242  0.4687 -0.7751 -0.3954
  172MOL0     O23121   6.329   4.785   5.306 -0.5958 -0.3668 -1.0016
  172MOL0     C23122   6.256   4.673   5.356  0.7735 -0.2512 -1.1610
  172MOL0     C23123   6.340   4.586   5.452 -0.2066  0.7524 -0.4244
  172MOL0     C23124   6.265   4.450   5.478 -0.4724  0.0268 -1.2443
  172MOL0     C23125   6.334   4.375   5.595 -0.2979 -0.0168  0.1258
  172MOL0     C23126   6.261   4.246   5.626  0.8450  0.1926 -0.3017
  172MOL0     C23127   6.353   4.146   5.709  0.6764 -0.3380 -0.5340
  172MOL0     C23128   6.267   4.039   5.789 -0.7549  0.7967 -0.3374
  172MOL0     C23129   6.336   3.976   5.903 -0.2849 -0.1449  0.0409
  172MOL0    Cl23130   6.476   3.883   5.856 -0.7595  0.4844 -0.3419
  172MOL0     C23131   6.552   4.850   5.285  0.3279  0.3334  1.0393
  172MOL0     C23132   6.683   4.830   5.250  0.1419 -1.0693  0.6711
  172MOL0     O23133   6.875   4.521   5.249  0.3682  0.5184 -0.2773
  172MOL0     C23134   7.119   4.718   5.088 -0.0416  0.3708 -0.1044
  172MOL0     C23135   7.249   4.727   5.046 -0.1307 -0.4670  0.0686
  172MOL0     N23136   7.926   4.703   4.830 -0.4810  0.1549  0.2263
  172MOL0     N23137   7.975   4.772   4.727  0.6975 -0.2671 -0.5481
  172MOL0     C23138   7.093   5.380   4.038 -0.3069  0.0540 -0.5801
  172MOL0     C23139   7.011   5.468   3.961  0.0079 -0.5679 -0.4093
  172MOL0     C23140   6.779   5.597   3.561  0.2738  0.0830  0.0950
  172MOL0     C23141   6.647   5.583   3.510  0.5650 -0.1590  0.6805
  172MOL0     C23142   6.583   5.690   3.446  0.4249 -0.0430 -0.9026
  172MOL0     C23143   6.658   5.803   3.414  0.8183 -0.8946 -0.1662
  172MOL0     O23144   6.609   5.910   3.345 -0.2037 -0.2301  0.2701
  172MOL0     C23145   6.516   5.886   3.234 -0.1896 -0.5431 -0.5444
  172MOL0     C23146   6.491   6.013   3.168 -0.8994 -0.5302 -0.8577
  172MOL0     C23147   6.613   6.096   3.119  0.7148 -0.2235 -0.0262
  172MOL0     C23148   6.581   6.244   3.125  1.0146  0.0609  0.2625
  172MOL0     C23149   6.465   6.292   3.037  0.0710 -0.3864 -0.3570
  172MOL0     C23150   6.391   6.326   2.940  0.1798 -0.4247 -0.2301
  172MOL0     C23151   6.790   5.815   3.466 -0.4475  0.5072  0.9681
  172MOL0     C23152   6.853   5.711   3.543  0.2577 -0.1783  0.3230
  172MOL0     H23153   7.051   5.328   3.652  1.2175  0.1238 -0.2803
  172MOL0     H23154   7.209   5.177   3.784  1.1672  1.0268  1.7645
  172MOL0     H23155   7.368   5.347   4.111 -0.7298  0.4870  0.6006
  172MOL0     H23156   7.269   5.280   4.232  0.3082  0.7030 -0.0492
  172MOL0     H23157   7.413   5.059   4.205 -1.0760  0.5020  2.9267
  172MOL0     H23158   7.497   5.153   4.079 -2.5377  1.7464 -1.3825
  172MOL0     H23159   7.576   5.306   4.265 -2.6516  0.2315 -3.7411
  172MOL0     H23160   7.466   5.238   4.377  0.9550  2.3005  0.9238
  172MOL0     H23161   7.592   5.018   4.380  3.4551 -0.0868  1.8603
  172MOL0     H23162   7.684   5.070   4.243 -2.5378 -2.6220 -1.0118
  172MOL0     H23163   7.798   5.233   4.408 -1.1007 -0.0733 -2.8448
  172MOL0     H23164   7.675   5.206   4.543  0.3424  0.8171  0.7127
  172MOL0     H23165   7.752   4.986   4.564  0.4343  0.7226  1.2289
  172MOL0     H23166   7.858   5.013   4.425 -0.3571  0.6736 -0.5264
  172MOL0     H23167   7.971   5.197   4.605 -0.0318  0.1230  1.9895
  172MOL0     H23168   7.859   5.141   4.723  1.7968  1.7471  1.2750
  172MOL0     H23169   8.097   5.048   4.731 -1.0976  0.4527  0.2634
  172MOL0     H23170   8.061   4.955   4.591  0.9272 -3.7271  2.1967
  172MOL0     H23171   7.839   5.012   4.913 -1.6560 -0.2140 -0.4120
  172MOL0     H23172   7.737   4.645   5.007  0.0531 -0.1885  1.9651
  172MOL0     H23173   7.832   4.749   5.124  0.6632 -0.6157 -0.3536
  172MOL0     H23174   7.665   4.928   5.081 -0.6030  0.4433  1.1891
  172MOL0     H23175   7.595   4.778   5.150 -0.1388  0.3859  0.8502
  172MOL0     H23176   7.621   4.840   4.848 -0.3390  1.0772 -0.1289
  172MOL0     H23177   7.483   4.885   4.939  0.5703  0.3049 -1.7294
  172MOL0     H23178   7.566   4.613   4.832 -0.5062 -0.0179 -1.0214
  172MOL0     H23179   7.409   4.700   4.819 -0.3271  1.8690 -1.0013
  172MOL0     H23180   7.332   4.400   5.064 -0.6333 -0.4806  0.4157
  172MOL0     H23181   7.133   4.261   5.085  0.6873 -0.5805  2.3226
  172MOL0     H23182   7.055   4.315   5.240  1.4361  0.9975  0.6184
  172MOL0     H23183   6.980   4.348   5.082  1.7871  0.7985 -3.7439
  172MOL0     H23184   6.639   4.557   5.046  0.3115 -0.0562  0.3045
  172MOL0     H23185   6.404   4.593   5.143  1.4699 -0.1702 -2.6392
  172MOL0     H23186   6.173   4.719   5.411  0.9600  0.5854 -1.5542
  172MOL0     H23187   6.215   4.610   5.277 -1.4152  0.3996 -0.6140
  172MOL0     H23188   6.442   4.572   5.416 -0.0412 -0.8973  0.5904
  172MOL0     H23189   6.343   4.644   5.545 -0.8672  2.1170 -1.2105
  172MOL0     H23190   6.274   4.398   5.382 -1.6475  2.1052 -2.5679
  172MOL0     H23191   6.160   4.476   5.496 -0.8619  0.8466 -4.1623
  172MOL0     H23192   6.433   4.355   5.552 -1.7269 -1.7980 -2.6124
  172MOL0     H23193   6.351   4.434   5.686 -0.1196  0.9207 -0.5103
  172MOL0     H23194   6.230   4.177   5.547  4.1325 -2.6662  0.6447
  172MOL0     H23195   6.173   4.266   5.689 -0.5871  2.5457 -2.8430
  172MOL0     H23196   6.433   4.100   5.650  0.3698  0.0809 -1.2904
  172MOL0     H23197   6.413   4.205   5.778  1.8876  0.1241 -1.9200
  172MOL0     H23198   6.241   3.958   5.720  0.2061 -1.4979  1.8450
  172MOL0     H23199   6.175   4.083   5.827 -0.5614  0.0631  1.0180
  172MOL0     H23200   6.260   3.909   5.943  1.2632 -1.0845  1.5808
  172MOL0     H23201   6.354   4.041   5.990  0.5064 -2.1609  1.4555
  172MOL0     H23202   6.523   4.926   5.357 -1.3759  1.3232 -0.6138
  172MOL0     H23203   6.759   4.890   5.298  1.1505  0.2809 -2.3552
  172MOL0     H23204   7.065   4.812   5.088  0.9786  1.0145 -1.9071
  172MOL0     H23205   7.285   4.815   4.995  2.4910 -1.1219  0.6290
  172MOL0     H23206   7.093   5.398   4.145 -2.9933 -1.1229 -0.3019
  172MOL0     H23207   6.965   5.551   4.014  0.9259 -0.8703  0.9164
  172MOL0     H23208   6.589   5.493   3.522 -2.1074  1.0323 -2.0690
  172MOL0     H23209   6.481   5.682   3.407  0.7938  2.4876 -2.6445
  172MOL0     H23210   6.562   5.817   3.162  1.2756  0.9003 -1.0606
  172MOL0     H23211   6.422   5.843   3.268 -0.1764  0.4756  0.8457
  172MOL0     H23212   6.435   6.075   3.240  2.1300 -0.6685  1.8418
  172MOL0     H23213   6.431   6.007   3.077  0.2327  3.0413 -2.0235
  172MOL0     H23214   6.643   6.070   3.018  1.3862  0.6592 -0.0622
  172MOL0     H23215   6.701   6.076   3.180  1.3005 -0.7322 -1.0150
  172MOL0     H23216   6.675   6.292   3.096  0.8730  0.0758 -0.1920
  172MOL0     H23217   6.555   6.274   3.227  0.9720  1.0763 -0.0304
  172MOL0     H23218   6.327   6.374   2.869 -0.3796 -0.0778  0.4960
  172MOL0     H23219   6.853   5.901   3.448 -1.3156  1.3992  2.0593
  172MOL0     H23220   6.951   5.726   3.587 -0.8710  3.4653  1.9471
  173MOL0     O23221   0.142   9.588   3.085 -0.3742 -0.4394 -0.6943
  173MOL0     C23222   0.043   9.658   3.062  0.3145 -0.2449 -0.3171
  173MOL0     O23223  -0.089   9.615   3.071  0.5558 -0.0417  1.0463
  173MOL0     C23224  -0.121   9.502   3.140 -0.0630  0.9815  0.7842
  173MOL0     C23225  -0.058   9.377   3.121 -0.1250 -0.2997 -0.4070
  173MOL0     C23226  -0.080   9.270   3.210  0.4755  0.6061  0.5542
  173MOL0     C23227  -0.180   9.288   3.309  0.1749  0.1099 -0.3571
  173MOL0     O23228  -0.207   9.198   3.418  0.3807  0.3153 -0.3503
  173MOL0     C23229  -0.143   9.071   3.407 -1.1484  0.7252  0.0820
  173MOL0     C23230  -0.166   8.992   3.537  0.1856  0.7606 -0.5433
  173MOL0     C23231  -0.134   8.845   3.556 -0.6492 -0.1810  0.2497
  173MOL0     C23232   0.009   8.805   3.516  0.1005  0.5494 -0.2073
  173MOL0     C23233   0.057   8.659   3.540 -0.1207  0.2055  0.8282
  173MOL0     C23234   0.210   8.643   3.516  0.5771 -0.6086 -0.4848
  173MOL0     C23235   0.248   8.504   3.555 -0.6355  0.3941  0.0065
  173MOL0     C23236   0.365   8.451   3.469  0.8975  0.5981  0.4795
  173MOL0     N23237   0.487   8.529   3.486 -0.6720 -1.1295 -0.8901
  173MOL0     C23238   0.576   8.524   3.592  1.1016  0.4739  0.0163
  173MOL0     C23239   0.670   8.613   3.550  0.9266  0.0823  0.4335
  173MOL0     C23240   0.792   8.647   3.627  0.2601  0.2734 -0.2432
  173MOL0     C23241   0.911   8.729   3.559  0.1445  0.6207 -0.5764
  173MOL0     C23242   0.985   8.636   3.456 -0.0441 -0.0312 -0.3193
  173MOL0     C23243   1.125   8.692   3.430  0.0184  0.6206  0.3262
  173MOL0     O23244   1.220   8.652   3.530 -0.0140 -1.0566 -0.2825
  173MOL0     C23245   1.347   8.701   3.518 -0.7670  0.0779 -0.0775
  173MOL0     C23246   1.389   8.814   3.460 -0.2063 -0.2849  0.4802
  173MOL0     C23247   1.523   8.848   3.439  0.1520  0.2790  0.4342
  173MOL0     C23248   1.552   8.977   3.359 -0.2340 -0.3512 -0.4550
  173MOL0     C23249   1.619   8.754   3.480  0.3070 -0.2627 -0.2670
  173MOL0     C23250   1.769   8.765   3.442  0.5404 -1.3973  0.2176
  173MOL0     O23251   1.856   8.686   3.500 -0.1968  0.2998 -0.1567
  173MOL0     C23252   1.973   8.664   3.438 -0.2672  0.6609  0.7752
  173MOL0     C23253   1.993   8.541   3.371 -0.0390 -0.6741  0.0808
  173MOL0     C23254   2.125   8.504   3.328 -0.2248  0.9038 -0.5751
  173MOL0     C23255   2.238   8.589   3.340  0.4987  0.8659 -0.3529
  173MOL0     O23256   2.359   8.555   3.290 -0.1219  0.6408  0.1725
  173MOL0     C23257   2.462   8.652   3.261  0.1321  0.5479  0.1084
  173MOL0     C23258   2.525   8.618   3.121 -0.0502 -0.8307 -1.0923
  173MOL0     C23259   2.435   8.599   3.001 -0.6977  0.4106  0.2757
  173MOL0     C23260   2.358   8.722   2.951 -0.0184  0.3772  0.7976
  173MOL0     C23261   2.285   8.735   2.809  0.0889  0.3635 -0.4789
  173MOL0     C23262   2.179   8.626   2.793 -0.0812  0.0087  0.1446
  173MOL0     C23263   2.051   8.664   2.853 -0.3299 -0.2788  0.4685
  173MOL0     C23264   1.944   8.556   2.822 -1.5706  0.0449 -0.4941
  173MOL0    Cl23265   1.921   8.536   2.651 -0.0416 -0.2287  0.2984
  173MOL0     C23266   2.205   8.717   3.385 -0.7860  0.2328  0.3761
  173MOL0     C23267   2.080   8.755   3.429  0.9280  0.4808 -0.2714
  173MOL0     O23268   1.804   8.851   3.364 -0.3819 -0.0640 -0.1449
  173MOL0     C23269   1.583   8.652   3.565  0.7610 -0.4429 -0.4678
  173MOL0     C23270   1.447   8.628   3.576  0.0919 -0.1559 -0.7692
  173MOL0     N23271   0.637   8.668   3.429  0.2631  0.0214  0.8227
  173MOL0     N23272   0.526   8.613   3.389 -0.6039 -0.5749 -0.6357
  173MOL0     C23273  -0.239   9.402   3.328 -0.2942 -0.4231  0.2613
  173MOL0     C23274  -0.213   9.509   3.241  0.4669 -0.0091 -0.0097
  173MOL0     C23275   0.062   9.788   2.989  0.2898 -0.1562 -0.2202
  173MOL0     C23276   0.189   9.854   2.973 -0.2077  1.0247 -0.6660
  173MOL0     C23277   0.183   9.984   2.914  1.0064 -0.1751  0.6513
  173MOL0     C23278   0.067  10.042   2.865  0.1531 -0.8340 -0.9691
  173MOL0     O23279   0.059  10.157   2.789  0.9259  0.2826  0.3311
  173MOL0     C23280   0.163  10.261   2.776  0.4459  0.2084  0.1005
  173MOL0     C23281   0.132  10.393   2.853  1.2760  0.6624 -0.8892
  173MOL0     C23282   0.242  10.493   2.836 -0.1656 -0.0907 -0.6931
  173MOL0     C23283   0.197  10.635   2.883 -1.0530  0.2858 -0.5995
  173MOL0     C23284   0.168  10.637   3.026 -0.2998 -0.5362  0.2376
  173MOL0     C23285   0.156  10.652   3.150 -0.0167 -0.2374 -0.0487
  173MOL0     C23286  -0.053   9.979   2.888  0.3929  0.2848 -0.1864
  173MOL0     C23287  -0.063   9.860   2.956 -1.0890 -0.0514  1.0683
  173MOL0     H23288   0.020   9.387   3.046 -0.6435  2.3151 -0.6988
  173MOL0     H23289  -0.032   9.173   3.206 -1.5469 -0.5852  2.8201
  173MOL0     H23290  -0.164   9.019   3.313  0.1872  0.9373 -0.3655
  173MOL0     H23291  -0.035   9.088   3.406 -1.0149  0.2269  1.9484
  173MOL0     H23292  -0.096   9.042   3.605  1.2049 -3.0200  1.4945
  173MOL0     H23293  -0.266   9.014   3.575  0.1403  2.4300 -1.5156
  173MOL0     H23294  -0.135   8.822   3.663 -2.2272  0.7086  0.4615
  173MOL0     H23295  -0.204   8.781   3.501  2.5216 -1.8044 -2.2638
  173MOL0     H23296   0.024   8.847   3.416 -3.9877  1.5701 -0.5781
  173MOL0     H23297   0.069   8.868   3.582 -0.4034  2.4560 -1.4720
  173MOL0     H23298   0.030   8.622   3.639 -2.0745  1.1276  0.6931
  173MOL0     H23299   0.015   8.601   3.458 -0.0804 -0.3352  1.1894
  173MOL0     H23300   0.242   8.659   3.412  1.8474 -2.4657 -0.4414
  173MOL0     H23301   0.261   8.713   3.583  0.1842 -1.4745  0.7463
  173MOL0     H23302   0.283   8.506   3.659  1.6375 -0.7780 -0.6797
  173MOL0     H23303   0.167   8.431   3.550  0.5567 -0.8748 -2.4134
  173MOL0     H23304   0.338   8.449   3.363  2.4912 -1.9620  0.0344
  173MOL0     H23305   0.383   8.345   3.488 -0.4508  0.0456 -1.1494
  173MOL0     H23306   0.581   8.463   3.682 -2.8122 -1.4112 -0.8522
  173MOL0     H23307   0.757   8.704   3.714 -3.4554  3.1389 -3.2725
  173MOL0     H23308   0.824   8.548   3.663 -1.1680  0.4504  1.7074
  173MOL0     H23309   0.985   8.758   3.634  0.6570 -1.2460 -0.3064
  173MOL0     H23310   0.872   8.817   3.508  1.0462  1.8431  0.7704
  173MOL0     H23311   0.923   8.620   3.367 -1.9059  1.8243  0.5484
  173MOL0     H23312   0.997   8.535   3.497  1.2048  0.2582  0.0633
  173MOL0     H23313   1.113   8.800   3.418  0.4243  0.5649 -0.7421
  173MOL0     H23314   1.152   8.651   3.332 -1.3614 -0.6759  0.4594
  173MOL0     H23315   1.316   8.889   3.429  2.2132  2.2822  0.6222
  173MOL0     H23316   1.579   8.959   3.255  1.2585  1.1800 -0.3853
  173MOL0     H23317   1.469   9.047   3.370 -0.9603 -1.0905 -1.1269
  173MOL0     H23318   1.640   9.024   3.403 -1.6592  2.8179 -0.7635
  173MOL0     H23319   1.903   8.480   3.366 -1.2230  1.0673 -0.8025
  173MOL0     H23320   2.145   8.400   3.304  2.2556  0.7369  1.7812
  173MOL0     H23321   2.432   8.756   3.252 -0.6318  0.2722 -0.6771
  173MOL0     H23322   2.543   8.648   3.335  0.6028 -1.2180 -0.4459
  173MOL0     H23323   2.593   8.698   3.092  3.2330 -4.2715 -4.0247
  173MOL0     H23324   2.589   8.529   3.129 -1.3352 -1.6128  1.8490
  173MOL0     H23325   2.364   8.518   3.023  0.4282 -0.9734 -0.9832
  173MOL0     H23326   2.498   8.562   2.919 -3.4384 -1.7061 -1.0753
  173MOL0     H23327   2.287   8.740   3.032 -0.1413 -3.1987  1.6331
  173MOL0     H23328   2.424   8.809   2.957  2.1161 -1.1489  0.5140
  173MOL0     H23329   2.367   8.727   2.736  0.0590  1.5316 -0.6709
  173MOL0     H23330   2.253   8.837   2.786  2.6158  1.2164 -0.6080
  173MOL0     H23331   2.165   8.610   2.686 -0.4189  0.8977  0.0529
  173MOL0     H23332   2.223   8.536   2.839 -0.8523 -0.4797 -0.0616
  173MOL0     H23333   2.016   8.758   2.810 -2.1602  0.5473  3.4990
  173MOL0     H23334   2.057   8.686   2.960 -0.6162  0.5377  0.3185
  173MOL0     H23335   1.854   8.574   2.881 -0.9646 -0.2212  0.5493
  173MOL0     H23336   1.983   8.463   2.863  1.3967  1.1731 -0.4907
  173MOL0     H23337   2.278   8.794   3.407 -0.8888  0.7213 -0.8981
  173MOL0     H23338   2.059   8.854   3.469 -3.2773  0.3139 -1.5943
  173MOL0     H23339   1.656   8.585   3.610  2.2770  1.5858  0.2290
  173MOL0     H23340   1.427   8.536   3.630 -2.7161  0.9206  0.2408
  173MOL0     H23341  -0.302   9.425   3.414 -1.8321 -3.2234 -0.0045
  173MOL0     H23342  -0.260   9.606   3.253  0.3177  0.1409 -1.5829
  173MOL0     H23343   0.278   9.797   2.999 -1.6166 -0.9459  0.1166
  173MOL0     H23344   0.276  10.040   2.913  1.7855 -1.3567  1.7636
  173MOL0     H23345   0.259  10.221   2.810 -0.9473 -1.1600  2.7591
  173MOL0     H23346   0.167  10.290   2.670 -1.7167  1.0608  0.1960
  173MOL0     H23347   0.112  10.358   2.955 -1.6059  0.3231 -1.4806
  173MOL0     H23348   0.038  10.443   2.829  0.0965  1.1175  3.7588
  173MOL0     H23349   0.271  10.518   2.733 -2.0751  2.9217 -0.6206
  173MOL0     H23350   0.326  10.458   2.897 -2.3775 -3.8338  0.5421
  173MOL0     H23351   0.107  10.664   2.829 -1.0830 -1.4472 -1.5518
  173MOL0     H23352   0.280  10.705   2.870 -0.7610  0.5440  2.0038
  173MOL0     H23353   0.159  10.667   3.256  1.7186  2.1751 -0.3525
  173MOL0     H23354  -0.143  10.034   2.862  0.8663  3.1810  3.4692
  173MOL0     H23355  -0.162   9.824   2.981 -0.4291 -1.2300  2.0976
  174MOL0     O23356  11.259   3.972   1.093  0.0923  0.1649  0.3344
  174MOL0     C23357  11.157   3.937   1.030  0.0418  0.6085 -0.7135
  174MOL0     O23358  11.149   3.855   0.917 -0.1547 -0.2870  0.9671
  174MOL0     C23359  11.267   3.794   0.882  0.0220  0.0406 -0.2397
  174MOL0     C23360  11.275   3.658   0.900  0.1474  0.3725  0.6421
  174MOL0     C23361  11.391   3.592   0.862 -0.6546  0.1511  0.8489
  174MOL0     C23362  11.508   3.664   0.822  0.4691  0.1653 -0.2392
  174MOL0     O23363  11.621   3.590   0.805  0.5976 -0.0676 -0.0868
  174MOL0     C23364  11.742   3.650   0.790  0.0966  0.1236 -0.0562
  174MOL0     C23365  11.849   3.543   0.794 -0.1792 -0.6574 -0.9466
  174MOL0     C23366  11.861   3.475   0.927  0.7343  0.6420  0.5863
  174MOL0     C23367  11.942   3.346   0.914 -0.1037  0.0371 -0.5568
  174MOL0     C23368  11.932   3.267   1.051 -0.7561 -0.4499  0.5085
  174MOL0     C23369  11.797   3.198   1.069 -1.5504  0.3347 -0.5042
  174MOL0     C23370  11.796   3.104   1.200 -0.4780  0.0860  0.0673
  174MOL0     C23371  11.838   3.175   1.320 -0.7421  0.6367  0.5206
  174MOL0     N23372  11.743   3.279   1.343 -1.2059 -1.4720  1.3633
  174MOL0     C23373  11.620   3.278   1.414 -0.1370  0.8816  0.0576
  174MOL0     C23374  11.568   3.407   1.398  0.3914  0.4077  0.3276
  174MOL0     C23375  11.443   3.458   1.468 -0.3195 -0.1735  0.9795
  174MOL0     C23376  11.321   3.474   1.361 -0.1858 -0.4439 -0.2400
  174MOL0     C23377  11.308   3.613   1.295  0.1299  0.9508  0.4050
  174MOL0     C23378  11.258   3.730   1.388  0.6642 -0.5329 -0.8111
  174MOL0     O23379  11.121   3.712   1.410  0.6544  0.2439  0.2278
  174MOL0     C23380  11.050   3.780   1.504 -0.0574  1.2126  0.7152
  174MOL0     C23381  10.922   3.744   1.525  0.8362 -0.0230 -0.3053
  174MOL0     C23382  10.839   3.810   1.620 -0.3147 -0.8498  0.0685
  174MOL0     C23383  10.695   3.768   1.611 -0.7998 -1.1814 -0.2295
  174MOL0     C23384  10.894   3.905   1.705  0.2721  0.1580 -0.3181
  174MOL0     C23385  10.834   3.959   1.825  0.1478 -0.1424  0.2319
  174MOL0     O23386  10.860   4.094   1.850  0.4253 -0.9966  0.3612
  174MOL0     C23387  10.801   4.158   1.954  0.1086 -0.4173 -1.0238
  174MOL0     C23388  10.669   4.211   1.957  0.0117  0.6451 -0.3178
  174MOL0     C23389  10.614   4.259   2.070 -0.2135  0.4928 -0.2025
  174MOL0     C23390  10.688   4.260   2.192  0.4211  0.0842  1.0368
  174MOL0     O23391  10.620   4.316   2.294 -0.1265 -0.8203 -0.4110
  174MOL0     C23392  10.678   4.340   2.429  0.3586 -0.7926 -0.0773
  174MOL0     C23393  10.622   4.473   2.486  0.4195 -0.7291  0.4279
  174MOL0     C23394  10.481   4.447   2.540  0.6095 -0.1168  0.6453
  174MOL0     C23395  10.424   4.551   2.630 -0.9269  0.4731 -0.1424
  174MOL0     C23396  10.270   4.551   2.630 -0.0331  0.4142 -0.0763
  174MOL0     C23397  10.209   4.646   2.737  0.3034 -0.5706 -0.2518
  174MOL0     C23398  10.058   4.646   2.731  0.0085  0.0325 -0.2103
  174MOL0     C23399   9.999   4.766   2.798 -0.1380 -0.0846  0.2637
  174MOL0    Cl23400  10.036   4.771   2.969  0.0760  0.1209 -0.3745
  174MOL0     C23401  10.814   4.207   2.201 -0.7153 -0.1584 -0.4659
  174MOL0     C23402  10.872   4.164   2.076  0.7701  1.1658 -0.0581
  174MOL0     O23403  10.756   3.884   1.886  0.1500  0.1898  0.0245
  174MOL0     C23404  11.023   3.954   1.670 -0.3376 -1.1441  0.0225
  174MOL0     C23405  11.098   3.891   1.574  0.5391 -1.0825  0.2353
  174MOL0     N23406  11.661   3.479   1.325  0.8934  0.3941 -0.3078
  174MOL0     N23407  11.757   3.404   1.291 -0.2200  0.1490 -0.6997
  174MOL0     C23408  11.499   3.800   0.807 -0.0891 -0.2289 -0.0492
  174MOL0     C23409  11.382   3.862   0.837  0.5310 -0.7033  0.0749
  174MOL0     C23410  11.026   3.966   1.106  0.9553 -0.4847 -0.2431
  174MOL0     C23411  10.898   3.946   1.041 -1.0041 -1.6858  0.7578
  174MOL0     C23412  10.781   3.991   1.103 -0.9467 -0.1163 -0.2781
  174MOL0     C23413  10.789   4.045   1.235  0.3403 -0.4178 -1.2481
  174MOL0     O23414  10.681   4.078   1.310  0.0878  0.2168  0.1960
  174MOL0     C23415  10.562   4.112   1.240 -0.2372  0.5163  0.1808
  174MOL0     C23416  10.582   4.232   1.144  0.2674  1.0582 -0.7126
  174MOL0     C23417  10.509   4.357   1.197 -0.2848 -0.7910  0.2712
  174MOL0     C23418  10.568   4.410   1.326 -0.0631 -0.5219 -0.9159
  174MOL0     C23419  10.494   4.530   1.367 -0.4383 -0.2604 -0.1649
  174MOL0     C23420  10.422   4.616   1.417  0.0507  0.3078  0.5311
  174MOL0     C23421  10.914   4.062   1.298 -0.6247  0.0653 -0.1747
  174MOL0     C23422  11.027   4.012   1.235 -0.1269 -0.0642 -0.3569
  174MOL0     H23423  11.186   3.605   0.931  0.3453  0.6909  1.7992
  174MOL0     H23424  11.409   3.485   0.868  1.0882  0.0215 -3.2228
  174MOL0     H23425  11.756   3.705   0.697  0.6490  2.7950  1.4964
  174MOL0     H23426  11.763   3.707   0.881 -0.7624 -1.2850  1.0613
  174MOL0     H23427  11.828   3.470   0.716  1.3341 -0.6768 -1.3668
  174MOL0     H23428  11.943   3.596   0.774 -1.7695  1.4425 -3.4518
  174MOL0     H23429  11.905   3.536   1.006 -0.3659 -0.0985  1.8232
  174MOL0     H23430  11.763   3.447   0.967  0.5691  1.5501  0.8353
  174MOL0     H23431  11.907   3.288   0.828  0.1569 -0.5712 -0.2633
  174MOL0     H23432  12.045   3.380   0.905 -0.2833  1.1931  1.3785
  174MOL0     H23433  12.019   3.202   1.042  1.0754  2.0350 -0.9105
  174MOL0     H23434  11.953   3.339   1.132  0.6533 -1.0174  0.6741
  174MOL0     H23435  11.711   3.262   1.092 -1.0516  0.4437  1.2058
  174MOL0     H23436  11.778   3.131   0.985 -1.6253  0.6744 -0.7628
  174MOL0     H23437  11.706   3.048   1.227  1.4955 -2.0872  2.8134
  174MOL0     H23438  11.876   3.034   1.174 -0.1481 -0.2021  1.7017
  174MOL0     H23439  11.935   3.225   1.315 -0.7581  0.6222  0.1089
  174MOL0     H23440  11.840   3.093   1.393 -3.1003 -0.4299 -0.5025
  174MOL0     H23441  11.581   3.198   1.477 -0.9741 -0.2188 -1.7860
  174MOL0     H23442  11.408   3.382   1.537 -2.2530 -1.7288 -1.5408
  174MOL0     H23443  11.472   3.549   1.522  0.4683 -0.1056  0.4609
  174MOL0     H23444  11.225   3.453   1.407  1.2940 -1.6931  2.5374
  174MOL0     H23445  11.343   3.404   1.280  2.3966  1.4426 -1.3409
  174MOL0     H23446  11.232   3.601   1.217  1.7487  0.4072 -1.1587
  174MOL0     H23447  11.397   3.643   1.240 -0.2724  0.7187 -0.3867
  174MOL0     H23448  11.276   3.826   1.338 -1.1968  0.1077 -0.3458
  174MOL0     H23449  11.302   3.722   1.488 -1.7452  0.7462  0.4598
  174MOL0     H23450  10.884   3.660   1.468  3.7948 -2.1544  0.6535
  174MOL0     H23451  10.637   3.854   1.577 -2.2424 -1.8517  0.4714
  174MOL0     H23452  10.673   3.676   1.555 -0.5673 -0.5951 -1.3157
  174MOL0     H23453  10.651   3.753   1.710  1.9223 -1.6463  1.0157
  174MOL0     H23454  10.617   4.215   1.862  3.8072  1.4958 -2.6164
  174MOL0     H23455  10.510   4.289   2.076 -0.8073 -1.5462  0.6309
  174MOL0     H23456  10.644   4.256   2.490 -2.6200 -1.9207 -2.9913
  174MOL0     H23457  10.788   4.338   2.429  0.3712 -1.6614 -1.9095
  174MOL0     H23458  10.687   4.504   2.568  3.1540 -3.9782 -0.3160
  174MOL0     H23459  10.621   4.554   2.412  2.6394  0.2607  1.3930
  174MOL0     H23460  10.485   4.349   2.588 -0.3420 -1.9548 -2.7115
  174MOL0     H23461  10.422   4.434   2.448  1.7914 -2.6469  0.1588
  174MOL0     H23462  10.465   4.535   2.730 -2.0795 -1.0524  0.1258
  174MOL0     H23463  10.462   4.651   2.609  1.6315 -0.5752 -0.8410
  174MOL0     H23464  10.228   4.450   2.642  0.7750 -0.2722 -2.4152
  174MOL0     H23465  10.230   4.585   2.534  1.0672 -1.8325 -1.4223
  174MOL0     H23466  10.250   4.616   2.834  1.0996  2.1601  0.3481
  174MOL0     H23467  10.241   4.749   2.723  0.3963 -0.3501  1.3627
  174MOL0     H23468  10.008   4.561   2.778  1.0349 -0.8116 -0.5923
  174MOL0     H23469  10.037   4.654   2.624 -0.8025  1.5182  0.0430
  174MOL0     H23470   9.890   4.761   2.798 -0.1617 -0.9178  2.6283
  174MOL0     H23471  10.027   4.856   2.744 -4.5563  1.7276  0.5985
  174MOL0     H23472  10.859   4.191   2.298 -1.2340 -1.3727 -0.4081
  174MOL0     H23473  10.970   4.118   2.065  0.2575 -0.1653  0.7448
  174MOL0     H23474  11.075   4.037   1.718  0.6985 -1.1156 -1.0904
  174MOL0     H23475  11.197   3.928   1.546  1.5418 -2.1961  2.0701
  174MOL0     H23476  11.573   3.871   0.772  0.6247 -1.7252 -1.6839
  174MOL0     H23477  11.369   3.969   0.824  1.7302 -0.5389  0.1828
  174MOL0     H23478  10.906   3.917   0.936  1.0550 -0.7026  0.6034
  174MOL0     H23479  10.688   3.980   1.048  0.3611 -4.8488 -2.0515
  174MOL0     H23480  10.533   4.021   1.186 -2.7902  2.0619 -1.2163
  174MOL0     H23481  10.487   4.125   1.319  1.2222 -0.9638  1.9107
  174MOL0     H23482  10.547   4.199   1.045  0.5102  0.3449 -0.5670
  174MOL0     H23483  10.684   4.271   1.150 -0.4898  2.9348  0.7772
  174MOL0     H23484  10.409   4.315   1.212  0.6675 -3.7250 -0.9150
  174MOL0     H23485  10.508   4.434   1.119 -3.9059 -0.5617  0.3643
  174MOL0     H23486  10.673   4.440   1.326 -0.8998  3.3888  2.4687
  174MOL0     H23487  10.568   4.330   1.401  2.6119 -0.8711 -1.2227
  174MOL0     H23488  10.355   4.694   1.447 -1.3838 -0.2836 -0.9916
  174MOL0     H23489  10.919   4.098   1.401  0.4453 -2.5937  0.7813
  174MOL0     H23490  11.121   4.028   1.286  1.6784 -1.2404 -3.1175
  175MOL0     O23491   0.972   7.118   2.245  0.2955 -0.8680  0.2360
  175MOL0     C23492   1.047   7.076   2.336 -0.0226  0.4854  0.2636
  175MOL0     O23493   1.078   6.943   2.355 -0.3690 -0.6157 -0.1042
  175MOL0     C23494   1.037   6.863   2.262  1.6027  0.3733  0.1558
  175MOL0     C23495   0.908   6.815   2.262 -0.0744 -0.2393 -0.2747
  175MOL0     C23496   0.867   6.740   2.149  0.2839 -1.1492 -0.4883
  175MOL0     C23497   0.962   6.699   2.044 -0.6939 -0.4451  0.3293
  175MOL0     O23498   0.921   6.610   1.955 -0.4031  0.8701  0.4509
  175MOL0     C23499   0.974   6.617   1.819 -0.1443 -0.6876 -0.1648
  175MOL0     C23500   0.988   6.768   1.758 -0.6667 -0.4028 -0.2764
  175MOL0     C23501   1.036   6.774   1.603  1.2309 -0.4995 -0.2665
  175MOL0     C23502   1.185   6.791   1.595 -0.1022  0.6713 -0.4929
  175MOL0     C23503   1.242   6.768   1.452 -0.4033  0.6331  0.0077
  175MOL0     C23504   1.242   6.633   1.399 -0.3792  0.8152 -0.1187
  175MOL0     C23505   1.319   6.624   1.257 -0.0678 -1.1289  0.4730
  175MOL0     C23506   1.269   6.499   1.185 -0.4294  0.4165  0.3311
  175MOL0     N23507   1.289   6.381   1.260 -0.0089  0.4053  0.0466
  175MOL0     C23508   1.411   6.323   1.277 -0.4503 -0.6924  0.3312
  175MOL0     C23509   1.391   6.221   1.362  0.0856  0.6066 -0.7623
  175MOL0     C23510   1.492   6.122   1.422 -0.0170 -0.3361  0.8388
  175MOL0     C23511   1.568   6.049   1.315 -0.4314 -0.0989  0.4439
  175MOL0     C23512   1.658   5.934   1.357 -0.3172 -0.0090 -0.1383
  175MOL0     C23513   1.792   5.974   1.421 -0.0523 -0.4831  0.4637
  175MOL0     O23514   1.781   6.001   1.560 -0.5713  0.7725 -1.1950
  175MOL0     C23515   1.897   6.048   1.608  0.3336  0.1770 -0.7041
  175MOL0     C23516   1.888   6.146   1.702  0.9889  0.6092  0.6188
  175MOL0     C23517   1.992   6.205   1.776  0.7881 -0.3470  0.1164
  175MOL0     C23518   1.948   6.324   1.858  0.6375 -0.1821 -0.3371
  175MOL0     C23519   2.126   6.185   1.734 -0.3772 -0.2510  0.5231
  175MOL0     C23520   2.244   6.259   1.799  0.6717 -0.4483 -0.9406
  175MOL0     O23521   2.233   6.288   1.928 -0.1397  0.3444  0.1302
  175MOL0     C23522   2.315   6.367   2.004  0.3983 -0.1124  0.0971
  175MOL0     C23523   2.454   6.371   1.983  0.0822 -0.6406 -0.0672
  175MOL0     C23524   2.532   6.457   2.062 -0.4230  0.0245  0.3169
  175MOL0     C23525   2.480   6.517   2.174  0.1385  0.1820  0.0967
  175MOL0     O23526   2.549   6.583   2.267  0.0329  0.0742  0.5353
  175MOL0     C23527   2.669   6.649   2.219 -0.2232 -0.0547 -0.1985
  175MOL0     C23528   2.730   6.771   2.299  1.3541 -0.2806  0.0444
  175MOL0     C23529   2.721   6.742   2.454 -0.4075 -0.1014  0.1064
  175MOL0     C23530   2.819   6.843   2.528  0.1043  0.3234  1.0354
  175MOL0     C23531   2.757   6.989   2.535  0.1172 -0.1932  0.6335
  175MOL0     C23532   2.847   7.077   2.623  0.6044  0.6911 -0.8065
  175MOL0     C23533   2.804   7.226   2.634  1.1062 -0.2377 -0.2406
  175MOL0     C23534   2.905   7.299   2.727 -0.7764  0.0540 -0.0394
  175MOL0    Cl23535   2.881   7.246   2.900  0.1029  0.0067 -0.0410
  175MOL0     C23536   2.341   6.504   2.203  0.3967  0.2325  0.6039
  175MOL0     C23537   2.261   6.437   2.108 -0.5407  0.9676 -0.7164
  175MOL0     O23538   2.346   6.275   1.727  0.7472  0.2116 -0.2239
  175MOL0     C23539   2.147   6.090   1.623 -0.1218 -0.3546 -0.1302
  175MOL0     C23540   2.032   6.019   1.563 -0.0097 -0.2483  0.3048
  175MOL0     N23541   1.253   6.216   1.398  0.6787  0.2571 -0.0664
  175MOL0     N23542   1.192   6.316   1.334  0.1128  0.6345  0.6725
  175MOL0     C23543   1.089   6.752   2.046 -0.0819 -1.1282  0.0721
  175MOL0     C23544   1.126   6.836   2.157  0.4923 -0.3272  0.4334
  175MOL0     C23545   1.118   7.170   2.420  0.0407 -0.7753 -1.0860
  175MOL0     C23546   1.087   7.305   2.420 -0.3596  0.0689 -0.4461
  175MOL0     C23547   1.154   7.400   2.484 -0.7984  0.4282 -0.2690
  175MOL0     C23548   1.252   7.359   2.580 -1.1688 -0.7029 -0.4009
  175MOL0     O23549   1.317   7.456   2.654  0.0051  0.4680  0.2273
  175MOL0     C23550   1.420   7.422   2.746 -0.3441  0.2488 -0.4859
  175MOL0     C23551   1.484   7.553   2.768 -0.6427  0.3617  0.5516
  175MOL0     C23552   1.378   7.642   2.834  0.1380 -0.4069 -0.1680
  175MOL0     C23553   1.398   7.669   2.982 -0.5347 -1.0807 -0.4375
  175MOL0     C23554   1.527   7.718   3.021  0.6492  0.2792  0.7975
  175MOL0     C23555   1.636   7.749   3.072  0.7367 -0.2779 -0.6885
  175MOL0     C23556   1.293   7.224   2.586 -0.2130 -0.0912  0.6694
  175MOL0     C23557   1.220   7.132   2.508 -0.8253 -0.5415  0.1918
  175MOL0     H23558   0.840   6.862   2.333  3.9018  5.0399  0.6343
  175MOL0     H23559   0.773   6.688   2.156  1.1489 -2.6772  0.2814
  175MOL0     H23560   1.070   6.566   1.826  2.1882  3.3570  0.2628
  175MOL0     H23561   0.916   6.555   1.750 -1.4652  0.8224 -0.4704
  175MOL0     H23562   0.886   6.805   1.741 -1.4777 -3.1930 -2.0812
  175MOL0     H23563   1.053   6.838   1.812  1.2104 -0.6427 -2.1180
  175MOL0     H23564   1.023   6.677   1.553  1.1792 -1.0974  0.8733
  175MOL0     H23565   0.972   6.850   1.557  0.8515 -1.8865 -2.1663
  175MOL0     H23566   1.227   6.885   1.632  2.7987 -0.6728 -0.1450
  175MOL0     H23567   1.241   6.716   1.651  1.8176 -0.4545 -3.6316
  175MOL0     H23568   1.170   6.814   1.385 -3.0858 -1.8467  0.9648
  175MOL0     H23569   1.340   6.814   1.439 -0.9843  1.1779 -3.3085
  175MOL0     H23570   1.293   6.562   1.465 -2.5577 -2.1563 -1.3750
  175MOL0     H23571   1.142   6.590   1.402 -0.7081  1.6322  2.2087
  175MOL0     H23572   1.296   6.711   1.195  1.0323 -2.3494 -1.7390
  175MOL0     H23573   1.428   6.627   1.262  0.1643  4.1945 -1.3590
  175MOL0     H23574   1.315   6.487   1.087  2.0930  0.5272  1.4210
  175MOL0     H23575   1.160   6.495   1.177 -0.6249 -4.0986  2.2468
  175MOL0     H23576   1.506   6.349   1.232 -0.6642  1.3853  0.9686
  175MOL0     H23577   1.556   6.187   1.484 -0.8270  0.4019  0.9174
  175MOL0     H23578   1.435   6.056   1.488  1.6540 -0.6536  2.0630
  175MOL0     H23579   1.624   6.132   1.271 -0.4598  0.7004  1.8575
  175MOL0     H23580   1.497   6.016   1.238 -0.0917  2.0758 -0.8772
  175MOL0     H23581   1.673   5.875   1.266 -3.6452  0.1216 -0.9022
  175MOL0     H23582   1.603   5.865   1.423 -0.6151  0.5160  0.1665
  175MOL0     H23583   1.839   6.054   1.363  1.2287 -1.6368 -0.1351
  175MOL0     H23584   1.843   5.877   1.415  0.0842 -0.3409 -0.9989
  175MOL0     H23585   1.783   6.164   1.726  0.7602  2.0501 -1.2492
  175MOL0     H23586   1.998   6.412   1.816 -0.7488  0.5381 -0.5151
  175MOL0     H23587   1.839   6.325   1.865  0.5944 -2.6973  0.5935
  175MOL0     H23588   1.982   6.321   1.962 -0.4432  2.0622  0.1288
  175MOL0     H23589   2.491   6.304   1.907 -2.0232  0.6864 -2.3815
  175MOL0     H23590   2.638   6.472   2.041 -0.8390 -0.6416 -2.7072
  175MOL0     H23591   2.748   6.573   2.214 -0.8773 -0.7788  0.2631
  175MOL0     H23592   2.656   6.693   2.120 -0.4038  0.2313 -0.0500
  175MOL0     H23593   2.827   6.808   2.263  0.1077  0.9896 -2.2219
  175MOL0     H23594   2.672   6.857   2.264 -0.5576 -0.1801  3.1242
  175MOL0     H23595   2.758   6.640   2.469  0.9337  0.1286 -1.4458
  175MOL0     H23596   2.619   6.753   2.491  0.5086 -1.5908  3.4500
  175MOL0     H23597   2.832   6.795   2.626 -2.7430 -1.9922  0.4116
  175MOL0     H23598   2.918   6.841   2.482 -1.3573  0.3848 -2.4177
  175MOL0     H23599   2.657   6.984   2.579 -0.6478 -1.8779 -1.1366
  175MOL0     H23600   2.761   7.028   2.432  0.2485 -2.4451 -0.2609
  175MOL0     H23601   2.842   7.031   2.722  0.1494  2.6461  0.1298
  175MOL0     H23602   2.948   7.079   2.582  0.0101  2.5050 -2.3203
  175MOL0     H23603   2.700   7.232   2.670  0.5074 -0.2206 -1.8965
  175MOL0     H23604   2.804   7.280   2.539  3.4202  1.3014  0.5482
  175MOL0     H23605   2.887   7.406   2.718 -0.7149  0.1043  0.4193
  175MOL0     H23606   3.007   7.296   2.688 -0.6644  2.1244  0.0037
  175MOL0     H23607   2.316   6.538   2.303 -0.0234 -2.4716  1.5162
  175MOL0     H23608   2.157   6.433   2.139 -0.7879  0.2349 -1.5910
  175MOL0     H23609   2.246   6.059   1.590  1.3888  0.3075  3.2810
  175MOL0     H23610   2.038   5.943   1.486  3.2536  1.4675 -1.3247
  175MOL0     H23611   1.158   6.732   1.966  0.0965 -2.8809  0.6306
  175MOL0     H23612   1.225   6.875   2.175 -0.0964  1.5043 -0.0798
  175MOL0     H23613   1.002   7.335   2.360 -0.8726  0.7305  0.5946
  175MOL0     H23614   1.122   7.504   2.482 -0.7532  0.4679  0.6307
  175MOL0     H23615   1.374   7.367   2.828  3.1179 -0.1494  1.4125
  175MOL0     H23616   1.491   7.354   2.697 -1.3614 -0.7796 -0.5616
  175MOL0     H23617   1.508   7.594   2.670 -0.0041 -2.4919 -0.5857
  175MOL0     H23618   1.570   7.541   2.836 -0.0637 -1.9064 -0.4912
  175MOL0     H23619   1.276   7.604   2.837 -0.6548  1.6755  1.4306
  175MOL0     H23620   1.375   7.742   2.788 -1.0423 -1.2165 -1.9544
  175MOL0     H23621   1.378   7.573   3.032 -2.6286  0.6251  2.3014
  175MOL0     H23622   1.317   7.732   3.020 -2.3521 -3.6127  0.2260
  175MOL0     H23623   1.734   7.779   3.103  1.7832 -2.0097 -2.1162
  175MOL0     H23624   1.369   7.196   2.658  0.3286  0.8547  0.4906
  175MOL0     H23625   1.249   7.028   2.514  1.3957 -0.0499 -0.9135
  176MOL0     O23626   0.171  10.552   0.854  0.0392 -0.3184 -0.1996
  176MOL0     C23627   0.151  10.634   0.940 -0.7343 -1.3310  0.3102
  176MOL0     O23628   0.082  10.744   0.920  0.0825  0.6692 -0.2185
  176MOL0     C23629  -0.019  10.729   0.825  0.3012  0.3661 -0.3391
  176MOL0     C23630  -0.110  10.624   0.839  0.2314 -0.0461 -0.4064
  176MOL0     C23631  -0.216  10.618   0.739  0.6440  0.3037 -0.8343
  176MOL0     C23632  -0.228  10.710   0.626  0.0855  0.1008 -0.1418
  176MOL0     O23633  -0.330  10.694   0.543  0.1002 -0.6531  0.1243
  176MOL0     C23634  -0.370  10.793   0.446 -0.9245  0.4048 -0.7084
  176MOL0     C23635  -0.517  10.774   0.412 -0.8701  1.6096  0.5054
  176MOL0     C23636  -0.549  10.896   0.327  0.1368 -0.0404 -0.8094
  176MOL0     C23637  -0.698  10.890   0.280  0.2163 -0.0976  0.1378
  176MOL0     C23638  -0.811  10.940   0.392  0.0765  0.7572  1.4036
  176MOL0     C23639  -0.937  11.005   0.325 -0.0121 -0.4797 -0.3685
  176MOL0     C23640  -1.013  11.091   0.434 -0.1435  0.3746  1.3556
  176MOL0     C23641  -1.082  11.006   0.543  0.5420  0.1533  0.0787
  176MOL0     N23642  -1.085  11.068   0.678  0.1002  0.1118  0.5784
  176MOL0     C23643  -1.182  11.161   0.709 -1.3319  0.1544 -0.1870
  176MOL0     C23644  -1.185  11.157   0.844 -0.2427 -0.9988  0.6505
  176MOL0     C23645  -1.267  11.234   0.933  0.7467  0.0414 -0.1571
  176MOL0     C23646  -1.417  11.228   0.882 -0.3103 -0.5013 -0.0182
  176MOL0     C23647  -1.509  11.193   1.001 -0.0972 -0.0867 -0.3501
  176MOL0     C23648  -1.647  11.154   0.964  0.5626 -0.3255 -0.0803
  176MOL0     O23649  -1.723  11.269   0.928  0.6248 -0.1928  0.3456
  176MOL0     C23650  -1.858  11.259   0.923 -0.1748  0.2367 -0.3947
  176MOL0     C23651  -1.929  11.162   0.861  0.3167  0.1296 -0.0135
  176MOL0     C23652  -2.071  11.158   0.864 -0.5416 -0.0260  0.1588
  176MOL0     C23653  -2.146  11.045   0.786  0.4610 -0.3701 -0.0176
  176MOL0     C23654  -2.138  11.266   0.938  1.1083  0.0641  0.2976
  176MOL0     C23655  -2.288  11.294   0.937  0.4618  1.1616 -0.4397
  176MOL0     O23656  -2.329  11.368   1.044  0.9490  0.0916  0.3600
  176MOL0     C23657  -2.465  11.370   1.085 -1.4817 -0.6398 -0.4588
  176MOL0     C23658  -2.516  11.497   1.123 -0.3616 -0.1448 -0.3937
  176MOL0     C23659  -2.642  11.496   1.185 -0.5500 -0.3085  0.9977
  176MOL0     C23660  -2.718  11.375   1.195  1.2046  0.2833 -0.3319
  176MOL0     O23661  -2.842  11.385   1.255  0.1124 -0.0342 -0.6952
  176MOL0     C23662  -2.947  11.287   1.215  0.5292 -0.4815  0.1391
  176MOL0     C23663  -3.089  11.337   1.221 -0.0876  0.7068 -0.6163
  176MOL0     C23664  -3.198  11.250   1.152 -0.8295 -0.0138 -0.1213
  176MOL0     C23665  -3.302  11.204   1.255  0.2256 -0.3762  0.0466
  176MOL0     C23666  -3.383  11.079   1.218  0.2620 -0.6228  0.2280
  176MOL0     C23667  -3.470  11.093   1.085  0.5080 -1.0860  0.1830
  176MOL0     C23668  -3.501  10.952   1.042  0.1466 -0.2312  0.0540
  176MOL0     C23669  -3.594  10.950   0.916  0.2401 -0.1670  0.3938
  176MOL0    Cl23670  -3.500  10.982   0.776  0.0307 -0.1714 -0.3830
  176MOL0     C23671  -2.664  11.254   1.145  0.9235 -0.5018  0.1973
  176MOL0     C23672  -2.530  11.257   1.097  0.0372 -1.5068 -0.1324
  176MOL0     O23673  -2.364  11.238   0.856  0.3769 -0.5095  0.2305
  176MOL0     C23674  -2.058  11.363   1.008  0.7342  0.1410  0.5826
  176MOL0     C23675  -1.927  11.356   0.994 -0.1448  0.5752  0.2719
  176MOL0     N23676  -1.096  11.063   0.880 -0.3294  0.4054  0.2013
  176MOL0     N23677  -1.030  11.010   0.785  0.6398 -0.1599 -0.0068
  176MOL0     C23678  -0.131  10.817   0.626 -0.0280  0.0257  0.5335
  176MOL0     C23679  -0.032  10.829   0.730 -0.5107  0.1011  0.6340
  176MOL0     C23680   0.228  10.621   1.068  0.6540 -0.6772  0.6402
  176MOL0     C23681   0.230  10.720   1.173 -0.7220 -1.0308 -0.6401
  176MOL0     C23682   0.316  10.723   1.285 -0.0521  0.1361 -0.6192
  176MOL0     C23683   0.385  10.602   1.309 -0.3422 -0.5947 -0.0074
  176MOL0     O23684   0.470  10.601   1.412 -0.3815  0.1844  0.5139
  176MOL0     C23685   0.427  10.555   1.534  0.2314 -0.2819 -0.1028
  176MOL0     C23686   0.530  10.461   1.604  0.0309  0.2247  0.5639
  176MOL0     C23687   0.658  10.529   1.642  0.0855  1.0300 -0.9039
  176MOL0     C23688   0.632  10.631   1.765 -1.0541  1.2938  0.3005
  176MOL0     C23689   0.744  10.724   1.779  0.0097  0.0900 -0.4831
  176MOL0     C23690   0.834  10.802   1.797  0.6201  0.7634  0.5157
  176MOL0     C23691   0.376  10.498   1.217 -0.1169 -0.2916 -0.2364
  176MOL0     C23692   0.313  10.508   1.091  1.3176  0.2950  0.0846
  176MOL0     H23693  -0.090  10.547   0.912 -3.1888 -0.7356 -0.0359
  176MOL0     H23694  -0.280  10.532   0.747  1.1796 -0.1860 -1.6465
  176MOL0     H23695  -0.350  10.893   0.486  2.7440 -0.6700  0.5400
  176MOL0     H23696  -0.305  10.788   0.358  0.3069 -2.1026  0.2489
  176MOL0     H23697  -0.532  10.680   0.357 -4.3100  1.2481  1.7642
  176MOL0     H23698  -0.570  10.782   0.507  0.2134  0.0412  1.2775
  176MOL0     H23699  -0.547  10.986   0.389  0.6490 -0.9477  0.5443
  176MOL0     H23700  -0.486  10.900   0.239  1.4815 -1.2271  0.0608
  176MOL0     H23701  -0.722  10.941   0.187 -2.8173  1.5789  1.6777
  176MOL0     H23702  -0.720  10.786   0.252 -2.3931  0.1289  1.0307
  176MOL0     H23703  -0.827  10.857   0.462  1.9382 -2.3074 -1.5220
  176MOL0     H23704  -0.771  11.022   0.452  2.6806 -0.5316  1.5283
  176MOL0     H23705  -0.901  11.082   0.256  0.0426  0.3007  0.5119
  176MOL0     H23706  -1.003  10.930   0.280 -0.1118 -0.3741 -0.4010
  176MOL0     H23707  -0.941  11.161   0.479 -0.2327  1.6362 -0.3382
  176MOL0     H23708  -1.092  11.153   0.391 -1.3803 -0.5114  2.2848
  176MOL0     H23709  -1.018  10.918   0.557  0.7436  0.3808  0.6159
  176MOL0     H23710  -1.187  10.981   0.524 -0.0068 -1.5302  4.0642
  176MOL0     H23711  -1.239  11.208   0.630  1.2236 -2.0685 -3.6907
  176MOL0     H23712  -1.260  11.197   1.036 -0.9748  1.3236  0.4677
  176MOL0     H23713  -1.224  11.334   0.925 -0.4396  0.4527 -2.2201
  176MOL0     H23714  -1.438  11.151   0.806 -0.1533  1.2405 -1.9297
  176MOL0     H23715  -1.440  11.326   0.838  0.5178 -1.3579 -2.5659
  176MOL0     H23716  -1.508  11.275   1.074 -1.2955 -0.7240  0.4148
  176MOL0     H23717  -1.464  11.104   1.046 -1.3238 -0.4859  0.1323
  176MOL0     H23718  -1.702  11.090   1.034 -0.9077 -0.7882 -1.5973
  176MOL0     H23719  -1.643  11.090   0.875  2.1301  0.1299 -0.3666
  176MOL0     H23720  -1.876  11.087   0.803  1.7798  0.5637  0.7137
  176MOL0     H23721  -2.211  11.093   0.712  2.7780  2.2545 -0.4965
  176MOL0     H23722  -2.081  10.967   0.745 -0.7699 -0.5915 -1.6577
  176MOL0     H23723  -2.196  10.981   0.859  3.9579 -1.1705  1.8950
  176MOL0     H23724  -2.464  11.590   1.102  0.2385 -0.7919 -1.9026
  176MOL0     H23725  -2.695  11.585   1.217 -2.0296 -0.9253  0.3141
  176MOL0     H23726  -2.931  11.259   1.110  4.6099 -0.2061  0.5282
  176MOL0     H23727  -2.940  11.196   1.275 -0.0189  1.2000  2.9194
  176MOL0     H23728  -3.117  11.360   1.324  1.3553  1.6177 -0.3937
  176MOL0     H23729  -3.089  11.435   1.173  1.2447 -0.0956 -2.3343
  176MOL0     H23730  -3.140  11.161   1.123  2.2897  2.0620 -0.8220
  176MOL0     H23731  -3.240  11.295   1.062  0.1460  0.7399 -0.2177
  176MOL0     H23732  -3.259  11.178   1.352 -4.9657 -5.7415  1.4991
  176MOL0     H23733  -3.370  11.290   1.251  1.9535  1.2133  2.3720
  176MOL0     H23734  -3.447  11.051   1.302  3.1494 -0.2245  2.7090
  176MOL0     H23735  -3.308  11.000   1.207  1.8273  0.6166  1.5642
  176MOL0     H23736  -3.560  11.154   1.096  0.8598 -0.2522 -1.3503
  176MOL0     H23737  -3.403  11.139   1.012 -1.1262 -1.1131 -1.4085
  176MOL0     H23738  -3.567  10.921   1.124 -0.3074 -1.7643 -0.8547
  176MOL0     H23739  -3.423  10.877   1.053 -1.3372 -1.5635  2.2633
  176MOL0     H23740  -3.670  11.028   0.927  3.4891  3.3561  0.2330
  176MOL0     H23741  -3.639  10.854   0.892 -1.0607  1.0300 -2.4683
  176MOL0     H23742  -2.726  11.166   1.134 -0.9193  0.8947 -1.2768
  176MOL0     H23743  -2.477  11.165   1.075  2.5838 -0.0663 -0.4046
  176MOL0     H23744  -2.096  11.453   1.055  1.9550  0.9374  0.1031
  176MOL0     H23745  -1.873  11.436   1.043  0.2590 -1.6508  3.7711
  176MOL0     H23746  -0.138  10.885   0.542  1.0808 -1.4767 -0.8244
  176MOL0     H23747   0.035  10.914   0.730  0.6233 -0.6721 -2.4046
  176MOL0     H23748   0.181  10.812   1.142  0.4767 -0.4693 -0.9310
  176MOL0     H23749   0.323  10.807   1.354  1.7343  0.0016 -0.6044
  176MOL0     H23750   0.398  10.650   1.578  0.3219 -0.3102  0.0197
  176MOL0     H23751   0.337  10.493   1.525 -1.6059  2.3123 -0.7032
  176MOL0     H23752   0.562  10.380   1.539 -0.4013  1.8990 -1.8700
  176MOL0     H23753   0.484  10.432   1.700 -2.0287  1.3563 -0.0109
  176MOL0     H23754   0.709  10.577   1.558  1.7953  0.4922 -0.2282
  176MOL0     H23755   0.732  10.456   1.677  3.8922  4.9344  0.1952
  176MOL0     H23756   0.624  10.583   1.863 -0.3267  1.1000  0.2735
  176MOL0     H23757   0.541  10.689   1.747 -0.9118  0.5350 -3.9454
  176MOL0     H23758   0.905  10.882   1.797  2.2751 -0.5918 -1.5425
  176MOL0     H23759   0.434  10.409   1.240 -1.6573 -0.7029  2.4644
  176MOL0     H23760   0.313  10.429   1.017 -2.3204 -1.8963  2.1134
  177MOL0     O23761   8.718   3.683   0.896  0.0037 -0.7306 -0.0892
  177MOL0     C23762   8.699   3.769   0.814  1.1713  0.4020  0.3229
  177MOL0     O23763   8.588   3.844   0.797  0.6514 -0.3803  0.4313
  177MOL0     C23764   8.483   3.839   0.891 -0.1760 -0.3195 -0.5285
  177MOL0     C23765   8.357   3.868   0.834  0.1436  0.5576  0.5782
  177MOL0     C23766   8.235   3.871   0.906 -0.3226  0.7128  0.1422
  177MOL0     C23767   8.236   3.835   1.045 -1.2717 -0.2095 -0.9311
  177MOL0     O23768   8.134   3.841   1.130  0.6701 -0.3798  0.2684
  177MOL0     C23769   7.994   3.820   1.099  0.5776  0.2494 -0.7639
  177MOL0     C23770   7.969   3.676   1.063  0.6619 -0.3158 -0.2905
  177MOL0     C23771   7.953   3.572   1.174 -0.2551  0.0883  0.1789
  177MOL0     C23772   8.091   3.525   1.230 -0.3872  0.0185 -0.9084
  177MOL0     C23773   8.085   3.401   1.318  1.0233 -0.1261  0.5725
  177MOL0     C23774   7.969   3.401   1.423  0.1280 -0.6988  0.6019
  177MOL0     C23775   7.959   3.263   1.484  1.1758  0.0800 -1.6051
  177MOL0     C23776   7.859   3.159   1.403  0.5480 -0.2615 -1.8020
  177MOL0     N23777   7.716   3.176   1.449 -0.4052 -0.1312 -0.4922
  177MOL0     C23778   7.655   3.143   1.570  0.2435 -0.0018 -0.2770
  177MOL0     C23779   7.532   3.199   1.565  0.6237  0.2310  1.1469
  177MOL0     C23780   7.430   3.197   1.676  0.6726  0.5894  1.0326
  177MOL0     C23781   7.346   3.317   1.685 -0.5368 -0.3079 -0.1024
  177MOL0     C23782   7.240   3.299   1.803 -0.3866  0.1266 -0.5259
  177MOL0     C23783   7.142   3.415   1.823 -0.6525 -0.8305  0.1689
  177MOL0     O23784   7.218   3.522   1.880  1.0922  0.0672  0.7951
  177MOL0     C23785   7.171   3.599   1.984 -0.2712  0.6663  0.6096
  177MOL0     C23786   7.050   3.565   2.046 -0.2149  0.1536  0.5186
  177MOL0     C23787   7.020   3.609   2.180 -0.7696  0.4762 -0.9426
  177MOL0     C23788   6.908   3.543   2.253 -0.2280 -0.4180  0.2378
  177MOL0     C23789   7.115   3.704   2.242 -0.6654 -0.1579 -0.3474
  177MOL0     C23790   7.103   3.758   2.379 -0.4234 -0.3580  0.2129
  177MOL0     O23791   7.199   3.829   2.426 -0.0916 -0.2254 -0.0073
  177MOL0     C23792   7.183   3.883   2.550  0.2121  0.4438 -0.1697
  177MOL0     C23793   7.164   4.022   2.558  0.1277 -0.6435  0.2733
  177MOL0     C23794   7.163   4.081   2.683 -0.5490  0.0811 -0.4800
  177MOL0     C23795   7.152   4.009   2.795  0.3337 -0.2607 -0.8285
  177MOL0     O23796   7.139   4.082   2.908 -1.1170 -0.1657  0.2248
  177MOL0     C23797   7.212   4.050   3.032  0.6625  0.2588  0.6787
  177MOL0     C23798   7.364   4.036   3.013  1.0438  0.4359  1.0269
  177MOL0     C23799   7.452   4.151   3.062  0.2529  0.5870 -0.6661
  177MOL0     C23800   7.600   4.121   3.064 -1.0929 -0.3461 -0.0069
  177MOL0     C23801   7.663   4.138   2.928  0.1028  0.3678 -0.4794
  177MOL0     C23802   7.747   4.018   2.889  1.0484 -0.4526 -0.5286
  177MOL0     C23803   7.872   4.010   2.976 -0.0384  0.7055 -0.2339
  177MOL0     C23804   7.951   3.890   2.928  0.4860  0.0803  0.2553
  177MOL0    Cl23805   8.088   3.856   3.031 -0.0447  0.0541 -0.3865
  177MOL0     C23806   7.169   3.869   2.791 -0.2334  0.7751 -0.6905
  177MOL0     C23807   7.177   3.805   2.666 -0.6250  0.5622 -0.4976
  177MOL0     O23808   7.001   3.730   2.446 -0.0910 -0.0275  0.1657
  177MOL0     C23809   7.223   3.738   2.162  0.6850  0.2783  0.6134
  177MOL0     C23810   7.247   3.690   2.034 -0.4227  1.0409 -0.2990
  177MOL0     N23811   7.521   3.257   1.440  0.4637  0.0013 -0.8370
  177MOL0     N23812   7.628   3.238   1.364 -0.5552 -0.3941 -0.1893
  177MOL0     C23813   8.361   3.818   1.101 -0.0535  0.5262 -0.5839
  177MOL0     C23814   8.484   3.809   1.024 -0.1987  0.3310  0.5250
  177MOL0     C23815   8.801   3.782   0.705 -0.3150  0.0369 -0.1044
  177MOL0     C23816   8.785   3.877   0.612 -0.2598 -0.4734  0.2386
  177MOL0     C23817   8.873   3.873   0.497  0.4755  0.2862 -0.2991
  177MOL0     C23818   8.980   3.789   0.487  0.0703 -1.4017 -0.0854
  177MOL0     O23819   9.066   3.805   0.379 -0.2434  0.5917 -0.4137
  177MOL0     C23820   9.170   3.897   0.398 -0.2736  0.2585  0.2639
  177MOL0     C23821   9.291   3.845   0.323  0.3887  0.1432  0.2954
  177MOL0     C23822   9.427   3.919   0.344  0.9182  0.0930  0.1695
  177MOL0     C23823   9.484   3.884   0.474 -0.9693  0.0609 -0.5490
  177MOL0     C23824   9.513   3.739   0.496 -0.2469  0.0192 -0.1653
  177MOL0     C23825   9.527   3.624   0.510 -0.3108 -0.2936 -0.0925
  177MOL0     C23826   9.009   3.705   0.590  0.2108 -0.4477  0.3629
  177MOL0     C23827   8.916   3.700   0.698 -0.0289 -0.3495 -0.6223
  177MOL0     H23828   8.351   3.884   0.726 -1.4371 -1.0488  0.3925
  177MOL0     H23829   8.143   3.884   0.851  0.6644  0.0047 -1.7704
  177MOL0     H23830   7.926   3.839   1.183  0.4197 -0.9211 -0.6113
  177MOL0     H23831   7.956   3.888   1.022 -0.2481  1.0672  0.3345
  177MOL0     H23832   7.872   3.677   1.014  2.0912 -1.4279 -3.4192
  177MOL0     H23833   8.040   3.643   0.986  2.4366  1.0160  0.6831
  177MOL0     H23834   7.898   3.603   1.263  0.8943  0.7283  0.6841
  177MOL0     H23835   7.895   3.490   1.129  1.6290 -1.3356  0.2172
  177MOL0     H23836   8.155   3.497   1.146  1.8209  1.3536  0.2275
  177MOL0     H23837   8.142   3.610   1.275 -0.9273  1.1044 -2.2823
  177MOL0     H23838   8.081   3.307   1.263  1.6372 -0.3408  0.8729
  177MOL0     H23839   8.184   3.380   1.361  1.5544  0.3857 -0.3726
  177MOL0     H23840   7.984   3.480   1.498 -0.6683 -1.3882  1.5104
  177MOL0     H23841   7.869   3.415   1.381  0.4504  0.6365  0.2447
  177MOL0     H23842   8.059   3.218   1.492 -0.3858 -3.6634 -1.2104
  177MOL0     H23843   7.938   3.261   1.591  5.6365  1.5246 -0.4712
  177MOL0     H23844   7.893   3.059   1.432 -1.4619 -0.2947  0.8760
  177MOL0     H23845   7.866   3.169   1.294 -0.4389 -0.2335 -1.8790
  177MOL0     H23846   7.703   3.090   1.652 -0.7942 -0.0716  0.2951
  177MOL0     H23847   7.374   3.105   1.657 -0.6802  1.6236 -0.2718
  177MOL0     H23848   7.473   3.187   1.776 -0.0476  1.1853  1.4099
  177MOL0     H23849   7.291   3.338   1.593  0.3945 -1.3718 -0.9168
  177MOL0     H23850   7.415   3.401   1.695 -1.9856  0.7031  2.2006
  177MOL0     H23851   7.289   3.273   1.897  1.2650  3.3394 -0.3408
  177MOL0     H23852   7.171   3.216   1.785  0.4773 -0.1524 -3.0179
  177MOL0     H23853   7.066   3.363   1.881 -1.9328 -1.9676 -2.3952
  177MOL0     H23854   7.105   3.444   1.724  0.3108 -0.2176 -0.0290
  177MOL0     H23855   6.976   3.504   1.996  1.4126 -1.2863 -0.2219
  177MOL0     H23856   6.846   3.489   2.182 -5.1789  2.5167  1.8709
  177MOL0     H23857   6.935   3.482   2.340 -1.7952 -1.7624 -0.1699
  177MOL0     H23858   6.836   3.615   2.293 -1.8311 -1.8307 -0.0079
  177MOL0     H23859   7.158   4.075   2.464 -1.3545 -0.6047  0.3643
  177MOL0     H23860   7.161   4.190   2.687  2.2700  0.3023 -2.0790
  177MOL0     H23861   7.189   4.121   3.112 -1.4875 -1.7982  2.0499
  177MOL0     H23862   7.178   3.951   3.064  2.5234  0.1548  2.5949
  177MOL0     H23863   7.385   3.949   3.077 -2.3381 -0.7291  0.7537
  177MOL0     H23864   7.399   4.006   2.914 -1.8162 -1.3534  0.4443
  177MOL0     H23865   7.426   4.183   3.164  0.8075 -0.0102 -0.3298
  177MOL0     H23866   7.424   4.228   2.989  2.6706  0.6176 -1.6538
  177MOL0     H23867   7.641   4.199   3.130  0.8268 -0.8127 -0.5610
  177MOL0     H23868   7.609   4.023   3.111  0.8795  0.3120  1.1029
  177MOL0     H23869   7.715   4.234   2.918 -0.8318  0.7939 -1.4915
  177MOL0     H23870   7.590   4.145   2.847 -0.2769  0.5787 -0.1210
  177MOL0     H23871   7.691   3.926   2.908  1.2889 -0.4819  0.0394
  177MOL0     H23872   7.776   4.025   2.783  2.1158 -0.0855 -0.2234
  177MOL0     H23873   7.837   3.997   3.079  1.5512  0.0434  0.2501
  177MOL0     H23874   7.929   4.103   2.978 -2.2728  2.1602  0.6382
  177MOL0     H23875   7.990   3.900   2.826  0.7911 -1.6918  0.1640
  177MOL0     H23876   7.888   3.801   2.921  0.7167  0.0373 -2.7822
  177MOL0     H23877   7.166   3.797   2.872 -4.1797  0.5088 -0.8879
  177MOL0     H23878   7.184   3.697   2.659 -1.8471  0.5058 -1.0286
  177MOL0     H23879   7.305   3.796   2.203  0.9765 -0.9940  1.8954
  177MOL0     H23880   7.328   3.721   1.968  0.1022  3.2798  1.2549
  177MOL0     H23881   8.362   3.826   1.209  0.1214 -0.9599 -0.4536
  177MOL0     H23882   8.571   3.788   1.085  0.3582  0.0551 -0.3477
  177MOL0     H23883   8.708   3.953   0.623 -0.4109 -1.0067  4.1972
  177MOL0     H23884   8.844   3.943   0.419 -0.0454  1.3868  0.8395
  177MOL0     H23885   9.139   3.992   0.353  2.1820  0.0450 -2.0894
  177MOL0     H23886   9.202   3.914   0.501 -1.1285  0.3217  0.5304
  177MOL0     H23887   9.250   3.847   0.222 -1.6469 -0.8098  1.0631
  177MOL0     H23888   9.302   3.738   0.343  0.3718 -0.1904 -1.3215
  177MOL0     H23889   9.408   4.022   0.310 -2.0972  0.1182  1.6393
  177MOL0     H23890   9.494   3.888   0.263 -1.2939  0.6649 -1.9997
  177MOL0     H23891   9.420   3.920   0.555 -0.5377 -3.1139  1.3775
  177MOL0     H23892   9.576   3.940   0.488 -1.5361  0.6317  1.0678
  177MOL0     H23893   9.534   3.519   0.534 -1.4904  0.3739  3.7724
  177MOL0     H23894   9.095   3.638   0.586  0.3616 -0.4042  2.0622
  177MOL0     H23895   8.947   3.644   0.785 -0.3191  1.0916  0.4464
  178MOL0     O23896   1.945   7.559   2.944  0.4733 -0.4260  0.0421
  178MOL0     C23897   2.042   7.590   2.874 -0.4981 -0.3254  0.9269
  178MOL0     O23898   2.068   7.527   2.752 -0.0219  0.2298  0.1854
  178MOL0     C23899   1.969   7.478   2.674  0.3422 -0.6835 -0.1911
  178MOL0     C23900   2.025   7.398   2.572  0.3141 -0.2042  0.2592
  178MOL0     C23901   1.945   7.346   2.478  0.1615  0.4693  0.4492
  178MOL0     C23902   1.806   7.356   2.476  0.9309 -0.7887 -0.0136
  178MOL0     O23903   1.731   7.291   2.378 -0.4988 -0.0914  0.1526
  178MOL0     C23904   1.590   7.298   2.387 -0.3929 -0.3149  0.8142
  178MOL0     C23905   1.530   7.185   2.293 -0.3921  0.4123 -0.3072
  178MOL0     C23906   1.548   7.227   2.147 -0.0666  0.5140 -0.4753
  178MOL0     C23907   1.553   7.112   2.045 -0.5588  0.9643  0.8565
  178MOL0     C23908   1.629   7.164   1.928 -0.3087 -0.1617  0.3839
  178MOL0     C23909   1.646   7.051   1.824  0.3575  0.5214  1.1724
  178MOL0     C23910   1.679   7.090   1.679  0.0018  0.5224 -0.0399
  178MOL0     C23911   1.834   7.123   1.664  0.5777  0.4745  0.0913
  178MOL0     N23912   1.908   6.996   1.643 -0.3587 -0.1577  0.1971
  178MOL0     C23913   1.951   6.909   1.736  0.1331  1.7216  0.1054
  178MOL0     C23914   2.030   6.814   1.683 -1.2999  0.4828  0.5156
  178MOL0     C23915   2.098   6.707   1.754 -0.1082  0.3949  0.2873
  178MOL0     C23916   2.243   6.729   1.777 -0.0327 -0.4775  0.2913
  178MOL0     C23917   2.281   6.862   1.840  0.0976 -1.1239 -1.0734
  178MOL0     C23918   2.419   6.872   1.919 -0.0201 -0.7095 -0.5180
  178MOL0     O23919   2.526   6.842   1.828  0.1089 -0.9493  0.1699
  178MOL0     C23920   2.659   6.887   1.850  1.1168  0.5654  0.2626
  178MOL0     C23921   2.707   6.948   1.964  0.0941  0.2798  0.5118
  178MOL0     C23922   2.849   6.977   1.977  0.0202  0.9498  0.3531
  178MOL0     C23923   2.881   7.037   2.113 -0.7319  0.3990  0.0309
  178MOL0     C23924   2.943   6.949   1.877  0.4976 -0.2592  0.1486
  178MOL0     C23925   3.084   6.980   1.881  0.2293 -0.7525 -0.0445
  178MOL0     O23926   3.154   6.995   1.769 -0.4339 -0.1492 -0.3588
  178MOL0     C23927   3.268   7.061   1.774  0.1535  0.1657 -0.0650
  178MOL0     C23928   3.307   7.158   1.865  0.0961 -0.1765 -0.2453
  178MOL0     C23929   3.429   7.223   1.840  0.2917  0.0816 -0.0486
  178MOL0     C23930   3.508   7.186   1.726 -0.5287  0.0272 -0.5328
  178MOL0     O23931   3.629   7.246   1.710  0.2126  0.4670  0.5762
  178MOL0     C23932   3.618   7.389   1.687  0.3589  1.2798  0.4424
  178MOL0     C23933   3.631   7.428   1.541  0.7841  0.3256 -0.3964
  178MOL0     C23934   3.667   7.575   1.520  0.1548 -0.2074 -0.7304
  178MOL0     C23935   3.722   7.612   1.380  0.3680 -0.6978  0.3995
  178MOL0     C23936   3.790   7.758   1.393  0.7654  0.8595 -0.3213
  178MOL0     C23937   3.686   7.867   1.372 -0.4082  0.3887  0.3061
  178MOL0     C23938   3.751   8.010   1.383  0.2092  0.5430  0.5010
  178MOL0     C23939   3.650   8.116   1.345  0.4656  1.1078  0.6561
  178MOL0    Cl23940   3.498   8.141   1.435  0.4441 -0.3275  0.1740
  178MOL0     C23941   3.467   7.082   1.644  0.1364  0.1284  0.8270
  178MOL0     C23942   3.348   7.028   1.672 -0.5475 -0.3535  0.3471
  178MOL0     O23943   3.133   6.976   1.990 -0.6724  0.2269  0.6806
  178MOL0     C23944   2.889   6.889   1.765  0.3250 -0.1452  0.8288
  178MOL0     C23945   2.749   6.863   1.754  0.4381 -0.1793 -0.0576
  178MOL0     N23946   2.042   6.845   1.544 -0.1658  0.4995  1.0679
  178MOL0     N23947   1.971   6.959   1.522  0.0664  0.5666 -0.6072
  178MOL0     C23948   1.751   7.442   2.574 -0.1689 -0.0072  0.2294
  178MOL0     C23949   1.828   7.514   2.672  0.4105  0.2238 -0.5896
  178MOL0     C23950   2.132   7.700   2.921  0.0119  0.1699 -0.7682
  178MOL0     C23951   2.239   7.747   2.845  1.1320  0.3061  0.0244
  178MOL0     C23952   2.323   7.848   2.895  0.6768  0.4400 -0.2007
  178MOL0     C23953   2.289   7.911   3.014 -0.4417 -0.2815  0.3153
  178MOL0     O23954   2.365   8.015   3.044  0.1779 -0.0731 -0.2787
  178MOL0     C23955   2.339   8.096   3.164  0.1556  0.5979 -0.5914
  178MOL0     C23956   2.424   8.221   3.159 -0.0486 -0.0267  0.5012
  178MOL0     C23957   2.573   8.194   3.149 -0.1781  0.7728 -0.3239
  178MOL0     C23958   2.617   8.194   2.998 -0.6274 -1.3086 -0.8177
  178MOL0     C23959   2.762   8.226   2.989 -0.6666 -0.6362 -0.0104
  178MOL0     C23960   2.880   8.264   2.983  0.7455  0.7100 -0.1826
  178MOL0     C23961   2.183   7.862   3.098 -0.5661 -0.4888  0.0584
  178MOL0     C23962   2.100   7.763   3.050 -0.0521  0.6348  0.4676
  178MOL0     H23963   2.127   7.364   2.584 -0.0976 -1.8963 -0.8057
  178MOL0     H23964   1.992   7.293   2.395 -1.0949  0.5640 -0.3543
  178MOL0     H23965   1.573   7.266   2.490  1.1832  0.4376  1.3456
  178MOL0     H23966   1.546   7.393   2.357  5.2909  2.1720 -1.0288
  178MOL0     H23967   1.597   7.099   2.298 -0.3449  0.5275  1.4803
  178MOL0     H23968   1.426   7.170   2.325  0.4681  0.9665  3.0363
  178MOL0     H23969   1.479   7.309   2.124  1.5840  3.0086  2.5815
  178MOL0     H23970   1.646   7.275   2.160 -0.2345  0.9467 -0.7844
  178MOL0     H23971   1.597   7.014   2.068 -2.1295 -0.5266 -1.9251
  178MOL0     H23972   1.449   7.085   2.024 -0.8169  1.6793  1.1849
  178MOL0     H23973   1.574   7.245   1.880  0.7544 -0.7007 -1.9033
  178MOL0     H23974   1.730   7.200   1.951  0.4844  1.8806 -4.8214
  178MOL0     H23975   1.721   6.980   1.861  0.5101  0.2232  0.3189
  178MOL0     H23976   1.545   7.011   1.812 -0.1771  1.9655  0.7040
  178MOL0     H23977   1.655   7.007   1.611  0.9873  1.1536 -1.2031
  178MOL0     H23978   1.608   7.169   1.654 -2.5938 -0.9704  2.1216
  178MOL0     H23979   1.870   7.167   1.758 -0.5335  0.4713  0.5277
  178MOL0     H23980   1.849   7.190   1.579 -0.2296 -0.4368 -0.7940
  178MOL0     H23981   1.937   6.930   1.842  0.4754  0.6978  0.3657
  178MOL0     H23982   2.046   6.692   1.849  0.5138  1.0229  0.7390
  178MOL0     H23983   2.086   6.614   1.697 -0.6840  0.1774  0.7524
  178MOL0     H23984   2.306   6.723   1.688 -2.3760 -0.0620 -1.5013
  178MOL0     H23985   2.268   6.639   1.835  0.1544 -1.5769 -1.4031
  178MOL0     H23986   2.213   6.906   1.913  1.4666 -0.3217 -0.2408
  178MOL0     H23987   2.287   6.925   1.751 -1.6061 -0.9479 -1.1040
  178MOL0     H23988   2.418   6.806   2.007  0.1551  1.6707  1.3739
  178MOL0     H23989   2.426   6.971   1.966  3.2291  0.1792 -2.5877
  178MOL0     H23990   2.638   6.969   2.045  0.4946  1.0303  0.6653
  178MOL0     H23991   2.939   7.129   2.109  0.3996 -0.3045  0.0239
  178MOL0     H23992   2.787   7.073   2.155  0.3090 -0.3087  3.1996
  178MOL0     H23993   2.938   6.976   2.184  1.9968  3.7922  1.0168
  178MOL0     H23994   3.243   7.185   1.949  1.2282  1.9418  0.0145
  178MOL0     H23995   3.472   7.289   1.915  0.4556  0.7828 -0.7406
  178MOL0     H23996   3.524   7.435   1.720 -0.9021  0.7303 -2.1307
  178MOL0     H23997   3.700   7.441   1.738 -0.5154  1.8282  1.3223
  178MOL0     H23998   3.719   7.376   1.503 -0.8231 -1.9475 -1.3099
  178MOL0     H23999   3.554   7.386   1.474  1.2351 -4.1877  1.5340
  178MOL0     H24000   3.738   7.600   1.599 -0.7427  1.0558 -0.2787
  178MOL0     H24001   3.583   7.638   1.551  1.6217  1.0125  0.9823
  178MOL0     H24002   3.805   7.547   1.349  0.5057 -1.6794  2.5689
  178MOL0     H24003   3.637   7.615   1.312  0.8154  0.2799 -0.1311
  178MOL0     H24004   3.867   7.766   1.316  2.7058 -0.1075  1.4313
  178MOL0     H24005   3.837   7.783   1.488 -0.9182 -0.2566  0.8747
  178MOL0     H24006   3.651   7.852   1.269  0.3978 -1.5403  0.2705
  178MOL0     H24007   3.602   7.862   1.442 -1.8808  1.2236 -1.3272
  178MOL0     H24008   3.841   8.017   1.321 -0.9603  0.5210 -1.2601
  178MOL0     H24009   3.775   8.027   1.489  0.5064  1.1505  0.3452
  178MOL0     H24010   3.616   8.094   1.243  0.7479 -1.3195  1.0177
  178MOL0     H24011   3.689   8.217   1.334 -1.2465  1.5092 -4.2348
  178MOL0     H24012   3.533   7.051   1.563 -0.4130 -0.3066  0.5388
  178MOL0     H24013   3.339   6.932   1.623  2.5288 -1.0845  0.9784
  178MOL0     H24014   2.946   6.860   1.677  1.6916  0.0642  1.6171
  178MOL0     H24015   2.708   6.816   1.666  1.0936 -1.2135  0.1698
  178MOL0     H24016   1.646   7.466   2.589 -0.1373 -0.2971  0.9866
  178MOL0     H24017   1.785   7.577   2.749 -2.5007 -3.6614  1.3344
  178MOL0     H24018   2.266   7.711   2.746 -4.3917 -3.3227 -0.6183
  178MOL0     H24019   2.402   7.880   2.828  0.9422 -3.0498 -1.8029
  178MOL0     H24020   2.239   8.141   3.167  0.4879  1.7278 -3.4627
  178MOL0     H24021   2.364   8.033   3.251  2.4759  0.6318 -1.1770
  178MOL0     H24022   2.398   8.291   3.239 -0.0095  1.1289 -0.4604
  178MOL0     H24023   2.390   8.266   3.065 -0.2346  2.8617  1.8466
  178MOL0     H24024   2.620   8.109   3.201  1.5430  2.3449  0.8069
  178MOL0     H24025   2.619   8.280   3.198  1.7767 -0.4042  0.0740
  178MOL0     H24026   2.574   8.269   2.930  1.9160  0.4655 -0.6112
  178MOL0     H24027   2.586   8.099   2.954 -2.6640 -0.5085 -1.2485
  178MOL0     H24028   2.983   8.292   2.977  0.8559  1.4971  3.3721
  178MOL0     H24029   2.166   7.913   3.192  1.2471 -0.9521  0.6945
  178MOL0     H24030   2.015   7.741   3.113 -0.9596  1.9665 -0.2357
  179MOL0     O24031   2.098   9.325   2.994  0.3145 -0.1123  1.0370
  179MOL0     C24032   2.005   9.251   3.030 -0.1857  0.4326  0.0338
  179MOL0     O24033   2.021   9.133   3.095  0.1038 -0.5511  0.6099
  179MOL0     C24034   2.150   9.119   3.146 -0.5484  0.2429  0.6170
  179MOL0     C24035   2.163   9.118   3.284 -0.6670 -0.4985  0.4334
  179MOL0     C24036   2.278   9.076   3.350  0.8261 -0.5014  0.0893
  179MOL0     C24037   2.397   9.055   3.274  0.3762 -0.8478  0.5473
  179MOL0     O24038   2.515   9.013   3.317 -0.2164 -0.4198 -0.1100
  179MOL0     C24039   2.530   8.994   3.452  0.2846 -1.5146  0.6572
  179MOL0     C24040   2.562   9.138   3.517  0.0688 -1.1308  0.7691
  179MOL0     C24041   2.702   9.201   3.470 -0.4617 -0.1824  0.0060
  179MOL0     C24042   2.710   9.350   3.514 -0.2262  0.3315 -0.4517
  179MOL0     C24043   2.848   9.406   3.497  0.7222  0.2218 -0.0473
  179MOL0     C24044   2.850   9.560   3.499  0.3280 -0.0859 -0.1319
  179MOL0     C24045   2.837   9.612   3.647  0.3536 -0.4318  0.0601
  179MOL0     C24046   2.883   9.759   3.675  0.4302  0.0132 -0.2724
  179MOL0     N24047   3.024   9.786   3.682 -0.6322 -0.6595 -0.4579
  179MOL0     C24048   3.082   9.888   3.608 -0.7982  1.0448 -0.0866
  179MOL0     C24049   3.213   9.892   3.656  0.1423 -0.9837  0.5978
  179MOL0     C24050   3.309   9.994   3.607 -0.3435  0.0355  0.8777
  179MOL0     C24051   3.356   9.953   3.457 -0.0570 -0.0122  0.2370
  179MOL0     C24052   3.394  10.076   3.368  0.0429  0.5928  0.1990
  179MOL0     C24053   3.546  10.114   3.372  0.3680 -0.0174  0.3410
  179MOL0     O24054   3.565  10.153   3.511  0.1407  0.2023  0.2870
  179MOL0     C24055   3.693  10.193   3.542 -0.1548  0.3441  0.1552
  179MOL0     C24056   3.759  10.288   3.466 -0.9698  0.2925  0.4408
  179MOL0     C24057   3.890  10.337   3.495  0.3773  1.0868  0.2268
  179MOL0     C24058   3.933  10.472   3.452 -1.3521  0.6075 -0.2278
  179MOL0     C24059   3.966  10.266   3.592  0.1559  0.4743  0.2851
  179MOL0     C24060   4.109  10.301   3.620 -0.4332  0.3413 -0.0570
  179MOL0     O24061   4.159  10.272   3.747 -0.0118 -0.3068  0.6051
  179MOL0     C24062   4.283  10.319   3.769 -0.1759 -0.3530 -0.6264
  179MOL0     C24063   4.305  10.459   3.793 -0.3479  0.2477 -0.5100
  179MOL0     C24064   4.429  10.498   3.844 -0.5288 -0.2637 -0.1542
  179MOL0     C24065   4.536  10.410   3.850  1.0165 -0.1740  0.0483
  179MOL0     O24066   4.663  10.438   3.890 -0.0350  0.6987 -0.6455
  179MOL0     C24067   4.711  10.571   3.891  0.1359  0.4767  1.1418
  179MOL0     C24068   4.858  10.594   3.935  0.1348  0.5446 -0.9980
  179MOL0     C24069   4.962  10.539   3.836 -0.1285  0.0817  0.2540
  179MOL0     C24070   5.103  10.585   3.878 -0.8294 -0.0537 -0.0096
  179MOL0     C24071   5.165  10.533   4.008  0.3453 -0.4206  0.3566
  179MOL0     C24072   5.316  10.556   4.018 -0.7462 -0.4121 -0.3057
  179MOL0     C24073   5.380  10.471   3.904 -1.3422 -0.1818  0.5987
  179MOL0     C24074   5.533  10.458   3.928 -0.2228 -0.1318 -1.2182
  179MOL0    Cl24075   5.599  10.312   3.847  0.1892  0.0368 -0.3797
  179MOL0     C24076   4.511  10.276   3.807 -0.8909  0.1728 -0.0774
  179MOL0     C24077   4.388  10.232   3.771  0.1948 -0.3456  0.6919
  179MOL0     O24078   4.178  10.347   3.531 -0.2590  0.5799  0.2352
  179MOL0     C24079   3.891  10.170   3.667 -0.7361 -1.1050  0.3235
  179MOL0     C24080   3.753  10.143   3.649 -0.5419 -0.0836  0.4244
  179MOL0     N24081   3.237   9.782   3.735 -0.0013  0.3329 -0.0739
  179MOL0     N24082   3.127   9.718   3.748 -0.2072 -0.9826 -0.4072
  179MOL0     C24083   2.381   9.064   3.133 -0.3816 -0.2198  0.0577
  179MOL0     C24084   2.267   9.104   3.072  0.7527 -0.3090  0.1304
  179MOL0     C24085   1.868   9.280   2.979 -0.2057  0.4886 -1.1691
  179MOL0     C24086   1.842   9.388   2.895  0.0073  0.9626  0.7504
  179MOL0     C24087   1.718   9.411   2.841 -0.4696  0.3569 -0.4880
  179MOL0     C24088   1.605   9.332   2.886 -1.3197 -0.1442 -1.0382
  179MOL0     O24089   1.486   9.346   2.832  0.2956 -0.4349 -0.3104
  179MOL0     C24090   1.396   9.246   2.818  0.2921  1.1441  0.9633
  179MOL0     C24091   1.260   9.293   2.755 -0.8431 -0.6573  0.3743
  179MOL0     C24092   1.210   9.411   2.840 -0.3703 -0.7346 -0.5044
  179MOL0     C24093   1.069   9.447   2.806  1.5374 -0.2224  0.0597
  179MOL0     C24094   1.057   9.515   2.672  0.3475  0.2281 -0.1134
  179MOL0     C24095   1.051   9.559   2.563  0.3055 -0.4678  0.1045
  179MOL0     C24096   1.628   9.232   2.988 -0.0566 -0.8442  0.5666
  179MOL0     C24097   1.760   9.209   3.030 -0.8964  0.7478 -0.1834
  179MOL0     H24098   2.079   9.132   3.350 -0.5341 -1.5641  0.8477
  179MOL0     H24099   2.273   9.070   3.458 -0.8271 -0.7060  0.0208
  179MOL0     H24100   2.443   8.943   3.496  1.5146 -2.0554  2.5652
  179MOL0     H24101   2.622   8.936   3.465  2.6569  1.4485 -1.5937
  179MOL0     H24102   2.495   9.218   3.484  4.6472  2.9254  0.1687
  179MOL0     H24103   2.562   9.116   3.624  0.8801 -2.5275  0.5141
  179MOL0     H24104   2.786   9.142   3.508 -1.2307 -2.4629 -1.6126
  179MOL0     H24105   2.713   9.192   3.362 -1.0283  1.9301 -0.2717
  179MOL0     H24106   2.634   9.418   3.474 -3.9765 -2.1457  1.8969
  179MOL0     H24107   2.688   9.363   3.620 -0.7309  2.4652 -0.7667
  179MOL0     H24108   2.916   9.376   3.577 -0.1968  2.7279  1.7864
  179MOL0     H24109   2.883   9.369   3.400  2.5432  2.9783 -0.5536
  179MOL0     H24110   2.950   9.595   3.476  1.3012 -3.1519 -1.1027
  179MOL0     H24111   2.765   9.607   3.447 -3.2355 -2.4309  3.0090
  179MOL0     H24112   2.738   9.603   3.692 -0.4202 -0.7738 -1.6203
  179MOL0     H24113   2.897   9.543   3.707 -1.0156  0.5706  2.7187
  179MOL0     H24114   2.840   9.784   3.773  1.8440  1.1911  0.0742
  179MOL0     H24115   2.848   9.821   3.593 -1.0899  1.3086  1.2674
  179MOL0     H24116   3.042   9.958   3.535 -0.5677  0.7271 -0.5254
  179MOL0     H24117   3.260  10.092   3.602  2.3855  1.4538 -0.1067
  179MOL0     H24118   3.395   9.994   3.675  3.3616 -1.8924 -3.3330
  179MOL0     H24119   3.269   9.919   3.399  2.4228 -1.3255 -3.0795
  179MOL0     H24120   3.424   9.870   3.436  0.5071  0.9601 -2.0855
  179MOL0     H24121   3.331  10.165   3.385 -0.0369  0.8544 -1.2949
  179MOL0     H24122   3.376  10.045   3.265 -0.2248  1.7814 -0.1311
  179MOL0     H24123   3.577  10.188   3.298  0.0831 -1.0373 -0.8303
  179MOL0     H24124   3.601  10.022   3.348 -1.2743 -1.0508  0.4082
  179MOL0     H24125   3.694  10.335   3.392 -2.0925 -1.0993  0.4895
  179MOL0     H24126   3.979  10.529   3.533  0.8287 -1.7642  0.3050
  179MOL0     H24127   4.002  10.481   3.368  1.7409 -0.7571  1.9844
  179MOL0     H24128   3.843  10.523   3.414 -0.7668  0.1988 -2.2698
  179MOL0     H24129   4.229  10.536   3.804 -0.1848  0.0939  2.8924
  179MOL0     H24130   4.448  10.600   3.877  2.4938 -0.4776 -0.8771
  179MOL0     H24131   4.699  10.617   3.792 -0.8202 -1.3756  0.3404
  179MOL0     H24132   4.648  10.623   3.963 -0.7754 -1.3818  1.7532
  179MOL0     H24133   4.872  10.703   3.939  1.3885  0.4217 -1.5031
  179MOL0     H24134   4.877  10.542   4.029 -0.9144 -0.4317 -1.3038
  179MOL0     H24135   4.941  10.582   3.737 -2.7124  0.7845  1.0548
  179MOL0     H24136   4.958  10.430   3.829 -0.1234  0.1857 -2.5794
  179MOL0     H24137   5.173  10.577   3.794 -0.2402  0.9680  0.3606
  179MOL0     H24138   5.107  10.694   3.882 -3.9489  0.2121 -1.3335
  179MOL0     H24139   5.130  10.431   4.025 -0.0698 -0.1308  1.3501
  179MOL0     H24140   5.116  10.585   4.092 -1.2624 -0.9184 -0.2323
  179MOL0     H24141   5.348  10.661   4.021 -3.8776  0.7015 -1.7809
  179MOL0     H24142   5.343  10.518   4.117 -0.7018  2.5571  0.9146
  179MOL0     H24143   5.373  10.519   3.806 -4.2799  1.1854  1.3567
  179MOL0     H24144   5.331  10.374   3.896  0.2882 -0.9942  0.0543
  179MOL0     H24145   5.561  10.435   4.031  0.5060  1.4336 -1.0364
  179MOL0     H24146   5.584  10.537   3.872 -1.2490  1.1343 -0.4096
  179MOL0     H24147   4.598  10.212   3.805  1.3031  2.9586 -1.7415
  179MOL0     H24148   4.375  10.125   3.754  0.3772  0.0070 -2.0905
  179MOL0     H24149   3.953  10.107   3.729  1.1935 -1.6188 -1.9816
  179MOL0     H24150   3.701  10.074   3.715  0.1848  0.0365  1.1420
  179MOL0     H24151   2.469   9.049   3.071 -0.5405 -0.5616 -0.0893
  179MOL0     H24152   2.262   9.123   2.966  1.3647  1.4886  0.3970
  179MOL0     H24153   1.919   9.454   2.856 -1.5287  0.7388 -3.0748
  179MOL0     H24154   1.694   9.492   2.773 -1.9449  2.1329  1.9620
  179MOL0     H24155   1.438   9.174   2.747 -0.9569  1.9770 -0.6947
  179MOL0     H24156   1.373   9.196   2.913 -2.4576  4.3331  2.1701
  179MOL0     H24157   1.181   9.218   2.766 -2.8225  0.8768 -2.0948
  179MOL0     H24158   1.274   9.316   2.649 -0.9855 -1.2805  0.2205
  179MOL0     H24159   1.271   9.500   2.822 -0.0117 -0.9350 -0.2894
  179MOL0     H24160   1.198   9.379   2.944  1.3361 -0.5955 -0.2443
  179MOL0     H24161   1.036   9.517   2.884  0.1175  0.1681 -0.8500
  179MOL0     H24162   0.999   9.363   2.800  0.8640  0.2085  1.6162
  179MOL0     H24163   1.056   9.613   2.471  0.6718  1.1581  1.0382
  179MOL0     H24164   1.544   9.177   3.027 -2.1960  1.6581 -0.2126
  179MOL0     H24165   1.779   9.137   3.109 -2.4214  2.8402  2.2509
  180MOL0     O24166   9.785   7.476   0.488 -0.3742  0.2895 -0.1021
  180MOL0     C24167   9.751   7.497   0.372 -1.2812  0.0811 -0.3429
  180MOL0     O24168   9.807   7.574   0.282 -0.3966  1.0188 -0.4657
  180MOL0     C24169   9.919   7.648   0.312 -0.6779 -0.8298  0.2731
  180MOL0     C24170   9.935   7.773   0.245 -0.9395 -0.2120  0.3252
  180MOL0     C24171  10.048   7.853   0.268  0.1601  0.0655  0.3168
  180MOL0     C24172  10.149   7.805   0.353  0.7580 -0.1925  0.5193
  180MOL0     O24173  10.259   7.869   0.378  0.1004  0.8568 -0.2803
  180MOL0     C24174  10.255   7.979   0.461  0.6242  0.7302 -1.3345
  180MOL0     C24175  10.400   8.031   0.484  0.2472  0.6642 -0.3168
  180MOL0     C24176  10.483   8.037   0.362 -0.5008 -0.4008  0.2856
  180MOL0     C24177  10.613   8.118   0.393  0.4905  0.0872 -0.3639
  180MOL0     C24178  10.728   8.091   0.306 -0.4529 -0.0766 -0.4462
  180MOL0     C24179  10.716   8.146   0.159 -0.2490 -0.3810 -0.2484
  180MOL0     C24180  10.825   8.082   0.074  0.3774  0.2489  0.5218
  180MOL0     C24181  10.811   8.103  -0.073 -0.1034 -1.1774 -0.7907
  180MOL0     N24182  10.795   8.246  -0.113 -0.3439  0.9690 -0.1890
  180MOL0     C24183  10.890   8.322  -0.179  0.0063  0.2424  0.2165
  180MOL0     C24184  10.823   8.438  -0.221 -0.0117 -0.0527  0.3469
  180MOL0     C24185  10.865   8.556  -0.283 -1.1912 -0.6457 -0.4602
  180MOL0     C24186  11.003   8.602  -0.224 -0.3080 -0.0371 -0.0384
  180MOL0     C24187  11.054   8.736  -0.286 -0.0579  0.3723 -0.4765
  180MOL0     C24188  11.154   8.801  -0.191  0.0091 -0.7651 -0.0984
  180MOL0     O24189  11.263   8.847  -0.275 -0.5623 -0.7903  0.3847
  180MOL0     C24190  11.381   8.777  -0.297  0.3044 -0.6470  0.3170
  180MOL0     C24191  11.503   8.838  -0.287 -0.2547 -0.1439 -0.9077
  180MOL0     C24192  11.623   8.775  -0.277  0.0371 -0.0044  0.1727
  180MOL0     C24193  11.748   8.871  -0.262 -0.1045  0.6268  1.0060
  180MOL0     C24194  11.623   8.633  -0.293 -0.6918  0.2910 -1.1191
  180MOL0     C24195  11.753   8.551  -0.274 -0.1824  0.5332  0.7147
  180MOL0     O24196  11.728   8.417  -0.282  1.0083  0.2532  0.0747
  180MOL0     C24197  11.822   8.318  -0.253  0.9499  0.5121 -0.1130
  180MOL0     C24198  11.965   8.331  -0.248 -0.1757  0.0003  0.1684
  180MOL0     C24199  12.045   8.214  -0.224  0.4382 -0.3145 -0.1797
  180MOL0     C24200  11.980   8.093  -0.215 -0.1083 -0.2950 -0.3941
  180MOL0     O24201  12.067   7.986  -0.222  0.8112  0.3004  0.0549
  180MOL0     C24202  12.107   7.915  -0.100  0.2491 -1.3284  0.2579
  180MOL0     C24203  12.260   7.916  -0.095  0.5422  0.6582 -0.5981
  180MOL0     C24204  12.334   7.885  -0.238  0.6852  0.8898  0.0905
  180MOL0     C24205  12.480   7.876  -0.209  0.3489  0.3757  0.0492
  180MOL0     C24206  12.547   7.747  -0.263  0.3805 -0.4503 -0.0917
  180MOL0     C24207  12.487   7.618  -0.202 -0.6618  0.3838 -0.6517
  180MOL0     C24208  12.587   7.497  -0.197 -0.7129 -0.1406 -0.5880
  180MOL0     C24209  12.529   7.353  -0.174 -0.4132 -0.9120 -0.2165
  180MOL0    Cl24210  12.482   7.352  -0.010 -0.0406 -0.1227 -0.0491
  180MOL0     C24211  11.846   8.078  -0.217  0.3362 -0.5356  0.5439
  180MOL0     C24212  11.763   8.187  -0.240  0.1140  0.2283 -0.1437
  180MOL0     O24213  11.860   8.604  -0.261 -0.3595 -0.4899 -0.5684
  180MOL0     C24214  11.503   8.565  -0.308 -0.5014  0.1040  0.0614
  180MOL0     C24215  11.375   8.634  -0.309 -0.6111 -0.3379  0.0872
  180MOL0     N24216  10.686   8.421  -0.184 -0.6072  1.2959 -0.0625
  180MOL0     N24217  10.671   8.303  -0.134  0.0598  1.7976  0.4593
  180MOL0     C24218  10.127   7.684   0.419  0.3785 -0.2325  0.2190
  180MOL0     C24219  10.019   7.604   0.387 -0.7478 -0.1539  0.4461
  180MOL0     C24220   9.610   7.446   0.354 -0.0554  0.2460 -0.7083
  180MOL0     C24221   9.547   7.340   0.411  0.5337  0.0155 -0.8522
  180MOL0     C24222   9.426   7.284   0.358 -0.2396 -1.3991 -0.0799
  180MOL0     C24223   9.369   7.343   0.244  1.0328 -0.8754 -0.6182
  180MOL0     O24224   9.252   7.294   0.195 -0.3715  1.2282 -0.6895
  180MOL0     C24225   9.194   7.358   0.083 -0.7183 -0.4903 -0.0740
  180MOL0     C24226   9.069   7.263   0.050  0.1865 -0.3992  0.2240
  180MOL0     C24227   9.001   7.322  -0.077 -0.2631 -0.4858  0.1477
  180MOL0     C24228   8.887   7.234  -0.129 -0.3176  1.1835  0.3283
  180MOL0     C24229   8.933   7.135  -0.235 -0.7678 -0.1925 -0.1994
  180MOL0     C24230   8.963   7.049  -0.316 -0.1832 -0.3606  0.5204
  180MOL0     C24231   9.430   7.453   0.185  0.1536 -1.0264  0.9536
  180MOL0     C24232   9.545   7.508   0.240 -0.0675  0.6774  0.2914
  180MOL0     H24233   9.852   7.817   0.190 -1.9944 -0.2810  1.8096
  180MOL0     H24234  10.050   7.956   0.232 -0.1509 -0.2713 -0.6922
  180MOL0     H24235  10.187   8.051   0.414 -0.1615 -0.0663 -1.4438
  180MOL0     H24236  10.224   7.961   0.564 -0.4212  1.2809 -1.5371
  180MOL0     H24237  10.390   8.122   0.543  2.7481  0.5789  0.3449
  180MOL0     H24238  10.459   7.968   0.551 -1.3684 -0.9610 -0.3745
  180MOL0     H24239  10.514   7.939   0.325  1.7367  0.3795 -0.0509
  180MOL0     H24240  10.426   8.087   0.282  0.3550  0.4842  0.2157
  180MOL0     H24241  10.591   8.224   0.402  0.1897 -0.0946  1.3797
  180MOL0     H24242  10.643   8.087   0.494 -1.2736  2.9719  1.1754
  180MOL0     H24243  10.809   8.139   0.362 -2.3067  1.7810  0.8159
  180MOL0     H24244  10.762   7.988   0.296  3.2967  0.8174  1.3730
  180MOL0     H24245  10.618   8.124   0.116 -1.2561  1.5810  0.8465
  180MOL0     H24246  10.721   8.256   0.158 -2.8108 -0.1200  2.1313
  180MOL0     H24247  10.927   8.112   0.101  0.1023  0.9431  0.7919
  180MOL0     H24248  10.829   7.973   0.083 -2.3086  0.0124 -0.3124
  180MOL0     H24249  10.718   8.049  -0.090  0.1852 -2.3155  0.9921
  180MOL0     H24250  10.901   8.065  -0.122  2.9757  2.7161  1.1955
  180MOL0     H24251  10.996   8.306  -0.193 -0.2180 -1.5350  0.3450
  180MOL0     H24252  10.872   8.529  -0.389  1.6164 -1.2785 -0.1967
  180MOL0     H24253  10.808   8.648  -0.266 -1.0582 -0.7454  0.5442
  180MOL0     H24254  11.090   8.539  -0.248  1.8727  2.3234  1.1329
  180MOL0     H24255  11.015   8.601  -0.115  2.5421  1.4564 -0.2397
  180MOL0     H24256  10.984   8.817  -0.310  1.1276  1.2604 -1.0362
  180MOL0     H24257  11.108   8.711  -0.378  3.0850 -2.9448  1.9803
  180MOL0     H24258  11.200   8.731  -0.122  0.4191 -0.8875 -0.4878
  180MOL0     H24259  11.108   8.882  -0.134 -2.1633 -2.0303  0.0372
  180MOL0     H24260  11.492   8.946  -0.280 -2.3855 -0.4104  0.8710
  180MOL0     H24261  11.805   8.844  -0.350 -0.0989 -0.7884  1.4244
  180MOL0     H24262  11.708   8.973  -0.275 -2.6997  0.0870  3.5746
  180MOL0     H24263  11.802   8.868  -0.167 -1.8263 -2.1525  2.0167
  180MOL0     H24264  12.013   8.426  -0.272 -2.0348  1.0246  0.3389
  180MOL0     H24265  12.154   8.213  -0.226  0.4726 -1.6191  0.6362
  180MOL0     H24266  12.059   7.958  -0.012  2.4056 -0.7286  1.1939
  180MOL0     H24267  12.073   7.812  -0.110  3.9918 -2.9953  2.4632
  180MOL0     H24268  12.294   8.015  -0.063  0.3630  1.1286 -1.8031
  180MOL0     H24269  12.285   7.836  -0.025  0.5236  1.5224  0.4252
  180MOL0     H24270  12.309   7.970  -0.302 -4.6794  0.1702  0.8020
  180MOL0     H24271  12.288   7.798  -0.285  1.7517  0.5354 -0.3315
  180MOL0     H24272  12.526   7.955  -0.268 -0.0801  0.3604 -0.3158
  180MOL0     H24273  12.488   7.891  -0.101 -3.6705 -0.1915  0.5950
  180MOL0     H24274  12.654   7.745  -0.239  0.4482 -2.3902 -0.4223
  180MOL0     H24275  12.540   7.741  -0.372 -2.5602  0.5496 -0.0443
  180MOL0     H24276  12.450   7.640  -0.101 -0.6355  0.8131 -0.7350
  180MOL0     H24277  12.408   7.586  -0.270 -1.4389 -1.4668  1.0099
  180MOL0     H24278  12.665   7.508  -0.120 -0.0234  1.2131 -1.4521
  180MOL0     H24279  12.638   7.496  -0.294  1.9922 -4.6212  0.5561
  180MOL0     H24280  12.599   7.269  -0.185  0.6481 -0.3923  1.9790
  180MOL0     H24281  12.437   7.326  -0.226 -0.8045 -0.9343  0.4751
  180MOL0     H24282  11.796   7.982  -0.214  1.9008 -1.3661  1.0712
  180MOL0     H24283  11.655   8.176  -0.243 -0.1568  2.1474  0.8601
  180MOL0     H24284  11.503   8.457  -0.322  0.1357  0.3238 -1.9343
  180MOL0     H24285  11.283   8.580  -0.330 -0.4944 -2.8087  4.5430
  180MOL0     H24286  10.207   7.653   0.486 -0.0780 -4.1966 -0.8719
  180MOL0     H24287  10.013   7.503   0.427 -1.6140 -0.3225 -0.0737
  180MOL0     H24288   9.591   7.290   0.497 -3.4427  0.8189  1.9188
  180MOL0     H24289   9.387   7.194   0.403  0.1813 -1.8600 -0.6323
  180MOL0     H24290   9.189   7.464   0.109  2.8410 -0.7508  2.3908
  180MOL0     H24291   9.274   7.348   0.009  0.1477 -0.2054  0.8102
  180MOL0     H24292   8.984   7.264   0.118 -0.6388 -0.7576 -0.7654
  180MOL0     H24293   9.096   7.159   0.030 -4.7962 -1.7135 -1.0436
  180MOL0     H24294   9.078   7.331  -0.154 -0.6708  1.4796 -0.0824
  180MOL0     H24295   8.964   7.419  -0.043  2.3539 -0.1300  2.3808
  180MOL0     H24296   8.816   7.295  -0.185 -1.0705  0.8676  0.9308
  180MOL0     H24297   8.833   7.181  -0.050 -1.3083  2.4544  0.5290
  180MOL0     H24298   8.984   6.972  -0.388 -0.8855  1.5547 -1.8462
  180MOL0     H24299   9.397   7.505   0.095  4.1233  2.1460  1.0373
  180MOL0     H24300   9.582   7.595   0.187 -1.3419  2.7791  2.6192
  181MOL0     O24301   7.482   9.649   5.519  0.3856 -0.1102 -0.5538
  181MOL0     C24302   7.432   9.557   5.462  0.3647 -0.3769  0.5054
  181MOL0     O24303   7.365   9.452   5.518 -0.0359 -0.3714  0.2384
  181MOL0     C24304   7.335   9.451   5.647 -0.3598  0.3533 -0.2614
  181MOL0     C24305   7.347   9.326   5.715 -0.5366  0.4581 -0.8040
  181MOL0     C24306   7.310   9.313   5.848  0.8061 -0.2949 -0.6728
  181MOL0     C24307   7.274   9.427   5.917 -0.3706  0.8510  0.1807
  181MOL0     O24308   7.240   9.401   6.049 -0.2794 -0.0259  0.1668
  181MOL0     C24309   7.326   9.429   6.156 -0.0406  0.3585  0.0639
  181MOL0     C24310   7.265   9.548   6.239 -0.4522 -1.0271  0.0500
  181MOL0     C24311   7.307   9.516   6.392 -0.8686 -0.2915  0.2472
  181MOL0     C24312   7.272   9.646   6.478 -0.6981 -0.7314 -0.0680
  181MOL0     C24313   7.312   9.625   6.625 -0.3231 -1.2776 -0.0791
  181MOL0     C24314   7.319   9.760   6.696 -0.3342 -0.3408 -0.6105
  181MOL0     C24315   7.337   9.739   6.849  0.0592 -0.8434 -0.8438
  181MOL0     C24316   7.425   9.845   6.906 -0.0628 -0.0950 -0.2153
  181MOL0     N24317   7.434   9.832   7.055  0.4669 -0.1281 -0.0053
  181MOL0     C24318   7.342   9.871   7.151  0.2423  0.4408  1.2231
  181MOL0     C24319   7.398   9.854   7.274 -0.1472  0.4135  0.7102
  181MOL0     C24320   7.327   9.894   7.397  0.0106 -0.3964  0.0647
  181MOL0     C24321   7.377   9.820   7.523 -0.2627  0.0569  0.8703
  181MOL0     C24322   7.316   9.876   7.652  0.1151  0.3736 -0.4349
  181MOL0     C24323   7.375  10.016   7.691  0.3057 -0.3339 -0.1176
  181MOL0     O24324   7.328  10.064   7.824 -0.4508  0.6384 -0.0024
  181MOL0     C24325   7.412  10.026   7.929  0.4243  0.6015  0.0694
  181MOL0     C24326   7.550  10.067   7.931  0.9228  0.7838  0.1703
  181MOL0     C24327   7.639  10.014   8.029 -0.7709  0.5613 -0.8862
  181MOL0     C24328   7.788  10.053   8.018  0.3557 -0.4032 -0.0304
  181MOL0     C24329   7.595   9.923   8.123 -0.7539 -0.2107  0.2388
  181MOL0     C24330   7.682   9.870   8.235  0.1683  0.2052  0.9176
  181MOL0     O24331   7.648   9.919   8.359 -0.2911  0.1126 -0.5890
  181MOL0     C24332   7.742   9.904   8.460  0.3291 -0.2064  0.3870
  181MOL0     C24333   7.708   9.848   8.579 -0.0185 -0.3341 -0.2803
  181MOL0     C24334   7.807   9.827   8.674 -0.5710  0.5433 -0.6274
  181MOL0     C24335   7.941   9.866   8.669 -0.7244  0.0659  0.6242
  181MOL0     O24336   8.017   9.836   8.782 -0.0717  0.0184 -0.7199
  181MOL0     C24337   8.157   9.816   8.762  0.4843 -0.1785 -0.0918
  181MOL0     C24338   8.192   9.700   8.666 -1.0206 -0.1872 -0.9422
  181MOL0     C24339   8.154   9.566   8.720  0.5363  0.2288  0.4414
  181MOL0     C24340   8.210   9.454   8.634 -0.1444  0.2371  0.2387
  181MOL0     C24341   8.178   9.305   8.685  1.0785  0.1695 -0.8828
  181MOL0     C24342   8.245   9.273   8.823 -0.4620  0.3156 -0.2251
  181MOL0     C24343   8.187   9.138   8.872 -0.9063 -0.2024  0.2062
  181MOL0     C24344   8.250   9.098   9.008 -0.6471  0.0052 -0.1124
  181MOL0    Cl24345   8.398   9.017   8.958  0.3110 -0.5038  0.3237
  181MOL0     C24346   7.972   9.933   8.545  0.0338 -0.3766 -1.0308
  181MOL0     C24347   7.875   9.950   8.437 -0.0990  0.5540 -0.5135
  181MOL0     O24348   7.782   9.802   8.204 -0.1845  0.0816 -0.0013
  181MOL0     C24349   7.462   9.873   8.110 -0.2384  1.1237 -0.3925
  181MOL0     C24350   7.373   9.924   8.015 -0.3045 -0.1334 -0.2712
  181MOL0     N24351   7.528   9.803   7.257 -0.0125  0.1877  1.1407
  181MOL0     N24352   7.548   9.795   7.128 -0.0211  0.9143  0.5734
  181MOL0     C24353   7.256   9.553   5.852 -0.1598 -0.4738  0.1953
  181MOL0     C24354   7.288   9.566   5.715 -0.1336  0.3645 -0.4520
  181MOL0     C24355   7.446   9.551   5.324 -0.5907 -0.7244  0.3273
  181MOL0     C24356   7.335   9.518   5.250  0.0692  0.3649 -0.7569
  181MOL0     C24357   7.345   9.524   5.111 -0.6145 -0.0843  0.1796
  181MOL0     C24358   7.467   9.565   5.047  0.0047  0.0370  0.4242
  181MOL0     O24359   7.468   9.602   4.912  0.5769  0.5948  0.5164
  181MOL0     C24360   7.372   9.553   4.823 -0.0601 -0.5090 -0.3197
  181MOL0     C24361   7.393   9.411   4.795  0.3295  1.1897  0.6884
  181MOL0     C24362   7.531   9.376   4.729  0.6977 -0.0376 -0.5613
  181MOL0     C24363   7.578   9.471   4.615  0.5677  0.7113  0.0736
  181MOL0     C24364   7.478   9.483   4.509  0.0923 -0.4322 -0.2455
  181MOL0     C24365   7.403   9.493   4.421 -0.0393  0.9587 -0.2044
  181MOL0     C24366   7.575   9.585   5.118  0.6551 -0.2208 -0.1155
  181MOL0     C24367   7.576   9.587   5.259 -0.3986  0.5150  0.3351
  181MOL0     H24368   7.387   9.241   5.661 -0.7686  1.4242 -2.5900
  181MOL0     H24369   7.302   9.223   5.908 -1.5572  0.8529  0.8543
  181MOL0     H24370   7.333   9.340   6.218  1.2546  1.7246  1.9886
  181MOL0     H24371   7.426   9.450   6.115  0.8716  0.2273  2.1313
  181MOL0     H24372   7.304   9.646   6.209 -0.4446 -0.3031  2.2277
  181MOL0     H24373   7.156   9.550   6.228 -0.3893  0.6090 -0.5716
  181MOL0     H24374   7.261   9.424   6.430 -2.0163  0.2026  0.0950
  181MOL0     H24375   7.416   9.517   6.380 -0.8131  2.0892  0.4348
  181MOL0     H24376   7.313   9.738   6.435  2.0085 -2.4004 -1.3586
  181MOL0     H24377   7.166   9.663   6.460 -0.7199 -2.8323 -2.6319
  181MOL0     H24378   7.260   9.543   6.675  0.8905 -1.4116  1.0103
  181MOL0     H24379   7.415   9.589   6.623  0.5459  1.0093 -0.2389
  181MOL0     H24380   7.412   9.810   6.668 -0.9173  1.1952  0.1155
  181MOL0     H24381   7.235   9.827   6.676 -2.8808 -3.5067 -1.4375
  181MOL0     H24382   7.242   9.744   6.902  0.7677  1.2797  0.3335
  181MOL0     H24383   7.367   9.634   6.860  1.2573 -0.3699  0.7436
  181MOL0     H24384   7.385   9.944   6.881  2.1908  0.7607 -0.6542
  181MOL0     H24385   7.523   9.826   6.861 -0.2129 -1.3402 -0.0510
  181MOL0     H24386   7.241   9.909   7.134  0.8447  0.8272 -2.2634
  181MOL0     H24387   7.336  10.002   7.415  2.1068 -0.5092 -0.0671
  181MOL0     H24388   7.227   9.850   7.387  0.6967 -1.9552 -0.1361
  181MOL0     H24389   7.486   9.826   7.529 -0.1294 -1.8439  1.0525
  181MOL0     H24390   7.354   9.714   7.508  3.5525 -0.7584 -0.2472
  181MOL0     H24391   7.328   9.803   7.732  1.7989  0.0063 -0.9732
  181MOL0     H24392   7.207   9.886   7.647  0.2573  1.7389 -1.5642
  181MOL0     H24393   7.351  10.095   7.618  3.0009  0.6579 -0.0392
  181MOL0     H24394   7.484  10.013   7.696  0.4862  1.9205 -1.1418
  181MOL0     H24395   7.584  10.128   7.848  0.3399 -0.2557 -0.8673
  181MOL0     H24396   7.856   9.987   8.071  0.1352  0.8031  1.8572
  181MOL0     H24397   7.808  10.035   7.912 -1.2480  1.0755 -0.6292
  181MOL0     H24398   7.793  10.159   8.044 -0.2576 -0.5077  0.5295
  181MOL0     H24399   7.605   9.815   8.589  0.2338 -0.8788  0.5719
  181MOL0     H24400   7.778   9.764   8.757  3.1169 -0.2452  0.2353
  181MOL0     H24401   8.202   9.908   8.726  1.0660 -0.1282  0.7618
  181MOL0     H24402   8.194   9.803   8.863  1.3293  3.2529  0.1358
  181MOL0     H24403   8.130   9.716   8.577 -1.9026  3.0780  0.1296
  181MOL0     H24404   8.298   9.695   8.640 -0.2297 -1.7372  2.1609
  181MOL0     H24405   8.045   9.561   8.724  0.2463  2.0140 -2.4053
  181MOL0     H24406   8.200   9.561   8.819  1.3871  0.6740  0.0758
  181MOL0     H24407   8.178   9.461   8.530 -0.2879 -1.1385  0.1708
  181MOL0     H24408   8.319   9.457   8.625  0.0375 -0.9857  1.5705
  181MOL0     H24409   8.211   9.236   8.607 -2.8914  1.2049 -3.8301
  181MOL0     H24410   8.069   9.297   8.688  1.1874 -1.6288  0.9681
  181MOL0     H24411   8.351   9.263   8.797 -0.6975  1.5509 -1.7813
  181MOL0     H24412   8.223   9.337   8.909  0.9245 -1.9923  2.0192
  181MOL0     H24413   8.208   9.065   8.793 -1.3076  1.8778 -1.9630
  181MOL0     H24414   8.080   9.152   8.890 -1.3964  0.0565 -2.4683
  181MOL0     H24415   8.184   9.023   9.052 -1.4828  0.0117 -1.2944
  181MOL0     H24416   8.268   9.192   9.061 -0.4990  1.9051 -3.2683
  181MOL0     H24417   8.072   9.975   8.539 -0.4788  1.0946  0.3093
  181MOL0     H24418   7.905  10.002   8.347  2.2715  1.4464  0.7010
  181MOL0     H24419   7.424   9.792   8.172  1.1578  0.9455  0.2616
  181MOL0     H24420   7.270   9.893   8.018  0.2307 -1.9191  1.4381
  181MOL0     H24421   7.216   9.642   5.900 -0.6021 -0.9131  0.6449
  181MOL0     H24422   7.274   9.659   5.660 -0.3353  0.5672 -0.0665
  181MOL0     H24423   7.253   9.475   5.306  2.6350 -0.5364  2.6203
  181MOL0     H24424   7.261   9.499   5.047  1.0462 -0.8541 -1.8030
  181MOL0     H24425   7.270   9.571   4.858 -0.7201 -1.3890 -1.7192
  181MOL0     H24426   7.383   9.617   4.735  1.8275 -3.1561 -2.1689
  181MOL0     H24427   7.313   9.384   4.725  0.4036  2.1497  0.2099
  181MOL0     H24428   7.383   9.353   4.887  1.4640  3.0824  2.0935
  181MOL0     H24429   7.522   9.277   4.682 -1.0196 -0.6131  0.8467
  181MOL0     H24430   7.604   9.364   4.808  2.2308  0.1856 -1.8955
  181MOL0     H24431   7.668   9.424   4.576  0.1056  0.6341 -0.9383
  181MOL0     H24432   7.609   9.565   4.662  0.0268 -0.8917  4.0296
  181MOL0     H24433   7.341   9.509   4.336  2.1896  0.9521 -1.9125
  181MOL0     H24434   7.672   9.617   5.080 -0.1929  3.3945  0.4040
  181MOL0     H24435   7.669   9.613   5.309 -0.8762  1.3209  0.8353
  182MOL0     O24436   9.594   5.944   1.206 -0.0049 -0.0054  0.0274
  182MOL0     C24437   9.487   5.952   1.259 -0.1114 -1.1821 -0.2491
  182MOL0     O24438   9.372   5.884   1.230  0.0850 -0.1675  0.0908
  182MOL0     C24439   9.361   5.798   1.116 -0.0978 -0.3434  1.0146
  182MOL0     C24440   9.235   5.726   1.110  0.3170 -0.1168 -0.1411
  182MOL0     C24441   9.208   5.639   1.007  0.3691 -0.2959  0.6215
  182MOL0     C24442   9.303   5.625   0.898  0.5673 -0.5170 -0.8889
  182MOL0     O24443   9.271   5.558   0.786 -0.1730 -0.4932  0.0760
  182MOL0     C24444   9.304   5.420   0.792  0.6951  0.9373 -0.2183
  182MOL0     C24445   9.287   5.351   0.652 -0.8891 -0.3333  0.5061
  182MOL0     C24446   9.343   5.430   0.531  0.1401  0.3418 -0.1582
  182MOL0     C24447   9.355   5.337   0.414  0.2179  0.5375  0.1119
  182MOL0     C24448   9.386   5.405   0.272 -1.2305  0.1225 -0.4449
  182MOL0     C24449   9.292   5.516   0.227  0.0685  0.5769  0.6366
  182MOL0     C24450   9.149   5.466   0.239 -0.1302 -0.6652 -0.2828
  182MOL0     C24451   9.050   5.564   0.188  0.0066 -0.7504 -0.2181
  182MOL0     N24452   8.912   5.530   0.228 -0.4415  0.1923 -0.3931
  182MOL0     C24453   8.830   5.583   0.328 -0.4398 -0.5036 -0.0107
  182MOL0     C24454   8.748   5.487   0.357  0.7089  0.8662  0.3764
  182MOL0     C24455   8.659   5.492   0.474  0.2970  0.5166 -0.3894
  182MOL0     C24456   8.746   5.541   0.593 -0.3656 -0.4745 -0.2022
  182MOL0     C24457   8.687   5.503   0.736 -0.7912 -0.1337 -0.4972
  182MOL0     C24458   8.748   5.584   0.856  0.3758 -0.6443  0.3516
  182MOL0     O24459   8.733   5.729   0.850  0.6676 -0.5894 -0.1284
  182MOL0     C24460   8.782   5.795   0.960  0.1386 -0.0262 -1.2949
  182MOL0     C24461   8.818   5.929   0.941  0.1215  0.7325 -0.4511
  182MOL0     C24462   8.873   6.009   1.042 -0.0134 -0.6433 -0.8310
  182MOL0     C24463   8.913   6.145   0.982 -0.4668  0.8142 -0.0444
  182MOL0     C24464   8.908   5.951   1.165  0.7840  0.2441 -0.5200
  182MOL0     C24465   8.993   6.019   1.264 -0.2435  0.0587 -0.3001
  182MOL0     O24466   9.028   5.944   1.361  0.4506 -0.2247 -0.2674
  182MOL0     C24467   8.984   5.970   1.495 -1.6858  0.5405  0.3024
  182MOL0     C24468   8.878   6.064   1.531 -0.9654  0.6443 -0.5900
  182MOL0     C24469   8.845   6.077   1.669 -0.0963 -0.4698 -0.9438
  182MOL0     C24470   8.914   6.007   1.765 -0.4991 -0.8509 -0.7833
  182MOL0     O24471   8.902   6.027   1.900 -0.2399  0.0495 -0.2924
  182MOL0     C24472   8.892   6.163   1.939  0.0016 -0.3704  0.0226
  182MOL0     C24473   8.946   6.196   2.080  0.7155  0.2238 -0.0466
  182MOL0     C24474   8.871   6.110   2.188  0.2940  0.4493  0.0640
  182MOL0     C24475   8.727   6.146   2.216  0.7641 -0.8486 -0.0044
  182MOL0     C24476   8.636   6.030   2.276  0.3528 -0.9077 -0.0877
  182MOL0     C24477   8.638   6.040   2.430  0.0265 -0.2783 -0.5954
  182MOL0     C24478   8.561   5.941   2.505 -0.1160 -0.3792 -0.5250
  182MOL0     C24479   8.610   5.790   2.479  0.1506  0.2070  0.1316
  182MOL0    Cl24480   8.485   5.682   2.538 -0.0851 -0.6695 -0.0882
  182MOL0     C24481   9.019   5.930   1.733  0.5683 -0.6005 -0.2644
  182MOL0     C24482   9.061   5.906   1.597  0.3166 -1.1051 -0.3943
  182MOL0     O24483   9.038   6.125   1.238 -0.4484 -0.0936  0.2769
  182MOL0     C24484   8.872   5.817   1.183  1.0269  0.5108 -0.3031
  182MOL0     C24485   8.813   5.739   1.085  0.0630 -0.7825 -0.0324
  182MOL0     N24486   8.765   5.382   0.265 -1.0068 -0.5144 -0.2040
  182MOL0     N24487   8.859   5.413   0.181  0.9861  0.1764  0.1760
  182MOL0     C24488   9.423   5.691   0.907 -0.0974  1.1317  0.2923
  182MOL0     C24489   9.455   5.778   1.012  0.3571 -1.0348  0.0732
  182MOL0     C24490   9.485   6.044   1.374  0.3967  0.4649 -0.6376
  182MOL0     C24491   9.364   6.072   1.441 -0.3065  0.1104 -0.6942
  182MOL0     C24492   9.368   6.147   1.560 -0.0691 -1.3792 -0.8826
  182MOL0     C24493   9.490   6.195   1.617 -0.1761  0.8014  0.3787
  182MOL0     O24494   9.511   6.266   1.736  0.4793  0.1019 -0.3436
  182MOL0     C24495   9.398   6.303   1.816 -0.6563  0.0930 -1.1226
  182MOL0     C24496   9.419   6.439   1.904 -0.0515  1.1385 -0.0965
  182MOL0     C24497   9.452   6.562   1.808  0.4963  0.6360  0.6512
  182MOL0     C24498   9.370   6.574   1.688  0.0956 -0.0494 -0.5463
  182MOL0     C24499   9.389   6.705   1.622  0.0065 -0.3469  0.5195
  182MOL0     C24500   9.415   6.815   1.570 -0.6114  0.5231 -1.5075
  182MOL0     C24501   9.606   6.166   1.540 -0.0113  0.0192 -0.0179
  182MOL0     C24502   9.603   6.099   1.423 -0.2866  0.1791 -0.1528
  182MOL0     H24503   9.164   5.731   1.192  1.2184 -1.6513  0.7809
  182MOL0     H24504   9.110   5.594   1.000 -1.4285  3.3291  0.0504
  182MOL0     H24505   9.407   5.408   0.825  1.6364 -1.9885 -3.5960
  182MOL0     H24506   9.237   5.362   0.857  1.2656  0.8466  0.2962
  182MOL0     H24507   9.340   5.256   0.646 -0.6881 -0.1510 -1.1837
  182MOL0     H24508   9.181   5.331   0.632 -1.2170  2.4380 -1.0631
  182MOL0     H24509   9.275   5.514   0.512  1.5621  1.3320 -0.9950
  182MOL0     H24510   9.441   5.471   0.557  0.4911 -0.6365  0.1070
  182MOL0     H24511   9.435   5.268   0.443 -0.9728  0.4393  3.6223
  182MOL0     H24512   9.261   5.281   0.420  0.3547  0.2925 -0.0282
  182MOL0     H24513   9.488   5.442   0.284 -0.4536 -2.1864  0.6197
  182MOL0     H24514   9.390   5.329   0.193 -2.4415  1.3448 -1.7239
  182MOL0     H24515   9.300   5.595   0.303 -1.4125  0.0438  1.3688
  182MOL0     H24516   9.313   5.551   0.126 -1.6373  0.6901  0.2933
  182MOL0     H24517   9.136   5.371   0.186  0.2598 -0.2714 -1.0987
  182MOL0     H24518   9.123   5.465   0.346 -0.1435 -1.3274 -0.2869
  182MOL0     H24519   9.039   5.554   0.079 -4.5654 -4.1108  0.2875
  182MOL0     H24520   9.063   5.670   0.212 -1.8662 -0.2495 -1.2307
  182MOL0     H24521   8.843   5.681   0.372 -2.2190 -0.6614  0.9466
  182MOL0     H24522   8.574   5.562   0.469  1.2059  2.1087  3.1669
  182MOL0     H24523   8.611   5.398   0.501 -2.1469  1.9237  0.4929
  182MOL0     H24524   8.756   5.649   0.585  2.2834 -0.5877  0.4505
  182MOL0     H24525   8.847   5.502   0.574  0.2266  1.7987 -2.1023
  182MOL0     H24526   8.699   5.394   0.741 -0.0459 -0.1394 -1.7440
  182MOL0     H24527   8.578   5.512   0.731 -1.0399 -1.7253  1.0574
  182MOL0     H24528   8.855   5.565   0.866  0.3770 -0.6268  0.3668
  182MOL0     H24529   8.695   5.552   0.947 -0.2794  0.0531  0.2201
  182MOL0     H24530   8.790   5.964   0.842 -0.4935  1.6945  0.0386
  182MOL0     H24531   9.013   6.144   0.939  0.1529  2.2204  1.2751
  182MOL0     H24532   8.845   6.156   0.897 -1.4711  0.5177  0.6989
  182MOL0     H24533   8.910   6.232   1.048 -0.2463  1.3647 -0.7529
  182MOL0     H24534   8.827   6.119   1.453 -2.0633 -1.5149 -1.4693
  182MOL0     H24535   8.765   6.142   1.703 -0.1106 -0.9487 -0.0316
  182MOL0     H24536   8.953   6.226   1.874 -0.7237 -1.1346 -1.4215
  182MOL0     H24537   8.787   6.191   1.930 -0.4373 -1.1157  2.0995
  182MOL0     H24538   9.051   6.170   2.088 -0.0894 -3.4011  0.4209
  182MOL0     H24539   8.934   6.303   2.102  1.0570  0.2087  0.2122
  182MOL0     H24540   8.918   6.116   2.287 -1.5872 -0.9211  1.1099
  182MOL0     H24541   8.886   6.002   2.180  4.6297  0.5153  3.1971
  182MOL0     H24542   8.721   6.233   2.282 -1.4089 -0.4422 -0.6512
  182MOL0     H24543   8.687   6.181   2.120  1.8453 -1.5527 -0.7352
  182MOL0     H24544   8.672   5.929   2.260 -6.4971 -3.7574 -0.7755
  182MOL0     H24545   8.533   6.043   2.241  0.6604  0.5347 -0.5130
  182MOL0     H24546   8.741   6.034   2.465 -0.5316  4.6075  2.9703
  182MOL0     H24547   8.602   6.136   2.468  3.2812  0.3592  1.2263
  182MOL0     H24548   8.457   5.944   2.473 -0.2341  0.4149 -0.0946
  182MOL0     H24549   8.556   5.966   2.612  0.4047  2.1356 -1.0151
  182MOL0     H24550   8.708   5.767   2.523 -0.1599 -0.3861  0.5133
  182MOL0     H24551   8.621   5.770   2.372  0.1135 -2.2250  0.5394
  182MOL0     H24552   9.058   5.865   1.811 -2.5095  0.1674  2.1122
  182MOL0     H24553   9.144   5.839   1.574  3.5144  2.8770 -1.7647
  182MOL0     H24554   8.895   5.770   1.277 -2.3881  1.6107  1.2428
  182MOL0     H24555   8.806   5.634   1.111 -0.8592  0.1502  4.2630
  182MOL0     H24556   9.488   5.695   0.820 -0.3326 -0.7205 -0.0046
  182MOL0     H24557   9.549   5.831   1.002 -0.4121  0.2900 -0.2571
  182MOL0     H24558   9.271   6.025   1.411  0.6868 -1.5557 -1.3014
  182MOL0     H24559   9.276   6.160   1.616  0.2481 -1.4646 -0.3375
  182MOL0     H24560   9.315   6.313   1.747 -1.8572  0.0797  0.2741
  182MOL0     H24561   9.369   6.220   1.881 -0.9637  2.3474  1.8297
  182MOL0     H24562   9.514   6.434   1.960  0.6451  2.1945 -1.1409
  182MOL0     H24563   9.330   6.461   1.963 -0.2570  0.8352 -0.2900
  182MOL0     H24564   9.558   6.561   1.781  0.1370  0.0949 -0.8136
  182MOL0     H24565   9.431   6.657   1.860  0.0145  0.9027 -0.0241
  182MOL0     H24566   9.269   6.550   1.723 -0.2132 -0.1810 -1.4987
  182MOL0     H24567   9.409   6.496   1.622  0.9458 -1.5471  1.6062
  182MOL0     H24568   9.434   6.908   1.520  1.9691  0.7243 -0.2699
  182MOL0     H24569   9.701   6.191   1.584 -0.8492  1.4231  1.0912
  182MOL0     H24570   9.696   6.083   1.369 -0.0073  0.1869  0.3208
  183MOL0     O24571   4.581   9.205   8.707 -0.2420  0.6359 -0.0703
  183MOL0     C24572   4.505   9.292   8.700  0.1521  0.6833  0.4753
  183MOL0     O24573   4.513   9.401   8.611 -0.0211  0.1102 -0.2866
  183MOL0     C24574   4.625   9.406   8.533 -0.9169 -0.0169 -0.7226
  183MOL0     C24575   4.685   9.534   8.522 -0.0622  0.5945 -0.3028
  183MOL0     C24576   4.793   9.560   8.438  0.2089  0.0454 -0.0713
  183MOL0     C24577   4.830   9.459   8.349  0.3096 -0.7054  0.7259
  183MOL0     O24578   4.917   9.501   8.249  0.1387 -0.4163 -0.2645
  183MOL0     C24579   4.989   9.407   8.176  0.3414 -0.1108  0.6215
  183MOL0     C24580   5.074   9.475   8.069 -0.9209  0.5856  0.2848
  183MOL0     C24581   4.979   9.525   7.957 -0.4516 -0.1870 -0.6840
  183MOL0     C24582   5.042   9.564   7.831 -0.1558 -0.4569  0.1052
  183MOL0     C24583   5.131   9.698   7.837  0.1243 -0.3132  0.1921
  183MOL0     C24584   5.198   9.714   7.700 -0.2511  0.9773 -0.3121
  183MOL0     C24585   5.168   9.846   7.617 -0.6291  0.3576 -0.2202
  183MOL0     C24586   5.042   9.824   7.527 -0.8742 -0.0061  1.0259
  183MOL0     N24587   5.019   9.943   7.434 -1.1159 -0.5080  0.8009
  183MOL0     C24588   5.110  10.046   7.420 -1.2147 -0.1283  0.0938
  183MOL0     C24589   5.081  10.124   7.322 -0.1019  0.0812 -0.2779
  183MOL0     C24590   5.161  10.233   7.258 -0.6866  0.2424 -0.5767
  183MOL0     C24591   5.071  10.358   7.235  0.0549 -0.5368  0.1749
  183MOL0     C24592   5.148  10.488   7.196 -0.4842  0.4500 -0.8108
  183MOL0     C24593   5.177  10.500   7.049  0.5258 -0.2157 -0.4304
  183MOL0     O24594   5.237  10.623   7.009  0.5489  0.3947  0.2165
  183MOL0     C24595   5.162  10.738   7.025 -0.0445 -0.7505  0.5610
  183MOL0     C24596   5.022  10.750   7.038 -0.2419  0.0294 -1.2788
  183MOL0     C24597   4.947  10.863   7.033 -0.4754 -0.7207 -0.3578
  183MOL0     C24598   4.804  10.862   7.086  0.1451  0.1589  0.0998
  183MOL0     C24599   5.021  10.977   6.979  1.1503 -0.1774 -0.3181
  183MOL0     C24600   4.956  11.119   6.967  0.2152  0.4219 -0.6148
  183MOL0     O24601   4.819  11.124   6.965  0.1175 -0.1721 -0.1696
  183MOL0     C24602   4.750  11.236   6.920 -0.1370 -0.1038  0.2824
  183MOL0     C24603   4.664  11.304   7.000 -0.3409 -0.4239 -0.8859
  183MOL0     C24604   4.592  11.418   6.951  0.1555 -0.2272 -0.4962
  183MOL0     C24605   4.621  11.486   6.834  0.2602  0.5537  0.2473
  183MOL0     O24606   4.563  11.610   6.809  0.8417  0.3732  0.5248
  183MOL0     C24607   4.607  11.680   6.690  0.0329 -0.0379  0.2489
  183MOL0     C24608   4.518  11.797   6.661 -0.0612  0.0722  0.2945
  183MOL0     C24609   4.533  11.920   6.752  0.0075  1.0237 -0.1187
  183MOL0     C24610   4.570  12.036   6.661  0.0601 -0.2930  0.2211
  183MOL0     C24611   4.564  12.152   6.762 -0.8383  0.7803 -0.2330
  183MOL0     C24612   4.443  12.205   6.830  0.0889 -0.3537 -0.1993
  183MOL0     C24613   4.487  12.332   6.904 -1.0719  0.5478  0.3819
  183MOL0     C24614   4.380  12.361   7.003 -0.2887 -0.9530 -0.3298
  183MOL0    Cl24615   4.412  12.523   7.077  0.2030  0.7238  0.4484
  183MOL0     C24616   4.721  11.414   6.753  0.5343 -0.6494 -0.1539
  183MOL0     C24617   4.779  11.296   6.794  0.0688  0.7690 -0.3927
  183MOL0     O24618   5.036  11.211   6.958  0.3044  0.7169  0.6492
  183MOL0     C24619   5.164  10.974   6.967  0.3965 -0.2242 -0.2373
  183MOL0     C24620   5.227  10.858   6.991 -0.0732  0.3017 -0.4000
  183MOL0     N24621   4.974  10.061   7.259 -1.0027  0.5661 -0.5150
  183MOL0     N24622   4.944   9.954   7.324 -0.1132  0.1824  0.3895
  183MOL0     C24623   4.756   9.339   8.337  0.8301  0.2353  0.0032
  183MOL0     C24624   4.658   9.309   8.436  0.3885  0.0183 -0.6075
  183MOL0     C24625   4.388   9.287   8.787  0.6633 -0.1420  0.0512
  183MOL0     C24626   4.265   9.339   8.731  0.3448  0.4106 -0.5130
  183MOL0     C24627   4.146   9.324   8.801 -0.5827  0.6959  0.0405
  183MOL0     C24628   4.144   9.248   8.923  0.6719 -0.4204  0.4839
  183MOL0     O24629   4.031   9.211   8.983  0.4629 -0.1354  0.0458
  183MOL0     C24630   3.896   9.231   8.927 -0.4323  0.1814 -1.0162
  183MOL0     C24631   3.807   9.166   9.021 -0.7566 -0.6356 -0.3342
  183MOL0     C24632   3.796   9.236   9.163  0.5122  0.1882 -0.4924
  183MOL0     C24633   3.839   9.143   9.278 -0.2363  0.1065 -0.3097
  183MOL0     C24634   3.969   9.086   9.246  0.0438  0.7471 -0.2643
  183MOL0     C24635   4.076   9.039   9.210  0.6460  0.3392 -0.5497
  183MOL0     C24636   4.261   9.220   8.991  0.2047  1.1161 -0.4575
  183MOL0     C24637   4.379   9.228   8.914 -0.8867  0.5837 -0.7007
  183MOL0     H24638   4.656   9.609   8.595 -0.0719 -0.7907  1.1790
  183MOL0     H24639   4.839   9.658   8.430  1.5684 -0.7028 -2.1030
  183MOL0     H24640   5.057   9.350   8.241  1.7589 -0.1036 -0.8010
  183MOL0     H24641   4.924   9.335   8.124  2.8034 -0.0809 -2.8347
  183MOL0     H24642   5.138   9.557   8.103  3.1680 -2.0509 -0.3788
  183MOL0     H24643   5.128   9.395   8.017 -0.6147  0.8603  0.1772
  183MOL0     H24644   4.914   9.442   7.929  0.2876 -1.1914  0.4664
  183MOL0     H24645   4.923   9.611   7.996  2.9923  1.1614  1.8286
  183MOL0     H24646   5.109   9.483   7.802 -0.0245 -2.6486  5.4383
  183MOL0     H24647   4.963   9.578   7.756 -0.3345  0.6577  0.4860
  183MOL0     H24648   5.066   9.782   7.865 -0.2612  0.0702 -1.7162
  183MOL0     H24649   5.202   9.692   7.919 -0.7375  0.9091  1.0731
  183MOL0     H24650   5.299   9.743   7.732 -0.0273  0.7107 -0.7681
  183MOL0     H24651   5.199   9.623   7.641  1.1375 -0.8980  2.3828
  183MOL0     H24652   5.144   9.920   7.694 -1.0813 -1.2174  1.2177
  183MOL0     H24653   5.256   9.872   7.559 -0.2434 -0.2642  0.0788
  183MOL0     H24654   4.945   9.811   7.575 -1.0942 -2.1941  0.0931
  183MOL0     H24655   5.060   9.735   7.466  1.5352  0.9918  0.1681
  183MOL0     H24656   5.206  10.058   7.471 -0.8085 -3.1807  0.2587
  183MOL0     H24657   5.247  10.263   7.319 -1.2209  2.2474 -0.7493
  183MOL0     H24658   5.196  10.198   7.161 -1.5143  1.0167 -1.1699
  183MOL0     H24659   5.013  10.365   7.328  1.2253 -0.4621  0.9306
  183MOL0     H24660   5.011  10.335   7.147 -0.2371  1.6584 -0.2633
  183MOL0     H24661   5.241  10.491   7.253 -0.0895  0.1306 -1.4294
  183MOL0     H24662   5.085  10.569   7.234  2.4660  1.1695  3.0962
  183MOL0     H24663   5.084  10.491   6.993 -1.5683  0.0962  2.7216
  183MOL0     H24664   5.250  10.420   7.032  0.4021 -0.9199  1.9297
  183MOL0     H24665   4.973  10.654   7.051 -1.2025  0.6742  0.1079
  183MOL0     H24666   4.779  10.952   7.143  0.6377  0.1381  0.3542
  183MOL0     H24667   4.729  10.847   7.009 -0.6562  1.7727  0.5160
  183MOL0     H24668   4.793  10.781   7.158  4.5588  2.4826  3.9225
  183MOL0     H24669   4.644  11.277   7.104 -2.6001  2.7875 -0.3163
  183MOL0     H24670   4.525  11.467   7.022  0.1512 -3.6583  2.1366
  183MOL0     H24671   4.710  11.715   6.698 -0.6174  2.0999  0.1460
  183MOL0     H24672   4.598  11.607   6.609  1.4129 -1.6732  1.5137
  183MOL0     H24673   4.541  11.819   6.557 -0.0309 -2.0615 -0.1948
  183MOL0     H24674   4.414  11.764   6.653 -0.9794  2.0995  2.5204
  183MOL0     H24675   4.612  11.905   6.827 -1.8843  0.3728  1.8560
  183MOL0     H24676   4.437  11.932   6.802 -0.2641 -1.7353  0.1948
  183MOL0     H24677   4.670  12.014   6.620  0.4510  1.5666  0.0989
  183MOL0     H24678   4.503  12.059   6.578  0.4207  0.0705  0.0265
  183MOL0     H24679   4.609  12.227   6.696 -0.0388 -0.3604 -1.0250
  183MOL0     H24680   4.635  12.142   6.844 -1.8547  1.6616  0.7819
  183MOL0     H24681   4.372  12.224   6.749  0.6803 -1.8306 -1.1027
  183MOL0     H24682   4.408  12.135   6.906  1.3783 -0.8447 -0.0366
  183MOL0     H24683   4.515  12.412   6.835 -0.5161 -0.0252 -0.0669
  183MOL0     H24684   4.579  12.311   6.959 -0.0340 -1.4108 -1.9171
  183MOL0     H24685   4.365  12.277   7.071 -0.0598 -0.8720 -0.1787
  183MOL0     H24686   4.281  12.378   6.959  0.8817  3.8162 -1.6643
  183MOL0     H24687   4.746  11.465   6.660 -1.3677  1.7660  0.5567
  183MOL0     H24688   4.838  11.255   6.713  1.6467 -0.3392  1.2392
  183MOL0     H24689   5.230  11.058   6.945  0.6729 -0.8329 -1.9061
  183MOL0     H24690   5.335  10.850   6.992 -0.0367  0.7844 -0.1003
  183MOL0     H24691   4.777   9.262   8.263  0.6299 -1.9649  2.1340
  183MOL0     H24692   4.606   9.214   8.438  0.8252 -0.2783  3.1569
  183MOL0     H24693   4.260   9.388   8.635 -0.5302  0.6915 -0.3375
  183MOL0     H24694   4.067   9.379   8.752  1.0808  1.4364 -1.9249
  183MOL0     H24695   3.865   9.334   8.909 -2.1573 -0.4974 -2.1419
  183MOL0     H24696   3.886   9.170   8.837 -0.1857 -2.1170  0.4434
  183MOL0     H24697   3.831   9.060   9.035  2.2428  0.0169  0.1590
  183MOL0     H24698   3.706   9.168   8.979 -0.7618 -0.5855 -0.3194
  183MOL0     H24699   3.692   9.268   9.173  0.8185  1.0841 -0.0458
  183MOL0     H24700   3.849   9.331   9.163  2.4221 -0.8179 -0.5718
  183MOL0     H24701   3.767   9.061   9.272 -1.5902  1.2928 -0.7875
  183MOL0     H24702   3.829   9.196   9.373 -0.8800  4.8068 -2.7059
  183MOL0     H24703   4.175   9.003   9.188  0.9109  0.8171 -0.1671
  183MOL0     H24704   4.258   9.190   9.095 -1.2650 -0.6597 -0.9461
  183MOL0     H24705   4.468   9.197   8.969  0.0194  0.5281 -2.1397
  184MOL0     O24706   5.698   9.840   8.711 -0.1994 -0.1132  0.4397
  184MOL0     C24707   5.720   9.918   8.803 -0.3373  0.3835 -0.3191
  184MOL0     O24708   5.627  10.001   8.863  0.2728  0.3261 -0.1012
  184MOL0     C24709   5.496  10.015   8.809 -2.4479 -0.6482  0.2086
  184MOL0     C24710   5.427   9.904   8.766  0.2835  0.3845 -0.9012
  184MOL0     C24711   5.292   9.928   8.730 -0.5960  0.9652 -0.7509
  184MOL0     C24712   5.229  10.059   8.746  0.0195  0.2179  0.5491
  184MOL0     O24713   5.105  10.080   8.691 -0.4124 -0.1666  0.7680
  184MOL0     C24714   5.011  10.152   8.770 -0.2524 -0.2860  0.2831
  184MOL0     C24715   4.964  10.090   8.900  0.5838  0.5831 -0.2070
  184MOL0     C24716   4.845  10.166   8.953  0.7724  1.2438 -0.9253
  184MOL0     C24717   4.856  10.301   9.038  0.0999  0.2609 -0.5413
  184MOL0     C24718   4.727  10.350   9.113  0.5584  0.4174  0.9341
  184MOL0     C24719   4.597  10.388   9.028  0.0181  1.0660  0.6368
  184MOL0     C24720   4.463  10.383   9.105 -1.2196  0.3700  0.2795
  184MOL0     C24721   4.452  10.478   9.220 -0.4604 -0.8260  0.2033
  184MOL0     N24722   4.423  10.614   9.186  0.4497 -0.6111 -0.3893
  184MOL0     C24723   4.299  10.674   9.194  0.3252 -0.0942  0.3009
  184MOL0     C24724   4.328  10.808   9.191  0.0719  0.6700 -0.0949
  184MOL0     C24725   4.249  10.937   9.184  0.8934  0.3483 -0.0914
  184MOL0     C24726   4.109  10.926   9.122 -0.7798 -0.2131 -1.1350
  184MOL0     C24727   4.100  10.893   8.978  0.8946 -0.4360  0.2473
  184MOL0     C24728   3.945  10.864   8.939 -0.0160 -0.0005  0.0117
  184MOL0     O24729   3.935  10.730   8.983  0.1014 -0.5746  0.3943
  184MOL0     C24730   3.825  10.654   8.938 -0.1019 -0.5925  0.2259
  184MOL0     C24731   3.715  10.696   8.865 -0.3264 -0.7967  0.3746
  184MOL0     C24732   3.615  10.602   8.817  0.7868  0.1133 -0.7878
  184MOL0     C24733   3.514  10.657   8.730 -0.5619 -0.1340  1.0091
  184MOL0     C24734   3.626  10.467   8.851 -0.4675  0.3125 -0.3078
  184MOL0     C24735   3.539  10.354   8.801 -0.0199 -0.7471  1.0834
  184MOL0     O24736   3.406  10.378   8.766 -0.0547  0.5580  0.1790
  184MOL0     C24737   3.325  10.278   8.717 -0.1505 -1.0088  0.0384
  184MOL0     C24738   3.283  10.163   8.790  0.1866 -0.6001 -0.0635
  184MOL0     C24739   3.177  10.084   8.745  0.2441  0.5340 -0.0925
  184MOL0     C24740   3.109  10.117   8.621  0.3868  0.3212  0.0165
  184MOL0     O24741   3.001  10.040   8.577  0.5103  0.6989 -0.0383
  184MOL0     C24742   2.977  10.000   8.439 -0.0472  0.1232 -0.0611
  184MOL0     C24743   2.840   9.938   8.412  0.7946 -0.1792 -0.1532
  184MOL0     C24744   2.820   9.905   8.261  0.9067  0.1150  0.2151
  184MOL0     C24745   2.671   9.878   8.225 -0.4337 -0.1756  0.6483
  184MOL0     C24746   2.659   9.759   8.127 -0.7974  0.0193  0.0537
  184MOL0     C24747   2.644   9.623   8.211  0.4907  0.2504  0.1726
  184MOL0     C24748   2.617   9.520   8.105 -0.2403  0.9099  0.0916
  184MOL0     C24749   2.624   9.378   8.162  0.3867 -0.1043  0.3929
  184MOL0    Cl24750   2.790   9.316   8.210  0.4364  0.3311 -0.3742
  184MOL0     C24751   3.152  10.228   8.548  0.8347 -0.4921 -1.0656
  184MOL0     C24752   3.257  10.309   8.601  0.4392 -0.0221 -0.9149
  184MOL0     O24753   3.597  10.242   8.795  1.1878  0.8945  0.0510
  184MOL0     C24754   3.747  10.427   8.922 -0.4607 -0.2047  0.4479
  184MOL0     C24755   3.838  10.521   8.971  0.0109  1.0563 -0.3195
  184MOL0     N24756   4.467  10.819   9.195  0.4031  0.1039  0.9315
  184MOL0     N24757   4.522  10.710   9.200 -0.9195  1.1108  0.2503
  184MOL0     C24758   5.305  10.161   8.802  0.3955  0.4280  0.8140
  184MOL0     C24759   5.434  10.144   8.829 -1.3045  1.0122  0.4400
  184MOL0     C24760   5.856   9.936   8.851 -0.7435 -0.0762  1.3629
  184MOL0     C24761   5.881   9.987   8.971  0.1215  0.6305 -0.6106
  184MOL0     C24762   6.006  10.021   9.030  0.4043  0.6385 -0.5394
  184MOL0     C24763   6.118   9.977   8.956 -0.1816 -0.7906  0.1821
  184MOL0     O24764   6.249  10.013   8.995  0.5058 -0.0732  0.5001
  184MOL0     C24765   6.282  10.052   9.133 -0.2457  0.5765 -0.1581
  184MOL0     C24766   6.253  10.204   9.159 -0.1465 -0.5381 -0.3501
  184MOL0     C24767   6.209  10.212   9.306 -0.2794 -0.1599  0.4227
  184MOL0     C24768   6.303  10.168   9.413 -0.1608  0.0566 -0.1476
  184MOL0     C24769   6.434  10.228   9.402  1.0642 -0.0759  0.9196
  184MOL0     C24770   6.541  10.278   9.411 -0.4745  0.1484 -0.2515
  184MOL0     C24771   6.098   9.930   8.824 -0.9936  0.0493  0.1426
  184MOL0     C24772   5.969   9.910   8.771 -0.1678 -0.2026 -0.1377
  184MOL0     H24773   5.475   9.808   8.751  1.1345  0.5144  0.7076
  184MOL0     H24774   5.242   9.842   8.687  0.3422 -0.5698  1.0701
  184MOL0     H24775   5.047  10.254   8.787 -0.5388  0.9199 -4.7240
  184MOL0     H24776   4.919  10.173   8.714 -1.2392  2.8700  2.7485
  184MOL0     H24777   4.922   9.992   8.879  0.4513 -0.1153  2.8161
  184MOL0     H24778   5.043  10.076   8.974 -1.6024 -1.4458  1.9019
  184MOL0     H24779   4.767  10.186   8.879  0.7146  0.9808 -0.9388
  184MOL0     H24780   4.804  10.091   9.021  0.5118  1.5612 -0.7353
  184MOL0     H24781   4.934  10.311   9.114  1.1990  2.3237 -1.8405
  184MOL0     H24782   4.869  10.382   8.966  2.1079  1.0130  0.5886
  184MOL0     H24783   4.689  10.269   9.176 -2.2222  1.2534  0.4470
  184MOL0     H24784   4.747  10.425   9.190  1.0691 -0.8353  2.0876
  184MOL0     H24785   4.613  10.496   9.019 -2.4329  1.4269 -0.1480
  184MOL0     H24786   4.586  10.332   8.935  0.2943 -1.1687  1.8782
  184MOL0     H24787   4.385  10.408   9.033  0.4628 -0.8042 -2.0654
  184MOL0     H24788   4.433  10.279   9.120  2.0925 -1.0660 -1.8251
  184MOL0     H24789   4.541  10.473   9.284 -0.2136 -2.2743 -0.2007
  184MOL0     H24790   4.368  10.441   9.279  0.2451  0.3060  2.0045
  184MOL0     H24791   4.205  10.622   9.186  1.9617 -3.2648  0.2575
  184MOL0     H24792   4.244  10.977   9.286  1.7434  3.7352 -1.2379
  184MOL0     H24793   4.310  11.001   9.120 -2.8383  1.2022 -3.1370
  184MOL0     H24794   4.053  11.017   9.146 -0.8508 -0.6760  0.6429
  184MOL0     H24795   4.059  10.845   9.175  1.2851 -1.3100 -0.7540
  184MOL0     H24796   4.164  10.806   8.961 -2.3712 -2.6248 -1.9702
  184MOL0     H24797   4.141  10.972   8.915 -0.2220  1.8088  2.1654
  184MOL0     H24798   3.932  10.866   8.831  1.9277 -3.1171 -0.4206
  184MOL0     H24799   3.870  10.931   8.983 -1.7188 -2.9038  1.8147
  184MOL0     H24800   3.708  10.798   8.831 -2.4761 -1.6487 -2.0879
  184MOL0     H24801   3.537  10.760   8.702 -0.2763  0.1611  2.2806
  184MOL0     H24802   3.512  10.593   8.641  0.2655  0.5527  0.4719
  184MOL0     H24803   3.414  10.662   8.774 -1.6761 -3.7275 -0.7058
  184MOL0     H24804   3.336  10.150   8.883 -0.4600  0.9832  0.5716
  184MOL0     H24805   3.142   9.994   8.795 -0.7804  1.2654  0.5319
  184MOL0     H24806   2.991  10.087   8.375 -1.3840  0.5853  0.2445
  184MOL0     H24807   3.060   9.933   8.415  0.4108 -0.1930  2.1188
  184MOL0     H24808   2.835   9.839   8.458 -2.2433 -1.1525 -2.2309
  184MOL0     H24809   2.760  10.000   8.452 -0.1281 -0.1732 -1.8884
  184MOL0     H24810   2.869   9.809   8.243 -0.2388 -0.8874  2.0926
  184MOL0     H24811   2.856   9.989   8.201  0.3031 -0.0633 -0.4132
  184MOL0     H24812   2.608   9.851   8.310  0.1505 -2.4859  0.4160
  184MOL0     H24813   2.630   9.963   8.170 -1.5589 -1.5374 -0.7200
  184MOL0     H24814   2.748   9.761   8.064  0.2393 -1.2138  1.4011
  184MOL0     H24815   2.570   9.766   8.064 -1.1928  0.7353  0.6778
  184MOL0     H24816   2.730   9.594   8.272  1.6008  1.5448 -0.7008
  184MOL0     H24817   2.559   9.633   8.279  0.7634 -0.1094  0.5678
  184MOL0     H24818   2.678   9.534   8.015  2.0723 -2.4914  0.9319
  184MOL0     H24819   2.512   9.531   8.077 -0.2380  1.5643  0.3255
  184MOL0     H24820   2.578   9.306   8.093  1.8364  0.4037 -1.1760
  184MOL0     H24821   2.562   9.383   8.252 -0.3407 -1.3895 -0.0089
  184MOL0     H24822   3.081  10.246   8.468 -0.6865 -1.9110 -0.0965
  184MOL0     H24823   3.275  10.408   8.560 -0.6867  1.4676  1.9051
  184MOL0     H24824   3.774  10.323   8.936  1.4331  0.2224  0.3131
  184MOL0     H24825   3.928  10.487   9.020 -0.6472 -1.6770 -0.8360
  184MOL0     H24826   5.262  10.260   8.816  4.6273  3.1057 -2.4669
  184MOL0     H24827   5.484  10.227   8.878  0.3457  0.8050 -0.8506
  184MOL0     H24828   5.791  10.011   9.026 -0.0682  0.0011 -0.6418
  184MOL0     H24829   6.014  10.070   9.126 -0.9703  0.5643 -0.3622
  184MOL0     H24830   6.219  10.010   9.211 -0.8317  3.8189  1.2585
  184MOL0     H24831   6.388  10.036   9.154 -0.7653 -1.2558  1.3048
  184MOL0     H24832   6.184  10.254   9.091  1.3728  0.6187 -1.0967
  184MOL0     H24833   6.342  10.266   9.149 -1.8741  1.8535 -2.2550
  184MOL0     H24834   6.117  10.154   9.312  0.5178 -1.8235 -2.0369
  184MOL0     H24835   6.185  10.318   9.318  2.5664  0.6783 -0.3738
  184MOL0     H24836   6.318  10.060   9.428 -0.9760 -0.0144  0.2028
  184MOL0     H24837   6.265  10.197   9.511  2.7602  1.2657  0.7509
  184MOL0     H24838   6.638  10.324   9.419  0.3365 -1.7653  2.5078
  184MOL0     H24839   6.191   9.902   8.774 -1.7658 -0.2050 -1.1925
  184MOL0     H24840   5.979   9.865   8.673 -1.6187 -0.7967 -0.0363
  185MOL0     O24841   2.854   9.651   1.246 -0.2927 -0.4679 -0.4390
  185MOL0     C24842   2.801   9.722   1.333  0.3995 -0.2328 -0.2950
  185MOL0     O24843   2.869   9.817   1.403  0.8696 -0.2100 -0.4252
  185MOL0     C24844   3.004   9.825   1.396  0.6515  0.0727 -0.0085
  185MOL0     C24845   3.077   9.836   1.276 -0.9238  1.0696  0.5447
  185MOL0     C24846   3.218   9.860   1.279 -0.4061  0.0938  0.0677
  185MOL0     C24847   3.280   9.880   1.406  1.0937  0.1591  0.2341
  185MOL0     O24848   3.415   9.888   1.413  1.0640 -0.1923 -0.8494
  185MOL0     C24849   3.471  10.023   1.428  0.5491  1.0198  0.7851
  185MOL0     C24850   3.614  10.004   1.474 -1.1357  0.7626  0.1885
  185MOL0     C24851   3.715   9.967   1.352 -0.3896  0.1261  0.2125
  185MOL0     C24852   3.863   9.974   1.405 -0.3887  0.0584 -0.4563
  185MOL0     C24853   3.973   9.905   1.316 -0.2582 -0.7134  0.5308
  185MOL0     C24854   3.975   9.940   1.166 -0.2912 -0.1869  0.6322
  185MOL0     C24855   4.012  10.074   1.115  0.2503 -0.1584  0.3156
  185MOL0     C24856   3.973  10.077   0.965 -0.6694 -0.6298 -0.4758
  185MOL0     N24857   3.833  10.114   0.961  0.0653 -0.3778 -0.0213
  185MOL0     C24858   3.739  10.023   0.940  0.6993 -0.2495 -0.4793
  185MOL0     C24859   3.625  10.099   0.961 -0.5184 -0.6183  0.5589
  185MOL0     C24860   3.483  10.048   0.966 -0.0698  0.5500  0.0282
  185MOL0     C24861   3.412  10.076   0.829  0.1553 -0.7879 -0.2861
  185MOL0     C24862   3.447   9.963   0.736 -0.2643  0.1151 -0.4154
  185MOL0     C24863   3.458  10.001   0.585  0.0731 -0.6203  0.6839
  185MOL0     O24864   3.342  10.087   0.571  0.9801 -0.3564  0.6631
  185MOL0     C24865   3.213  10.022   0.550 -0.4611 -1.1362 -0.1967
  185MOL0     C24866   3.198   9.895   0.494  0.3467 -0.6111  0.0192
  185MOL0     C24867   3.071   9.839   0.457  0.6419 -0.0647 -1.2798
  185MOL0     C24868   3.059   9.694   0.408 -0.2474 -0.2101  0.0677
  185MOL0     C24869   2.952   9.926   0.478  0.3411 -0.5450 -0.2064
  185MOL0     C24870   2.808   9.897   0.442 -0.9674 -0.1670 -0.9323
  185MOL0     O24871   2.708   9.966   0.499  0.1339  0.8434  0.8085
  185MOL0     C24872   2.578   9.948   0.459 -0.6734  0.5788  0.9940
  185MOL0     C24873   2.486   9.925   0.553 -0.1910  0.2950 -0.7083
  185MOL0     C24874   2.353   9.907   0.518  0.3508  0.2020  0.2280
  185MOL0     C24875   2.306   9.928   0.388 -0.3295 -0.0901  0.0260
  185MOL0     O24876   2.170   9.930   0.360 -0.0312 -0.6012 -0.7705
  185MOL0     C24877   2.127  10.011   0.252  0.6763  0.6695 -0.3372
  185MOL0     C24878   1.972  10.027   0.258  0.0701  0.0508 -0.4876
  185MOL0     C24879   1.907   9.908   0.179  0.2557  0.2910 -0.4160
  185MOL0     C24880   1.759   9.953   0.138 -0.0546 -0.1192  0.7343
  185MOL0     C24881   1.679   9.856   0.045  0.5083  0.9034 -1.2566
  185MOL0     C24882   1.659   9.708   0.111  1.2607  0.4256  0.6459
  185MOL0     C24883   1.588   9.621   0.003 -0.0906 -0.0214  0.1788
  185MOL0     C24884   1.565   9.479   0.047  0.0878 -0.3147  0.5032
  185MOL0    Cl24885   1.516   9.392  -0.096 -0.2738  0.1043  0.1982
  185MOL0     C24886   2.404   9.946   0.291 -1.0752 -0.8290 -0.0643
  185MOL0     C24887   2.536   9.955   0.326 -0.0837 -0.2621  1.0278
  185MOL0     O24888   2.802   9.810   0.365 -0.1864  1.0552  0.4788
  185MOL0     C24889   2.974  10.058   0.536  0.3664  0.2726  0.7590
  185MOL0     C24890   3.098  10.101   0.570  0.1868 -0.4822  0.1738
  185MOL0     N24891   3.660  10.233   0.971 -0.5744  0.9255 -0.6108
  185MOL0     N24892   3.785  10.243   0.986 -0.6894  0.7922 -0.5308
  185MOL0     C24893   3.207   9.870   1.522 -0.2116 -0.9245  0.0914
  185MOL0     C24894   3.062   9.846   1.513  0.8567  0.3582 -1.4379
  185MOL0     C24895   2.664   9.678   1.381 -0.3591 -0.2405 -0.0420
  185MOL0     C24896   2.604   9.754   1.480  0.3284  0.0441  0.3820
  185MOL0     C24897   2.473   9.727   1.513  0.8275 -0.7191 -0.0236
  185MOL0     C24898   2.403   9.623   1.453  0.6689  0.5193 -0.3969
  185MOL0     O24899   2.274   9.578   1.481 -0.4763 -0.0720 -0.7491
  185MOL0     C24900   2.229   9.624   1.608  0.3151  0.1173 -0.7987
  185MOL0     C24901   2.080   9.598   1.621 -0.5336 -0.4532 -0.5955
  185MOL0     C24902   2.020   9.630   1.761 -0.4998 -0.0620  0.5342
  185MOL0     C24903   1.864   9.625   1.774  0.4146 -0.4236  0.6475
  185MOL0     C24904   1.794   9.732   1.696  1.4595  0.1789  0.9278
  185MOL0     C24905   1.725   9.806   1.629 -0.4837  0.2721 -0.4692
  185MOL0     C24906   2.462   9.551   1.349  0.3119 -0.4787  0.0379
  185MOL0     C24907   2.592   9.572   1.325 -0.4379 -0.8545 -0.1586
  185MOL0     H24908   3.022   9.824   1.184  0.4497  0.1280 -0.1918
  185MOL0     H24909   3.268   9.851   1.183 -0.6297 -1.6890  0.0774
  185MOL0     H24910   3.470  10.079   1.334 -1.9861  1.2607  0.9068
  185MOL0     H24911   3.422  10.070   1.513  2.1381  1.4760  1.4987
  185MOL0     H24912   3.645  10.090   1.534 -3.3435 -0.5033  3.4165
  185MOL0     H24913   3.620   9.925   1.549 -5.3371  1.0331  1.0765
  185MOL0     H24914   3.700   9.867   1.311  2.2101  0.6996 -2.4889
  185MOL0     H24915   3.707  10.035   1.266  2.3622 -0.9629 -1.0186
  185MOL0     H24916   3.880  10.081   1.420  2.3245 -0.4891  1.0731
  185MOL0     H24917   3.862   9.938   1.508 -2.2535 -2.2309 -1.1978
  185MOL0     H24918   4.068   9.944   1.354 -1.0615  0.8117  1.0859
  185MOL0     H24919   3.975   9.797   1.334  0.6995 -0.7545  0.2212
  185MOL0     H24920   4.042   9.872   1.113 -1.4081 -0.1908 -0.8401
  185MOL0     H24921   3.874   9.927   1.124 -0.4205  2.6856 -0.1745
  185MOL0     H24922   3.965  10.151   1.176  2.8462  1.4716  0.3807
  185MOL0     H24923   4.119  10.089   1.128  0.0867  0.2196  1.2906
  185MOL0     H24924   3.995   9.983   0.913  0.2346 -0.4456 -0.4390
  185MOL0     H24925   4.029  10.157   0.915 -0.1916 -0.7353 -0.1120
  185MOL0     H24926   3.751   9.918   0.916  0.4759 -0.3263 -0.2525
  185MOL0     H24927   3.481   9.949   1.011  0.5094  0.3456 -0.3720
  185MOL0     H24928   3.433  10.112   1.039 -1.1623  0.0243 -0.2500
  185MOL0     H24929   3.430  10.176   0.789 -3.2562 -0.0947 -0.3716
  185MOL0     H24930   3.304  10.077   0.850  0.5754 -0.0318  2.1246
  185MOL0     H24931   3.382   9.875   0.742  0.7960 -0.7233 -0.8000
  185MOL0     H24932   3.551   9.937   0.757  0.6726  4.0844  0.7390
  185MOL0     H24933   3.470   9.917   0.515 -0.5813 -0.2461  0.1173
  185MOL0     H24934   3.548  10.063   0.579  1.9331 -3.0410  1.3598
  185MOL0     H24935   3.291   9.841   0.481  0.3825 -0.5044 -0.1729
  185MOL0     H24936   3.052   9.691   0.298 -1.7947 -1.0105  0.1673
  185MOL0     H24937   3.152   9.642   0.432 -1.1710 -1.5122  0.8921
  185MOL0     H24938   2.975   9.639   0.450 -0.6827 -0.9667 -1.6965
  185MOL0     H24939   2.505   9.920   0.660  1.8058 -2.0001 -1.0911
  185MOL0     H24940   2.274   9.893   0.590 -0.5348 -3.7320 -1.2404
  185MOL0     H24941   2.178  10.108   0.259 -0.0474  0.9847  1.1777
  185MOL0     H24942   2.151   9.962   0.158 -2.4643  2.6628 -2.3600
  185MOL0     H24943   1.945  10.040   0.363 -2.7011  0.7043 -1.2154
  185MOL0     H24944   1.943  10.126   0.222 -0.9991 -0.3746 -0.8135
  185MOL0     H24945   1.897   9.818   0.240 -1.3730  1.2073  0.7573
  185MOL0     H24946   1.963   9.887   0.087 -1.1688  2.2619 -1.8107
  185MOL0     H24947   1.700   9.992   0.223 -0.4148 -0.7443  0.7784
  185MOL0     H24948   1.775  10.044   0.080 -1.4269  0.8576  1.8035
  185MOL0     H24949   1.738   9.830  -0.043  0.9744  1.7706 -1.2122
  185MOL0     H24950   1.589   9.913   0.022  0.6519  2.7260  1.9890
  185MOL0     H24951   1.754   9.665   0.145  0.5987 -1.4067  0.3366
  185MOL0     H24952   1.586   9.708   0.192  0.6806 -4.0250  0.4025
  185MOL0     H24953   1.659   9.614  -0.081 -1.5986  1.3559 -1.2847
  185MOL0     H24954   1.502   9.667  -0.047  1.2584 -0.3637 -2.6993
  185MOL0     H24955   1.490   9.463   0.125  0.1867  3.2130  1.4952
  185MOL0     H24956   1.660   9.441   0.086  1.2585 -0.1459 -1.9624
  185MOL0     H24957   2.373   9.964   0.189  2.0162 -0.5051 -1.0273
  185MOL0     H24958   2.616   9.977   0.256 -0.6680 -2.8259 -0.5688
  185MOL0     H24959   2.904  10.140   0.547  1.1847  1.1036 -0.0463
  185MOL0     H24960   3.089  10.202   0.609 -1.6538 -2.0181  4.3011
  185MOL0     H24961   3.257   9.894   1.615  0.5784  0.2456 -0.6063
  185MOL0     H24962   3.005   9.849   1.606  2.4544 -1.0864 -0.3505
  185MOL0     H24963   2.651   9.841   1.524 -0.2101 -0.2405  1.5812
  185MOL0     H24964   2.423   9.797   1.580  1.0199  0.2910 -0.9091
  185MOL0     H24965   2.274   9.562   1.686 -0.2861  0.1482 -0.4296
  185MOL0     H24966   2.242   9.731   1.626 -3.4793  0.4142  0.9222
  185MOL0     H24967   2.073   9.490   1.607 -0.7890 -0.5736  0.3358
  185MOL0     H24968   2.027   9.644   1.537 -1.3527 -1.4458 -0.6370
  185MOL0     H24969   2.065   9.725   1.792  3.5143 -1.5099 -0.2032
  185MOL0     H24970   2.070   9.554   1.821  2.4886  1.2312 -0.1489
  185MOL0     H24971   1.827   9.637   1.876 -1.6644  2.1067 -0.3026
  185MOL0     H24972   1.837   9.524   1.741 -0.8563  1.2041 -4.1069
  185MOL0     H24973   1.660   9.874   1.578 -0.6578 -0.4407 -1.2107
  185MOL0     H24974   2.409   9.476   1.292  0.2511 -1.6378  1.5515
  185MOL0     H24975   2.644   9.513   1.250 -1.0722 -3.4694  1.3082
  186MOL0     O24976   8.712   7.762   0.674  0.2294 -0.6124  0.7098
  186MOL0     C24977   8.661   7.689   0.587 -0.5801  0.3058 -0.7919
  186MOL0     O24978   8.724   7.589   0.522 -0.5519 -0.8102  0.4157
  186MOL0     C24979   8.841   7.539   0.568 -0.6055  1.6543 -0.6556
  186MOL0     C24980   8.941   7.528   0.478  0.2813 -0.3385 -0.1437
  186MOL0     C24981   9.069   7.469   0.516 -0.0582  0.4968  0.0225
  186MOL0     C24982   9.095   7.424   0.646 -0.6327  0.3336  0.4828
  186MOL0     O24983   9.227   7.386   0.666  0.3503  0.0740  0.3945
  186MOL0     C24984   9.275   7.390   0.805 -0.2785  0.3528 -0.5785
  186MOL0     C24985   9.424   7.402   0.808 -0.3631 -0.1611  0.4426
  186MOL0     C24986   9.475   7.422   0.947  0.2321 -0.0682 -0.8356
  186MOL0     C24987   9.628   7.391   0.953 -0.3933  0.5380  0.2788
  186MOL0     C24988   9.687   7.426   1.090 -0.3147  0.6217 -1.0663
  186MOL0     C24989   9.837   7.465   1.097  0.3429  0.6741  0.0770
  186MOL0     C24990   9.877   7.608   1.063 -1.4397 -1.4749 -0.6314
  186MOL0     C24991  10.019   7.641   1.114  1.5292  0.4679  0.1213
  186MOL0     N24992  10.036   7.650   1.260 -0.0490 -0.5481  0.1815
  186MOL0     C24993  10.158   7.637   1.321 -0.7384  1.2519 -0.3946
  186MOL0     C24994  10.132   7.624   1.456  1.1274 -0.7641 -0.0851
  186MOL0     C24995  10.241   7.612   1.553  0.1625 -0.2781  0.2678
  186MOL0     C24996  10.298   7.474   1.563  0.3123  0.7333 -0.1040
  186MOL0     C24997  10.396   7.455   1.673 -0.2865 -0.4364 -0.2818
  186MOL0     C24998  10.533   7.537   1.644 -0.5100 -0.1969  0.2525
  186MOL0     O24999  10.611   7.515   1.767  0.5542  0.2799 -0.7963
  186MOL0     C25000  10.740   7.543   1.753 -0.7651  0.0619 -0.7148
  186MOL0     C25001  10.801   7.668   1.769  0.0469  0.5838 -1.2594
  186MOL0     C25002  10.941   7.682   1.746 -0.1253  0.5452 -0.0758
  186MOL0     C25003  11.006   7.816   1.759  0.1367 -0.0816  0.5763
  186MOL0     C25004  11.018   7.566   1.712  0.3306 -0.6572  1.2967
  186MOL0     C25005  11.173   7.566   1.708 -0.1640  0.4510  0.7188
  186MOL0     O25006  11.224   7.446   1.696 -0.3045 -0.3568  0.5894
  186MOL0     C25007  11.357   7.423   1.702  0.1432 -0.4747 -0.4049
  186MOL0     C25008  11.403   7.318   1.616 -0.4222 -0.1824 -0.3534
  186MOL0     C25009  11.520   7.253   1.650  0.5868 -0.2562 -0.2372
  186MOL0     C25010  11.607   7.310   1.744  1.0318 -0.3286 -0.5265
  186MOL0     O25011  11.738   7.265   1.754  0.9054  0.5760 -0.2364
  186MOL0     C25012  11.810   7.262   1.878  0.4718 -0.2971  0.0653
  186MOL0     C25013  11.947   7.191   1.865  0.4084 -0.0619  0.7057
  186MOL0     C25014  12.049   7.250   1.769 -0.5118 -0.6287  0.0115
  186MOL0     C25015  12.193   7.220   1.800 -0.3823 -0.8720 -0.1679
  186MOL0     C25016  12.246   7.285   1.924 -0.6980  0.5603 -0.2757
  186MOL0     C25017  12.398   7.277   1.931  1.2313  0.0201 -0.0577
  186MOL0     C25018  12.444   7.139   1.907  0.7110  0.4868  0.0192
  186MOL0     C25019  12.592   7.119   1.927  0.6816  0.2871  0.2617
  186MOL0    Cl25020  12.676   7.221   1.813  0.0839  0.0882  0.2707
  186MOL0     C25021  11.567   7.417   1.819  0.4085 -0.6336  0.3748
  186MOL0     C25022  11.437   7.480   1.799 -0.6479 -1.2804 -0.8482
  186MOL0     O25023  11.240   7.670   1.699 -0.7678  0.0364  0.1635
  186MOL0     C25024  10.953   7.447   1.677 -0.3198 -0.1750  0.4393
  186MOL0     C25025  10.815   7.435   1.710 -0.6965  0.1835 -0.0131
  186MOL0     N25026   9.994   7.640   1.466  0.9598  0.1688 -0.4174
  186MOL0     N25027   9.935   7.650   1.353  0.1662  0.3226  0.8203
  186MOL0     C25028   8.987   7.445   0.745 -0.1857  0.1774  0.7962
  186MOL0     C25029   8.865   7.496   0.705  0.3794 -0.2718  0.1829
  186MOL0     C25030   8.526   7.718   0.558 -0.1440  0.2134  0.8398
  186MOL0     C25031   8.479   7.847   0.586 -0.8030  0.1494 -0.0394
  186MOL0     C25032   8.337   7.867   0.568  0.2231  0.2528  1.0698
  186MOL0     C25033   8.254   7.762   0.533  0.1656  0.6902 -0.7299
  186MOL0     O25034   8.121   7.780   0.532  0.3576 -0.1295  0.0598
  186MOL0     C25035   8.037   7.689   0.598  0.3504  0.0998 -0.0849
  186MOL0     C25036   7.907   7.759   0.617  0.4289  0.2619  0.4649
  186MOL0     C25037   7.834   7.785   0.480  0.6134  0.5128  0.0176
  186MOL0     C25038   7.687   7.830   0.473  0.5119 -0.3261 -0.4166
  186MOL0     C25039   7.666   7.970   0.520  0.3347 -0.6234 -0.6080
  186MOL0     C25040   7.641   8.083   0.550 -0.4344  0.3400  0.2550
  186MOL0     C25041   8.313   7.645   0.498 -0.0477 -0.0604 -0.5693
  186MOL0     C25042   8.443   7.620   0.512 -0.0758  0.2317  0.1597
  186MOL0     H25043   8.932   7.574   0.380 -3.4080 -4.6412 -2.1934
  186MOL0     H25044   9.151   7.468   0.445  1.4156  1.5364  1.6251
  186MOL0     H25045   9.234   7.482   0.849  0.6415 -1.1371  3.8920
  186MOL0     H25046   9.242   7.300   0.858 -0.4803  0.4915 -0.4666
  186MOL0     H25047   9.464   7.312   0.760 -0.3636  0.7826 -1.4397
  186MOL0     H25048   9.445   7.491   0.749 -2.9972  1.7096  2.1205
  186MOL0     H25049   9.471   7.527   0.976 -0.3883  0.3594 -2.3826
  186MOL0     H25050   9.425   7.359   1.022  2.0161 -2.5484 -1.5858
  186MOL0     H25051   9.630   7.285   0.929  2.6618  0.3697  0.7777
  186MOL0     H25052   9.692   7.434   0.875  0.6245 -0.1765  0.6896
  186MOL0     H25053   9.638   7.522   1.111  2.5581  1.9115  0.3565
  186MOL0     H25054   9.662   7.366   1.178 -0.3753 -0.5000 -1.8385
  186MOL0     H25055   9.880   7.438   1.194  1.1116 -0.9685 -0.6781
  186MOL0     H25056   9.891   7.418   1.015 -1.5070 -0.2869 -0.6572
  186MOL0     H25057   9.864   7.623   0.956 -2.8911  1.5684 -0.1446
  186MOL0     H25058   9.825   7.688   1.117  1.5350  1.7315 -2.1239
  186MOL0     H25059  10.074   7.729   1.079  2.8067 -0.9744 -1.6855
  186MOL0     H25060  10.085   7.560   1.082  1.7403 -0.3093  2.3489
  186MOL0     H25061  10.257   7.620   1.280 -0.9776  0.0502 -0.5135
  186MOL0     H25062  10.323   7.679   1.527  3.3629 -2.8989  2.7346
  186MOL0     H25063  10.208   7.644   1.653  2.0104  0.6804  0.6118
  186MOL0     H25064  10.326   7.442   1.462 -0.8568 -0.5060 -0.0562
  186MOL0     H25065  10.213   7.412   1.593  1.5055  0.0300  2.0244
  186MOL0     H25066  10.411   7.350   1.697  0.5788 -0.8030 -2.2479
  186MOL0     H25067  10.345   7.516   1.748  0.0896  2.4159 -2.1620
  186MOL0     H25068  10.517   7.644   1.631  0.3144  0.2837  2.5836
  186MOL0     H25069  10.589   7.500   1.558 -0.3761  0.9161 -0.1471
  186MOL0     H25070  10.741   7.756   1.788  2.4449  2.2331 -0.8662
  186MOL0     H25071  11.059   7.831   1.665 -1.2850  1.0431 -0.0774
  186MOL0     H25072  10.940   7.899   1.786 -1.9026 -0.6358 -2.3214
  186MOL0     H25073  11.092   7.804   1.826  1.2400 -2.5377 -1.1215
  186MOL0     H25074  11.335   7.277   1.541 -2.2929 -0.3657  1.3542
  186MOL0     H25075  11.547   7.170   1.586  1.8083 -0.7165  0.8367
  186MOL0     H25076  11.841   7.359   1.920  1.1237 -0.0328 -0.9985
  186MOL0     H25077  11.755   7.214   1.960  0.2309 -1.1162 -0.5710
  186MOL0     H25078  11.979   7.193   1.969 -4.4674  1.6786  2.4536
  186MOL0     H25079  11.920   7.085   1.851 -3.2957  0.9094 -0.7008
  186MOL0     H25080  12.039   7.359   1.766  1.4716 -0.4240 -0.7578
  186MOL0     H25081  12.040   7.211   1.667  2.1764  1.5704 -1.1870
  186MOL0     H25082  12.214   7.113   1.803  0.5389 -0.7349 -1.1028
  186MOL0     H25083  12.250   7.260   1.716  0.8878 -2.8688 -0.3225
  186MOL0     H25084  12.211   7.235   2.015  2.4933  1.9210  1.8765
  186MOL0     H25085  12.212   7.388   1.919  1.4728  1.3457 -0.2551
  186MOL0     H25086  12.442   7.350   1.862  1.7654 -1.0922 -0.9361
  186MOL0     H25087  12.431   7.318   2.026  1.1113  1.1414 -0.4891
  186MOL0     H25088  12.427   7.103   1.805 -1.7273  0.2483  0.4556
  186MOL0     H25089  12.377   7.083   1.973  1.2963  1.0828  1.1526
  186MOL0     H25090  12.621   7.016   1.903  0.1022  0.9631 -4.1002
  186MOL0     H25091  12.616   7.156   2.027 -0.7851  0.0916  0.7047
  186MOL0     H25092  11.629   7.484   1.877 -1.8345  0.5032  1.5915
  186MOL0     H25093  11.408   7.573   1.847  0.2256 -0.7540 -1.3193
  186MOL0     H25094  11.001   7.358   1.638  0.5808 -0.2036  1.5447
  186MOL0     H25095  10.779   7.333   1.711 -0.3128 -0.0149 -1.8302
  186MOL0     H25096   8.994   7.418   0.850  2.1295  0.3123  0.7151
  186MOL0     H25097   8.785   7.502   0.778  0.8580  4.7782  0.5975
  186MOL0     H25098   8.542   7.930   0.615 -1.0357  0.5388 -0.6295
  186MOL0     H25099   8.300   7.968   0.578  2.5592  0.9949  3.3693
  186MOL0     H25100   8.024   7.593   0.547  0.9380  0.0157 -0.0835
  186MOL0     H25101   8.088   7.656   0.689 -0.7919 -1.3074  0.0862
  186MOL0     H25102   7.931   7.853   0.668 -1.9100  1.9212 -1.3109
  186MOL0     H25103   7.854   7.684   0.677 -0.2449  0.0180 -0.4089
  186MOL0     H25104   7.845   7.697   0.416 -0.3955 -0.8290  1.6279
  186MOL0     H25105   7.888   7.866   0.431  2.8837 -0.8225  0.1420
  186MOL0     H25106   7.625   7.761   0.532  2.6571 -1.6106  0.4816
  186MOL0     H25107   7.636   7.832   0.376 -1.2259 -1.0804  0.4367
  186MOL0     H25108   7.620   8.187   0.563  2.2825  1.2641 -1.9172
  186MOL0     H25109   8.241   7.567   0.475  0.2352 -1.3951  2.5220
  186MOL0     H25110   8.492   7.531   0.473 -1.5744  0.0545 -1.4265
  187MOL0     O25111  10.646   5.635   0.128  0.4124  0.1422  0.0821
  187MOL0     C25112  10.631   5.755   0.109  0.3341 -0.0506  0.2933
  187MOL0     O25113  10.512   5.818   0.074  0.2400 -0.0575  0.7137
  187MOL0     C25114  10.394   5.751   0.044  0.2007 -0.3336  1.2136
  187MOL0     C25115  10.370   5.626   0.091  0.9178  1.1336  0.4092
  187MOL0     C25116  10.276   5.548   0.025 -0.4637 -0.4947  0.0253
  187MOL0     C25117  10.185   5.597  -0.068 -0.7494 -0.7409  0.3770
  187MOL0     O25118  10.086   5.510  -0.121 -0.3987  0.4174 -0.2588
  187MOL0     C25119  10.009   5.561  -0.225 -0.1045 -0.4194  0.5131
  187MOL0     C25120   9.901   5.447  -0.249  0.0361 -0.3138  0.5559
  187MOL0     C25121   9.810   5.435  -0.129  0.3279 -0.3827 -0.1978
  187MOL0     C25122   9.703   5.316  -0.167  0.4756 -0.7091 -0.0329
  187MOL0     C25123   9.583   5.313  -0.067  0.8042  0.0474  1.3723
  187MOL0     C25124   9.512   5.176  -0.085  0.7181  0.9010 -0.0538
  187MOL0     C25125   9.358   5.175  -0.070 -0.4304  0.1045 -0.3493
  187MOL0     C25126   9.274   5.048  -0.107  0.7336 -0.1893 -0.5784
  187MOL0     N25127   9.333   4.923  -0.046  0.2221  0.0454 -0.7700
  187MOL0     C25128   9.307   4.889   0.080 -0.4646 -0.1552  0.1313
  187MOL0     C25129   9.398   4.787   0.103 -0.9186  0.1208  0.1285
  187MOL0     C25130   9.404   4.728   0.244 -0.2915 -0.0598  0.1245
  187MOL0     C25131   9.532   4.758   0.318 -0.4728 -0.3344  0.4454
  187MOL0     C25132   9.557   4.704   0.462 -0.0953  0.1225 -0.5639
  187MOL0     C25133   9.448   4.715   0.564 -0.3981 -0.7438 -0.7160
  187MOL0     O25134   9.534   4.684   0.679 -0.4687  0.8122  0.0740
  187MOL0     C25135   9.474   4.685   0.810  0.4555  0.6642  0.8465
  187MOL0     C25136   9.561   4.698   0.917 -0.2965  0.0833 -0.7112
  187MOL0     C25137   9.513   4.726   1.048 -0.3444  0.1758  1.0649
  187MOL0     C25138   9.616   4.731   1.158 -0.0299  0.7633 -0.0975
  187MOL0     C25139   9.371   4.756   1.064  0.0080 -0.0514 -0.5614
  187MOL0     C25140   9.305   4.802   1.197  0.6970  0.4109  0.0678
  187MOL0     O25141   9.377   4.840   1.312  0.2201  0.3902  0.6613
  187MOL0     C25142   9.302   4.866   1.422 -1.7245 -0.0709  0.7462
  187MOL0     C25143   9.264   4.756   1.508 -0.5721 -0.3157  0.5316
  187MOL0     C25144   9.210   4.783   1.630  0.0596  0.2282  0.2867
  187MOL0     C25145   9.169   4.915   1.663 -0.6844  0.4284 -1.1290
  187MOL0     O25146   9.103   4.937   1.781 -0.0379  0.2390  0.2879
  187MOL0     C25147   9.185   4.977   1.889  0.2721  0.2344 -0.7677
  187MOL0     C25148   9.151   5.114   1.959 -0.9513 -0.8522 -0.1609
  187MOL0     C25149   9.099   5.221   1.862  0.4759  0.6181  0.4518
  187MOL0     C25150   9.022   5.330   1.936 -0.0838 -0.4383 -0.3099
  187MOL0     C25151   8.932   5.430   1.861  0.0369 -0.1409  0.1220
  187MOL0     C25152   8.949   5.434   1.713  0.5498 -0.3255 -0.0911
  187MOL0     C25153   8.836   5.519   1.659  1.6737  0.8590  0.3642
  187MOL0     C25154   8.854   5.538   1.502  0.5930 -0.6914  0.3169
  187MOL0    Cl25155   8.706   5.623   1.453  0.1298  0.1968  0.2131
  187MOL0     C25156   9.216   5.031   1.588 -0.2224  0.1503 -0.5136
  187MOL0     C25157   9.273   4.996   1.460  0.7822 -0.1674 -0.2002
  187MOL0     O25158   9.181   4.814   1.190 -0.5973  0.8901  0.8439
  187MOL0     C25159   9.284   4.731   0.951 -0.5658  0.0558  0.4192
  187MOL0     C25160   9.336   4.693   0.827 -0.3832  0.5166 -0.6401
  187MOL0     N25161   9.487   4.763  -0.004  0.2033 -0.2230 -0.6065
  187MOL0     N25162   9.446   4.857  -0.094  1.3575  0.6301 -0.1799
  187MOL0     C25163  10.214   5.727  -0.110  0.2371  0.6774  0.4135
  187MOL0     C25164  10.312   5.803  -0.052 -0.1190 -0.1126  0.8705
  187MOL0     C25165  10.750   5.846   0.137  0.0180  0.1745 -0.8772
  187MOL0     C25166  10.877   5.811   0.187  0.4585  0.9340 -0.2365
  187MOL0     C25167  10.972   5.911   0.209  0.2763  0.5360  0.3888
  187MOL0     C25168  10.950   6.047   0.199  0.9861 -0.5079  0.4141
  187MOL0     O25169  11.051   6.128   0.235  0.1995  0.0377 -0.4037
  187MOL0     C25170  11.041   6.160   0.374  0.4077  0.0027 -0.2995
  187MOL0     C25171  11.135   6.280   0.400  0.0582 -0.0319 -0.4557
  187MOL0     C25172  11.058   6.407   0.361 -0.0368 -0.0824  1.0049
  187MOL0     C25173  10.914   6.430   0.418 -0.4084  0.4333  0.5899
  187MOL0     C25174  10.901   6.394   0.558  1.1439  0.0032  0.0967
  187MOL0     C25175  10.901   6.372   0.676 -0.2961 -0.2312  0.1243
  187MOL0     C25176  10.829   6.083   0.145  0.7882 -0.5861 -0.4318
  187MOL0     C25177  10.730   5.988   0.114 -0.1137  0.6822 -0.2329
  187MOL0     H25178  10.426   5.599   0.180  1.0847 -1.5664 -0.4504
  187MOL0     H25179  10.269   5.447   0.064 -1.8850  0.8048  3.5453
  187MOL0     H25180   9.965   5.657  -0.198  0.8664  0.0893  0.3376
  187MOL0     H25181  10.073   5.576  -0.312  1.6557 -2.4835  1.3439
  187MOL0     H25182   9.840   5.477  -0.335  1.1719  0.2067 -0.0933
  187MOL0     H25183   9.944   5.349  -0.269  0.2430 -0.4576  1.6853
  187MOL0     H25184   9.854   5.409  -0.032  0.9992  0.0164 -0.3883
  187MOL0     H25185   9.759   5.532  -0.125 -0.3608 -0.7533  0.2342
  187MOL0     H25186   9.661   5.319  -0.268  1.2620 -1.4412 -0.3975
  187MOL0     H25187   9.762   5.225  -0.151  1.7724  0.1321  0.1012
  187MOL0     H25188   9.619   5.324   0.035  2.1233  0.8583  0.8381
  187MOL0     H25189   9.508   5.390  -0.087 -1.1176 -1.4998  2.2605
  187MOL0     H25190   9.526   5.128  -0.183 -0.6011 -0.4890  0.3979
  187MOL0     H25191   9.561   5.106  -0.017 -1.5324 -1.6311 -0.8665
  187MOL0     H25192   9.321   5.208   0.027  0.0737 -1.2781  0.3457
  187MOL0     H25193   9.328   5.248  -0.146  0.2777  1.1639  0.3677
  187MOL0     H25194   9.279   5.031  -0.215  0.8114  1.3004 -0.8369
  187MOL0     H25195   9.168   5.058  -0.081 -0.2414  1.8659 -4.5567
  187MOL0     H25196   9.242   4.934   0.154  0.4952  0.9439  0.3371
  187MOL0     H25197   9.313   4.752   0.299 -0.2430  0.5150 -0.0364
  187MOL0     H25198   9.399   4.619   0.233  3.6932 -0.2185 -1.9169
  187MOL0     H25199   9.554   4.865   0.331  1.9838 -0.7094 -0.1512
  187MOL0     H25200   9.616   4.722   0.259 -0.5712  1.2534 -0.7581
  187MOL0     H25201   9.641   4.767   0.494  0.5999 -1.0688  0.0279
  187MOL0     H25202   9.597   4.603   0.457  2.6510  1.1311 -1.1030
  187MOL0     H25203   9.373   4.635   0.555  0.9175 -2.4202  2.0884
  187MOL0     H25204   9.412   4.818   0.571  0.5800 -0.4282 -0.2187
  187MOL0     H25205   9.667   4.681   0.902 -0.3335 -0.1510 -0.7060
  187MOL0     H25206   9.598   4.672   1.248 -1.4559  1.1045 -0.1445
  187MOL0     H25207   9.717   4.693   1.139 -0.6303 -2.5836  2.4860
  187MOL0     H25208   9.628   4.836   1.188  2.3873  0.7090 -0.6611
  187MOL0     H25209   9.261   4.651   1.481 -2.6910 -0.4612  1.0833
  187MOL0     H25210   9.173   4.697   1.685  1.4189 -1.0037 -0.6248
  187MOL0     H25211   9.195   4.896   1.962  2.5534 -1.2309 -2.5584
  187MOL0     H25212   9.290   4.984   1.858  0.2617 -3.7999 -2.3058
  187MOL0     H25213   9.073   5.089   2.031  1.3200  2.2539  3.7889
  187MOL0     H25214   9.234   5.150   2.020  0.6618  0.7711 -3.1092
  187MOL0     H25215   9.037   5.170   1.788  0.0934 -2.7249  2.9113
  187MOL0     H25216   9.185   5.265   1.810 -0.2605  1.6466  0.0725
  187MOL0     H25217   8.955   5.288   2.013 -3.2845  0.4207 -2.4281
  187MOL0     H25218   9.098   5.392   1.983  0.1305 -0.4777 -0.6038
  187MOL0     H25219   8.959   5.526   1.906  1.9699 -0.4797 -0.2269
  187MOL0     H25220   8.831   5.393   1.879 -1.0907  3.2605  1.6709
  187MOL0     H25221   9.040   5.487   1.684 -0.2917 -0.1804 -2.6841
  187MOL0     H25222   8.946   5.336   1.666 -0.3934 -2.1701  3.4693
  187MOL0     H25223   8.835   5.622   1.698 -3.2231  1.6052 -1.1067
  187MOL0     H25224   8.745   5.460   1.670  2.1000 -1.0544 -4.1723
  187MOL0     H25225   8.863   5.438   1.458  1.4273 -0.3893 -0.2213
  187MOL0     H25226   8.942   5.599   1.481 -0.8184  0.6412 -2.3088
  187MOL0     H25227   9.203   5.132   1.624  0.7943 -0.0328  0.4077
  187MOL0     H25228   9.282   5.085   1.398 -2.1540  1.0548  0.9216
  187MOL0     H25229   9.176   4.726   0.963 -0.5207 -0.6838  0.5194
  187MOL0     H25230   9.279   4.662   0.740 -2.6415 -2.0650  1.5568
  187MOL0     H25231  10.163   5.764  -0.199  0.5675  2.0370  0.7663
  187MOL0     H25232  10.335   5.899  -0.098 -1.3679  0.3994  1.2532
  187MOL0     H25233  10.887   5.707   0.217 -2.2186  0.5965 -0.2284
  187MOL0     H25234  11.070   5.897   0.255  0.2208 -1.5326 -0.0560
  187MOL0     H25235  10.937   6.170   0.406  0.8251 -1.3259  1.6343
  187MOL0     H25236  11.081   6.075   0.430  2.3710  0.0389 -1.5191
  187MOL0     H25237  11.237   6.278   0.361  0.5259  2.3239  0.4436
  187MOL0     H25238  11.150   6.292   0.508  0.1312 -1.6135 -0.2706
  187MOL0     H25239  11.057   6.395   0.252 -2.6327 -1.1265  1.0494
  187MOL0     H25240  11.126   6.488   0.386 -1.1730  1.2797 -0.1532
  187MOL0     H25241  10.840   6.377   0.358 -0.5549  2.1255 -0.8180
  187MOL0     H25242  10.874   6.532   0.409 -0.4801  0.3210 -0.4638
  187MOL0     H25243  10.887   6.365   0.782  1.2506  0.0750  0.3817
  187MOL0     H25244  10.801   6.186   0.124  0.1957 -0.4171  1.0898
  187MOL0     H25245  10.634   6.026   0.083 -0.5237  1.0849  1.3965
  188MOL0     O25246   2.777   1.328   2.482 -0.5582  0.0802  0.8874
  188MOL0     C25247   2.893   1.373   2.482 -0.5624 -0.7675  0.0263
  188MOL0     O25248   2.975   1.391   2.596 -0.2883 -0.8174 -1.0471
  188MOL0     C25249   2.924   1.355   2.716 -0.3277 -0.5948 -0.8820
  188MOL0     C25250   2.854   1.449   2.797 -0.1421  0.4987 -0.0687
  188MOL0     C25251   2.810   1.411   2.924 -0.3822  0.3310  0.2701
  188MOL0     C25252   2.835   1.282   2.974  0.4185 -0.6427  0.9784
  188MOL0     O25253   2.777   1.230   3.085 -0.8609 -0.4493 -0.9302
  188MOL0     C25254   2.655   1.295   3.135 -1.1680  0.1848 -0.2654
  188MOL0     C25255   2.599   1.214   3.242  0.0002 -0.1540  0.5621
  188MOL0     C25256   2.463   1.283   3.287  0.2702 -0.7782 -0.8621
  188MOL0     C25257   2.340   1.209   3.214  0.2446  0.8853 -0.9883
  188MOL0     C25258   2.207   1.244   3.285 -0.4328  0.3216 -1.0819
  188MOL0     C25259   2.111   1.123   3.293 -0.1636  0.1812  0.3646
  188MOL0     C25260   1.966   1.163   3.332 -0.5641 -0.0560 -0.4253
  188MOL0     C25261   1.952   1.205   3.480  0.6933  0.6292 -1.1410
  188MOL0     N25262   1.971   1.091   3.576 -0.4867  0.0241 -0.5977
  188MOL0     C25263   2.054   1.093   3.690 -0.0838  1.3760  0.0446
  188MOL0     C25264   2.006   0.999   3.771  0.4998 -0.6222 -0.1101
  188MOL0     C25265   2.060   0.963   3.910 -0.2108  0.1845 -0.4301
  188MOL0     C25266   2.190   0.877   3.883 -0.6275  0.0208  0.3005
  188MOL0     C25267   2.171   0.728   3.829  1.1603  0.1635 -0.1409
  188MOL0     C25268   2.286   0.674   3.748  0.2446  0.7424  0.4141
  188MOL0     O25269   2.403   0.642   3.816 -0.0352  0.5088 -0.4879
  188MOL0     C25270   2.400   0.535   3.900  0.8847  1.1284  0.0959
  188MOL0     C25271   2.516   0.508   3.973 -0.6833 -0.4157  0.5683
  188MOL0     C25272   2.532   0.417   4.073 -0.7091 -0.9467 -0.2842
  188MOL0     C25273   2.671   0.399   4.130  0.0616  0.0743  0.4902
  188MOL0     C25274   2.417   0.333   4.108 -0.3910 -0.4734  0.6769
  188MOL0     C25275   2.414   0.230   4.220  0.1561 -0.4115  0.1965
  188MOL0     O25276   2.531   0.172   4.263  0.1199 -0.5684  0.1663
  188MOL0     C25277   2.529   0.061   4.342 -0.3393  0.2534  0.4920
  188MOL0     C25278   2.611   0.067   4.451 -0.0821  0.3426 -0.9187
  188MOL0     C25279   2.607  -0.042   4.546  0.0498 -0.2538  0.2254
  188MOL0     C25280   2.535  -0.162   4.520 -1.0515  0.2447 -0.0472
  188MOL0     O25281   2.540  -0.270   4.610  0.1271  0.2381  0.0397
  188MOL0     C25282   2.580  -0.399   4.556  0.2209  0.2217 -0.7754
  188MOL0     C25283   2.730  -0.430   4.573  0.0156 -0.4266 -0.1487
  188MOL0     C25284   2.746  -0.500   4.698 -0.9865  0.7583  0.4779
  188MOL0     C25285   2.907  -0.492   4.746  0.7322  0.0805  0.3958
  188MOL0     C25286   3.002  -0.550   4.640  0.1126  0.6787 -0.1957
  188MOL0     C25287   3.144  -0.500   4.668 -0.5146  0.4898 -0.4676
  188MOL0     C25288   3.239  -0.524   4.547  0.8242  0.0676  0.1506
  188MOL0     C25289   3.363  -0.448   4.548 -0.3009  0.5255 -0.2529
  188MOL0    Cl25290   3.449  -0.497   4.698 -0.2832 -0.3926  0.6719
  188MOL0     C25291   2.463  -0.169   4.401  0.0678  0.7793 -0.5770
  188MOL0     C25292   2.448  -0.055   4.327  0.5868 -0.9373 -0.1354
  188MOL0     O25293   2.304   0.211   4.270 -0.4310  0.4648 -0.3913
  188MOL0     C25294   2.308   0.360   4.031 -0.3753 -0.4197  0.5323
  188MOL0     C25295   2.293   0.446   3.921 -0.5267  0.2345 -0.2327
  188MOL0     N25296   1.896   0.940   3.709  0.3678  0.2661  0.4068
  188MOL0     N25297   1.875   0.998   3.597 -1.1623 -0.2251  0.5698
  188MOL0     C25298   2.907   1.183   2.897 -0.2451 -0.1418 -0.1453
  188MOL0     C25299   2.956   1.226   2.767 -0.5501  0.7722  0.6298
  188MOL0     C25300   2.946   1.395   2.342 -0.1432  1.2717 -0.4765
  188MOL0     C25301   3.070   1.453   2.342 -0.0256  0.0933  0.4961
  188MOL0     C25302   3.143   1.448   2.218 -0.5793  0.0042  0.4401
  188MOL0     C25303   3.087   1.393   2.105  0.0443  0.2724 -0.2892
  188MOL0     O25304   3.163   1.377   1.987 -0.5314 -1.1104  0.1948
  188MOL0     C25305   3.134   1.481   1.892 -0.7048 -0.6936 -1.3686
  188MOL0     C25306   3.016   1.453   1.798  0.3347 -0.0769  0.0819
  188MOL0     C25307   3.009   1.312   1.735  0.8770  0.4883  0.1165
  188MOL0     C25308   2.890   1.291   1.650 -0.0544  0.3416  1.0739
  188MOL0     C25309   2.860   1.396   1.551  0.1759  0.0103  0.6519
  188MOL0     C25310   2.848   1.467   1.454  0.2451 -0.8535 -0.4206
  188MOL0     C25311   2.959   1.344   2.112 -0.4413  0.2919  0.5837
  188MOL0     C25312   2.889   1.336   2.234  0.0325 -0.0235  0.1690
  188MOL0     H25313   2.836   1.542   2.744  0.7713 -0.0272 -1.3521
  188MOL0     H25314   2.744   1.490   2.959 -1.9946 -1.4403  1.4456
  188MOL0     H25315   2.688   1.388   3.183 -0.5847 -0.8269  1.3968
  188MOL0     H25316   2.577   1.328   3.067 -0.7350  1.7289 -0.0630
  188MOL0     H25317   2.572   1.115   3.203  0.8436 -0.0152 -0.4356
  188MOL0     H25318   2.670   1.215   3.325  0.0542 -0.8077  0.5316
  188MOL0     H25319   2.455   1.287   3.396 -0.2121 -3.4456 -0.7509
  188MOL0     H25320   2.453   1.388   3.255 -1.3212 -1.4030 -2.6164
  188MOL0     H25321   2.337   1.248   3.112  0.5669  1.9525 -0.6046
  188MOL0     H25322   2.362   1.102   3.216  3.6087  1.4058 -2.9129
  188MOL0     H25323   2.235   1.261   3.389 -6.8475  0.5051  1.0770
  188MOL0     H25324   2.158   1.336   3.251 -1.7013  1.0629  2.3643
  188MOL0     H25325   2.089   1.091   3.191 -0.7946  3.5159 -0.6454
  188MOL0     H25326   2.145   1.032   3.344 -0.2492 -2.5231 -3.8688
  188MOL0     H25327   1.946   1.244   3.262  0.3260  1.5577  1.1187
  188MOL0     H25328   1.885   1.092   3.310  0.4950 -1.7179  0.7507
  188MOL0     H25329   1.852   1.248   3.495 -0.3554 -1.6316 -1.2245
  188MOL0     H25330   2.026   1.282   3.504  0.6443  0.0232  1.1973
  188MOL0     H25331   2.136   1.163   3.706 -0.4736  2.1459 -1.2156
  188MOL0     H25332   2.081   1.053   3.969 -1.6827 -0.0289  0.4770
  188MOL0     H25333   1.989   0.897   3.961  1.5314 -3.0777 -1.9104
  188MOL0     H25334   2.237   0.862   3.981  1.0960 -4.5205 -0.9705
  188MOL0     H25335   2.250   0.931   3.809 -1.8894 -0.2832 -0.9807
  188MOL0     H25336   2.078   0.728   3.771  0.7340  0.8242  0.5219
  188MOL0     H25337   2.150   0.659   3.910 -0.5157  1.3388  0.4887
  188MOL0     H25338   2.314   0.742   3.666  3.0209 -1.9628 -1.0907
  188MOL0     H25339   2.247   0.591   3.688  0.1036  1.6249 -0.7671
  188MOL0     H25340   2.599   0.570   3.942 -0.4910  0.0331  1.9298
  188MOL0     H25341   2.745   0.463   4.081 -0.4743 -0.4952 -1.1049
  188MOL0     H25342   2.680   0.419   4.237 -1.2759 -0.0417  0.6419
  188MOL0     H25343   2.688   0.293   4.106 -1.5999 -0.4235  1.3552
  188MOL0     H25344   2.669   0.156   4.469  0.8889 -0.2908 -0.8341
  188MOL0     H25345   2.677  -0.042   4.629 -0.2270  0.4075  0.4602
  188MOL0     H25346   2.525  -0.475   4.612 -0.3360  3.3286  3.3030
  188MOL0     H25347   2.551  -0.400   4.450 -1.2255 -0.3352 -0.4007
  188MOL0     H25348   2.769  -0.492   4.492 -2.7379 -3.6885  0.8065
  188MOL0     H25349   2.786  -0.336   4.575  1.2187 -1.1194 -0.2628
  188MOL0     H25350   2.704  -0.601   4.686 -2.7415  0.7606  4.9015
  188MOL0     H25351   2.692  -0.462   4.784  1.4820 -1.3051  3.1407
  188MOL0     H25352   2.926  -0.386   4.761 -0.3758  0.1595  1.4073
  188MOL0     H25353   2.898  -0.559   4.832 -1.2510 -1.3002 -0.7789
  188MOL0     H25354   2.974  -0.530   4.536 -3.0885  0.9008  0.5953
  188MOL0     H25355   2.996  -0.659   4.639 -3.4784  0.7498  0.7007
  188MOL0     H25356   3.133  -0.392   4.679 -3.5162  0.1858  0.5679
  188MOL0     H25357   3.191  -0.550   4.753  0.9180  1.8290 -0.4289
  188MOL0     H25358   3.190  -0.493   4.454  0.9629  0.1625  0.1093
  188MOL0     H25359   3.262  -0.630   4.552 -1.0708 -0.4019 -0.2019
  188MOL0     H25360   3.349  -0.340   4.541 -3.6164  0.1061 -2.3832
  188MOL0     H25361   3.425  -0.488   4.467  0.7417  0.0625  0.7431
  188MOL0     H25362   2.408  -0.260   4.381  2.4988 -1.4521  1.9944
  188MOL0     H25363   2.380  -0.045   4.243  0.2828  0.3284  0.2432
  188MOL0     H25364   2.219   0.307   4.064  0.4872 -2.4876 -0.3207
  188MOL0     H25365   2.190   0.445   3.887 -1.4613  1.3723  2.3223
  188MOL0     H25366   2.933   1.085   2.935  1.6197  0.5900  0.6020
  188MOL0     H25367   3.010   1.162   2.698  0.1887  2.8861 -0.8470
  188MOL0     H25368   3.120   1.498   2.428  2.5225  1.8796 -1.7216
  188MOL0     H25369   3.243   1.483   2.196 -1.2926 -0.9511 -7.1877
  188MOL0     H25370   3.105   1.576   1.938 -0.2506 -1.3227  0.2494
  188MOL0     H25371   3.222   1.498   1.829 -0.4032 -0.1530 -0.8040
  188MOL0     H25372   3.029   1.533   1.723 -0.3299  1.8700  1.9458
  188MOL0     H25373   2.921   1.476   1.846 -0.0158 -0.4134 -0.4391
  188MOL0     H25374   2.989   1.235   1.810 -0.6314  0.0916 -0.6559
  188MOL0     H25375   3.107   1.302   1.687  1.2402 -0.2829  0.9884
  188MOL0     H25376   2.802   1.269   1.711 -0.1833 -0.2247  0.6856
  188MOL0     H25377   2.902   1.196   1.597 -0.3111  0.6728  0.4189
  188MOL0     H25378   2.833   1.530   1.368  2.5205 -2.5773 -2.2208
  188MOL0     H25379   2.914   1.290   2.029  0.9564 -2.4014  1.4501
  188MOL0     H25380   2.800   1.275   2.240 -0.6769  1.1163  2.2371
  189MOL0     O25381  10.540   2.310   0.359  1.0319  0.7601  0.4476
  189MOL0     C25382  10.616   2.324   0.454  0.0708  0.0246  0.6175
  189MOL0     O25383  10.576   2.352   0.583 -0.0551 -0.1675  0.0581
  189MOL0     C25384  10.450   2.400   0.611 -1.0289  0.3067  0.3223
  189MOL0     C25385  10.364   2.462   0.526  0.2161  0.1412 -0.2383
  189MOL0     C25386  10.242   2.515   0.569  0.5286  0.4971  0.6263
  189MOL0     C25387  10.201   2.492   0.702  0.3831 -0.4041 -0.8849
  189MOL0     O25388  10.074   2.542   0.741  0.0568  0.3796 -0.3169
  189MOL0     C25389  10.003   2.455   0.827  0.6747  0.8603  0.0862
  189MOL0     C25390   9.858   2.508   0.821 -0.2053 -0.8073 -0.5443
  189MOL0     C25391   9.757   2.423   0.906 -0.0786 -0.2055  0.2260
  189MOL0     C25392   9.665   2.494   1.004  0.5914 -0.8846  0.1334
  189MOL0     C25393   9.564   2.393   1.061  1.1536 -0.1314  0.1689
  189MOL0     C25394   9.497   2.448   1.191  0.1508 -0.4886 -0.7341
  189MOL0     C25395   9.382   2.548   1.169 -0.0802  0.4887 -0.9761
  189MOL0     C25396   9.268   2.470   1.122  0.2234  0.1712  0.8076
  189MOL0     N25397   9.142   2.533   1.151 -0.4453 -0.4634 -0.1581
  189MOL0     C25398   9.105   2.654   1.109  0.0063  0.3669  0.7596
  189MOL0     C25399   8.973   2.667   1.141 -0.4603 -0.7691 -0.4721
  189MOL0     C25400   8.886   2.790   1.137 -0.6995 -0.6148 -0.7080
  189MOL0     C25401   8.788   2.764   1.030 -0.4353 -0.5011 -0.8502
  189MOL0     C25402   8.736   2.905   0.994 -0.6503  0.3020  0.0414
  189MOL0     C25403   8.617   2.908   0.906 -0.2558  0.1156  0.7074
  189MOL0     O25404   8.663   2.892   0.768 -0.8014  0.2196 -0.5534
  189MOL0     C25405   8.557   2.891   0.687 -0.1188 -0.2120 -0.1424
  189MOL0     C25406   8.498   2.773   0.662  0.6166  0.5630  0.2013
  189MOL0     C25407   8.388   2.770   0.573 -0.7276  0.9228 -0.4445
  189MOL0     C25408   8.342   2.625   0.538  0.1062 -0.6231 -0.0348
  189MOL0     C25409   8.335   2.891   0.519  0.5459 -0.3385 -0.5156
  189MOL0     C25410   8.220   2.891   0.425 -0.2351  1.4298 -0.4619
  189MOL0     O25411   8.136   3.000   0.432  0.4039 -0.0548  0.4954
  189MOL0     C25412   8.035   3.003   0.340 -0.3514  0.1272  0.4830
  189MOL0     C25413   7.915   2.943   0.376 -0.5031  0.3517  0.4552
  189MOL0     C25414   7.818   2.912   0.271  0.5170 -0.3733 -0.2923
  189MOL0     C25415   7.840   2.949   0.140 -0.1255 -0.0013  0.4175
  189MOL0     O25416   7.748   2.926   0.037 -0.0018 -0.1137 -0.1226
  189MOL0     C25417   7.783   2.826  -0.063 -0.4955 -0.1071 -0.5058
  189MOL0     C25418   7.649   2.759  -0.124 -0.3282  0.4607  0.4190
  189MOL0     C25419   7.681   2.693  -0.259  0.2032  0.7652  0.3388
  189MOL0     C25420   7.590   2.736  -0.375  0.5416  0.6477  0.2740
  189MOL0     C25421   7.629   2.654  -0.501  0.7563 -0.7386 -0.8191
  189MOL0     C25422   7.553   2.692  -0.628  0.8977 -0.5604 -0.1531
  189MOL0     C25423   7.649   2.686  -0.752  0.5151  0.3145 -0.1931
  189MOL0     C25424   7.587   2.743  -0.879  0.9448 -0.0778 -0.2031
  189MOL0    Cl25425   7.457   2.628  -0.933 -0.3752 -0.4647 -0.6576
  189MOL0     C25426   7.962   3.009   0.109  0.8624 -0.6989 -0.0196
  189MOL0     C25427   8.059   3.037   0.203 -0.0819 -0.3659 -0.8065
  189MOL0     O25428   8.212   2.797   0.351 -0.4274 -0.6086  1.0130
  189MOL0     C25429   8.391   3.014   0.567 -0.0340 -0.0001  0.1839
  189MOL0     C25430   8.504   3.018   0.648 -0.4068  0.4841 -0.1312
  189MOL0     N25431   8.931   2.544   1.184  1.0783 -0.0940  0.1022
  189MOL0     N25432   9.033   2.470   1.201 -0.3950  1.5179  0.4306
  189MOL0     C25433  10.289   2.419   0.788 -0.1183  0.2078 -0.4676
  189MOL0     C25434  10.411   2.370   0.735  0.0918  0.5988  0.6520
  189MOL0     C25435  10.764   2.305   0.433 -0.7658  0.0491  0.2540
  189MOL0     C25436  10.820   2.267   0.309 -0.8273  0.5404  0.0780
  189MOL0     C25437  10.958   2.260   0.290 -0.5368  0.1506  0.0765
  189MOL0     C25438  11.049   2.272   0.394 -0.2203  0.7980  1.0560
  189MOL0     O25439  11.178   2.234   0.363 -0.5060  0.6787  0.3118
  189MOL0     C25440  11.278   2.196   0.455  0.0974  0.8435 -0.0049
  189MOL0     C25441  11.394   2.150   0.380  0.1024  0.7156 -0.5737
  189MOL0     C25442  11.476   2.271   0.335  0.7365 -0.5319 -0.2509
  189MOL0     C25443  11.591   2.238   0.247  0.8606 -0.5740 -0.2201
  189MOL0     C25444  11.700   2.162   0.320  0.5595 -0.0947 -0.1605
  189MOL0     C25445  11.765   2.085   0.384  0.6060 -0.8792 -0.3801
  189MOL0     C25446  10.997   2.309   0.517  0.4374 -0.5488 -0.8373
  189MOL0     C25447  10.860   2.338   0.533 -0.3570 -0.0871 -0.4766
  189MOL0     H25448  10.396   2.497   0.428 -0.5672 -0.1106 -0.5911
  189MOL0     H25449  10.177   2.568   0.501 -0.9177 -1.6783  0.2150
  189MOL0     H25450  10.018   2.352   0.792 -0.0659 -0.0680  2.3077
  189MOL0     H25451  10.053   2.447   0.924  0.0165 -2.7356  0.2588
  189MOL0     H25452   9.850   2.614   0.847  2.1368 -0.8174  0.4168
  189MOL0     H25453   9.821   2.500   0.718  0.0044  2.2344 -0.9343
  189MOL0     H25454   9.693   2.374   0.832  0.1791  0.0898 -0.1977
  189MOL0     H25455   9.819   2.347   0.953  0.3992  1.7972  3.1298
  189MOL0     H25456   9.725   2.546   1.079  0.5446 -0.1659 -0.3153
  189MOL0     H25457   9.600   2.567   0.955 -0.4358 -2.5858 -1.1481
  189MOL0     H25458   9.502   2.348   0.984  0.6803  0.0705  0.4254
  189MOL0     H25459   9.622   2.311   1.105  1.2114 -0.3729 -0.3585
  189MOL0     H25460   9.466   2.363   1.253  1.6646 -0.7580 -0.3060
  189MOL0     H25461   9.567   2.504   1.254  0.4181  0.6289 -2.0052
  189MOL0     H25462   9.353   2.607   1.256  0.0350 -0.5172 -0.2438
  189MOL0     H25463   9.411   2.627   1.099 -3.1473  0.8053 -2.0284
  189MOL0     H25464   9.265   2.375   1.175  0.7717 -1.6343 -2.1403
  189MOL0     H25465   9.277   2.456   1.014 -0.0682  2.4746  0.4195
  189MOL0     H25466   9.169   2.723   1.053 -1.6832 -0.8925 -3.1116
  189MOL0     H25467   8.830   2.798   1.230  0.5912 -0.3057  0.0791
  189MOL0     H25468   8.941   2.883   1.118 -0.1287 -0.7177  0.3321
  189MOL0     H25469   8.713   2.704   1.080  1.0865 -1.4606  0.3718
  189MOL0     H25470   8.831   2.704   0.949 -3.1359 -1.7902 -1.4225
  189MOL0     H25471   8.813   2.968   0.948  1.9359 -2.7157 -0.0915
  189MOL0     H25472   8.712   2.941   1.094  2.0928 -2.9735  2.1129
  189MOL0     H25473   8.568   3.005   0.919  3.3173  2.1670  0.1674
  189MOL0     H25474   8.553   2.823   0.930 -1.9710  0.7399 -1.2939
  189MOL0     H25475   8.543   2.678   0.689  2.0090 -0.6669 -5.2343
  189MOL0     H25476   8.396   2.559   0.607  1.9216  0.7849 -0.0346
  189MOL0     H25477   8.234   2.612   0.547  0.2220 -1.3320  0.4143
  189MOL0     H25478   8.366   2.597   0.435 -3.0209 -1.0186 -0.7729
  189MOL0     H25479   7.899   2.899   0.474 -1.9496 -1.3030 -0.4662
  189MOL0     H25480   7.725   2.862   0.297 -1.9545  2.8531 -2.0653
  189MOL0     H25481   7.847   2.866  -0.142 -0.2851 -1.8097 -1.2266
  189MOL0     H25482   7.837   2.747  -0.011 -1.3511  0.3587  1.1549
  189MOL0     H25483   7.617   2.690  -0.045 -0.0909  3.3290  3.2310
  189MOL0     H25484   7.583   2.845  -0.128 -0.2098  0.5175 -0.6535
  189MOL0     H25485   7.657   2.588  -0.243  0.5275  0.6794  0.2615
  189MOL0     H25486   7.787   2.705  -0.281  0.6427  1.5329  2.6214
  189MOL0     H25487   7.484   2.721  -0.349  0.8638 -1.8854  0.3406
  189MOL0     H25488   7.600   2.844  -0.393  0.1249  0.4035 -1.6406
  189MOL0     H25489   7.604   2.549  -0.484  0.0729 -0.1932  2.1614
  189MOL0     H25490   7.738   2.658  -0.509  0.9670 -2.6101  0.3907
  189MOL0     H25491   7.479   2.612  -0.636 -0.4038  0.5743  0.2204
  189MOL0     H25492   7.496   2.785  -0.611 -1.3897 -1.7309 -0.9629
  189MOL0     H25493   7.670   2.582  -0.776 -0.5270  0.3820 -1.4662
  189MOL0     H25494   7.741   2.742  -0.730 -0.7056  2.2285  0.3218
  189MOL0     H25495   7.654   2.762  -0.963  0.9299  4.1530  0.5202
  189MOL0     H25496   7.536   2.839  -0.866  0.2931 -0.3860 -0.4685
  189MOL0     H25497   7.966   3.055   0.011 -0.0011 -1.7470 -0.5799
  189MOL0     H25498   8.153   3.085   0.176 -2.0994  2.0113 -4.3895
  189MOL0     H25499   8.329   3.098   0.536 -4.5865 -3.0695 -0.0391
  189MOL0     H25500   8.547   3.115   0.674  0.4666  0.1619 -0.3428
  189MOL0     H25501  10.258   2.412   0.891  0.6903 -2.7610 -0.3334
  189MOL0     H25502  10.463   2.303   0.803 -0.1764 -2.4444 -1.8853
  189MOL0     H25503  10.758   2.239   0.225 -0.5134 -4.2042  1.1910
  189MOL0     H25504  11.003   2.223   0.198  1.5794 -1.9029  1.8070
  189MOL0     H25505  11.297   2.272   0.532  0.2986  1.8551 -1.0423
  189MOL0     H25506  11.234   2.108   0.503  1.2810 -1.0058 -2.1074
  189MOL0     H25507  11.371   2.103   0.284  2.2347 -2.0580  0.1560
  189MOL0     H25508  11.452   2.079   0.440  1.7497  1.6704 -0.9766
  189MOL0     H25509  11.520   2.308   0.428  1.3706 -1.8896  0.0166
  189MOL0     H25510  11.414   2.348   0.289  0.9980 -0.0276  0.2360
  189MOL0     H25511  11.643   2.332   0.227  1.4688 -1.0550 -0.9801
  189MOL0     H25512  11.569   2.191   0.150  0.4874  0.1355 -0.4812
  189MOL0     H25513  11.823   2.013   0.438  1.2978 -3.1010 -3.7582
  189MOL0     H25514  11.065   2.319   0.601 -0.1524  4.0371 -0.6483
  189MOL0     H25515  10.825   2.364   0.633  2.1131 -2.9940  1.3283
  190MOL0     O25516   4.831   5.447   6.278 -0.0254 -0.2443 -0.0834
  190MOL0     C25517   4.925   5.425   6.205  0.1422 -0.9250 -0.2462
  190MOL0     O25518   4.914   5.389   6.077 -0.0028 -0.2674 -0.4251
  190MOL0     C25519   4.796   5.374   6.022 -0.7528  0.1464 -0.5204
  190MOL0     C25520   4.695   5.287   6.080 -1.0791  0.1557  0.6002
  190MOL0     C25521   4.574   5.283   6.012 -0.2055 -0.1455 -0.6222
  190MOL0     C25522   4.547   5.348   5.891 -0.3019 -1.2769  0.2882
  190MOL0     O25523   4.415   5.340   5.853  0.0687 -0.4300 -0.1299
  190MOL0     C25524   4.371   5.406   5.732  0.5513 -0.3006  0.6690
  190MOL0     C25525   4.236   5.352   5.680  0.1720 -0.4081 -0.1917
  190MOL0     C25526   4.199   5.399   5.549  0.3058  0.0446  1.0413
  190MOL0     C25527   4.050   5.423   5.534 -0.5787 -0.2288 -0.9377
  190MOL0     C25528   3.968   5.304   5.550  0.3645  0.1849 -0.2600
  190MOL0     C25529   3.818   5.336   5.510 -1.5052 -0.0800  1.0736
  190MOL0     C25530   3.735   5.207   5.511  0.1603  0.2904  0.7745
  190MOL0     C25531   3.588   5.227   5.511 -0.1477  0.0292 -0.5960
  190MOL0     N25532   3.514   5.094   5.512  0.2166  0.1966  0.7146
  190MOL0     C25533   3.548   4.976   5.588  0.1839  0.0539 -0.2395
  190MOL0     C25534   3.443   4.902   5.574  0.9485  0.3116  0.0141
  190MOL0     C25535   3.407   4.768   5.633  0.2187 -0.8160 -0.5841
  190MOL0     C25536   3.330   4.770   5.765 -1.0312 -0.7149 -0.0856
  190MOL0     C25537   3.270   4.637   5.799  0.8441  0.3699  0.1019
  190MOL0     C25538   3.185   4.653   5.924  0.1950  0.2849 -0.2321
  190MOL0     O25539   3.068   4.734   5.898 -0.1514 -0.0932 -0.5663
  190MOL0     C25540   2.946   4.693   5.952 -0.1275 -1.2628 -0.1269
  190MOL0     C25541   2.837   4.740   5.874  0.2686  0.3687 -0.5811
  190MOL0     C25542   2.702   4.717   5.886 -0.3565 -0.4735 -0.8219
  190MOL0     C25543   2.614   4.785   5.782  0.0098  0.0418 -0.5813
  190MOL0     C25544   2.666   4.647   6.001 -0.1780 -0.6340  0.3121
  190MOL0     C25545   2.528   4.610   6.032 -0.0340  0.5044 -0.1575
  190MOL0     O25546   2.516   4.502   6.111 -0.0916  1.1995 -0.3607
  190MOL0     C25547   2.386   4.456   6.134 -0.0204  0.6493  0.7888
  190MOL0     C25548   2.322   4.465   6.256 -0.1935  0.3790 -0.0049
  190MOL0     C25549   2.196   4.408   6.272 -0.1565 -0.3130  0.0864
  190MOL0     C25550   2.126   4.352   6.166 -0.0876 -0.1246 -0.6551
  190MOL0     O25551   1.997   4.312   6.173 -0.6215 -0.0338  1.0342
  190MOL0     C25552   1.910   4.387   6.251  0.2476 -0.1535  0.7682
  190MOL0     C25553   1.886   4.321   6.389 -0.6715  0.1976 -0.8255
  190MOL0     C25554   1.751   4.368   6.448  0.4743 -0.5036  0.1909
  190MOL0     C25555   1.701   4.287   6.567 -0.3430 -0.2924  0.4264
  190MOL0     C25556   1.583   4.198   6.533  0.4038  0.3904 -0.8714
  190MOL0     C25557   1.554   4.110   6.655 -0.0502 -0.3659 -0.0643
  190MOL0     C25558   1.416   4.058   6.638 -0.3416 -0.3048 -0.2828
  190MOL0     C25559   1.373   3.968   6.755  0.7571  0.0823 -0.4054
  190MOL0    Cl25560   1.216   3.889   6.729 -0.0631 -0.2232  0.6096
  190MOL0     C25561   2.194   4.325   6.051  0.2633 -0.5108  0.3211
  190MOL0     C25562   2.324   4.373   6.037 -0.1243  0.5190  0.4756
  190MOL0     O25563   2.436   4.670   5.977  0.8887  0.2431  0.4902
  190MOL0     C25564   2.773   4.597   6.085  0.4908  0.0728  0.6924
  190MOL0     C25565   2.914   4.632   6.068  0.1645  0.5067 -0.1229
  190MOL0     N25566   3.339   4.970   5.502 -0.5112 -0.2533  0.0740
  190MOL0     N25567   3.390   5.085   5.461 -0.5465 -0.4940  1.0478
  190MOL0     C25568   4.646   5.414   5.828  0.2954  1.0335 -0.6990
  190MOL0     C25569   4.768   5.444   5.901  0.6441  1.1139 -0.9532
  190MOL0     C25570   5.058   5.434   6.257 -0.5741 -0.0614 -0.6144
  190MOL0     C25571   5.089   5.486   6.378  0.1639 -0.7925 -0.3609
  190MOL0     C25572   5.224   5.492   6.415 -0.7444 -0.5644 -0.5209
  190MOL0     C25573   5.326   5.437   6.339 -0.3557 -0.7414  0.0280
  190MOL0     O25574   5.449   5.432   6.388 -0.4756  0.7291  0.0879
  190MOL0     C25575   5.563   5.377   6.317 -0.3871  0.0216  0.0762
  190MOL0     C25576   5.681   5.392   6.398 -0.2600  0.0880 -1.0004
  190MOL0     C25577   5.810   5.333   6.330 -0.6760  0.7653 -0.2427
  190MOL0     C25578   5.905   5.249   6.410  0.2989 -0.1256  0.5351
  190MOL0     C25579   5.837   5.164   6.506 -0.6046  0.3102 -0.6777
  190MOL0     C25580   5.788   5.115   6.604  0.1837 -0.5366  0.3894
  190MOL0     C25581   5.289   5.375   6.225  0.0252 -0.0827  1.1053
  190MOL0     C25582   5.158   5.373   6.179  0.0789 -0.5227  0.3872
  190MOL0     H25583   4.719   5.233   6.170  3.7057  1.0111  0.1159
  190MOL0     H25584   4.491   5.226   6.052 -0.5973  2.6568  3.2391
  190MOL0     H25585   4.354   5.512   5.750 -0.7295 -0.7422  2.2949
  190MOL0     H25586   4.435   5.394   5.644 -0.7344  0.7977 -0.4590
  190MOL0     H25587   4.243   5.243   5.671  0.9322 -0.1780 -3.6828
  190MOL0     H25588   4.162   5.366   5.760  2.0258  0.0972  1.5311
  190MOL0     H25589   4.245   5.491   5.512  0.9848 -1.3957 -1.9984
  190MOL0     H25590   4.246   5.326   5.482  0.3106 -0.1698  1.2726
  190MOL0     H25591   4.022   5.494   5.612  0.4362 -2.3747  1.5310
  190MOL0     H25592   4.038   5.471   5.436  0.2954 -2.5302 -2.2328
  190MOL0     H25593   4.001   5.225   5.482  0.0117 -0.7696  0.6499
  190MOL0     H25594   3.978   5.263   5.651 -1.9890  3.5389  1.5045
  190MOL0     H25595   3.765   5.395   5.586 -0.5870  0.2322  1.4872
  190MOL0     H25596   3.810   5.374   5.408 -1.6569  1.5856  1.6578
  190MOL0     H25597   3.767   5.149   5.424  2.3169 -1.0761  2.3847
  190MOL0     H25598   3.769   5.149   5.597  0.8418  2.1158  1.7933
  190MOL0     H25599   3.558   5.301   5.436  2.3132  2.3050  0.4894
  190MOL0     H25600   3.570   5.272   5.609  3.6588 -1.3251  0.9489
  190MOL0     H25601   3.634   4.966   5.654  0.2650 -0.7603 -0.4648
  190MOL0     H25602   3.341   4.715   5.564 -0.8297  3.7386 -3.4921
  190MOL0     H25603   3.493   4.706   5.662 -0.1926 -1.0077  0.2701
  190MOL0     H25604   3.251   4.846   5.762  0.1589  0.5447 -1.0665
  190MOL0     H25605   3.408   4.791   5.839  1.0805 -2.7963 -1.5693
  190MOL0     H25606   3.341   4.555   5.806 -1.0687 -1.1890  3.4787
  190MOL0     H25607   3.200   4.621   5.716  1.9335  0.6726 -0.9066
  190MOL0     H25608   3.247   4.684   6.008 -1.8962 -0.5067  1.7052
  190MOL0     H25609   3.139   4.558   5.953 -1.8027  1.7815  1.9139
  190MOL0     H25610   2.865   4.798   5.787 -1.2902  2.9849  0.5295
  190MOL0     H25611   2.571   4.876   5.824  4.0554  0.5333  3.2234
  190MOL0     H25612   2.663   4.823   5.692  0.9715 -4.1148 -2.0515
  190MOL0     H25613   2.530   4.724   5.748  0.0157 -1.6818  2.1654
  190MOL0     H25614   2.382   4.489   6.344  0.7652  1.2176 -0.8708
  190MOL0     H25615   2.151   4.428   6.369 -0.2579  2.4426 -0.4453
  190MOL0     H25616   1.943   4.489   6.272 -0.1419  0.2423 -0.4170
  190MOL0     H25617   1.817   4.390   6.193  0.7995  1.1914 -0.1246
  190MOL0     H25618   1.896   4.212   6.380  0.4753  0.4390 -3.2610
  190MOL0     H25619   1.966   4.338   6.461 -0.4886 -1.2210 -0.6645
  190MOL0     H25620   1.684   4.368   6.362  0.2922  1.6245  0.2677
  190MOL0     H25621   1.765   4.473   6.475 -1.9903  1.6216 -5.3274
  190MOL0     H25622   1.785   4.229   6.607  0.2532 -1.9938 -2.8960
  190MOL0     H25623   1.674   4.361   6.643 -2.7294  0.6461 -1.1863
  190MOL0     H25624   1.608   4.152   6.437 -0.2963 -0.3130 -0.7321
  190MOL0     H25625   1.492   4.259   6.523 -0.2384 -0.0567  1.5802
  190MOL0     H25626   1.627   4.030   6.666  1.6201  1.0541 -0.4120
  190MOL0     H25627   1.550   4.175   6.743  2.4230 -0.2840  0.0534
  190MOL0     H25628   1.402   3.998   6.548 -2.5071 -3.7917  2.1054
  190MOL0     H25629   1.349   4.145   6.633 -1.0510 -0.8641 -0.6689
  190MOL0     H25630   1.343   4.037   6.834 -1.4411  2.2135 -2.8632
  190MOL0     H25631   1.451   3.893   6.772  0.1974 -0.3422  0.3592
  190MOL0     H25632   2.144   4.261   5.979 -0.0497 -2.0342  1.8048
  190MOL0     H25633   2.374   4.359   5.942  2.1939 -0.2587  1.7292
  190MOL0     H25634   2.731   4.541   6.168 -0.2771  2.6577  2.1406
  190MOL0     H25635   2.992   4.592   6.132  1.5323  5.9394  2.1073
  190MOL0     H25636   4.629   5.445   5.725 -1.3418  0.3639 -0.6504
  190MOL0     H25637   4.845   5.507   5.858 -1.2417  2.5289 -2.4217
  190MOL0     H25638   5.016   5.529   6.447  0.4864 -1.4288  0.3953
  190MOL0     H25639   5.245   5.545   6.508  0.1334  0.0683 -1.0545
  190MOL0     H25640   5.549   5.272   6.291 -1.2223  0.5021 -1.5640
  190MOL0     H25641   5.576   5.424   6.219 -1.6425 -1.0936 -0.6536
  190MOL0     H25642   5.668   5.340   6.493  3.9874 -0.8161 -0.7053
  190MOL0     H25643   5.703   5.496   6.421  1.0252 -0.7086  1.8184
  190MOL0     H25644   5.870   5.419   6.302  1.9896 -1.3946 -1.6675
  190MOL0     H25645   5.783   5.269   6.245 -1.6112 -1.0073  1.2825
  190MOL0     H25646   5.958   5.318   6.476  0.6795 -2.3394  2.6465
  190MOL0     H25647   5.973   5.194   6.345  2.1013  1.9633  0.5279
  190MOL0     H25648   5.780   5.084   6.707  1.6861  1.0360  1.0317
  190MOL0     H25649   5.357   5.325   6.156  0.1348 -0.3513  1.4068
  190MOL0     H25650   5.140   5.344   6.075  0.5008 -0.7333  0.3728
  191MOL0     O25651   3.688   7.719   8.600  0.3307  0.0681  0.1418
  191MOL0     C25652   3.572   7.699   8.632  0.2448  0.7258  0.1871
  191MOL0     O25653   3.529   7.577   8.696  0.2922 -0.6829  0.5979
  191MOL0     C25654   3.623   7.482   8.720  0.1885  0.8337 -0.7911
  191MOL0     C25655   3.610   7.361   8.649 -0.6613  0.5892 -0.2087
  191MOL0     C25656   3.697   7.255   8.667 -0.2026  0.5748 -1.4433
  191MOL0     C25657   3.786   7.256   8.776  0.1817  0.7223 -0.4495
  191MOL0     O25658   3.881   7.159   8.794  0.5121  0.1548  1.0722
  191MOL0     C25659   3.856   7.029   8.730  0.0120 -0.0106  0.1686
  191MOL0     C25660   3.961   6.932   8.770  0.5344 -0.2386  1.0439
  191MOL0     C25661   4.100   6.985   8.779  1.4552 -0.3827  0.0522
  191MOL0     C25662   4.184   6.884   8.856 -0.2341  0.6571 -0.3113
  191MOL0     C25663   4.334   6.922   8.840 -0.0530  0.7076 -0.6417
  191MOL0     C25664   4.441   6.829   8.877  0.4317 -0.7871  0.0821
  191MOL0     C25665   4.449   6.785   9.023 -0.5606 -0.4228 -0.2881
  191MOL0     C25666   4.546   6.888   9.093 -1.3318 -0.4286  0.1990
  191MOL0     N25667   4.689   6.893   9.052 -0.6517  0.4843  0.4717
  191MOL0     C25668   4.769   7.005   9.024 -0.3505  0.5843  0.1322
  191MOL0     C25669   4.890   6.957   8.984 -0.2971 -0.4182  0.5287
  191MOL0     C25670   5.011   7.050   8.957 -0.3194  0.9368 -0.2477
  191MOL0     C25671   5.089   6.996   8.836  1.4203  0.0069  0.1358
  191MOL0     C25672   5.151   7.105   8.756  0.3314 -0.2708  0.3314
  191MOL0     C25673   5.276   7.170   8.815  0.7774  0.1124 -0.4879
  191MOL0     O25674   5.355   7.065   8.867  0.6964  0.1179  0.3182
  191MOL0     C25675   5.429   7.108   8.971 -0.8828 -0.8488  0.2133
  191MOL0     C25676   5.560   7.144   8.942  0.0842 -0.2066 -0.5809
  191MOL0     C25677   5.658   7.185   9.037 -0.2797 -0.5503  1.0484
  191MOL0     C25678   5.791   7.239   8.984  0.2547  0.2472  0.1221
  191MOL0     C25679   5.618   7.187   9.170  0.0816 -0.0843  0.1001
  191MOL0     C25680   5.713   7.237   9.274 -0.1386  0.5600 -0.5653
  191MOL0     O25681   5.736   7.153   9.382  1.2678 -0.1969 -0.6646
  191MOL0     C25682   5.782   7.194   9.512  0.0575  0.2566 -0.2335
  191MOL0     C25683   5.766   7.329   9.562  0.1600  0.3371  0.6934
  191MOL0     C25684   5.799   7.353   9.701  0.0578  0.1766 -0.3017
  191MOL0     C25685   5.854   7.251   9.778 -0.7575 -0.9665  0.1189
  191MOL0     O25686   5.895   7.279   9.904  0.4400  0.0902  0.1054
  191MOL0     C25687   6.032   7.295   9.943  0.6185  1.3577  0.6226
  191MOL0     C25688   6.018   7.398  10.057 -0.5716 -0.1521 -0.4014
  191MOL0     C25689   6.153   7.444  10.121 -0.7290 -0.3113  0.0808
  191MOL0     C25690   6.236   7.328  10.167  0.1125 -0.4397  0.1463
  191MOL0     C25691   6.369   7.355  10.240 -0.0873  0.0744  0.3105
  191MOL0     C25692   6.349   7.399  10.383 -0.1311 -0.4144  0.0421
  191MOL0     C25693   6.464   7.354  10.477  0.6005 -0.2951  0.2744
  191MOL0     C25694   6.405   7.316  10.618 -0.6616  0.2355  0.3347
  191MOL0    Cl25695   6.545   7.286  10.727 -0.1001  0.1014 -0.0984
  191MOL0     C25696   5.884   7.126   9.727  0.5503  0.4123  0.6162
  191MOL0     C25697   5.834   7.098   9.597  0.3391  0.5333  0.1106
  191MOL0     O25698   5.768   7.348   9.267  0.3457 -0.8840  0.6198
  191MOL0     C25699   5.488   7.154   9.206 -0.0191  0.3099 -0.1861
  191MOL0     C25700   5.396   7.105   9.108  0.5481 -0.6669 -0.0571
  191MOL0     N25701   4.878   6.815   8.974 -0.7414  0.3693  1.0990
  191MOL0     N25702   4.764   6.783   9.021  0.8121 -0.5793  0.4247
  191MOL0     C25703   3.802   7.379   8.850 -0.8214 -0.6347  0.1344
  191MOL0     C25704   3.722   7.492   8.816  0.7808  1.7711  0.0625
  191MOL0     C25705   3.473   7.791   8.581 -0.2230  0.3683  0.1381
  191MOL0     C25706   3.336   7.777   8.599  0.1939  0.3799 -0.6169
  191MOL0     C25707   3.241   7.855   8.535  0.2946 -0.8813  0.2648
  191MOL0     C25708   3.284   7.954   8.449 -0.1938  0.0761  0.5076
  191MOL0     O25709   3.205   8.039   8.373 -0.0192  0.0208 -1.0814
  191MOL0     C25710   3.076   8.056   8.437 -0.7417 -0.4362  1.5102
  191MOL0     C25711   2.999   8.171   8.364 -0.3243  1.1127 -0.4333
  191MOL0     C25712   2.863   8.191   8.431  0.1383  0.6445 -0.1117
  191MOL0     C25713   2.789   8.310   8.374  0.7360  0.0967 -0.4511
  191MOL0     C25714   2.659   8.337   8.442 -0.3106 -0.6058  0.0940
  191MOL0     C25715   2.564   8.360   8.507 -0.0726 -0.0444 -0.8274
  191MOL0     C25716   3.426   7.977   8.440  0.1260  0.3756 -0.0331
  191MOL0     C25717   3.522   7.909   8.509 -0.3705  0.6052  0.0320
  191MOL0     H25718   3.523   7.334   8.590 -0.2333 -1.0014 -0.1674
  191MOL0     H25719   3.690   7.166   8.605  0.6286 -0.7846  0.3105
  191MOL0     H25720   3.753   6.995   8.742 -0.2125 -0.8669 -3.0692
  191MOL0     H25721   3.866   7.045   8.622  0.0968  1.0473  0.3232
  191MOL0     H25722   3.928   6.877   8.859 -2.4093 -0.8203 -0.2861
  191MOL0     H25723   3.966   6.854   8.694 -1.0185 -1.4178  2.0898
  191MOL0     H25724   4.144   7.001   8.680  0.7452  0.6701 -0.0957
  191MOL0     H25725   4.097   7.076   8.839 -0.9617 -0.8088  0.6577
  191MOL0     H25726   4.168   6.873   8.963  0.3311  1.4559 -0.1384
  191MOL0     H25727   4.167   6.788   8.805  1.7548  0.4987 -0.7296
  191MOL0     H25728   4.362   6.952   8.738  0.5668 -2.1627 -1.4093
  191MOL0     H25729   4.338   7.006   8.910  0.9187  1.6282 -1.7558
  191MOL0     H25730   4.433   6.738   8.816  1.2992  0.1341 -1.4978
  191MOL0     H25731   4.537   6.876   8.852 -0.3772  0.9351  0.0751
  191MOL0     H25732   4.352   6.784   9.072  0.7307  1.3625  2.6466
  191MOL0     H25733   4.502   6.690   9.028 -0.6622 -0.4457  0.5263
  191MOL0     H25734   4.547   6.852   9.197  1.0221  0.5228  0.5535
  191MOL0     H25735   4.509   6.991   9.090  1.4864  0.7536  1.9709
  191MOL0     H25736   4.735   7.107   9.039 -2.4798 -0.4253  3.1047
  191MOL0     H25737   4.984   7.155   8.944  2.3295  1.8544  0.8812
  191MOL0     H25738   5.080   7.043   9.043 -1.3015 -4.3807  0.4572
  191MOL0     H25739   5.014   6.945   8.774 -0.7113  0.5503  2.1014
  191MOL0     H25740   5.163   6.924   8.873  2.2088  0.4152 -0.6328
  191MOL0     H25741   5.076   7.180   8.728  1.0133 -0.5352 -2.5961
  191MOL0     H25742   5.178   7.071   8.655 -0.2258 -0.6708  0.3144
  191MOL0     H25743   5.251   7.248   8.889  2.0431  0.4938 -0.4435
  191MOL0     H25744   5.320   7.229   8.734  1.3249 -1.4333 -1.3423
  191MOL0     H25745   5.596   7.128   8.841  2.2489  0.7237 -0.0210
  191MOL0     H25746   5.878   7.229   9.049 -0.0325 -2.8246  0.1895
  191MOL0     H25747   5.829   7.194   8.891 -0.3206  1.3179 -0.6537
  191MOL0     H25748   5.781   7.345   8.959  2.8183  0.3543 -0.7755
  191MOL0     H25749   5.729   7.409   9.498  3.4452  1.3162 -0.1842
  191MOL0     H25750   5.787   7.454   9.738  2.1240  1.0466 -1.8846
  191MOL0     H25751   6.082   7.204   9.978 -2.4767 -0.6643  0.1415
  191MOL0     H25752   6.091   7.350   9.870 -0.1518 -0.3848 -1.4097
  191MOL0     H25753   5.958   7.475  10.008 -2.6428 -0.7998  0.9807
  191MOL0     H25754   5.952   7.358  10.135 -1.5359  0.4574 -0.8834
  191MOL0     H25755   6.131   7.503  10.211  0.6461 -3.9018  3.0209
  191MOL0     H25756   6.202   7.509  10.048  1.6938 -2.0461  0.0719
  191MOL0     H25757   6.192   7.259  10.239 -0.1536  0.5196  0.9211
  191MOL0     H25758   6.266   7.286  10.070 -0.9370 -1.1212  0.1027
  191MOL0     H25759   6.432   7.432  10.193  0.5509  0.3286  1.5319
  191MOL0     H25760   6.428   7.264  10.229  0.6622  0.7143 -1.4362
  191MOL0     H25761   6.345   7.508  10.386 -1.3827 -0.4664  1.0576
  191MOL0     H25762   6.248   7.371  10.416  1.1334 -3.8390  1.4820
  191MOL0     H25763   6.541   7.430  10.493  1.1600 -1.0863  1.3939
  191MOL0     H25764   6.507   7.261  10.437 -0.9177 -1.0318  0.2922
  191MOL0     H25765   6.360   7.218  10.596  0.1848 -0.4245  1.4471
  191MOL0     H25766   6.331   7.385  10.661 -3.9518 -3.3329  1.0055
  191MOL0     H25767   5.915   7.040   9.786 -2.0066 -3.3496 -2.9626
  191MOL0     H25768   5.840   6.994   9.567  0.1469 -0.2030  2.4248
  191MOL0     H25769   5.477   7.143   9.314  0.7208 -1.2799 -0.2468
  191MOL0     H25770   5.302   7.076   9.155 -0.4462  0.6730 -1.1116
  191MOL0     H25771   3.881   7.387   8.924  1.7482 -0.7668 -2.3870
  191MOL0     H25772   3.723   7.586   8.869 -0.3877  3.0932 -2.0984
  191MOL0     H25773   3.297   7.686   8.645 -3.2950  0.7723 -2.4531
  191MOL0     H25774   3.138   7.827   8.557  0.8541 -1.2083  2.7088
  191MOL0     H25775   3.032   7.957   8.428 -0.3079 -0.5032 -0.4225
  191MOL0     H25776   3.074   8.081   8.543 -1.2436  2.4613  0.9028
  191MOL0     H25777   2.999   8.158   8.255 -0.6647  0.4932 -0.3637
  191MOL0     H25778   3.064   8.255   8.390  1.3487 -0.8923  2.2371
  191MOL0     H25779   2.865   8.190   8.540 -1.8381  3.1589  0.0313
  191MOL0     H25780   2.810   8.104   8.392 -0.3724 -0.0654  2.0454
  191MOL0     H25781   2.779   8.319   8.266 -0.8382  2.3412 -0.1907
  191MOL0     H25782   2.855   8.394   8.397 -2.5593  2.3161  1.7315
  191MOL0     H25783   2.489   8.385   8.579  2.1748 -1.6081  2.2767
  191MOL0     H25784   3.468   8.056   8.378  0.7216  1.9467  2.2444
  191MOL0     H25785   3.625   7.940   8.497  0.2713 -0.3965  2.3318
  192MOL0     O25786   4.174   5.158   3.983 -0.2101 -0.0597 -0.1742
  192MOL0     C25787   4.231   5.161   4.091 -0.6202  0.1938  0.2107
  192MOL0     O25788   4.218   5.063   4.181 -0.0372 -0.0516 -0.1298
  192MOL0     C25789   4.115   4.969   4.174  0.4891  0.0433  0.5940
  192MOL0     C25790   3.992   4.984   4.102  0.1946  0.3994 -1.5317
  192MOL0     C25791   3.901   4.877   4.086  1.0277  0.3087  0.0726
  192MOL0     C25792   3.922   4.750   4.144 -0.2319 -0.2275 -0.0332
  192MOL0     O25793   3.844   4.645   4.108 -0.1147  0.1179 -0.7466
  192MOL0     C25794   3.830   4.522   4.195  0.6614 -0.1913 -0.3970
  192MOL0     C25795   3.714   4.436   4.129 -0.5010  0.2232  0.0587
  192MOL0     C25796   3.653   4.355   4.235 -0.2250 -1.2458  1.0711
  192MOL0     C25797   3.512   4.387   4.259  0.8705 -1.3580 -0.1675
  192MOL0     C25798   3.420   4.371   4.142 -0.2843 -0.5538 -1.1014
  192MOL0     C25799   3.295   4.468   4.140  0.1619 -0.2457  0.7169
  192MOL0     C25800   3.199   4.419   4.025  1.0447 -0.1156 -0.2374
  192MOL0     C25801   3.113   4.313   4.087  1.6492 -0.5205  0.6767
  192MOL0     N25802   3.029   4.264   3.970 -0.0300 -0.6219  0.0675
  192MOL0     C25803   2.929   4.336   3.896  0.6693  0.2323  0.1402
  192MOL0     C25804   2.890   4.235   3.815 -0.2485  0.3527  0.2968
  192MOL0     C25805   2.776   4.249   3.711 -0.0893 -0.6721 -0.1316
  192MOL0     C25806   2.769   4.131   3.609 -0.6711 -0.7170 -0.5063
  192MOL0     C25807   2.626   4.136   3.549 -0.8295  0.3288 -0.3756
  192MOL0     C25808   2.599   4.033   3.444  0.4314  0.5034 -0.7941
  192MOL0     O25809   2.458   4.044   3.399 -0.6478  0.1577  0.5584
  192MOL0     C25810   2.435   4.136   3.298 -0.3926 -0.4567  0.5074
  192MOL0     C25811   2.306   4.148   3.255  0.0415 -1.3088  0.4217
  192MOL0     C25812   2.267   4.245   3.152 -0.1469  0.9734 -0.6999
  192MOL0     C25813   2.133   4.227   3.094 -0.4366 -0.1488 -0.2505
  192MOL0     C25814   2.352   4.342   3.111 -0.2443  0.2969  0.4296
  192MOL0     C25815   2.313   4.442   3.012  0.9358 -1.2011  0.2595
  192MOL0     O25816   2.410   4.495   2.949 -0.6520 -0.1567  0.8446
  192MOL0     C25817   2.404   4.585   2.843 -0.3751  0.2639  0.6521
  192MOL0     C25818   2.495   4.685   2.856 -0.1229 -0.6294  0.0539
  192MOL0     C25819   2.488   4.792   2.759 -0.0345  0.8028  0.2645
  192MOL0     C25820   2.402   4.789   2.645 -0.8020 -0.4972 -0.7339
  192MOL0     O25821   2.406   4.900   2.564 -0.2667  0.0993 -0.8163
  192MOL0     C25822   2.454   4.875   2.439 -0.4403  0.1735 -0.4242
  192MOL0     C25823   2.344   4.874   2.330  0.5883 -0.3613 -0.1111
  192MOL0     C25824   2.235   4.969   2.359 -0.4544 -0.0088 -0.3936
  192MOL0     C25825   2.120   4.947   2.254 -0.3108 -0.2999 -0.1235
  192MOL0     C25826   2.033   5.064   2.207  0.4496  0.2707  0.4688
  192MOL0     C25827   1.953   5.136   2.320 -0.2487  0.8563  0.2396
  192MOL0     C25828   1.827   5.066   2.361  0.8966  0.5379  0.3432
  192MOL0     C25829   1.740   5.161   2.442  0.0021  0.3940  0.7361
  192MOL0    Cl25830   1.829   5.216   2.587  0.2073  0.3495 -0.5257
  192MOL0     C25831   2.332   4.670   2.625  0.1005  0.5380 -0.3565
  192MOL0     C25832   2.327   4.573   2.725  0.3827 -0.1116 -1.4757
  192MOL0     O25833   2.195   4.475   2.995 -0.1486 -0.9902  0.2538
  192MOL0     C25834   2.482   4.325   3.153 -0.4790 -0.3137  0.1589
  192MOL0     C25835   2.526   4.232   3.250 -0.1695 -0.1509 -0.0552
  192MOL0     N25836   2.954   4.114   3.838  0.2880 -0.1768 -0.2078
  192MOL0     N25837   3.044   4.135   3.928 -1.2714 -0.7034  0.1162
  192MOL0     C25838   4.034   4.741   4.233  0.1266 -0.3050 -0.6617
  192MOL0     C25839   4.131   4.842   4.233  0.0629 -0.3411  0.0339
  192MOL0     C25840   4.329   5.267   4.114 -0.3881  0.8487  0.1767
  192MOL0     C25841   4.384   5.277   4.248 -1.0076  0.6267  0.4584
  192MOL0     C25842   4.467   5.388   4.274  0.4187  0.0399  0.4153
  192MOL0     C25843   4.510   5.472   4.176 -0.2883 -0.5307  0.2687
  192MOL0     O25844   4.600   5.574   4.218  0.0805 -0.0225  0.2797
  192MOL0     C25845   4.704   5.613   4.129  0.0840  0.0406 -0.7717
  192MOL0     C25846   4.844   5.578   4.188  0.3746  0.0498  0.4297
  192MOL0     C25847   4.862   5.426   4.174 -0.0551 -0.7917  0.4860
  192MOL0     C25848   5.007   5.385   4.192 -0.0722 -0.0909  0.0470
  192MOL0     C25849   5.062   5.406   4.325 -0.8026 -0.3785 -0.1156
  192MOL0     C25850   5.101   5.410   4.441  0.1364 -0.6502  0.0044
  192MOL0     C25851   4.469   5.452   4.044  0.2238  0.2504  0.5738
  192MOL0     C25852   4.377   5.357   4.009  0.4316  0.5438 -0.0870
  192MOL0     H25853   3.968   5.080   4.058 -3.6192  0.5895  0.4859
  192MOL0     H25854   3.821   4.886   4.013  1.4177  0.7798 -0.3021
  192MOL0     H25855   3.921   4.462   4.203  1.4993  0.9906 -0.7328
  192MOL0     H25856   3.806   4.546   4.299 -2.8859 -1.2226 -0.8698
  192MOL0     H25857   3.641   4.506   4.088 -1.5772 -0.8616  0.0474
  192MOL0     H25858   3.760   4.383   4.045  0.1378  3.1681 -1.5782
  192MOL0     H25859   3.655   4.247   4.215 -0.2519 -0.9224 -0.8105
  192MOL0     H25860   3.708   4.360   4.330  0.7144 -1.8613  0.5703
  192MOL0     H25861   3.467   4.333   4.343 -0.5098 -0.3280 -0.2097
  192MOL0     H25862   3.500   4.491   4.290 -0.9543 -1.2969 -0.9827
  192MOL0     H25863   3.469   4.376   4.045 -0.4822 -0.7269 -1.2100
  192MOL0     H25864   3.380   4.269   4.139  0.9830 -1.1926  1.1116
  192MOL0     H25865   3.237   4.470   4.233  0.3012  1.9509  0.8091
  192MOL0     H25866   3.325   4.571   4.118 -1.1516 -0.5158 -3.1379
  192MOL0     H25867   3.129   4.495   3.992  0.4823 -0.2078  0.7129
  192MOL0     H25868   3.261   4.380   3.944  2.8527 -0.2318  1.1308
  192MOL0     H25869   3.036   4.348   4.158 -0.6546 -4.2128  0.2797
  192MOL0     H25870   3.164   4.231   4.137  1.0053 -0.3389  1.6691
  192MOL0     H25871   2.900   4.439   3.910  0.8405  0.2432  0.4179
  192MOL0     H25872   2.682   4.249   3.767 -0.5052  2.8067 -0.6212
  192MOL0     H25873   2.784   4.341   3.651  2.5303 -0.6008  0.1993
  192MOL0     H25874   2.790   4.042   3.668  1.0275 -1.4414 -2.1095
  192MOL0     H25875   2.841   4.148   3.529  1.4131  3.3388  1.8801
  192MOL0     H25876   2.611   4.239   3.515  0.1635  0.4173 -0.5969
  192MOL0     H25877   2.559   4.118   3.633  0.4766 -1.6484  0.3244
  192MOL0     H25878   2.608   3.937   3.497  0.2009  0.5352 -0.6951
  192MOL0     H25879   2.669   4.027   3.360  1.6767 -2.8846  0.3147
  192MOL0     H25880   2.238   4.070   3.285  1.3958 -2.3185  0.9768
  192MOL0     H25881   2.065   4.304   3.132  0.1157  0.6137 -0.7647
  192MOL0     H25882   2.134   4.221   2.984 -0.2208 -1.0646 -0.2018
  192MOL0     H25883   2.086   4.132   3.121  1.3011 -0.6032  1.3515
  192MOL0     H25884   2.562   4.690   2.942  3.6036 -0.7135 -2.5850
  192MOL0     H25885   2.546   4.881   2.781  0.3544  0.1805  1.9156
  192MOL0     H25886   2.533   4.945   2.413 -0.5918 -0.5390 -3.1228
  192MOL0     H25887   2.495   4.774   2.425  0.0071  0.1171  1.0802
  192MOL0     H25888   2.392   4.888   2.234 -1.0316 -1.6562 -1.1652
  192MOL0     H25889   2.292   4.778   2.330  0.5457 -0.3426  0.3676
  192MOL0     H25890   2.281   5.067   2.366  2.3086 -1.2515  0.3162
  192MOL0     H25891   2.188   4.947   2.456 -0.9234 -2.7335 -1.1351
  192MOL0     H25892   2.176   4.915   2.166  0.8330 -0.3771  0.6161
  192MOL0     H25893   2.063   4.863   2.292 -0.9859 -0.4015 -1.3113
  192MOL0     H25894   1.957   5.028   2.137  2.3428  0.6191 -1.8807
  192MOL0     H25895   2.105   5.122   2.150  0.4621  0.6576  0.8736
  192MOL0     H25896   2.014   5.163   2.406 -3.3532  2.8341  2.0009
  192MOL0     H25897   1.924   5.236   2.286  2.8386  1.2608 -1.5066
  192MOL0     H25898   1.854   4.982   2.426 -0.4985  0.4229  0.8086
  192MOL0     H25899   1.774   5.038   2.270  2.2197  1.1028 -0.6305
  192MOL0     H25900   1.640   5.120   2.460 -0.2301  0.7179  0.2229
  192MOL0     H25901   1.718   5.242   2.372  0.8168  0.0504  0.0657
  192MOL0     H25902   2.285   4.651   2.529  0.7780  0.3097 -0.6562
  192MOL0     H25903   2.274   4.479   2.732  1.7852 -0.7902  2.0254
  192MOL0     H25904   2.540   4.411   3.123 -0.1321 -0.4297  0.4781
  192MOL0     H25905   2.631   4.228   3.279 -0.3790 -2.0077  0.6203
  192MOL0     H25906   4.067   4.659   4.296  2.3791  1.3732  0.4958
  192MOL0     H25907   4.224   4.827   4.287 -0.1515 -1.8813  0.0007
  192MOL0     H25908   4.372   5.208   4.331 -0.2627  0.1462  0.1820
  192MOL0     H25909   4.494   5.399   4.379 -1.1250  0.6045  0.7879
  192MOL0     H25910   4.694   5.571   4.028 -2.6211 -0.8696 -0.2007
  192MOL0     H25911   4.690   5.721   4.122 -3.1900  0.0759  2.9602
  192MOL0     H25912   4.849   5.620   4.289  1.4008  0.0260  0.3950
  192MOL0     H25913   4.914   5.620   4.115  0.8873 -2.6216 -0.7594
  192MOL0     H25914   4.827   5.387   4.079  1.0595  2.3636 -1.3663
  192MOL0     H25915   4.808   5.379   4.257 -0.2879 -0.1179  0.7219
  192MOL0     H25916   5.071   5.440   4.123  0.8986  1.0181  1.7469
  192MOL0     H25917   4.994   5.278   4.171  3.5984 -0.1483 -2.9391
  192MOL0     H25918   5.149   5.418   4.536  3.9906 -0.2405 -1.7783
  192MOL0     H25919   4.510   5.513   3.964 -1.4926 -2.6700 -2.7740
  192MOL0     H25920   4.341   5.339   3.908  1.7557 -1.8235 -0.2047
  193MOL0     O25921   8.283   4.893   5.598 -0.1148  0.2225  0.2615
  193MOL0     C25922   8.321   4.960   5.691  0.2422  0.3375 -1.5495
  193MOL0     O25923   8.432   4.934   5.765  0.0266 -0.2124 -0.1099
  193MOL0     C25924   8.512   4.830   5.734 -0.5514 -0.1843  0.5143
  193MOL0     C25925   8.572   4.815   5.610  0.1946  0.6577 -0.0671
  193MOL0     C25926   8.641   4.697   5.581 -0.0620  0.7949 -0.8594
  193MOL0     C25927   8.633   4.592   5.680 -0.1258  0.0592 -1.0328
  193MOL0     O25928   8.679   4.460   5.675  0.0538 -0.5601  0.6753
  193MOL0     C25929   8.803   4.442   5.596  0.2232  0.4291 -0.1830
  193MOL0     C25930   8.872   4.316   5.663  0.8282  0.2322 -0.2576
  193MOL0     C25931   8.791   4.197   5.628 -0.1620 -0.7922 -0.2095
  193MOL0     C25932   8.754   4.178   5.479  0.4531  0.0204 -1.1178
  193MOL0     C25933   8.701   4.035   5.454 -0.1519  0.4897 -0.2179
  193MOL0     C25934   8.800   3.916   5.456  0.8458 -0.7775  0.3044
  193MOL0     C25935   8.728   3.783   5.426 -0.0480 -0.6387 -0.5933
  193MOL0     C25936   8.662   3.707   5.539 -0.1524 -1.2048 -1.0270
  193MOL0     N25937   8.767   3.667   5.630  0.7831 -0.4369 -0.1686
  193MOL0     C25938   8.824   3.537   5.638  0.7362  0.7168 -0.2595
  193MOL0     C25939   8.853   3.516   5.766  0.0913 -0.8444  0.0438
  193MOL0     C25940   8.920   3.397   5.820 -0.1094 -0.3510 -0.5915
  193MOL0     C25941   9.073   3.418   5.786  0.1469  0.0751 -0.6236
  193MOL0     C25942   9.159   3.461   5.899  0.3692 -0.7683 -0.2809
  193MOL0     C25943   9.189   3.340   5.993  0.6081 -0.1728 -0.8613
  193MOL0     O25944   9.281   3.258   5.924  0.0589 -0.5978 -0.7925
  193MOL0     C25945   9.332   3.154   5.991 -1.4427 -0.2258  0.0115
  193MOL0     C25946   9.442   3.097   5.926  0.4196  0.2090 -0.0560
  193MOL0     C25947   9.494   2.976   5.973 -1.1271 -0.7761  0.0478
  193MOL0     C25948   9.616   2.921   5.908  0.1767 -0.7114  1.0332
  193MOL0     C25949   9.453   2.914   6.093 -0.0441  0.1869  0.4447
  193MOL0     C25950   9.508   2.792   6.162 -1.1097 -0.3760  0.4644
  193MOL0     O25951   9.448   2.761   6.274  0.4625  0.2604 -0.2907
  193MOL0     C25952   9.514   2.683   6.360 -0.0693  0.4703 -0.2883
  193MOL0     C25953   9.648   2.707   6.402 -0.3972  0.4760  0.1774
  193MOL0     C25954   9.709   2.628   6.500 -0.2456 -0.5931  0.0122
  193MOL0     C25955   9.642   2.527   6.564 -0.6424 -0.0123 -0.1743
  193MOL0     O25956   9.685   2.467   6.676  0.2152 -1.0453  0.4911
  193MOL0     C25957   9.822   2.474   6.723 -0.5166 -0.1289 -0.1599
  193MOL0     C25958   9.842   2.587   6.820  0.2813 -0.4210  0.6580
  193MOL0     C25959   9.986   2.598   6.852 -0.1299  0.0239  0.2132
  193MOL0     C25960   9.995   2.683   6.978 -1.0541 -0.2410  0.6765
  193MOL0     C25961  10.133   2.718   7.023 -0.2958  0.9281 -0.5522
  193MOL0     C25962  10.126   2.799   7.159 -0.5584  0.6314  1.4657
  193MOL0     C25963  10.089   2.947   7.146  0.3166  0.0453 -0.3111
  193MOL0     C25964  10.122   3.019   7.271  0.0359 -0.5177  0.2503
  193MOL0    Cl25965  10.060   3.191   7.245 -0.6152  0.2511 -0.2934
  193MOL0     C25966   9.513   2.507   6.529 -0.5704  1.3370 -0.2874
  193MOL0     C25967   9.449   2.579   6.429 -1.4631 -0.2964 -0.3576
  193MOL0     O25968   9.619   2.745   6.124 -0.0979  1.2630 -0.3970
  193MOL0     C25969   9.356   2.982   6.161 -0.3704 -0.7591 -0.1443
  193MOL0     C25970   9.299   3.103   6.106 -0.8730 -1.2115 -0.6414
  193MOL0     N25971   8.829   3.626   5.845  0.3807 -0.5486 -0.2861
  193MOL0     N25972   8.780   3.708   5.760  1.0741 -0.1772  0.3060
  193MOL0     C25973   8.584   4.619   5.809  0.8451 -0.3780  0.3424
  193MOL0     C25974   8.523   4.734   5.837  0.2392  0.5204  0.1153
  193MOL0     C25975   8.238   5.067   5.730 -0.4558  0.1080  0.1129
  193MOL0     C25976   8.240   5.114   5.856  0.0978 -0.5562  0.4754
  193MOL0     C25977   8.177   5.236   5.899  0.1360  1.4642 -0.2505
  193MOL0     C25978   8.081   5.293   5.816  0.5626  0.2994 -0.2388
  193MOL0     O25979   8.012   5.404   5.842 -0.0082 -0.5583  0.5497
  193MOL0     C25980   8.008   5.458   5.977  0.5158 -0.0867  0.4909
  193MOL0     C25981   7.942   5.595   5.966  0.1330 -1.0319  0.3240
  193MOL0     C25982   7.791   5.581   6.000 -0.3813 -1.1681  0.2305
  193MOL0     C25983   7.716   5.712   6.044 -0.3384  0.5782 -0.4211
  193MOL0     C25984   7.575   5.697   6.042 -0.1925  0.5097 -0.7758
  193MOL0     C25985   7.455   5.689   6.050  0.7690  0.1205 -0.2252
  193MOL0     C25986   8.053   5.225   5.696 -0.6279 -0.3012  0.8652
  193MOL0     C25987   8.133   5.116   5.653 -0.8933 -0.8217  0.2128
  193MOL0     H25988   8.569   4.880   5.523  1.6081  0.1644 -0.5220
  193MOL0     H25989   8.687   4.666   5.488 -0.4756  0.5477 -0.9879
  193MOL0     H25990   8.782   4.427   5.489  1.3046 -2.1333 -0.1054
  193MOL0     H25991   8.868   4.528   5.616 -2.2004  2.0765  1.0952
  193MOL0     H25992   8.975   4.308   5.627  0.7913 -3.3128  0.1174
  193MOL0     H25993   8.876   4.326   5.772 -1.1934 -0.5090 -0.0785
  193MOL0     H25994   8.828   4.102   5.666  1.5634  0.4858  1.5515
  193MOL0     H25995   8.705   4.204   5.696  2.0630 -1.8328  2.9871
  193MOL0     H25996   8.679   4.250   5.443 -0.4365 -1.1963 -1.7770
  193MOL0     H25997   8.846   4.174   5.420  0.0698 -3.7503 -1.6912
  193MOL0     H25998   8.608   4.010   5.506 -2.1002  1.3676 -3.0545
  193MOL0     H25999   8.673   4.040   5.348  0.1201  0.4407 -0.2945
  193MOL0     H26000   8.862   3.935   5.367  0.0137 -1.2389 -0.3847
  193MOL0     H26001   8.854   3.925   5.551  3.6117  2.1010 -1.3439
  193MOL0     H26002   8.656   3.796   5.345  0.4350 -1.3168 -1.1525
  193MOL0     H26003   8.811   3.713   5.411  0.2047 -1.5335  3.7086
  193MOL0     H26004   8.607   3.620   5.501  0.7958 -1.6340 -1.4531
  193MOL0     H26005   8.594   3.773   5.593  0.2610 -1.2595 -0.4411
  193MOL0     H26006   8.856   3.474   5.556 -0.6847  0.5975 -0.7528
  193MOL0     H26007   8.896   3.397   5.926 -3.1812  0.7361 -1.1702
  193MOL0     H26008   8.876   3.309   5.772  2.7660 -0.9152 -2.4154
  193MOL0     H26009   9.081   3.503   5.718  1.5954  1.3737  1.0565
  193MOL0     H26010   9.113   3.325   5.745  0.5030  0.1502 -0.4468
  193MOL0     H26011   9.112   3.532   5.967  0.3871 -0.3198 -0.7352
  193MOL0     H26012   9.253   3.508   5.871  1.4372 -1.0173  2.6144
  193MOL0     H26013   9.092   3.293   6.013 -0.4930  2.0810 -0.6445
  193MOL0     H26014   9.239   3.373   6.085  3.0898 -2.5817 -1.2081
  193MOL0     H26015   9.477   3.131   5.829 -0.2266 -0.6818 -0.6247
  193MOL0     H26016   9.631   2.974   5.813  0.1475 -2.7506 -0.1675
  193MOL0     H26017   9.715   2.932   5.954  1.7498  2.9051 -2.5981
  193MOL0     H26018   9.600   2.815   5.887  1.2480 -0.4557 -1.4785
  193MOL0     H26019   9.696   2.786   6.345 -0.8573  1.8775  1.6780
  193MOL0     H26020   9.808   2.655   6.534 -0.0063 -0.1080 -1.0343
  193MOL0     H26021   9.858   2.378   6.761  0.6755 -0.2453 -1.4773
  193MOL0     H26022   9.888   2.494   6.638  0.1996  2.5001  0.9309
  193MOL0     H26023   9.808   2.676   6.766 -0.5136 -1.3851 -0.4718
  193MOL0     H26024   9.779   2.582   6.909 -1.2446  1.4186 -0.2484
  193MOL0     H26025  10.041   2.623   6.761 -2.1773 -0.4712 -1.2249
  193MOL0     H26026  10.031   2.501   6.872 -1.0700 -0.5617 -0.4734
  193MOL0     H26027   9.943   2.776   6.953 -0.6737 -0.3684 -0.6695
  193MOL0     H26028   9.935   2.641   7.059 -2.0045 -1.5676 -0.6571
  193MOL0     H26029  10.170   2.784   6.944 -1.3209 -0.9019 -2.6905
  193MOL0     H26030  10.202   2.635   7.041 -1.4145 -0.6454 -2.8372
  193MOL0     H26031  10.069   2.740   7.231 -3.2718 -0.1851 -1.1591
  193MOL0     H26032  10.224   2.806   7.207 -0.5405  2.0190  1.2568
  193MOL0     H26033   9.982   2.962   7.127 -0.5642 -4.6259 -0.3644
  193MOL0     H26034  10.153   2.979   7.063  2.6198 -0.5350  1.1558
  193MOL0     H26035  10.231   3.022   7.277  0.0414 -0.6304  0.1917
  193MOL0     H26036  10.080   2.981   7.365 -1.2165  3.1741  1.3500
  193MOL0     H26037   9.454   2.431   6.579  0.7203 -0.4639 -1.3338
  193MOL0     H26038   9.340   2.571   6.427 -1.3518 -3.5546  0.7811
  193MOL0     H26039   9.315   2.952   6.256 -2.5692  2.0663 -0.0461
  193MOL0     H26040   9.218   3.150   6.161 -1.9415 -2.8390 -0.7636
  193MOL0     H26041   8.578   4.533   5.875 -1.1311 -2.4308 -2.2928
  193MOL0     H26042   8.486   4.753   5.938 -0.9938 -1.5423  0.1024
  193MOL0     H26043   8.304   5.073   5.934 -1.0827 -3.6698 -0.0634
  193MOL0     H26044   8.180   5.284   5.996  0.7912  0.6343  0.1546
  193MOL0     H26045   7.943   5.395   6.038 -4.2212  1.4052 -2.4624
  193MOL0     H26046   8.109   5.474   6.016  0.6560  0.9187 -0.2375
  193MOL0     H26047   7.957   5.622   5.861 -0.0414 -3.7120 -0.4558
  193MOL0     H26048   7.994   5.667   6.029 -0.7068  0.7757 -0.9382
  193MOL0     H26049   7.768   5.516   6.085  1.9346 -1.5977  0.6071
  193MOL0     H26050   7.739   5.551   5.909 -0.0519  1.1361 -0.7870
  193MOL0     H26051   7.740   5.792   5.973  2.3871  1.4015  1.2851
  193MOL0     H26052   7.741   5.730   6.149 -1.8256 -2.2471  0.4987
  193MOL0     H26053   7.348   5.696   6.048  0.8247  0.8953 -1.0191
  193MOL0     H26054   7.975   5.266   5.632  0.3761 -0.2918 -0.4023
  193MOL0     H26055   8.095   5.077   5.558 -1.8192 -1.9154  1.0058
  194MOL0     O26056   8.708   1.410   2.900  0.1211  0.4187  0.3474
  194MOL0     C26057   8.829   1.449   2.903  0.1227 -0.0871 -0.3766
  194MOL0     O26058   8.891   1.498   3.013 -1.1455  0.7247  0.0092
  194MOL0     C26059   8.846   1.436   3.127  0.0956 -0.1208  0.9394
  194MOL0     C26060   8.774   1.515   3.209  0.4304 -0.7102  0.1055
  194MOL0     C26061   8.727   1.473   3.335  0.5391  0.6657 -0.0259
  194MOL0     C26062   8.753   1.339   3.371 -0.7037 -0.6942  0.4776
  194MOL0     O26063   8.714   1.292   3.501  0.6448 -0.0028  1.4761
  194MOL0     C26064   8.571   1.297   3.512  0.2610  0.1123 -0.0631
  194MOL0     C26065   8.544   1.358   3.651 -0.4648 -0.1156 -0.0007
  194MOL0     C26066   8.551   1.516   3.643  0.4859 -0.7207 -0.2130
  194MOL0     C26067   8.528   1.574   3.784  0.4358 -0.1996 -0.2695
  194MOL0     C26068   8.473   1.712   3.791  0.3510 -0.1962  1.3029
  194MOL0     C26069   8.338   1.740   3.732  0.6637 -0.1489 -0.0136
  194MOL0     C26070   8.238   1.694   3.839 -0.4199 -0.0155  1.1899
  194MOL0     C26071   8.163   1.564   3.810  0.3600  0.1763  0.4338
  194MOL0     N26072   8.048   1.563   3.899  0.4294 -0.0662  0.7794
  194MOL0     C26073   8.067   1.575   4.040  0.5412  0.3511 -0.0297
  194MOL0     C26074   7.959   1.503   4.093 -0.2731 -0.3169  1.1696
  194MOL0     C26075   7.928   1.461   4.231 -0.7284  0.5643  0.0459
  194MOL0     C26076   7.977   1.312   4.244  0.3444  0.3835  0.9685
  194MOL0     C26077   8.039   1.293   4.383  0.6490  1.0821 -0.0781
  194MOL0     C26078   8.081   1.150   4.437 -0.0414 -0.4557 -0.0913
  194MOL0     O26079   8.213   1.118   4.377  0.1497 -0.6125  0.7785
  194MOL0     C26080   8.213   1.078   4.248 -0.9775  0.1029 -1.1445
  194MOL0     C26081   8.327   1.107   4.178  0.0651 -1.5709  0.1438
  194MOL0     C26082   8.346   1.081   4.040  0.6190  0.7423  0.2881
  194MOL0     C26083   8.473   1.141   3.966  1.0157 -0.9164 -1.0143
  194MOL0     C26084   8.239   1.013   3.974 -0.2923 -0.0146 -0.1171
  194MOL0     C26085   8.246   0.966   3.830 -0.1489  0.9055  0.0061
  194MOL0     O26086   8.358   1.004   3.758  0.4892 -0.3428  0.7578
  194MOL0     C26087   8.365   0.977   3.618  0.6481  0.7181 -0.2147
  194MOL0     C26088   8.475   0.912   3.570  0.1816  0.4411  0.0240
  194MOL0     C26089   8.501   0.886   3.430  0.2674  0.4138 -0.7962
  194MOL0     C26090   8.400   0.928   3.340 -0.1937 -0.5525 -0.5284
  194MOL0     O26091   8.401   0.901   3.210 -0.7412  0.0697 -0.4037
  194MOL0     C26092   8.523   0.940   3.141  0.7048 -0.4531  0.1899
  194MOL0     C26093   8.557   1.087   3.150 -0.1948 -0.1992 -0.7597
  194MOL0     C26094   8.498   1.184   3.051 -0.7093  0.4401 -0.3418
  194MOL0     C26095   8.351   1.167   3.034  0.7382 -0.2028  0.0146
  194MOL0     C26096   8.304   1.274   2.926 -0.0347  0.3164 -0.1040
  194MOL0     C26097   8.149   1.289   2.929  0.3875 -0.0425  1.2499
  194MOL0     C26098   8.099   1.347   2.800  0.4158  0.5303 -0.8858
  194MOL0     C26099   8.147   1.488   2.769 -0.6036  0.4097 -0.2571
  194MOL0    Cl26100   8.092   1.590   2.900 -0.5171  0.1031 -0.0743
  194MOL0     C26101   8.283   0.986   3.389 -1.3675 -1.3099 -1.5958
  194MOL0     C26102   8.267   1.019   3.526 -0.1092 -0.5109 -0.5192
  194MOL0     O26103   8.157   0.887   3.780 -0.6413  0.3514 -0.6616
  194MOL0     C26104   8.126   0.979   4.053 -0.3242 -0.8936  0.1236
  194MOL0     C26105   8.106   1.008   4.186  0.0822  0.0130 -0.6243
  194MOL0     N26106   7.874   1.465   3.981  0.1578 -0.2852  0.0530
  194MOL0     N26107   7.919   1.512   3.866 -0.0280 -0.2909 -0.2402
  194MOL0     C26108   8.832   1.256   3.282  0.1336 -0.3764 -0.2217
  194MOL0     C26109   8.877   1.307   3.169 -0.7168  0.5314  0.8853
  194MOL0     C26110   8.887   1.457   2.764 -0.5621  0.1590  0.2283
  194MOL0     C26111   8.975   1.556   2.724  0.9384  1.1391  0.0470
  194MOL0     C26112   9.026   1.558   2.591  0.8276 -0.1816 -0.1937
  194MOL0     C26113   8.994   1.471   2.493 -0.7032  0.2491 -0.3979
  194MOL0     O26114   9.038   1.458   2.359 -0.0711  0.3469 -0.2404
  194MOL0     C26115   9.098   1.579   2.309 -0.1098  0.0377 -1.5557
  194MOL0     C26116   9.117   1.557   2.158  0.8314 -1.1009  0.3048
  194MOL0     C26117   9.006   1.488   2.081  0.1287 -0.3739 -0.6481
  194MOL0     C26118   9.043   1.480   1.937 -0.4407 -0.2242  1.0897
  194MOL0     C26119   9.013   1.602   1.861 -0.1937  0.0471 -0.7897
  194MOL0     C26120   9.007   1.693   1.785 -0.8272 -0.2896 -0.4209
  194MOL0     C26121   8.907   1.372   2.533 -1.0053 -0.0313  0.4243
  194MOL0     C26122   8.852   1.374   2.661 -0.1858  0.6966  0.0381
  194MOL0     H26123   8.759   1.619   3.182  0.2584 -0.6090  0.5949
  194MOL0     H26124   8.671   1.537   3.402  2.7027  2.4637  0.1865
  194MOL0     H26125   8.525   1.354   3.430 -0.8109  0.5659  0.8179
  194MOL0     H26126   8.526   1.198   3.507  0.3778  0.0065  0.8304
  194MOL0     H26127   8.447   1.328   3.692 -2.0251  3.3417 -0.8493
  194MOL0     H26128   8.619   1.316   3.719 -2.2834  0.0987  2.2749
  194MOL0     H26129   8.648   1.549   3.605  1.3498 -0.5095  1.9940
  194MOL0     H26130   8.474   1.556   3.577  0.7940 -2.3617 -1.6260
  194MOL0     H26131   8.467   1.505   3.842 -1.0306 -0.2407 -1.7552
  194MOL0     H26132   8.622   1.573   3.838  0.9216  1.4071 -0.9971
  194MOL0     H26133   8.472   1.734   3.898 -0.5636 -1.9253  1.6886
  194MOL0     H26134   8.543   1.784   3.749  0.1466  0.2909  1.7771
  194MOL0     H26135   8.324   1.846   3.711 -0.9905 -0.7581 -2.3636
  194MOL0     H26136   8.319   1.698   3.633  0.0901  1.3627 -0.5655
  194MOL0     H26137   8.284   1.683   3.937  2.2190 -2.3028 -0.1427
  194MOL0     H26138   8.176   1.784   3.842  1.1609  1.3255 -1.7616
  194MOL0     H26139   8.211   1.466   3.825 -1.3817 -0.5424  1.6209
  194MOL0     H26140   8.131   1.553   3.706 -0.4708 -1.8161  0.8471
  194MOL0     H26141   8.148   1.613   4.101 -0.0101 -0.4457  1.2463
  194MOL0     H26142   7.983   1.514   4.309  2.0363 -2.2743  0.1984
  194MOL0     H26143   7.821   1.471   4.250 -0.3404  2.5381  1.5890
  194MOL0     H26144   8.047   1.286   4.163  0.2130 -0.6277  1.1627
  194MOL0     H26145   7.891   1.245   4.240 -0.2665  1.2102 -0.2375
  194MOL0     H26146   7.970   1.341   4.453  1.6338  1.5807  0.5737
  194MOL0     H26147   8.126   1.359   4.397 -0.4522  2.5874  0.0053
  194MOL0     H26148   8.007   1.070   4.428  1.7623 -2.3962  1.3123
  194MOL0     H26149   8.105   1.154   4.543  3.0745 -0.4290 -0.7084
  194MOL0     H26150   8.409   1.152   4.233 -1.2204 -2.3254  2.8133
  194MOL0     H26151   8.515   1.216   4.034  0.1069 -2.5143  1.4665
  194MOL0     H26152   8.536   1.062   3.926 -0.7776 -3.8323  1.4285
  194MOL0     H26153   8.427   1.202   3.888 -0.2478  0.1972  0.5240
  194MOL0     H26154   8.557   0.861   3.621 -0.8351 -2.3099 -0.8902
  194MOL0     H26155   8.586   0.823   3.404  0.4080 -0.5703  1.7720
  194MOL0     H26156   8.607   0.877   3.170  1.0353 -0.5687 -0.9758
  194MOL0     H26157   8.512   0.907   3.037 -2.9190 -1.4358  0.7370
  194MOL0     H26158   8.527   1.124   3.248  1.5614 -1.9401  0.5117
  194MOL0     H26159   8.667   1.088   3.150 -0.1067 -0.7500  2.2316
  194MOL0     H26160   8.540   1.154   2.954 -0.5667 -1.7015  0.3469
  194MOL0     H26161   8.528   1.286   3.079  0.2856 -0.2708  1.2675
  194MOL0     H26162   8.317   1.068   3.002 -2.1239  0.4479  0.7542
  194MOL0     H26163   8.297   1.184   3.128  2.0756 -2.1414  1.1939
  194MOL0     H26164   8.336   1.225   2.834 -2.0180 -1.9550  0.3261
  194MOL0     H26165   8.363   1.365   2.941  3.3452 -1.8982  1.0511
  194MOL0     H26166   8.100   1.193   2.948 -3.0809  2.1570  4.6963
  194MOL0     H26167   8.118   1.341   3.019  2.6920 -2.2573  3.4838
  194MOL0     H26168   7.990   1.348   2.813  0.5825 -2.5574  2.3252
  194MOL0     H26169   8.122   1.278   2.719 -3.3314  0.0714 -1.7655
  194MOL0     H26170   8.110   1.520   2.671  1.6767 -0.4631 -1.4645
  194MOL0     H26171   8.255   1.494   2.758 -0.3927  3.3249  2.0405
  194MOL0     H26172   8.208   1.027   3.322  0.8031  1.6488 -2.4341
  194MOL0     H26173   8.180   1.078   3.553  1.4532  1.4880  0.4405
  194MOL0     H26174   8.047   0.919   4.009  1.0765 -0.7048 -2.8415
  194MOL0     H26175   8.009   1.000   4.235  2.1781  0.6933  4.1770
  194MOL0     H26176   8.852   1.156   3.319 -2.4490 -0.6963  0.5157
  194MOL0     H26177   8.932   1.241   3.103 -1.3044 -0.3692  1.2679
  194MOL0     H26178   9.021   1.633   2.785  1.4098  0.8183  0.1058
  194MOL0     H26179   9.073   1.654   2.572 -0.2097  0.9536  2.5219
  194MOL0     H26180   9.037   1.669   2.322  0.3723 -0.0424  3.1016
  194MOL0     H26181   9.199   1.599   2.346 -1.4653  1.4560  1.8805
  194MOL0     H26182   9.209   1.498   2.149  1.5556 -0.1569  1.2702
  194MOL0     H26183   9.133   1.655   2.111 -0.0369 -2.1392 -2.3671
  194MOL0     H26184   8.918   1.553   2.088 -0.3083 -1.1033  0.8451
  194MOL0     H26185   8.994   1.391   2.129 -0.9779 -0.3706 -0.8961
  194MOL0     H26186   8.977   1.399   1.904 -3.5324  2.2533  0.6859
  194MOL0     H26187   9.146   1.449   1.916  0.2412  2.2184  0.4519
  194MOL0     H26188   9.009   1.777   1.718 -2.6742  0.6098  0.5580
  194MOL0     H26189   8.881   1.299   2.458  0.2072  0.1792 -0.2442
  194MOL0     H26190   8.779   1.298   2.688  1.3583 -0.3526  1.4481
  195MOL0     O26191   3.140  11.375   1.679 -0.8827 -0.0905  0.0264
  195MOL0     C26192   3.158  11.484   1.735 -1.0571 -0.0080 -0.7754
  195MOL0     O26193   3.072  11.564   1.808 -0.1160 -0.1432 -0.0762
  195MOL0     C26194   2.948  11.520   1.844  0.5192  0.3173 -0.0806
  195MOL0     C26195   2.840  11.605   1.866 -0.5514 -1.3303 -0.3803
  195MOL0     C26196   2.714  11.566   1.889 -0.4122 -0.1653 -0.0564
  195MOL0     C26197   2.676  11.441   1.892 -0.1603  0.2323  0.4438
  195MOL0     O26198   2.547  11.405   1.909 -0.3055  0.2629  0.9586
  195MOL0     C26199   2.500  11.271   1.929 -0.2757 -0.3009 -0.0486
  195MOL0     C26200   2.384  11.267   2.017  0.8520  0.3936  0.3910
  195MOL0     C26201   2.286  11.385   1.995 -0.1326 -0.1111 -0.0003
  195MOL0     C26202   2.167  11.378   2.094 -0.5736  0.6212  0.3707
  195MOL0     C26203   2.097  11.513   2.088 -0.0771 -0.4611  0.0292
  195MOL0     C26204   1.953  11.500   2.145  0.5174 -0.1116 -0.3368
  195MOL0     C26205   1.844  11.471   2.041 -0.4469  0.1645 -0.5137
  195MOL0     C26206   1.711  11.459   2.121  0.7783 -0.4585 -0.6000
  195MOL0     N26207   1.593  11.404   2.057 -0.4524 -0.4378 -0.2590
  195MOL0     C26208   1.521  11.453   1.956 -0.2077 -0.0922  0.6117
  195MOL0     C26209   1.410  11.374   1.942  0.5389  0.6502 -0.2920
  195MOL0     C26210   1.283  11.372   1.865 -0.2346 -0.2867  0.2541
  195MOL0     C26211   1.297  11.269   1.756 -0.5166  0.6612 -0.5392
  195MOL0     C26212   1.290  11.132   1.813 -0.0269  0.8777 -0.0344
  195MOL0     C26213   1.246  11.034   1.705  0.2001 -0.1308 -0.0500
  195MOL0     O26214   1.248  10.900   1.748 -0.2287 -0.7325 -0.1958
  195MOL0     C26215   1.178  10.808   1.670 -0.9184  1.1355  0.0753
  195MOL0     C26216   1.162  10.680   1.723  0.2372  0.1677  0.8271
  195MOL0     C26217   1.081  10.589   1.667  0.1616 -0.9760  0.0702
  195MOL0     C26218   1.045  10.469   1.757 -0.5318  0.0190 -0.2065
  195MOL0     C26219   1.030  10.616   1.537  0.0290  0.1034 -0.0701
  195MOL0     C26220   0.947  10.516   1.460  0.6244 -0.5261 -0.3763
  195MOL0     O26221   0.873  10.566   1.355 -0.5814 -0.2341  0.0473
  195MOL0     C26222   0.844  10.477   1.262  0.5854  0.3699  0.4419
  195MOL0     C26223   0.947  10.448   1.163  0.9993  0.3188 -0.3784
  195MOL0     C26224   0.917  10.354   1.062 -1.3319 -0.8037 -0.3419
  195MOL0     C26225   0.801  10.279   1.063  0.1525  0.0033  0.3668
  195MOL0     O26226   0.803  10.201   0.952  0.2464  0.5725 -0.6678
  195MOL0     C26227   0.690  10.118   0.924  0.4330 -0.1342  0.5091
  195MOL0     C26228   0.592  10.205   0.850 -0.1970  0.0152  1.0788
  195MOL0     C26229   0.468  10.120   0.818 -0.0278 -0.4630 -0.0874
  195MOL0     C26230   0.367  10.201   0.740  0.1246 -0.6271 -0.1364
  195MOL0     C26231   0.239  10.112   0.706 -0.4921 -0.2550  0.4547
  195MOL0     C26232   0.137  10.062   0.814  0.1480  0.1494 -0.9725
  195MOL0     C26233  -0.007  10.089   0.776  0.2043  0.0145  0.9648
  195MOL0     C26234  -0.047  10.233   0.773 -0.0239 -0.1226  0.0981
  195MOL0    Cl26235  -0.014  10.298   0.934 -0.0371  0.0065  0.0198
  195MOL0     C26236   0.703  10.291   1.174 -0.3854  0.6275  1.2534
  195MOL0     C26237   0.726  10.397   1.271  0.1061 -0.0515  0.6258
  195MOL0     O26238   0.961  10.402   1.488 -0.8612 -0.1839  0.7714
  195MOL0     C26239   1.054  10.740   1.469 -0.5200 -0.2297 -0.9356
  195MOL0     C26240   1.125  10.837   1.542  0.5091  1.1976  0.2993
  195MOL0     N26241   1.428  11.274   2.044  0.0323 -0.0682 -0.0982
  195MOL0     N26242   1.540  11.285   2.103  0.0301  0.0217  0.6846
  195MOL0     C26243   2.776  11.344   1.876 -0.6355  0.2851 -0.1038
  195MOL0     C26244   2.905  11.380   1.854 -0.2392 -0.3890  0.6368
  195MOL0     C26245   3.296  11.533   1.717 -0.6014 -0.1558 -0.8161
  195MOL0     C26246   3.392  11.457   1.645 -1.1227 -0.4499  0.5553
  195MOL0     C26247   3.522  11.499   1.631  0.0016 -0.8556  0.1217
  195MOL0     C26248   3.567  11.615   1.691  0.1586 -0.5755  0.7394
  195MOL0     O26249   3.704  11.640   1.686 -0.2123 -0.3902 -0.0060
  195MOL0     C26250   3.762  11.736   1.780  0.6287  0.1541  0.2579
  195MOL0     C26251   3.840  11.673   1.895  0.8295 -0.2348 -0.1340
  195MOL0     C26252   3.761  11.555   1.954 -0.9117  0.6520 -0.4693
  195MOL0     C26253   3.813  11.524   2.096  0.1383 -0.0212 -0.6875
  195MOL0     C26254   3.794  11.627   2.204  0.4427 -0.1295  1.0664
  195MOL0     C26255   3.778  11.702   2.292 -0.7076  0.1288  0.2047
  195MOL0     C26256   3.469  11.697   1.750 -0.7547 -0.1644 -0.3251
  195MOL0     C26257   3.337  11.653   1.756  0.8243 -0.2139  0.2726
  195MOL0     H26258   2.869  11.709   1.881  2.8521 -2.1339 -0.4075
  195MOL0     H26259   2.637  11.641   1.905  0.8726  1.2170 -0.1407
  195MOL0     H26260   2.459  11.229   1.836 -0.9435  0.2127  0.0062
  195MOL0     H26261   2.584  11.209   1.962  1.9826  1.0387 -2.7584
  195MOL0     H26262   2.322  11.178   2.009 -3.0646  2.5803  3.0048
  195MOL0     H26263   2.420  11.268   2.121  1.1469 -3.3064  0.4578
  195MOL0     H26264   2.341  11.476   2.020 -1.4372  0.6576  0.1853
  195MOL0     H26265   2.249  11.393   1.892 -0.3204  0.7697  0.1302
  195MOL0     H26266   2.092  11.310   2.052 -1.1108  1.4589 -0.0599
  195MOL0     H26267   2.201  11.348   2.194 -1.8992 -1.2148  0.3184
  195MOL0     H26268   2.158  11.595   2.127 -0.5865 -0.9939  2.0592
  195MOL0     H26269   2.089  11.543   1.983 -0.3357 -2.3729 -0.5467
  195MOL0     H26270   1.954  11.413   2.211 -0.1977 -0.1436 -0.3558
  195MOL0     H26271   1.930  11.592   2.201  1.1506  1.4112 -2.4448
  195MOL0     H26272   1.852  11.551   1.967  0.0253 -0.4841 -1.1802
  195MOL0     H26273   1.856  11.375   1.991 -2.5043 -0.6360  0.4368
  195MOL0     H26274   1.689  11.558   2.162 -0.6743 -1.6132  1.5715
  195MOL0     H26275   1.723  11.402   2.213  1.2905 -0.2469 -0.5321
  195MOL0     H26276   1.537  11.547   1.904  0.6519 -2.0248 -2.9161
  195MOL0     H26277   1.196  11.341   1.923 -0.9821 -0.7482 -1.0957
  195MOL0     H26278   1.263  11.470   1.820 -1.8472 -0.2664  0.9566
  195MOL0     H26279   1.393  11.295   1.711 -0.3909  2.0665  0.4678
  195MOL0     H26280   1.217  11.276   1.682 -1.2968  0.4882  0.2646
  195MOL0     H26281   1.226  11.137   1.901  0.7245  2.0854  0.4709
  195MOL0     H26282   1.394  11.106   1.834 -0.1544 -1.0860 -1.5131
  195MOL0     H26283   1.326  11.040   1.631  1.2407 -2.6012  0.7671
  195MOL0     H26284   1.147  11.057   1.665 -0.0036 -0.7163  0.1060
  195MOL0     H26285   1.214  10.651   1.813  0.1457  0.2076  0.8928
  195MOL0     H26286   1.052  10.505   1.860  5.1806 -2.7984  0.8192
  195MOL0     H26287   0.951  10.419   1.734  1.8962 -3.9219 -2.7034
  195MOL0     H26288   1.123  10.392   1.760 -0.8595 -0.4131 -1.8708
  195MOL0     H26289   1.037  10.509   1.167 -0.0893  1.9682  1.0178
  195MOL0     H26290   0.978  10.337   0.974  0.3698  1.6146  0.2686
  195MOL0     H26291   0.712  10.039   0.852  1.4194  0.3478  0.2668
  195MOL0     H26292   0.647  10.071   1.013  1.9782  0.8529  1.8322
  195MOL0     H26293   0.569  10.291   0.914  3.3671  0.8005  1.5515
  195MOL0     H26294   0.634  10.235   0.754 -0.0931 -2.9271  0.1052
  195MOL0     H26295   0.428  10.093   0.917 -1.7859  2.2476  0.0392
  195MOL0     H26296   0.492  10.021   0.777  0.4069  0.0785 -1.1660
  195MOL0     H26297   0.353  10.298   0.788  1.7045  0.3922 -1.6222
  195MOL0     H26298   0.420  10.232   0.649  2.6646 -1.3276  1.0080
  195MOL0     H26299   0.283  10.019   0.671  1.3223  0.2052  1.3848
  195MOL0     H26300   0.193  10.159   0.618  1.1163  1.7026  0.5758
  195MOL0     H26301   0.151   9.954   0.827 -2.8602 -0.2305 -0.1431
  195MOL0     H26302   0.156  10.111   0.909  3.3131 -0.3776 -1.2143
  195MOL0     H26303  -0.079  10.033   0.837 -0.9160 -0.2507 -0.5328
  195MOL0     H26304  -0.018  10.051   0.674 -2.7638 -0.3576  1.3192
  195MOL0     H26305  -0.152  10.254   0.750  0.5318  0.5853 -1.9895
  195MOL0     H26306   0.007  10.299   0.705 -0.2230  0.2958  0.3413
  195MOL0     H26307   0.618  10.225   1.182  1.8091 -2.2568  2.2188
  195MOL0     H26308   0.660  10.411   1.356 -1.6255  1.5958 -0.9038
  195MOL0     H26309   1.020  10.753   1.366  0.3112  0.4732 -1.1348
  195MOL0     H26310   1.128  10.939   1.504 -3.6427  1.8149  1.1522
  195MOL0     H26311   2.763  11.236   1.870  1.1553  0.0323 -0.0142
  195MOL0     H26312   2.973  11.297   1.840  0.8266  0.7806 -1.5281
  195MOL0     H26313   3.365  11.364   1.597 -2.1955  0.3061 -0.3763
  195MOL0     H26314   3.593  11.443   1.570  1.4160 -0.4260  1.3054
  195MOL0     H26315   3.840  11.788   1.724  0.2698  0.2650 -0.1454
  195MOL0     H26316   3.686  11.805   1.817  1.1484  0.4773  0.7494
  195MOL0     H26317   3.847  11.757   1.965  1.9651  2.2421 -3.0097
  195MOL0     H26318   3.941  11.651   1.860 -0.1607 -0.0797 -3.3857
  195MOL0     H26319   3.771  11.467   1.889  0.7129 -0.2988  0.9733
  195MOL0     H26320   3.652  11.562   1.964 -0.6838  1.7643  1.8821
  195MOL0     H26321   3.914  11.483   2.096  0.2314  0.0885 -3.0070
  195MOL0     H26322   3.746  11.445   2.132 -0.7215  2.1911  3.1249
  195MOL0     H26323   3.764  11.768   2.376 -4.0003  0.2991 -0.3479
  195MOL0     H26324   3.498  11.792   1.795  1.2096 -0.1277 -1.5633
  195MOL0     H26325   3.267  11.725   1.797  0.0074 -0.6908 -0.2504
  196MOL0     O26326   0.803   9.746  11.041 -0.4499 -0.9346  1.4717
  196MOL0     C26327   0.797   9.781  11.157 -0.4498 -0.1892 -0.3022
  196MOL0     O26328   0.709   9.874  11.213  0.1418  0.2292  0.3980
  196MOL0     C26329   0.594   9.911  11.148 -0.0540  0.0659 -0.2786
  196MOL0     C26330   0.483   9.923  11.223  0.6708  0.5680  0.0159
  196MOL0     C26331   0.361   9.966  11.170  0.0009 -0.8340  0.3892
  196MOL0     C26332   0.353   9.978  11.031  0.8838 -0.4261 -0.2262
  196MOL0     O26333   0.239  10.004  10.959 -0.4796 -0.2662  0.2103
  196MOL0     C26334   0.128   9.915  10.976  0.3605 -0.6269  0.7097
  196MOL0     C26335   0.065   9.895  10.834 -0.3586 -0.3359 -0.2670
  196MOL0     C26336   0.012  10.029  10.784  0.2170 -0.3392  0.2508
  196MOL0     C26337   0.103  10.103  10.675 -0.2724 -0.6335  0.1793
  196MOL0     C26338   0.050  10.252  10.632  0.1314  0.2172  0.5087
  196MOL0     C26339   0.141  10.325  10.521  0.2104  0.2465 -0.2568
  196MOL0     C26340   0.284  10.369  10.574 -0.3332  0.3717  0.1179
  196MOL0     C26341   0.317  10.481  10.472 -0.0131 -0.0402 -0.4416
  196MOL0     N26342   0.276  10.611  10.516 -0.2683  0.5843 -1.1211
  196MOL0     C26343   0.311  10.668  10.631 -0.6731  0.1558 -0.4710
  196MOL0     C26344   0.241  10.780  10.645  0.2473 -0.5594  0.0667
  196MOL0     C26345   0.246  10.872  10.765  0.1850 -0.1236 -0.7899
  196MOL0     C26346   0.163  10.813  10.882 -0.8060  0.1531  0.6218
  196MOL0     C26347   0.160  10.910  10.995 -0.2673  0.0578 -0.4469
  196MOL0     C26348   0.076  11.031  10.975  0.6284  0.1407  0.1754
  196MOL0     O26349  -0.041  11.026  11.061  0.7430  0.2439  0.3611
  196MOL0     C26350  -0.119  11.141  11.057  0.5693 -0.7419 -0.2892
  196MOL0     C26351  -0.084  11.263  10.993  0.2440  0.1076  0.0374
  196MOL0     C26352  -0.153  11.390  11.012 -0.9876 -0.0425 -0.2896
  196MOL0     C26353  -0.097  11.521  10.951  0.8117  0.5969 -0.4421
  196MOL0     C26354  -0.252  11.386  11.124  0.4976 -0.5078 -0.2250
  196MOL0     C26355  -0.311  11.512  11.187  0.1747 -0.2171  1.4691
  196MOL0     O26356  -0.308  11.623  11.114 -0.3093 -0.5564  0.4136
  196MOL0     C26357  -0.406  11.719  11.149 -1.6877 -0.6726 -0.1033
  196MOL0     C26358  -0.358  11.845  11.172  0.1346  0.0758  0.4512
  196MOL0     C26359  -0.439  11.953  11.207  0.5022 -0.0317 -0.4103
  196MOL0     C26360  -0.582  11.939  11.211 -1.0046  0.4897 -0.3007
  196MOL0     O26361  -0.669  12.042  11.235 -0.1499  0.0391 -0.6145
  196MOL0     C26362  -0.626  12.161  11.312 -0.6037 -0.1767  0.5508
  196MOL0     C26363  -0.735  12.266  11.306 -0.5538  0.2230 -0.1273
  196MOL0     C26364  -0.748  12.333  11.169 -0.5493  0.1737 -0.4705
  196MOL0     C26365  -0.866  12.428  11.164  0.1793 -0.2256  0.6832
  196MOL0     C26366  -1.000  12.355  11.141  0.0058 -0.3487 -1.2332
  196MOL0     C26367  -1.120  12.458  11.142 -0.3097  0.1239 -0.5726
  196MOL0     C26368  -1.258  12.391  11.143  0.1810 -0.9079 -0.9459
  196MOL0     C26369  -1.369  12.490  11.117  0.0346 -0.0889  0.5939
  196MOL0    Cl26370  -1.347  12.528  10.940  0.3745 -0.2883  0.4308
  196MOL0     C26371  -0.630  11.807  11.178 -0.8466 -0.3950  0.3897
  196MOL0     C26372  -0.548  11.698  11.149 -0.4561 -0.3807 -1.5202
  196MOL0     O26373  -0.363  11.506  11.299  0.0722 -0.6074  0.8302
  196MOL0     C26374  -0.294  11.261  11.183  0.3233 -0.3984  0.1435
  196MOL0     C26375  -0.231  11.137  11.147 -0.4445  0.0169  0.2395
  196MOL0     N26376   0.158  10.784  10.535  0.4042  0.7181 -0.1890
  196MOL0     N26377   0.180  10.681  10.456  0.3001 -0.3489 -0.8590
  196MOL0     C26378   0.466   9.961  10.957 -0.0206 -0.3394  0.0201
  196MOL0     C26379   0.586   9.926  11.013  0.1326 -0.7370 -0.2793
  196MOL0     C26380   0.901   9.722  11.248 -0.5614 -0.8084 -0.3287
  196MOL0     C26381   0.999   9.634  11.200 -0.8994 -0.2481 -0.3902
  196MOL0     C26382   1.091   9.586  11.293  0.2619 -0.2621 -0.1174
  196MOL0     C26383   1.082   9.602  11.431  0.1481 -0.8402 -0.6145
  196MOL0     O26384   1.166   9.536  11.517 -0.6396 -0.9571  0.3472
  196MOL0     C26385   1.098   9.445  11.602 -0.0836  0.0952 -0.7399
  196MOL0     C26386   1.031   9.329  11.520  0.1046 -0.2318  1.6738
  196MOL0     C26387   0.967   9.224  11.608  0.1855  0.3426  1.0922
  196MOL0     C26388   0.874   9.102  11.567  0.8167  0.0287 -0.2604
  196MOL0     C26389   0.945   8.989  11.513  0.8302 -0.4542 -0.2388
  196MOL0     C26390   0.985   8.887  11.471 -0.0793  0.0144  0.3415
  196MOL0     C26391   0.972   9.671  11.479  0.8006  0.0725  0.7334
  196MOL0     C26392   0.887   9.737  11.390  0.7206  0.3780 -0.3922
  196MOL0     H26393   0.493   9.916  11.331  0.8525 -2.6710 -0.1166
  196MOL0     H26394   0.274   9.995  11.228  1.2254  0.8584  1.4518
  196MOL0     H26395   0.164   9.821  11.019 -0.3958 -2.1789 -1.8294
  196MOL0     H26396   0.054   9.961  11.042 -1.1305  1.5297 -2.2188
  196MOL0     H26397   0.141   9.849  10.770 -0.0072 -0.8202  0.4820
  196MOL0     H26398  -0.021   9.828  10.836  0.9757 -2.1345 -0.6097
  196MOL0     H26399  -0.086   9.999  10.744  0.6349 -0.7780 -0.4567
  196MOL0     H26400   0.002  10.097  10.869  3.1532  2.0187 -1.1036
  196MOL0     H26401   0.206  10.124  10.707 -0.6271 -0.2363  1.0917
  196MOL0     H26402   0.095  10.035  10.590 -2.7888 -0.5302  0.2590
  196MOL0     H26403  -0.046  10.233  10.584 -1.1040  2.2563  2.0387
  196MOL0     H26404   0.034  10.321  10.715 -0.8692  3.2204 -1.9996
  196MOL0     H26405   0.155  10.255  10.438  1.4653  1.4418 -1.0968
  196MOL0     H26406   0.084  10.415  10.498 -2.7161 -1.3222  0.3347
  196MOL0     H26407   0.299  10.418  10.670  0.8710 -0.0354  0.1532
  196MOL0     H26408   0.356  10.287  10.568 -0.2495  0.2585  2.0543
  196MOL0     H26409   0.283  10.458  10.371 -0.5029  0.4152 -0.3836
  196MOL0     H26410   0.426  10.488  10.477 -0.0199  0.3624 -0.7941
  196MOL0     H26411   0.372  10.624  10.709 -1.4405 -1.0513 -0.5295
  196MOL0     H26412   0.348  10.894  10.797 -0.7983  1.9481  1.1277
  196MOL0     H26413   0.199  10.967  10.738 -1.8424 -1.3967 -2.0519
  196MOL0     H26414   0.193  10.710  10.905  0.9255  0.1044 -1.5552
  196MOL0     H26415   0.059  10.818  10.849 -1.0011  4.2147  1.3496
  196MOL0     H26416   0.262  10.944  11.015 -0.5912 -1.5458  6.6371
  196MOL0     H26417   0.136  10.861  11.090 -0.6366  3.6911  1.4982
  196MOL0     H26418   0.035  11.036  10.874 -0.9839 -1.4325  0.6935
  196MOL0     H26419   0.139  11.117  11.001 -0.8322  1.8107 -1.5356
  196MOL0     H26420  -0.012  11.244  10.915 -0.6403  0.7039 -0.9600
  196MOL0     H26421  -0.168  11.576  10.889 -0.3532 -1.8772 -1.4236
  196MOL0     H26422  -0.073  11.588  11.035 -0.5521 -0.4540  0.8441
  196MOL0     H26423  -0.006  11.502  10.893 -0.7926 -0.1917 -2.8382
  196MOL0     H26424  -0.250  11.854  11.165 -0.0394  1.2616 -1.6912
  196MOL0     H26425  -0.383  12.044  11.228 -0.6662  0.3757  1.1591
  196MOL0     H26426  -0.604  12.127  11.414 -0.4158 -1.8354 -0.0211
  196MOL0     H26427  -0.531  12.194  11.270 -0.5554 -0.8528  0.1165
  196MOL0     H26428  -0.828  12.211  11.323 -1.1091  1.5480  1.2925
  196MOL0     H26429  -0.710  12.342  11.380  3.7935 -1.9155  0.9251
  196MOL0     H26430  -0.763  12.252  11.098 -0.6241 -0.1868 -0.0474
  196MOL0     H26431  -0.660  12.395  11.150 -0.4983  0.1033 -0.4640
  196MOL0     H26432  -0.861  12.495  11.251  0.7444  0.0184  0.4661
  196MOL0     H26433  -0.837  12.484  11.075  2.1147 -1.0950  0.7210
  196MOL0     H26434  -1.016  12.289  11.227  2.9908 -1.7470 -1.6158
  196MOL0     H26435  -1.000  12.290  11.053  0.0214  1.8713 -2.9691
  196MOL0     H26436  -1.121  12.517  11.234  4.2630 -1.7325  0.9459
  196MOL0     H26437  -1.109  12.528  11.058  1.7428  0.2615 -0.2416
  196MOL0     H26438  -1.264  12.352  11.245  1.9156  1.9184  0.3522
  196MOL0     H26439  -1.263  12.311  11.068 -0.5958  0.3262 -2.2563
  196MOL0     H26440  -1.383  12.585  11.170 -0.1624 -0.0620  0.4964
  196MOL0     H26441  -1.465  12.438  11.123  0.3788 -1.5994 -3.5926
  196MOL0     H26442  -0.738  11.795  11.181 -1.0665  0.8645 -1.0838
  196MOL0     H26443  -0.609  11.621  11.103  0.3784 -1.7670 -0.3653
  196MOL0     H26444  -0.379  11.262  11.250 -0.9224  2.0559 -1.3452
  196MOL0     H26445  -0.254  11.045  11.199 -0.9218 -0.8536 -1.4455
  196MOL0     H26446   0.473   9.989  10.853 -0.9405 -0.8783 -0.1984
  196MOL0     H26447   0.677   9.923  10.955  2.0785  1.7534  2.4205
  196MOL0     H26448   1.031   9.630  11.097  1.5505  0.2157  0.2721
  196MOL0     H26449   1.177   9.527  11.261  1.9524  0.3353  2.9666
  196MOL0     H26450   1.167   9.411  11.680  0.6045  2.1603 -0.3927
  196MOL0     H26451   1.012   9.500  11.641  0.1698 -0.2365  0.3157
  196MOL0     H26452   1.104   9.289  11.449  0.1605  1.4295  0.7321
  196MOL0     H26453   0.949   9.370  11.461  0.3315  0.2755  1.7012
  196MOL0     H26454   0.911   9.278  11.684 -2.7169  0.0412 -0.6527
  196MOL0     H26455   1.043   9.165  11.660  0.8266  0.7065  0.5874
  196MOL0     H26456   0.789   9.130  11.504 -0.2714  0.6794  1.4252
  196MOL0     H26457   0.829   9.058  11.656  1.6435 -2.4156 -0.9597
  196MOL0     H26458   1.003   8.787  11.438  0.0110 -0.0804  0.6707
  196MOL0     H26459   0.964   9.705  11.582 -0.0513  2.1238  0.0517
  196MOL0     H26460   0.797   9.790  11.420  0.6354 -1.0154  2.0740
  197MOL0     O26461   5.721   4.722   6.041 -0.7235 -0.7384 -0.6496
  197MOL0     C26462   5.801   4.826   6.041  0.7396  0.2136  0.4023
  197MOL0     O26463   5.770   4.943   6.112 -0.3438 -0.3677  0.0682
  197MOL0     C26464   5.656   4.955   6.185  0.0360  0.8668  0.5191
  197MOL0     C26465   5.542   5.009   6.122  0.6835  0.2107  0.0508
  197MOL0     C26466   5.426   5.040   6.196 -0.3541 -1.3405 -0.3330
  197MOL0     C26467   5.421   5.017   6.332  0.5638 -0.5623  0.4936
  197MOL0     O26468   5.308   5.049   6.405 -0.4913  0.0053  0.2865
  197MOL0     C26469   5.331   5.114   6.536  0.6430  1.1762 -0.3664
  197MOL0     C26470   5.192   5.146   6.605 -0.4264  0.3925  0.7224
  197MOL0     C26471   5.192   5.177   6.757 -0.4007 -0.2063  0.5942
  197MOL0     C26472   5.188   5.054   6.853 -0.3262 -1.4891 -0.6564
  197MOL0     C26473   5.231   5.107   6.989 -0.0512  0.3952 -0.6356
  197MOL0     C26474   5.223   4.998   7.098  1.4334 -0.0623 -0.0647
  197MOL0     C26475   5.075   4.979   7.139 -1.4842 -0.7750  0.0377
  197MOL0     C26476   5.063   4.859   7.228  0.9367 -0.2758 -1.3874
  197MOL0     N26477   5.095   4.894   7.366  0.3167 -0.2249 -0.0861
  197MOL0     C26478   5.220   4.918   7.412 -0.4827 -0.5157 -0.7568
  197MOL0     C26479   5.206   4.909   7.550 -0.0560  0.0104 -0.3192
  197MOL0     C26480   5.304   4.900   7.659  0.3748  0.1504 -0.5240
  197MOL0     C26481   5.339   5.035   7.729  0.4693  0.4638  0.3637
  197MOL0     C26482   5.482   5.048   7.774 -0.1376  0.5136 -0.4689
  197MOL0     C26483   5.586   5.029   7.663  0.9089 -0.1987 -0.2091
  197MOL0     O26484   5.721   5.036   7.711 -0.4482  0.6386 -0.6429
  197MOL0     C26485   5.812   4.998   7.614 -0.0723 -0.2864 -0.2706
  197MOL0     C26486   5.821   5.069   7.492 -0.9441 -0.1498  0.1105
  197MOL0     C26487   5.918   5.050   7.394 -0.1845  0.5582 -0.2724
  197MOL0     C26488   5.924   5.166   7.283 -0.1333  0.5137 -0.1753
  197MOL0     C26489   6.007   4.932   7.414 -0.6047 -0.0403 -0.3646
  197MOL0     C26490   6.111   4.899   7.314  0.3484  0.0197  0.2608
  197MOL0     O26491   6.200   4.796   7.354 -0.9703 -1.2503 -0.0207
  197MOL0     C26492   6.278   4.744   7.255 -0.2422 -0.0127 -0.7025
  197MOL0     C26493   6.221   4.648   7.170  0.2989  0.5507  0.3212
  197MOL0     C26494   6.304   4.581   7.077 -0.1062 -0.6231  1.1973
  197MOL0     C26495   6.445   4.603   7.075 -0.4922  0.4772 -0.5820
  197MOL0     O26496   6.533   4.522   7.001 -0.5366 -0.4632 -0.1995
  197MOL0     C26497   6.482   4.397   6.949  0.6402  0.0264 -0.3756
  197MOL0     C26498   6.579   4.300   6.892 -1.7055 -0.2126 -0.6695
  197MOL0     C26499   6.671   4.361   6.775  0.1958  0.4597  0.2366
  197MOL0     C26500   6.756   4.247   6.717 -0.0167 -0.2378 -0.1779
  197MOL0     C26501   6.849   4.288   6.602  0.4917  0.2266  0.4826
  197MOL0     C26502   6.925   4.419   6.629 -0.2048  0.1408 -0.2060
  197MOL0     C26503   7.049   4.443   6.534  0.5336 -0.4898 -0.5736
  197MOL0     C26504   7.127   4.567   6.553 -0.3297  1.2540 -1.2451
  197MOL0    Cl26505   7.031   4.709   6.558  0.1261 -0.6353  0.1681
  197MOL0     C26506   6.494   4.710   7.153  0.6630 -0.5981  0.0664
  197MOL0     C26507   6.413   4.783   7.243  0.2931  0.0147  0.6118
  197MOL0     O26508   6.098   4.940   7.202  0.9699 -0.2888  0.1692
  197MOL0     C26509   5.992   4.861   7.536 -0.0115 -0.0297 -0.4147
  197MOL0     C26510   5.894   4.887   7.626 -0.5983 -0.5352 -0.8184
  197MOL0     N26511   5.074   4.873   7.575  0.1035 -1.1754  0.4621
  197MOL0     N26512   5.012   4.867   7.461 -0.4298 -0.1846  0.0890
  197MOL0     C26513   5.528   4.953   6.388  1.1524  0.4081 -0.7849
  197MOL0     C26514   5.646   4.926   6.319  1.1110 -0.5480  1.4434
  197MOL0     C26515   5.914   4.826   5.947  0.3987  0.7894 -0.2358
  197MOL0     C26516   5.922   4.736   5.832  0.6198 -0.3897 -0.9457
  197MOL0     C26517   6.033   4.740   5.752  0.0646 -0.2978 -0.1574
  197MOL0     C26518   6.132   4.845   5.757  0.5506 -0.6456  0.5278
  197MOL0     O26519   6.221   4.852   5.648 -0.5457  0.3735 -0.4923
  197MOL0     C26520   6.321   4.959   5.645  0.0905 -0.6332  0.5145
  197MOL0     C26521   6.270   5.087   5.571 -0.4376 -0.1727 -0.0524
  197MOL0     C26522   6.335   5.210   5.625 -0.7126 -0.0381 -0.5467
  197MOL0     C26523   6.280   5.349   5.583  0.0471  0.1648 -0.6301
  197MOL0     C26524   6.257   5.343   5.438 -0.3933 -0.7603  0.4614
  197MOL0     C26525   6.227   5.343   5.319 -0.2287  0.5869 -0.9239
  197MOL0     C26526   6.121   4.935   5.866 -0.6051 -0.4096 -0.2455
  197MOL0     C26527   6.016   4.923   5.956 -1.2035 -0.7980 -0.1098
  197MOL0     H26528   5.545   5.017   6.014 -2.4422  1.6481 -0.0449
  197MOL0     H26529   5.338   5.091   6.158  0.0709 -0.6479 -0.3963
  197MOL0     H26530   5.374   5.036   6.599 -0.7404 -0.3425 -1.2102
  197MOL0     H26531   5.398   5.200   6.525  1.6753  0.5192  0.5680
  197MOL0     H26532   5.148   5.227   6.547  1.5760  0.3012 -1.0532
  197MOL0     H26533   5.128   5.057   6.598  2.9572 -2.3032  1.0695
  197MOL0     H26534   5.271   5.249   6.779 -1.1550  0.9062 -0.2140
  197MOL0     H26535   5.097   5.225   6.780 -0.8717 -1.2163  0.7936
  197MOL0     H26536   5.084   5.020   6.852  0.0154 -2.5692 -0.1208
  197MOL0     H26537   5.239   4.971   6.804  0.3229 -0.7941 -1.1859
  197MOL0     H26538   5.335   5.137   6.980  0.4273 -0.8041  0.5536
  197MOL0     H26539   5.173   5.196   7.016 -0.6947 -0.2400  0.1136
  197MOL0     H26540   5.270   4.902   7.074  1.4698 -0.1903  0.5090
  197MOL0     H26541   5.266   5.040   7.189 -0.9698  1.7788  0.3071
  197MOL0     H26542   5.035   5.074   7.177  1.3627  0.1765  0.8580
  197MOL0     H26543   5.017   4.950   7.051 -2.9147  2.1827 -0.1349
  197MOL0     H26544   5.121   4.770   7.203 -3.0909 -3.8315  0.6722
  197MOL0     H26545   4.959   4.824   7.228  1.1866 -1.9000  3.9518
  197MOL0     H26546   5.305   4.946   7.351  0.1199 -3.0066 -1.1935
  197MOL0     H26547   5.277   4.833   7.741  3.3595  1.5261  1.7890
  197MOL0     H26548   5.389   4.844   7.619  1.6516  0.8170  1.1038
  197MOL0     H26549   5.269   5.043   7.813 -1.5495 -2.0342 -0.9197
  197MOL0     H26550   5.323   5.120   7.662 -0.8235  0.2629  0.3832
  197MOL0     H26551   5.500   4.981   7.858 -3.2053 -0.5565 -0.5234
  197MOL0     H26552   5.484   5.154   7.802 -0.5133  0.5570 -0.5991
  197MOL0     H26553   5.562   5.113   7.597 -0.0746  3.1736  4.0243
  197MOL0     H26554   5.573   4.939   7.601  1.2329 -0.8197  0.6071
  197MOL0     H26555   5.754   5.155   7.487  3.2227  3.6958  2.3882
  197MOL0     H26556   5.857   5.249   7.308  2.7778  2.0203  3.6476
  197MOL0     H26557   6.026   5.203   7.270  0.3269  0.0783  1.8626
  197MOL0     H26558   5.893   5.114   7.192  1.8458  0.7483 -1.0187
  197MOL0     H26559   6.115   4.625   7.165 -0.1049  2.4464 -0.8316
  197MOL0     H26560   6.251   4.509   7.015 -0.5982 -1.2045  2.2548
  197MOL0     H26561   6.414   4.359   7.027 -0.5402  1.6087 -0.5820
  197MOL0     H26562   6.419   4.421   6.862 -0.6883 -3.0821 -0.4103
  197MOL0     H26563   6.637   4.259   6.976 -0.1088  0.8732 -1.2136
  197MOL0     H26564   6.534   4.208   6.853  1.2807 -1.0972 -2.3331
  197MOL0     H26565   6.735   4.440   6.816  1.2600 -0.2734  0.0548
  197MOL0     H26566   6.609   4.406   6.698 -1.0446 -1.2406  0.1821
  197MOL0     H26567   6.830   4.204   6.785  0.0358 -0.9644 -0.6814
  197MOL0     H26568   6.680   4.177   6.684  1.2958 -1.3356 -0.9603
  197MOL0     H26569   6.787   4.306   6.513  2.2161  3.7354 -0.1635
  197MOL0     H26570   6.919   4.207   6.578  0.4636 -0.0819  1.4316
  197MOL0     H26571   6.858   4.506   6.632 -2.3009 -1.3393 -1.3479
  197MOL0     H26572   6.961   4.410   6.732 -1.1148 -1.4750  0.0164
  197MOL0     H26573   7.009   4.464   6.434  1.2565  0.3037 -0.7129
  197MOL0     H26574   7.114   4.356   6.521  0.9779 -0.4146  0.9544
  197MOL0     H26575   7.207   4.570   6.479  0.3721  2.5274 -0.4742
  197MOL0     H26576   7.182   4.581   6.647 -0.1494  1.8417 -1.4294
  197MOL0     H26577   6.600   4.732   7.152  0.5844 -0.1851  0.3245
  197MOL0     H26578   6.450   4.857   7.313  1.0784  0.3669 -0.1566
  197MOL0     H26579   6.047   4.772   7.562 -2.0731 -0.5287  2.8557
  197MOL0     H26580   5.885   4.826   7.715  0.7734 -0.3509 -0.5166
  197MOL0     H26581   5.516   4.929   6.493  3.6197  1.7345 -0.1210
  197MOL0     H26582   5.731   4.885   6.372  1.2919 -0.3299  1.3206
  197MOL0     H26583   5.857   4.655   5.801  0.3551 -0.0106 -1.3942
  197MOL0     H26584   6.045   4.678   5.664  1.4670 -1.8556  1.0532
  197MOL0     H26585   6.347   5.000   5.743  1.5284  0.2681 -0.2066
  197MOL0     H26586   6.416   4.925   5.603 -0.0812  0.7270 -1.0770
  197MOL0     H26587   6.165   5.095   5.601 -0.1428  0.3773  0.8655
  197MOL0     H26588   6.278   5.081   5.462 -1.3496 -0.5884 -0.1115
  197MOL0     H26589   6.440   5.201   5.595  0.0252 -1.2160  2.0463
  197MOL0     H26590   6.333   5.215   5.734  0.3015 -3.9146 -0.1771
  197MOL0     H26591   6.345   5.430   5.617  0.7978 -0.2408 -1.0665
  197MOL0     H26592   6.183   5.362   5.631 -0.0677  0.8986 -1.0426
  197MOL0     H26593   6.193   5.339   5.218 -0.6317  0.1668 -0.7706
  197MOL0     H26594   6.178   5.027   5.873 -0.7219 -0.1319 -2.2653
  197MOL0     H26595   6.009   4.999   6.033 -0.1632 -3.7332  3.1414
  198MOL0     O26596   9.360   0.039   6.421 -0.7990  0.1626 -0.1774
  198MOL0     C26597   9.259  -0.025   6.445  0.3451  0.3435 -0.6935
  198MOL0     O26598   9.147   0.029   6.466 -0.1393  0.7390  0.2847
  198MOL0     C26599   9.142   0.163   6.455  0.2547  0.3451  0.0743
  198MOL0     C26600   9.145   0.259   6.561  0.1839 -0.1677  0.2666
  198MOL0     C26601   9.147   0.398   6.532 -0.4870  0.5195  0.9987
  198MOL0     C26602   9.160   0.444   6.401  0.5474 -0.9354  0.9237
  198MOL0     O26603   9.151   0.576   6.364 -0.0821  0.0354 -1.2759
  198MOL0     C26604   9.025   0.633   6.338  0.0211  0.3818 -0.4339
  198MOL0     C26605   8.996   0.753   6.421  0.0695 -0.2684 -0.1465
  198MOL0     C26606   8.850   0.799   6.402 -1.0806 -1.0878 -0.9761
  198MOL0     C26607   8.739   0.711   6.451 -0.4254 -0.5013 -0.6514
  198MOL0     C26608   8.744   0.660   6.592 -0.5407  0.8400  0.1564
  198MOL0     C26609   8.615   0.584   6.620 -0.0833  0.6686  0.2566
  198MOL0     C26610   8.628   0.509   6.753 -0.1911 -0.9213 -0.3194
  198MOL0     C26611   8.512   0.417   6.782  0.6019  0.3757 -0.4559
  198MOL0     N26612   8.398   0.499   6.822 -0.2832 -0.2284  0.5722
  198MOL0     C26613   8.358   0.529   6.946 -0.3364 -0.6478 -0.6307
  198MOL0     C26614   8.232   0.584   6.932  0.5660  1.0535 -0.6814
  198MOL0     C26615   8.132   0.603   7.054 -0.1586 -0.2265  0.3715
  198MOL0     C26616   8.100   0.468   7.115  0.5941 -0.1988 -0.2613
  198MOL0     C26617   7.998   0.486   7.228  0.0661  0.0902  0.1626
  198MOL0     C26618   7.983   0.353   7.305  0.4691  0.0748 -0.4149
  198MOL0     O26619   7.923   0.362   7.430 -0.4988  0.0273  0.0804
  198MOL0     C26620   7.797   0.416   7.436 -0.2472  0.7453  0.6715
  198MOL0     C26621   7.760   0.469   7.554 -0.3370 -0.4973 -0.3018
  198MOL0     C26622   7.634   0.526   7.575 -0.7496 -0.3971 -1.3085
  198MOL0     C26623   7.619   0.601   7.705  0.4248  1.0878 -0.3117
  198MOL0     C26624   7.532   0.503   7.483 -1.1685 -0.0526 -0.1835
  198MOL0     C26625   7.396   0.537   7.508 -0.6470  0.8288 -0.1419
  198MOL0     O26626   7.336   0.526   7.632 -0.3706  0.0572 -0.4124
  198MOL0     C26627   7.194   0.553   7.626  0.0797 -0.4516 -0.4041
  198MOL0     C26628   7.151   0.652   7.705 -0.0674  0.2843  0.3296
  198MOL0     C26629   7.008   0.679   7.710  0.5972  0.6136 -1.0224
  198MOL0     C26630   6.920   0.612   7.624 -0.6530 -0.0747 -0.1408
  198MOL0     O26631   6.777   0.644   7.636  0.3778 -0.7211 -0.4975
  198MOL0     C26632   6.684   0.553   7.583  0.4245 -0.0700  0.5491
  198MOL0     C26633   6.547   0.605   7.607  0.5773 -0.2411 -0.4124
  198MOL0     C26634   6.426   0.513   7.546 -0.4144 -0.4149  0.4637
  198MOL0     C26635   6.294   0.583   7.561  1.3447  0.3188  0.3630
  198MOL0     C26636   6.182   0.480   7.563 -0.4209  0.3506 -0.2116
  198MOL0     C26637   6.037   0.519   7.550 -0.6198  0.4279 -0.0186
  198MOL0     C26638   5.990   0.612   7.663  0.9002 -0.4264 -0.0671
  198MOL0     C26639   5.839   0.644   7.667  0.6999  0.5348  0.4851
  198MOL0    Cl26640   5.796   0.760   7.531 -0.3812  0.0084 -0.5879
  198MOL0     C26641   6.974   0.517   7.537 -0.7881 -0.2528  0.7112
  198MOL0     C26642   7.113   0.485   7.541 -0.1905 -0.6716 -0.4621
  198MOL0     O26643   7.336   0.576   7.406  0.6472  0.3593  0.5735
  198MOL0     C26644   7.567   0.453   7.355  0.3597 -0.2958  0.0642
  198MOL0     C26645   7.694   0.405   7.332  0.2312  0.1176  0.4819
  198MOL0     N26646   8.206   0.591   6.797  0.3559  0.7672 -0.7409
  198MOL0     N26647   8.300   0.530   6.735 -0.5627  0.2308  0.3089
  198MOL0     C26648   9.166   0.346   6.292  0.5080 -1.1723 -0.1512
  198MOL0     C26649   9.158   0.208   6.322 -0.0959 -0.5391 -0.7552
  198MOL0     C26650   9.272  -0.175   6.481 -0.0565 -0.8080  0.7452
  198MOL0     C26651   9.391  -0.234   6.460  0.2266  1.3002 -0.3835
  198MOL0     C26652   9.396  -0.366   6.473  0.2781 -0.0646 -0.4048
  198MOL0     C26653   9.289  -0.443   6.518 -0.6868  0.6744 -0.6811
  198MOL0     O26654   9.287  -0.578   6.525 -0.3386  0.4755  0.1835
  198MOL0     C26655   9.371  -0.649   6.442  0.3403  0.9498  0.1103
  198MOL0     C26656   9.309  -0.794   6.443  0.1370 -1.0025  0.1884
  198MOL0     C26657   9.174  -0.809   6.364  0.9863  0.7469  0.3361
  198MOL0     C26658   9.037  -0.766   6.424  0.6272 -0.2582  0.0845
  198MOL0     C26659   9.000  -0.630   6.394 -0.0029  0.4180  0.7027
  198MOL0     C26660   8.941  -0.528   6.368 -0.0514  0.6646 -0.6976
  198MOL0     C26661   9.167  -0.380   6.543  0.0675 -0.1467 -0.5969
  198MOL0     C26662   9.156  -0.242   6.527  0.3608  0.2560  0.0631
  198MOL0     H26663   9.140   0.226   6.664 -1.7241  1.8573  0.8977
  198MOL0     H26664   9.148   0.472   6.611 -0.5058  0.2928  1.2133
  198MOL0     H26665   9.023   0.657   6.231  0.1828 -0.4937 -0.6388
  198MOL0     H26666   8.953   0.555   6.362 -0.1553  0.4808 -0.6366
  198MOL0     H26667   9.026   0.731   6.524 -0.8388  2.7836  0.8675
  198MOL0     H26668   9.069   0.824   6.382  0.2452 -0.1062  0.4658
  198MOL0     H26669   8.846   0.898   6.450 -0.3951 -1.1948 -0.6894
  198MOL0     H26670   8.853   0.809   6.293  0.2187 -2.0895 -1.0516
  198MOL0     H26671   8.647   0.762   6.420  1.1227  2.1179 -1.2788
  198MOL0     H26672   8.750   0.628   6.380  0.6139  1.9808 -3.6495
  198MOL0     H26673   8.830   0.596   6.614 -0.0716  0.7704 -1.6405
  198MOL0     H26674   8.756   0.743   6.662 -0.2755  0.0837  1.0142
  198MOL0     H26675   8.524   0.645   6.622 -0.5243  0.0149  0.5592
  198MOL0     H26676   8.604   0.511   6.539  0.1061  1.8616 -0.8839
  198MOL0     H26677   8.720   0.450   6.759  2.0293  2.3299 -0.0425
  198MOL0     H26678   8.633   0.582   6.834  0.8356 -2.1439  0.7815
  198MOL0     H26679   8.522   0.353   6.870 -3.7602 -2.7290 -1.8606
  198MOL0     H26680   8.494   0.352   6.696 -0.8896 -1.4632  1.1453
  198MOL0     H26681   8.413   0.509   7.038  0.4583  3.2383 -0.0778
  198MOL0     H26682   8.186   0.673   7.118 -0.5271  0.4154 -0.0064
  198MOL0     H26683   8.042   0.657   7.024 -1.7345 -2.4166  0.9514
  198MOL0     H26684   8.190   0.412   7.142 -0.8688 -2.0880  0.9915
  198MOL0     H26685   8.054   0.394   7.049  3.4002 -1.4866 -0.9303
  198MOL0     H26686   7.901   0.525   7.194  0.2464  0.2650 -0.1494
  198MOL0     H26687   8.043   0.557   7.298  0.3916 -0.0524  0.0996
  198MOL0     H26688   8.079   0.302   7.321 -0.7690 -2.4629 -0.6196
  198MOL0     H26689   7.927   0.278   7.247  2.7949 -0.9559 -1.4735
  198MOL0     H26690   7.835   0.461   7.632  0.4072  1.3919 -0.7742
  198MOL0     H26691   7.704   0.654   7.749 -0.3045  0.9406  1.3504
  198MOL0     H26692   7.538   0.672   7.683 -1.9289 -1.6881 -1.1870
  198MOL0     H26693   7.587   0.537   7.788  1.7099  0.5457 -0.2234
  198MOL0     H26694   7.221   0.699   7.774  1.5884  0.4399 -1.3958
  198MOL0     H26695   6.964   0.752   7.777  0.0681  1.0635 -1.8333
  198MOL0     H26696   6.701   0.548   7.475 -2.9677  1.1784 -0.1800
  198MOL0     H26697   6.689   0.459   7.638  0.8801  1.5132  3.3599
  198MOL0     H26698   6.538   0.580   7.713  0.3451 -2.8848 -0.9963
  198MOL0     H26699   6.543   0.713   7.590  0.9164 -0.2675 -0.6634
  198MOL0     H26700   6.420   0.412   7.588 -1.4921 -0.9643 -0.9224
  198MOL0     H26701   6.446   0.490   7.441  0.8365 -1.2889  0.8830
  198MOL0     H26702   6.288   0.630   7.660 -1.4937  1.6665 -0.3409
  198MOL0     H26703   6.279   0.655   7.480 -1.5201 -0.6479 -0.0724
  198MOL0     H26704   6.189   0.421   7.655  1.4337  1.5996  0.5064
  198MOL0     H26705   6.209   0.414   7.480  2.2131  0.7065  0.2837
  198MOL0     H26706   6.020   0.566   7.453 -1.5423 -1.1389 -0.6635
  198MOL0     H26707   5.967   0.435   7.551 -4.4426  3.3346  1.9205
  198MOL0     H26708   6.043   0.707   7.651  0.2946 -0.2267 -1.3151
  198MOL0     H26709   6.022   0.581   7.762 -2.0431 -3.1655  0.2013
  198MOL0     H26710   5.807   0.690   7.761 -1.5249 -1.2736  0.7158
  198MOL0     H26711   5.779   0.552   7.657 -0.3562  1.2065  0.4700
  198MOL0     H26712   6.919   0.467   7.458  1.5893 -0.1733 -1.0805
  198MOL0     H26713   7.137   0.406   7.470  0.0428 -0.8741 -0.1584
  198MOL0     H26714   7.496   0.421   7.279  1.2791 -1.5679 -0.2993
  198MOL0     H26715   7.731   0.368   7.237  1.7182 -0.2752  1.1756
  198MOL0     H26716   9.176   0.365   6.186  0.8009 -1.2464 -0.1368
  198MOL0     H26717   9.144   0.147   6.234 -0.4993 -1.4843 -0.0466
  198MOL0     H26718   9.482  -0.200   6.412 -0.1122 -0.2414 -2.2153
  198MOL0     H26719   9.491  -0.416   6.456  0.2881  0.2215 -1.2514
  198MOL0     H26720   9.386  -0.608   6.341  0.0713  4.8646  1.5169
  198MOL0     H26721   9.472  -0.662   6.482  0.2253 -1.7743 -0.2584
  198MOL0     H26722   9.305  -0.836   6.544 -1.5265 -1.9514 -0.2363
  198MOL0     H26723   9.372  -0.863   6.386 -0.4114 -0.7483 -0.7328
  198MOL0     H26724   9.167  -0.915   6.341 -1.7303 -0.0224  3.7826
  198MOL0     H26725   9.184  -0.758   6.268 -1.5785 -0.5110 -0.6663
  198MOL0     H26726   9.034  -0.785   6.531 -2.7772  0.7178  0.2863
  198MOL0     H26727   8.955  -0.819   6.375 -1.6476  1.7117  1.5575
  198MOL0     H26728   8.878  -0.448   6.338  0.7520  1.5020 -0.1951
  198MOL0     H26729   9.082  -0.434   6.583  1.7308 -1.4596  1.3785
  198MOL0     H26730   9.065  -0.186   6.542 -0.1717 -0.4429 -0.4860
  199MOL0     O26731   3.202   0.746   6.633  0.0005 -0.0241 -0.0503
  199MOL0     C26732   3.220   0.811   6.528  0.1773 -0.3012  0.1896
  199MOL0     O26733   3.341   0.874   6.495  0.7841 -0.3980 -0.7618
  199MOL0     C26734   3.443   0.848   6.578 -0.1160 -0.1258 -1.2273
  199MOL0     C26735   3.518   0.732   6.556 -0.0224  0.2421  0.4398
  199MOL0     C26736   3.631   0.689   6.637 -0.2441  1.1936 -0.5870
  199MOL0     C26737   3.675   0.777   6.738  0.0652 -0.2768  0.6982
  199MOL0     O26738   3.774   0.740   6.817  0.1679  0.2582  0.0765
  199MOL0     C26739   3.885   0.821   6.856 -0.0638  0.1048 -0.1941
  199MOL0     C26740   3.881   0.824   7.005 -1.2935 -0.0597  0.4314
  199MOL0     C26741   4.000   0.894   7.060  0.2372  0.0712 -0.6798
  199MOL0     C26742   3.997   0.889   7.218 -1.4337  1.1587  0.5123
  199MOL0     C26743   4.003   1.026   7.265 -0.3341 -0.5593  0.5814
  199MOL0     C26744   3.968   1.052   7.412 -0.1211  0.3205  0.6399
  199MOL0     C26745   3.821   1.066   7.426  0.0573  0.4673  0.0907
  199MOL0     C26746   3.767   1.127   7.555 -0.0860  0.2592  0.4159
  199MOL0     N26747   3.758   1.028   7.663 -0.0528 -0.6555 -0.3929
  199MOL0     C26748   3.861   1.004   7.747  0.8633 -0.2455  0.0119
  199MOL0     C26749   3.820   0.892   7.812  0.3673 -0.4543 -0.2396
  199MOL0     C26750   3.911   0.831   7.908 -1.0682 -0.3821 -1.0494
  199MOL0     C26751   3.975   0.706   7.845 -0.1674  0.0073  0.0450
  199MOL0     C26752   4.051   0.628   7.950  0.4881 -0.7834 -0.5187
  199MOL0     C26753   3.966   0.530   8.028 -0.2647 -0.4400 -0.4098
  199MOL0     O26754   3.834   0.571   8.071  0.5087  0.0832  0.4720
  199MOL0     C26755   3.751   0.472   8.120  0.3664  0.2418 -0.3443
  199MOL0     C26756   3.614   0.492   8.126 -1.2782 -0.9219 -0.2210
  199MOL0     C26757   3.519   0.398   8.168  0.2820 -0.1470 -0.0928
  199MOL0     C26758   3.371   0.428   8.149 -0.4740  0.1088  0.6409
  199MOL0     C26759   3.570   0.278   8.223 -0.1124 -0.9636  0.3270
  199MOL0     C26760   3.474   0.183   8.275  0.0626  0.7941  0.2377
  199MOL0     O26761   3.506   0.052   8.249 -0.3406 -0.1084 -0.3147
  199MOL0     C26762   3.425  -0.046   8.291  0.6912 -0.3423 -0.5058
  199MOL0     C26763   3.288  -0.048   8.275 -0.5594 -0.4245  0.0043
  199MOL0     C26764   3.209  -0.153   8.313  0.1463 -0.5094  0.2449
  199MOL0     C26765   3.258  -0.275   8.351 -0.2117 -0.1556 -0.1496
  199MOL0     O26766   3.186  -0.386   8.371 -0.0442 -0.0312  0.0324
  199MOL0     C26767   3.198  -0.450   8.492 -0.4867 -0.8701  0.4604
  199MOL0     C26768   3.120  -0.583   8.503  0.5336 -0.5947 -0.0983
  199MOL0     C26769   3.174  -0.692   8.603  0.0415 -0.1570 -0.8505
  199MOL0     C26770   3.071  -0.797   8.633 -0.0511 -0.6510 -0.3356
  199MOL0     C26771   3.034  -0.879   8.507  0.4837  0.2132  0.1090
  199MOL0     C26772   2.908  -0.962   8.521  0.1006 -0.3603 -0.2511
  199MOL0     C26773   2.873  -1.028   8.389  0.0257  0.8405 -0.4312
  199MOL0     C26774   2.783  -1.149   8.426  0.2681 -0.0151  0.5815
  199MOL0    Cl26775   2.767  -1.240   8.275 -0.0360 -0.3162  0.1154
  199MOL0     C26776   3.400  -0.277   8.364 -0.5273  0.4433  0.3511
  199MOL0     C26777   3.483  -0.165   8.335  1.6128 -0.2690 -0.8176
  199MOL0     O26778   3.380   0.224   8.340  0.1004  1.1557  0.2438
  199MOL0     C26779   3.705   0.252   8.233  0.0095 -1.0049 -1.0897
  199MOL0     C26780   3.795   0.354   8.180 -0.7665  0.4436  0.0866
  199MOL0     N26781   3.697   0.863   7.771  0.4587 -0.1038 -0.0876
  199MOL0     N26782   3.659   0.943   7.674 -0.0376  0.0702  0.7486
  199MOL0     C26783   3.603   0.903   6.757 -0.0519 -0.0070 -0.1418
  199MOL0     C26784   3.498   0.931   6.676 -0.1149  0.9730  0.2204
  199MOL0     C26785   3.101   0.826   6.451 -0.1975  0.2623  0.8388
  199MOL0     C26786   3.096   0.884   6.319 -0.4712 -0.0998  0.1675
  199MOL0     C26787   2.974   0.884   6.244 -1.5417  0.0950 -0.0450
  199MOL0     C26788   2.856   0.837   6.293  0.2072  0.1702  0.2661
  199MOL0     O26789   2.746   0.854   6.218  0.6604 -0.4235  0.3668
  199MOL0     C26790   2.616   0.820   6.274  0.7879 -0.7678  0.5372
  199MOL0     C26791   2.526   0.825   6.151  0.5167 -0.4498  0.4401
  199MOL0     C26792   2.501   0.961   6.089  0.4943  0.0699 -0.4318
  199MOL0     C26793   2.431   0.956   5.953  0.1210 -0.4149 -0.8631
  199MOL0     C26794   2.284   0.952   5.982  0.0111 -1.3989 -0.3822
  199MOL0     C26795   2.166   0.947   5.992  0.7888  0.4711 -1.0721
  199MOL0     C26796   2.858   0.777   6.414  0.3897 -0.0724 -0.4285
  199MOL0     C26797   2.976   0.767   6.486 -0.0929  1.1668 -0.3489
  199MOL0     H26798   3.487   0.684   6.464 -1.2620  1.7000  0.0544
  199MOL0     H26799   3.696   0.605   6.614  0.3822  1.9630 -1.6924
  199MOL0     H26800   3.977   0.782   6.814 -0.5777 -1.6101  0.1860
  199MOL0     H26801   3.872   0.919   6.809  0.5089 -1.2536 -3.4331
  199MOL0     H26802   3.788   0.865   7.047 -1.3845  2.7501 -2.1124
  199MOL0     H26803   3.895   0.723   7.044  1.0716  0.7095  1.7546
  199MOL0     H26804   4.081   0.829   7.027  0.1195  0.2842 -1.4049
  199MOL0     H26805   4.008   0.994   7.017  0.8330  0.2420 -0.1810
  199MOL0     H26806   3.916   0.831   7.263  2.7697 -2.5124  4.3931
  199MOL0     H26807   4.086   0.831   7.244 -2.3085  0.2142  1.4780
  199MOL0     H26808   4.101   1.068   7.237 -1.0407  1.9709  1.5645
  199MOL0     H26809   3.933   1.081   7.201  0.4128  1.3025  1.2786
  199MOL0     H26810   4.003   0.969   7.474 -0.4743  1.7844  2.9258
  199MOL0     H26811   4.024   1.146   7.424  1.1347 -0.2901 -0.2134
  199MOL0     H26812   3.787   1.122   7.338 -0.8296 -1.7852 -1.0790
  199MOL0     H26813   3.778   0.966   7.416 -0.3205  0.4080  2.0464
  199MOL0     H26814   3.661   1.143   7.534 -0.0594 -2.3237 -2.1785
  199MOL0     H26815   3.820   1.218   7.586  1.7351 -0.5098 -0.3270
  199MOL0     H26816   3.963   1.042   7.744  0.4800  0.7849 -0.2306
  199MOL0     H26817   3.980   0.905   7.950 -1.2433 -0.0983 -1.2530
  199MOL0     H26818   3.846   0.803   7.991  0.1396  2.4155  0.9763
  199MOL0     H26819   4.043   0.740   7.766 -0.6607 -1.5367 -1.0935
  199MOL0     H26820   3.892   0.646   7.807 -2.4366  1.4014  2.4123
  199MOL0     H26821   4.074   0.699   8.029 -1.5359 -1.2512  0.5485
  199MOL0     H26822   4.137   0.579   7.902  1.4863  1.4416 -1.1462
  199MOL0     H26823   4.028   0.505   8.115  1.0293  3.9130  0.1463
  199MOL0     H26824   3.954   0.437   7.971 -2.1800 -1.3244  1.3131
  199MOL0     H26825   3.588   0.586   8.079  0.8771 -0.1350  0.0005
  199MOL0     H26826   3.356   0.517   8.086 -3.7767 -1.9509 -1.8657
  199MOL0     H26827   3.308   0.357   8.094  1.4473  0.7704 -2.7007
  199MOL0     H26828   3.331   0.444   8.249 -0.3447 -0.7631  0.8385
  199MOL0     H26829   3.237   0.032   8.221 -0.6330 -1.6626 -1.8503
  199MOL0     H26830   3.103  -0.138   8.294 -0.2182 -2.4401  0.5494
  199MOL0     H26831   3.305  -0.472   8.506 -0.6140 -1.2238  0.9257
  199MOL0     H26832   3.171  -0.389   8.578  0.9415  0.4839  0.0086
  199MOL0     H26833   3.014  -0.561   8.521  0.7221 -0.5661  1.0975
  199MOL0     H26834   3.126  -0.620   8.401  0.1992 -0.4980 -0.1541
  199MOL0     H26835   3.210  -0.656   8.700 -0.5154 -0.6842 -0.4370
  199MOL0     H26836   3.258  -0.730   8.546  1.4247  2.1956 -0.5116
  199MOL0     H26837   3.112  -0.863   8.711  1.5567 -0.5536 -1.0648
  199MOL0     H26838   2.984  -0.745   8.676  1.9766 -0.6162  4.3877
  199MOL0     H26839   3.117  -0.940   8.472  2.4990  1.5795  2.2192
  199MOL0     H26840   3.006  -0.813   8.424 -1.8430 -0.4299  0.3026
  199MOL0     H26841   2.917  -1.031   8.605  1.4345  0.9689  0.7574
  199MOL0     H26842   2.826  -0.893   8.541 -0.9722 -1.1978 -1.5960
  199MOL0     H26843   2.965  -1.057   8.338 -0.6580  3.6630 -3.6156
  199MOL0     H26844   2.822  -0.964   8.317  0.5622 -0.3713 -1.9602
  199MOL0     H26845   2.680  -1.129   8.456  1.1110  3.1958  1.8023
  199MOL0     H26846   2.830  -1.210   8.503  1.1008 -0.3830 -0.2034
  199MOL0     H26847   3.443  -0.374   8.386  0.0614  0.9651  1.5456
  199MOL0     H26848   3.590  -0.179   8.336  1.8965  1.6226 -0.7239
  199MOL0     H26849   3.740   0.161   8.280  1.4334 -0.0480 -0.2068
  199MOL0     H26850   3.901   0.329   8.180 -0.5468  1.3318  0.0572
  199MOL0     H26851   3.625   0.957   6.849 -0.9466 -2.0307  1.3172
  199MOL0     H26852   3.446   1.023   6.700 -0.4436  1.1494 -1.0656
  199MOL0     H26853   3.172   0.945   6.272  0.0739  0.4505  1.6956
  199MOL0     H26854   2.999   0.929   6.148 -0.6477  0.4112  0.3205
  199MOL0     H26855   2.612   0.722   6.322 -1.2612 -0.3447  1.3047
  199MOL0     H26856   2.589   0.902   6.340  0.4519 -0.5135  0.0879
  199MOL0     H26857   2.426   0.783   6.168 -0.2456  2.1293  3.1895
  199MOL0     H26858   2.571   0.760   6.074  1.9800  1.3605 -0.3060
  199MOL0     H26859   2.597   1.015   6.085 -0.4095  1.7534 -0.1620
  199MOL0     H26860   2.436   1.017   6.157 -0.6342  0.8923 -2.1099
  199MOL0     H26861   2.458   0.865   5.900 -1.6036 -0.6401 -1.4126
  199MOL0     H26862   2.459   1.043   5.894 -2.9747 -0.5891 -2.7925
  199MOL0     H26863   2.060   0.934   5.997  0.8791 -1.4709  5.2816
  199MOL0     H26864   2.765   0.732   6.446 -1.1243  1.4475 -2.3605
  199MOL0     H26865   2.969   0.707   6.576 -0.9437  0.4433 -0.8803
  200MOL0     O26866   6.120  11.400   5.197 -0.0577  0.6894  0.2920
  200MOL0     C26867   6.028  11.334   5.238 -0.2475 -0.8488  0.1619
  200MOL0     O26868   6.008  11.298   5.367 -0.1436  0.0817  0.4507
  200MOL0     C26869   6.083  11.367   5.462 -0.0013  0.6078  0.2766
  200MOL0     C26870   6.031  11.477   5.513  0.4491 -1.4781  0.2888
  200MOL0     C26871   6.093  11.559   5.609 -0.3790 -0.1459 -0.6454
  200MOL0     C26872   6.211  11.515   5.668 -0.6494 -0.5772  0.5378
  200MOL0     O26873   6.282  11.589   5.759  0.6488 -0.1277 -0.1863
  200MOL0     C26874   6.328  11.713   5.725 -0.6659 -0.2523  0.2575
  200MOL0     C26875   6.387  11.773   5.857 -0.0606  0.2609 -0.0097
  200MOL0     C26876   6.392  11.926   5.880  0.2151  0.4517 -0.3736
  200MOL0     C26877   6.469  11.984   5.765  0.9918 -0.4189  0.5371
  200MOL0     C26878   6.456  12.144   5.778 -1.0059 -0.0865  0.1658
  200MOL0     C26879   6.588  12.203   5.838  0.7005  0.0646 -1.3695
  200MOL0     C26880   6.587  12.361   5.847  0.3962 -0.9679  0.5478
  200MOL0     C26881   6.701  12.407   5.935  0.0633 -0.6797  0.2453
  200MOL0     N26882   6.687  12.552   5.956 -0.2268 -0.3824  0.0507
  200MOL0     C26883   6.648  12.607   6.069  0.5767  0.5504 -0.1147
  200MOL0     C26884   6.640  12.741   6.058  0.4571 -0.1980  0.7131
  200MOL0     C26885   6.589  12.856   6.152 -0.0024 -0.1400 -0.8480
  200MOL0     C26886   6.701  12.907   6.236 -0.7230 -0.5921  0.1645
  200MOL0     C26887   6.667  13.018   6.337  0.3616  0.9433  0.1009
  200MOL0     C26888   6.777  13.054   6.443 -0.6477 -0.0249  0.4125
  200MOL0     O26889   6.798  12.939   6.533  0.9002 -0.3843 -0.0657
  200MOL0     C26890   6.916  12.935   6.606  0.2273 -0.1699  0.2469
  200MOL0     C26891   6.983  13.053   6.644  0.5664 -0.3184 -0.6024
  200MOL0     C26892   7.099  13.053   6.712 -0.1992 -0.0163 -0.6331
  200MOL0     C26893   7.175  13.185   6.753 -0.3660  0.1854 -0.8045
  200MOL0     C26894   7.163  12.922   6.741  0.7471 -0.5973  0.0464
  200MOL0     C26895   7.298  12.910   6.807 -0.2132 -0.1359 -0.5984
  200MOL0     O26896   7.327  12.787   6.865 -0.7290  0.4859 -0.9478
  200MOL0     C26897   7.431  12.767   6.949 -0.1300  0.5063 -0.8193
  200MOL0     C26898   7.479  12.860   7.041 -0.0181 -0.5406  0.7086
  200MOL0     C26899   7.598  12.843   7.103 -0.9737  0.1951  0.7261
  200MOL0     C26900   7.674  12.720   7.090  0.3772  0.0123  0.4962
  200MOL0     O26901   7.792  12.683   7.141 -0.6238  0.6688 -0.4678
  200MOL0     C26902   7.853  12.768   7.240 -0.3525  0.2324 -0.0209
  200MOL0     C26903   7.916  12.893   7.179  0.4719  1.1119  0.3916
  200MOL0     C26904   8.070  12.876   7.191  0.1489  0.1279  0.7564
  200MOL0     C26905   8.119  12.757   7.113  0.6056 -0.6572  0.0697
  200MOL0     C26906   8.252  12.786   7.054 -0.3502  0.0273 -0.5409
  200MOL0     C26907   8.371  12.756   7.148 -0.0968 -0.2408  0.1127
  200MOL0     C26908   8.508  12.778   7.091 -0.1978 -0.0120 -0.1492
  200MOL0     C26909   8.620  12.766   7.202 -0.0801 -0.0301  0.3276
  200MOL0    Cl26910   8.643  12.614   7.283  0.2201  0.3594  0.3924
  200MOL0     C26911   7.622  12.631   7.000  0.8690  0.7811 -0.1041
  200MOL0     C26912   7.506  12.657   6.927 -0.7314  0.6116 -1.1345
  200MOL0     O26913   7.381  13.002   6.791 -0.2002 -0.5846 -0.5540
  200MOL0     C26914   7.098  12.809   6.697 -0.4912  0.7207 -0.2291
  200MOL0     C26915   6.984  12.812   6.631  0.8151 -0.6847  0.0362
  200MOL0     N26916   6.673  12.762   5.928  0.0439 -0.5005  0.0365
  200MOL0     N26917   6.719  12.656   5.869  0.0882 -0.3582 -0.5930
  200MOL0     C26918   6.264  11.392   5.610  0.0187  0.3392 -0.2271
  200MOL0     C26919   6.208  11.312   5.514  0.7190 -0.3332 -0.1183
  200MOL0     C26920   5.943  11.287   5.137  0.1983 -0.7296  0.2792
  200MOL0     C26921   5.805  11.328   5.140 -0.1745 -0.1943 -0.1854
  200MOL0     C26922   5.710  11.266   5.066  0.0355  0.6131  0.1991
  200MOL0     C26923   5.739  11.154   4.996  0.8542  0.0811  0.2850
  200MOL0     O26924   5.629  11.087   4.936 -0.9366 -0.3920 -0.2480
  200MOL0     C26925   5.601  10.961   4.975 -0.6757  1.3290  0.1874
  200MOL0     C26926   5.594  10.872   4.859  0.3671 -0.0157  0.7866
  200MOL0     C26927   5.590  10.724   4.905  1.2864  0.2145  0.2958
  200MOL0     C26928   5.579  10.640   4.772 -0.6004 -0.1535 -0.7496
  200MOL0     C26929   5.610  10.503   4.794 -0.5651  0.3340 -0.6650
  200MOL0     C26930   5.608  10.386   4.834 -0.2911 -0.9218  0.1258
  200MOL0     C26931   5.869  11.117   4.985 -0.2861 -0.2872 -0.1834
  200MOL0     C26932   5.971  11.179   5.057  0.3542 -0.1203 -0.6587
  200MOL0     H26933   5.942  11.520   5.469  0.9569 -2.0200 -1.3301
  200MOL0     H26934   6.044  11.650   5.641 -1.6285 -0.4704 -1.5703
  200MOL0     H26935   6.387  11.718   5.633 -1.5832  0.2525 -0.3190
  200MOL0     H26936   6.246  11.776   5.689  0.1335 -0.6907 -2.5697
  200MOL0     H26937   6.319  11.734   5.933 -0.5550 -1.9032 -1.4791
  200MOL0     H26938   6.485  11.728   5.872 -0.9624 -1.0668  2.5764
  200MOL0     H26939   6.290  11.965   5.878  0.3634  0.8980 -3.0716
  200MOL0     H26940   6.437  11.964   5.971  0.1939  1.7248 -0.8735
  200MOL0     H26941   6.574  11.954   5.758  1.6667  2.0814 -1.2069
  200MOL0     H26942   6.424  11.957   5.669  1.7550  0.1951 -0.0023
  200MOL0     H26943   6.444  12.176   5.674  3.7381 -0.9778 -0.8976
  200MOL0     H26944   6.374  12.176   5.843  1.3167  0.3418  3.1228
  200MOL0     H26945   6.590  12.172   5.942  0.2928  2.1293 -0.6864
  200MOL0     H26946   6.671  12.161   5.780  1.9269  1.4352 -0.6705
  200MOL0     H26947   6.611  12.393   5.746  1.9000  0.3390  1.2827
  200MOL0     H26948   6.501  12.415   5.888  0.2747 -0.0490 -0.8725
  200MOL0     H26949   6.801  12.391   5.896  0.2399  1.6481 -0.4236
  200MOL0     H26950   6.695  12.362   6.034  0.5350  3.5034  2.4070
  200MOL0     H26951   6.632  12.544   6.156  3.4124 -0.3424 -0.1448
  200MOL0     H26952   6.555  12.941   6.091 -0.4784  1.2474  1.2434
  200MOL0     H26953   6.508  12.820   6.216  2.3121 -1.4880  1.4882
  200MOL0     H26954   6.780  12.949   6.173  0.7265 -0.8215  1.7355
  200MOL0     H26955   6.745  12.824   6.292  3.0438  1.3202  0.3423
  200MOL0     H26956   6.586  12.972   6.393  1.4965  0.4778  1.4316
  200MOL0     H26957   6.633  13.113   6.296  0.4221  0.8388 -0.1897
  200MOL0     H26958   6.744  13.143   6.497  1.1752  1.0210 -0.1130
  200MOL0     H26959   6.871  13.083   6.394  1.9446 -2.5351  3.4104
  200MOL0     H26960   6.931  13.147   6.628  4.1778  1.8155 -0.9317
  200MOL0     H26961   7.178  13.194   6.862 -1.9992  1.3064 -0.8102
  200MOL0     H26962   7.276  13.202   6.717 -0.3892  1.1805 -0.4197
  200MOL0     H26963   7.111  13.270   6.726  0.2840  0.9430 -0.0154
  200MOL0     H26964   7.423  12.953   7.045  0.7220  0.1190 -2.1061
  200MOL0     H26965   7.639  12.915   7.173 -2.9347  0.9266  1.1799
  200MOL0     H26966   7.783  12.796   7.319  0.7877  2.6916  0.2019
  200MOL0     H26967   7.932  12.715   7.293 -0.4971 -0.4263 -0.4540
  200MOL0     H26968   7.892  12.899   7.072 -1.0467  1.6375  0.7458
  200MOL0     H26969   7.881  12.978   7.238  1.6405  0.0650  2.7034
  200MOL0     H26970   8.105  12.875   7.295  2.9233 -1.5158 -0.0851
  200MOL0     H26971   8.114  12.962   7.140 -1.5885  0.1193 -0.8161
  200MOL0     H26972   8.120  12.671   7.180  0.0985 -3.0310 -2.7815
  200MOL0     H26973   8.047  12.734   7.034 -0.2268 -2.2415  1.2406
  200MOL0     H26974   8.258  12.887   7.012 -0.7026  0.4250  0.3511
  200MOL0     H26975   8.268  12.717   6.971  0.4609  0.7455 -0.9974
  200MOL0     H26976   8.355  12.824   7.232 -2.0912  0.7845 -1.0270
  200MOL0     H26977   8.361  12.649   7.169  3.4777 -0.8822 -0.7202
  200MOL0     H26978   8.520  12.874   7.040 -2.4089 -1.0504 -2.8445
  200MOL0     H26979   8.534  12.703   7.016  2.4278  2.9672 -2.4961
  200MOL0     H26980   8.601  12.840   7.281  0.6424  1.2805 -0.7026
  200MOL0     H26981   8.716  12.788   7.156  0.5290 -0.0922  1.5335
  200MOL0     H26982   7.681  12.541   6.984  3.7882  2.9362 -2.5698
  200MOL0     H26983   7.481  12.585   6.849 -2.0996  0.6043 -0.7106
  200MOL0     H26984   7.123  12.704   6.698 -4.3422 -0.4107 -2.8867
  200MOL0     H26985   6.945  12.718   6.593  2.0354 -1.0398 -0.3804
  200MOL0     H26986   6.354  11.368   5.666  0.2389  3.2962  0.9038
  200MOL0     H26987   6.239  11.211   5.492  0.1806 -0.2035 -1.5092
  200MOL0     H26988   5.792  11.420   5.195  1.1667 -1.1629  1.8930
  200MOL0     H26989   5.612  11.310   5.056 -0.2845 -0.2996 -0.9467
  200MOL0     H26990   5.682  10.932   5.042  0.2957  2.8410 -0.2606
  200MOL0     H26991   5.501  10.961   5.019 -1.8233 -1.3160 -2.0994
  200MOL0     H26992   5.679  10.900   4.797 -1.4412  1.8303 -1.0344
  200MOL0     H26993   5.506  10.898   4.800  0.4288  3.5929  2.0097
  200MOL0     H26994   5.504  10.716   4.973  1.4470  1.3102  0.6379
  200MOL0     H26995   5.683  10.696   4.954  1.6308 -1.6009 -1.2690
  200MOL0     H26996   5.658  10.671   4.704 -0.2594  0.5906 -0.0243
  200MOL0     H26997   5.480  10.654   4.726 -0.8017 -0.7025 -0.4880
  200MOL0     H26998   5.567  10.293   4.870  0.5960 -0.0983  3.5787
  200MOL0     H26999   5.884  11.045   4.906  3.3447  1.4146 -1.2923
  200MOL0     H27000   6.072  11.146   5.034  0.3123 -0.6436 -0.1418
  201MOL0     O27001   1.190  11.399   8.558  0.6420  0.6120  0.6644
  201MOL0     C27002   1.164  11.417   8.678 -1.4252  0.0311  0.1163
  201MOL0     O27003   1.075  11.506   8.728 -0.5154 -0.0293 -0.4681
  201MOL0     C27004   1.011  11.603   8.653  0.1939 -1.4803 -0.3799
  201MOL0     C27005   1.053  11.658   8.526 -0.3152 -0.4072 -0.6637
  201MOL0     C27006   0.987  11.762   8.466  0.5525  0.1105 -0.5406
  201MOL0     C27007   0.870  11.817   8.523  0.3042  0.6328 -0.0221
  201MOL0     O27008   0.803  11.935   8.487 -0.4901 -0.5900 -0.3275
  201MOL0     C27009   0.859  12.025   8.388 -0.2707 -0.4970 -0.2756
  201MOL0     C27010   0.757  12.131   8.343 -0.5192 -0.3424  0.4420
  201MOL0     C27011   0.750  12.251   8.433  0.3118  0.2706 -0.1186
  201MOL0     C27012   0.641  12.340   8.387  0.5350 -0.4590 -0.9141
  201MOL0     C27013   0.660  12.398   8.252 -0.4826 -0.8813  0.6579
  201MOL0     C27014   0.801  12.464   8.243 -0.6838 -0.6150 -0.3651
  201MOL0     C27015   0.825  12.547   8.113 -0.0832 -0.2514 -0.3358
  201MOL0     C27016   0.785  12.698   8.122 -0.3619  0.0746 -0.2635
  201MOL0     N27017   0.643  12.715   8.148 -0.0082  0.6924  0.6950
  201MOL0     C27018   0.583  12.743   8.269 -0.5660  0.2548 -0.3396
  201MOL0     C27019   0.453  12.788   8.250  0.3536  1.7732  0.3248
  201MOL0     C27020   0.330  12.814   8.341 -0.4670 -0.3291 -0.8530
  201MOL0     C27021   0.389  12.921   8.447  0.0856 -0.2063 -0.9637
  201MOL0     C27022   0.316  12.957   8.574  0.9245  0.2635 -0.5707
  201MOL0     C27023   0.321  12.852   8.683 -0.3443  1.0549 -0.7039
  201MOL0     O27024   0.212  12.863   8.775 -0.1394 -0.1972  0.1191
  201MOL0     C27025   0.092  12.800   8.746  0.0778  0.4593  0.0255
  201MOL0     C27026  -0.004  12.778   8.848 -1.6052 -0.7785 -0.0119
  201MOL0     C27027  -0.130  12.741   8.825  0.4140 -0.1584 -0.4073
  201MOL0     C27028  -0.226  12.738   8.943  0.4492  0.6256 -0.5361
  201MOL0     C27029  -0.175  12.705   8.698 -0.7159  0.0049  0.4980
  201MOL0     C27030  -0.301  12.637   8.656  0.5020 -0.8933 -0.4579
  201MOL0     O27031  -0.389  12.592   8.753 -0.6851  0.6333 -0.7218
  201MOL0     C27032  -0.513  12.548   8.723 -0.5249  0.5855 -0.0201
  201MOL0     C27033  -0.600  12.616   8.629 -0.5768 -0.5371 -0.2211
  201MOL0     C27034  -0.720  12.557   8.606 -0.0424  0.8377 -0.1886
  201MOL0     C27035  -0.761  12.447   8.676  0.5834 -0.2309 -0.1019
  201MOL0     O27036  -0.881  12.403   8.640  0.0921  0.0262  0.3696
  201MOL0     C27037  -0.886  12.329   8.515  0.9526  0.4154  0.0869
  201MOL0     C27038  -1.024  12.262   8.506 -0.4476 -0.6830  0.0314
  201MOL0     C27039  -1.046  12.200   8.365  0.6056 -0.3382 -1.0772
  201MOL0     C27040  -1.143  12.081   8.384 -0.2270  0.6877  0.5559
  201MOL0     C27041  -1.124  12.007   8.254 -0.1285 -0.2978 -0.9398
  201MOL0     C27042  -1.199  11.882   8.246  0.0807 -0.0377 -0.6155
  201MOL0     C27043  -1.164  11.796   8.118  0.0614 -0.7024 -1.1135
  201MOL0     C27044  -1.299  11.733   8.075 -0.0611 -0.2393 -0.0254
  201MOL0    Cl27045  -1.271  11.648   7.924 -0.0355 -0.2889  0.3864
  201MOL0     C27046  -0.683  12.392   8.777  0.1689 -0.0204 -0.8646
  201MOL0     C27047  -0.559  12.444   8.795  0.6040  0.0383  0.5916
  201MOL0     O27048  -0.320  12.622   8.535 -0.3950  0.0510  0.2256
  201MOL0     C27049  -0.073  12.725   8.593  0.6110  0.5479  0.1118
  201MOL0     C27050   0.051  12.776   8.618  0.3912  0.2793  1.1680
  201MOL0     N27051   0.430  12.766   8.119  0.4913  0.0470 -0.1386
  201MOL0     N27052   0.546  12.732   8.055 -0.1984 -0.3599  0.9095
  201MOL0     C27053   0.825  11.763   8.644 -0.5184  0.7963  0.4755
  201MOL0     C27054   0.902  11.664   8.713 -0.0899 -0.4775  1.0595
  201MOL0     C27055   1.210  11.318   8.785 -0.4366  0.0703 -0.4647
  201MOL0     C27056   1.159  11.325   8.919  0.2546 -0.4026  0.6643
  201MOL0     C27057   1.176  11.226   9.018 -0.2356  0.1419 -1.1007
  201MOL0     C27058   1.259  11.114   8.989  0.0323  0.3185 -0.2709
  201MOL0     O27059   1.301  11.010   9.076 -0.2934 -0.1992 -0.0373
  201MOL0     C27060   1.294  11.028   9.214  0.3024  0.2584 -0.4187
  201MOL0     C27061   1.385  11.134   9.265 -0.2596  0.3730 -0.0787
  201MOL0     C27062   1.415  11.088   9.405  0.4001  0.7872 -0.1043
  201MOL0     C27063   1.546  11.000   9.393  0.9779 -0.2880 -0.3211
  201MOL0     C27064   1.570  10.948   9.524  0.4407  0.6755  0.3977
  201MOL0     C27065   1.600  10.911   9.636 -0.1271 -0.3497  0.3866
  201MOL0     C27066   1.322  11.108   8.863  0.2447  0.8203 -0.1984
  201MOL0     C27067   1.293  11.207   8.765  1.2345 -0.0621 -0.1454
  201MOL0     H27068   1.144  11.616   8.485 -1.1034 -2.0030 -0.8610
  201MOL0     H27069   1.012  11.806   8.370  0.0652  2.5108  0.3360
  201MOL0     H27070   0.948  12.065   8.439 -0.0848 -1.2548  0.0177
  201MOL0     H27071   0.877  11.966   8.298 -1.7107  1.8850 -2.2646
  201MOL0     H27072   0.776  12.164   8.241 -3.6077 -1.8453 -0.7388
  201MOL0     H27073   0.657  12.088   8.344  0.0402 -1.7906 -1.1520
  201MOL0     H27074   0.726  12.222   8.536 -1.7670  3.4787  0.4401
  201MOL0     H27075   0.850  12.296   8.434 -1.0724  4.1338 -4.0617
  201MOL0     H27076   0.550  12.282   8.401  1.9853 -2.2351  2.2185
  201MOL0     H27077   0.643  12.419   8.463  2.1904 -0.9248 -0.4207
  201MOL0     H27078   0.638  12.334   8.166 -0.4974 -1.1799  0.8794
  201MOL0     H27079   0.582  12.469   8.224  1.0268 -0.1321 -1.9875
  201MOL0     H27080   0.826  12.534   8.324 -0.8735  0.1527 -0.9630
  201MOL0     H27081   0.884  12.392   8.236  0.4434  0.5350  0.5687
  201MOL0     H27082   0.933  12.555   8.093  0.4571 -2.1614  1.4470
  201MOL0     H27083   0.774  12.500   8.029 -2.7409  0.9916  0.4898
  201MOL0     H27084   0.807  12.736   8.022  0.2503  0.2884 -0.0518
  201MOL0     H27085   0.839  12.748   8.203 -1.7498 -1.6490  1.8597
  201MOL0     H27086   0.633  12.736   8.365  1.1068  3.9203 -0.7812
  201MOL0     H27087   0.240  12.848   8.290 -1.0657 -1.0667 -0.3082
  201MOL0     H27088   0.319  12.715   8.386 -1.0204 -0.6550 -1.6929
  201MOL0     H27089   0.405  13.011   8.387  2.2604 -0.2795 -0.5954
  201MOL0     H27090   0.490  12.899   8.484 -1.1759  1.8134  4.7275
  201MOL0     H27091   0.216  12.992   8.546 -0.0598 -0.7859  1.3955
  201MOL0     H27092   0.363  13.042   8.624 -0.9080  0.6438  0.6151
  201MOL0     H27093   0.420  12.849   8.730 -0.8283 -0.1924  0.3202
  201MOL0     H27094   0.328  12.753   8.638 -1.4971  0.7809 -0.2948
  201MOL0     H27095   0.038  12.817   8.940  1.9847  0.8196 -2.0993
  201MOL0     H27096  -0.331  12.745   8.914 -0.1815  0.1968  1.4792
  201MOL0     H27097  -0.214  12.662   9.021  0.4228 -0.0981 -1.2235
  201MOL0     H27098  -0.213  12.829   9.003 -0.7302  0.0275  0.6807
  201MOL0     H27099  -0.554  12.693   8.568 -1.9642  1.2851  0.9349
  201MOL0     H27100  -0.780  12.591   8.522 -0.9939 -0.9641 -0.2987
  201MOL0     H27101  -0.889  12.392   8.425 -2.1837  0.3162  0.0255
  201MOL0     H27102  -0.812  12.252   8.492  0.0842 -0.5404  0.4259
  201MOL0     H27103  -1.035  12.187   8.586 -0.7751 -2.2730 -1.4436
  201MOL0     H27104  -1.096  12.341   8.527 -0.1014 -0.8427  2.0514
  201MOL0     H27105  -0.948  12.164   8.331  1.4777 -0.7207  1.5833
  201MOL0     H27106  -1.089  12.271   8.294 -2.5107  0.7288  1.6658
  201MOL0     H27107  -1.119  12.016   8.468  1.4567  0.3006 -0.1913
  201MOL0     H27108  -1.247  12.115   8.396 -0.3422  0.8365 -0.6876
  201MOL0     H27109  -1.015  12.002   8.252  0.2773  3.9492  0.4554
  201MOL0     H27110  -1.146  12.072   8.168  0.9132 -0.4365 -1.3253
  201MOL0     H27111  -1.192  11.822   8.337  2.0664  0.6987 -0.2337
  201MOL0     H27112  -1.303  11.914   8.234  0.0485 -0.0213 -0.3046
  201MOL0     H27113  -1.088  11.718   8.125  0.4576 -0.1889  0.5998
  201MOL0     H27114  -1.123  11.872   8.050 -0.5533  2.0841  1.4528
  201MOL0     H27115  -1.375  11.806   8.043  0.4116 -0.6060 -2.1242
  201MOL0     H27116  -1.339  11.678   8.161  1.0548 -0.2219  0.5263
  201MOL0     H27117  -0.710  12.307   8.837  1.6224 -1.9791 -2.8164
  201MOL0     H27118  -0.484  12.400   8.859  0.5823 -4.9582 -2.2647
  201MOL0     H27119  -0.086  12.696   8.490 -3.2067 -0.7885  0.7998
  201MOL0     H27120   0.124  12.772   8.537 -1.0178  0.7137 -0.1686
  201MOL0     H27121   0.746  11.808   8.704 -1.8341  0.8941 -1.2477
  201MOL0     H27122   0.880  11.633   8.815  2.7199  0.3475  2.0069
  201MOL0     H27123   1.104  11.415   8.946  1.4769 -0.5444  4.0598
  201MOL0     H27124   1.131  11.231   9.117  1.0307 -1.7769 -0.3617
  201MOL0     H27125   1.193  11.035   9.255  0.4906 -1.4095  0.4159
  201MOL0     H27126   1.338  10.939   9.260  2.2254  1.3056 -0.1374
  201MOL0     H27127   1.324  11.224   9.270 -3.2790 -1.5280  0.1435
  201MOL0     H27128   1.480  11.151   9.214 -0.0630  0.5219  0.3344
  201MOL0     H27129   1.326  11.042   9.451 -0.9629  3.1851 -0.1972
  201MOL0     H27130   1.431  11.182   9.459 -1.4463  2.1771 -1.8155
  201MOL0     H27131   1.625  11.067   9.358  1.2738 -0.3196  0.2639
  201MOL0     H27132   1.541  10.926   9.313  0.6996 -0.4081 -0.1958
  201MOL0     H27133   1.620  10.900   9.740  0.6108 -1.4192  0.1554
  201MOL0     H27134   1.387  11.024   8.842 -2.2150 -1.1529 -0.3056
  201MOL0     H27135   1.319  11.195   8.660  0.4377  0.1831 -0.3768
  202MOL0     O27136   2.469   9.125   1.123 -0.1381 -0.2630 -0.0248
  202MOL0     C27137   2.550   9.203   1.073 -0.4339 -1.1654  0.1215
  202MOL0     O27138   2.530   9.268   0.952 -0.2478  0.3639 -0.8531
  202MOL0     C27139   2.406   9.249   0.899  0.5497 -0.8649 -0.8224
  202MOL0     C27140   2.394   9.184   0.780 -0.2415  0.5458  0.6836
  202MOL0     C27141   2.275   9.163   0.715  0.3118  0.7158  0.2448
  202MOL0     C27142   2.152   9.221   0.767 -0.3255  0.2174  1.0432
  202MOL0     O27143   2.026   9.189   0.724 -0.2759 -0.2321  0.1905
  202MOL0     C27144   2.000   9.093   0.627  0.6065 -0.4516  0.1226
  202MOL0     C27145   1.906   8.993   0.693 -0.7500 -0.3020 -0.1875
  202MOL0     C27146   1.859   8.880   0.607  0.6227 -0.0666 -0.2274
  202MOL0     C27147   1.763   8.769   0.671  0.4861 -1.2087  0.5631
  202MOL0     C27148   1.614   8.809   0.702 -0.3377  0.1502 -0.5624
  202MOL0     C27149   1.543   8.860   0.578  0.4185  0.3458 -0.2053
  202MOL0     C27150   1.395   8.882   0.589 -0.6132 -0.9767 -1.2143
  202MOL0     C27151   1.352   9.014   0.663 -0.8184 -0.7450  0.2117
  202MOL0     N27152   1.205   9.035   0.662  0.6194 -0.1937  0.2290
  202MOL0     C27153   1.140   9.149   0.651  0.2701 -0.2551  0.3723
  202MOL0     C27154   1.010   9.131   0.635 -0.2441  0.8351 -0.3826
  202MOL0     C27155   0.891   9.221   0.636 -0.4491 -0.0926  0.5639
  202MOL0     C27156   0.789   9.192   0.530 -0.0628 -0.1058 -0.1116
  202MOL0     C27157   0.679   9.304   0.520 -0.3179 -0.2259  0.2032
  202MOL0     C27158   0.592   9.265   0.393 -0.5413  0.2415 -0.7461
  202MOL0     O27159   0.656   9.322   0.279 -0.2640 -0.1757  0.2265
  202MOL0     C27160   0.593   9.333   0.155 -0.0496 -0.4019  0.0631
  202MOL0     C27161   0.495   9.245   0.108 -0.4146  0.0411  0.2121
  202MOL0     C27162   0.429   9.268  -0.014  0.6552  0.7007 -0.7522
  202MOL0     C27163   0.309   9.169  -0.028 -0.6572 -0.1021  0.6711
  202MOL0     C27164   0.469   9.369  -0.106 -0.9498  0.4196 -0.0044
  202MOL0     C27165   0.415   9.394  -0.248 -0.4380  0.6998 -0.9321
  202MOL0     O27166   0.447   9.512  -0.303 -0.0182  0.6372 -0.1999
  202MOL0     C27167   0.420   9.508  -0.440 -0.5010 -0.1786 -0.3587
  202MOL0     C27168   0.529   9.514  -0.529  0.3723  0.2428 -0.5488
  202MOL0     C27169   0.518   9.504  -0.668 -0.8735 -0.0984  0.3504
  202MOL0     C27170   0.386   9.499  -0.719  0.2265 -0.4002 -0.7510
  202MOL0     O27171   0.360   9.517  -0.853 -0.5534 -0.4297 -0.3134
  202MOL0     C27172   0.436   9.404  -0.912 -0.0352 -0.0161 -0.7704
  202MOL0     C27173   0.422   9.401  -1.060 -0.6194 -0.0802 -1.0903
  202MOL0     C27174   0.287   9.364  -1.110 -0.3945  0.7346  0.1755
  202MOL0     C27175   0.294   9.344  -1.259 -0.8089  0.6445 -0.0384
  202MOL0     C27176   0.155   9.298  -1.319  0.5529 -0.8838 -0.4686
  202MOL0     C27177   0.151   9.266  -1.465 -1.0049  0.7560  0.6159
  202MOL0     C27178   0.020   9.250  -1.518 -0.0423 -0.0564 -0.0458
  202MOL0     C27179   0.020   9.182  -1.659  0.1018  0.1114 -0.0171
  202MOL0    Cl27180   0.108   9.276  -1.778  0.0116 -0.3388  0.0223
  202MOL0     C27181   0.273   9.494  -0.626 -0.2750 -0.3186  0.2160
  202MOL0     C27182   0.296   9.496  -0.491  0.2150 -0.6681 -0.2108
  202MOL0     O27183   0.379   9.293  -0.305  0.2239  0.2879  0.0582
  202MOL0     C27184   0.582   9.441  -0.067 -0.5286 -0.9127 -0.6027
  202MOL0     C27185   0.645   9.434   0.063 -0.1127 -0.7228 -0.4671
  202MOL0     N27186   0.999   8.991   0.629 -0.0382 -0.1940  0.7996
  202MOL0     N27187   1.111   8.934   0.640 -0.8364  0.4394 -0.5047
  202MOL0     C27188   2.163   9.276   0.892 -0.3736 -1.1381 -0.0488
  202MOL0     C27189   2.284   9.293   0.953 -0.2880 -1.0505  0.0830
  202MOL0     C27190   2.682   9.237   1.153  0.5858 -0.2763  0.5714
  202MOL0     C27191   2.688   9.208   1.287  0.5453 -0.0248 -0.3762
  202MOL0     C27192   2.791   9.257   1.361  0.0534  0.9987 -0.7176
  202MOL0     C27193   2.901   9.324   1.308  0.6810 -0.1058 -0.3906
  202MOL0     O27194   3.006   9.369   1.391 -0.1228  0.2674 -0.1495
  202MOL0     C27195   3.112   9.448   1.333  0.1835 -0.3269 -1.6316
  202MOL0     C27196   3.200   9.505   1.447  0.1189 -0.0769 -0.4472
  202MOL0     C27197   3.264   9.383   1.529 -0.3865 -1.1392  0.5861
  202MOL0     C27198   3.392   9.431   1.616  0.3652 -0.3955 -0.0010
  202MOL0     C27199   3.505   9.452   1.526  0.5655 -0.3871 -0.8253
  202MOL0     C27200   3.599   9.474   1.454  0.2491  0.3648 -0.2480
  202MOL0     C27201   2.895   9.345   1.171  0.4501 -0.3426 -0.6863
  202MOL0     C27202   2.794   9.296   1.097  1.0540  0.7299  0.8110
  202MOL0     H27203   2.479   9.137   0.730 -0.8773 -1.4655  1.4202
  202MOL0     H27204   2.265   9.099   0.627 -1.8385  1.9387 -0.4773
  202MOL0     H27205   1.950   9.136   0.540  4.2148 -0.2185 -2.0561
  202MOL0     H27206   2.084   9.040   0.581  1.5727  2.7500 -2.2443
  202MOL0     H27207   1.955   8.954   0.782 -0.6404  2.4788  1.0590
  202MOL0     H27208   1.817   9.054   0.714 -0.0392  0.4163  0.8218
  202MOL0     H27209   1.809   8.931   0.524 -1.3647 -1.0093  0.3475
  202MOL0     H27210   1.951   8.836   0.566 -0.9156 -0.5150 -3.5430
  202MOL0     H27211   1.752   8.691   0.595  1.9984  0.8230 -1.9055
  202MOL0     H27212   1.813   8.726   0.758  0.7650 -4.5996 -1.1347
  202MOL0     H27213   1.565   8.721   0.745  0.3217 -1.1248 -2.2707
  202MOL0     H27214   1.626   8.892   0.771  4.8465  1.6480 -2.8258
  202MOL0     H27215   1.587   8.954   0.544  2.6036 -0.1056  1.2270
  202MOL0     H27216   1.554   8.787   0.497 -0.5859  1.1195 -1.0751
  202MOL0     H27217   1.346   8.882   0.491  0.5100 -0.4748 -1.7986
  202MOL0     H27218   1.360   8.804   0.658 -1.1280  1.1005  1.0284
  202MOL0     H27219   1.402   9.103   0.622 -0.8666  0.3624  2.3968
  202MOL0     H27220   1.383   9.010   0.768  2.0270 -0.3307 -0.5092
  202MOL0     H27221   1.193   9.243   0.662  0.9218 -0.7698  1.8159
  202MOL0     H27222   0.850   9.224   0.738  0.8521 -0.2107  1.1176
  202MOL0     H27223   0.919   9.327   0.629  0.5879 -0.4617 -1.7717
  202MOL0     H27224   0.752   9.092   0.553  2.2278 -1.9076 -3.3178
  202MOL0     H27225   0.839   9.193   0.432  0.2547  1.8663  0.0137
  202MOL0     H27226   0.717   9.405   0.504 -2.5885  0.5125 -0.9707
  202MOL0     H27227   0.615   9.298   0.609  2.7413 -1.9469  2.4683
  202MOL0     H27228   0.489   9.299   0.408 -1.6173 -0.5474 -5.0240
  202MOL0     H27229   0.571   9.158   0.386 -4.7233  0.8619 -0.7754
  202MOL0     H27230   0.464   9.175   0.185  0.3544  0.9189  1.3620
  202MOL0     H27231   0.354   9.073  -0.055 -2.2366 -0.1800 -2.0041
  202MOL0     H27232   0.261   9.164   0.070  3.9344  0.3128  3.2334
  202MOL0     H27233   0.237   9.198  -0.105 -0.5491 -0.2994  0.4931
  202MOL0     H27234   0.631   9.506  -0.493 -0.7474  1.0261  3.1656
  202MOL0     H27235   0.605   9.514  -0.733  0.6813  0.1564  2.3866
  202MOL0     H27236   0.545   9.414  -0.915  0.0476 -0.9244 -2.8390
  202MOL0     H27237   0.396   9.308  -0.878 -2.7064  1.2076 -0.1611
  202MOL0     H27238   0.439   9.504  -1.092 -0.6684  0.4460  0.4950
  202MOL0     H27239   0.505   9.342  -1.101 -0.2374  0.4457 -1.0743
  202MOL0     H27240   0.206   9.431  -1.080 -1.0895 -0.4521  1.0791
  202MOL0     H27241   0.269   9.265  -1.066  0.3791  2.0030  3.6912
  202MOL0     H27242   0.335   9.437  -1.298  1.4112  0.5857  1.9455
  202MOL0     H27243   0.367   9.268  -1.289 -1.1836  0.9484 -1.8899
  202MOL0     H27244   0.080   9.378  -1.311 -0.4510 -1.9936  2.0752
  202MOL0     H27245   0.125   9.207  -1.268 -2.3508  0.6891  0.8293
  202MOL0     H27246   0.198   9.343  -1.527 -0.1593 -2.0281 -2.4776
  202MOL0     H27247   0.215   9.179  -1.482  0.0276  1.8969 -1.8627
  202MOL0     H27248  -0.033   9.346  -1.526  2.6029  1.5134  0.0152
  202MOL0     H27249  -0.038   9.175  -1.463  0.5081  0.8705  1.8853
  202MOL0     H27250  -0.087   9.181  -1.683  0.2858  2.1865 -1.1678
  202MOL0     H27251   0.064   9.082  -1.657  1.5589  0.7296  1.8767
  202MOL0     H27252   0.171   9.489  -0.665 -0.8467  1.1775  1.4164
  202MOL0     H27253   0.210   9.486  -0.426  1.0682 -1.0510  0.8955
  202MOL0     H27254   0.624   9.517  -0.131  2.1280 -1.1859  0.6657
  202MOL0     H27255   0.717   9.509   0.095 -0.0684 -1.2572  0.7200
  202MOL0     H27256   2.072   9.314   0.937  1.4439  2.1867  1.1819
  202MOL0     H27257   2.285   9.352   1.045 -1.5701  0.0669 -0.5681
  202MOL0     H27258   2.613   9.144   1.332 -0.1517  0.4789 -0.7774
  202MOL0     H27259   2.804   9.235   1.466  1.9460 -0.1720 -1.1315
  202MOL0     H27260   3.164   9.388   1.258  0.0520  0.6799 -2.5638
  202MOL0     H27261   3.072   9.538   1.284 -0.5432 -0.7337 -1.7903
  202MOL0     H27262   3.144   9.569   1.516  0.3366 -1.2512  0.8671
  202MOL0     H27263   3.281   9.566   1.406  2.0871 -1.3842  1.3093
  202MOL0     H27264   3.308   9.309   1.462  0.1914  1.7626 -2.5019
  202MOL0     H27265   3.185   9.344   1.594 -0.4064 -1.5712  0.3069
  202MOL0     H27266   3.420   9.347   1.680 -0.5254 -1.3475 -0.8311
  202MOL0     H27267   3.371   9.519   1.678  2.7085  0.3306 -0.1583
  202MOL0     H27268   3.686   9.492   1.394  1.0531 -1.1351  0.4047
  202MOL0     H27269   2.977   9.400   1.127  3.4084 -1.2136  3.2095
  202MOL0     H27270   2.785   9.323   0.992  1.0402 -2.2642 -0.0586
  203MOL0     O27271   7.781   7.796   8.834  0.7600 -0.4363  0.6653
  203MOL0     C27272   7.757   7.704   8.755 -0.1880 -0.0133  0.4183
  203MOL0     O27273   7.681   7.585   8.770 -0.0158  0.6530  0.2634
  203MOL0     C27274   7.648   7.543   8.900  0.4121  0.2254  0.3527
  203MOL0     C27275   7.513   7.532   8.937  0.0109 -0.1839  0.5122
  203MOL0     C27276   7.464   7.497   9.065 -0.6084  0.1934 -0.0713
  203MOL0     C27277   7.565   7.474   9.161 -0.6737 -0.7163 -0.2499
  203MOL0     O27278   7.543   7.434   9.296  0.0227  0.9096 -0.0092
  203MOL0     C27279   7.414   7.429   9.355  0.3144 -0.9801  0.2340
  203MOL0     C27280   7.370   7.572   9.388  0.1924 -0.1061 -0.3574
  203MOL0     C27281   7.476   7.647   9.494  0.4945 -0.0558  1.1452
  203MOL0     C27282   7.613   7.667   9.441  0.0104  0.2752  0.0901
  203MOL0     C27283   7.685   7.775   9.526  0.1506  0.5170  0.9824
  203MOL0     C27284   7.717   7.731   9.673  0.5799 -0.3758  0.3779
  203MOL0     C27285   7.667   7.827   9.784  0.2281 -0.3774 -0.4482
  203MOL0     C27286   7.693   7.769   9.923 -0.5280 -0.2681  0.4756
  203MOL0     N27287   7.696   7.874  10.030 -0.1932 -0.0624  0.4339
  203MOL0     C27288   7.792   7.968  10.063 -1.0364 -0.4826  0.4274
  203MOL0     C27289   7.745   8.046  10.165  0.3156  0.5082  1.0124
  203MOL0     C27290   7.819   8.151  10.238  0.0945 -0.1765 -0.5020
  203MOL0     C27291   7.715   8.242  10.303 -0.1064  0.3097 -0.2618
  203MOL0     C27292   7.789   8.361  10.374  0.1617  0.5904 -0.1168
  203MOL0     C27293   7.874   8.327  10.503  1.1535 -0.7245 -0.2016
  203MOL0     O27294   7.775   8.280  10.602 -0.3429 -0.0137 -0.8712
  203MOL0     C27295   7.816   8.293  10.726 -0.2239 -0.7154 -0.4894
  203MOL0     C27296   7.716   8.287  10.830  0.5569  1.0391  0.2979
  203MOL0     C27297   7.750   8.292  10.965  0.9323  0.5759 -0.5869
  203MOL0     C27298   7.635   8.292  11.066  0.1158  0.0895 -0.1927
  203MOL0     C27299   7.887   8.292  11.004 -0.0744  0.8941 -0.1495
  203MOL0     C27300   7.929   8.295  11.143 -0.1594  0.6819 -0.3596
  203MOL0     O27301   7.878   8.395  11.227 -0.6316  0.7852  0.7353
  203MOL0     C27302   7.915   8.381  11.358  0.2640  0.4341 -0.7980
  203MOL0     C27303   8.042   8.435  11.410  0.6238  0.3728 -0.4910
  203MOL0     C27304   8.084   8.409  11.536 -0.0904 -1.5163  0.6128
  203MOL0     C27305   8.004   8.336  11.618  0.6973  0.2012 -0.9786
  203MOL0     O27306   8.045   8.333  11.750  0.3393 -0.1296 -0.4809
  203MOL0     C27307   7.982   8.249  11.839  0.4585  0.1404  0.2537
  203MOL0     C27308   8.079   8.222  11.948 -0.6483  0.1767  0.1003
  203MOL0     C27309   8.059   8.296  12.068 -0.1400 -0.2262 -0.0421
  203MOL0     C27310   7.937   8.260  12.144  0.3292 -0.1847  0.5260
  203MOL0     C27311   7.944   8.334  12.270  0.4836  0.1125 -0.6843
  203MOL0     C27312   7.814   8.303  12.350 -0.7829 -0.4134 -0.5869
  203MOL0     C27313   7.704   8.406  12.331 -0.4395 -0.3840  0.0950
  203MOL0     C27314   7.561   8.370  12.377  0.4236 -0.0854  0.4669
  203MOL0    Cl27315   7.468   8.267  12.259  0.0150  0.5548  0.2860
  203MOL0     C27316   7.881   8.289  11.573 -1.3920  0.7537 -0.1635
  203MOL0     C27317   7.832   8.309  11.444 -0.3312 -0.3785  0.5815
  203MOL0     O27318   8.006   8.206  11.172  0.4334 -0.2806  0.1898
  203MOL0     C27319   7.990   8.305  10.903  0.2982 -0.4575 -0.5652
  203MOL0     C27320   7.951   8.294  10.767  0.1169  0.2104 -0.0792
  203MOL0     N27321   7.625   7.982  10.203 -1.1077  0.0894  0.0942
  203MOL0     N27322   7.602   7.876  10.129 -0.1294  0.6964  0.5845
  203MOL0     C27323   7.698   7.497   9.128 -0.2938 -0.1328 -0.3486
  203MOL0     C27324   7.743   7.519   8.997  1.0308  0.3095 -0.5439
  203MOL0     C27325   7.844   7.715   8.628  0.3811  1.0236  0.6328
  203MOL0     C27326   7.927   7.824   8.598  0.2467 -0.6551  0.4506
  203MOL0     C27327   8.005   7.820   8.478 -0.0295  0.2769 -0.2206
  203MOL0     C27328   8.008   7.712   8.387 -0.4754 -0.9769 -0.8807
  203MOL0     O27329   8.090   7.692   8.284 -0.4848  0.5254 -0.5248
  203MOL0     C27330   8.185   7.790   8.238 -0.8202  0.3857  0.1015
  203MOL0     C27331   8.306   7.710   8.174 -0.4104 -0.2644 -0.1591
  203MOL0     C27332   8.402   7.799   8.093 -0.4473 -0.6703  0.2653
  203MOL0     C27333   8.497   7.881   8.182  0.3750 -0.9843 -0.4198
  203MOL0     C27334   8.614   7.802   8.235  0.3101  0.6567  0.5256
  203MOL0     C27335   8.718   7.747   8.266 -0.3937 -0.3783 -0.7118
  203MOL0     C27336   7.936   7.597   8.434 -0.1408  0.0747 -1.1287
  203MOL0     C27337   7.851   7.601   8.543 -0.5043 -0.1400 -0.9514
  203MOL0     H27338   7.441   7.564   8.862 -0.5569 -1.3325  0.5438
  203MOL0     H27339   7.361   7.475   9.091 -0.0779 -0.4748  1.5323
  203MOL0     H27340   7.344   7.394   9.278  0.8512  0.1604 -0.8088
  203MOL0     H27341   7.423   7.363   9.442  2.3049  0.6164  1.3461
  203MOL0     H27342   7.354   7.618   9.290 -3.3800  1.3555  0.7344
  203MOL0     H27343   7.273   7.575   9.440 -0.6655  2.3638 -1.9396
  203MOL0     H27344   7.426   7.742   9.515  1.7104  1.5648 -2.4911
  203MOL0     H27345   7.477   7.588   9.586  0.8664 -0.4098  0.9150
  203MOL0     H27346   7.664   7.570   9.447  0.6987  0.6694  0.7920
  203MOL0     H27347   7.616   7.705   9.339  1.8360  2.3818  0.8426
  203MOL0     H27348   7.785   7.793   9.485 -1.3635  2.1606 -2.3481
  203MOL0     H27349   7.643   7.875   9.539  1.9450  1.2040  1.9554
  203MOL0     H27350   7.690   7.627   9.691 -0.2800 -0.3253 -0.5423
  203MOL0     H27351   7.826   7.723   9.672  0.4497 -4.0417 -1.5612
  203MOL0     H27352   7.727   7.917   9.768 -0.2594 -0.4856 -3.4331
  203MOL0     H27353   7.559   7.835   9.770  0.2423 -1.3046 -1.1684
  203MOL0     H27354   7.793   7.725   9.921 -0.6477 -0.5986  1.2437
  203MOL0     H27355   7.617   7.693   9.943  0.2405 -1.0563  0.4527
  203MOL0     H27356   7.890   7.974  10.016 -1.0796  2.5643  0.5641
  203MOL0     H27357   7.883   8.105  10.315 -1.2120 -0.7065  0.2922
  203MOL0     H27358   7.873   8.207  10.161  1.7883 -1.3808 -0.2531
  203MOL0     H27359   7.653   8.190  10.376  0.4141 -0.5502 -0.4238
  203MOL0     H27360   7.636   8.281  10.237 -0.8661  3.7847  2.4002
  203MOL0     H27361   7.706   8.430  10.396 -2.4871 -2.8266  1.6882
  203MOL0     H27362   7.858   8.410  10.306  0.5658 -3.0035 -2.5395
  203MOL0     H27363   7.916   8.425  10.527  1.0761 -0.7608  0.0821
  203MOL0     H27364   7.953   8.256  10.477  2.1534 -0.0342  0.8493
  203MOL0     H27365   7.611   8.293  10.803  0.2412  2.2943  1.6431
  203MOL0     H27366   7.616   8.390  11.111  0.4545  0.0721 -0.0123
  203MOL0     H27367   7.539   8.270  11.019 -2.1346  1.7709  3.2037
  203MOL0     H27368   7.644   8.217  11.145  0.9790 -0.0923 -0.4508
  203MOL0     H27369   8.096   8.507  11.350  4.7008 -1.6072  0.4093
  203MOL0     H27370   8.187   8.440  11.554  0.3378 -1.3059 -1.8484
  203MOL0     H27371   7.894   8.305  11.871 -0.3119 -1.5682  1.2546
  203MOL0     H27372   7.947   8.156  11.792 -2.3128  0.3524  1.7177
  203MOL0     H27373   8.075   8.113  11.964 -0.9242  0.1865  0.1126
  203MOL0     H27374   8.182   8.236  11.913 -0.5471  0.9408  0.6902
  203MOL0     H27375   8.053   8.399  12.033 -4.5989 -0.5162 -0.6416
  203MOL0     H27376   8.143   8.275  12.135  0.1092 -0.4019 -0.4092
  203MOL0     H27377   7.846   8.297  12.096 -0.1662 -0.8190  0.9609
  203MOL0     H27378   7.921   8.154  12.167 -3.9212  0.3100  0.7498
  203MOL0     H27379   7.958   8.442  12.256  3.7559 -0.2782 -1.1658
  203MOL0     H27380   8.028   8.300  12.330  1.4879  3.1388 -0.1761
  203MOL0     H27381   7.778   8.203  12.322  1.7597 -1.0241 -2.0194
  203MOL0     H27382   7.842   8.308  12.456 -1.9997 -0.2743 -0.2630
  203MOL0     H27383   7.696   8.435  12.226  2.3817  0.1356 -0.0566
  203MOL0     H27384   7.744   8.494  12.383  0.4699  0.1609 -1.4317
  203MOL0     H27385   7.507   8.463  12.397  1.1917  0.1220  1.6287
  203MOL0     H27386   7.569   8.321  12.475 -0.8051  1.1632  1.2263
  203MOL0     H27387   7.817   8.237  11.644  0.3663 -0.2147  0.7579
  203MOL0     H27388   7.735   8.277  11.406 -1.2869  0.3691  2.2776
  203MOL0     H27389   8.094   8.297  10.931 -0.1421 -0.8069  1.0624
  203MOL0     H27390   8.029   8.283  10.692  1.4041  0.9954  1.0899
  203MOL0     H27391   7.783   7.488   9.196  1.1121 -2.9911 -2.2540
  203MOL0     H27392   7.849   7.531   8.978  0.5150  2.3182 -2.5139
  203MOL0     H27393   7.933   7.907   8.668  2.3223 -0.9492  0.6924
  203MOL0     H27394   8.075   7.900   8.458  0.4920 -0.7043 -2.6734
  203MOL0     H27395   8.140   7.850   8.158  0.6132  2.2004  0.5863
  203MOL0     H27396   8.220   7.867   8.307  0.4633  0.9280 -1.0841
  203MOL0     H27397   8.269   7.624   8.117  0.4339 -0.9513  0.2994
  203MOL0     H27398   8.357   7.671   8.263 -0.1615 -1.2225 -0.7125
  203MOL0     H27399   8.355   7.870   8.024  4.2107  1.3376 -1.2739
  203MOL0     H27400   8.458   7.729   8.031 -1.7212 -1.6728  0.2117
  203MOL0     H27401   8.447   7.923   8.269  2.0097  0.8356 -0.2990
  203MOL0     H27402   8.526   7.963   8.116 -3.2694  1.9242  1.1916
  203MOL0     H27403   8.816   7.727   8.305 -0.0417  1.6257 -0.4770
  203MOL0     H27404   7.930   7.515   8.362  3.5160 -0.3261 -1.1462
  203MOL0     H27405   7.778   7.521   8.536  0.1082 -0.6678 -1.5380
  204MOL0     O27406   6.460   8.260   9.670  0.0927 -0.4579 -0.7700
  204MOL0     C27407   6.514   8.369   9.691  0.1849 -0.0818  0.0796
  204MOL0     O27408   6.640   8.402   9.633  0.0235 -0.8553  0.5347
  204MOL0     C27409   6.676   8.340   9.515  0.1190 -1.1525 -0.6723
  204MOL0     C27410   6.798   8.280   9.488  0.2534  0.2877 -0.5317
  204MOL0     C27411   6.844   8.230   9.357 -1.0477  0.1630 -0.0455
  204MOL0     C27412   6.766   8.256   9.252  0.7374 -0.2898 -0.2696
  204MOL0     O27413   6.800   8.199   9.133 -0.1771  0.3142  0.6977
  204MOL0     C27414   6.706   8.177   9.023 -0.1319  0.6686  0.6558
  204MOL0     C27415   6.777   8.096   8.911  0.1647  0.7771 -0.4448
  204MOL0     C27416   6.798   7.938   8.934  0.3136 -0.0824  0.1887
  204MOL0     C27417   6.705   7.865   9.031  0.0138 -0.2478 -0.7058
  204MOL0     C27418   6.709   7.712   9.021 -0.2040 -0.3235  0.4010
  204MOL0     C27419   6.673   7.642   8.887  0.0338 -0.1574  0.5526
  204MOL0     C27420   6.626   7.495   8.907 -0.1922  0.0484 -0.0577
  204MOL0     C27421   6.747   7.396   8.918 -0.4502 -0.1318 -0.1129
  204MOL0     N27422   6.707   7.256   8.938 -0.7615  0.0244  0.0817
  204MOL0     C27423   6.647   7.208   9.050  0.3685 -0.3164 -0.3340
  204MOL0     C27424   6.604   7.087   9.014  0.7537  0.0820 -1.0422
  204MOL0     C27425   6.523   6.996   9.101  0.0087  0.5414 -0.3937
  204MOL0     C27426   6.395   6.947   9.026 -0.1612 -0.2592  0.0099
  204MOL0     C27427   6.296   7.056   8.992  0.3451 -0.1988 -0.4388
  204MOL0     C27428   6.165   6.998   8.938 -0.7293 -0.3496 -1.2775
  204MOL0     O27429   6.163   6.954   8.800  0.0314 -0.6215 -0.0683
  204MOL0     C27430   6.035   6.936   8.754 -0.4991  0.3117  0.5869
  204MOL0     C27431   6.004   6.969   8.619 -0.1781 -0.5396 -0.1463
  204MOL0     C27432   5.878   6.950   8.564  0.3363  0.0551 -0.3131
  204MOL0     C27433   5.851   6.982   8.419 -0.1221  0.5767  0.9590
  204MOL0     C27434   5.761   6.894   8.643 -0.3563 -0.0504  0.2710
  204MOL0     C27435   5.627   6.858   8.599  0.1457  0.1293  0.2401
  204MOL0     O27436   5.559   6.779   8.692  0.3280 -0.7632  0.5719
  204MOL0     C27437   5.440   6.711   8.648  0.5440  0.3539 -1.3087
  204MOL0     C27438   5.452   6.577   8.609  0.7503 -0.5923 -0.2761
  204MOL0     C27439   5.333   6.506   8.592 -0.3513  0.2372 -0.3280
  204MOL0     C27440   5.204   6.560   8.598 -0.3707  0.4570 -0.2567
  204MOL0     O27441   5.083   6.497   8.575 -0.8767  0.4522  0.3081
  204MOL0     C27442   5.078   6.359   8.532  0.0756  1.6860  0.2132
  204MOL0     C27443   4.933   6.322   8.507 -0.1114 -0.2027 -0.3004
  204MOL0     C27444   4.837   6.418   8.432  0.4098 -1.4872  0.5000
  204MOL0     C27445   4.885   6.437   8.286 -0.5177 -0.2337 -0.2493
  204MOL0     C27446   4.800   6.520   8.197  0.1828 -0.3986 -0.4939
  204MOL0     C27447   4.666   6.446   8.171 -0.4938 -0.2787  0.2998
  204MOL0     C27448   4.582   6.515   8.069  1.0554 -0.6895  0.4478
  204MOL0     C27449   4.430   6.496   8.101 -0.4348 -0.9954  0.0712
  204MOL0    Cl27450   4.390   6.326   8.103  0.1931 -0.5066  0.2471
  204MOL0     C27451   5.194   6.688   8.637  0.5777 -0.7699  0.2564
  204MOL0     C27452   5.310   6.767   8.663  0.1104  0.2222  0.6006
  204MOL0     O27453   5.589   6.895   8.487 -0.5200 -1.2668 -0.1339
  204MOL0     C27454   5.804   6.859   8.777  0.1822 -0.1209  0.7250
  204MOL0     C27455   5.936   6.883   8.837 -0.8376  0.0133  0.6385
  204MOL0     N27456   6.631   7.055   8.879 -0.4347 -0.4109 -0.2908
  204MOL0     N27457   6.693   7.161   8.841 -0.8509  0.3338  0.0249
  204MOL0     C27458   6.653   8.329   9.270  0.1819 -0.0389  0.5621
  204MOL0     C27459   6.609   8.373   9.396 -0.4350 -0.5761 -0.4677
  204MOL0     C27460   6.442   8.482   9.754 -0.2349  0.8916 -0.0093
  204MOL0     C27461   6.309   8.499   9.746  0.8899 -0.9340  0.1118
  204MOL0     C27462   6.243   8.606   9.808  0.7816  0.4255  0.1806
  204MOL0     C27463   6.311   8.688   9.895 -0.0439 -0.6559 -0.7012
  204MOL0     O27464   6.256   8.784   9.978  0.4827  1.3756  0.9042
  204MOL0     C27465   6.112   8.797   9.984  1.0398 -0.2567  0.2122
  204MOL0     C27466   6.041   8.675  10.060  0.2468 -0.0839  0.9387
  204MOL0     C27467   5.891   8.684  10.066 -0.5016 -0.6998 -0.1583
  204MOL0     C27468   5.843   8.566  10.156  0.1455  0.8468 -0.3917
  204MOL0     C27469   5.695   8.579  10.191 -0.3595  0.3654  0.0742
  204MOL0     C27470   5.582   8.572  10.212  0.3095 -0.1562  0.1612
  204MOL0     C27471   6.446   8.676   9.904  0.0084  1.0593  0.8326
  204MOL0     C27472   6.521   8.573   9.829  0.3411 -0.6117  0.0244
  204MOL0     H27473   6.866   8.257   9.569  1.6717 -0.6974 -1.9460
  204MOL0     H27474   6.940   8.180   9.347 -0.3226  1.5269 -0.1638
  204MOL0     H27475   6.616   8.128   9.060 -2.1261  3.9213  0.5678
  204MOL0     H27476   6.668   8.277   8.997 -1.6994 -0.7891 -3.4240
  204MOL0     H27477   6.722   8.123   8.820  0.7932 -1.8937 -1.6899
  204MOL0     H27478   6.879   8.134   8.902  1.4741 -2.4639 -0.6027
  204MOL0     H27479   6.783   7.892   8.836  0.4066  0.5009 -0.1040
  204MOL0     H27480   6.903   7.913   8.957  2.2628  2.4997 -4.5565
  204MOL0     H27481   6.725   7.906   9.130 -0.4026 -0.3181 -0.5907
  204MOL0     H27482   6.602   7.893   9.006 -0.2833 -1.2657 -0.6524
  204MOL0     H27483   6.801   7.668   9.060  0.8686 -0.6487 -2.2851
  204MOL0     H27484   6.616   7.680   9.070 -1.0248  2.8866  1.2055
  204MOL0     H27485   6.596   7.689   8.826  0.6125  0.2834  0.1540
  204MOL0     H27486   6.765   7.637   8.829 -0.5127 -0.3617 -0.3130
  204MOL0     H27487   6.558   7.485   8.993 -2.6738 -0.1499 -1.9099
  204MOL0     H27488   6.554   7.453   8.836 -1.8633 -0.7205  1.9790
  204MOL0     H27489   6.800   7.427   9.009  0.9309  1.4165 -1.3812
  204MOL0     H27490   6.814   7.397   8.831 -0.1622 -0.7525  0.0929
  204MOL0     H27491   6.630   7.253   9.147 -0.3230  0.3212 -0.7414
  204MOL0     H27492   6.577   6.904   9.126  0.1428  1.4423  3.1830
  204MOL0     H27493   6.498   7.047   9.194  0.4129 -1.5971  0.9477
  204MOL0     H27494   6.336   6.871   9.077  0.3944 -1.4370 -1.0479
  204MOL0     H27495   6.423   6.899   8.932  2.7443 -0.0891  0.7032
  204MOL0     H27496   6.327   7.128   8.916  0.3570  0.9204  0.5922
  204MOL0     H27497   6.277   7.115   9.082 -0.1471 -0.7368 -0.1921
  204MOL0     H27498   6.088   7.076   8.943 -2.0157 -1.6117 -0.7481
  204MOL0     H27499   6.132   6.920   9.007 -2.2262  1.1989 -0.1815
  204MOL0     H27500   6.085   7.012   8.560 -0.8912 -1.1431 -1.6181
  204MOL0     H27501   5.848   6.880   8.378 -1.2061  1.5528 -1.5721
  204MOL0     H27502   5.766   7.046   8.396  0.7548  1.4372 -0.0003
  204MOL0     H27503   5.932   7.043   8.379  1.6599 -1.8015  0.6949
  204MOL0     H27504   5.552   6.538   8.591  0.7617 -0.8795  0.3803
  204MOL0     H27505   5.349   6.402   8.565 -2.6572 -0.5204  1.0040
  204MOL0     H27506   5.131   6.351   8.437 -0.8792  2.2909 -0.3922
  204MOL0     H27507   5.130   6.291   8.600  1.3079  3.2952  0.9498
  204MOL0     H27508   4.919   6.221   8.468  1.3632 -0.7065  0.4052
  204MOL0     H27509   4.883   6.317   8.604 -0.4391  0.4390 -0.4293
  204MOL0     H27510   4.830   6.520   8.471  1.9670 -0.5898 -1.4172
  204MOL0     H27511   4.737   6.373   8.438 -0.5230  0.1765 -1.2870
  204MOL0     H27512   4.987   6.474   8.299 -0.5673 -0.9617  3.0899
  204MOL0     H27513   4.899   6.339   8.239 -1.3960 -0.2549 -0.4894
  204MOL0     H27514   4.855   6.540   8.105  0.6073  0.3894 -0.0846
  204MOL0     H27515   4.781   6.616   8.246  1.3455 -0.1053 -0.6035
  204MOL0     H27516   4.688   6.346   8.133 -2.5783 -1.3696  1.8299
  204MOL0     H27517   4.607   6.444   8.263 -0.6669 -4.4747  0.2527
  204MOL0     H27518   4.606   6.486   7.966  2.8856  0.8976  0.3835
  204MOL0     H27519   4.595   6.623   8.073 -2.2778  0.2887 -4.6814
  204MOL0     H27520   4.363   6.547   8.032 -2.4389  0.3712  2.8551
  204MOL0     H27521   4.416   6.552   8.193  0.0409 -0.8370  0.0494
  204MOL0     H27522   5.097   6.736   8.639  0.9577  0.1102 -1.0950
  204MOL0     H27523   5.291   6.866   8.703 -0.5026  0.6818 -0.7588
  204MOL0     H27524   5.728   6.811   8.837 -3.4013  2.4830 -1.3436
  204MOL0     H27525   5.944   6.863   8.943  2.2659 -2.2332  0.1209
  204MOL0     H27526   6.598   8.355   9.180  1.3685 -0.0099 -0.1634
  204MOL0     H27527   6.513   8.424   9.402  0.8389  1.8277  0.8410
  204MOL0     H27528   6.260   8.424   9.686  2.4972 -1.4098 -0.6404
  204MOL0     H27529   6.138   8.624   9.787  0.1858 -2.1205  0.7043
  204MOL0     H27530   6.087   8.885  10.044  1.2095 -0.1567  0.1371
  204MOL0     H27531   6.065   8.805   9.885  0.0691 -1.2683  0.5707
  204MOL0     H27532   6.077   8.671  10.164  3.2339  3.2209  0.2470
  204MOL0     H27533   6.057   8.582  10.006  0.7036 -0.7188  2.1159
  204MOL0     H27534   5.846   8.684   9.966  1.2368  0.9803 -0.9936
  204MOL0     H27535   5.860   8.777  10.114 -0.6448 -0.5053 -0.6207
  204MOL0     H27536   5.895   8.584  10.251  2.3839  0.5578 -1.5007
  204MOL0     H27537   5.865   8.471  10.106  0.8472  0.6239  0.3188
  204MOL0     H27538   5.476   8.581  10.225  0.6692 -0.1231  3.9333
  204MOL0     H27539   6.505   8.743   9.966 -0.4434  3.4268 -1.1277
  204MOL0     H27540   6.628   8.559   9.837  0.5122  0.1992 -0.7734
  205MOL0     O27541   5.971   2.456   6.359  0.1221  0.1103 -0.5136
  205MOL0     C27542   5.865   2.434   6.423 -0.7378 -0.3434 -0.0513
  205MOL0     O27543   5.826   2.312   6.467  0.1145 -0.2498 -0.3106
  205MOL0     C27544   5.911   2.212   6.458 -0.4770 -0.4224 -0.2458
  205MOL0     C27545   6.000   2.191   6.557  0.1654  0.4421 -0.1232
  205MOL0     C27546   6.104   2.099   6.551  0.2145  0.1717  0.0047
  205MOL0     C27547   6.128   2.035   6.426  0.9493 -0.0810 -0.6393
  205MOL0     O27548   6.231   1.949   6.414  0.6634  0.1917  0.6299
  205MOL0     C27549   6.224   1.830   6.330 -0.6973 -0.0031 -0.1356
  205MOL0     C27550   6.280   1.702   6.395  0.1704  0.9089  0.3249
  205MOL0     C27551   6.259   1.690   6.545 -0.5214 -0.3777 -1.0051
  205MOL0     C27552   6.270   1.555   6.606  0.2691  2.0598 -0.3546
  205MOL0     C27553   6.235   1.552   6.753  0.4362 -0.8674 -0.8349
  205MOL0     C27554   6.311   1.435   6.832  0.7317  1.0588  0.4356
  205MOL0     C27555   6.258   1.287   6.789  0.0606 -0.9373  0.3266
  205MOL0     C27556   6.326   1.182   6.881 -0.0071  0.0832 -0.0374
  205MOL0     N27557   6.254   1.056   6.869 -0.8876 -0.1667 -0.5356
  205MOL0     C27558   6.292   0.958   6.778 -0.6868  0.1339  0.1461
  205MOL0     C27559   6.189   0.872   6.764  1.1094 -1.0859  0.7869
  205MOL0     C27560   6.174   0.753   6.681  0.4981  0.3163  0.2469
  205MOL0     C27561   6.250   0.638   6.753  0.0386  0.6849 -0.0454
  205MOL0     C27562   6.211   0.506   6.683  0.3106  0.2631  0.1369
  205MOL0     C27563   6.214   0.382   6.779 -0.2312 -0.2676 -0.1134
  205MOL0     O27564   6.241   0.258   6.709 -0.6426  0.1205 -0.3502
  205MOL0     C27565   6.258   0.146   6.787 -0.0549  0.1370 -1.2035
  205MOL0     C27566   6.298   0.147   6.920  0.4968 -0.3657 -0.1342
  205MOL0     C27567   6.332   0.031   6.993 -0.2699 -0.4244  0.8497
  205MOL0     C27568   6.365   0.053   7.132  0.2567  0.3481 -0.1831
  205MOL0     C27569   6.326  -0.095   6.923 -0.6217 -0.3641 -0.4575
  205MOL0     C27570   6.348  -0.226   6.975 -0.1265  0.1484  0.1467
  205MOL0     O27571   6.267  -0.317   6.923  0.0929  0.5900 -0.0678
  205MOL0     C27572   6.215  -0.426   6.988  0.3864 -0.5591 -0.5336
  205MOL0     C27573   6.144  -0.522   6.904  0.0155 -1.2199 -0.1301
  205MOL0     C27574   6.077  -0.621   6.975 -0.0355 -1.3618  0.0805
  205MOL0     C27575   6.074  -0.639   7.107  0.1023 -0.1710 -1.7683
  205MOL0     O27576   6.001  -0.742   7.161 -0.3032  0.2455 -0.1380
  205MOL0     C27577   6.000  -0.752   7.309 -0.0297  0.0280 -0.2513
  205MOL0     C27578   5.944  -0.885   7.369 -0.2511 -0.2417  0.3698
  205MOL0     C27579   6.024  -0.935   7.496  0.4209  0.0921  0.1482
  205MOL0     C27580   5.938  -1.038   7.566 -1.0043 -0.1952 -0.4032
  205MOL0     C27581   6.003  -1.126   7.683 -0.5631 -0.6676 -0.3718
  205MOL0     C27582   6.137  -1.066   7.712 -0.0967 -0.8581  0.4376
  205MOL0     C27583   6.193  -1.113   7.837 -0.5880 -0.0061  0.1560
  205MOL0     C27584   6.338  -1.077   7.862 -0.3884 -0.9794 -0.1442
  205MOL0    Cl27585   6.397  -1.125   8.029 -0.0513 -0.0884  0.4151
  205MOL0     C27586   6.158  -0.556   7.183 -0.7878 -0.0805  0.1668
  205MOL0     C27587   6.230  -0.449   7.126 -0.3168  0.1940 -0.1693
  205MOL0     O27588   6.442  -0.243   7.054 -0.8351  0.1081 -0.0061
  205MOL0     C27589   6.285  -0.093   6.787 -1.3612 -0.2768 -0.4040
  205MOL0     C27590   6.256   0.025   6.725 -1.1059  0.0365 -0.3787
  205MOL0     N27591   6.093   0.918   6.855  0.5891  0.1288  1.2439
  205MOL0     N27592   6.128   1.026   6.916 -0.0882 -0.5788 -0.8530
  205MOL0     C27593   6.042   2.063   6.324 -0.6209  0.9839  0.3250
  205MOL0     C27594   5.933   2.148   6.338  0.0546  0.3729  0.5766
  205MOL0     C27595   5.772   2.546   6.429  0.2423 -0.5997 -0.4305
  205MOL0     C27596   5.804   2.678   6.392  0.7200  0.0655  0.4091
  205MOL0     C27597   5.706   2.775   6.410 -0.5891 -0.5621 -0.3559
  205MOL0     C27598   5.582   2.744   6.471 -0.5399 -0.3727  0.2024
  205MOL0     O27599   5.510   2.850   6.503 -0.0973  0.6021  0.5043
  205MOL0     C27600   5.377   2.822   6.539 -0.1061 -0.1162  0.7123
  205MOL0     C27601   5.322   2.957   6.592 -0.0245  0.4121  0.1801
  205MOL0     C27602   5.402   3.008   6.715 -0.0944 -0.9044 -0.1669
  205MOL0     C27603   5.354   2.952   6.849  0.2491  1.0392  0.1720
  205MOL0     C27604   5.246   3.036   6.891  0.9363 -0.7081  0.7574
  205MOL0     C27605   5.155   3.115   6.921 -0.1187  0.7933  0.3960
  205MOL0     C27606   5.555   2.614   6.497 -0.2433  0.0893 -0.0632
  205MOL0     C27607   5.643   2.518   6.470 -0.3184 -0.1549 -0.0330
  205MOL0     H27608   5.982   2.246   6.649 -1.4797 -0.2677  0.0202
  205MOL0     H27609   6.167   2.083   6.638 -0.3930 -0.4533  0.3407
  205MOL0     H27610   6.117   1.808   6.323 -0.6239 -2.4759  3.5266
  205MOL0     H27611   6.276   1.846   6.235 -0.2648  0.6977  0.2184
  205MOL0     H27612   6.241   1.615   6.342 -1.4572  1.0506  1.2334
  205MOL0     H27613   6.389   1.697   6.394  0.1298 -0.0782  0.1764
  205MOL0     H27614   6.336   1.750   6.594 -0.6535 -2.5136  2.1285
  205MOL0     H27615   6.155   1.722   6.562 -0.5715 -0.1288 -1.7527
  205MOL0     H27616   6.207   1.486   6.549  2.5591 -1.6159  1.2340
  205MOL0     H27617   6.368   1.510   6.591  0.3322  0.5737  3.3781
  205MOL0     H27618   6.257   1.648   6.801 -4.4458  0.1459 -0.0838
  205MOL0     H27619   6.131   1.562   6.785  1.0128 -0.7249  1.1276
  205MOL0     H27620   6.417   1.440   6.804  1.2619 -1.2188  1.7373
  205MOL0     H27621   6.311   1.456   6.939  1.5283  2.8368  0.1252
  205MOL0     H27622   6.150   1.279   6.801 -0.2438 -0.6461 -1.8527
  205MOL0     H27623   6.274   1.273   6.682 -1.3398  1.5006 -0.2625
  205MOL0     H27624   6.319   1.210   6.987  1.8547 -0.9350  0.4082
  205MOL0     H27625   6.433   1.176   6.858 -0.1784  3.7427 -2.5440
  205MOL0     H27626   6.392   0.959   6.736 -0.2985  2.2840  0.9720
  205MOL0     H27627   6.068   0.727   6.669  1.3279 -2.7594 -1.5871
  205MOL0     H27628   6.207   0.767   6.578 -2.6316  2.8291 -0.5614
  205MOL0     H27629   6.226   0.634   6.860  0.5734  0.9343  0.0917
  205MOL0     H27630   6.360   0.643   6.760  0.0518  1.3646 -0.6614
  205MOL0     H27631   6.275   0.477   6.599 -0.7206 -0.9936 -0.2543
  205MOL0     H27632   6.106   0.524   6.655  0.3834  2.4866  1.1112
  205MOL0     H27633   6.123   0.382   6.839  0.8578 -0.0571  1.6068
  205MOL0     H27634   6.292   0.407   6.851 -0.7236  3.4288 -0.7032
  205MOL0     H27635   6.301   0.245   6.966  0.0359 -0.9042  1.0942
  205MOL0     H27636   6.309  -0.012   7.201  1.4653  2.6669  3.2600
  205MOL0     H27637   6.469   0.024   7.145 -0.5782 -2.2025  1.7107
  205MOL0     H27638   6.344   0.156   7.162  1.5009  0.4844  0.2465
  205MOL0     H27639   6.140  -0.500   6.798 -1.9805  0.6410  0.2656
  205MOL0     H27640   6.016  -0.685   6.911 -0.2827  0.0809 -1.2026
  205MOL0     H27641   6.104  -0.769   7.339  0.1451 -0.6810 -1.2230
  205MOL0     H27642   5.950  -0.662   7.347 -2.2800 -0.2996 -2.1893
  205MOL0     H27643   5.839  -0.867   7.391 -1.0712 -0.5554 -2.8315
  205MOL0     H27644   5.952  -0.965   7.296  0.4194 -0.2444  0.4391
  205MOL0     H27645   6.043  -0.854   7.567 -0.5934 -0.5852  1.2264
  205MOL0     H27646   6.119  -0.981   7.466 -0.1798  0.4118 -2.4570
  205MOL0     H27647   5.853  -0.994   7.618 -1.7549 -0.2589 -1.5472
  205MOL0     H27648   5.898  -1.098   7.484 -3.4891  0.3438  0.3188
  205MOL0     H27649   6.008  -1.226   7.639 -1.3321 -0.5489 -0.7556
  205MOL0     H27650   5.930  -1.115   7.764 -1.6510  1.9440 -1.5742
  205MOL0     H27651   6.202  -1.097   7.629  0.9055 -0.4533  1.0535
  205MOL0     H27652   6.138  -0.956   7.715  3.8790 -0.7314  0.3035
  205MOL0     H27653   6.187  -1.222   7.846  0.8829 -0.0435  0.9248
  205MOL0     H27654   6.130  -1.080   7.921 -0.6939 -0.6660  0.3452
  205MOL0     H27655   6.345  -0.968   7.875  1.8240 -1.0807 -0.0469
  205MOL0     H27656   6.396  -1.112   7.776 -0.4979 -0.6137 -0.3715
  205MOL0     H27657   6.162  -0.564   7.291 -1.7981 -0.4585  0.1922
  205MOL0     H27658   6.285  -0.381   7.190  0.1866  0.6913 -1.1097
  205MOL0     H27659   6.256  -0.179   6.728  1.4776 -2.1306  0.6803
  205MOL0     H27660   6.236   0.038   6.619  0.5188  1.5013 -0.5615
  205MOL0     H27661   6.073   2.027   6.227 -0.2787 -0.2995  0.8899
  205MOL0     H27662   5.862   2.164   6.258  2.1002  0.8485 -1.2455
  205MOL0     H27663   5.901   2.706   6.353 -0.0608 -0.6987 -2.3170
  205MOL0     H27664   5.744   2.873   6.383  1.3952 -0.4857  2.3857
  205MOL0     H27665   5.312   2.793   6.456 -2.6769  2.5202  1.6173
  205MOL0     H27666   5.370   2.752   6.623  0.0045 -1.0851 -0.0716
  205MOL0     H27667   5.219   2.947   6.626 -0.3832  1.6944 -0.4766
  205MOL0     H27668   5.306   3.032   6.514 -3.6152 -2.8281 -2.5898
  205MOL0     H27669   5.403   3.118   6.714 -2.1350 -0.8436 -1.0845
  205MOL0     H27670   5.506   2.974   6.717  0.2097  0.0386  1.0709
  205MOL0     H27671   5.426   2.959   6.930 -3.0162 -1.2037  3.6281
  205MOL0     H27672   5.329   2.846   6.838  2.7605  0.5884 -2.4770
  205MOL0     H27673   5.083   3.187   6.956 -1.6005  0.2938 -1.4696
  205MOL0     H27674   5.460   2.581   6.537 -0.3189 -3.7944 -2.8861
  205MOL0     H27675   5.611   2.419   6.499 -0.1725 -0.9610 -2.3966
  206MOL0     O27676  11.449   5.744   6.016 -0.5262 -0.6170 -0.6420
  206MOL0     C27677  11.494   5.759   5.903 -0.5894  0.5469 -0.3460
  206MOL0     O27678  11.425   5.765   5.784  0.2947  0.2154  0.2528
  206MOL0     C27679  11.295   5.717   5.787  0.8139 -0.2336 -0.0787
  206MOL0     C27680  11.194   5.748   5.882 -0.1207 -0.2052 -0.9812
  206MOL0     C27681  11.061   5.690   5.875  0.0733  0.5029  0.5675
  206MOL0     C27682  11.022   5.616   5.754 -0.0755  0.4443  0.3427
  206MOL0     O27683  10.902   5.551   5.727  0.0793 -0.4050 -0.0270
  206MOL0     C27684  10.829   5.496   5.838 -0.6655 -0.3486  0.9067
  206MOL0     C27685  10.868   5.342   5.854 -0.2570  0.0091 -0.0124
  206MOL0     C27686  10.807   5.279   5.983 -0.3382  0.7818 -0.5152
  206MOL0     C27687  10.906   5.197   6.064  1.6222  0.2987  0.3308
  206MOL0     C27688  10.835   5.097   6.155 -0.2710  0.0082  0.4777
  206MOL0     C27689  10.766   5.166   6.272  1.7958 -0.2889  0.3181
  206MOL0     C27690  10.671   5.073   6.350  0.6880 -0.7642 -0.0650
  206MOL0     C27691  10.585   5.155   6.449 -0.1021 -0.2445 -0.6285
  206MOL0     N27692  10.481   5.077   6.515  0.2754 -0.1096  0.0753
  206MOL0     C27693  10.501   4.965   6.588 -0.4958 -0.6926  0.2449
  206MOL0     C27694  10.385   4.949   6.664 -0.6083 -0.5677 -0.4166
  206MOL0     C27695  10.369   4.838   6.749  0.0876  0.2537  0.0581
  206MOL0     C27696  10.349   4.710   6.661 -0.6392  0.0717 -0.5530
  206MOL0     C27697  10.301   4.595   6.748  0.3937 -0.3358  0.2178
  206MOL0     C27698  10.323   4.467   6.671  0.1413  0.4637 -0.6473
  206MOL0     O27699  10.249   4.465   6.548  0.6187  0.1748  0.5031
  206MOL0     C27700  10.232   4.349   6.480  1.1131  0.8866  0.1505
  206MOL0     C27701  10.142   4.364   6.377 -0.2847 -0.3048 -0.4945
  206MOL0     C27702  10.108   4.249   6.300  0.6705 -1.4399  0.1642
  206MOL0     C27703  10.002   4.285   6.198 -0.2486  0.3514 -0.6455
  206MOL0     C27704  10.158   4.122   6.326  0.0492  0.4422 -0.4372
  206MOL0     C27705  10.129   3.994   6.243  0.5472 -0.6457  0.2322
  206MOL0     O27706  10.043   4.004   6.140  0.3998  0.3855  0.0208
  206MOL0     C27707   9.980   3.888   6.095 -0.3671  0.6886  0.1626
  206MOL0     C27708  10.043   3.789   6.024 -0.6126 -0.0104  0.2176
  206MOL0     C27709   9.975   3.688   5.966 -1.0976  0.3716  0.0349
  206MOL0     C27710   9.834   3.674   5.982 -0.1363 -0.0638 -0.0150
  206MOL0     O27711   9.778   3.552   5.936  0.1049  0.3874 -0.2457
  206MOL0     C27712   9.639   3.558   5.914 -0.0983 -0.0733  0.2287
  206MOL0     C27713   9.585   3.428   5.849  0.5948  0.3870 -0.1751
  206MOL0     C27714   9.609   3.401   5.699  0.0334 -0.5802  0.2731
  206MOL0     C27715   9.499   3.460   5.622 -0.3670 -0.3204 -0.5695
  206MOL0     C27716   9.508   3.417   5.474 -0.1383  0.5720  0.4540
  206MOL0     C27717   9.455   3.532   5.385 -0.4160  0.8165  0.2787
  206MOL0     C27718   9.448   3.476   5.239 -0.0940 -0.3247  0.4356
  206MOL0     C27719   9.467   3.595   5.139  0.5833  0.3409 -0.1231
  206MOL0    Cl27720   9.317   3.687   5.165  0.3686 -0.0657 -0.4919
  206MOL0     C27721   9.764   3.773   6.056  0.4355 -0.9553 -0.3979
  206MOL0     C27722   9.842   3.876   6.118  0.7706  0.1283 -0.5191
  206MOL0     O27723  10.193   3.896   6.267  0.2496  0.1234 -1.0768
  206MOL0     C27724  10.246   4.112   6.436 -0.3742  0.8835 -1.1167
  206MOL0     C27725  10.289   4.222   6.513 -0.3750 -0.2440  0.2082
  206MOL0     N27726  10.292   5.036   6.619  0.0483  0.4217 -1.3213
  206MOL0     N27727  10.354   5.118   6.542  0.2563  0.5470 -0.3843
  206MOL0     C27728  11.119   5.614   5.654  0.1370  0.0681  0.0164
  206MOL0     C27729  11.248   5.655   5.665 -0.3990 -0.2381 -0.7114
  206MOL0     C27730  11.629   5.810   5.903  0.0470 -0.7179  0.2285
  206MOL0     C27731  11.716   5.779   6.006 -0.3945  0.1714  0.9423
  206MOL0     C27732  11.842   5.835   6.009 -0.6390  0.3965  0.5695
  206MOL0     C27733  11.897   5.893   5.902 -0.1162 -0.2136  0.6338
  206MOL0     O27734  12.034   5.916   5.905  0.0533  0.0418 -0.0942
  206MOL0     C27735  12.110   5.971   5.792  0.5126  0.8731 -0.2079
  206MOL0     C27736  12.144   5.849   5.696  0.7549  0.4813  0.4220
  206MOL0     C27737  12.244   5.750   5.742 -0.6504 -0.7281 -1.1958
  206MOL0     C27738  12.217   5.612   5.678 -0.1503  0.0730  0.3841
  206MOL0     C27739  12.219   5.612   5.532  0.0476 -0.2430 -0.2295
  206MOL0     C27740  12.213   5.606   5.410 -0.3360 -0.1959 -0.5243
  206MOL0     C27741  11.807   5.932   5.798  0.0871 -0.0731  0.2653
  206MOL0     C27742  11.673   5.892   5.794  0.4084  0.0602 -0.1102
  206MOL0     H27743  11.217   5.814   5.964  0.0252  2.2250 -2.8534
  206MOL0     H27744  10.982   5.712   5.947 -0.4078 -0.8307  0.4712
  206MOL0     H27745  10.867   5.525   5.937 -0.9014  1.0793  0.6012
  206MOL0     H27746  10.724   5.523   5.825  0.1172  2.4779 -0.1514
  206MOL0     H27747  10.841   5.269   5.777  1.2062  0.1375 -0.6788
  206MOL0     H27748  10.976   5.333   5.862 -0.0590  0.6232 -1.5432
  206MOL0     H27749  10.772   5.357   6.051  3.1433  1.1782  1.0601
  206MOL0     H27750  10.723   5.215   5.955  1.2901 -1.7833  0.0855
  206MOL0     H27751  10.959   5.132   5.993  0.7341 -1.0138  0.8231
  206MOL0     H27752  10.970   5.260   6.126  2.2994  1.5453 -1.5682
  206MOL0     H27753  10.769   5.042   6.087 -1.9365  0.2118  1.8544
  206MOL0     H27754  10.906   5.024   6.196  0.6769 -0.1016 -1.2438
  206MOL0     H27755  10.837   5.199   6.349 -0.9963  0.6713  2.6384
  206MOL0     H27756  10.706   5.248   6.232  5.2330  1.6953 -1.1939
  206MOL0     H27757  10.602   5.021   6.282  0.9625 -0.1431 -0.8405
  206MOL0     H27758  10.732   4.995   6.396 -0.1108 -0.5688  1.3789
  206MOL0     H27759  10.536   5.241   6.403 -0.3718 -0.8809 -1.5443
  206MOL0     H27760  10.662   5.185   6.521  1.0913 -2.7159 -0.7579
  206MOL0     H27761  10.593   4.908   6.590  0.7607  1.2573  1.7799
  206MOL0     H27762  10.451   4.820   6.820 -0.5527 -2.1530  0.2475
  206MOL0     H27763  10.283   4.862   6.812  1.1894  0.6346  1.4708
  206MOL0     H27764  10.443   4.675   6.617 -0.2031  0.3296  0.1547
  206MOL0     H27765  10.280   4.743   6.584 -0.1462  2.9899  0.1629
  206MOL0     H27766  10.191   4.596   6.745  0.2929 -3.3901 -2.1243
  206MOL0     H27767  10.348   4.603   6.847  2.9239  2.9668 -1.0740
  206MOL0     H27768  10.301   4.378   6.730  0.4574  1.2501  0.6820
  206MOL0     H27769  10.431   4.464   6.650  0.3374 -1.2223  0.4618
  206MOL0     H27770  10.110   4.464   6.350  1.4788  1.0724  2.0603
  206MOL0     H27771  10.026   4.274   6.092 -0.0213 -2.0888 -0.4007
  206MOL0     H27772   9.913   4.224   6.216 -0.5793  1.0098 -0.0051
  206MOL0     H27773   9.967   4.386   6.217 -0.1755  0.5859 -1.6962
  206MOL0     H27774  10.152   3.790   6.024 -0.4824 -2.9287  1.9971
  206MOL0     H27775  10.035   3.624   5.902 -1.4399  0.4090 -0.3243
  206MOL0     H27776   9.591   3.568   6.011 -0.0714 -0.4894  0.2868
  206MOL0     H27777   9.607   3.646   5.857  1.1654 -0.2924 -0.8704
  206MOL0     H27778   9.638   3.343   5.895  2.7406  2.1103  0.7771
  206MOL0     H27779   9.481   3.422   5.881 -0.2388  2.6541 -2.2074
  206MOL0     H27780   9.614   3.295   5.670 -1.5874 -0.2306 -1.4916
  206MOL0     H27781   9.712   3.433   5.682  0.2118  0.2466  2.6005
  206MOL0     H27782   9.398   3.439   5.660 -0.7738 -3.7609 -3.0861
  206MOL0     H27783   9.527   3.566   5.632  1.3116 -0.6973 -1.1341
  206MOL0     H27784   9.457   3.324   5.448  0.9112 -0.0187  0.4693
  206MOL0     H27785   9.615   3.398   5.461 -0.1465 -1.6358  2.8868
  206MOL0     H27786   9.360   3.577   5.418 -1.4650 -0.3121 -1.0580
  206MOL0     H27787   9.526   3.615   5.395  0.4815  0.2310 -1.0661
  206MOL0     H27788   9.357   3.418   5.224  1.4240 -2.5436 -0.8208
  206MOL0     H27789   9.527   3.402   5.221  0.2618 -0.2874  1.6901
  206MOL0     H27790   9.465   3.561   5.035  0.3322  1.8089 -0.6224
  206MOL0     H27791   9.555   3.659   5.150 -0.0292  1.7331 -2.5191
  206MOL0     H27792   9.658   3.771   6.081  0.4551 -1.2356 -0.3345
  206MOL0     H27793   9.796   3.952   6.181  1.3548 -0.2947  0.4443
  206MOL0     H27794  10.275   4.011   6.463  0.4992  0.8117 -2.2283
  206MOL0     H27795  10.341   4.202   6.606  1.6060 -0.2246 -0.8580
  206MOL0     H27796  11.096   5.555   5.565 -2.4444  0.8446  0.0906
  206MOL0     H27797  11.319   5.628   5.587 -0.5175 -2.3019 -0.1733
  206MOL0     H27798  11.675   5.717   6.084 -0.3855 -0.8894  0.1343
  206MOL0     H27799  11.904   5.798   6.089 -0.9366  0.3620  0.7831
  206MOL0     H27800  12.050   6.046   5.739 -2.7164 -1.0339  0.4480
  206MOL0     H27801  12.206   6.018   5.811  1.5786  0.2248 -3.3297
  206MOL0     H27802  12.171   5.878   5.594  2.6588 -1.7735  0.2080
  206MOL0     H27803  12.046   5.799   5.695  2.1457 -2.5223  1.5628
  206MOL0     H27804  12.232   5.733   5.849  0.4644  0.2832 -0.8922
  206MOL0     H27805  12.342   5.787   5.711 -1.9219  0.8452 -3.6660
  206MOL0     H27806  12.122   5.569   5.712  0.6040 -1.2954  0.8267
  206MOL0     H27807  12.295   5.548   5.720  1.0298  0.1408 -1.5900
  206MOL0     H27808  12.209   5.613   5.304 -2.2152  2.7862 -0.3883
  206MOL0     H27809  11.845   5.987   5.713  0.3614 -0.4793  0.1234
  206MOL0     H27810  11.606   5.927   5.715 -1.0625  1.0120  1.4937
  207MOL0     O27811   7.390   6.537  11.187 -0.4558  0.3161  0.6897
  207MOL0     C27812   7.382   6.641  11.127 -0.1918 -0.2576 -0.0230
  207MOL0     O27813   7.278   6.732  11.142 -1.3472  0.4221  0.3287
  207MOL0     C27814   7.171   6.690  11.214  0.8007 -0.1147 -0.2169
  207MOL0     C27815   7.180   6.688  11.358  0.2665 -0.2205 -0.1883
  207MOL0     C27816   7.083   6.626  11.434 -0.5928  0.2144 -0.6130
  207MOL0     C27817   6.968   6.566  11.377  0.0085 -0.5987  0.7609
  207MOL0     O27818   6.878   6.517  11.468  0.8122 -0.6223 -0.0298
  207MOL0     C27819   6.833   6.608  11.572 -0.7093 -0.2801 -0.2848
  207MOL0     C27820   6.682   6.608  11.592  0.3326  0.0664 -0.4817
  207MOL0     C27821   6.645   6.499  11.686 -0.1988  0.2961 -0.0055
  207MOL0     C27822   6.668   6.362  11.628 -0.2532 -0.9006  0.1139
  207MOL0     C27823   6.585   6.260  11.704  0.9000  0.9670 -0.5714
  207MOL0     C27824   6.648   6.122  11.710 -0.3890  0.1919 -0.6303
  207MOL0     C27825   6.752   6.109  11.828 -0.2322  0.3474  0.2145
  207MOL0     C27826   6.832   5.978  11.812  0.5706 -0.8314  1.0028
  207MOL0     N27827   6.869   5.958  11.671 -1.0818 -0.2324  0.5050
  207MOL0     C27828   6.938   6.046  11.593 -0.3258 -0.0562  0.1192
  207MOL0     C27829   6.931   5.998  11.470 -0.3957  0.4150 -0.5204
  207MOL0     C27830   6.982   6.066  11.347 -0.0417 -0.0659 -0.3848
  207MOL0     C27831   7.125   6.020  11.306  0.6669 -0.3421 -0.2961
  207MOL0     C27832   7.152   5.867  11.304  0.5049 -0.9968  0.9289
  207MOL0     C27833   7.278   5.825  11.226  0.2069  0.2951  0.3628
  207MOL0     O27834   7.397   5.871  11.287 -0.3469 -0.5495  0.7736
  207MOL0     C27835   7.511   5.813  11.244 -0.4066  0.1252  0.5821
  207MOL0     C27836   7.521   5.736  11.125  0.2999  0.0800 -0.1888
  207MOL0     C27837   7.640   5.678  11.079  0.0671 -0.6965 -0.4134
  207MOL0     C27838   7.633   5.615  10.948  1.0424 -0.5659 -0.0309
  207MOL0     C27839   7.760   5.710  11.150 -0.5293  0.5511 -1.0167
  207MOL0     C27840   7.900   5.676  11.099 -0.3830 -0.1795 -0.9035
  207MOL0     O27841   8.009   5.653  11.186 -0.3218  0.0617 -0.0638
  207MOL0     C27842   8.130   5.681  11.129 -0.1237  0.0293  0.3150
  207MOL0     C27843   8.170   5.809  11.130 -0.0442 -0.5074  0.8975
  207MOL0     C27844   8.303   5.838  11.093  0.6870  0.6730 -0.1825
  207MOL0     C27845   8.404   5.745  11.059  1.1138  0.2507 -0.0715
  207MOL0     O27846   8.527   5.791  11.023  0.4359 -0.0632  0.0265
  207MOL0     C27847   8.595   5.708  10.934  0.7231 -0.6717 -0.7716
  207MOL0     C27848   8.722   5.770  10.878 -0.1873  0.2499  0.0417
  207MOL0     C27849   8.704   5.909  10.801 -0.0960  0.8798 -1.2280
  207MOL0     C27850   8.842   5.959  10.760  0.1860 -0.7070  0.8201
  207MOL0     C27851   8.818   6.088  10.680 -0.1848 -0.2816  0.0708
  207MOL0     C27852   8.870   6.077  10.531  0.6343 -0.2736 -0.5702
  207MOL0     C27853   8.816   6.207  10.455  0.3679  0.2073 -0.0144
  207MOL0     C27854   8.737   6.179  10.326 -0.0242  0.0741  0.4129
  207MOL0    Cl27855   8.837   6.091  10.213  0.1313 -0.2740  0.3582
  207MOL0     C27856   8.363   5.606  11.062 -1.1620 -0.0470  0.7157
  207MOL0     C27857   8.226   5.578  11.098  0.0565  0.0633 -0.5559
  207MOL0     O27858   7.903   5.646  10.976 -0.3595  0.3097  0.8094
  207MOL0     C27859   7.752   5.785  11.271  0.3039  0.8975 -0.4317
  207MOL0     C27860   7.627   5.837  11.312  0.6301 -1.2492  0.0940
  207MOL0     N27861   6.861   5.874  11.478  0.6764 -0.7866  0.6073
  207MOL0     N27862   6.827   5.854  11.599 -0.4967 -0.0866 -0.4485
  207MOL0     C27863   6.951   6.571  11.238 -0.5458 -0.1598  0.0854
  207MOL0     C27864   7.048   6.642  11.163 -0.2879  0.7514  0.4877
  207MOL0     C27865   7.507   6.675  11.046 -0.6061 -0.1407  0.0524
  207MOL0     C27866   7.526   6.792  10.974 -0.4009  0.6454  0.7717
  207MOL0     C27867   7.642   6.828  10.903 -0.4841  0.5392  0.7050
  207MOL0     C27868   7.755   6.747  10.916 -0.4283 -0.6618  0.7825
  207MOL0     O27869   7.863   6.771  10.838  0.4376  0.5255  0.1666
  207MOL0     C27870   7.898   6.906  10.809  0.2230  0.2072  0.0605
  207MOL0     C27871   8.047   6.927  10.792 -0.2789 -0.4564 -0.4328
  207MOL0     C27872   8.123   6.889  10.926 -0.2343  0.1548 -0.2804
  207MOL0     C27873   8.249   6.962  10.945  0.0743 -0.3261 -0.8891
  207MOL0     C27874   8.327   6.959  10.825 -0.2800  0.1624 -0.6545
  207MOL0     C27875   8.392   6.954  10.722 -0.7657 -0.6757  0.3458
  207MOL0     C27876   7.747   6.639  10.992  0.2397 -0.2320 -0.3277
  207MOL0     C27877   7.629   6.596  11.054 -0.0435 -0.1139 -0.6183
  207MOL0     H27878   7.273   6.722  11.402  0.6746 -2.5453  0.9298
  207MOL0     H27879   7.096   6.616  11.542  0.4539 -0.9549 -0.8252
  207MOL0     H27880   6.890   6.572  11.658  1.0657  0.5878 -1.0517
  207MOL0     H27881   6.866   6.713  11.569  0.8753 -0.7710 -0.6531
  207MOL0     H27882   6.635   6.699  11.629  0.4106 -1.4528  3.9537
  207MOL0     H27883   6.627   6.581  11.502  1.6302  0.1445 -1.3267
  207MOL0     H27884   6.705   6.502  11.778 -1.2930 -2.6432  0.9099
  207MOL0     H27885   6.544   6.523  11.720 -0.1364  0.9747 -0.2844
  207MOL0     H27886   6.632   6.350  11.526  0.1030 -0.0627 -0.1214
  207MOL0     H27887   6.774   6.341  11.643 -0.3580  0.1653  3.1421
  207MOL0     H27888   6.561   6.300  11.803  2.6090  1.1508 -0.1997
  207MOL0     H27889   6.494   6.230  11.652  0.2609  1.9721 -0.0598
  207MOL0     H27890   6.562   6.054  11.721 -0.7225  0.7200  0.1990
  207MOL0     H27891   6.708   6.108  11.620  1.7107 -0.0707  0.7398
  207MOL0     H27892   6.832   6.184  11.824 -0.7184  1.0111  2.1328
  207MOL0     H27893   6.687   6.116  11.915 -1.1445  1.0709 -0.4926
  207MOL0     H27894   6.774   5.888  11.834 -3.0260  1.6553  2.8192
  207MOL0     H27895   6.913   5.993  11.884  2.0940  0.7560 -0.9254
  207MOL0     H27896   6.980   6.139  11.629  1.6108 -1.3074  1.2834
  207MOL0     H27897   6.914   6.042  11.265  2.2768 -1.9334 -1.8931
  207MOL0     H27898   6.985   6.172  11.374  1.5866 -0.5264  1.4988
  207MOL0     H27899   7.200   6.061  11.375 -0.4380  0.1201  0.6633
  207MOL0     H27900   7.138   6.062  11.206 -0.3976  2.7553  0.7652
  207MOL0     H27901   7.068   5.822  11.250 -0.6048  1.7799  0.1385
  207MOL0     H27902   7.145   5.815  11.399 -0.3790  0.3782  1.6499
  207MOL0     H27903   7.275   5.845  11.119  2.2409 -1.3832 -0.0983
  207MOL0     H27904   7.288   5.716  11.226  0.6534  0.2474  3.4921
  207MOL0     H27905   7.440   5.722  11.054 -0.1079 -1.1837  0.4890
  207MOL0     H27906   7.649   5.698  10.879 -3.0561  2.4311  2.2398
  207MOL0     H27907   7.705   5.535  10.928 -0.8525 -1.9386 -1.7878
  207MOL0     H27908   7.539   5.567  10.920  1.4365 -2.3517  1.4830
  207MOL0     H27909   8.104   5.891  11.157  2.6102  1.9792  0.3744
  207MOL0     H27910   8.345   5.938  11.097  1.0189  0.5387  4.3473
  207MOL0     H27911   8.621   5.610  10.975  2.2662 -0.9402 -2.2670
  207MOL0     H27912   8.540   5.686  10.842  2.4948 -0.4806 -1.9228
  207MOL0     H27913   8.784   5.788  10.966  0.5195 -1.2274 -0.1261
  207MOL0     H27914   8.774   5.696  10.816 -1.2937 -1.4603  1.0662
  207MOL0     H27915   8.647   5.979  10.862  1.2216  2.8721 -2.1685
  207MOL0     H27916   8.641   5.889  10.714 -1.9117 -0.8316  0.3954
  207MOL0     H27917   8.902   5.986  10.847 -0.7885  0.6307  1.1176
  207MOL0     H27918   8.890   5.878  10.704 -2.2183 -0.5842 -1.6665
  207MOL0     H27919   8.885   6.159  10.729 -0.1535 -0.1873 -0.1087
  207MOL0     H27920   8.714   6.121  10.687 -0.4699 -1.4682  3.8273
  207MOL0     H27921   8.978   6.066  10.528  0.5987 -0.9893  0.1498
  207MOL0     H27922   8.816   5.995  10.483 -1.8230  1.7550 -1.4716
  207MOL0     H27923   8.903   6.271  10.439 -0.5750  1.2547 -1.1107
  207MOL0     H27924   8.751   6.268  10.518 -1.1254  0.6060 -1.8400
  207MOL0     H27925   8.710   6.266  10.266 -1.2950 -1.0901 -0.7529
  207MOL0     H27926   8.654   6.121  10.367  0.3555 -2.9199 -2.6198
  207MOL0     H27927   8.428   5.520  11.043 -2.0530 -0.4193 -0.8214
  207MOL0     H27928   8.187   5.479  11.121  0.5809 -0.5763 -2.2072
  207MOL0     H27929   7.839   5.821  11.325  0.2098  1.8010 -0.8657
  207MOL0     H27930   7.632   5.893  11.405 -0.7413 -0.8053 -0.0865
  207MOL0     H27931   6.864   6.527  11.190 -3.4076  0.3370  4.2091
  207MOL0     H27932   7.024   6.656  11.058 -1.3671 -0.4286  0.5597
  207MOL0     H27933   7.437   6.850  10.954 -0.8005  1.0544  3.4592
  207MOL0     H27934   7.627   6.922  10.851  0.5260  0.5504  0.4155
  207MOL0     H27935   7.857   6.914  10.708  0.4369 -0.3653 -0.0719
  207MOL0     H27936   7.846   6.976  10.876  2.9323  0.9383  1.5342
  207MOL0     H27937   8.072   7.029  10.763 -1.4719  0.5867  1.8883
  207MOL0     H27938   8.084   6.857  10.717 -0.9079  0.5769 -1.7462
  207MOL0     H27939   8.150   6.784  10.929 -0.5487  0.0697 -0.4252
  207MOL0     H27940   8.070   6.912  11.019  0.6772 -0.0927  0.3182
  207MOL0     H27941   8.307   6.918  11.027 -0.6989 -2.3811 -1.3893
  207MOL0     H27942   8.228   7.062  10.983 -1.5608 -1.8113  2.5515
  207MOL0     H27943   8.446   6.944  10.630  2.3512  2.3030  1.6035
  207MOL0     H27944   7.833   6.575  11.007 -1.7809 -3.4141 -1.3338
  207MOL0     H27945   7.623   6.505  11.113 -0.7983  0.6472  0.5103
  208MOL0     O27946   6.848   7.087   2.089  0.6879 -1.1839  0.1030
  208MOL0     C27947   6.851   7.016   2.191  0.5665 -0.4377 -0.2517
  208MOL0     O27948   6.950   6.926   2.222  0.3428 -0.1041  0.4721
  208MOL0     C27949   7.071   6.940   2.145  0.2657 -0.1277  1.0537
  208MOL0     C27950   7.181   7.015   2.169  0.6740 -0.1200  0.1140
  208MOL0     C27951   7.282   7.031   2.078 -0.1468 -0.0823 -0.0360
  208MOL0     C27952   7.291   6.966   1.954  0.5500 -0.6284 -0.1352
  208MOL0     O27953   7.408   6.974   1.880  0.0201  0.0394  0.3462
  208MOL0     C27954   7.441   6.854   1.806 -0.1745 -0.9928 -0.9301
  208MOL0     C27955   7.595   6.859   1.785  0.0668 -1.1953  0.2418
  208MOL0     C27956   7.673   6.841   1.913 -0.3540  0.1379  0.0913
  208MOL0     C27957   7.706   6.980   1.977  0.7909  0.1334 -0.0991
  208MOL0     C27958   7.853   7.001   2.033  0.2431 -0.7388 -0.0595
  208MOL0     C27959   7.877   7.145   2.098  0.0886 -0.5474  0.6637
  208MOL0     C27960   7.785   7.164   2.223 -0.2232 -0.2089  0.4582
  208MOL0     C27961   7.804   7.067   2.340  0.9210  0.0032  0.2444
  208MOL0     N27962   7.913   7.102   2.441 -0.4539 -0.8363 -0.1863
  208MOL0     C27963   8.033   7.042   2.437 -0.4625 -0.0969 -0.2811
  208MOL0     C27964   8.100   7.097   2.542 -0.0044  0.7394 -0.4692
  208MOL0     C27965   8.232   7.055   2.590  0.1629  0.4089  0.3377
  208MOL0     C27966   8.244   6.930   2.674  0.0796  0.0915  0.0337
  208MOL0     C27967   8.386   6.924   2.744  0.0442  0.0675  0.9586
  208MOL0     C27968   8.384   6.835   2.875  0.3654  0.4986  0.5537
  208MOL0     O27969   8.515   6.837   2.940  0.3509 -0.4472  0.1989
  208MOL0     C27970   8.540   6.742   3.028 -1.0197 -0.4369  0.2004
  208MOL0     C27971   8.671   6.728   3.043  0.1138 -0.7902 -1.0269
  208MOL0     C27972   8.726   6.626   3.126  0.8425 -1.0968  0.5081
  208MOL0     C27973   8.874   6.612   3.134  0.1689  0.2452 -0.1477
  208MOL0     C27974   8.634   6.555   3.217  0.0352  0.1292  0.3017
  208MOL0     C27975   8.675   6.440   3.302 -0.1811 -0.5750  0.3152
  208MOL0     O27976   8.788   6.374   3.255 -0.1620  0.8846 -0.9381
  208MOL0     C27977   8.849   6.279   3.338 -0.0027 -0.9081  0.1223
  208MOL0     C27978   8.827   6.256   3.480  0.5303 -0.2829 -0.1770
  208MOL0     C27979   8.905   6.165   3.542 -0.4001 -0.4064 -0.8734
  208MOL0     C27980   9.004   6.086   3.484  0.7545 -0.4909  0.0444
  208MOL0     O27981   9.086   6.015   3.565  0.0485 -0.3191 -0.6954
  208MOL0     C27982   9.199   5.942   3.524  1.0943 -0.6291  0.2318
  208MOL0     C27983   9.189   5.791   3.567 -0.6207  0.3916  0.0691
  208MOL0     C27984   9.308   5.713   3.508 -1.3204  0.4273  0.6893
  208MOL0     C27985   9.307   5.560   3.538  0.8318  0.2431 -0.7318
  208MOL0     C27986   9.425   5.481   3.489  1.1165 -0.3232 -0.4064
  208MOL0     C27987   9.554   5.524   3.571  0.5586 -0.3931  0.3143
  208MOL0     C27988   9.666   5.439   3.509  0.2288  0.4114  0.5997
  208MOL0     C27989   9.777   5.420   3.609 -0.4802  0.2215  0.0300
  208MOL0    Cl27990   9.847   5.588   3.655 -0.4314 -0.1440 -0.2790
  208MOL0     C27991   9.016   6.091   3.345 -0.6035 -0.3105 -0.6953
  208MOL0     C27992   8.944   6.188   3.277  0.0575  0.4756 -0.2344
  208MOL0     O27993   8.619   6.436   3.409  0.2165  0.2139 -0.3488
  208MOL0     C27994   8.497   6.574   3.201 -0.5688  0.8998 -0.1357
  208MOL0     C27995   8.449   6.667   3.101  0.0170  0.1447 -0.5671
  208MOL0     N27996   8.015   7.170   2.624 -0.7218 -0.3600  0.2172
  208MOL0     N27997   7.905   7.183   2.551 -0.2035  0.5455 -0.0929
  208MOL0     C27998   7.180   6.877   1.942  0.5284  0.6522 -0.7687
  208MOL0     C27999   7.065   6.860   2.026 -0.5956 -0.8656 -0.4641
  208MOL0     C28000   6.742   7.021   2.288  0.2646 -0.6340  0.5429
  208MOL0     C28001   6.629   7.101   2.262  0.0552 -0.2394 -0.6991
  208MOL0     C28002   6.535   7.121   2.357  0.4029  0.4916  1.3689
  208MOL0     C28003   6.548   7.056   2.476  0.5885  0.1586 -0.2989
  208MOL0     O28004   6.446   7.056   2.566  0.6503 -0.1924  0.6742
  208MOL0     C28005   6.486   7.097   2.698  0.6966 -0.3217 -0.7696
  208MOL0     C28006   6.371   7.089   2.804  0.1584  0.6330  0.0773
  208MOL0     C28007   6.399   7.203   2.900 -0.5308 -0.7693  0.7763
  208MOL0     C28008   6.303   7.211   3.020  0.5557 -0.1203  0.4698
  208MOL0     C28009   6.353   7.125   3.131 -0.5433  0.4058  0.0009
  208MOL0     C28010   6.392   7.072   3.233 -0.2592 -0.2583 -0.8518
  208MOL0     C28011   6.651   6.959   2.501  0.0441 -0.3925  0.2320
  208MOL0     C28012   6.747   6.945   2.400 -0.1050  1.0722  1.0604
  208MOL0     H28013   7.168   7.070   2.262 -0.9518  1.1858 -0.8258
  208MOL0     H28014   7.357   7.108   2.090  0.3079 -0.4310 -0.5674
  208MOL0     H28015   7.406   6.762   1.853  0.0162 -1.0122 -0.8269
  208MOL0     H28016   7.407   6.855   1.702  0.1261 -3.1788 -1.0901
  208MOL0     H28017   7.618   6.786   1.707  0.8251  0.2028 -0.9101
  208MOL0     H28018   7.610   6.952   1.728  0.0475 -1.4738 -0.2238
  208MOL0     H28019   7.621   6.777   1.984  0.4889 -3.1514 -2.0123
  208MOL0     H28020   7.772   6.793   1.908 -0.7926 -1.0960  2.0702
  208MOL0     H28021   7.679   7.057   1.904  0.5437  0.7822  0.6674
  208MOL0     H28022   7.630   6.986   2.056 -0.7564  1.9103 -1.6084
  208MOL0     H28023   7.865   6.921   2.107  0.2536 -1.0877 -0.4391
  208MOL0     H28024   7.906   6.993   1.938 -2.8883 -0.6497 -1.9835
  208MOL0     H28025   7.983   7.148   2.128  0.9249 -3.1061 -1.6474
  208MOL0     H28026   7.856   7.228   2.030 -0.0890  1.4845  3.0543
  208MOL0     H28027   7.821   7.261   2.260 -1.0871 -0.0661  0.9688
  208MOL0     H28028   7.679   7.174   2.195 -0.1739 -0.0947  0.3125
  208MOL0     H28029   7.821   6.966   2.304 -2.1008 -0.7484  0.6476
  208MOL0     H28030   7.706   7.063   2.387  0.2597  2.5753 -0.7443
  208MOL0     H28031   8.084   6.980   2.363 -0.0986  0.0627 -0.1676
  208MOL0     H28032   8.297   7.040   2.503  2.1076 -2.7901  2.1828
  208MOL0     H28033   8.263   7.140   2.652  0.6113  0.6609 -0.2187
  208MOL0     H28034   8.220   6.839   2.619  3.2354 -3.9668  4.5247
  208MOL0     H28035   8.171   6.947   2.754 -1.1490 -1.9180 -0.5795
  208MOL0     H28036   8.420   7.027   2.757 -0.8506  0.7891 -1.8527
  208MOL0     H28037   8.452   6.870   2.675 -1.5598  2.8974 -3.2129
  208MOL0     H28038   8.366   6.731   2.844  1.3071  0.2364  0.8525
  208MOL0     H28039   8.305   6.870   2.942  0.3479  1.4960  0.0288
  208MOL0     H28040   8.748   6.782   2.989 -0.1551 -0.9578 -1.5766
  208MOL0     H28041   8.906   6.582   3.234 -0.3974  1.9812  0.6089
  208MOL0     H28042   8.902   6.551   3.048  2.4693  1.6918 -0.5235
  208MOL0     H28043   8.926   6.704   3.106  2.7209 -0.7334  1.1162
  208MOL0     H28044   8.763   6.321   3.540  0.7366 -0.3197  0.0842
  208MOL0     H28045   8.882   6.155   3.648 -0.5801 -3.0353 -1.1162
  208MOL0     H28046   9.224   5.957   3.418 -1.6243 -2.9503 -0.8926
  208MOL0     H28047   9.289   5.978   3.576  2.7284 -0.9557 -2.1900
  208MOL0     H28048   9.175   5.787   3.676 -0.6730 -2.0662  0.0241
  208MOL0     H28049   9.103   5.750   3.514 -0.8555  0.3691  0.4613
  208MOL0     H28050   9.396   5.756   3.556 -0.1483 -2.0676  0.9380
  208MOL0     H28051   9.321   5.735   3.402  1.2654  1.9953  1.2333
  208MOL0     H28052   9.280   5.553   3.643  1.5225  1.1411 -0.4740
  208MOL0     H28053   9.224   5.508   3.490  0.1100 -2.7211  3.2720
  208MOL0     H28054   9.434   5.492   3.380 -3.0382  0.4673 -0.8526
  208MOL0     H28055   9.417   5.375   3.514  3.2614 -0.6205 -0.7512
  208MOL0     H28056   9.580   5.629   3.559  0.3224 -0.6266 -3.3029
  208MOL0     H28057   9.548   5.502   3.678 -0.1910 -3.1673 -0.1967
  208MOL0     H28058   9.698   5.498   3.423 -1.1661 -1.3045 -1.1818
  208MOL0     H28059   9.624   5.341   3.483 -1.8943  1.3844  0.1554
  208MOL0     H28060   9.854   5.354   3.567 -4.6237 -4.7730 -0.7394
  208MOL0     H28061   9.725   5.366   3.688  0.8609 -0.0481  0.7578
  208MOL0     H28062   9.093   6.042   3.286  0.8990  4.3383 -3.1553
  208MOL0     H28063   8.959   6.194   3.170  0.9502  6.8976 -0.1325
  208MOL0     H28064   8.433   6.517   3.268  0.6234 -0.7510 -0.3399
  208MOL0     H28065   8.343   6.689   3.100  0.3949  2.0906 -0.4737
  208MOL0     H28066   7.192   6.803   1.864 -1.3818 -2.6906  1.8176
  208MOL0     H28067   6.975   6.802   2.014 -1.5145  0.2875  0.5617
  208MOL0     H28068   6.626   7.145   2.163  3.4415  0.7034 -0.5029
  208MOL0     H28069   6.461   7.194   2.327  0.0763 -1.0785 -2.1281
  208MOL0     H28070   6.557   7.022   2.735 -0.6289 -2.0650 -1.6115
  208MOL0     H28071   6.531   7.197   2.699 -3.5528  1.8350  0.9863
  208MOL0     H28072   6.385   6.994   2.857  3.7893  1.7814  1.4740
  208MOL0     H28073   6.271   7.101   2.761  0.2701 -0.5483 -0.5553
  208MOL0     H28074   6.398   7.296   2.844  0.3184 -1.6926 -0.8426
  208MOL0     H28075   6.498   7.205   2.945  0.0929  1.7489 -0.5555
  208MOL0     H28076   6.200   7.202   2.984  0.3916  3.0565 -0.1290
  208MOL0     H28077   6.314   7.311   3.062 -2.8532  1.3031 -1.6305
  208MOL0     H28078   6.433   7.023   3.319 -2.2967  2.1571  1.6809
  208MOL0     H28079   6.657   6.895   2.588 -0.2557 -0.5996  0.1035
  208MOL0     H28080   6.829   6.875   2.417 -0.0290  0.8018 -0.3319
  209MOL0     O28081   3.219   4.606   1.733 -0.2789  0.3251 -0.2385
  209MOL0     C28082   3.245   4.527   1.644 -0.3316  0.5736  0.8552
  209MOL0     O28083   3.330   4.418   1.655  0.2787  0.0408 -0.1626
  209MOL0     C28084   3.418   4.419   1.753  0.0418  0.0855  0.4014
  209MOL0     C28085   3.549   4.474   1.738 -0.3482  0.0993 -0.3190
  209MOL0     C28086   3.638   4.477   1.846 -0.0800  0.1651  0.8086
  209MOL0     C28087   3.599   4.430   1.971  0.2180  0.1734 -0.1879
  209MOL0     O28088   3.680   4.440   2.082  0.2025  0.2085  0.3576
  209MOL0     C28089   3.726   4.316   2.140  1.0653  0.2381  0.8069
  209MOL0     C28090   3.853   4.342   2.215 -0.7010  0.4426 -0.3324
  209MOL0     C28091   3.820   4.433   2.337 -0.1810 -0.0955 -0.0428
  209MOL0     C28092   3.944   4.439   2.426  0.1500 -0.7112  0.6399
  209MOL0     C28093   3.920   4.548   2.533  0.3355  0.0911 -0.9088
  209MOL0     C28094   4.048   4.579   2.612  0.1018 -0.2850  0.6105
  209MOL0     C28095   4.093   4.460   2.701  0.1010 -0.5080  0.2118
  209MOL0     C28096   4.243   4.460   2.732 -0.4603  0.9582 -0.4871
  209MOL0     N28097   4.283   4.551   2.842  0.1655 -0.3300 -0.1300
  209MOL0     C28098   4.413   4.577   2.881 -0.2673  1.6726  0.4576
  209MOL0     C28099   4.396   4.657   2.987 -0.6519  0.6182  0.0212
  209MOL0     C28100   4.510   4.730   3.059  0.0813  0.9503 -0.5662
  209MOL0     C28101   4.575   4.830   2.950  0.6571 -0.1412 -0.8505
  209MOL0     C28102   4.683   4.919   3.019 -0.3073 -1.1300 -0.0310
  209MOL0     C28103   4.791   4.862   3.096 -0.3932 -0.0639  0.7062
  209MOL0     O28104   4.882   4.971   3.121 -0.9634  0.1340  0.7827
  209MOL0     C28105   4.991   4.984   3.035 -0.4166  0.5808  0.3340
  209MOL0     C28106   5.010   4.912   2.918  0.0258  0.4986  0.3284
  209MOL0     C28107   5.128   4.926   2.841 -0.4789 -0.3673 -0.6483
  209MOL0     C28108   5.143   4.822   2.730 -0.7275  0.5967  0.4547
  209MOL0     C28109   5.216   5.033   2.878 -0.1954 -0.5309  0.1527
  209MOL0     C28110   5.342   5.073   2.806 -0.0098  0.3785 -0.6062
  209MOL0     O28111   5.344   5.053   2.673 -0.3421 -0.1385  0.1658
  209MOL0     C28112   5.465   5.064   2.608 -0.6693 -0.4998 -0.4566
  209MOL0     C28113   5.531   4.946   2.569  0.0886 -0.3551  0.0725
  209MOL0     C28114   5.654   4.941   2.503  0.4273  0.5389 -0.2036
  209MOL0     C28115   5.714   5.063   2.478 -0.0171  0.4468 -0.4752
  209MOL0     O28116   5.827   5.068   2.394  0.0010  0.3759  0.1882
  209MOL0     C28117   5.899   4.948   2.376 -0.8328 -0.3086  0.2676
  209MOL0     C28118   5.980   4.901   2.491 -0.2853  1.3381 -0.4586
  209MOL0     C28119   6.074   5.005   2.557 -0.1526 -0.5844 -0.4323
  209MOL0     C28120   6.123   4.951   2.698  0.2040  0.0386  0.1006
  209MOL0     C28121   6.225   5.053   2.768 -0.5060  0.6476  0.1067
  209MOL0     C28122   6.303   4.975   2.873  0.1591 -0.6929 -0.8700
  209MOL0     C28123   6.364   5.067   2.980 -0.4700  0.2082  0.2636
  209MOL0     C28124   6.507   5.061   2.993 -0.4587  0.0324 -0.3217
  209MOL0    Cl28125   6.578   4.896   3.021  0.0449 -0.3055  0.0902
  209MOL0     C28126   5.658   5.181   2.524 -0.6320  0.5284 -0.1838
  209MOL0     C28127   5.536   5.187   2.589 -0.0973 -0.1206  0.6853
  209MOL0     O28128   5.435   5.122   2.877  0.6919 -0.1098 -0.0992
  209MOL0     C28129   5.193   5.112   2.994  1.1290 -0.0080  0.0670
  209MOL0     C28130   5.084   5.083   3.078 -0.6496 -0.5370 -0.1586
  209MOL0     N28131   4.267   4.684   3.000  1.2587  0.0405 -0.1104
  209MOL0     N28132   4.193   4.623   2.921  0.1827  0.4037 -0.0804
  209MOL0     C28133   3.471   4.371   1.986 -0.4038 -0.4860  1.0592
  209MOL0     C28134   3.387   4.366   1.873 -0.0169  0.6989 -0.1537
  209MOL0     C28135   3.160   4.540   1.521 -0.1158  0.1265  0.6551
  209MOL0     C28136   3.074   4.657   1.506  0.2873  1.3475  0.0577
  209MOL0     C28137   2.985   4.663   1.403  0.4143  0.8423  0.3798
  209MOL0     C28138   2.963   4.545   1.328 -0.3178 -0.3664  0.1400
  209MOL0     O28139   2.865   4.554   1.238  0.4074 -0.1639 -0.6048
  209MOL0     C28140   2.841   4.444   1.146  0.1608 -0.4466  0.3023
  209MOL0     C28141   2.766   4.498   1.022 -0.1707 -0.2865 -1.1818
  209MOL0     C28142   2.656   4.399   0.971  0.2039 -0.4358  1.6865
  209MOL0     C28143   2.515   4.456   0.968 -0.1083  0.8374 -1.7969
  209MOL0     C28144   2.442   4.409   1.090 -0.1436  0.2298 -0.4558
  209MOL0     C28145   2.364   4.354   1.161  0.3813  0.6903  0.4649
  209MOL0     C28146   3.048   4.433   1.338 -0.5988  0.6844 -0.2593
  209MOL0     C28147   3.153   4.435   1.425 -0.8683 -0.3521 -0.2707
  209MOL0     H28148   3.588   4.524   1.650  2.2288 -0.7958  0.2133
  209MOL0     H28149   3.734   4.526   1.830 -1.8398  3.2476 -1.3959
  209MOL0     H28150   3.651   4.285   2.213 -1.3224  2.9674 -0.2778
  209MOL0     H28151   3.734   4.245   2.057 -0.7619 -1.3137  1.8801
  209MOL0     H28152   3.902   4.248   2.244 -2.4835 -0.4573 -0.0469
  209MOL0     H28153   3.921   4.394   2.148 -1.2184 -0.7233 -1.8164
  209MOL0     H28154   3.790   4.532   2.303 -2.3880 -1.3499 -2.0864
  209MOL0     H28155   3.740   4.381   2.391  3.2097 -5.6442  0.4525
  209MOL0     H28156   3.952   4.340   2.471 -1.1388  0.6832  4.2730
  209MOL0     H28157   4.031   4.461   2.363 -0.0819  1.9322  1.1397
  209MOL0     H28158   3.886   4.643   2.490  0.7938  0.6899  0.0248
  209MOL0     H28159   3.844   4.527   2.609 -0.4447  3.5849 -0.5470
  209MOL0     H28160   4.128   4.608   2.543  1.4550  2.5024  3.1334
  209MOL0     H28161   4.016   4.665   2.671 -0.8612  1.3373 -2.1144
  209MOL0     H28162   4.038   4.450   2.796  0.4083  0.9067  0.5611
  209MOL0     H28163   4.079   4.366   2.647 -1.5246 -1.4146  2.0597
  209MOL0     H28164   4.301   4.492   2.645 -0.0788 -0.0822 -0.6254
  209MOL0     H28165   4.285   4.361   2.750  0.0462  0.9193 -1.7662
  209MOL0     H28166   4.518   4.561   2.858 -0.7116  1.9109 -1.9227
  209MOL0     H28167   4.463   4.798   3.130 -0.8217  1.8551 -1.9678
  209MOL0     H28168   4.588   4.670   3.106  0.7637  1.7423 -0.6603
  209MOL0     H28169   4.491   4.894   2.923 -1.3295 -2.0065  0.5720
  209MOL0     H28170   4.609   4.772   2.864  0.9171 -1.1960 -0.0618
  209MOL0     H28171   4.631   4.991   3.083 -3.4377 -4.0267  0.9494
  209MOL0     H28172   4.727   4.985   2.943 -2.4586  0.1503 -0.2650
  209MOL0     H28173   4.840   4.777   3.047 -0.5710  1.1571 -1.6947
  209MOL0     H28174   4.750   4.826   3.191  1.1426 -3.7557  0.1647
  209MOL0     H28175   4.935   4.844   2.877  2.2561 -1.1723 -1.2486
  209MOL0     H28176   5.081   4.852   2.645  0.2726  0.0032 -0.5136
  209MOL0     H28177   5.243   4.816   2.686 -1.1445 -1.7959 -0.3165
  209MOL0     H28178   5.113   4.724   2.769 -1.8923  0.1252 -1.4813
  209MOL0     H28179   5.480   4.853   2.590 -0.7267  0.3191  1.1685
  209MOL0     H28180   5.684   4.841   2.475  0.3958 -0.0737  1.7716
  209MOL0     H28181   5.832   4.871   2.337 -1.0344 -0.5690  1.1140
  209MOL0     H28182   5.978   4.976   2.306  1.4250  0.3014  2.8924
  209MOL0     H28183   5.913   4.865   2.570 -0.5967 -0.0210 -1.3089
  209MOL0     H28184   6.040   4.813   2.468  3.6768  3.7434 -0.2975
  209MOL0     H28185   6.015   5.096   2.573 -1.1789 -0.9964 -1.6589
  209MOL0     H28186   6.163   5.030   2.498 -1.2827 -1.7670 -2.7881
  209MOL0     H28187   6.034   4.925   2.756  0.9115 -0.1146  1.1493
  209MOL0     H28188   6.180   4.858   2.687  2.1750  1.3793 -1.7301
  209MOL0     H28189   6.162   5.122   2.825  2.5080  0.5703  3.9645
  209MOL0     H28190   6.288   5.097   2.691  0.8113  0.8219  1.2426
  209MOL0     H28191   6.233   4.908   2.924  1.8675 -0.2208  2.2716
  209MOL0     H28192   6.382   4.920   2.821  1.2080 -0.8204  0.7916
  209MOL0     H28193   6.312   5.039   3.073  4.8274  1.1097  3.9386
  209MOL0     H28194   6.335   5.171   2.961 -0.5047  0.5397  1.9853
  209MOL0     H28195   6.533   5.119   3.082  2.9098 -0.1127 -1.0727
  209MOL0     H28196   6.557   5.104   2.906  1.6634 -0.5294  0.5718
  209MOL0     H28197   5.719   5.270   2.508 -0.2000 -0.1485 -2.6108
  209MOL0     H28198   5.502   5.282   2.628 -0.5980 -0.5664  1.3463
  209MOL0     H28199   5.271   5.178   3.031  1.5815 -1.2976  1.5022
  209MOL0     H28200   5.062   5.142   3.167 -0.3965 -0.5796 -0.0654
  209MOL0     H28201   3.445   4.335   2.085 -0.0745 -1.1001  0.9271
  209MOL0     H28202   3.288   4.321   1.879  1.5594 -3.2692 -1.0511
  209MOL0     H28203   3.092   4.748   1.563 -0.5379  1.4716  0.1258
  209MOL0     H28204   2.918   4.747   1.386 -0.6186 -0.0075  0.1523
  209MOL0     H28205   2.929   4.388   1.114 -0.6930 -1.6583 -0.0167
  209MOL0     H28206   2.780   4.373   1.203 -2.1572 -0.6313 -2.2228
  209MOL0     H28207   2.842   4.522   0.948  0.0108 -1.0220 -1.2397
  209MOL0     H28208   2.721   4.589   1.065 -1.6875 -1.9159  0.9468
  209MOL0     H28209   2.663   4.306   1.028 -0.1457 -1.7133 -0.2453
  209MOL0     H28210   2.675   4.374   0.866 -0.2490  1.0443  1.2295
  209MOL0     H28211   2.458   4.428   0.879 -0.6278  2.1379 -1.8974
  209MOL0     H28212   2.507   4.564   0.953  0.4906  1.2691  0.6173
  209MOL0     H28213   2.287   4.316   1.225  1.0682  1.3671  1.7516
  209MOL0     H28214   3.061   4.350   1.271  3.8130 -0.7137  1.9270
  209MOL0     H28215   3.226   4.355   1.416 -0.2475  0.1773  0.0148
  210MOL0     O28216   9.357  10.042   4.051  0.1383  1.0485  0.7596
  210MOL0     C28217   9.359  10.010   3.926  0.5004  0.0404  0.0339
  210MOL0     O28218   9.251   9.966   3.848  0.6968 -0.8657  0.0563
  210MOL0     C28219   9.131   9.992   3.903 -0.0439 -1.0613  0.1200
  210MOL0     C28220   9.062  10.103   3.862  0.2069  0.5492 -0.1126
  210MOL0     C28221   8.928  10.132   3.892 -0.4782 -0.9825  0.0126
  210MOL0     C28222   8.867  10.043   3.973 -1.0916  0.2134  0.8185
  210MOL0     O28223   8.740  10.074   4.008  0.3251 -0.2964  0.5221
  210MOL0     C28224   8.644   9.968   4.036 -0.0604 -0.3018 -0.3523
  210MOL0     C28225   8.601   9.880   3.919 -0.4018  0.4771 -0.2260
  210MOL0     C28226   8.535   9.949   3.806 -0.0429 -0.1745  0.8541
  210MOL0     C28227   8.472   9.862   3.693 -1.2808 -0.6889  0.5005
  210MOL0     C28228   8.431   9.957   3.581  0.5493 -1.1360 -0.2793
  210MOL0     C28229   8.348   9.890   3.467  1.0067  0.5029 -0.2741
  210MOL0     C28230   8.438   9.776   3.409 -0.4543  0.6481 -0.5578
  210MOL0     C28231   8.373   9.733   3.280 -0.8819 -0.8910 -0.3796
  210MOL0     N28232   8.438   9.621   3.232 -0.0944  0.0996 -0.2783
  210MOL0     C28233   8.426   9.490   3.290  0.6812 -0.7440 -0.5669
  210MOL0     C28234   8.512   9.412   3.225  0.2854 -0.0351  0.5373
  210MOL0     C28235   8.523   9.258   3.253  0.5696 -0.7964 -1.1442
  210MOL0     C28236   8.480   9.175   3.121  0.2075  0.0284  1.0326
  210MOL0     C28237   8.325   9.198   3.083 -0.1260 -0.7581 -0.0833
  210MOL0     C28238   8.290   9.123   2.955  0.6722  0.3740 -0.2678
  210MOL0     O28239   8.306   8.975   2.981  1.0465  0.0260 -0.2747
  210MOL0     C28240   8.195   8.910   3.032  0.4669 -0.3774  0.1952
  210MOL0     C28241   8.073   8.911   2.954 -0.5337  0.2469 -0.0058
  210MOL0     C28242   7.958   8.863   3.017 -0.7428 -0.0981 -0.0863
  210MOL0     C28243   7.831   8.891   2.944  0.0594 -0.4010  0.0979
  210MOL0     C28244   7.963   8.789   3.140 -0.2161 -0.0069  0.6085
  210MOL0     C28245   7.849   8.713   3.193  0.4928 -0.2013  0.1734
  210MOL0     O28246   7.856   8.682   3.323 -0.2465  0.2886 -0.1027
  210MOL0     C28247   7.748   8.611   3.382 -0.5736 -0.2328 -0.5539
  210MOL0     C28248   7.624   8.672   3.407  0.1818  0.4314  0.7521
  210MOL0     C28249   7.518   8.608   3.476 -0.4645 -0.1327 -1.2864
  210MOL0     C28250   7.544   8.480   3.519  0.9489  1.2130 -1.1217
  210MOL0     O28251   7.438   8.426   3.586 -0.2465 -0.6727  0.0662
  210MOL0     C28252   7.430   8.297   3.642 -0.7114  0.4619  0.3916
  210MOL0     C28253   7.386   8.196   3.538 -0.2771  0.1544 -0.6300
  210MOL0     C28254   7.302   8.243   3.425  0.6552 -0.2000  0.8643
  210MOL0     C28255   7.220   8.137   3.351 -0.0252 -0.8304 -0.3633
  210MOL0     C28256   7.149   8.196   3.229 -0.0432 -0.3105  0.3036
  210MOL0     C28257   7.031   8.117   3.183  0.2380 -0.7945 -0.7171
  210MOL0     C28258   6.984   8.164   3.042  0.0692  0.4644  0.7117
  210MOL0     C28259   6.874   8.069   2.983 -0.8758 -1.0528 -0.5951
  210MOL0    Cl28260   6.914   8.031   2.810  0.3449  0.2202  0.0352
  210MOL0     C28261   7.661   8.408   3.493  0.5214 -0.8275  0.9179
  210MOL0     C28262   7.769   8.479   3.429  0.7989  0.5363  0.5708
  210MOL0     O28263   7.759   8.683   3.117  0.3284 -0.1362 -0.5865
  210MOL0     C28264   8.094   8.768   3.202  0.0391 -0.1911 -0.0471
  210MOL0     C28265   8.206   8.836   3.155  0.2241  1.0218  0.1581
  210MOL0     N28266   8.570   9.479   3.128  0.5558 -0.9829  0.0336
  210MOL0     N28267   8.527   9.606   3.134  0.2925  1.3717  0.2374
  210MOL0     C28268   8.933   9.937   4.026 -0.5195 -0.1743  0.3761
  210MOL0     C28269   9.068   9.910   3.994 -0.1905  0.4172 -0.4611
  210MOL0     C28270   9.500  10.016   3.878  0.3829 -0.6014  0.4282
  210MOL0     C28271   9.523  10.010   3.736  0.0081  1.1188 -0.1283
  210MOL0     C28272   9.647  10.071   3.684  0.5685  0.2411 -0.4948
  210MOL0     C28273   9.755  10.090   3.776 -0.1724 -0.1381  0.2483
  210MOL0     O28274   9.890  10.116   3.750 -0.2233  0.1972  0.3061
  210MOL0     C28275   9.918  10.152   3.620  0.4929 -1.1079  0.5015
  210MOL0     C28276  10.063  10.196   3.596 -0.8266 -0.2068 -0.7607
  210MOL0     C28277  10.107  10.173   3.453 -0.5525  0.1617 -0.2233
  210MOL0     C28278  10.252  10.185   3.434  0.1812  0.4005  0.0220
  210MOL0     C28279  10.307  10.316   3.472 -0.6472  0.0443 -0.0080
  210MOL0     C28280  10.361  10.418   3.512 -0.0085 -0.5739  0.0836
  210MOL0     C28281   9.732  10.067   3.910  0.7030  0.6304 -0.6645
  210MOL0     C28282   9.608  10.042   3.964  0.2557 -0.4646  0.1733
  210MOL0     H28283   9.111  10.165   3.788 -1.1634 -0.9829 -2.4194
  210MOL0     H28284   8.863  10.210   3.854  2.3108 -0.0465 -3.4027
  210MOL0     H28285   8.682   9.901   4.114 -4.0753 -1.4562  0.8786
  210MOL0     H28286   8.567  10.032   4.080 -0.7258 -1.8597  0.8475
  210MOL0     H28287   8.694   9.834   3.882 -0.3570  1.0987 -0.9177
  210MOL0     H28288   8.530   9.807   3.957  0.9191 -0.6603  0.1361
  210MOL0     H28289   8.461  10.019   3.843  1.8598  1.6274  1.4450
  210MOL0     H28290   8.617  10.008   3.764 -1.5292  1.4480  0.1349
  210MOL0     H28291   8.560   9.807   3.660  0.6342  1.3569  1.9461
  210MOL0     H28292   8.395   9.792   3.726 -1.6888  0.3150  1.7606
  210MOL0     H28293   8.369  10.034   3.628  3.8882  0.5528  1.6953
  210MOL0     H28294   8.514  10.020   3.549 -0.2395  0.7065  1.1103
  210MOL0     H28295   8.255   9.853   3.512 -0.0417  0.4008 -2.3590
  210MOL0     H28296   8.315   9.959   3.389  1.4225  0.8660 -0.1317
  210MOL0     H28297   8.542   9.808   3.400  0.7643 -2.7006  0.1534
  210MOL0     H28298   8.439   9.690   3.476  2.5512  2.7495  2.4845
  210MOL0     H28299   8.378   9.814   3.208  2.7193 -0.5563  0.0135
  210MOL0     H28300   8.267   9.710   3.287 -1.8409  2.8208 -0.7603
  210MOL0     H28301   8.359   9.461   3.371  0.8463  0.5720  0.0821
  210MOL0     H28302   8.625   9.231   3.280  1.4953  0.9122 -2.6775
  210MOL0     H28303   8.457   9.238   3.338 -0.8390  1.2760 -1.6726
  210MOL0     H28304   8.487   9.069   3.146 -0.6098 -0.2524  0.1508
  210MOL0     H28305   8.542   9.210   3.037 -1.0727 -1.5977 -0.6888
  210MOL0     H28306   8.312   9.306   3.071  4.0184  0.0947  1.4396
  210MOL0     H28307   8.254   9.163   3.158  1.1015 -1.5408  0.7428
  210MOL0     H28308   8.350   9.132   2.864 -1.6209  1.5859 -1.7678
  210MOL0     H28309   8.192   9.161   2.926  0.3466  0.0487  0.3804
  210MOL0     H28310   8.068   8.949   2.853 -0.1977 -0.9331 -0.4910
  210MOL0     H28311   7.768   8.947   3.015 -1.4348 -0.7012 -0.9444
  210MOL0     H28312   7.840   8.943   2.849 -0.2073 -1.0972 -0.3200
  210MOL0     H28313   7.787   8.795   2.914 -0.0452 -1.3117  2.8667
  210MOL0     H28314   7.596   8.769   3.368  0.3667  0.2352  0.1103
  210MOL0     H28315   7.430   8.670   3.491  0.7055  1.4198 -0.5327
  210MOL0     H28316   7.524   8.277   3.695 -0.7491 -0.3957  0.1440
  210MOL0     H28317   7.351   8.292   3.717 -0.7287  2.0572  0.5117
  210MOL0     H28318   7.480   8.155   3.500 -0.1295 -2.3772  2.0444
  210MOL0     H28319   7.333   8.115   3.590 -0.5227  0.1323 -0.9170
  210MOL0     H28320   7.369   8.298   3.358  0.7586  0.3344  1.4000
  210MOL0     H28321   7.229   8.318   3.457 -0.2920 -1.0667  0.8279
  210MOL0     H28322   7.299   8.067   3.322  2.3265  1.0537  1.0801
  210MOL0     H28323   7.151   8.082   3.414  2.1280  1.3097  4.3435
  210MOL0     H28324   7.217   8.213   3.144 -0.9383  0.6556 -0.2515
  210MOL0     H28325   7.104   8.295   3.240  0.0830  0.1298 -2.3800
  210MOL0     H28326   7.065   8.013   3.179  0.5735 -0.8505  1.8345
  210MOL0     H28327   6.948   8.127   3.254  0.5565 -3.0426  0.0527
  210MOL0     H28328   7.074   8.175   2.981 -0.6590 -0.4435 -0.5710
  210MOL0     H28329   6.934   8.261   3.056 -0.2183  0.0160  3.2359
  210MOL0     H28330   6.779   8.121   2.991 -0.3216 -0.0235 -0.5979
  210MOL0     H28331   6.877   7.974   3.038  1.5370  0.4928  2.2039
  210MOL0     H28332   7.693   8.311   3.530 -1.1873 -1.8820 -0.1971
  210MOL0     H28333   7.857   8.415   3.421 -0.5151 -1.3238  0.3100
  210MOL0     H28334   8.117   8.709   3.290  0.8153  0.8032  0.4232
  210MOL0     H28335   8.308   8.826   3.192 -0.8151 -2.9505  2.5400
  210MOL0     H28336   8.874   9.868   4.084 -0.1191 -0.6456  0.2309
  210MOL0     H28337   9.116   9.817   4.022  0.8680 -0.6008 -4.9067
  210MOL0     H28338   9.440   9.976   3.674 -1.8951  0.6056  2.5170
  210MOL0     H28339   9.653  10.094   3.578 -1.8570 -1.0856 -1.0032
  210MOL0     H28340   9.901  10.072   3.547  0.0922 -0.1797 -0.4547
  210MOL0     H28341   9.863  10.241   3.588 -0.2393 -2.0001 -0.8150
  210MOL0     H28342  10.125  10.132   3.660 -2.2673 -0.3722  0.5392
  210MOL0     H28343  10.066  10.297   3.637 -1.2442 -0.5700  0.2132
  210MOL0     H28344  10.040  10.231   3.389 -1.3464  0.6014  0.9772
  210MOL0     H28345  10.088  10.068   3.429  1.5464 -0.8436  2.0204
  210MOL0     H28346  10.273  10.169   3.328 -3.5350  1.0002 -0.9484
  210MOL0     H28347  10.301  10.106   3.492 -0.1038  1.4351  1.7313
  210MOL0     H28348  10.413  10.509   3.537  0.5709 -0.8473 -0.1065
  210MOL0     H28349   9.817  10.070   3.978 -0.6923  1.2219  1.1191
  210MOL0     H28350   9.586  10.025   4.069  0.0566  0.2857  0.2614
  211MOL0     O28351  10.551   9.727   3.534 -0.3708 -0.3021  0.0751
  211MOL0     C28352  10.469   9.752   3.624  1.0397  0.2885  0.0334
  211MOL0     O28353  10.500   9.762   3.754 -0.0573 -0.2446  0.5834
  211MOL0     C28354  10.629   9.751   3.803  0.3553  0.3421  0.6066
  211MOL0     C28355  10.666   9.633   3.864 -0.4479 -0.0568  0.4478
  211MOL0     C28356  10.792   9.614   3.917 -0.2718 -0.3375 -0.1756
  211MOL0     C28357  10.887   9.710   3.915  0.1873 -0.7907 -0.5637
  211MOL0     O28358  11.021   9.697   3.953 -0.2933  0.0573  0.3233
  211MOL0     C28359  11.077   9.571   3.974 -0.2454  0.1259  0.1659
  211MOL0     C28360  11.227   9.573   4.020 -0.2081 -0.0740 -0.0657
  211MOL0     C28361  11.310   9.675   3.939 -0.1597  0.5459 -0.1462
  211MOL0     C28362  11.323   9.637   3.793 -0.4328 -0.1902  0.2321
  211MOL0     C28363  11.428   9.730   3.720 -0.3556 -0.5302 -0.4889
  211MOL0     C28364  11.437   9.700   3.566 -0.5738 -0.3760 -1.2425
  211MOL0     C28365  11.492   9.568   3.522  0.2345 -0.1059 -0.2278
  211MOL0     C28366  11.633   9.528   3.563 -0.5734  0.5048  0.3763
  211MOL0     N28367  11.669   9.390   3.519 -0.2833 -0.5778 -1.0642
  211MOL0     C28368  11.692   9.365   3.387  0.0523  0.5600 -0.2648
  211MOL0     C28369  11.716   9.234   3.382  0.8934 -1.1476  0.2376
  211MOL0     C28370  11.768   9.161   3.265 -0.8851 -0.0781 -0.2723
  211MOL0     C28371  11.921   9.134   3.263 -0.0077  0.4253 -0.0139
  211MOL0     C28372  11.972   9.038   3.373  0.1951  0.6327  1.2459
  211MOL0     C28373  12.120   9.018   3.365  0.8878  0.4754  0.2458
  211MOL0     O28374  12.197   9.126   3.418 -0.1835  0.3166 -0.3418
  211MOL0     C28375  12.321   9.153   3.374  0.6749  0.0096  0.4254
  211MOL0     C28376  12.394   9.078   3.283  0.5553 -0.3200  0.2838
  211MOL0     C28377  12.529   9.110   3.248 -0.3330 -0.4550  0.4392
  211MOL0     C28378  12.570   9.023   3.130  0.1563  0.5944 -0.0398
  211MOL0     C28379  12.590   9.225   3.300 -0.4713  0.6218  0.1300
  211MOL0     C28380  12.726   9.271   3.268 -0.2230 -0.2222  0.5129
  211MOL0     O28381  12.762   9.396   3.302 -0.0683 -0.0386  0.3841
  211MOL0     C28382  12.870   9.453   3.244  0.5934  0.8636 -0.5025
  211MOL0     C28383  12.995   9.418   3.298 -0.6720  0.6280  0.5064
  211MOL0     C28384  13.107   9.502   3.273 -0.4665 -0.0744  0.0497
  211MOL0     C28385  13.091   9.619   3.195 -0.6003 -0.5720 -0.3937
  211MOL0     O28386  13.202   9.693   3.168  0.3015  0.7340  0.0534
  211MOL0     C28387  13.244   9.722   3.032  0.2698  0.1562 -0.8467
  211MOL0     C28388  13.387   9.770   3.043  0.2126  0.2089 -0.4006
  211MOL0     C28389  13.471   9.703   3.140  0.2453 -0.7001 -0.4982
  211MOL0     C28390  13.613   9.754   3.139 -0.5787  0.6440  0.8009
  211MOL0     C28391  13.701   9.662   3.232  0.7435 -0.0457 -0.6363
  211MOL0     C28392  13.725   9.521   3.176  0.2602 -0.4272  0.5381
  211MOL0     C28393  13.827   9.432   3.257  0.1059 -0.4054  0.7405
  211MOL0     C28394  13.952   9.404   3.176 -0.4845 -0.5779  0.0606
  211MOL0    Cl28395  14.056   9.538   3.136 -0.4166  0.1138 -0.3110
  211MOL0     C28396  12.964   9.647   3.141 -0.5126  0.1116 -0.6561
  211MOL0     C28397  12.860   9.565   3.165 -0.2899  1.0293 -0.1693
  211MOL0     O28398  12.794   9.197   3.194  0.1009 -0.1050 -0.3638
  211MOL0     C28399  12.522   9.290   3.402 -0.3553 -0.1331 -0.3486
  211MOL0     C28400  12.391   9.260   3.439  0.6563 -0.4349 -0.1435
  211MOL0     N28401  11.702   9.191   3.508 -0.6550  0.4114 -0.1024
  211MOL0     N28402  11.676   9.272   3.591  0.3655  0.6443 -0.6971
  211MOL0     C28403  10.842   9.834   3.865  0.1176  0.6210  1.0212
  211MOL0     C28404  10.715   9.858   3.811 -1.1108  0.0857 -0.9820
  211MOL0     C28405  10.315   9.760   3.589  0.4314  0.9809 -0.4076
  211MOL0     C28406  10.214   9.749   3.696 -0.6679 -0.7063  0.5276
  211MOL0     C28407  10.080   9.761   3.669  0.1820  0.9308 -0.6216
  211MOL0     C28408  10.039   9.772   3.534  0.2155 -0.0971 -0.2881
  211MOL0     O28409   9.906   9.779   3.486 -0.0908 -0.0696  0.1298
  211MOL0     C28410   9.802   9.752   3.578  0.1529 -0.1851 -0.4150
  211MOL0     C28411   9.672   9.742   3.501  0.9715 -0.6165  0.4229
  211MOL0     C28412   9.668   9.627   3.401  0.4428 -0.5754  0.0635
  211MOL0     C28413   9.531   9.573   3.359 -0.3247  0.3974 -0.0132
  211MOL0     C28414   9.458   9.683   3.293  0.2118  0.8024  0.4868
  211MOL0     C28415   9.408   9.785   3.253 -0.0025 -0.0701  1.4243
  211MOL0     C28416  10.135   9.793   3.428  1.4782 -0.9054  0.2307
  211MOL0     C28417  10.270   9.781   3.457 -0.1656  0.6999  0.7527
  211MOL0     H28418  10.596   9.551   3.857 -1.0353  0.2656  2.0936
  211MOL0     H28419  10.817   9.513   3.949 -2.0078 -0.9201 -0.5285
  211MOL0     H28420  11.022   9.512   4.048 -0.3012  0.4923  0.4214
  211MOL0     H28421  11.065   9.511   3.883  1.0808  0.6276 -0.3518
  211MOL0     H28422  11.236   9.606   4.124  1.7489  0.7873 -0.4637
  211MOL0     H28423  11.274   9.475   4.024  1.6215  0.8047  2.8610
  211MOL0     H28424  11.266   9.774   3.951  0.3163  0.4233  4.2509
  211MOL0     H28425  11.406   9.682   3.992 -0.5144 -0.3294  0.6456
  211MOL0     H28426  11.365   9.536   3.787  2.8367  1.0011  1.1160
  211MOL0     H28427  11.225   9.647   3.743 -0.7985 -1.5467  0.6167
  211MOL0     H28428  11.384   9.828   3.740  0.1588 -0.6031  1.0812
  211MOL0     H28429  11.527   9.725   3.766  0.1603  0.0472 -1.4960
  211MOL0     H28430  11.333   9.703   3.533 -1.1993  1.2355  0.6567
  211MOL0     H28431  11.482   9.784   3.512  1.4248 -3.6293 -5.2406
  211MOL0     H28432  11.431   9.485   3.558  1.7693 -2.4978 -2.7210
  211MOL0     H28433  11.494   9.562   3.413  0.8606  0.0523 -0.2277
  211MOL0     H28434  11.650   9.522   3.671 -0.7591 -0.6827  0.3548
  211MOL0     H28435  11.708   9.592   3.516  3.7740 -3.7016  0.7769
  211MOL0     H28436  11.705   9.434   3.305 -0.2167  0.1764 -0.6371
  211MOL0     H28437  11.715   9.066   3.252 -1.7916  0.5704 -1.5478
  211MOL0     H28438  11.746   9.213   3.171 -4.7933 -2.1366 -0.6974
  211MOL0     H28439  11.970   9.227   3.291  0.0802  0.3217  0.1812
  211MOL0     H28440  11.950   9.103   3.162 -0.5363 -2.3249  0.5900
  211MOL0     H28441  11.915   8.945   3.364 -3.2492  2.7752 -2.1198
  211MOL0     H28442  11.946   9.084   3.468  0.0996  2.1086  0.5256
  211MOL0     H28443  12.137   9.011   3.257 -0.0133  0.8885  0.0658
  211MOL0     H28444  12.148   8.924   3.414  3.3298 -0.2931 -2.3902
  211MOL0     H28445  12.340   8.992   3.244 -0.0469 -0.7758  2.0358
  211MOL0     H28446  12.497   8.944   3.113 -2.3058  2.7236 -0.0692
  211MOL0     H28447  12.576   9.085   3.040  1.3125 -1.3889 -1.3837
  211MOL0     H28448  12.669   8.981   3.149 -0.8970 -0.3206  4.5815
  211MOL0     H28449  13.007   9.318   3.338  0.2890 -0.9230 -3.1565
  211MOL0     H28450  13.206   9.466   3.299 -0.3186 -0.4681 -1.0305
  211MOL0     H28451  13.239   9.632   2.971 -0.2239  1.4976 -2.8548
  211MOL0     H28452  13.175   9.801   3.002 -1.6830 -0.4442  1.6959
  211MOL0     H28453  13.433   9.741   2.948  1.8117  0.3646  0.2911
  211MOL0     H28454  13.381   9.878   3.061  0.1121  0.5285 -2.2067
  211MOL0     H28455  13.465   9.594   3.127 -0.2977 -0.7070 -0.2381
  211MOL0     H28456  13.439   9.737   3.239  1.1931 -0.4052 -0.2849
  211MOL0     H28457  13.655   9.746   3.038  3.1633 -1.8920  2.3693
  211MOL0     H28458  13.621   9.858   3.172  0.5384  0.7600  0.2173
  211MOL0     H28459  13.650   9.653   3.328  0.0375  1.3036 -0.8567
  211MOL0     H28460  13.797   9.714   3.241  0.8830 -0.1670 -1.3703
  211MOL0     H28461  13.625   9.481   3.193 -0.9325  2.2243  0.2586
  211MOL0     H28462  13.736   9.525   3.067  1.0052  2.6761  0.6329
  211MOL0     H28463  13.778   9.340   3.288 -0.3180  0.1867  1.9083
  211MOL0     H28464  13.867   9.468   3.352  0.7416  1.2635 -0.1195
  211MOL0     H28465  13.923   9.368   3.077  0.2737 -0.2457 -0.2888
  211MOL0     H28466  14.014   9.336   3.234  0.3651  2.2018  2.6762
  211MOL0     H28467  12.953   9.735   3.079 -0.5067  0.5945  0.0207
  211MOL0     H28468  12.763   9.590   3.123 -0.0795  2.8257  0.3258
  211MOL0     H28469  12.570   9.373   3.454 -1.3376  1.0228 -1.2161
  211MOL0     H28470  12.331   9.297   3.521 -0.3639 -2.8839  0.2911
  211MOL0     H28471  10.894   9.930   3.858  0.0325  0.5806 -0.4921
  211MOL0     H28472  10.679   9.955   3.779  2.3551  2.1038  0.7160
  211MOL0     H28473  10.252   9.725   3.795 -0.2262 -1.2327  0.2373
  211MOL0     H28474  10.008   9.772   3.750 -1.3870 -0.5219 -1.7423
  211MOL0     H28475   9.832   9.659   3.628  1.3373  0.1493 -0.4608
  211MOL0     H28476   9.774   9.829   3.651 -4.8871 -0.9165 -1.2391
  211MOL0     H28477   9.650   9.835   3.449 -1.6673 -1.3952 -0.0159
  211MOL0     H28478   9.584   9.732   3.565  0.4821  3.4307  0.6426
  211MOL0     H28479   9.701   9.538   3.455  0.5762 -0.8054 -0.3929
  211MOL0     H28480   9.730   9.632   3.311  1.6972  2.5490  0.9847
  211MOL0     H28481   9.456   9.534   3.428 -1.1167 -0.9083 -1.5526
  211MOL0     H28482   9.538   9.493   3.285  1.2490 -0.6415  1.1953
  211MOL0     H28483   9.361   9.869   3.204  1.2818 -0.6294 -0.8956
  211MOL0     H28484  10.116   9.827   3.326  0.0576 -0.2623  0.6869
  211MOL0     H28485  10.348   9.806   3.386  0.2596  3.0179  1.9174
  212MOL0     O28486   0.329  10.613   1.886 -0.2678 -0.3690  0.0062
  212MOL0     C28487   0.247  10.534   1.933 -0.5002 -0.6811 -0.3734
  212MOL0     O28488   0.272  10.452   2.040  0.4337 -0.9364 -0.4393
  212MOL0     C28489   0.396  10.449   2.084  0.3349 -0.5173  0.2236
  212MOL0     C28490   0.419  10.527   2.196 -0.4570 -0.5874 -0.1368
  212MOL0     C28491   0.560  10.564   2.225  0.8171 -0.2748 -0.2706
  212MOL0     C28492   0.671  10.502   2.165  0.6056  0.1304  0.3862
  212MOL0     O28493   0.804  10.516   2.194  0.1510  0.1336  0.2439
  212MOL0     C28494   0.841  10.638   2.269 -0.1481 -0.5081 -0.0556
  212MOL0     C28495   0.995  10.652   2.293 -0.3738  1.6025 -0.4852
  212MOL0     C28496   1.048  10.554   2.390 -1.1117  0.2485 -0.4664
  212MOL0     C28497   1.195  10.572   2.411 -0.5877  0.0305 -0.7422
  212MOL0     C28498   1.256  10.468   2.497 -0.4930 -0.1202  0.9090
  212MOL0     C28499   1.213  10.478   2.644  0.2731  0.1993  0.6283
  212MOL0     C28500   1.292  10.377   2.725  0.1397 -0.2816 -0.3252
  212MOL0     C28501   1.248  10.373   2.872 -0.3366  0.1472  0.2946
  212MOL0     N28502   1.309  10.270   2.951  0.3852  0.0332 -0.2763
  212MOL0     C28503   1.443  10.255   2.963 -0.5132  0.3400 -0.2813
  212MOL0     C28504   1.455  10.151   3.047 -0.8547 -0.4684 -0.5454
  212MOL0     C28505   1.571  10.073   3.084 -0.6277 -0.1180  0.1206
  212MOL0     C28506   1.665  10.167   3.169 -0.1842  0.1989  0.1268
  212MOL0     C28507   1.809  10.107   3.214 -0.5723  0.5533  0.5915
  212MOL0     C28508   1.891  10.222   3.278 -0.6648  1.1105  0.0335
  212MOL0     O28509   1.953  10.287   3.170 -0.3886 -0.3354  0.0884
  212MOL0     C28510   2.075  10.340   3.195  0.4607  0.3922  0.3752
  212MOL0     C28511   2.146  10.387   3.087  0.7941 -0.2480  0.1424
  212MOL0     C28512   2.269  10.449   3.101 -0.2918 -0.7978 -0.0932
  212MOL0     C28513   2.333  10.513   2.974  0.1117  0.1820  0.0164
  212MOL0     C28514   2.325  10.474   3.225 -0.2875  0.1876  0.4312
  212MOL0     C28515   2.453  10.547   3.246  0.4158 -0.2222  0.1377
  212MOL0     O28516   2.538  10.493   3.334 -0.8580 -0.0111  0.9224
  212MOL0     C28517   2.641  10.563   3.381 -0.2723 -1.0435 -1.3027
  212MOL0     C28518   2.773  10.533   3.338 -0.1756  0.2987 -0.2922
  212MOL0     C28519   2.882  10.601   3.378 -0.0580 -0.3166 -1.0687
  212MOL0     C28520   2.859  10.705   3.472  0.7920 -0.2177  0.2661
  212MOL0     O28521   2.968  10.766   3.508 -0.6463  0.5564  0.3932
  212MOL0     C28522   2.948  10.912   3.513  0.0075 -0.1208  0.0580
  212MOL0     C28523   3.090  10.972   3.500  0.0578 -0.7104  1.0232
  212MOL0     C28524   3.099  11.126   3.480  0.3936 -0.6010 -0.1398
  212MOL0     C28525   3.183  11.181   3.373  0.1209  0.6525 -0.2646
  212MOL0     C28526   3.333  11.148   3.396  0.2706  0.6209  0.1771
  212MOL0     C28527   3.434  11.195   3.285 -0.3868 -0.1586  0.5217
  212MOL0     C28528   3.590  11.176   3.309 -0.0946 -0.0102 -0.4047
  212MOL0     C28529   3.682  11.244   3.202  0.1737  0.2194  0.3045
  212MOL0    Cl28530   3.857  11.241   3.253  0.6475  0.0534  0.0068
  212MOL0     C28531   2.731  10.727   3.540  0.5976 -0.4293  0.6846
  212MOL0     C28532   2.621  10.662   3.480 -0.6172  0.5354 -0.8133
  212MOL0     O28533   2.467  10.660   3.198 -0.5316 -0.2000  0.5534
  212MOL0     C28534   2.256  10.417   3.338 -0.6624  1.1242  0.3896
  212MOL0     C28535   2.135  10.344   3.323 -0.5474 -0.2008  0.4308
  212MOL0     N28536   1.339  10.095   3.070  0.3666  0.0634 -0.3746
  212MOL0     N28537   1.252  10.162   2.998  0.0305 -0.6090  0.7698
  212MOL0     C28538   0.637  10.408   2.062  0.7781  0.6096  0.4071
  212MOL0     C28539   0.507  10.390   2.013  0.9028  0.2482  0.2524
  212MOL0     C28540   0.123  10.515   1.857  0.4944 -0.3367 -0.3912
  212MOL0     C28541   0.017  10.427   1.913 -0.1008  0.0228  0.3754
  212MOL0     C28542  -0.093  10.396   1.834 -0.2030 -0.6054  0.1027
  212MOL0     C28543  -0.104  10.446   1.699  0.7491  0.9162 -0.5826
  212MOL0     O28544  -0.199  10.398   1.606  0.9964  0.2442 -0.7320
  212MOL0     C28545  -0.334  10.363   1.660  0.2509 -0.1056 -0.2926
  212MOL0     C28546  -0.407  10.487   1.718 -1.2452  0.1621  0.0112
  212MOL0     C28547  -0.464  10.580   1.615  0.0732 -0.5143  0.2212
  212MOL0     C28548  -0.369  10.704   1.595  0.6044  0.2876 -0.1929
  212MOL0     C28549  -0.421  10.776   1.476  0.2286 -0.2788  0.7848
  212MOL0     C28550  -0.455  10.816   1.369  1.3537 -0.3713  0.2701
  212MOL0     C28551  -0.010  10.541   1.648 -0.2939  0.6169 -0.0689
  212MOL0     C28552   0.099  10.579   1.733  0.2289  0.0817 -1.0695
  212MOL0     H28553   0.340  10.568   2.259  0.8734  1.8555  0.0589
  212MOL0     H28554   0.580  10.631   2.308  0.5655 -1.6765  0.9637
  212MOL0     H28555   0.803  10.729   2.221 -0.7525 -2.1463 -2.9524
  212MOL0     H28556   0.791  10.634   2.366 -0.4392 -0.0636 -0.1813
  212MOL0     H28557   1.050  10.648   2.198  1.6546  3.3130  0.5529
  212MOL0     H28558   1.030  10.751   2.323  2.3374  0.5541  0.1426
  212MOL0     H28559   1.003  10.556   2.490 -0.9930 -0.6742 -0.3824
  212MOL0     H28560   1.031  10.452   2.353 -0.5178 -0.6144  1.4836
  212MOL0     H28561   1.267  10.573   2.328  1.9701 -0.9271  1.3347
  212MOL0     H28562   1.205  10.666   2.466 -1.3347 -0.8222  0.9137
  212MOL0     H28563   1.218  10.372   2.462  0.1445  0.1904 -0.7228
  212MOL0     H28564   1.365  10.464   2.494 -0.1847  3.4057  1.9033
  212MOL0     H28565   1.230  10.579   2.682  2.3684  1.1220 -2.3972
  212MOL0     H28566   1.106  10.460   2.658 -0.0934  1.8930  0.2166
  212MOL0     H28567   1.274  10.286   2.666 -4.6727  1.8910 -2.7334
  212MOL0     H28568   1.398  10.404   2.722 -0.6162  3.9561  2.3588
  212MOL0     H28569   1.139  10.366   2.872 -0.3220 -1.4474 -2.2637
  212MOL0     H28570   1.270  10.471   2.917  1.7264 -0.2257  0.1940
  212MOL0     H28571   1.526  10.319   2.934  3.6186 -2.8121  3.1224
  212MOL0     H28572   1.547   9.994   3.155  0.1440  0.6982  1.3407
  212MOL0     H28573   1.621  10.032   2.996 -0.2257  1.0642 -0.2212
  212MOL0     H28574   1.614  10.209   3.256  1.4274  3.3180 -0.2913
  212MOL0     H28575   1.689  10.258   3.113  0.8401  0.0705  0.3525
  212MOL0     H28576   1.873  10.070   3.133 -1.9377 -1.7745  0.5143
  212MOL0     H28577   1.797  10.037   3.297  0.0233 -1.6147 -1.0626
  212MOL0     H28578   1.951  10.178   3.357 -3.3270 -2.3605  0.3773
  212MOL0     H28579   1.830  10.298   3.328  0.5351  1.8327  0.4457
  212MOL0     H28580   2.098  10.384   2.990 -0.5805  1.3572  0.7399
  212MOL0     H28581   2.440  10.494   2.963 -0.0252 -0.5185 -0.1209
  212MOL0     H28582   2.286  10.467   2.887  1.2003 -1.4075  0.2403
  212MOL0     H28583   2.313  10.620   2.987 -0.2203 -0.1270  2.7887
  212MOL0     H28584   2.786  10.457   3.262 -3.6508 -1.8358  1.0160
  212MOL0     H28585   2.978  10.587   3.329  0.7299  0.7314  0.1193
  212MOL0     H28586   2.888  10.946   3.428 -1.9757 -2.5501  0.3597
  212MOL0     H28587   2.915  10.945   3.612  2.2143 -0.1931  0.8689
  212MOL0     H28588   3.151  10.949   3.588  1.8095  0.2558  0.1231
  212MOL0     H28589   3.136  10.924   3.413  1.2119  1.4339  0.3639
  212MOL0     H28590   3.135  11.161   3.577 -2.1682 -2.2150  1.5406
  212MOL0     H28591   2.997  11.164   3.468 -0.3044 -2.6491 -1.1002
  212MOL0     H28592   3.153  11.129   3.281 -0.0253 -1.7018  1.0427
  212MOL0     H28593   3.168  11.289   3.370 -0.7793  0.5304 -0.2672
  212MOL0     H28594   3.344  11.043   3.424 -0.8152  0.0684 -1.3053
  212MOL0     H28595   3.374  11.211   3.475  3.6358 -0.8679 -0.2269
  212MOL0     H28596   3.419  11.143   3.190 -2.9795 -2.6888  2.1292
  212MOL0     H28597   3.410  11.301   3.273 -2.3050 -0.7230 -1.2135
  212MOL0     H28598   3.625  11.073   3.311  0.3026  0.0461 -2.3216
  212MOL0     H28599   3.621  11.206   3.410  2.1517 -1.0624 -0.7159
  212MOL0     H28600   3.647  11.347   3.189 -2.1411 -0.2782  1.9385
  212MOL0     H28601   3.665  11.196   3.105 -1.9987  2.2322 -0.3972
  212MOL0     H28602   2.721  10.796   3.624  1.2953 -1.9694  2.0866
  212MOL0     H28603   2.522  10.678   3.520  0.5980  0.1256  2.7304
  212MOL0     H28604   2.305  10.431   3.434  1.1041 -1.3845 -0.0484
  212MOL0     H28605   2.098  10.293   3.412 -0.4753 -2.8361 -0.9579
  212MOL0     H28606   0.717  10.353   2.014  0.5253 -0.3879  1.0810
  212MOL0     H28607   0.481  10.319   1.935  0.0660 -1.1972  1.7775
  212MOL0     H28608   0.033  10.382   2.010  1.6970 -0.5470 -0.1538
  212MOL0     H28609  -0.171  10.335   1.879 -0.5451 -0.6711 -0.5775
  212MOL0     H28610  -0.403  10.327   1.584 -0.6552  1.9804 -0.5223
  212MOL0     H28611  -0.327  10.288   1.740 -0.9541 -1.6331 -1.5500
  212MOL0     H28612  -0.337  10.538   1.784  1.2450 -0.7262 -1.7824
  212MOL0     H28613  -0.488  10.451   1.783 -2.7703  1.2795 -1.1998
  212MOL0     H28614  -0.564  10.619   1.638 -1.2433 -1.7887 -2.7697
  212MOL0     H28615  -0.472  10.532   1.517 -0.5797  0.2030 -0.0883
  212MOL0     H28616  -0.268  10.666   1.579  0.3448 -0.2679 -0.5201
  212MOL0     H28617  -0.369  10.749   1.695 -2.0868 -0.2944  0.1402
  212MOL0     H28618  -0.489  10.854   1.274  0.4558  1.2813  1.1977
  212MOL0     H28619  -0.008  10.590   1.551 -1.0601  2.7799  0.9277
  212MOL0     H28620   0.171  10.649   1.692 -1.2753  2.9966  0.8746
  213MOL0     O28621  10.146   3.524  10.920  0.0858 -0.0098  0.2345
  213MOL0     C28622  10.109   3.504  10.805 -0.2504  0.0414 -0.5031
  213MOL0     O28623   9.998   3.545  10.739 -0.5971 -0.2834 -0.3416
  213MOL0     C28624   9.891   3.597  10.813  0.4044 -0.8512  0.1560
  213MOL0     C28625   9.863   3.586  10.948  0.1573  0.1522 -0.2127
  213MOL0     C28626   9.743   3.654  11.001  0.0778  0.7376  0.0404
  213MOL0     C28627   9.652   3.719  10.927  1.0380  0.2670  0.7691
  213MOL0     O28628   9.540   3.780  10.984 -0.5621 -0.3208 -0.8159
  213MOL0     C28629   9.431   3.816  10.898 -0.5526  0.3551 -0.3559
  213MOL0     C28630   9.330   3.891  10.977  0.6515  0.1745 -1.2551
  213MOL0     C28631   9.392   4.030  10.999  0.2185  0.4258 -1.3460
  213MOL0     C28632   9.300   4.121  11.085 -0.0297 -0.0558 -0.4284
  213MOL0     C28633   9.157   4.161  11.029  0.3741 -0.0780  0.0252
  213MOL0     C28634   9.161   4.207  10.882  0.2370 -0.6214 -0.0063
  213MOL0     C28635   9.012   4.221  10.827  0.1338 -0.1383  0.3056
  213MOL0     C28636   9.006   4.299  10.699 -0.0989 -0.0883 -0.5913
  213MOL0     N28637   9.058   4.433  10.702 -0.3596 -0.2135  0.3029
  213MOL0     C28638   9.059   4.514  10.810 -0.4215  0.7988 -0.7454
  213MOL0     C28639   9.145   4.606  10.770  0.8002  0.1201  0.7661
  213MOL0     C28640   9.200   4.710  10.862  0.7505  0.2597  0.8426
  213MOL0     C28641   9.097   4.804  10.926 -0.4505  0.7780  1.2493
  213MOL0     C28642   9.145   4.931  10.992 -0.3407  0.5294 -0.0431
  213MOL0     C28643   9.145   5.061  10.923  0.5609 -1.0952  0.2315
  213MOL0     O28644   9.242   5.144  10.986 -0.2971 -0.4820 -0.6376
  213MOL0     C28645   9.285   5.258  10.923  0.3513  0.2105  0.5585
  213MOL0     C28646   9.392   5.328  10.976  0.0969 -0.0540 -0.6407
  213MOL0     C28647   9.433   5.448  10.912  0.9438 -0.0023 -0.4438
  213MOL0     C28648   9.551   5.511  10.978 -0.0119  0.4773  0.3763
  213MOL0     C28649   9.351   5.507  10.806  0.0268 -0.2125 -1.0111
  213MOL0     C28650   9.378   5.635  10.736 -0.3561  0.1320  0.4229
  213MOL0     O28651   9.374   5.636  10.597 -0.1127 -0.3630 -0.5193
  213MOL0     C28652   9.350   5.739  10.509  0.0486 -0.8225 -0.0546
  213MOL0     C28653   9.360   5.876  10.541  0.8063  0.3584 -0.2553
  213MOL0     C28654   9.323   5.976  10.448 -0.2700 -0.1003 -0.6232
  213MOL0     C28655   9.279   5.946  10.319 -0.0180  0.2614  0.6997
  213MOL0     O28656   9.255   6.054  10.232 -0.1801  0.5984  0.1496
  213MOL0     C28657   9.191   6.029  10.105  0.6462  0.0023 -0.9073
  213MOL0     C28658   9.148   6.155  10.033 -0.6841  0.2609  0.3732
  213MOL0     C28659   9.245   6.240   9.954 -0.7654 -1.0687  0.7103
  213MOL0     C28660   9.341   6.328  10.038  0.1979  0.7890 -0.1646
  213MOL0     C28661   9.418   6.433   9.966  0.1019 -0.1736  0.3654
  213MOL0     C28662   9.332   6.564   9.930 -0.7150  0.3826  0.4365
  213MOL0     C28663   9.380   6.637   9.795  0.9563  1.4947 -0.6467
  213MOL0     C28664   9.314   6.768   9.788  0.4787  0.0174  0.2210
  213MOL0    Cl28665   9.375   6.875   9.921  0.6416 -0.2152 -0.6006
  213MOL0     C28666   9.280   5.813  10.286  0.0861  0.1395  0.2650
  213MOL0     C28667   9.315   5.708  10.378 -0.0103 -1.1509  0.1839
  213MOL0     O28668   9.410   5.731  10.809  0.4246  0.3428 -0.0759
  213MOL0     C28669   9.253   5.436  10.757 -0.0723  0.9164 -0.1000
  213MOL0     C28670   9.219   5.313  10.812 -0.3277 -0.5524  0.1046
  213MOL0     N28671   9.170   4.600  10.634  1.2525 -0.0022  0.3604
  213MOL0     N28672   9.115   4.491  10.588 -0.2573 -0.7800  0.0482
  213MOL0     C28673   9.673   3.724  10.792  0.8819 -0.2831 -0.9881
  213MOL0     C28674   9.792   3.664  10.736 -1.0696  0.3472  0.3122
  213MOL0     C28675  10.200   3.420  10.722 -0.5587  0.2118 -1.1451
  213MOL0     C28676  10.168   3.398  10.586  0.0201  1.1035 -0.3502
  213MOL0     C28677  10.261   3.337  10.502  0.1021 -0.2260  0.0227
  213MOL0     C28678  10.390   3.306  10.538 -0.0364 -0.4795  0.0873
  213MOL0     O28679  10.471   3.253  10.443  0.3631  0.1038 -0.4474
  213MOL0     C28680  10.588   3.187  10.482  0.3952 -0.3445  0.4599
  213MOL0     C28681  10.659   3.133  10.359  0.3123  0.3471 -0.3464
  213MOL0     C28682  10.766   3.021  10.390 -0.1895  0.7082 -0.0817
  213MOL0     C28683  10.855   3.003  10.266 -1.0460  1.5124 -0.2966
  213MOL0     C28684  10.957   2.897  10.288  0.4858 -0.3858  0.8875
  213MOL0     C28685  11.046   2.813  10.312  0.2787  0.0251  0.2142
  213MOL0     C28686  10.416   3.317  10.679 -0.0284  0.3724  0.6013
  213MOL0     C28687  10.327   3.371  10.769 -1.1902 -0.7041 -0.4232
  213MOL0     H28688   9.920   3.517  11.010 -0.2754  2.0836  2.5212
  213MOL0     H28689   9.718   3.647  11.107 -3.0172  0.8156 -0.5838
  213MOL0     H28690   9.458   3.875  10.810  1.9935  0.3316  0.3190
  213MOL0     H28691   9.399   3.721  10.854  2.1658  0.2291 -2.3652
  213MOL0     H28692   9.229   3.907  10.938  0.4154  0.5552 -0.5174
  213MOL0     H28693   9.325   3.829  11.067  3.3646  0.1362 -1.0440
  213MOL0     H28694   9.487   4.016  11.052 -0.0629  1.6636 -0.4593
  213MOL0     H28695   9.407   4.075  10.900  0.6148 -0.8263 -1.8743
  213MOL0     H28696   9.276   4.063  11.174  2.7728 -1.5663 -0.5222
  213MOL0     H28697   9.365   4.206  11.109  2.5704 -2.3316  1.3003
  213MOL0     H28698   9.095   4.072  11.040 -1.3799  1.2065  1.0985
  213MOL0     H28699   9.127   4.247  11.091 -1.1540  1.8331 -3.0996
  213MOL0     H28700   9.223   4.296  10.864  1.1939 -0.7756  2.1472
  213MOL0     H28701   9.202   4.135  10.811  1.8933  0.7291 -0.5163
  213MOL0     H28702   8.973   4.120  10.818 -0.3401  0.0525  0.2050
  213MOL0     H28703   8.945   4.278  10.892  0.8578 -0.5610  1.4511
  213MOL0     H28704   8.904   4.303  10.660  0.5003  0.6696 -2.1785
  213MOL0     H28705   9.069   4.246  10.628 -2.8644 -2.6060 -1.3540
  213MOL0     H28706   9.020   4.505  10.911 -2.2540 -0.1323 -1.4880
  213MOL0     H28707   9.266   4.670  10.940  0.1380 -1.4648  0.5179
  213MOL0     H28708   9.265   4.768  10.795 -0.3599  0.6619  0.0890
  213MOL0     H28709   9.051   4.743  11.004 -1.3943  2.6702  2.2368
  213MOL0     H28710   9.028   4.832  10.847 -0.4556  4.4242  2.3597
  213MOL0     H28711   9.251   4.925  11.020 -0.7497  0.9579  1.7314
  213MOL0     H28712   9.098   4.938  11.091 -0.9087  0.0916 -0.2761
  213MOL0     H28713   9.049   5.114  10.918  2.1832  1.9660 -0.8147
  213MOL0     H28714   9.170   5.045  10.818 -2.6004 -0.9107 -0.6753
  213MOL0     H28715   9.445   5.310  11.069 -0.3311  3.5889  0.4966
  213MOL0     H28716   9.504   5.571  11.056  1.1953  2.4368 -0.3199
  213MOL0     H28717   9.615   5.431  11.016 -0.4582 -1.4341 -2.6074
  213MOL0     H28718   9.603   5.592  10.924  1.5175 -1.2834 -0.9130
  213MOL0     H28719   9.400   5.906  10.637  1.5752 -1.2665 -0.0356
  213MOL0     H28720   9.323   6.078  10.484 -0.7494 -1.1635  2.7062
  213MOL0     H28721   9.267   5.972  10.051 -0.0085 -2.7838  0.8790
  213MOL0     H28722   9.109   5.958  10.119  2.2424 -1.5393  1.2462
  213MOL0     H28723   9.080   6.120   9.955  0.1857 -3.7876  1.2068
  213MOL0     H28724   9.099   6.225  10.102 -1.7116 -1.9495  1.9974
  213MOL0     H28725   9.183   6.305   9.892 -1.7588 -1.3220  1.4143
  213MOL0     H28726   9.313   6.190   9.884  1.6072  0.9103  1.4452
  213MOL0     H28727   9.293   6.367  10.128  2.8313  0.5678  1.4370
  213MOL0     H28728   9.414   6.257  10.078 -1.7075 -0.4821  1.2510
  213MOL0     H28729   9.455   6.393   9.871  2.1201 -0.6449  1.3050
  213MOL0     H28730   9.504   6.468  10.024  1.8205  4.9968 -4.4225
  213MOL0     H28731   9.225   6.541   9.927 -1.0656  1.0675  3.8738
  213MOL0     H28732   9.352   6.628  10.016 -0.1846 -1.3887  1.6936
  213MOL0     H28733   9.357   6.579   9.705  0.6026  2.2392 -1.0502
  213MOL0     H28734   9.488   6.629   9.808  0.9441 -0.4652 -1.3597
  213MOL0     H28735   9.209   6.744   9.801  1.0269 -1.3017  2.7511
  213MOL0     H28736   9.348   6.809   9.692  1.8824 -0.3153  0.5496
  213MOL0     H28737   9.253   5.783  10.185 -2.8403 -2.3174  1.6223
  213MOL0     H28738   9.314   5.606  10.340 -0.6550 -0.7307 -0.9774
  213MOL0     H28739   9.209   5.451  10.659 -1.1422 -2.1780 -0.2080
  213MOL0     H28740   9.145   5.252  10.760  1.0463 -0.6027 -1.9195
  213MOL0     H28741   9.614   3.778  10.719  0.1559  0.5794  0.2192
  213MOL0     H28742   9.798   3.665  10.627 -0.1904  4.0679  0.2508
  213MOL0     H28743  10.071   3.427  10.546  0.1991 -0.9939 -2.5364
  213MOL0     H28744  10.225   3.317  10.401  3.2300 -3.2989 -0.6651
  213MOL0     H28745  10.657   3.252  10.537 -3.4513  1.7021  3.3494
  213MOL0     H28746  10.563   3.093  10.532 -1.5054 -0.9175 -1.4277
  213MOL0     H28747  10.712   3.216  10.313 -0.4542  2.1027  1.7585
  213MOL0     H28748  10.592   3.085  10.287 -0.8263  0.3601  0.6659
  213MOL0     H28749  10.720   2.925  10.416  1.0945 -0.8491 -3.0959
  213MOL0     H28750  10.827   3.053  10.475  0.1521  1.0737 -0.4658
  213MOL0     H28751  10.903   3.100  10.249 -0.1127  1.5254  1.9674
  213MOL0     H28752  10.805   2.977  10.172  1.3264 -1.0107 -0.9622
  213MOL0     H28753  11.113   2.733  10.337  0.3784  0.6855  2.2707
  213MOL0     H28754  10.500   3.260  10.716 -0.0038  0.4626  0.6831
  213MOL0     H28755  10.346   3.384  10.875  1.2794 -1.8440 -0.6608
  214MOL0     O28756   9.938   1.413   8.361 -0.0293 -1.3125 -0.4707
  214MOL0     C28757   9.930   1.484   8.463  0.4416  0.0442 -0.1097
  214MOL0     O28758   9.838   1.468   8.565  0.4362  0.5746 -0.2159
  214MOL0     C28759   9.742   1.373   8.580  1.3851 -0.4328 -0.1715
  214MOL0     C28760   9.650   1.387   8.689  0.0845  0.4626  0.0117
  214MOL0     C28761   9.538   1.301   8.705 -0.9671 -0.4439  0.3303
  214MOL0     C28762   9.517   1.192   8.608 -0.5164 -0.4183  0.6803
  214MOL0     O28763   9.420   1.095   8.632  0.0810 -1.1217  0.6509
  214MOL0     C28764   9.405   1.030   8.752 -0.3109  0.3065 -0.3010
  214MOL0     C28765   9.279   0.938   8.740  0.3714 -0.1547  0.0341
  214MOL0     C28766   9.262   0.851   8.612  0.1294 -0.8849 -0.3764
  214MOL0     C28767   9.366   0.735   8.592 -0.1035  0.3682  0.1078
  214MOL0     C28768   9.316   0.628   8.499  0.4322 -0.0927 -0.2737
  214MOL0     C28769   9.302   0.653   8.345 -0.0559  0.3436 -1.2714
  214MOL0     C28770   9.251   0.541   8.267 -0.0682  0.5312  0.1790
  214MOL0     C28771   9.102   0.516   8.283  0.2562 -0.7738 -0.2766
  214MOL0     N28772   9.032   0.630   8.218 -0.7590 -0.8961 -0.6752
  214MOL0     C28773   9.055   0.662   8.087 -0.1787 -0.2333 -0.2680
  214MOL0     C28774   8.979   0.776   8.074  1.1500 -0.4187  0.4574
  214MOL0     C28775   8.974   0.855   7.940 -0.4140  0.5256 -0.4264
  214MOL0     C28776   8.844   0.830   7.857  0.2939 -0.0043 -0.4154
  214MOL0     C28777   8.832   0.689   7.802 -0.2255  0.7125  0.2904
  214MOL0     C28778   8.687   0.670   7.755  0.1446  0.0501 -0.2528
  214MOL0     O28779   8.642   0.767   7.665 -0.2952 -0.5755  0.2077
  214MOL0     C28780   8.508   0.763   7.625  0.3427 -0.1248  0.4816
  214MOL0     C28781   8.462   0.851   7.513 -0.0289 -0.1134 -0.3514
  214MOL0     C28782   8.321   0.872   7.476  0.1413 -0.4209  0.3076
  214MOL0     C28783   8.292   0.966   7.361  0.0791  0.0633  0.6149
  214MOL0     C28784   8.231   0.795   7.543  0.3532 -0.5011 -0.7082
  214MOL0     C28785   8.078   0.806   7.530 -0.5069  0.4065  0.6656
  214MOL0     O28786   8.027   0.933   7.527  0.6512 -0.5122  0.0011
  214MOL0     C28787   7.889   0.949   7.523  0.3595  0.6360  0.8139
  214MOL0     C28788   7.810   0.937   7.639 -0.7605 -1.3786  0.1247
  214MOL0     C28789   7.665   0.929   7.636 -0.1688  0.5585  0.7985
  214MOL0     C28790   7.598   0.941   7.507 -0.1596  0.2885 -0.2110
  214MOL0     O28791   7.461   0.943   7.489  0.3697  0.0300 -0.0771
  214MOL0     C28792   7.360   0.955   7.590  0.1949 -0.0772 -0.6541
  214MOL0     C28793   7.368   1.082   7.671  0.7233 -0.6346  0.1972
  214MOL0     C28794   7.341   1.207   7.584  0.3653 -0.0662  0.3095
  214MOL0     C28795   7.449   1.252   7.482 -0.4707  0.7657 -0.4657
  214MOL0     C28796   7.425   1.394   7.435  0.2281  1.2362 -0.8568
  214MOL0     C28797   7.291   1.388   7.364  0.2672 -0.2593  0.3214
  214MOL0     C28798   7.252   1.527   7.312  0.1864  0.8404 -0.6331
  214MOL0     C28799   7.147   1.523   7.206  0.8583  0.0385  0.2378
  214MOL0    Cl28800   7.006   1.427   7.254 -0.7436 -0.4483 -0.1922
  214MOL0     C28801   7.683   0.955   7.393  0.3965  0.0177 -0.0267
  214MOL0     C28802   7.827   0.962   7.398 -1.1348  0.4561 -1.2816
  214MOL0     O28803   8.011   0.706   7.532  0.1456  0.1022  0.3429
  214MOL0     C28804   8.276   0.704   7.648 -0.1370  0.0551 -0.3206
  214MOL0     C28805   8.410   0.676   7.680  0.2208 -0.0830  0.0069
  214MOL0     N28806   8.918   0.817   8.196 -0.0483  0.0994 -0.4000
  214MOL0     N28807   8.950   0.722   8.281  1.1074 -0.5496  0.4023
  214MOL0     C28808   9.609   1.180   8.500 -0.8273 -0.0695 -0.1483
  214MOL0     C28809   9.717   1.274   8.492  0.0416 -0.6932  0.0313
  214MOL0     C28810   9.988   1.621   8.466 -0.1581  0.7712 -0.5995
  214MOL0     C28811  10.081   1.657   8.370  1.1041  0.1537  0.4231
  214MOL0     C28812  10.138   1.778   8.368  0.4815 -0.2199  0.1156
  214MOL0     C28813  10.114   1.874   8.472  0.5702  1.4306  0.7172
  214MOL0     O28814  10.175   1.995   8.487  0.3825  0.1721 -0.4765
  214MOL0     C28815  10.282   2.039   8.400  0.9177 -0.2466 -0.4510
  214MOL0     C28816  10.257   2.197   8.386  0.3597  0.0117 -0.4683
  214MOL0     C28817  10.320   2.252   8.248  0.9301  0.1907 -0.4212
  214MOL0     C28818  10.253   2.387   8.218  0.5971 -0.5231 -0.6862
  214MOL0     C28819  10.274   2.473   8.329 -0.2202  1.0110  0.6284
  214MOL0     C28820  10.295   2.562   8.404 -0.4948 -0.0168 -0.6199
  214MOL0     C28821  10.007   1.847   8.561 -0.5105 -0.5287 -0.5013
  214MOL0     C28822   9.943   1.724   8.556  0.0037  0.8856 -0.6425
  214MOL0     H28823   9.669   1.466   8.760  2.1195  0.3683 -0.3634
  214MOL0     H28824   9.466   1.317   8.785 -3.8689 -1.6771 -1.8604
  214MOL0     H28825   9.493   0.973   8.783 -1.3610 -1.1459  0.0882
  214MOL0     H28826   9.397   1.103   8.833  5.5524 -0.8796  1.8261
  214MOL0     H28827   9.280   0.865   8.822  0.8583  0.2575  0.3958
  214MOL0     H28828   9.192   1.002   8.757 -0.0832 -1.3654  2.8733
  214MOL0     H28829   9.166   0.800   8.621 -0.0654 -1.1487 -2.9513
  214MOL0     H28830   9.252   0.920   8.527 -3.0747  0.0952  0.6441
  214MOL0     H28831   9.455   0.770   8.539 -0.4124 -0.1924 -0.8077
  214MOL0     H28832   9.398   0.686   8.685 -0.5206  0.5225  0.3344
  214MOL0     H28833   9.382   0.541   8.514 -0.0864 -0.3895  0.2961
  214MOL0     H28834   9.219   0.586   8.527 -0.7297  0.1026 -3.6017
  214MOL0     H28835   9.239   0.739   8.321  1.7412  2.5440  1.4347
  214MOL0     H28836   9.397   0.691   8.307 -1.5445  2.4867 -3.1030
  214MOL0     H28837   9.291   0.540   8.165 -0.2018 -1.4001  0.0963
  214MOL0     H28838   9.289   0.448   8.311 -1.0308  0.9708  2.0491
  214MOL0     H28839   9.065   0.513   8.386  1.5528  0.6103  0.2631
  214MOL0     H28840   9.073   0.423   8.235 -0.3545 -0.7754  0.0850
  214MOL0     H28841   9.110   0.602   8.014  0.2738  0.2497 -0.3275
  214MOL0     H28842   8.960   0.960   7.966  1.5872  0.4349  1.1625
  214MOL0     H28843   9.064   0.843   7.879 -1.3390 -3.0520 -1.3194
  214MOL0     H28844   8.834   0.916   7.791 -2.7304 -0.5206 -0.7902
  214MOL0     H28845   8.756   0.847   7.919  1.1753  2.3526  0.2808
  214MOL0     H28846   8.860   0.605   7.865 -2.2287  0.3029  0.6957
  214MOL0     H28847   8.896   0.690   7.713  2.7946 -0.4937  2.3033
  214MOL0     H28848   8.625   0.672   7.846  1.1563 -0.5092  0.4676
  214MOL0     H28849   8.671   0.571   7.711 -2.5808 -1.1532  2.9930
  214MOL0     H28850   8.549   0.897   7.468  0.9482  1.4777  2.8659
  214MOL0     H28851   8.188   0.965   7.329  0.3505 -0.4466 -0.2904
  214MOL0     H28852   8.309   1.074   7.375 -3.0691  1.1881 -2.6883
  214MOL0     H28853   8.346   0.933   7.271  1.7253  0.3993  1.4377
  214MOL0     H28854   7.859   0.915   7.733  0.5895 -0.1787 -0.2773
  214MOL0     H28855   7.603   0.893   7.718 -0.0367 -1.2390  0.1557
  214MOL0     H28856   7.260   0.970   7.547  0.0185  2.3256  0.4409
  214MOL0     H28857   7.365   0.864   7.650 -0.0868  0.1291 -0.3191
  214MOL0     H28858   7.301   1.076   7.757  2.0146 -0.7084  1.2388
  214MOL0     H28859   7.470   1.091   7.710  0.8992 -1.9784  0.1075
  214MOL0     H28860   7.307   1.288   7.650  1.2827 -0.9893  2.0015
  214MOL0     H28861   7.256   1.175   7.523  0.5024  1.3425 -0.6581
  214MOL0     H28862   7.547   1.247   7.530 -1.7480  0.7442  2.3364
  214MOL0     H28863   7.454   1.181   7.399  0.4277 -1.3563  1.3040
  214MOL0     H28864   7.501   1.424   7.363  0.7667 -0.0267 -0.8488
  214MOL0     H28865   7.423   1.462   7.521  1.0450 -1.1655  1.1984
  214MOL0     H28866   7.308   1.318   7.282 -2.8100 -0.2545 -0.4569
  214MOL0     H28867   7.215   1.340   7.425  3.0001 -3.8385  1.2507
  214MOL0     H28868   7.339   1.571   7.261 -0.2196  0.9199 -1.2659
  214MOL0     H28869   7.217   1.591   7.393 -2.8276 -1.4733  0.0635
  214MOL0     H28870   7.184   1.483   7.111  0.8337 -1.9113  1.0095
  214MOL0     H28871   7.111   1.625   7.191 -0.6646 -0.5136 -0.0345
  214MOL0     H28872   7.626   0.950   7.300  0.0902 -0.6161  0.1851
  214MOL0     H28873   7.885   0.980   7.308 -1.0205  2.9378 -0.7813
  214MOL0     H28874   8.197   0.653   7.703 -0.4767  1.9340  1.0458
  214MOL0     H28875   8.430   0.595   7.749 -2.5622 -0.5672  0.3623
  214MOL0     H28876   9.603   1.098   8.429 -1.6568  0.3175 -0.5320
  214MOL0     H28877   9.778   1.254   8.405  1.6614 -0.3059  1.0329
  214MOL0     H28878  10.096   1.589   8.287  0.2263 -2.1273  2.0402
  214MOL0     H28879  10.205   1.796   8.285  0.0218 -0.2809 -0.2687
  214MOL0     H28880  10.384   2.021   8.437  1.4790  2.5823 -0.4077
  214MOL0     H28881  10.269   1.998   8.299  2.9051  1.1614 -1.3616
  214MOL0     H28882  10.299   2.235   8.479  0.8446 -1.4387 -0.0653
  214MOL0     H28883  10.149   2.209   8.400  0.4412 -0.7560  1.0071
  214MOL0     H28884  10.295   2.184   8.166 -1.4324  0.8511 -0.3290
  214MOL0     H28885  10.428   2.267   8.244  0.8241  1.1976  0.0536
  214MOL0     H28886  10.150   2.375   8.184 -0.1892 -0.8572  1.6703
  214MOL0     H28887  10.315   2.425   8.136  2.5616 -0.0181  0.9577
  214MOL0     H28888  10.317   2.646   8.467  2.5493 -3.2132  3.1000
  214MOL0     H28889   9.978   1.907   8.646  3.2361 -0.3374  0.8078
  214MOL0     H28890   9.851   1.701   8.609 -1.7744 -0.1229 -3.8187
  215MOL0     O28891   7.338  11.332   8.159  0.3037 -0.6404 -0.2267
  215MOL0     C28892   7.447  11.332   8.216 -0.1011 -0.1136  0.1715
  215MOL0     O28893   7.479  11.418   8.319 -0.5123  0.2283 -0.3773
  215MOL0     C28894   7.373  11.483   8.367 -0.4943 -0.3433 -1.2242
  215MOL0     C28895   7.386  11.621   8.373  0.3676 -0.1988 -0.6692
  215MOL0     C28896   7.283  11.703   8.415 -0.1372 -0.6625  1.6668
  215MOL0     C28897   7.169  11.648   8.473 -0.4302 -0.3958  0.0809
  215MOL0     O28898   7.067  11.724   8.533 -0.3464  0.1409 -0.3824
  215MOL0     C28899   7.092  11.780   8.664  0.3800 -0.2027 -0.5625
  215MOL0     C28900   7.024  11.680   8.762  0.8201  0.1710  0.4635
  215MOL0     C28901   7.033  11.736   8.907 -0.2650  0.2786  0.1609
  215MOL0     C28902   6.930  11.661   8.991 -0.1078  0.2453 -0.7366
  215MOL0     C28903   6.959  11.668   9.146 -0.4248 -0.4717  0.3181
  215MOL0     C28904   6.926  11.801   9.214 -0.3499  0.2436 -0.1988
  215MOL0     C28905   6.920  11.781   9.362 -0.3752  1.0392  1.3930
  215MOL0     C28906   7.025  11.852   9.443  0.5760  0.4075  0.3194
  215MOL0     N28907   7.163  11.816   9.408 -0.2591 -0.8533 -0.5888
  215MOL0     C28908   7.233  11.700   9.426 -0.2987  0.3488  0.4055
  215MOL0     C28909   7.343  11.712   9.344  0.6651  0.1234 -0.1742
  215MOL0     C28910   7.426  11.594   9.311  0.7673 -0.7544  0.4575
  215MOL0     C28911   7.399  11.559   9.166  0.5723  0.0388  0.5272
  215MOL0     C28912   7.463  11.426   9.095  0.3677 -0.3165 -0.2178
  215MOL0     C28913   7.369  11.385   8.985  0.3502  0.1546  0.4472
  215MOL0     O28914   7.247  11.328   9.046 -0.8413 -0.0688  0.0962
  215MOL0     C28915   7.147  11.277   8.971 -1.2274  0.2014 -0.3641
  215MOL0     C28916   7.162  11.232   8.840  0.0624 -0.0441  0.4629
  215MOL0     C28917   7.049  11.180   8.765  0.5113  0.4499 -1.3052
  215MOL0     C28918   7.074  11.131   8.625  0.3071 -0.5715  0.3608
  215MOL0     C28919   6.926  11.171   8.838 -0.2291 -0.4130  0.3473
  215MOL0     C28920   6.796  11.121   8.784 -0.2084  0.2879 -0.1729
  215MOL0     O28921   6.678  11.136   8.862 -0.2792 -0.4459  0.1996
  215MOL0     C28922   6.573  11.068   8.811  0.9974  0.1892  0.6486
  215MOL0     C28923   6.564  10.928   8.804 -0.4366  0.7503 -0.1581
  215MOL0     C28924   6.457  10.856   8.755  0.0237  1.3387  0.7129
  215MOL0     C28925   6.350  10.923   8.710 -0.5859  0.0767  0.2657
  215MOL0     O28926   6.255  10.871   8.632 -0.7848  0.5058  0.1746
  215MOL0     C28927   6.221  10.728   8.640 -0.0355  0.5211  0.3761
  215MOL0     C28928   6.116  10.693   8.534  0.1237 -0.7319 -0.1998
  215MOL0     C28929   5.999  10.779   8.534  0.0293 -0.8691  0.1338
  215MOL0     C28930   5.892  10.722   8.447  0.0353  0.0050  0.3396
  215MOL0     C28931   5.765  10.806   8.441  0.2005  0.2187 -0.8749
  215MOL0     C28932   5.649  10.731   8.381  0.3495  0.5755 -0.4156
  215MOL0     C28933   5.519  10.815   8.369  0.0900  0.5661 -0.7316
  215MOL0     C28934   5.428  10.724   8.283  0.1551 -0.7067  0.8554
  215MOL0    Cl28935   5.259  10.798   8.262 -0.3091 -0.2705 -0.3151
  215MOL0     C28936   6.351  11.063   8.717  0.1844 -0.1844 -0.4290
  215MOL0     C28937   6.458  11.135   8.773  0.0616  0.0696  0.6564
  215MOL0     O28938   6.796  11.062   8.675  0.3302  0.3324 -0.5222
  215MOL0     C28939   6.919  11.222   8.964  0.8627 -0.5774  0.9633
  215MOL0     C28940   7.025  11.270   9.033  0.2001 -0.1901  0.2322
  215MOL0     N28941   7.335  11.848   9.281 -0.6036  0.9026 -0.0652
  215MOL0     N28942   7.233  11.904   9.331  0.0057 -0.0807  0.3881
  215MOL0     C28943   7.149  11.505   8.473  0.2694 -0.4970  0.1548
  215MOL0     C28944   7.254  11.421   8.432 -1.1124 -0.3265 -0.8975
  215MOL0     C28945   7.548  11.229   8.180 -1.0917  0.6495  0.1900
  215MOL0     C28946   7.512  11.128   8.090 -1.0852  0.9687  0.4315
  215MOL0     C28947   7.608  11.032   8.046 -0.6687 -0.8003 -0.4788
  215MOL0     C28948   7.730  11.022   8.114  0.4095  0.1785 -0.6094
  215MOL0     O28949   7.814  10.917   8.077 -0.1856  0.6346 -0.0161
  215MOL0     C28950   7.939  10.900   8.155  0.4548  0.4283 -0.9277
  215MOL0     C28951   7.900  10.844   8.298  0.4969 -1.0559  0.1637
  215MOL0     C28952   7.807  10.721   8.296  0.3973  1.0409  0.2371
  215MOL0     C28953   7.869  10.603   8.217  0.2197 -0.4656 -0.7025
  215MOL0     C28954   7.809  10.481   8.269 -0.4530  0.7748 -0.8605
  215MOL0     C28955   7.768  10.371   8.299  0.6549 -0.9790  0.0823
  215MOL0     C28956   7.753  11.108   8.216 -0.3224 -1.0545 -1.1183
  215MOL0     C28957   7.669  11.216   8.248 -0.2786 -0.1567 -0.1595
  215MOL0     H28958   7.485  11.655   8.344  0.7979 -1.6137 -0.9025
  215MOL0     H28959   7.297  11.810   8.410  1.6738 -0.8859 -3.1162
  215MOL0     H28960   7.200  11.783   8.685  0.2356 -0.9613  0.4132
  215MOL0     H28961   7.047  11.879   8.656 -0.9832 -0.8192 -0.7568
  215MOL0     H28962   6.921  11.673   8.724  0.3512  1.0216  1.5342
  215MOL0     H28963   7.064  11.578   8.767 -1.9924 -1.0944 -0.3785
  215MOL0     H28964   7.133  11.726   8.951 -0.0255  5.0178  1.2331
  215MOL0     H28965   7.004  11.840   8.920 -2.5802 -0.2979  0.0476
  215MOL0     H28966   6.831  11.697   8.962 -1.4733 -3.1167 -0.6975
  215MOL0     H28967   6.923  11.555   8.964  2.0386 -0.6891  1.9895
  215MOL0     H28968   6.898  11.588   9.189  0.4930 -0.6710  1.2960
  215MOL0     H28969   7.066  11.651   9.158  0.5214  1.9763 -3.0700
  215MOL0     H28970   7.015  11.859   9.187  1.1866 -1.4708  0.9723
  215MOL0     H28971   6.832  11.847   9.179 -0.4293 -0.4214 -0.8776
  215MOL0     H28972   6.827  11.823   9.401  0.6698  2.2394  2.7610
  215MOL0     H28973   6.928  11.677   9.396  1.9692  1.1081  1.2398
  215MOL0     H28974   6.991  11.833   9.545  0.4666 -0.2276  0.1638
  215MOL0     H28975   7.006  11.960   9.439  1.6516  0.5922 -0.6986
  215MOL0     H28976   7.192  11.612   9.475  1.0442 -0.8961 -0.6082
  215MOL0     H28977   7.531  11.621   9.307  0.8593 -1.0243  0.9310
  215MOL0     H28978   7.431  11.518   9.389  0.7011 -0.6353  0.5791
  215MOL0     H28979   7.424  11.646   9.105 -1.3903  1.6966  1.9183
  215MOL0     H28980   7.291  11.543   9.166  0.7947 -1.6045 -0.1529
  215MOL0     H28981   7.468  11.351   9.175 -1.2029 -1.2719 -0.9579
  215MOL0     H28982   7.565  11.443   9.059 -0.0308  0.7617 -0.8994
  215MOL0     H28983   7.423  11.318   8.918  0.2434 -1.4483  1.9104
  215MOL0     H28984   7.341  11.473   8.926 -0.7397 -0.9532 -0.7696
  215MOL0     H28985   7.252  11.240   8.781  0.8150 -2.7584  1.1223
  215MOL0     H28986   7.028  11.036   8.594 -0.2446 -0.3006  0.3322
  215MOL0     H28987   7.043  11.213   8.560 -1.5546  0.0471  1.9422
  215MOL0     H28988   7.179  11.145   8.600  0.4676  2.0795  2.1098
  215MOL0     H28989   6.643  10.869   8.849  0.1356  0.0460 -1.9604
  215MOL0     H28990   6.478  10.751   8.739 -2.1678  0.7726  1.2311
  215MOL0     H28991   6.313  10.673   8.619 -0.6800 -1.1301  1.6909
  215MOL0     H28992   6.189  10.702   8.741 -1.0402  0.5121  0.0718
  215MOL0     H28993   6.168  10.689   8.438 -2.7160 -2.2508 -1.7965
  215MOL0     H28994   6.067  10.596   8.543  0.5485 -0.9284 -0.0085
  215MOL0     H28995   6.036  10.876   8.498  2.3717 -1.3795  1.0316
  215MOL0     H28996   5.964  10.805   8.634  1.5584  3.1433 -0.1784
  215MOL0     H28997   5.927  10.708   8.344 -3.5824  1.2533 -1.2166
  215MOL0     H28998   5.866  10.627   8.495  1.4991  1.5316  4.6378
  215MOL0     H28999   5.798  10.888   8.375  0.8054  0.5522 -0.1779
  215MOL0     H29000   5.745  10.844   8.541  1.8105 -1.9101  0.3399
  215MOL0     H29001   5.681  10.701   8.281  2.4269 -0.8969  0.6366
  215MOL0     H29002   5.630  10.638   8.435 -1.5475  0.8945 -0.4595
  215MOL0     H29003   5.540  10.915   8.330  1.9765  1.1179  1.5022
  215MOL0     H29004   5.470  10.823   8.466  0.0482 -0.4529 -0.6548
  215MOL0     H29005   5.422  10.620   8.317 -0.6543 -1.3803 -1.1842
  215MOL0     H29006   5.474  10.716   8.183  0.5585  0.6994  0.9048
  215MOL0     H29007   6.259  11.099   8.673 -1.5867 -3.1621  0.5032
  215MOL0     H29008   6.463  11.243   8.780 -2.0140  0.2618 -0.0122
  215MOL0     H29009   6.822  11.232   9.010 -0.4449 -0.8846 -1.5809
  215MOL0     H29010   7.016  11.312   9.132 -0.9464 -1.7673  0.8455
  215MOL0     H29011   7.055  11.476   8.518  1.0438  1.7947  3.6995
  215MOL0     H29012   7.237  11.316   8.452 -2.0758 -0.7190 -3.4106
  215MOL0     H29013   7.411  11.125   8.051 -0.7110 -0.8046 -0.5156
  215MOL0     H29014   7.603  10.959   7.966 -0.2612 -0.9522 -0.3696
  215MOL0     H29015   8.010  10.830   8.110  1.3578  0.0959  0.9118
  215MOL0     H29016   7.994  10.995   8.159  0.9952  0.1331 -1.1801
  215MOL0     H29017   7.847  10.923   8.351 -3.1132 -2.7791 -0.5392
  215MOL0     H29018   7.987  10.821   8.360 -0.2500  0.6495  1.9404
  215MOL0     H29019   7.718  10.752   8.241 -0.7461 -0.7469  0.9805
  215MOL0     H29020   7.794  10.690   8.400 -0.4767 -3.0274 -0.9197
  215MOL0     H29021   7.976  10.594   8.238 -0.1901 -0.2386  1.7422
  215MOL0     H29022   7.861  10.613   8.108  3.5149  1.9368 -0.8829
  215MOL0     H29023   7.724  10.281   8.336  1.3593 -1.6350 -0.6184
  215MOL0     H29024   7.845  11.111   8.274  0.2944  0.6203 -2.1048
  215MOL0     H29025   7.692  11.284   8.329  1.8912  1.8205 -2.2870
  216MOL0     O29026   6.933   5.715   4.852  0.5170 -0.7119 -0.2746
  216MOL0     C29027   6.884   5.759   4.752  0.1143 -0.2014 -0.3124
  216MOL0     O29028   6.916   5.875   4.703 -0.1154 -0.3693  0.3614
  216MOL0     C29029   7.035   5.927   4.758  0.0872 -1.1878  0.0586
  216MOL0     C29030   7.160   5.885   4.721 -0.1471  0.9269 -0.7661
  216MOL0     C29031   7.277   5.917   4.793  0.0927  0.4612 -0.4128
  216MOL0     C29032   7.279   6.010   4.897 -0.1712 -0.0097 -0.4150
  216MOL0     O29033   7.393   6.039   4.962  0.1300 -0.0607  0.0718
  216MOL0     C29034   7.390   6.133   5.067 -0.2381  0.0296 -0.1989
  216MOL0     C29035   7.539   6.169   5.094 -0.5666  0.3816 -0.2246
  216MOL0     C29036   7.539   6.266   5.207  0.1516 -0.7307  0.3629
  216MOL0     C29037   7.665   6.339   5.207 -0.4095  0.0831  0.0469
  216MOL0     C29038   7.677   6.445   5.321 -0.7282 -0.8331  0.1701
  216MOL0     C29039   7.819   6.487   5.352  0.3995 -0.1516  0.2786
  216MOL0     C29040   7.885   6.571   5.233  0.8317  1.1065 -0.0048
  216MOL0     C29041   8.037   6.610   5.254 -0.6546 -0.5934 -0.6866
  216MOL0     N29042   8.033   6.697   5.378  0.6748 -0.3974  0.6005
  216MOL0     C29043   8.143   6.720   5.454  0.6021 -0.3552 -0.5686
  216MOL0     C29044   8.112   6.816   5.542 -0.7750  0.0772 -0.3286
  216MOL0     C29045   8.178   6.848   5.671 -0.6644 -0.0439  0.1214
  216MOL0     C29046   8.335   6.814   5.681 -0.8742 -0.2857  0.4078
  216MOL0     C29047   8.418   6.838   5.559 -0.0576  1.3491 -0.2415
  216MOL0     C29048   8.419   6.985   5.524  0.5151 -0.4118 -0.6975
  216MOL0     O29049   8.470   7.052   5.638 -0.4681 -0.4572 -0.4082
  216MOL0     C29050   8.603   7.035   5.682 -0.6768  0.4510 -0.3465
  216MOL0     C29051   8.630   7.076   5.810  0.4407 -0.4109  0.1024
  216MOL0     C29052   8.752   7.043   5.872  0.3777 -0.1572 -0.8175
  216MOL0     C29053   8.764   7.094   6.013 -0.1554  0.4635  0.5992
  216MOL0     C29054   8.860   6.985   5.796 -0.7653  0.2813  0.3829
  216MOL0     C29055   9.004   6.969   5.850  0.0896  0.4341  0.1029
  216MOL0     O29056   9.092   6.915   5.760 -0.1252 -0.0916  0.1713
  216MOL0     C29057   9.205   6.859   5.813  0.6968  0.5405 -0.0454
  216MOL0     C29058   9.317   6.892   5.748  0.2297 -0.7574  0.0141
  216MOL0     C29059   9.431   6.823   5.779 -0.3516  0.2489 -0.2792
  216MOL0     C29060   9.445   6.732   5.885 -0.8361  0.8029  0.0492
  216MOL0     O29061   9.566   6.670   5.910 -0.1760  0.6332 -0.6309
  216MOL0     C29062   9.675   6.697   5.820  0.3503  0.3514  0.4058
  216MOL0     C29063   9.800   6.617   5.869  0.4109 -0.1128  0.6737
  216MOL0     C29064   9.822   6.644   6.018 -0.7596 -0.9686 -0.3138
  216MOL0     C29065   9.949   6.727   6.052 -0.5031  0.9536 -0.0429
  216MOL0     C29066  10.072   6.624   6.044  1.1201 -0.2387  0.0407
  216MOL0     C29067  10.209   6.685   6.072 -0.0255 -0.7599  0.0341
  216MOL0     C29068  10.254   6.750   5.941 -0.2921  0.0300  0.2915
  216MOL0     C29069  10.400   6.784   5.940 -0.4822  0.4313  0.6740
  216MOL0    Cl29070  10.495   6.630   5.981 -0.1116  0.4367  0.2918
  216MOL0     C29071   9.324   6.705   5.955 -0.0575  1.3418 -0.0153
  216MOL0     C29072   9.209   6.767   5.917  0.4396  0.8025  0.4341
  216MOL0     O29073   9.033   6.996   5.970 -0.1484  0.5041  0.5484
  216MOL0     C29074   8.828   6.957   5.661  0.2779 -0.0091  0.4151
  216MOL0     C29075   8.701   6.983   5.605 -0.9554 -0.5039  0.1115
  216MOL0     N29076   7.985   6.863   5.512  0.6902 -0.4675  0.3960
  216MOL0     N29077   7.944   6.793   5.411  0.0885  0.1348 -0.0666
  216MOL0     C29078   7.153   6.074   4.920 -0.7810  0.3563 -0.1744
  216MOL0     C29079   7.031   6.034   4.853  0.0998  0.3027  0.8890
  216MOL0     C29080   6.776   5.677   4.690 -0.4890  0.9299 -0.3950
  216MOL0     C29081   6.704   5.733   4.586  0.3648  0.9239 -0.2074
  216MOL0     C29082   6.593   5.653   4.532  0.7218 -0.7286 -0.4148
  216MOL0     C29083   6.558   5.528   4.583 -0.0392  0.0141 -0.1207
  216MOL0     O29084   6.471   5.446   4.518  0.2346 -0.3874 -0.1634
  216MOL0     C29085   6.341   5.490   4.483  0.8319  0.6973  0.7238
  216MOL0     C29086   6.315   5.443   4.333 -0.1851  0.1917 -0.4431
  216MOL0     C29087   6.329   5.289   4.320 -0.7025  0.2870 -0.3049
  216MOL0     C29088   6.252   5.195   4.415  0.9311  0.4114  0.4006
  216MOL0     C29089   6.104   5.218   4.417 -0.0607  0.0447 -0.0389
  216MOL0     C29090   5.989   5.249   4.451  0.2151  1.0293 -0.2059
  216MOL0     C29091   6.632   5.475   4.693 -0.3316  0.1544 -0.3289
  216MOL0     C29092   6.746   5.544   4.749  0.6165 -0.6311  0.0757
  216MOL0     H29093   7.182   5.809   4.647 -1.3731 -0.1633 -0.0390
  216MOL0     H29094   7.373   5.870   4.777  1.3486  2.0968  1.7789
  216MOL0     H29095   7.337   6.225   5.043 -2.6635 -0.6986  1.8787
  216MOL0     H29096   7.337   6.105   5.158 -0.4821 -2.6195 -1.0744
  216MOL0     H29097   7.615   6.096   5.123  3.8996  3.2176 -3.4492
  216MOL0     H29098   7.583   6.215   5.006 -0.0479  1.1908  0.4489
  216MOL0     H29099   7.453   6.334   5.195  0.9498  0.3555  0.5977
  216MOL0     H29100   7.529   6.212   5.302 -1.5466 -1.2531 -0.0792
  216MOL0     H29101   7.745   6.265   5.217 -1.0429 -0.8138 -1.3723
  216MOL0     H29102   7.684   6.379   5.107 -1.1917 -1.2820 -0.6718
  216MOL0     H29103   7.626   6.536   5.288 -0.2324 -0.8478 -0.6582
  216MOL0     H29104   7.632   6.411   5.415 -0.2285 -1.0184  0.3463
  216MOL0     H29105   7.811   6.556   5.436 -2.5602  0.4084 -0.3433
  216MOL0     H29106   7.875   6.399   5.387 -0.8684 -0.4105  1.8288
  216MOL0     H29107   7.876   6.519   5.137  3.7029  1.1898 -0.4108
  216MOL0     H29108   7.821   6.660   5.225 -2.6333 -1.1338  0.6127
  216MOL0     H29109   8.076   6.684   5.184 -1.1807  0.5453  0.2115
  216MOL0     H29110   8.109   6.529   5.273 -0.9482  0.1258  4.9039
  216MOL0     H29111   8.221   6.645   5.462 -1.5827 -2.5122  2.8987
  216MOL0     H29112   8.167   6.955   5.687  1.9517  0.2235  0.6137
  216MOL0     H29113   8.137   6.790   5.754 -0.9132 -0.1027 -0.0431
  216MOL0     H29114   8.349   6.710   5.712  1.1782  0.1914  1.2241
  216MOL0     H29115   8.374   6.863   5.771  0.2757 -0.6130  0.0920
  216MOL0     H29116   8.381   6.775   5.478 -1.2626  1.5708  0.1095
  216MOL0     H29117   8.517   6.802   5.588 -0.1718 -1.6641 -2.9988
  216MOL0     H29118   8.323   7.028   5.494  0.7371  1.3602  0.9645
  216MOL0     H29119   8.490   7.003   5.442  3.0771 -2.4692  0.8973
  216MOL0     H29120   8.552   7.126   5.867  1.2792  0.4209  0.5442
  216MOL0     H29121   8.662   7.122   6.044 -0.7552  1.5819 -2.0829
  216MOL0     H29122   8.801   7.015   6.078 -1.5983  0.6548  1.7182
  216MOL0     H29123   8.841   7.171   6.016  1.4428 -1.0416 -0.1763
  216MOL0     H29124   9.305   6.949   5.656 -1.6907 -0.5028  0.3941
  216MOL0     H29125   9.517   6.833   5.713 -0.2918 -1.0577 -0.4362
  216MOL0     H29126   9.654   6.660   5.719  0.7533  2.0651 -0.3616
  216MOL0     H29127   9.711   6.801   5.813 -0.6772  0.8044  1.5760
  216MOL0     H29128   9.796   6.508   5.865  1.8644 -0.4302  3.9956
  216MOL0     H29129   9.889   6.638   5.808 -0.9962 -0.5071 -1.6203
  216MOL0     H29130   9.825   6.549   6.072  2.1111  0.0402  1.5549
  216MOL0     H29131   9.740   6.694   6.071  0.1405 -0.5744  0.7305
  216MOL0     H29132   9.956   6.811   5.983 -2.4718 -0.6992 -2.4197
  216MOL0     H29133   9.940   6.756   6.157  4.5925  1.4719  0.5225
  216MOL0     H29134  10.085   6.572   5.949  2.3965 -1.0010  0.6172
  216MOL0     H29135  10.063   6.531   6.100 -1.3415  0.3811  0.7938
  216MOL0     H29136  10.199   6.752   6.159  0.3463 -1.4729  0.6356
  216MOL0     H29137  10.272   6.603   6.106  1.8795  1.5340  2.5184
  216MOL0     H29138  10.195   6.838   5.915  1.1653  0.6553 -1.0805
  216MOL0     H29139  10.247   6.681   5.856 -0.3993 -0.6233  0.8232
  216MOL0     H29140  10.421   6.851   6.024 -2.7391  0.5104  1.2460
  216MOL0     H29141  10.434   6.820   5.843 -2.8254 -1.0700 -0.8195
  216MOL0     H29142   9.307   6.633   6.034 -0.4775 -0.0302 -1.3120
  216MOL0     H29143   9.121   6.757   5.980  0.8074  0.0205  0.8412
  216MOL0     H29144   8.904   6.923   5.593  0.6284 -1.9120  1.6851
  216MOL0     H29145   8.703   6.956   5.500  1.8501  0.1099 -0.0820
  216MOL0     H29146   7.132   6.152   4.992  0.2776  1.1192 -0.6627
  216MOL0     H29147   6.936   6.068   4.895 -1.1795  0.0595 -1.6147
  216MOL0     H29148   6.724   5.834   4.551 -0.4633  1.9901  2.1497
  216MOL0     H29149   6.534   5.701   4.454 -2.1514 -2.2831  0.6356
  216MOL0     H29150   6.257   5.452   4.542 -0.1272  5.6351  2.9913
  216MOL0     H29151   6.330   5.598   4.489 -0.7297  0.5588  0.9273
  216MOL0     H29152   6.389   5.491   4.268  1.6041 -1.9247 -0.0892
  216MOL0     H29153   6.223   5.482   4.289  1.7396  4.0594 -1.5456
  216MOL0     H29154   6.435   5.264   4.328  0.1792  2.8773 -2.3776
  216MOL0     H29155   6.305   5.260   4.217 -0.9429  1.7809 -0.6878
  216MOL0     H29156   6.291   5.196   4.517  1.9959  2.7082  0.0314
  216MOL0     H29157   6.258   5.090   4.384  0.7889  0.6727 -0.5176
  216MOL0     H29158   5.891   5.261   4.493  1.3710 -0.2105  3.1763
  216MOL0     H29159   6.607   5.375   4.728 -2.1734  0.6904 -0.0274
  216MOL0     H29160   6.797   5.494   4.831  3.4612  0.3274 -1.0033
  217MOL0     O29161   1.249   6.606   4.473 -0.6193  0.5774  0.3137
  217MOL0     C29162   1.177   6.502   4.462 -0.1421  0.0048  0.7259
  217MOL0     O29163   1.228   6.374   4.439 -0.1883  0.1331 -0.0338
  217MOL0     C29164   1.364   6.377   4.409  0.3107 -0.7598 -0.1692
  217MOL0     C29165   1.390   6.368   4.273  0.1419  0.6931  0.2964
  217MOL0     C29166   1.525   6.378   4.233  1.6819  0.3586  0.1419
  217MOL0     C29167   1.623   6.405   4.318  1.0351  0.0370  0.7155
  217MOL0     O29168   1.748   6.412   4.259  0.3277 -0.5940  0.2487
  217MOL0     C29169   1.858   6.431   4.345  0.3119  0.1705 -0.2280
  217MOL0     C29170   1.983   6.370   4.281 -0.1295  0.4765 -0.2277
  217MOL0     C29171   1.969   6.216   4.242  0.5570 -0.6653 -0.4690
  217MOL0     C29172   2.104   6.171   4.195  0.5150  0.6657  0.2591
  217MOL0     C29173   2.088   6.045   4.103 -0.4010  0.3861 -0.1589
  217MOL0     C29174   2.228   5.992   4.087  0.1986 -0.4213 -1.0753
  217MOL0     C29175   2.255   5.900   3.964  0.9216 -0.1761 -0.4715
  217MOL0     C29176   2.216   5.754   3.992 -0.9417  0.6910 -0.5871
  217MOL0     N29177   2.317   5.661   3.930  0.2440  0.7331 -0.3239
  217MOL0     C29178   2.333   5.638   3.793  0.3375 -0.2929 -0.0689
  217MOL0     C29179   2.424   5.537   3.778 -0.0155 -0.4854  0.5699
  217MOL0     C29180   2.492   5.485   3.653 -0.6531 -0.3655 -0.6320
  217MOL0     C29181   2.641   5.459   3.686  0.4328  0.5305  0.1985
  217MOL0     C29182   2.716   5.418   3.546  0.4519 -0.7969 -1.3268
  217MOL0     C29183   2.674   5.286   3.469  0.1621  0.2726 -0.7043
  217MOL0     O29184   2.670   5.292   3.325 -0.4869 -0.2432  0.9322
  217MOL0     C29185   2.785   5.306   3.248  0.0560 -0.1321  0.7489
  217MOL0     C29186   2.917   5.309   3.295 -0.0437  0.6673 -0.1911
  217MOL0     C29187   3.028   5.327   3.210 -0.1662 -0.8516  0.3391
  217MOL0     C29188   3.170   5.302   3.261 -1.0518  0.2394 -0.9522
  217MOL0     C29189   3.007   5.337   3.073 -0.1175 -0.6913 -0.4233
  217MOL0     C29190   3.113   5.361   2.976  1.0390  0.3116  0.1575
  217MOL0     O29191   3.109   5.295   2.861  0.1703  0.2516  0.1460
  217MOL0     C29192   3.226   5.283   2.785 -0.7938  0.5481  0.2699
  217MOL0     C29193   3.361   5.306   2.820  0.2772  0.3659 -1.1572
  217MOL0     C29194   3.463   5.291   2.716 -0.4279  0.3691 -0.5706
  217MOL0     C29195   3.436   5.234   2.591  0.0708 -0.2278 -0.8474
  217MOL0     O29196   3.536   5.199   2.508 -0.1369 -0.4983 -0.0142
  217MOL0     C29197   3.521   5.284   2.391  0.2317  0.0367  0.1874
  217MOL0     C29198   3.658   5.303   2.328  0.3539 -0.7202 -0.1937
  217MOL0     C29199   3.760   5.379   2.414 -0.0075  0.6891 -0.8480
  217MOL0     C29200   3.843   5.291   2.512 -0.6244 -0.1422  0.2240
  217MOL0     C29201   3.943   5.388   2.576 -0.5292 -0.2752  0.1897
  217MOL0     C29202   4.006   5.335   2.713  0.3608 -0.9589 -0.1789
  217MOL0     C29203   4.094   5.217   2.692 -0.2836  0.2593  0.4284
  217MOL0     C29204   4.112   5.147   2.831 -0.2707  0.1658 -0.0977
  217MOL0    Cl29205   3.953   5.074   2.876  0.3212  0.1357  0.1549
  217MOL0     C29206   3.306   5.215   2.563 -0.0455  0.1814  0.3110
  217MOL0     C29207   3.201   5.239   2.654 -0.1692  1.5339 -0.1782
  217MOL0     O29208   3.190   5.445   3.004 -0.1203  0.0840  0.7694
  217MOL0     C29209   2.876   5.324   3.020  0.0932 -0.3766 -0.4433
  217MOL0     C29210   2.765   5.326   3.108 -0.3763  0.2062 -0.0165
  217MOL0     N29211   2.449   5.490   3.903  0.0743  0.0315 -0.4614
  217MOL0     N29212   2.383   5.559   3.995  0.2612 -0.7621  0.0357
  217MOL0     C29213   1.595   6.413   4.457  0.5129  0.2419  0.0054
  217MOL0     C29214   1.466   6.401   4.504  0.5242  0.1510  0.1860
  217MOL0     C29215   1.029   6.509   4.430 -0.2585 -0.2354 -0.6775
  217MOL0     C29216   0.944   6.401   4.401 -0.5614  0.2549 -0.3802
  217MOL0     C29217   0.803   6.423   4.395 -0.0435 -0.5554  0.6114
  217MOL0     C29218   0.751   6.555   4.410 -0.3091  0.6360  0.4022
  217MOL0     O29219   0.617   6.561   4.385 -0.2196 -0.3107  0.6128
  217MOL0     C29220   0.544   6.672   4.447  0.7394 -0.0913 -0.3138
  217MOL0     C29221   0.534   6.795   4.362 -0.2984  0.2627 -0.1064
  217MOL0     C29222   0.501   6.908   4.443  0.1396  0.0314  0.0990
  217MOL0     C29223   0.348   6.939   4.449  0.5813  0.9633  0.2351
  217MOL0     C29224   0.272   6.866   4.557 -0.2084  0.0160  0.3511
  217MOL0     C29225   0.222   6.805   4.651 -0.2876  0.1157  0.3253
  217MOL0     C29226   0.839   6.657   4.438  0.2767  0.7812 -0.6721
  217MOL0     C29227   0.973   6.633   4.455  1.3014 -0.1224 -0.5432
  217MOL0     H29228   1.305   6.349   4.208  0.6555 -0.3436 -0.1041
  217MOL0     H29229   1.541   6.375   4.126  1.1814 -1.2629  0.0834
  217MOL0     H29230   1.872   6.537   4.367 -0.2556 -0.1027  1.6403
  217MOL0     H29231   1.841   6.371   4.435 -2.0064 -2.6233 -2.3442
  217MOL0     H29232   2.004   6.433   4.193 -0.1831  0.6217 -0.1357
  217MOL0     H29233   2.062   6.374   4.356 -1.0084 -0.5744  0.7666
  217MOL0     H29234   1.937   6.144   4.318 -2.3675  0.4246 -0.5293
  217MOL0     H29235   1.899   6.206   4.158  0.7804 -2.3799 -0.4947
  217MOL0     H29236   2.145   6.254   4.136 -0.9162  0.4922 -1.0442
  217MOL0     H29237   2.155   6.157   4.291 -1.2416 -1.0545  0.9883
  217MOL0     H29238   2.019   5.966   4.135 -1.6934  2.4671  2.6323
  217MOL0     H29239   2.046   6.082   4.009 -2.2469 -0.5315  0.2451
  217MOL0     H29240   2.305   6.069   4.079 -0.7092  1.4215  3.8379
  217MOL0     H29241   2.244   5.928   4.174  0.6527 -2.8591 -2.8526
  217MOL0     H29242   2.199   5.934   3.876  0.6534  0.8189  0.0730
  217MOL0     H29243   2.363   5.899   3.946  0.8486 -4.0568 -1.8005
  217MOL0     H29244   2.116   5.734   3.952 -0.5283 -1.2504 -0.7856
  217MOL0     H29245   2.225   5.728   4.098 -0.0737 -1.0225 -1.0396
  217MOL0     H29246   2.293   5.690   3.707  1.2502  1.5704  0.5786
  217MOL0     H29247   2.436   5.398   3.618 -5.0965  2.5332 -1.4617
  217MOL0     H29248   2.487   5.563   3.577  0.9123  0.8011  0.3953
  217MOL0     H29249   2.643   5.386   3.767 -0.7996  0.2762  0.0240
  217MOL0     H29250   2.697   5.545   3.725  1.3827 -1.0420  2.5415
  217MOL0     H29251   2.826   5.417   3.548  0.4546 -1.6626  0.9683
  217MOL0     H29252   2.691   5.502   3.481  0.4076  1.0360  0.8958
  217MOL0     H29253   2.574   5.253   3.498  0.6505 -0.2823  0.3917
  217MOL0     H29254   2.738   5.203   3.500 -1.5562  0.0205  2.5770
  217MOL0     H29255   2.927   5.276   3.398  2.4464 -1.1324 -0.9054
  217MOL0     H29256   3.223   5.389   3.301 -2.0090 -0.7891  3.0019
  217MOL0     H29257   3.166   5.235   3.348 -0.2799  0.4181 -0.7711
  217MOL0     H29258   3.228   5.248   3.186  0.5853 -0.2262  0.5736
  217MOL0     H29259   3.389   5.342   2.918  0.8586  0.7831 -1.4723
  217MOL0     H29260   3.562   5.309   2.758 -0.6405 -0.1026  0.1645
  217MOL0     H29261   3.453   5.235   2.321 -0.5055  0.2879  0.7074
  217MOL0     H29262   3.479   5.382   2.415 -2.2282 -0.1784 -2.6900
  217MOL0     H29263   3.692   5.201   2.307 -0.0001 -0.5792 -1.5673
  217MOL0     H29264   3.629   5.355   2.236 -1.7871 -1.9953 -0.3308
  217MOL0     H29265   3.706   5.457   2.469 -0.5344 -1.2233  1.5482
  217MOL0     H29266   3.828   5.430   2.346  0.4621 -2.2844 -2.8251
  217MOL0     H29267   3.787   5.248   2.596  0.6874 -1.4182  0.4830
  217MOL0     H29268   3.891   5.204   2.467 -1.7824 -0.4732 -0.4202
  217MOL0     H29269   3.889   5.481   2.600  0.7911  0.6857 -0.4294
  217MOL0     H29270   4.027   5.405   2.509  0.6147  0.5044  1.7552
  217MOL0     H29271   4.071   5.418   2.742 -0.0060 -0.3176 -1.1683
  217MOL0     H29272   3.932   5.334   2.793  2.4205 -0.5735  1.8439
  217MOL0     H29273   4.190   5.255   2.657  1.1772 -0.0032  3.7574
  217MOL0     H29274   4.055   5.154   2.611  1.1271  1.4307 -1.2213
  217MOL0     H29275   4.148   5.220   2.904 -0.7611  1.4385 -1.0952
  217MOL0     H29276   4.191   5.072   2.823 -1.0277 -1.1757  3.2398
  217MOL0     H29277   3.278   5.181   2.463 -0.9531  1.2691  0.1660
  217MOL0     H29278   3.098   5.228   2.622 -0.6598  4.7757  0.0181
  217MOL0     H29279   2.869   5.324   2.911 -0.9742  1.9731 -0.4334
  217MOL0     H29280   2.665   5.318   3.066 -2.0494  0.3076  3.5201
  217MOL0     H29281   1.671   6.445   4.528 -0.2711  1.4877  0.3121
  217MOL0     H29282   1.425   6.414   4.604  0.6921  2.3904  0.0205
  217MOL0     H29283   0.987   6.302   4.394 -1.3942 -0.1489  0.1476
  217MOL0     H29284   0.747   6.334   4.368  3.8276 -3.0775  0.1048
  217MOL0     H29285   0.448   6.626   4.474 -0.2284  0.8053 -2.0341
  217MOL0     H29286   0.596   6.700   4.539 -2.3160 -1.4586  2.0068
  217MOL0     H29287   0.456   6.791   4.287 -0.9817  0.8903  0.5457
  217MOL0     H29288   0.629   6.823   4.314  0.8237 -0.4562  1.5827
  217MOL0     H29289   0.559   6.997   4.418 -1.0558  1.4909  2.1811
  217MOL0     H29290   0.535   6.892   4.546 -1.0657 -2.9762  0.1247
  217MOL0     H29291   0.304   6.922   4.350 -2.1087 -0.5320  1.5626
  217MOL0     H29292   0.337   7.046   4.469  1.8896  1.2521 -0.4922
  217MOL0     H29293   0.175   6.758   4.735  0.2302 -1.8786 -0.4444
  217MOL0     H29294   0.798   6.757   4.449 -1.8785  0.4802 -4.1663
  217MOL0     H29295   1.022   6.728   4.475  0.6381 -0.0951  1.1343
  218MOL0     O29296   0.396   5.364   6.160  0.1277  0.6558 -0.1424
  218MOL0     C29297   0.394   5.441   6.064  0.2147  0.3486 -0.8605
  218MOL0     O29298   0.491   5.527   6.040 -0.2230  0.3210 -0.2136
  218MOL0     C29299   0.570   5.567   6.144  1.0426 -0.6166  0.4010
  218MOL0     C29300   0.700   5.604   6.113  0.0182  0.1264 -0.4453
  218MOL0     C29301   0.789   5.660   6.208 -0.2946  0.2562  0.0844
  218MOL0     C29302   0.756   5.684   6.339 -0.2187  0.3903  1.1419
  218MOL0     O29303   0.852   5.729   6.427 -1.1054 -0.0147 -0.6868
  218MOL0     C29304   0.844   5.675   6.561 -0.2162  1.6081 -0.7172
  218MOL0     C29305   0.788   5.771   6.659 -0.2287  0.7038  0.7040
  218MOL0     C29306   0.725   5.709   6.776 -0.8149 -0.2035 -0.9809
  218MOL0     C29307   0.640   5.815   6.842 -0.9502  0.9085  0.7536
  218MOL0     C29308   0.524   5.758   6.928  0.2806  0.2455 -0.3209
  218MOL0     C29309   0.455   5.860   7.016  0.5219  0.2122 -0.3120
  218MOL0     C29310   0.335   5.782   7.076  0.2241 -0.3289  0.5877
  218MOL0     C29311   0.381   5.665   7.164  0.1613  0.2222 -0.1667
  218MOL0     N29312   0.281   5.619   7.261  0.5963  0.7954 -0.5232
  218MOL0     C29313   0.142   5.652   7.238 -0.0327 -0.0050 -0.0589
  218MOL0     C29314   0.078   5.635   7.355  0.1055 -0.6002  0.4804
  218MOL0     C29315  -0.071   5.631   7.384  0.4614  0.0763 -0.0882
  218MOL0     C29316  -0.140   5.760   7.342 -1.0035 -0.6582  0.0549
  218MOL0     C29317  -0.126   5.866   7.460 -0.9214 -0.8897  0.4833
  218MOL0     C29318  -0.194   5.836   7.588  1.1056 -0.4083 -0.0382
  218MOL0     O29319  -0.217   5.965   7.649 -0.0355  0.1229 -0.2175
  218MOL0     C29320  -0.351   6.002   7.669  0.9959 -0.5166  1.3557
  218MOL0     C29321  -0.392   6.137   7.656 -0.6489  0.5373 -0.3524
  218MOL0     C29322  -0.518   6.179   7.687 -0.6040 -0.6708 -1.2101
  218MOL0     C29323  -0.544   6.332   7.659 -0.6434 -0.2086  1.2767
  218MOL0     C29324  -0.609   6.094   7.761  0.1639  0.2492  0.0993
  218MOL0     C29325  -0.748   6.125   7.800  0.8196  0.5163  0.1896
  218MOL0     O29326  -0.786   6.249   7.783  0.0935 -0.9261  0.1178
  218MOL0     C29327  -0.918   6.283   7.812 -0.2076 -0.6453  0.3433
  218MOL0     C29328  -0.951   6.335   7.939 -0.4980 -0.2778 -0.0215
  218MOL0     C29329  -1.081   6.375   7.969 -0.6923  0.6792  0.4946
  218MOL0     C29330  -1.187   6.350   7.875  0.2439 -0.0039  0.1086
  218MOL0     O29331  -1.319   6.388   7.898 -0.3657  0.3350  0.3106
  218MOL0     C29332  -1.343   6.485   7.992  0.1338 -0.9729 -0.1026
  218MOL0     C29333  -1.492   6.515   7.969 -0.9918  0.1469 -0.4763
  218MOL0     C29334  -1.565   6.591   8.083 -0.4967 -0.0197 -0.6042
  218MOL0     C29335  -1.493   6.719   8.122 -0.4259  0.2229 -0.3906
  218MOL0     C29336  -1.543   6.789   8.242 -0.2711  0.0907  0.6806
  218MOL0     C29337  -1.662   6.872   8.215 -0.1310  0.3319  0.6606
  218MOL0     C29338  -1.716   6.934   8.346  0.2272  0.3198  0.2511
  218MOL0     C29339  -1.782   7.070   8.317 -0.4186  0.0069 -0.3397
  218MOL0    Cl29340  -1.964   7.047   8.278 -0.1390  0.6597  0.3779
  218MOL0     C29341  -1.159   6.268   7.766  0.0153  0.0079 -0.0725
  218MOL0     C29342  -1.025   6.240   7.729  0.3922 -0.0139  0.2845
  218MOL0     O29343  -0.823   6.035   7.852  0.1616  0.2697 -0.2071
  218MOL0     C29344  -0.570   5.966   7.786 -0.5643 -0.2199 -0.0804
  218MOL0     C29345  -0.443   5.915   7.736  0.3241 -0.6833 -0.9966
  218MOL0     N29346   0.180   5.585   7.444 -0.7255  0.4515  0.8981
  218MOL0     N29347   0.296   5.570   7.386  0.5022 -0.2342 -0.1480
  218MOL0     C29348   0.619   5.656   6.362  0.2177 -0.5487 -0.7017
  218MOL0     C29349   0.525   5.607   6.273  0.5938  1.8690 -0.1202
  218MOL0     C29350   0.287   5.413   5.965 -0.6641  1.6272 -0.0436
  218MOL0     C29351   0.187   5.315   5.975  0.0322  0.0631  0.0903
  218MOL0     C29352   0.101   5.284   5.861 -0.3048 -0.1056 -0.0695
  218MOL0     C29353   0.116   5.354   5.740  0.0204  0.3001  0.2503
  218MOL0     O29354   0.014   5.324   5.646  0.6038  0.3008  0.8178
  218MOL0     C29355   0.013   5.382   5.514  0.6706 -0.5635  0.8397
  218MOL0     C29356   0.084   5.285   5.417 -0.2242  0.6349  0.1006
  218MOL0     C29357   0.102   5.349   5.275  0.1723  0.8819 -0.4619
  218MOL0     C29358   0.181   5.480   5.264 -0.1851  0.4593 -0.1106
  218MOL0     C29359   0.308   5.455   5.331  0.2422 -0.3757  0.5816
  218MOL0     C29360   0.407   5.455   5.396  0.0929  0.1765 -0.4208
  218MOL0     C29361   0.224   5.444   5.731  0.7442 -0.2037 -0.7327
  218MOL0     C29362   0.305   5.475   5.841  0.2027 -0.7132 -1.1347
  218MOL0     H29363   0.740   5.594   6.012 -0.2310 -2.9589 -0.3143
  218MOL0     H29364   0.891   5.660   6.171 -0.1974 -0.4104  0.3363
  218MOL0     H29365   0.789   5.581   6.557  2.1307  0.1914 -1.8873
  218MOL0     H29366   0.945   5.654   6.598  0.4289  4.0411 -0.9169
  218MOL0     H29367   0.870   5.837   6.691  0.4795  0.5185 -0.6404
  218MOL0     H29368   0.702   5.812   6.605 -0.1161 -1.3624 -1.1681
  218MOL0     H29369   0.672   5.616   6.755  1.0244 -2.2716  2.5799
  218MOL0     H29370   0.799   5.684   6.852  0.5301  2.1801 -1.4174
  218MOL0     H29371   0.713   5.871   6.901  0.5059  1.3457 -1.3719
  218MOL0     H29372   0.596   5.889   6.775 -2.4309 -0.1179  0.5392
  218MOL0     H29373   0.450   5.704   6.869  1.5200 -1.9516  0.0227
  218MOL0     H29374   0.566   5.681   6.993 -1.0516  1.0701  1.6057
  218MOL0     H29375   0.523   5.902   7.090 -1.3119  2.5124  0.1626
  218MOL0     H29376   0.417   5.939   6.951 -1.1314  0.6773  1.1310
  218MOL0     H29377   0.276   5.853   7.135 -1.4266  0.4353 -1.8169
  218MOL0     H29378   0.266   5.734   7.007 -2.2693  1.0796  1.9784
  218MOL0     H29379   0.469   5.691   7.223  1.4838  1.8180 -2.6820
  218MOL0     H29380   0.420   5.580   7.108  3.2373 -0.3637  2.5884
  218MOL0     H29381   0.097   5.688   7.147  2.6164  0.6791 -1.1940
  218MOL0     H29382  -0.123   5.552   7.329  1.6488 -1.9013  1.5001
  218MOL0     H29383  -0.095   5.604   7.487 -1.0220 -2.4351 -1.0016
  218MOL0     H29384  -0.244   5.738   7.319 -1.5552  1.7539 -0.0461
  218MOL0     H29385  -0.096   5.807   7.253 -1.5890  2.0093  1.0761
  218MOL0     H29386  -0.168   5.961   7.426  2.8664  1.5598  2.0341
  218MOL0     H29387  -0.019   5.884   7.473 -0.7075  0.7472 -2.6584
  218MOL0     H29388  -0.130   5.777   7.654  2.9066  2.0975  0.6009
  218MOL0     H29389  -0.284   5.777   7.569  1.0158 -0.9666  1.9017
  218MOL0     H29390  -0.316   6.214   7.645 -0.3642  0.4698  1.0532
  218MOL0     H29391  -0.462   6.381   7.605 -3.4254  0.6103 -2.6255
  218MOL0     H29392  -0.629   6.344   7.591  1.6491  0.9184 -1.6149
  218MOL0     H29393  -0.568   6.381   7.753 -0.0153  1.8364  0.4333
  218MOL0     H29394  -0.872   6.361   8.009  1.4445 -1.7250 -1.5492
  218MOL0     H29395  -1.095   6.428   8.063  0.4513  1.4800  0.2234
  218MOL0     H29396  -1.336   6.444   8.093 -2.3208  0.5448  0.7777
  218MOL0     H29397  -1.285   6.576   7.976  0.5684 -1.7369 -3.7416
  218MOL0     H29398  -1.486   6.578   7.880  0.7942  1.0271  0.2317
  218MOL0     H29399  -1.535   6.415   7.953  2.7844 -1.8565  0.7740
  218MOL0     H29400  -1.569   6.525   8.170  0.3775  1.6460  0.7562
  218MOL0     H29401  -1.669   6.616   8.059 -1.6546 -3.8219 -0.1684
  218MOL0     H29402  -1.387   6.698   8.138  0.3858  2.6234 -2.1494
  218MOL0     H29403  -1.508   6.788   8.039  0.0835  0.6115 -0.1616
  218MOL0     H29404  -1.460   6.853   8.275  3.4406 -2.7271 -2.2688
  218MOL0     H29405  -1.568   6.711   8.314  0.0462 -2.0142 -1.3807
  218MOL0     H29406  -1.637   6.948   8.141  1.1484 -0.0512  0.6827
  218MOL0     H29407  -1.738   6.807   8.171  1.5467 -1.2727  0.0032
  218MOL0     H29408  -1.632   6.948   8.414  0.8183 -1.3123 -0.1016
  218MOL0     H29409  -1.786   6.869   8.400 -1.4357  0.8608 -1.1606
  218MOL0     H29410  -1.734   7.116   8.231 -2.0592  0.0313 -1.2872
  218MOL0     H29411  -1.785   7.137   8.404  1.2411  1.0389 -1.0327
  218MOL0     H29412  -1.245   6.233   7.709 -0.5379 -0.3855  0.9699
  218MOL0     H29413  -0.990   6.195   7.637  2.5623  1.3987  0.3571
  218MOL0     H29414  -0.622   5.895   7.850  2.7423 -2.0785  0.7875
  218MOL0     H29415  -0.414   5.811   7.751  0.4131 -0.4833  0.3608
  218MOL0     H29416   0.578   5.688   6.457  1.5772 -1.2650  0.1527
  218MOL0     H29417   0.418   5.597   6.292  0.7742  0.8191  0.3771
  218MOL0     H29418   0.185   5.252   6.063  2.1495 -2.1887 -1.3391
  218MOL0     H29419   0.037   5.198   5.877  0.0597 -0.0362  2.1344
  218MOL0     H29420  -0.081   5.399   5.462  1.7483 -0.4753 -1.1675
  218MOL0     H29421   0.060   5.481   5.522  0.4761 -0.5128  1.4845
  218MOL0     H29422   0.018   5.200   5.397  1.3314 -0.1935 -1.9548
  218MOL0     H29423   0.180   5.253   5.459 -0.6332 -1.3302 -0.3875
  218MOL0     H29424   0.000   5.357   5.237 -1.6089 -1.8656  3.1688
  218MOL0     H29425   0.163   5.275   5.222 -2.7376 -2.5222  0.6011
  218MOL0     H29426   0.119   5.560   5.307 -2.8545  0.1344 -3.0294
  218MOL0     H29427   0.194   5.511   5.160 -0.7758 -1.3854 -0.7682
  218MOL0     H29428   0.487   5.459   5.467  1.4157  2.1381 -1.9569
  218MOL0     H29429   0.242   5.502   5.640  0.6289  1.3487  0.1913
  218MOL0     H29430   0.368   5.564   5.840  1.0221 -1.1833  1.4806
  219MOL0     O29431   1.053   1.733   0.255 -0.0486  0.3401  0.1909
  219MOL0     C29432   1.001   1.831   0.306  0.0858 -0.0511  0.0609
  219MOL0     O29433   1.057   1.956   0.310  0.7039  0.4060 -0.1497
  219MOL0     C29434   1.177   1.989   0.245  0.3859 -0.1162  0.0997
  219MOL0     C29435   1.282   1.900   0.216 -1.1121 -0.0286  0.3277
  219MOL0     C29436   1.404   1.955   0.179  0.1036 -0.2595  0.3777
  219MOL0     C29437   1.431   2.091   0.181  0.2776 -0.0254 -1.1771
  219MOL0     O29438   1.542   2.155   0.155 -0.1985 -0.6957  0.2212
  219MOL0     C29439   1.663   2.084   0.190 -0.7681 -0.3913  0.0143
  219MOL0     C29440   1.764   2.175   0.253 -0.6309 -0.1514  1.0082
  219MOL0     C29441   1.851   2.247   0.139  0.2206 -0.0632 -0.0520
  219MOL0     C29442   1.936   2.347   0.204 -0.0684 -0.1315 -0.4745
  219MOL0     C29443   2.053   2.391   0.110  0.5094  0.6260  0.4877
  219MOL0     C29444   2.113   2.521   0.148  0.0317 -0.4458 -0.3699
  219MOL0     C29445   2.205   2.593   0.043  0.2627 -0.2813 -0.1130
  219MOL0     C29446   2.345   2.530   0.031 -0.9063  0.0023 -0.8316
  219MOL0     N29447   2.429   2.556   0.152  1.2834  0.0938  0.6189
  219MOL0     C29448   2.481   2.459   0.234  0.3470  0.2354 -0.5358
  219MOL0     C29449   2.572   2.519   0.310 -0.7332  0.6622  0.6093
  219MOL0     C29450   2.664   2.462   0.409  0.4710  0.1338 -0.5628
  219MOL0     C29451   2.630   2.491   0.555  0.6640 -0.6262  0.1142
  219MOL0     C29452   2.658   2.639   0.602 -0.5640  0.0044  0.4710
  219MOL0     C29453   2.651   2.640   0.756  0.2670  0.4944 -0.3448
  219MOL0     O29454   2.520   2.581   0.794  0.5375  0.0544  0.5581
  219MOL0     C29455   2.414   2.669   0.787 -0.0586 -0.7539  0.4972
  219MOL0     C29456   2.418   2.795   0.848 -0.1804  0.1448 -0.4781
  219MOL0     C29457   2.307   2.876   0.851  0.3333  0.8258 -0.8429
  219MOL0     C29458   2.304   2.996   0.943  0.5518 -0.0031  0.0335
  219MOL0     C29459   2.192   2.832   0.787 -1.0691  0.6489 -0.8770
  219MOL0     C29460   2.064   2.900   0.805  0.4177  0.2764 -0.8452
  219MOL0     O29461   2.037   2.920   0.941 -0.2091 -0.8157  0.6635
  219MOL0     C29462   1.907   2.923   0.994  0.8933  0.1121 -0.2326
  219MOL0     C29463   1.789   2.874   0.927  0.3144  0.4351 -0.1534
  219MOL0     C29464   1.661   2.888   0.985 -0.0873  0.0641 -0.7305
  219MOL0     C29465   1.651   2.954   1.107 -0.0288  0.2367  0.3284
  219MOL0     O29466   1.520   2.969   1.151 -0.1935 -0.7466 -0.3862
  219MOL0     C29467   1.497   2.928   1.285 -0.5174 -0.4412 -0.0314
  219MOL0     C29468   1.340   2.916   1.299 -0.6257 -0.0978  0.3215
  219MOL0     C29469   1.287   2.923   1.441 -0.9132 -0.1044 -0.7015
  219MOL0     C29470   1.136   2.933   1.455 -0.4160 -0.3327 -0.3413
  219MOL0     C29471   1.062   3.060   1.391  0.3410  0.3907 -0.5885
  219MOL0     C29472   0.904   3.058   1.394 -1.0982 -0.2551 -0.0616
  219MOL0     C29473   0.835   3.021   1.528 -1.1400 -0.1625 -0.1441
  219MOL0     C29474   0.690   3.006   1.511  0.2605  0.0955 -0.1563
  219MOL0    Cl29475   0.625   3.166   1.508  0.5952  0.1613 -0.4907
  219MOL0     C29476   1.759   2.999   1.171  0.0942 -1.3869 -0.6440
  219MOL0     C29477   1.884   2.986   1.119 -0.0651  0.0993  0.1229
  219MOL0     O29478   1.987   2.929   0.715  0.1163  0.1659 -0.0315
  219MOL0     C29479   2.186   2.707   0.718 -0.3258 -0.5021 -0.1076
  219MOL0     C29480   2.295   2.630   0.725  0.2122  0.1170 -0.0083
  219MOL0     N29481   2.574   2.651   0.268 -0.1694  0.6565 -0.2734
  219MOL0     N29482   2.488   2.670   0.179  0.6080  0.3623 -0.5338
  219MOL0     C29483   1.328   2.176   0.207 -0.1538 -0.3202  0.5395
  219MOL0     C29484   1.207   2.123   0.244  0.5795  0.3244  0.1213
  219MOL0     C29485   0.858   1.826   0.358 -0.0608  0.9599  0.7332
  219MOL0     C29486   0.775   1.922   0.411 -0.1148  0.3077  1.2092
  219MOL0     C29487   0.644   1.904   0.448  0.2269 -0.2274 -1.1046
  219MOL0     C29488   0.583   1.779   0.444  0.0697 -0.4193 -0.4401
  219MOL0     O29489   0.450   1.772   0.477  0.0545  0.0916 -0.2042
  219MOL0     C29490   0.396   1.642   0.486 -0.6646  0.0458  0.1957
  219MOL0     C29491   0.294   1.627   0.593  0.7475  0.7707 -0.1185
  219MOL0     C29492   0.365   1.636   0.731 -0.4352  0.4540  0.1001
  219MOL0     C29493   0.290   1.560   0.837 -0.1691  0.2881 -0.0568
  219MOL0     C29494   0.306   1.595   0.976  0.0419  0.1924 -0.1754
  219MOL0     C29495   0.302   1.602   1.097  0.4119 -0.8401  0.6094
  219MOL0     C29496   0.665   1.684   0.389 -0.7531  0.3990 -0.6919
  219MOL0     C29497   0.793   1.702   0.342  0.5987 -0.1293 -0.5243
  219MOL0     H29498   1.258   1.794   0.214 -1.3831  0.0410 -0.1161
  219MOL0     H29499   1.490   1.897   0.148  2.2817  1.9754  1.8085
  219MOL0     H29500   1.652   2.012   0.271  0.4932  0.5808  1.0828
  219MOL0     H29501   1.711   2.032   0.106 -0.3674  1.4432 -0.9444
  219MOL0     H29502   1.710   2.250   0.310 -4.8225  0.2251 -2.9219
  219MOL0     H29503   1.835   2.110   0.306 -1.1117  0.5106  2.5019
  219MOL0     H29504   1.909   2.174   0.083 -2.9267 -0.3707 -3.3133
  219MOL0     H29505   1.787   2.295   0.063  0.2599  1.0153  0.5667
  219MOL0     H29506   1.872   2.435   0.216 -1.0404 -0.8735 -0.0862
  219MOL0     H29507   1.979   2.302   0.293 -0.8514 -0.1434 -0.1015
  219MOL0     H29508   2.130   2.314   0.100 -0.5388 -0.4065  0.1018
  219MOL0     H29509   2.013   2.429   0.015 -1.8061 -1.4760  0.5178
  219MOL0     H29510   2.028   2.588   0.165  0.2681  0.0107 -0.9485
  219MOL0     H29511   2.163   2.531   0.244  0.5881 -1.1516 -0.5751
  219MOL0     H29512   2.159   2.592  -0.056  0.5491 -1.9415 -0.2614
  219MOL0     H29513   2.202   2.696   0.079  0.5825 -0.1357 -0.5008
  219MOL0     H29514   2.402   2.582  -0.046  1.0239  1.5155  1.4869
  219MOL0     H29515   2.341   2.426  -0.002  0.7547  0.2646 -2.0238
  219MOL0     H29516   2.442   2.358   0.233 -0.8921  0.7003 -1.4435
  219MOL0     H29517   2.647   2.354   0.397 -3.6764  0.6883 -1.2894
  219MOL0     H29518   2.764   2.498   0.382  0.7585 -1.1589 -1.3446
  219MOL0     H29519   2.696   2.426   0.612  0.3021 -0.3775  0.8356
  219MOL0     H29520   2.526   2.459   0.571  0.9390 -2.2348 -1.1163
  219MOL0     H29521   2.585   2.712   0.564  0.3966  1.9381  2.1744
  219MOL0     H29522   2.757   2.672   0.569 -1.4547  2.1389 -0.2927
  219MOL0     H29523   2.657   2.748   0.774  0.8847  0.4188 -0.1020
  219MOL0     H29524   2.739   2.596   0.802 -0.4044 -1.1932 -0.5994
  219MOL0     H29525   2.514   2.829   0.886 -0.6164  0.3190  0.5004
  219MOL0     H29526   2.406   3.035   0.953 -0.1214  2.3104 -1.1892
  219MOL0     H29527   2.240   3.073   0.898 -0.4136  0.0447  1.4193
  219MOL0     H29528   2.269   2.977   1.045 -1.2281 -0.0860 -0.5505
  219MOL0     H29529   1.799   2.819   0.834 -0.5460  1.0842 -0.6342
  219MOL0     H29530   1.572   2.865   0.928 -0.9958 -3.2323  1.6995
  219MOL0     H29531   1.547   2.833   1.302  3.1266  0.6130 -3.3009
  219MOL0     H29532   1.538   2.994   1.362  2.4578  0.2540 -2.0220
  219MOL0     H29533   1.299   2.994   1.235  2.1012  0.4456 -0.9029
  219MOL0     H29534   1.325   2.815   1.262  1.7372 -0.0285 -1.0046
  219MOL0     H29535   1.334   3.005   1.495  2.9822 -1.1953 -2.0863
  219MOL0     H29536   1.322   2.829   1.485  0.0317 -0.6153 -2.4899
  219MOL0     H29537   1.101   2.849   1.395  1.5271 -0.2662 -1.6462
  219MOL0     H29538   1.114   2.923   1.561 -0.3484  0.5716 -0.2306
  219MOL0     H29539   1.101   3.088   1.292 -2.3763 -0.6232 -2.0640
  219MOL0     H29540   1.090   3.144   1.455  1.8904 -0.5458  0.0027
  219MOL0     H29541   0.865   3.150   1.349  0.1447  0.1268 -0.3897
  219MOL0     H29542   0.880   2.983   1.318  3.4783 -0.8277 -1.2243
  219MOL0     H29543   0.859   3.097   1.604 -2.6699 -0.8405  1.0738
  219MOL0     H29544   0.877   2.924   1.554  1.0150  0.6931 -0.2135
  219MOL0     H29545   0.646   2.940   1.586  3.2483 -2.8936 -0.7934
  219MOL0     H29546   0.667   2.962   1.414 -1.0797  1.6646 -0.5884
  219MOL0     H29547   1.736   3.037   1.270  1.5428  1.3653 -1.2479
  219MOL0     H29548   1.969   3.039   1.160  0.0988 -0.4376  0.4848
  219MOL0     H29549   2.092   2.675   0.674 -0.9894 -1.4006  1.8514
  219MOL0     H29550   2.285   2.531   0.681 -2.1751  0.0757  0.4860
  219MOL0     H29551   1.350   2.281   0.223  3.8284 -0.8977 -0.1237
  219MOL0     H29552   1.129   2.181   0.292 -0.4033  0.7852 -1.9230
  219MOL0     H29553   0.818   2.022   0.409  0.3903  0.0944 -0.8915
  219MOL0     H29554   0.589   1.995   0.465  0.5027 -0.1195 -0.7793
  219MOL0     H29555   0.340   1.630   0.393 -0.2832  0.8292 -0.1385
  219MOL0     H29556   0.463   1.558   0.504 -1.5680 -0.1070  3.6581
  219MOL0     H29557   0.234   1.538   0.574 -1.0480  2.0336 -0.7119
  219MOL0     H29558   0.215   1.703   0.596  1.5774  1.6562  0.1656
  219MOL0     H29559   0.367   1.741   0.762 -0.7291  0.6022 -0.3723
  219MOL0     H29560   0.471   1.609   0.727  0.1514  1.9450  2.9079
  219MOL0     H29561   0.308   1.453   0.828 -3.3524 -0.2301 -1.7171
  219MOL0     H29562   0.184   1.559   0.811  0.3350 -0.3630 -2.2689
  219MOL0     H29563   0.283   1.609   1.203 -2.5048 -3.4686  0.3983
  219MOL0     H29564   0.638   1.580   0.373  0.3872  0.0870 -0.6624
  219MOL0     H29565   0.849   1.620   0.299  3.1107  0.6491  1.0077
  220MOL0     O29566   5.112   3.221   9.743 -0.3924 -0.2142 -0.0213
  220MOL0     C29567   5.052   3.222   9.638 -0.1893 -0.4605  0.4980
  220MOL0     O29568   5.107   3.196   9.516  1.0233  0.1145  0.0487
  220MOL0     C29569   5.235   3.147   9.495 -0.9797  0.0002 -0.1257
  220MOL0     C29570   5.256   3.018   9.460 -0.3273  0.3904 -0.2144
  220MOL0     C29571   5.388   2.982   9.420  0.1523 -0.1203 -0.0439
  220MOL0     C29572   5.505   3.073   9.419 -0.2664  0.0647  0.6330
  220MOL0     O29573   5.633   3.037   9.377  0.6525  0.0808 -1.2554
  220MOL0     C29574   5.725   3.125   9.313 -0.5063 -0.3052  0.2157
  220MOL0     C29575   5.669   3.161   9.172 -0.1715 -0.6597 -0.5503
  220MOL0     C29576   5.622   3.043   9.083 -0.1760  0.6733 -0.2782
  220MOL0     C29577   5.713   2.920   9.075  0.1794 -0.2089 -0.1144
  220MOL0     C29578   5.658   2.815   8.979 -0.6722 -0.2149  0.4376
  220MOL0     C29579   5.776   2.716   8.963  1.2486  0.0459 -0.0350
  220MOL0     C29580   5.754   2.595   8.868 -0.7453 -0.2180  0.1277
  220MOL0     C29581   5.698   2.460   8.931 -0.2508 -0.6506  0.4964
  220MOL0     N29582   5.794   2.402   9.026  0.6670  1.1302 -0.5322
  220MOL0     C29583   5.760   2.358   9.154 -0.2002  0.5360  0.5537
  220MOL0     C29584   5.874   2.306   9.204 -0.5948  0.1836 -0.0294
  220MOL0     C29585   5.896   2.232   9.323 -0.4767  0.0056  0.2050
  220MOL0     C29586   5.847   2.311   9.444  0.0355  0.4312 -0.0038
  220MOL0     C29587   5.893   2.232   9.567  0.5940 -1.0152  0.1758
  220MOL0     C29588   5.851   2.306   9.702 -0.0822 -0.3301  0.0407
  220MOL0     O29589   5.912   2.435   9.720 -0.1244 -0.6429  0.0293
  220MOL0     C29590   5.894   2.485   9.846 -0.5153  0.2792 -0.7195
  220MOL0     C29591   5.948   2.606   9.863 -0.8231 -0.0930  0.1944
  220MOL0     C29592   5.937   2.682   9.982  0.7782 -0.2771 -0.0935
  220MOL0     C29593   5.992   2.827   9.985  0.4140  0.1163 -0.0376
  220MOL0     C29594   5.867   2.621  10.091  1.3060  0.7497 -0.2834
  220MOL0     C29595   5.839   2.692  10.220  0.1159 -0.4510 -0.0991
  220MOL0     O29596   5.936   2.789  10.266  1.0930  0.2622  0.0139
  220MOL0     C29597   5.915   2.838  10.399  0.6422  0.4162 -0.6122
  220MOL0     C29598   6.032   2.851  10.481 -0.1513  0.8833  0.3373
  220MOL0     C29599   6.030   2.915  10.601 -0.0640 -0.0304  0.4053
  220MOL0     C29600   5.904   2.971  10.647 -0.5457  0.2078  0.4741
  220MOL0     O29601   5.894   3.018  10.773 -0.2559 -0.7273  0.1141
  220MOL0     C29602   6.006   3.086  10.826  0.4320 -0.1639  0.2708
  220MOL0     C29603   6.094   2.998  10.917  0.8508 -0.0206  0.1347
  220MOL0     C29604   6.009   2.927  11.032 -0.5753  0.2642  0.0526
  220MOL0     C29605   6.110   2.873  11.141  0.9596 -0.7526 -0.9571
  220MOL0     C29606   6.036   2.790  11.237 -0.1223  0.6004  0.2452
  220MOL0     C29607   6.119   2.735  11.345 -0.7627  0.6619 -0.5660
  220MOL0     C29608   6.041   2.639  11.423 -0.1241 -0.0642 -0.2316
  220MOL0     C29609   5.986   2.708  11.553  0.4651  0.0442  0.1801
  220MOL0    Cl29610   5.870   2.605  11.630  0.4455  0.1567  0.1151
  220MOL0     C29611   5.789   2.972  10.568 -0.3615 -0.2889  0.1467
  220MOL0     C29612   5.793   2.899  10.445 -0.2902  0.1873  0.9206
  220MOL0     O29613   5.762   2.632  10.297 -0.3330 -0.6726  0.4557
  220MOL0     C29614   5.812   2.491  10.069 -1.5454  0.9719  0.2117
  220MOL0     C29615   5.817   2.429   9.952 -0.6569 -0.2070  0.2640
  220MOL0     N29616   5.977   2.329   9.111  0.3607 -0.2017  0.5298
  220MOL0     N29617   5.925   2.379   9.002 -0.0218 -0.8353 -0.3155
  220MOL0     C29618   5.474   3.197   9.465  0.1047  0.6596 -0.0304
  220MOL0     C29619   5.344   3.230   9.506 -0.0854 -0.7591  0.4531
  220MOL0     C29620   4.920   3.275   9.639 -0.2124 -0.7293  1.1434
  220MOL0     C29621   4.864   3.319   9.511  0.1264  0.4608 -0.8919
  220MOL0     C29622   4.730   3.376   9.526  0.2597 -0.0267 -0.3003
  220MOL0     C29623   4.657   3.368   9.644 -0.4582 -0.5912  0.4073
  220MOL0     O29624   4.529   3.416   9.664  0.6932 -0.4227  0.2300
  220MOL0     C29625   4.464   3.496   9.561  0.0876 -0.0048 -0.1598
  220MOL0     C29626   4.391   3.394   9.477  0.0212  0.4831  0.4270
  220MOL0     C29627   4.376   3.445   9.331 -0.4810  1.0599  0.2635
  220MOL0     C29628   4.276   3.349   9.267 -0.8127  1.1934  0.2343
  220MOL0     C29629   4.135   3.385   9.290  0.2087  0.0838  0.2362
  220MOL0     C29630   4.020   3.415   9.316 -0.8707 -0.1366 -0.4544
  220MOL0     C29631   4.714   3.320   9.757  0.4083  0.5193 -0.2288
  220MOL0     C29632   4.850   3.277   9.761 -0.3716 -0.2491 -0.4443
  220MOL0     H29633   5.178   2.943   9.461  0.6641 -0.6903 -0.7349
  220MOL0     H29634   5.396   2.881   9.382 -2.7731 -1.0689  1.5760
  220MOL0     H29635   5.756   3.215   9.367  1.1064 -0.2101 -0.7968
  220MOL0     H29636   5.820   3.076   9.289  0.2743  0.5507  1.4789
  220MOL0     H29637   5.580   3.225   9.177  0.6771  0.6633 -1.7784
  220MOL0     H29638   5.744   3.220   9.120  0.0826  0.1840  0.7264
  220MOL0     H29639   5.527   3.010   9.125 -0.0408 -0.8315 -1.0853
  220MOL0     H29640   5.605   3.073   8.979  1.6635 -0.8263 -1.0770
  220MOL0     H29641   5.813   2.953   9.046  0.4636 -1.5660 -0.7379
  220MOL0     H29642   5.718   2.869   9.171  1.6085 -0.7340 -0.4500
  220MOL0     H29643   5.563   2.775   9.014 -1.9295  1.4093 -0.9513
  220MOL0     H29644   5.646   2.856   8.878  1.9602 -0.2828  0.0241
  220MOL0     H29645   5.862   2.768   8.921 -0.8267  2.1045 -2.0210
  220MOL0     H29646   5.802   2.673   9.060  0.8729 -0.3672 -0.1092
  220MOL0     H29647   5.688   2.634   8.790 -0.9368  0.9673  0.8618
  220MOL0     H29648   5.853   2.581   8.824  0.2022  0.0096  2.0857
  220MOL0     H29649   5.675   2.379   8.860  0.7155 -0.5967  0.1055
  220MOL0     H29650   5.605   2.492   8.980  0.8465  0.4933  1.8945
  220MOL0     H29651   5.663   2.346   9.202 -0.9420  2.2769 -0.4179
  220MOL0     H29652   5.855   2.131   9.310 -1.2751  0.3403  0.0353
  220MOL0     H29653   6.003   2.223   9.340 -0.2200 -2.2881 -2.0705
  220MOL0     H29654   5.740   2.330   9.447  0.0381  0.3966  2.7241
  220MOL0     H29655   5.899   2.407   9.450 -0.4213  0.6180  1.3190
  220MOL0     H29656   6.002   2.234   9.561  0.5416  2.2665 -2.2500
  220MOL0     H29657   5.857   2.129   9.566  2.2488 -1.6513  1.1155
  220MOL0     H29658   5.884   2.241   9.783 -1.9489 -0.2713  0.8704
  220MOL0     H29659   5.744   2.324   9.703 -0.2721 -1.4286  0.4640
  220MOL0     H29660   6.000   2.647   9.777  1.2945  0.2502  1.5767
  220MOL0     H29661   6.045   2.843   9.890  2.1334 -0.5193  0.7711
  220MOL0     H29662   5.908   2.896   9.999  0.8317  0.0489  4.2161
  220MOL0     H29663   6.056   2.842  10.073  1.0482 -1.4438 -0.1968
  220MOL0     H29664   6.120   2.802  10.441 -1.8008 -0.6223 -1.6708
  220MOL0     H29665   6.118   2.903  10.663 -0.0595  0.2422  0.4543
  220MOL0     H29666   6.074   3.127  10.750 -1.2846  0.7060 -0.8638
  220MOL0     H29667   5.970   3.175  10.879 -0.1303  0.1942 -0.6839
  220MOL0     H29668   6.144   2.918  10.860  4.5337  2.4289 -0.4536
  220MOL0     H29669   6.170   3.064  10.960 -0.0286 -0.4722  2.5360
  220MOL0     H29670   5.952   2.849  10.981 -0.1961  3.0542 -5.3348
  220MOL0     H29671   5.937   2.988  11.088  0.9987  3.8460 -1.5082
  220MOL0     H29672   6.196   2.829  11.090  1.2877  2.1597 -3.1450
  220MOL0     H29673   6.152   2.961  11.192 -1.7134  1.5649 -2.4286
  220MOL0     H29674   5.994   2.709  11.177 -0.1512  1.2032 -0.5608
  220MOL0     H29675   5.952   2.845  11.280  0.2552  1.4222 -0.0463
  220MOL0     H29676   6.197   2.675  11.297 -1.1328  0.0695 -0.4346
  220MOL0     H29677   6.164   2.815  11.405 -2.8633  0.1451  1.8622
  220MOL0     H29678   6.102   2.554  11.455  1.2616 -0.2268 -3.0555
  220MOL0     H29679   5.962   2.594  11.363 -0.1762 -1.1768  0.6452
  220MOL0     H29680   5.924   2.793  11.524 -2.3000 -1.6933  0.7188
  220MOL0     H29681   6.067   2.737  11.621  0.7348  1.2786 -0.6299
  220MOL0     H29682   5.700   3.017  10.611 -0.7435 -1.1020  0.2254
  220MOL0     H29683   5.710   2.888  10.375 -0.6189  0.4126  1.2757
  220MOL0     H29684   5.772   2.432  10.150  0.5630  2.8885  2.8147
  220MOL0     H29685   5.775   2.329   9.942 -0.3031 -0.4611  1.2137
  220MOL0     H29686   5.559   3.264   9.462  1.5923 -0.9409  2.8234
  220MOL0     H29687   5.324   3.334   9.528 -2.7378 -1.1872  0.2987
  220MOL0     H29688   4.911   3.318   9.414 -3.5721  1.7912 -2.8850
  220MOL0     H29689   4.666   3.402   9.443 -0.2675 -2.8508 -0.8782
  220MOL0     H29690   4.388   3.560   9.608  0.9843  1.0383 -0.1055
  220MOL0     H29691   4.531   3.564   9.509 -0.3480  1.9012  1.6367
  220MOL0     H29692   4.295   3.386   9.529  0.6255 -0.4417  1.4395
  220MOL0     H29693   4.443   3.298   9.478 -0.8297 -0.1149  4.7681
  220MOL0     H29694   4.476   3.426   9.290  1.2057 -1.0112  4.6823
  220MOL0     H29695   4.342   3.549   9.332  2.3138  2.0997  2.9183
  220MOL0     H29696   4.298   3.247   9.302 -1.6568  0.5398 -1.0434
  220MOL0     H29697   4.300   3.340   9.160 -2.1033  0.6596 -0.0357
  220MOL0     H29698   3.916   3.436   9.336 -1.4526 -0.6451 -2.7019
  220MOL0     H29699   4.649   3.309   9.843  1.3322  0.9308  0.5364
  220MOL0     H29700   4.887   3.256   9.861 -0.3634 -1.0627 -0.6102
  221MOL0     O29701   1.219   2.719   7.275  1.0377 -0.1906  0.3668
  221MOL0     C29702   1.215   2.603   7.223  0.5534  0.2390 -0.0601
  221MOL0     O29703   1.313   2.502   7.243  0.0441  0.6992  0.2848
  221MOL0     C29704   1.422   2.533   7.318 -0.6945 -1.6252 -0.5317
  221MOL0     C29705   1.507   2.647   7.279  0.6896 -0.9384  0.3619
  221MOL0     C29706   1.610   2.693   7.360  0.1899 -1.2089 -0.6205
  221MOL0     C29707   1.624   2.625   7.478 -0.2384  0.3407  0.5147
  221MOL0     O29708   1.710   2.660   7.581 -0.0801  0.0847  0.7434
  221MOL0     C29709   1.772   2.793   7.574 -0.0916 -0.0307  0.4165
  221MOL0     C29710   1.809   2.853   7.711 -0.7579  0.1282 -0.1114
  221MOL0     C29711   1.895   2.750   7.786  0.0126 -1.0919  0.0835
  221MOL0     C29712   1.997   2.807   7.889  0.2667 -0.0543 -0.2583
  221MOL0     C29713   2.128   2.842   7.821 -0.7135 -0.0205 -0.0652
  221MOL0     C29714   2.222   2.924   7.916  0.1727  0.6418  0.3535
  221MOL0     C29715   2.289   2.815   8.004 -0.0407  0.1993  0.0292
  221MOL0     C29716   2.346   2.867   8.126  1.0355  0.2924 -0.4004
  221MOL0     N29717   2.423   2.778   8.203 -0.7285 -0.3425  0.3704
  221MOL0     C29718   2.496   2.816   8.316 -0.7510  0.7699  0.0840
  221MOL0     C29719   2.561   2.702   8.361 -1.3548 -0.0499 -0.2980
  221MOL0     C29720   2.641   2.695   8.493 -0.7418 -0.3103  0.1989
  221MOL0     C29721   2.736   2.574   8.485 -0.0051 -1.2701  0.4619
  221MOL0     C29722   2.830   2.553   8.610  0.2697 -0.3432 -0.3354
  221MOL0     C29723   2.928   2.436   8.603  1.3439 -0.7185  0.8003
  221MOL0     O29724   3.000   2.394   8.724  0.1841 -0.2444 -0.2766
  221MOL0     C29725   3.135   2.392   8.716 -0.0657 -0.0632  0.0025
  221MOL0     C29726   3.209   2.443   8.824  0.3558 -0.2083  1.4862
  221MOL0     C29727   3.348   2.450   8.810  0.1527 -0.9188  0.2655
  221MOL0     C29728   3.415   2.527   8.925  0.4337 -0.6737  0.0503
  221MOL0     C29729   3.417   2.393   8.702 -0.5552 -0.8180  0.7065
  221MOL0     C29730   3.569   2.388   8.689 -0.0924  0.4828 -0.9078
  221MOL0     O29731   3.630   2.316   8.585 -0.4185 -0.3979 -1.0569
  221MOL0     C29732   3.772   2.322   8.583  0.4307  0.1551  0.0647
  221MOL0     C29733   3.836   2.437   8.549  0.1286 -0.0306 -0.4794
  221MOL0     C29734   3.970   2.449   8.556  0.3060 -1.3253  0.7995
  221MOL0     C29735   4.052   2.345   8.595  0.1085  0.0605 -0.2817
  221MOL0     O29736   4.188   2.338   8.608 -0.1395  0.6497  0.3669
  221MOL0     C29737   4.266   2.409   8.508  0.1823 -0.4188  0.1731
  221MOL0     C29738   4.265   2.347   8.366 -0.0611  0.0528  0.9892
  221MOL0     C29739   4.354   2.228   8.355  0.0225  0.1233  0.1193
  221MOL0     C29740   4.363   2.209   8.200  1.3579 -0.1569  0.6565
  221MOL0     C29741   4.456   2.101   8.160  0.2432  0.7763  0.4456
  221MOL0     C29742   4.505   2.102   8.017 -0.5959  0.5305  0.1711
  221MOL0     C29743   4.401   2.090   7.901  0.2892 -0.2101  0.2721
  221MOL0     C29744   4.322   1.955   7.916  0.1066  0.2320 -0.0790
  221MOL0    Cl29745   4.182   1.938   7.803  0.2594 -0.3339 -0.3155
  221MOL0     C29746   3.982   2.228   8.630  0.4010  0.2177  0.2197
  221MOL0     C29747   3.850   2.214   8.619  0.1221  0.1319  0.1495
  221MOL0     O29748   3.631   2.445   8.781 -0.3214  0.3523 -0.2801
  221MOL0     C29749   3.345   2.335   8.598 -0.0202 -0.1820  0.9639
  221MOL0     C29750   3.203   2.333   8.607 -0.7238 -0.1930 -0.3326
  221MOL0     N29751   2.530   2.602   8.271  0.0904  0.0426  0.2347
  221MOL0     N29752   2.456   2.654   8.173  0.1449 -0.4210 -0.0278
  221MOL0     C29753   1.549   2.511   7.509 -0.3153 -0.0126  0.7417
  221MOL0     C29754   1.449   2.466   7.425 -0.0824 -0.8521 -0.1674
  221MOL0     C29755   1.105   2.579   7.133 -0.9913  0.9363  0.0658
  221MOL0     C29756   1.000   2.669   7.109 -0.5632  1.1421  0.1751
  221MOL0     C29757   0.910   2.655   7.007 -0.3315  0.3843 -0.8584
  221MOL0     C29758   0.912   2.539   6.922 -1.2793 -0.5545  0.7031
  221MOL0     O29759   0.814   2.519   6.831 -0.0628  0.6688 -0.2787
  221MOL0     C29760   0.825   2.416   6.732 -0.3588 -0.4790 -0.4365
  221MOL0     C29761   0.763   2.284   6.786  0.2250 -0.6588  0.0255
  221MOL0     C29762   0.795   2.165   6.687  0.2436  1.0763 -0.6082
  221MOL0     C29763   0.726   2.156   6.559  1.1762 -0.3435 -0.1095
  221MOL0     C29764   0.582   2.127   6.569  0.3950 -0.8295 -0.2174
  221MOL0     C29765   0.460   2.116   6.567  0.1899  0.5080  0.2516
  221MOL0     C29766   1.010   2.444   6.956 -0.1092 -0.4284  1.0207
  221MOL0     C29767   1.101   2.460   7.058  0.3675  0.4612 -0.2070
  221MOL0     H29768   1.474   2.695   7.188 -1.6476  0.3995  1.8158
  221MOL0     H29769   1.673   2.779   7.340 -2.4611  0.8255 -0.9067
  221MOL0     H29770   1.852   2.787   7.500 -2.4367  1.0708 -2.4156
  221MOL0     H29771   1.695   2.857   7.528  1.3012 -0.8730 -3.4209
  221MOL0     H29772   1.865   2.945   7.689 -0.3420 -0.3934 -1.3512
  221MOL0     H29773   1.724   2.885   7.771  2.0972  1.1031  3.8476
  221MOL0     H29774   1.825   2.678   7.830  0.2444  0.6847  3.6941
  221MOL0     H29775   1.965   2.705   7.716  4.0885  3.3526  0.7796
  221MOL0     H29776   1.948   2.888   7.945 -0.9786 -0.2710 -0.9927
  221MOL0     H29777   2.022   2.723   7.955 -0.0575  2.0054  2.7112
  221MOL0     H29778   2.178   2.747   7.801  0.7527  1.1205 -2.2285
  221MOL0     H29779   2.101   2.883   7.723  0.2044 -1.7528 -1.0827
  221MOL0     H29780   2.304   2.978   7.868  0.9632 -2.3422 -1.9477
  221MOL0     H29781   2.162   3.002   7.965  0.7323 -1.1690  4.2698
  221MOL0     H29782   2.218   2.736   8.034 -1.9738  2.5772  2.2070
  221MOL0     H29783   2.370   2.771   7.946 -0.1116  2.5626 -1.9752
  221MOL0     H29784   2.269   2.902   8.196  2.2556 -1.0755  1.7189
  221MOL0     H29785   2.413   2.950   8.102  2.3110 -1.0556 -1.6518
  221MOL0     H29786   2.507   2.909   8.371 -1.4316  1.1655 -0.4349
  221MOL0     H29787   2.698   2.788   8.503  0.2237 -0.5270 -2.3739
  221MOL0     H29788   2.577   2.685   8.581 -1.1758 -3.2935 -0.3747
  221MOL0     H29789   2.797   2.588   8.395  0.0747  2.2604  0.8884
  221MOL0     H29790   2.671   2.487   8.483 -1.7096 -0.3835  5.1821
  221MOL0     H29791   2.755   2.549   8.689 -1.8850  1.6876 -2.1598
  221MOL0     H29792   2.900   2.635   8.628 -0.6591  0.6979 -1.3839
  221MOL0     H29793   2.997   2.471   8.526  0.3225 -0.2187  0.0754
  221MOL0     H29794   2.861   2.355   8.570 -2.7687  0.4826  5.1417
  221MOL0     H29795   3.158   2.489   8.909  1.4131  1.7819  1.1114
  221MOL0     H29796   3.358   2.571   9.007 -0.0328 -0.4206 -0.4065
  221MOL0     H29797   3.490   2.458   8.965 -0.7790 -0.5016  2.7813
  221MOL0     H29798   3.457   2.620   8.885 -0.2750  0.7219  2.3645
  221MOL0     H29799   3.769   2.521   8.537  1.0413  0.5066 -2.0996
  221MOL0     H29800   4.004   2.550   8.536  0.8219 -1.5525  0.5019
  221MOL0     H29801   4.224   2.510   8.509  0.2089 -0.3804 -1.2309
  221MOL0     H29802   4.366   2.408   8.551  0.5222  0.8719 -0.5405
  221MOL0     H29803   4.163   2.321   8.336 -0.2003 -0.0811  1.5651
  221MOL0     H29804   4.301   2.430   8.303 -1.5840 -0.7761 -1.1050
  221MOL0     H29805   4.291   2.148   8.393 -2.5355  3.0029  2.5054
  221MOL0     H29806   4.456   2.233   8.396  0.7862 -3.6225 -0.9870
  221MOL0     H29807   4.268   2.191   8.148  2.4080 -0.8620 -1.1362
  221MOL0     H29808   4.405   2.305   8.166  1.0728 -0.4562 -0.5904
  221MOL0     H29809   4.414   2.000   8.171 -0.6355  0.5473 -3.5461
  221MOL0     H29810   4.540   2.116   8.228 -0.0860 -2.9366  1.9241
  221MOL0     H29811   4.559   2.195   7.999 -0.7781  0.6394  0.1834
  221MOL0     H29812   4.580   2.024   7.998 -1.7441 -1.1216  2.0317
  221MOL0     H29813   4.447   2.093   7.801 -1.5997 -0.5610 -0.6436
  221MOL0     H29814   4.331   2.174   7.902 -1.7172 -1.7615  2.9843
  221MOL0     H29815   4.290   1.944   8.020  0.4922  0.4551  0.0691
  221MOL0     H29816   4.384   1.865   7.907 -0.1208  0.0978 -0.2869
  221MOL0     H29817   4.036   2.137   8.652  0.9874  0.3577 -0.6217
  221MOL0     H29818   3.796   2.120   8.633 -1.6875  1.2995  1.4616
  221MOL0     H29819   3.392   2.295   8.509 -0.7636  1.2241 -0.1021
  221MOL0     H29820   3.155   2.288   8.521 -1.5456 -0.0470  0.0370
  221MOL0     H29821   1.572   2.472   7.608  1.2275  1.0445  0.8398
  221MOL0     H29822   1.381   2.387   7.457 -0.5934 -1.3354 -2.3358
  221MOL0     H29823   0.988   2.761   7.166 -0.3624  0.9411  0.5448
  221MOL0     H29824   0.860   2.746   6.977  0.1764  1.4688  1.4298
  221MOL0     H29825   0.766   2.435   6.642  0.0868 -1.1531 -0.8834
  221MOL0     H29826   0.927   2.400   6.695 -0.2087 -0.2561 -0.1255
  221MOL0     H29827   0.657   2.288   6.813 -0.3134 -0.6503 -1.9119
  221MOL0     H29828   0.816   2.253   6.876 -0.9345 -1.5625  0.4271
  221MOL0     H29829   0.769   2.078   6.748 -0.2559  1.6577  0.0297
  221MOL0     H29830   0.904   2.153   6.680  0.3224 -1.4509  2.4635
  221MOL0     H29831   0.771   2.082   6.492  1.3456  0.0687 -0.4545
  221MOL0     H29832   0.739   2.255   6.514  0.0998  1.0115  2.3456
  221MOL0     H29833   0.355   2.114   6.544  0.0435  0.2447  0.9279
  221MOL0     H29834   1.008   2.356   6.893 -1.9945  1.0713 -1.2149
  221MOL0     H29835   1.167   2.374   7.064  1.3026  1.0368 -1.7857
  222MOL0     O29836   0.746   3.083   9.113 -0.6153 -0.4709  0.6927
  222MOL0     C29837   0.662   3.040   9.039 -0.0044  0.3059  0.7853
  222MOL0     O29838   0.652   2.909   9.001  0.3173 -0.0178  0.3990
  222MOL0     C29839   0.761   2.824   9.014  1.1269 -0.3246 -0.2707
  222MOL0     C29840   0.724   2.689   9.031  0.0683 -0.1661  0.3459
  222MOL0     C29841   0.817   2.585   9.045  0.0176  0.0004 -0.0320
  222MOL0     C29842   0.948   2.615   9.042 -0.9306  1.0553  0.1830
  222MOL0     O29843   1.032   2.499   9.053 -0.5802  0.0843  0.1103
  222MOL0     C29844   1.176   2.523   9.047 -0.0744  0.5159 -0.2966
  222MOL0     C29845   1.246   2.410   9.113 -0.1234 -0.4166  0.1770
  222MOL0     C29846   1.393   2.404   9.061  0.4590 -0.3414  0.6926
  222MOL0     C29847   1.478   2.517   9.121 -1.8772  0.8089  0.2035
  222MOL0     C29848   1.608   2.526   9.038 -0.5942  0.0069  0.6187
  222MOL0     C29849   1.702   2.613   9.122  0.5996 -0.8185  0.3292
  222MOL0     C29850   1.843   2.626   9.066  0.4976  0.3577  0.0088
  222MOL0     C29851   1.927   2.736   9.133 -0.3020  1.2372  0.0321
  222MOL0     N29852   1.976   2.713   9.269  0.6095 -0.7483 -0.1535
  222MOL0     C29853   1.898   2.744   9.381 -0.0156 -0.9256 -0.1418
  222MOL0     C29854   1.977   2.723   9.490 -0.3119  0.3650  0.6897
  222MOL0     C29855   1.960   2.758   9.633 -0.1469 -0.6668  0.3108
  222MOL0     C29856   1.971   2.905   9.652  1.0950 -1.1703 -0.6675
  222MOL0     C29857   1.839   2.983   9.667 -0.2586 -0.5196 -0.6442
  222MOL0     C29858   1.875   3.129   9.675 -0.5118 -0.9048  0.6875
  222MOL0     O29859   1.880   3.199   9.807  0.2171 -0.5734 -0.0852
  222MOL0     C29860   1.937   3.323   9.821 -0.3517  0.1718  0.1404
  222MOL0     C29861   1.953   3.370   9.952 -0.3857 -0.5269 -0.8751
  222MOL0     C29862   2.013   3.497   9.978 -0.7015  0.6670 -0.7148
  222MOL0     C29863   2.061   3.537  10.118 -0.6768 -0.1205  0.0610
  222MOL0     C29864   2.030   3.575   9.861 -0.0149  0.4722  0.2591
  222MOL0     C29865   2.090   3.709   9.871 -1.0051  0.5977 -0.3432
  222MOL0     O29866   2.189   3.726   9.962 -0.0774  0.0340 -0.8093
  222MOL0     C29867   2.245   3.851   9.986 -1.2163  0.0078 -0.7718
  222MOL0     C29868   2.378   3.866   9.967 -0.6354 -0.0701  0.0512
  222MOL0     C29869   2.445   3.987   9.973 -0.7189  0.0362  0.3157
  222MOL0     C29870   2.377   4.106  10.012 -0.2559  0.0665  0.1022
  222MOL0     O29871   2.439   4.228  10.026  0.1174  0.5164  0.3767
  222MOL0     C29872   2.565   4.251   9.960  0.2022  0.5863 -0.4088
  222MOL0     C29873   2.624   4.389   9.998 -0.6210 -0.5185  0.2491
  222MOL0     C29874   2.677   4.389  10.146  1.1780  0.0916 -0.3011
  222MOL0     C29875   2.824   4.331  10.160  0.4587 -0.7388 -0.3297
  222MOL0     C29876   2.856   4.341  10.313  0.3503 -0.1949  0.2844
  222MOL0     C29877   2.959   4.228  10.346  1.2525  0.2687  0.0687
  222MOL0     C29878   3.033   4.252  10.476  0.4453 -0.3977  0.6772
  222MOL0     C29879   3.119   4.126  10.508 -0.5437  0.3066 -1.4031
  222MOL0    Cl29880   3.039   3.978  10.522  0.2509 -0.2272  0.1839
  222MOL0     C29881   2.232   4.101  10.023  0.6776  0.4716  0.5994
  222MOL0     C29882   2.169   3.972  10.005 -0.7876 -0.2097 -0.3873
  222MOL0     O29883   2.038   3.798   9.804 -0.5329 -0.4780 -0.1796
  222MOL0     C29884   1.998   3.526   9.736 -0.7732 -0.2959  0.6393
  222MOL0     C29885   1.947   3.398   9.707  0.4025 -0.1135  0.3424
  222MOL0     N29886   2.097   2.674   9.432 -0.1525  0.0200  0.1214
  222MOL0     N29887   2.105   2.686   9.303 -0.0444  0.3825  0.3036
  222MOL0     C29888   0.996   2.750   9.022  0.0955 -0.0043 -0.2308
  222MOL0     C29889   0.901   2.855   9.009  0.1456  0.9888 -0.3833
  222MOL0     C29890   0.554   3.123   8.972  0.6884 -0.5679 -0.3847
  222MOL0     C29891   0.518   3.245   9.025 -0.6104  1.0910  0.1735
  222MOL0     C29892   0.410   3.316   8.970  0.0015 -0.0895  0.2266
  222MOL0     C29893   0.350   3.275   8.850 -0.4271  0.7150 -0.8100
  222MOL0     O29894   0.249   3.351   8.794  0.5286 -0.6643 -0.3271
  222MOL0     C29895   0.162   3.303   8.686 -0.7513  0.0367 -0.3891
  222MOL0     C29896   0.068   3.199   8.743 -0.0841  0.3590 -0.3132
  222MOL0     C29897  -0.008   3.128   8.623  0.3117  0.0656 -0.0719
  222MOL0     C29898  -0.050   2.986   8.653 -0.1645  0.0442  0.0110
  222MOL0     C29899  -0.102   2.978   8.790  0.1270 -0.2133 -1.3269
  222MOL0     C29900  -0.116   2.948   8.912 -0.4373 -0.3067 -0.0792
  222MOL0     C29901   0.401   3.163   8.786  0.2437 -0.6661  0.4892
  222MOL0     C29902   0.482   3.079   8.855 -0.0679 -0.0385  0.1236
  222MOL0     H29903   0.620   2.656   9.025 -0.3718  1.2330 -0.1794
  222MOL0     H29904   0.785   2.482   9.057 -1.9464  0.4467 -1.0838
  222MOL0     H29905   1.205   2.511   8.942 -1.6053 -1.5822 -0.5586
  222MOL0     H29906   1.208   2.617   9.092 -0.2395 -0.5332  2.1491
  222MOL0     H29907   1.240   2.414   9.222  0.4360  1.0908  0.1708
  222MOL0     H29908   1.198   2.322   9.069  0.4147 -0.3098 -0.6379
  222MOL0     H29909   1.446   2.316   9.099  1.3070 -1.2775 -2.3900
  222MOL0     H29910   1.385   2.390   8.953 -2.0081  2.0790  0.4436
  222MOL0     H29911   1.412   2.604   9.119 -0.5949  1.8701  2.0130
  222MOL0     H29912   1.495   2.482   9.223  0.7226  1.8610  0.2042
  222MOL0     H29913   1.654   2.428   9.020 -1.2510  0.1538 -2.5270
  222MOL0     H29914   1.592   2.576   8.942  1.5959  2.4829  1.4346
  222MOL0     H29915   1.650   2.709   9.129  0.4084 -1.0038  1.6673
  222MOL0     H29916   1.707   2.578   9.225 -0.6314 -1.1261  0.2986
  222MOL0     H29917   1.905   2.538   9.085  1.1287  0.0953 -2.7855
  222MOL0     H29918   1.851   2.649   8.959  3.3346 -1.8377 -0.3986
  222MOL0     H29919   1.862   2.824   9.133 -0.6731  0.9695  0.4110
  222MOL0     H29920   2.019   2.754   9.078  1.1860 -1.8043  1.2935
  222MOL0     H29921   1.797   2.782   9.381  1.1164  2.4801 -0.3460
  222MOL0     H29922   1.866   2.727   9.678  0.0454  1.5779  2.4589
  222MOL0     H29923   2.040   2.715   9.695  0.4872  2.2285  1.6644
  222MOL0     H29924   2.016   2.944   9.560 -2.0826  0.2114 -1.7869
  222MOL0     H29925   2.036   2.921   9.738  1.0287 -1.7153 -0.5105
  222MOL0     H29926   1.773   2.964   9.752  0.5993  1.7883  0.6168
  222MOL0     H29927   1.800   2.962   9.567  3.2030 -0.4587 -2.1756
  222MOL0     H29928   1.812   3.178   9.601 -0.6382 -3.9821 -1.4037
  222MOL0     H29929   1.973   3.145   9.629  0.5846 -5.8580  0.7385
  222MOL0     H29930   1.933   3.283  10.014  1.2134 -2.3541 -2.7656
  222MOL0     H29931   2.043   3.641  10.143 -1.1162 -0.7639  2.6981
  222MOL0     H29932   2.010   3.471  10.189 -1.8421 -2.0794 -2.4092
  222MOL0     H29933   2.167   3.526  10.140 -0.2992 -0.6735 -1.8465
  222MOL0     H29934   2.447   3.785   9.947  1.2170  1.2573  0.8565
  222MOL0     H29935   2.552   3.971   9.961 -1.1616 -1.0300 -4.1794
  222MOL0     H29936   2.629   4.170   9.997 -0.2599 -0.7412 -2.3558
  222MOL0     H29937   2.569   4.250   9.850  3.5102  1.0407 -0.3974
  222MOL0     H29938   2.710   4.395   9.932 -3.1928 -1.1042 -3.4852
  222MOL0     H29939   2.556   4.473   9.981  2.0266  2.1653  1.9279
  222MOL0     H29940   2.614   4.318  10.201 -0.1151  0.5613 -1.1251
  222MOL0     H29941   2.676   4.488  10.193 -0.7820 -0.5361  1.1261
  222MOL0     H29942   2.826   4.230  10.118 -1.6189 -1.0108  0.1437
  222MOL0     H29943   2.895   4.391  10.102 -0.9700  0.8378 -0.5192
  222MOL0     H29944   2.769   4.325  10.378 -0.7298  4.2655  0.2654
  222MOL0     H29945   2.894   4.439  10.344  1.3322  0.1709 -1.9059
  222MOL0     H29946   2.895   4.140  10.360  0.3391  1.2954  3.0678
  222MOL0     H29947   3.026   4.210  10.261  0.3819  0.5680 -0.7107
  222MOL0     H29948   2.968   4.265  10.563 -0.8546 -0.8529 -0.1914
  222MOL0     H29949   3.105   4.334  10.470  0.4856 -0.4714  0.0787
  222MOL0     H29950   3.179   4.136  10.599  1.4790 -3.2840 -2.1235
  222MOL0     H29951   3.196   4.120  10.431 -2.0594 -0.1198 -2.9552
  222MOL0     H29952   2.170   4.184  10.054  0.0266  0.1696  0.1312
  222MOL0     H29953   2.060   3.969  10.007 -0.7859 -2.9138 -0.4770
  222MOL0     H29954   2.003   3.599   9.655  1.0179 -1.7628 -0.6426
  222MOL0     H29955   1.925   3.367   9.605 -1.6205  0.0888  0.6777
  222MOL0     H29956   1.102   2.773   9.014 -0.0116  1.3224  1.5034
  222MOL0     H29957   0.931   2.957   8.986 -0.6522  0.9111 -1.9844
  222MOL0     H29958   0.562   3.276   9.119  1.5171 -2.6980  0.6431
  222MOL0     H29959   0.378   3.410   9.014 -2.3223 -0.6117 -0.2084
  222MOL0     H29960   0.109   3.385   8.636 -0.2995  1.6688  1.6206
  222MOL0     H29961   0.230   3.263   8.611 -1.6828 -0.1828 -1.1377
  222MOL0     H29962  -0.005   3.246   8.810 -1.5032 -1.0227 -0.8248
  222MOL0     H29963   0.122   3.124   8.800 -2.5382 -1.5106 -0.2612
  222MOL0     H29964   0.063   3.135   8.540  2.0859  2.4323  1.5211
  222MOL0     H29965  -0.098   3.187   8.601 -0.6085 -0.1078  2.8937
  222MOL0     H29966   0.041   2.927   8.638  0.3046  0.6146  0.5235
  222MOL0     H29967  -0.125   2.954   8.580  0.2936 -1.2518  0.0834
  222MOL0     H29968  -0.133   2.954   9.018 -0.4550  0.4098 -0.1179
  222MOL0     H29969   0.361   3.122   8.694 -1.3702 -0.3440  1.0125
  222MOL0     H29970   0.490   2.974   8.829  0.6003 -0.2594  1.1511
  223MOL0     O29971  10.403   9.351   8.314  0.3391  0.0092 -0.1029
  223MOL0     C29972  10.467   9.249   8.286 -0.4421  0.6180 -0.1442
  223MOL0     O29973  10.462   9.190   8.164 -0.2834 -0.1189  0.3024
  223MOL0     C29974  10.425   9.260   8.051 -1.1148  0.2315  0.2233
  223MOL0     C29975  10.336   9.194   7.976  0.6492  0.1946 -0.3018
  223MOL0     C29976  10.294   9.231   7.848  0.5737  0.5169 -1.6259
  223MOL0     C29977  10.339   9.357   7.796 -0.0608 -0.1664 -0.5654
  223MOL0     O29978  10.297   9.401   7.675  0.5523  0.4281  0.0510
  223MOL0     C29979  10.374   9.498   7.602 -0.2491  0.1106 -0.1437
  223MOL0     C29980  10.333   9.491   7.458  0.4570 -0.1434  0.7958
  223MOL0     C29981  10.351   9.349   7.396  0.0776  0.5022 -0.3030
  223MOL0     C29982  10.265   9.323   7.269  0.0380  0.4452  0.8570
  223MOL0     C29983  10.276   9.188   7.199 -0.2093  0.2458 -0.3647
  223MOL0     C29984  10.192   9.164   7.072 -0.6899 -0.6018  0.4065
  223MOL0     C29985  10.100   9.036   7.086  0.3582  0.5852 -0.0813
  223MOL0     C29986   9.957   9.077   7.104  0.3729 -0.4855 -0.1221
  223MOL0     N29987   9.850   8.975   7.072 -0.4744  0.4114 -0.1042
  223MOL0     C29988   9.728   8.960   7.136  0.3108  0.6716 -1.4588
  223MOL0     C29989   9.655   8.878   7.053  0.3812  0.2157  0.1314
  223MOL0     C29990   9.515   8.842   7.084 -0.1883  0.7315  0.4000
  223MOL0     C29991   9.482   8.695   7.033  0.2465  0.5794  0.7614
  223MOL0     C29992   9.332   8.698   7.035  0.0646 -0.0407 -0.8212
  223MOL0     C29993   9.288   8.564   6.973  0.5633 -0.9157 -0.5036
  223MOL0     O29994   9.148   8.574   6.988  0.0692 -0.3862  0.3447
  223MOL0     C29995   9.050   8.492   6.951  0.2276 -0.2458  0.5219
  223MOL0     C29996   9.069   8.364   6.892 -0.5150  0.5901 -0.8416
  223MOL0     C29997   8.969   8.288   6.850  0.5780 -0.0033  0.7796
  223MOL0     C29998   8.995   8.150   6.787 -0.5681 -1.0331 -0.2703
  223MOL0     C29999   8.836   8.341   6.849 -1.3391 -0.2510 -0.4779
  223MOL0     C30000   8.713   8.276   6.805 -0.4320 -0.2316  0.6931
  223MOL0     O30001   8.718   8.181   6.712  0.2455 -0.0927 -0.9050
  223MOL0     C30002   8.610   8.098   6.693  0.0107 -0.8364 -0.1158
  223MOL0     C30003   8.483   8.155   6.665  0.2155 -0.1614 -0.0243
  223MOL0     C30004   8.375   8.069   6.634 -0.3686 -0.1411  0.3857
  223MOL0     C30005   8.394   7.928   6.623 -1.0308  0.4011 -0.0757
  223MOL0     O30006   8.277   7.854   6.579 -0.7211 -0.2773 -0.5817
  223MOL0     C30007   8.300   7.715   6.548 -0.9546  0.8709 -1.4381
  223MOL0     C30008   8.177   7.650   6.502 -0.1259 -0.6113  0.2718
  223MOL0     C30009   8.165   7.671   6.349  0.3178  0.0156 -0.2087
  223MOL0     C30010   8.063   7.579   6.285  0.5951  0.1639 -0.1579
  223MOL0     C30011   8.108   7.432   6.267 -0.6185  1.2345  0.1213
  223MOL0     C30012   8.209   7.420   6.150  0.3228  0.6997 -0.2587
  223MOL0     C30013   8.220   7.270   6.124  0.9137 -0.6852 -0.9343
  223MOL0     C30014   8.317   7.242   6.010  0.1271 -0.1159 -0.4662
  223MOL0    Cl30015   8.477   7.330   6.024 -0.2825  0.3294 -0.4146
  223MOL0     C30016   8.519   7.873   6.665 -0.0902 -0.1261  0.0283
  223MOL0     C30017   8.630   7.959   6.699  0.2564 -0.3883 -0.1777
  223MOL0     O30018   8.615   8.313   6.862 -0.1767  0.3795  0.0146
  223MOL0     C30019   8.817   8.469   6.904 -0.1684 -0.5316 -0.3830
  223MOL0     C30020   8.926   8.547   6.949  0.4723 -0.6961 -0.9826
  223MOL0     N30021   9.736   8.843   6.941 -0.6904  0.2800 -0.1257
  223MOL0     N30022   9.847   8.904   6.953  0.3077 -0.2760 -0.1885
  223MOL0     C30023  10.429   9.435   7.877 -0.4142  0.4430 -0.0531
  223MOL0     C30024  10.463   9.390   8.007  1.0482  0.0363  0.2140
  223MOL0     C30025  10.543   9.175   8.396  0.0880 -0.5802 -0.1602
  223MOL0     C30026  10.585   9.044   8.372  0.8141 -0.1751 -0.2167
  223MOL0     C30027  10.662   8.974   8.470  0.2569 -0.2498  0.8485
  223MOL0     C30028  10.708   9.044   8.589  0.1224 -0.3712  0.8537
  223MOL0     O30029  10.804   8.998   8.668 -0.2045 -0.0101 -0.1045
  223MOL0     C30030  10.921   8.934   8.610  0.3106 -0.0489  0.7372
  223MOL0     C30031  11.051   8.979   8.675 -0.5219  0.4378  0.3164
  223MOL0     C30032  11.170   8.892   8.605  0.9417 -0.0792 -0.6104
  223MOL0     C30033  11.307   8.912   8.662 -0.4545 -0.6204  0.3028
  223MOL0     C30034  11.308   8.898   8.811 -0.2301 -0.5063  0.4881
  223MOL0     C30035  11.316   8.887   8.930 -0.7855 -1.0625 -0.1511
  223MOL0     C30036  10.661   9.175   8.607 -0.7993  0.5918  0.2268
  223MOL0     C30037  10.588   9.244   8.508 -0.6259  0.6255 -0.2955
  223MOL0     H30038  10.294   9.101   8.012 -2.5506  2.0076  1.0141
  223MOL0     H30039  10.222   9.169   7.796 -1.0702  2.3872 -1.7032
  223MOL0     H30040  10.351   9.602   7.628  1.8570  0.5868  0.0387
  223MOL0     H30041  10.483   9.501   7.615 -0.2409 -3.5801  1.8956
  223MOL0     H30042  10.234   9.533   7.442  0.0447 -1.6890 -1.0543
  223MOL0     H30043  10.403   9.552   7.399 -1.9831  0.5536 -1.5355
  223MOL0     H30044  10.456   9.356   7.369  0.8479  5.3738  2.7412
  223MOL0     H30045  10.342   9.270   7.472 -2.2619  1.3099  0.3639
  223MOL0     H30046  10.163   9.339   7.305 -0.2294 -0.2724  0.4595
  223MOL0     H30047  10.273   9.396   7.188  1.4484 -0.5157  0.0944
  223MOL0     H30048  10.382   9.165   7.183 -0.0203 -1.3346  2.5331
  223MOL0     H30049  10.247   9.113   7.273 -0.3662 -0.5761 -1.2354
  223MOL0     H30050  10.131   9.249   7.041 -4.4410 -3.0873  0.2960
  223MOL0     H30051  10.256   9.148   6.985 -0.4119 -0.4072  0.5719
  223MOL0     H30052  10.112   8.988   6.988 -1.4896  0.6020 -0.3512
  223MOL0     H30053  10.138   8.975   7.169 -1.6140  2.2483  2.1848
  223MOL0     H30054   9.937   9.151   7.026  0.5511 -1.1607 -0.8200
  223MOL0     H30055   9.951   9.114   7.207 -2.7699 -2.2543  0.4731
  223MOL0     H30056   9.698   9.001   7.232 -3.0293 -2.9625 -0.6942
  223MOL0     H30057   9.490   8.830   7.189 -2.1288 -1.4562 -0.2141
  223MOL0     H30058   9.456   8.917   7.031  0.7794  2.1480  1.2605
  223MOL0     H30059   9.524   8.620   7.102  0.3535 -1.6161 -1.5301
  223MOL0     H30060   9.523   8.672   6.935 -1.3311 -1.0379  0.4059
  223MOL0     H30061   9.292   8.772   6.966 -0.4909 -0.1810 -0.6513
  223MOL0     H30062   9.289   8.711   7.134 -0.1342 -3.4725 -0.3427
  223MOL0     H30063   9.327   8.480   7.031  2.4105 -0.3076 -0.8009
  223MOL0     H30064   9.324   8.563   6.870 -2.5054 -0.5738 -1.7005
  223MOL0     H30065   9.169   8.323   6.891 -0.3757  0.8504  0.3715
  223MOL0     H30066   8.952   8.147   6.687 -1.3888  0.6015  0.0019
  223MOL0     H30067   9.102   8.130   6.798  0.5861  4.2520  1.0121
  223MOL0     H30068   8.935   8.093   6.858 -1.1663  1.3332  1.2709
  223MOL0     H30069   8.477   8.263   6.672 -2.3776 -0.2707  0.5702
  223MOL0     H30070   8.277   8.109   6.609  1.2568  3.6191 -0.6222
  223MOL0     H30071   8.376   7.713   6.469  1.9759  1.7349  1.1577
  223MOL0     H30072   8.336   7.660   6.635  0.7655  0.7446 -2.1834
  223MOL0     H30073   8.188   7.542   6.512  0.4887 -0.6307 -0.5999
  223MOL0     H30074   8.091   7.690   6.557 -0.4384 -1.4472  0.3948
  223MOL0     H30075   8.263   7.661   6.302  0.2346  0.7334 -0.5570
  223MOL0     H30076   8.120   7.771   6.336  0.3137  0.8279  4.2992
  223MOL0     H30077   7.991   7.580   6.367  1.0564  0.4773  0.2490
  223MOL0     H30078   8.010   7.622   6.200  1.0135  0.5049 -0.2465
  223MOL0     H30079   8.015   7.382   6.238  0.2804 -0.1201 -0.4843
  223MOL0     H30080   8.148   7.397   6.363 -0.4334  1.4065  0.1078
  223MOL0     H30081   8.166   7.475   6.066 -0.7832  4.9617  2.7804
  223MOL0     H30082   8.308   7.459   6.177  1.7632 -2.5951 -0.3405
  223MOL0     H30083   8.124   7.228   6.092 -0.3740 -0.1981  1.9737
  223MOL0     H30084   8.239   7.207   6.211 -3.6447 -1.4606 -0.2147
  223MOL0     H30085   8.278   7.276   5.914  1.2803  0.4616 -0.7534
  223MOL0     H30086   8.338   7.135   6.017  1.3797  0.1722  0.5831
  223MOL0     H30087   8.530   7.765   6.654  3.0639  0.0976  0.1416
  223MOL0     H30088   8.731   7.923   6.712  0.4138 -0.2648 -0.9952
  223MOL0     H30089   8.724   8.525   6.903  0.7011  0.9634 -1.0461
  223MOL0     H30090   8.916   8.647   6.991  0.0252 -0.3557 -1.8867
  223MOL0     H30091  10.444   9.536   7.841  2.3372  0.2014  0.2238
  223MOL0     H30092  10.528   9.459   8.061  1.6303 -0.9528  0.8166
  223MOL0     H30093  10.552   9.000   8.278  2.3384 -3.4667  0.6252
  223MOL0     H30094  10.691   8.871   8.452 -4.1177 -1.9398  2.1087
  223MOL0     H30095  10.907   8.825   8.617 -1.4521  0.0980  0.0868
  223MOL0     H30096  10.924   8.960   8.504 -0.5151  1.0393  0.9595
  223MOL0     H30097  11.035   8.958   8.781 -2.4030  3.6723  0.7992
  223MOL0     H30098  11.085   9.082   8.662 -0.8133  0.6992  1.5161
  223MOL0     H30099  11.184   8.931   8.504 -1.9740 -2.3570 -2.0567
  223MOL0     H30100  11.139   8.787   8.602  0.1736 -0.0229  2.2496
  223MOL0     H30101  11.351   9.009   8.634  3.0126 -2.3923 -0.9440
  223MOL0     H30102  11.373   8.836   8.621 -1.0268 -1.9156  1.7063
  223MOL0     H30103  11.326   8.884   9.036  2.2963  2.6357 -0.1324
  223MOL0     H30104  10.688   9.219   8.703 -0.2801 -2.8424  1.8069
  223MOL0     H30105  10.572   9.351   8.513 -1.3413  0.5147 -0.0597
  224MOL0     O30106   9.413   7.693   6.205  0.4858  0.8489 -0.2667
  224MOL0     C30107   9.480   7.606   6.149 -0.1114  0.2703 -0.4263
  224MOL0     O30108   9.434   7.491   6.112  0.3200  0.5198  0.0242
  224MOL0     C30109   9.323   7.427   6.176 -0.9417  0.0457 -0.6930
  224MOL0     C30110   9.285   7.452   6.312 -0.0984 -0.5250  0.4712
  224MOL0     C30111   9.187   7.383   6.369 -0.0982 -0.5898 -0.3409
  224MOL0     C30112   9.098   7.306   6.291  0.4701 -0.5200  0.1337
  224MOL0     O30113   8.993   7.236   6.352 -0.1061 -0.3449 -0.0562
  224MOL0     C30114   9.004   7.211   6.491 -0.3120  0.8735  0.0280
  224MOL0     C30115   9.110   7.091   6.504  0.2975  0.8323 -0.6028
  224MOL0     C30116   9.072   6.955   6.436  0.3313  0.4676  0.7418
  224MOL0     C30117   8.951   6.875   6.491  0.4731 -0.0020 -1.1703
  224MOL0     C30118   8.914   6.772   6.385  1.0319 -0.5301  0.2418
  224MOL0     C30119   8.786   6.698   6.405 -0.9314  0.7038 -1.2325
  224MOL0     C30120   8.800   6.604   6.534 -0.2611  0.1380  0.8889
  224MOL0     C30121   8.660   6.531   6.553 -0.7790  0.3767  0.0172
  224MOL0     N30122   8.631   6.434   6.657 -0.2752  0.3461 -0.5111
  224MOL0     C30123   8.719   6.394   6.760 -1.2535  0.1726  0.8872
  224MOL0     C30124   8.677   6.271   6.801  0.4810 -0.9737  0.3089
  224MOL0     C30125   8.763   6.162   6.862  0.0732  0.0998 -0.0606
  224MOL0     C30126   8.702   6.021   6.863 -0.2202 -0.3149 -0.0103
  224MOL0     C30127   8.776   5.924   6.956 -0.3358 -0.1830  0.1718
  224MOL0     C30128   8.763   5.781   6.901 -0.1466  0.3531  0.9889
  224MOL0     O30129   8.882   5.760   6.824  0.9710  0.4195 -0.0869
  224MOL0     C30130   8.873   5.652   6.737 -0.8584  0.1253  0.8685
  224MOL0     C30131   8.781   5.637   6.627  0.4484 -0.4603 -0.2861
  224MOL0     C30132   8.779   5.524   6.540 -0.6627  0.1382 -0.4918
  224MOL0     C30133   8.675   5.527   6.428  0.0220 -0.4386  0.7861
  224MOL0     C30134   8.892   5.438   6.553 -0.7187 -0.3041  0.2526
  224MOL0     C30135   8.917   5.325   6.458  0.7512 -0.9337 -0.1603
  224MOL0     O30136   8.822   5.292   6.368  0.4906 -0.7826 -0.3912
  224MOL0     C30137   8.847   5.190   6.279  0.0793  0.1755 -0.0816
  224MOL0     C30138   8.900   5.066   6.318 -0.5285  0.0417 -0.1271
  224MOL0     C30139   8.927   4.965   6.226  0.3887 -0.2259  0.4976
  224MOL0     C30140   8.886   4.975   6.096 -0.0576 -0.4710 -0.8073
  224MOL0     O30141   8.923   4.871   6.014  0.7511 -0.2083  0.0372
  224MOL0     C30142   8.856   4.852   5.894 -0.1929 -0.6863  0.2109
  224MOL0     C30143   8.920   4.742   5.815 -0.5104  0.0790 -0.2622
  224MOL0     C30144   9.075   4.739   5.815 -0.0907 -0.1327  0.2470
  224MOL0     C30145   9.135   4.627   5.740  0.0990  0.1258  0.0635
  224MOL0     C30146   9.294   4.622   5.755 -0.2246 -0.0643 -0.2364
  224MOL0     C30147   9.351   4.758   5.675  0.1508  0.1281  1.0308
  224MOL0     C30148   9.505   4.763   5.649 -0.7938  0.7256  0.2089
  224MOL0     C30149   9.584   4.767   5.788 -0.1346  0.1315  1.0235
  224MOL0    Cl30150   9.520   4.912   5.868 -0.1960 -0.3136  0.1031
  224MOL0     C30151   8.794   5.088   6.069  0.2010  0.3721  0.4755
  224MOL0     C30152   8.786   5.197   6.151  0.3011  0.0342 -0.6312
  224MOL0     O30153   9.030   5.277   6.467  0.3741  0.1298 -1.1907
  224MOL0     C30154   8.983   5.452   6.659 -0.1527  0.6332  0.3353
  224MOL0     C30155   8.973   5.560   6.750  0.0734  1.0097 -0.5326
  224MOL0     N30156   8.548   6.261   6.743 -0.7543  0.6898  0.7052
  224MOL0     N30157   8.529   6.354   6.659  0.7369  0.2474  0.0649
  224MOL0     C30158   9.119   7.291   6.153  0.2029  0.7484  0.1341
  224MOL0     C30159   9.231   7.348   6.099 -0.1717 -0.1342 -0.1794
  224MOL0     C30160   9.631   7.635   6.132  1.0164  0.2654 -0.1293
  224MOL0     C30161   9.671   7.772   6.152  0.1240  0.5395 -0.3523
  224MOL0     C30162   9.804   7.797   6.128 -0.6773 -0.2636 -0.3881
  224MOL0     C30163   9.902   7.712   6.069  0.3518  0.4292 -0.0365
  224MOL0     O30164  10.030   7.746   6.030 -0.1472  0.6781 -0.3004
  224MOL0     C30165  10.092   7.869   6.083  0.2887  1.1257 -0.8702
  224MOL0     C30166  10.061   7.993   6.008 -0.4971 -0.4285 -0.2092
  224MOL0     C30167  10.089   7.999   5.858  0.5816  0.0526  0.3182
  224MOL0     C30168  10.238   7.991   5.818  0.0236 -0.4165 -0.5675
  224MOL0     C30169  10.304   8.120   5.856  0.3933  0.6776 -0.3202
  224MOL0     C30170  10.324   8.231   5.889 -0.2173  0.4801  0.0286
  224MOL0     C30171   9.851   7.576   6.042 -0.8184 -0.1749  0.7987
  224MOL0     C30172   9.717   7.538   6.079 -0.0804 -0.0798  0.9369
  224MOL0     H30173   9.359   7.506   6.370  2.0011 -1.1251 -1.4734
  224MOL0     H30174   9.171   7.405   6.474 -0.5719 -0.4993 -0.4314
  224MOL0     H30175   9.020   7.304   6.545  2.7148  1.8406 -2.2250
  224MOL0     H30176   8.909   7.165   6.520  0.3877 -1.3882 -0.9840
  224MOL0     H30177   9.204   7.129   6.462  1.2156  0.3554  0.9428
  224MOL0     H30178   9.127   7.089   6.612  0.3943  3.0200 -0.5375
  224MOL0     H30179   9.052   6.975   6.330 -5.3105  1.6005  1.6794
  224MOL0     H30180   9.159   6.889   6.432 -1.9824 -2.8138 -2.1225
  224MOL0     H30181   8.990   6.830   6.583 -2.9442  0.4743  0.6554
  224MOL0     H30182   8.871   6.944   6.520  1.2960  0.4638  0.0774
  224MOL0     H30183   8.895   6.818   6.287  3.2918  1.5544  0.6741
  224MOL0     H30184   9.001   6.706   6.379 -0.5784 -2.8023  0.8503
  224MOL0     H30185   8.700   6.764   6.421 -3.8247 -3.2467  1.2120
  224MOL0     H30186   8.771   6.641   6.312 -0.3240  1.3596 -1.7464
  224MOL0     H30187   8.887   6.538   6.526  0.3842  0.6186  3.1486
  224MOL0     H30188   8.824   6.663   6.623 -1.9377  0.0919  1.3977
  224MOL0     H30189   8.640   6.485   6.456 -1.9501 -0.2594  0.5286
  224MOL0     H30190   8.579   6.604   6.557 -2.9020 -1.9043  1.7031
  224MOL0     H30191   8.811   6.446   6.784 -0.6399 -0.5457  0.1395
  224MOL0     H30192   8.858   6.149   6.810  0.8983  2.3023  0.7492
  224MOL0     H30193   8.786   6.199   6.963 -0.4503 -1.2345  0.5670
  224MOL0     H30194   8.700   5.980   6.762  1.8247  1.0809 -0.6675
  224MOL0     H30195   8.598   6.043   6.890  0.4853  2.5953  0.6882
  224MOL0     H30196   8.749   5.932   7.062 -0.4597 -2.0540  0.3140
  224MOL0     H30197   8.881   5.955   6.948 -0.6423  0.7618 -0.3397
  224MOL0     H30198   8.664   5.778   6.855 -0.1704  0.4785  1.0316
  224MOL0     H30199   8.769   5.699   6.974  1.5757 -2.6958 -2.2535
  224MOL0     H30200   8.709   5.718   6.630  1.0923  0.1027  2.0812
  224MOL0     H30201   8.617   5.434   6.427 -5.1801  2.4378 -0.4496
  224MOL0     H30202   8.602   5.608   6.436 -1.6848 -2.0400  6.1711
  224MOL0     H30203   8.721   5.540   6.330 -0.2805 -0.2268  0.6710
  224MOL0     H30204   8.935   5.047   6.419 -1.4800 -1.9325 -0.1374
  224MOL0     H30205   8.969   4.870   6.259 -2.0527 -1.9575 -0.9984
  224MOL0     H30206   8.751   4.824   5.904 -0.9670  1.6217 -0.6495
  224MOL0     H30207   8.868   4.954   5.855  0.3098 -0.7840  0.0971
  224MOL0     H30208   8.872   4.647   5.841 -0.9254 -0.9904 -4.1715
  224MOL0     H30209   8.879   4.736   5.713 -0.5437 -1.1938 -0.1962
  224MOL0     H30210   9.121   4.737   5.914  2.1209  0.1881 -0.7246
  224MOL0     H30211   9.097   4.835   5.768 -0.5204 -0.3008 -0.3084
  224MOL0     H30212   9.090   4.538   5.787  2.4848 -1.4856 -0.5367
  224MOL0     H30213   9.105   4.629   5.635 -2.9854 -1.3642  0.8042
  224MOL0     H30214   9.333   4.535   5.702  2.8378  2.7480 -3.1146
  224MOL0     H30215   9.331   4.618   5.858  0.2198 -4.6174 -0.3819
  224MOL0     H30216   9.300   4.759   5.578  0.6287 -1.9366  0.7206
  224MOL0     H30217   9.321   4.850   5.728 -2.6162 -1.2036  1.9411
  224MOL0     H30218   9.524   4.853   5.590 -1.6537  0.4174 -0.5608
  224MOL0     H30219   9.527   4.678   5.584 -0.3978  3.0923 -3.0069
  224MOL0     H30220   9.691   4.781   5.773 -0.2626 -0.0274 -0.1737
  224MOL0     H30221   9.562   4.672   5.836  1.1771 -0.1450  1.1115
  224MOL0     H30222   8.740   5.102   5.976 -0.1307  0.0908  0.6240
  224MOL0     H30223   8.723   5.279   6.118 -0.8299 -0.2187  0.7661
  224MOL0     H30224   9.057   5.375   6.678 -0.0040  0.0410 -2.2746
  224MOL0     H30225   9.031   5.564   6.842 -0.3040 -1.3853 -0.1183
  224MOL0     H30226   9.061   7.217   6.099  1.4296  1.0406 -1.6393
  224MOL0     H30227   9.275   7.311   6.007  0.5261 -4.4740  1.6580
  224MOL0     H30228   9.597   7.842   6.188  0.0082 -0.7103  1.9943
  224MOL0     H30229   9.840   7.896   6.156  0.6675 -0.1327 -2.4196
  224MOL0     H30230  10.056   7.878   6.186 -0.2289 -2.3557 -0.6220
  224MOL0     H30231  10.201   7.856   6.085  0.4558  2.3778 -0.9447
  224MOL0     H30232  10.113   8.081   6.049 -2.9062  0.6464  0.7049
  224MOL0     H30233   9.959   8.028   6.028  0.2670  1.5231  0.5410
  224MOL0     H30234  10.049   8.097   5.833  0.4914 -0.5528 -2.1584
  224MOL0     H30235  10.032   7.928   5.796 -1.4640  1.1963  0.8203
  224MOL0     H30236  10.259   7.977   5.712  2.8157  1.6258 -0.3930
  224MOL0     H30237  10.292   7.925   5.886  0.1102  2.1020  2.0200
  224MOL0     H30238  10.349   8.332   5.915  1.0000 -0.0132  0.8099
  224MOL0     H30239   9.929   7.517   5.995 -0.5921  2.6167 -2.7162
  224MOL0     H30240   9.687   7.435   6.067 -3.9125  0.8782  0.9826
  225MOL0     O30241   7.097   4.273  10.664  0.5606  0.1775  0.4986
  225MOL0     C30242   7.120   4.275  10.785  0.1539  0.3386  0.1515
  225MOL0     O30243   7.222   4.339  10.843 -0.5354 -0.6875  0.0746
  225MOL0     C30244   7.308   4.422  10.763  0.3212  0.4860 -0.0558
  225MOL0     C30245   7.394   4.372  10.660  0.2172 -0.3358  0.0171
  225MOL0     C30246   7.493   4.455  10.591  0.9415 -0.0859  0.2735
  225MOL0     C30247   7.523   4.586  10.644 -0.6320 -0.2491  0.4350
  225MOL0     O30248   7.633   4.659  10.602 -0.4489  0.1939 -1.3118
  225MOL0     C30249   7.687   4.645  10.464 -0.7541  0.1544  0.4682
  225MOL0     C30250   7.798   4.745  10.423 -1.0610 -0.0392  0.2024
  225MOL0     C30251   7.933   4.709  10.505 -0.1944 -0.3586  0.9909
  225MOL0     C30252   8.044   4.796  10.449 -0.8758 -0.3863  0.3457
  225MOL0     C30253   8.159   4.815  10.548  0.1520  0.4485 -0.3873
  225MOL0     C30254   8.111   4.876  10.684 -0.5244  0.5468  0.0736
  225MOL0     C30255   8.223   4.933  10.769 -0.3878  0.2970 -0.0781
  225MOL0     C30256   8.331   4.825  10.808  1.2087  0.0008 -0.3357
  225MOL0     N30257   8.297   4.697  10.869 -0.5594 -0.3924 -0.6173
  225MOL0     C30258   8.262   4.678  11.007  0.3947  0.4342  0.8643
  225MOL0     C30259   8.226   4.543  11.008  0.3384 -0.3140  0.9267
  225MOL0     C30260   8.181   4.465  11.126 -0.3700 -0.2045 -0.1627
  225MOL0     C30261   8.271   4.489  11.251 -1.8026 -0.9896 -0.4753
  225MOL0     C30262   8.218   4.436  11.379  1.2719 -0.7955 -0.5132
  225MOL0     C30263   8.322   4.444  11.482 -0.2091  0.2228  0.2129
  225MOL0     O30264   8.337   4.586  11.519  0.4430 -0.2458 -0.3745
  225MOL0     C30265   8.261   4.631  11.618 -0.0617  0.3452 -0.5261
  225MOL0     C30266   8.167   4.734  11.599  0.0388 -0.0057 -0.5307
  225MOL0     C30267   8.080   4.788  11.704  0.0068  0.4225  1.7591
  225MOL0     C30268   7.997   4.909  11.668  0.8912  0.2555  0.3903
  225MOL0     C30269   8.085   4.734  11.836  0.6052  0.5054 -0.2767
  225MOL0     C30270   7.986   4.755  11.947 -0.2194 -0.1238  0.3709
  225MOL0     O30271   8.037   4.730  12.067  0.2444  0.1498 -1.4296
  225MOL0     C30272   7.952   4.707  12.173  0.5986  0.2452 -0.7457
  225MOL0     C30273   7.943   4.580  12.226 -0.3403  0.0438  0.8848
  225MOL0     C30274   7.860   4.540  12.329 -0.1319  0.2611  0.2854
  225MOL0     C30275   7.790   4.644  12.385 -0.2402 -0.0871 -0.8256
  225MOL0     O30276   7.698   4.626  12.487  0.2120  1.0020 -0.0682
  225MOL0     C30277   7.670   4.490  12.524  0.1863  0.2608 -0.0009
  225MOL0     C30278   7.555   4.485  12.625 -0.1693 -0.3961 -1.4663
  225MOL0     C30279   7.432   4.554  12.571  0.6640  0.2097  0.3885
  225MOL0     C30280   7.304   4.536  12.662  0.2607 -0.4874  0.4856
  225MOL0     C30281   7.329   4.560  12.805 -0.0684 -0.4497  0.3974
  225MOL0     C30282   7.380   4.711  12.844 -0.0502  0.1798  0.6270
  225MOL0     C30283   7.401   4.723  12.999  0.1682  0.4698 -0.1701
  225MOL0     C30284   7.442   4.861  13.042  0.5348 -0.4068  0.0884
  225MOL0    Cl30285   7.319   4.981  13.031 -0.0908 -0.3253  0.1040
  225MOL0     C30286   7.800   4.775  12.344  0.2996 -0.4086  0.4655
  225MOL0     C30287   7.880   4.807  12.238 -0.9466  0.1877  0.0649
  225MOL0     O30288   7.874   4.801  11.921 -0.5301  0.2000 -0.2995
  225MOL0     C30289   8.181   4.631  11.852  0.3756 -1.2534  1.5660
  225MOL0     C30290   8.262   4.575  11.750 -0.0739 -0.5379 -0.3021
  225MOL0     N30291   8.234   4.494  10.881  0.8126  0.2388  0.4197
  225MOL0     N30292   8.266   4.584  10.798 -0.1367  0.6387 -0.2463
  225MOL0     C30293   7.435   4.631  10.751 -1.1432 -0.1214 -0.5910
  225MOL0     C30294   7.335   4.545  10.812  0.1706  0.3759 -0.2137
  225MOL0     C30295   7.035   4.209  10.877  0.4336 -0.2701 -0.6965
  225MOL0     C30296   6.911   4.156  10.830 -0.3346 -0.3954 -0.7004
  225MOL0     C30297   6.830   4.088  10.918 -0.4073  0.2576  0.2936
  225MOL0     C30298   6.857   4.081  11.059 -1.0137 -0.3977  1.8531
  225MOL0     O30299   6.781   3.993  11.133  0.3175 -0.0140 -0.6113
  225MOL0     C30300   6.780   4.007  11.280 -0.1407 -0.4714 -0.8867
  225MOL0     C30301   6.653   3.936  11.332  0.2221  0.6905  0.7469
  225MOL0     C30302   6.671   3.881  11.478 -0.3789 -0.3686 -0.4278
  225MOL0     C30303   6.542   3.796  11.512 -0.0633  0.5996 -0.2022
  225MOL0     C30304   6.542   3.753  11.652  0.0706  0.0329  0.0295
  225MOL0     C30305   6.550   3.731  11.769  0.7536  0.8496  0.6862
  225MOL0     C30306   6.976   4.134  11.108  0.5873 -0.1958 -0.1529
  225MOL0     C30307   7.057   4.197  11.020 -1.0668  0.1791  0.1554
  225MOL0     H30308   7.381   4.268  10.633  2.1230  0.1162 -3.2806
  225MOL0     H30309   7.550   4.413  10.509  3.0890  0.4816  1.4080
  225MOL0     H30310   7.731   4.545  10.459 -1.2892 -0.0566 -0.2050
  225MOL0     H30311   7.603   4.657  10.394 -0.7340  1.8013  0.6856
  225MOL0     H30312   7.811   4.758  10.316 -0.0544 -1.9510  0.0479
  225MOL0     H30313   7.763   4.840  10.466  0.8322 -0.5799  3.3024
  225MOL0     H30314   7.920   4.731  10.611  1.3779 -1.3428  1.4138
  225MOL0     H30315   7.952   4.602  10.498  3.2885  0.1992  0.1666
  225MOL0     H30316   8.090   4.752  10.360  2.0579 -0.7248  1.9044
  225MOL0     H30317   7.994   4.889  10.422 -2.4010 -1.5959 -1.2175
  225MOL0     H30318   8.197   4.716  10.576  0.3366  0.7327  0.3825
  225MOL0     H30319   8.238   4.875  10.502 -0.8234  2.1655  0.0960
  225MOL0     H30320   8.050   4.964  10.658  1.3191  1.2412 -2.2253
  225MOL0     H30321   8.057   4.800  10.741 -1.5073 -1.6765 -3.4597
  225MOL0     H30322   8.276   5.012  10.716  3.6016 -1.2030  1.2765
  225MOL0     H30323   8.181   4.979  10.859 -1.5103 -1.9543  0.6296
  225MOL0     H30324   8.404   4.866  10.879  1.6473 -0.5018 -0.4957
  225MOL0     H30325   8.385   4.803  10.716  1.3571 -2.9748  0.3855
  225MOL0     H30326   8.254   4.747  11.090 -3.2838  0.1113  0.9612
  225MOL0     H30327   8.081   4.505  11.143 -0.2406  0.3828 -0.7694
  225MOL0     H30328   8.174   4.358  11.103 -0.7050  0.0521 -1.2918
  225MOL0     H30329   8.306   4.592  11.262  2.7238 -2.2460 -0.9750
  225MOL0     H30330   8.363   4.437  11.222 -0.6109  0.6246  0.2025
  225MOL0     H30331   8.180   4.333  11.377 -1.6089  0.1915 -0.8441
  225MOL0     H30332   8.140   4.500  11.420  2.0975  1.0038 -1.6330
  225MOL0     H30333   8.416   4.414  11.436 -0.0224  1.9479 -0.6444
  225MOL0     H30334   8.295   4.381  11.567  0.4468  0.2312  0.4328
  225MOL0     H30335   8.165   4.782  11.502  0.9939  0.3515 -0.3876
  225MOL0     H30336   8.051   4.969  11.594  0.0794  3.5276  2.2976
  225MOL0     H30337   7.899   4.879  11.631  0.5183  1.2492  0.5620
  225MOL0     H30338   7.990   4.974  11.755 -2.7073 -0.2404  0.5958
  225MOL0     H30339   8.006   4.500  12.189 -2.1354 -0.6149 -0.8980
  225MOL0     H30340   7.856   4.435  12.359  3.0911  0.0435  0.3485
  225MOL0     H30341   7.632   4.432  12.439 -2.4691 -0.4363  1.5280
  225MOL0     H30342   7.759   4.433  12.553  0.0020 -0.1521 -0.2231
  225MOL0     H30343   7.536   4.381  12.655 -0.4411  0.1013  0.1985
  225MOL0     H30344   7.583   4.536  12.717 -1.5042 -1.4730 -0.4067
  225MOL0     H30345   7.413   4.533  12.465  0.9125  2.3911 -0.1348
  225MOL0     H30346   7.460   4.660  12.567 -1.1723  0.7222 -3.2009
  225MOL0     H30347   7.235   4.612  12.624  1.0878  0.8561  1.5627
  225MOL0     H30348   7.263   4.436  12.645  0.9394 -0.2962 -3.1976
  225MOL0     H30349   7.403   4.485  12.835  0.1385 -0.3449  0.1564
  225MOL0     H30350   7.239   4.545  12.864 -0.7675  1.3345 -0.1274
  225MOL0     H30351   7.474   4.738  12.794  0.5032  0.4590  1.7824
  225MOL0     H30352   7.302   4.779  12.808 -1.0185 -2.0697 -1.8502
  225MOL0     H30353   7.472   4.648  13.033 -2.0776 -1.4072  0.6343
  225MOL0     H30354   7.307   4.693  13.046  1.4136  1.0975  2.9667
  225MOL0     H30355   7.521   4.895  12.974 -0.6580  0.7991 -0.7518
  225MOL0     H30356   7.495   4.868  13.137  0.6793 -2.2577  0.1783
  225MOL0     H30357   7.741   4.854  12.388 -0.4169  0.6006 -2.0932
  225MOL0     H30358   7.881   4.909  12.201 -1.2717  1.2297  2.7217
  225MOL0     H30359   8.194   4.586  11.950 -0.1853  0.7702  2.6134
  225MOL0     H30360   8.336   4.501  11.780 -1.5367 -0.9732  2.5589
  225MOL0     H30361   7.459   4.724  10.802 -3.5082 -0.3325  1.1075
  225MOL0     H30362   7.272   4.582  10.892 -0.3229 -0.3532 -0.2541
  225MOL0     H30363   6.878   4.150  10.727  1.0522 -1.0804 -1.1213
  225MOL0     H30364   6.742   4.039  10.877 -0.1885  2.0515 -2.6077
  225MOL0     H30365   6.866   3.958  11.326 -0.8944  0.4494  1.6452
  225MOL0     H30366   6.787   4.113  11.306  1.5783 -0.3356 -1.7592
  225MOL0     H30367   6.624   3.859  11.260  1.1246  0.9819  0.0504
  225MOL0     H30368   6.571   4.008  11.332  0.0820  0.7502 -3.5014
  225MOL0     H30369   6.679   3.964  11.549 -0.2409 -0.3508 -0.4638
  225MOL0     H30370   6.763   3.824  11.491  0.6126  1.4241  0.9068
  225MOL0     H30371   6.545   3.702  11.456 -0.6768 -0.0168  0.7781
  225MOL0     H30372   6.449   3.852  11.507 -0.5325 -0.1851 -0.4250
  225MOL0     H30373   6.538   3.712  11.874 -0.1530  0.9037  0.5978
  225MOL0     H30374   6.996   4.127  11.214 -1.8283 -2.7672  0.2484
  225MOL0     H30375   7.155   4.230  11.052  0.0689 -1.3801 -1.4952
  226MOL0     O30376   5.251   1.191   7.798  0.9138  0.1835 -0.2033
  226MOL0     C30377   5.243   1.286   7.713 -0.7589 -0.1996 -0.0732
  226MOL0     O30378   5.325   1.397   7.711  0.1137 -0.5548 -0.4478
  226MOL0     C30379   5.408   1.419   7.816 -1.4937  0.4411 -0.2188
  226MOL0     C30380   5.550   1.393   7.810  0.3055 -0.4288  0.2862
  226MOL0     C30381   5.629   1.410   7.924 -0.2543  0.5028 -0.2198
  226MOL0     C30382   5.561   1.457   8.046 -0.8911 -0.3810 -0.3002
  226MOL0     O30383   5.635   1.471   8.164 -0.1708 -0.7308  0.2251
  226MOL0     C30384   5.610   1.366   8.267  0.7519 -0.7211 -0.2930
  226MOL0     C30385   5.725   1.265   8.281  0.4534 -0.1272 -0.4467
  226MOL0     C30386   5.824   1.320   8.388  0.7070  0.9456 -0.8035
  226MOL0     C30387   5.962   1.266   8.380 -0.4842  0.6854 -0.6007
  226MOL0     C30388   6.052   1.328   8.490  0.7024 -0.4616 -0.8085
  226MOL0     C30389   6.011   1.310   8.627  0.0685 -0.3682 -0.5946
  226MOL0     C30390   5.956   1.438   8.695 -0.8936  0.1205 -0.0678
  226MOL0     C30391   5.937   1.418   8.837 -0.5511  1.2610  0.3437
  226MOL0     N30392   5.881   1.543   8.910  0.3729  0.7657  0.8758
  226MOL0     C30393   5.955   1.659   8.937 -0.0354  0.1922 -1.3836
  226MOL0     C30394   5.871   1.730   9.023 -1.0718  0.4130 -0.3262
  226MOL0     C30395   5.916   1.855   9.097 -0.2873 -0.2445  0.4699
  226MOL0     C30396   5.944   1.971   8.997  0.0061  0.4149 -0.6345
  226MOL0     C30397   5.835   1.977   8.883  0.1569  0.0058  0.2998
  226MOL0     C30398   5.867   2.086   8.780 -0.0963  0.1806 -0.5791
  226MOL0     O30399   5.773   2.072   8.673  0.0148 -0.4086 -0.1087
  226MOL0     C30400   5.773   2.157   8.564  0.1340  0.7603 -0.1889
  226MOL0     C30401   5.808   2.284   8.571  0.1849 -0.8330  0.3611
  226MOL0     C30402   5.802   2.362   8.455  0.3439 -0.0189  0.2204
  226MOL0     C30403   5.826   2.514   8.470  0.4484  0.1116 -1.2676
  226MOL0     C30404   5.787   2.308   8.323  0.3300 -0.2946  0.3536
  226MOL0     C30405   5.789   2.382   8.194 -0.5831 -0.6182 -0.0859
  226MOL0     O30406   5.793   2.310   8.079  0.1410  0.3247 -0.0678
  226MOL0     C30407   5.784   2.374   7.957 -1.2325  0.4377 -0.3292
  226MOL0     C30408   5.661   2.417   7.903  0.9088  0.3851  0.5672
  226MOL0     C30409   5.646   2.465   7.764 -0.3090  0.2755  0.1337
  226MOL0     C30410   5.759   2.475   7.681 -0.7122 -0.9949 -0.4609
  226MOL0     O30411   5.749   2.513   7.550 -0.2873  0.5951  0.1452
  226MOL0     C30412   5.864   2.490   7.463 -0.2318 -0.1082 -0.2154
  226MOL0     C30413   5.822   2.540   7.325  0.0349  0.2994 -0.0095
  226MOL0     C30414   5.831   2.692   7.305 -1.1967  0.3533  0.0426
  226MOL0     C30415   5.970   2.745   7.254 -0.1540  0.1430  0.2093
  226MOL0     C30416   6.008   2.687   7.114  0.0499  0.3738 -0.1654
  226MOL0     C30417   5.893   2.707   7.015 -0.8266 -0.0894  1.0024
  226MOL0     C30418   5.953   2.700   6.873  0.2941 -0.4196  0.7135
  226MOL0     C30419   5.837   2.690   6.775 -0.2084 -0.1560  0.7844
  226MOL0    Cl30420   5.737   2.829   6.778  0.1654  0.0339 -0.1829
  226MOL0     C30421   5.882   2.434   7.733 -0.5071 -0.6639 -0.5979
  226MOL0     C30422   5.893   2.371   7.866  1.2221  1.1810 -0.0116
  226MOL0     O30423   5.777   2.503   8.198  0.3910 -0.6076 -0.0061
  226MOL0     C30424   5.754   2.172   8.321  0.3490  0.5172  0.1327
  226MOL0     C30425   5.740   2.095   8.447 -1.2149  0.1069  0.4198
  226MOL0     N30426   5.760   1.658   9.056 -0.6544 -0.3682  0.8150
  226MOL0     N30427   5.769   1.543   8.987  0.6498  0.8069 -0.3308
  226MOL0     C30428   5.423   1.480   8.046  0.4211  0.1567 -0.5472
  226MOL0     C30429   5.342   1.466   7.937 -0.3675  0.4350 -0.4782
  226MOL0     C30430   5.121   1.292   7.639 -0.0769  0.4776  0.8602
  226MOL0     C30431   5.093   1.386   7.537  0.5147  0.6384 -0.0953
  226MOL0     C30432   4.982   1.370   7.448 -0.1967  0.1879 -0.3314
  226MOL0     C30433   4.889   1.265   7.474 -1.3171  0.0634 -0.4250
  226MOL0     O30434   4.796   1.243   7.379 -0.5582  0.2983 -0.6848
  226MOL0     C30435   4.795   1.123   7.318  0.1171 -0.1532  0.9109
  226MOL0     C30436   4.705   1.138   7.199  0.0562  0.5015  0.2072
  226MOL0     C30437   4.762   1.231   7.083  0.6209  0.8303 -0.5293
  226MOL0     C30438   4.849   1.149   6.983 -0.2041  0.3735  0.4371
  226MOL0     C30439   4.996   1.149   7.017  0.5454  0.0707 -0.3220
  226MOL0     C30440   5.122   1.149   7.003  0.5523  0.4542 -0.1626
  226MOL0     C30441   4.907   1.179   7.580 -0.0436  0.3675 -0.1930
  226MOL0     C30442   5.022   1.190   7.662  0.8586 -0.5306 -0.5108
  226MOL0     H30443   5.598   1.375   7.714 -0.3778  2.7709 -0.7620
  226MOL0     H30444   5.736   1.394   7.929  0.2009  3.3711  1.9190
  226MOL0     H30445   5.578   1.396   8.367  1.5061 -5.2077  1.5463
  226MOL0     H30446   5.529   1.303   8.228  0.3542  0.3477 -1.2329
  226MOL0     H30447   5.677   1.175   8.321 -1.2030  0.7166 -0.4568
  226MOL0     H30448   5.773   1.232   8.189  2.0183 -1.1171  0.6688
  226MOL0     H30449   5.826   1.429   8.383  0.5717  1.2559  3.1403
  226MOL0     H30450   5.776   1.294   8.483 -0.9132  1.1704 -1.5083
  226MOL0     H30451   5.976   1.158   8.368 -0.2409  0.7807 -1.2233
  226MOL0     H30452   5.994   1.302   8.282  0.5977  2.5516  0.3831
  226MOL0     H30453   6.148   1.277   8.480  0.6004 -0.2872 -3.2593
  226MOL0     H30454   6.052   1.435   8.469 -0.9549  0.3078  2.5476
  226MOL0     H30455   5.959   1.216   8.648 -1.0966  0.6288  1.2492
  226MOL0     H30456   6.101   1.276   8.679 -1.4722 -4.3417 -0.1802
  226MOL0     H30457   6.032   1.518   8.691 -0.6672  0.0319  1.5310
  226MOL0     H30458   5.860   1.462   8.648 -1.5007 -0.2969  0.9349
  226MOL0     H30459   6.036   1.401   8.882  0.2478  2.5768 -0.8362
  226MOL0     H30460   5.868   1.336   8.856  0.7341 -2.5279 -7.2785
  226MOL0     H30461   6.054   1.688   8.905  1.9330 -3.2178  1.0588
  226MOL0     H30462   5.840   1.880   9.171  0.1512 -1.1475  1.2426
  226MOL0     H30463   6.007   1.820   9.147 -2.4871 -3.1673  2.8167
  226MOL0     H30464   6.047   1.973   8.960  0.5740 -1.6320  0.7302
  226MOL0     H30465   5.944   2.059   9.063 -0.3152 -0.1112  0.0755
  226MOL0     H30466   5.734   1.998   8.919 -0.7364 -2.1337 -0.8149
  226MOL0     H30467   5.826   1.884   8.826  1.4661  1.0717 -1.7650
  226MOL0     H30468   5.970   2.076   8.745  0.1066 -1.6664  0.3927
  226MOL0     H30469   5.848   2.185   8.824  1.3840 -0.7197  2.3673
  226MOL0     H30470   5.825   2.331   8.667 -2.9870  1.0786  0.0890
  226MOL0     H30471   5.724   2.551   8.456 -0.4919 -1.1058  1.6094
  226MOL0     H30472   5.869   2.552   8.563 -0.1258  1.1082 -1.4032
  226MOL0     H30473   5.908   2.547   8.405  1.5964  1.4393  0.7505
  226MOL0     H30474   5.568   2.397   7.956  1.6475 -0.2082  1.6950
  226MOL0     H30475   5.553   2.505   7.727  0.4174  1.0830 -0.8563
  226MOL0     H30476   5.948   2.550   7.500 -0.5827 -0.0833  0.5633
  226MOL0     H30477   5.895   2.386   7.480  2.1282  1.0845  4.1873
  226MOL0     H30478   5.877   2.491   7.244 -1.5105  1.9879 -2.2464
  226MOL0     H30479   5.719   2.508   7.309  0.1197  0.3536 -0.7181
  226MOL0     H30480   5.809   2.740   7.401 -1.5900  0.1179  0.0726
  226MOL0     H30481   5.752   2.719   7.234 -2.9921 -0.5682  1.5712
  226MOL0     H30482   5.957   2.852   7.236  2.5865  0.9090  2.2142
  226MOL0     H30483   6.054   2.738   7.324  1.1739 -0.0051 -1.3316
  226MOL0     H30484   6.021   2.579   7.124 -1.1289  0.3455  1.5995
  226MOL0     H30485   6.100   2.741   7.090  0.3857  2.5833  4.6789
  226MOL0     H30486   5.814   2.631   7.022 -0.5377 -0.5400 -0.3016
  226MOL0     H30487   5.850   2.805   7.035 -1.9445 -0.5163  0.7675
  226MOL0     H30488   6.023   2.617   6.871  2.2396  1.1429 -1.1604
  226MOL0     H30489   6.011   2.793   6.863 -4.4188  2.9819  1.4897
  226MOL0     H30490   5.770   2.609   6.807  0.9487 -1.4923 -0.0320
  226MOL0     H30491   5.872   2.661   6.675 -1.1252 -2.8865  1.1591
  226MOL0     H30492   5.973   2.441   7.676 -1.7836  0.1792 -2.6391
  226MOL0     H30493   5.988   2.332   7.902  1.8104  2.8977  0.3784
  226MOL0     H30494   5.743   2.125   8.224 -1.6503  1.3991 -0.1019
  226MOL0     H30495   5.714   1.990   8.445 -0.4908 -0.0835  0.7193
  226MOL0     H30496   5.382   1.514   8.140  3.3576  0.1770  0.8369
  226MOL0     H30497   5.237   1.493   7.940 -0.8194 -1.1730 -0.8823
  226MOL0     H30498   5.171   1.458   7.513 -0.2238  0.6486 -2.8383
  226MOL0     H30499   4.975   1.424   7.354  0.1908 -3.1113 -2.4437
  226MOL0     H30500   4.894   1.093   7.283  0.0462  2.9218 -2.5724
  226MOL0     H30501   4.747   1.042   7.373 -0.8380 -0.3439 -0.1644
  226MOL0     H30502   4.610   1.182   7.230  0.4014  4.6973 -3.5849
  226MOL0     H30503   4.682   1.039   7.158 -1.2378  1.5387 -1.7408
  226MOL0     H30504   4.820   1.315   7.122  1.7297 -0.4988  0.8938
  226MOL0     H30505   4.670   1.265   7.036  0.4172 -0.1351 -0.8481
  226MOL0     H30506   4.846   1.195   6.884  1.9769  0.8517  0.5363
  226MOL0     H30507   4.824   1.042   6.983 -1.3800  0.6412 -0.2087
  226MOL0     H30508   5.229   1.143   7.005  0.7786  1.4716  4.9204
  226MOL0     H30509   4.850   1.088   7.597 -2.3300  1.7710  0.0381
  226MOL0     H30510   5.041   1.118   7.741  1.2001 -1.0572 -1.0679
  227MOL0     O30511   2.634  11.305   7.424  0.0157  0.6329  0.6843
  227MOL0     C30512   2.712  11.264   7.512  0.1348  0.0867 -0.6469
  227MOL0     O30513   2.812  11.340   7.566  0.1361 -0.9569  0.1920
  227MOL0     C30514   2.810  11.472   7.529 -0.3384  0.5498  0.6404
  227MOL0     C30515   2.871  11.498   7.400  0.2807 -0.8291 -0.9037
  227MOL0     C30516   2.878  11.631   7.363 -0.2444  0.8596  0.3201
  227MOL0     C30517   2.846  11.739   7.444  1.0912 -0.1503 -0.8306
  227MOL0     O30518   2.875  11.870   7.412 -0.0827  0.4737 -0.6587
  227MOL0     C30519   2.789  11.941   7.326 -0.7515 -0.3686  0.7176
  227MOL0     C30520   2.799  12.091   7.367 -0.1242 -0.0825  0.4304
  227MOL0     C30521   2.906  12.178   7.295  0.0716 -0.3888  0.4939
  227MOL0     C30522   2.902  12.335   7.337  0.1555 -0.3501 -0.2166
  227MOL0     C30523   3.003  12.421   7.261 -0.8878 -0.4884  0.1971
  227MOL0     C30524   3.131  12.455   7.337  0.5131  0.1847 -0.0056
  227MOL0     C30525   3.097  12.540   7.458 -0.7722  1.0644  0.3739
  227MOL0     C30526   3.150  12.684   7.449  1.3956  0.6440  0.1802
  227MOL0     N30527   3.068  12.751   7.352  0.4570 -0.1982  0.3295
  227MOL0     C30528   2.969  12.825   7.405  1.0896  0.2337 -0.6685
  227MOL0     C30529   2.908  12.874   7.293  0.5522 -0.4269 -0.3817
  227MOL0     C30530   2.803  12.981   7.281  0.7808 -0.1120  0.3358
  227MOL0     C30531   2.679  12.944   7.199 -0.3594 -0.0259 -0.8012
  227MOL0     C30532   2.623  12.810   7.240  0.4148 -0.9129  0.1486
  227MOL0     C30533   2.523  12.772   7.132  0.5391 -0.2788 -0.0720
  227MOL0     O30534   2.493  12.631   7.140 -0.4801 -0.6007 -0.2774
  227MOL0     C30535   2.567  12.530   7.070 -0.1328  0.0262 -0.0096
  227MOL0     C30536   2.498  12.403   7.059  0.2134 -0.1623 -0.0308
  227MOL0     C30537   2.565  12.294   7.002 -0.2165 -0.4817  0.2529
  227MOL0     C30538   2.484  12.173   7.001  0.2950  0.3074 -0.3385
  227MOL0     C30539   2.695  12.304   6.941  0.1436  1.2511  0.7791
  227MOL0     C30540   2.769  12.183   6.889 -0.9276  0.6159  0.3501
  227MOL0     O30541   2.910  12.207   6.876 -0.9149  0.4879  0.1266
  227MOL0     C30542   2.982  12.095   6.852 -0.0547  0.5021 -0.4059
  227MOL0     C30543   3.081  12.071   6.943  0.2748  0.3606 -0.4902
  227MOL0     C30544   3.168  11.963   6.932 -0.1985 -0.0663 -0.3246
  227MOL0     C30545   3.154  11.874   6.820  0.7123  0.4875  0.6245
  227MOL0     O30546   3.248  11.774   6.796  0.3347 -0.2764 -0.3713
  227MOL0     C30547   3.319  11.799   6.670 -0.2251  0.3916  0.5928
  227MOL0     C30548   3.453  11.869   6.712  0.2146  0.4034  0.2977
  227MOL0     C30549   3.539  11.783   6.818 -0.1781 -0.4144 -0.3438
  227MOL0     C30550   3.682  11.843   6.830 -0.1356  0.2981 -0.1236
  227MOL0     C30551   3.778  11.776   6.934  0.3864  0.3058 -0.3009
  227MOL0     C30552   3.914  11.845   6.958 -0.2719 -0.0994 -0.7872
  227MOL0     C30553   3.990  11.876   6.834 -0.1345  0.0785  0.7128
  227MOL0     C30554   4.140  11.909   6.853 -0.0447  0.7941 -0.4807
  227MOL0    Cl30555   4.161  12.029   6.996  0.6417 -0.0331 -0.3249
  227MOL0     C30556   3.050  11.889   6.725  1.2278  0.5458 -0.2623
  227MOL0     C30557   2.959  11.998   6.748  0.1766  1.3040 -0.1320
  227MOL0     O30558   2.712  12.077   6.880 -0.4902  0.0035 -0.0796
  227MOL0     C30559   2.763  12.425   6.958  0.3542 -0.0204  0.3210
  227MOL0     C30560   2.704  12.543   7.018  0.0150  0.4408 -0.1979
  227MOL0     N30561   2.968  12.827   7.176 -0.3453  0.3441 -0.7313
  227MOL0     N30562   3.063  12.747   7.210 -0.0799  0.3759 -0.6708
  227MOL0     C30563   2.775  11.710   7.555  0.9330 -0.3237  0.6627
  227MOL0     C30564   2.752  11.574   7.603  0.6589  0.1329  0.8647
  227MOL0     C30565   2.689  11.125   7.568  0.0320 -0.1477 -0.4278
  227MOL0     C30566   2.742  11.075   7.690 -0.7280 -0.4448 -0.2022
  227MOL0     C30567   2.715  10.956   7.743  0.2802  1.3209  0.3343
  227MOL0     C30568   2.619  10.873   7.684  0.1317  0.7904  0.2346
  227MOL0     O30569   2.604  10.747   7.744  1.1970  0.3902  0.4290
  227MOL0     C30570   2.573  10.631   7.671 -0.3838 -0.1453  0.6290
  227MOL0     C30571   2.616  10.509   7.744 -0.0726  0.2565 -0.5733
  227MOL0     C30572   2.549  10.392   7.681 -0.9499 -0.3124 -0.5251
  227MOL0     C30573   2.606  10.256   7.735 -1.1974  0.4946 -0.7710
  227MOL0     C30574   2.531  10.205   7.857  0.3992  0.1478  0.0918
  227MOL0     C30575   2.477  10.164   7.956  0.1809 -0.3020 -0.7210
  227MOL0     C30576   2.562  10.920   7.560  0.3328  0.1262  0.5115
  227MOL0     C30577   2.602  11.036   7.497  0.6204 -0.7544 -0.2165
  227MOL0     H30578   2.904  11.417   7.337  1.9051 -0.4695 -0.5693
  227MOL0     H30579   2.936  11.649   7.273  0.3674 -2.6617 -0.1289
  227MOL0     H30580   2.814  11.920   7.222  1.2117 -0.6264  1.1987
  227MOL0     H30581   2.691  11.896   7.340 -0.2796 -1.2430  1.3631
  227MOL0     H30582   2.701  12.129   7.336 -0.7003  0.3723  2.6555
  227MOL0     H30583   2.808  12.100   7.475  3.2906 -0.0260  0.2393
  227MOL0     H30584   3.000  12.139   7.336  0.9213  2.1009  1.0587
  227MOL0     H30585   2.910  12.171   7.186  2.2641 -0.9184  0.5625
  227MOL0     H30586   2.805  12.382   7.322  1.4634  3.6543  2.1547
  227MOL0     H30587   2.922  12.349   7.444  0.7923  1.4519 -0.5383
  227MOL0     H30588   3.034  12.377   7.165 -0.8203 -0.9759  0.4420
  227MOL0     H30589   2.946  12.509   7.231 -1.6713 -0.1539  2.5259
  227MOL0     H30590   3.185  12.368   7.377 -1.9559 -1.0518  0.8087
  227MOL0     H30591   3.204  12.506   7.274  0.6978 -2.5854 -2.2442
  227MOL0     H30592   2.990  12.539   7.478 -0.8901  1.9838 -0.1653
  227MOL0     H30593   3.158  12.500   7.540 -0.1228  2.0384  0.3771
  227MOL0     H30594   3.254  12.685   7.415  1.2418 -1.2980 -0.4795
  227MOL0     H30595   3.138  12.732   7.547  2.1265  2.1624 -0.4510
  227MOL0     H30596   2.939  12.857   7.505 -3.2689 -1.5341 -1.1981
  227MOL0     H30597   2.761  13.001   7.380 -2.8516  0.6235 -1.1799
  227MOL0     H30598   2.846  13.075   7.246  0.0296  0.2959  0.4910
  227MOL0     H30599   2.709  12.950   7.094 -0.9386  0.8717 -0.9242
  227MOL0     H30600   2.604  13.022   7.213  1.2842  1.3929  0.6127
  227MOL0     H30601   2.566  12.817   7.333  0.6871 -1.7340  0.3848
  227MOL0     H30602   2.703  12.736   7.239  0.9787 -0.3104 -0.7202
  227MOL0     H30603   2.570  12.795   7.036  1.6685  0.6938  0.6777
  227MOL0     H30604   2.438  12.838   7.151 -0.9642 -0.9944 -3.4963
  227MOL0     H30605   2.406  12.392   7.115  1.9021 -0.9667  2.8069
  227MOL0     H30606   2.542  12.103   7.061 -1.1567  0.6413  1.5552
  227MOL0     H30607   2.382  12.181   7.041  0.1244 -2.4836 -0.0632
  227MOL0     H30608   2.470  12.138   6.898 -0.4889  1.4575 -0.6521
  227MOL0     H30609   3.087  12.141   7.026  1.2929 -1.5098  1.1015
  227MOL0     H30610   3.257  11.958   6.994 -1.0883  0.7738  1.0700
  227MOL0     H30611   3.344  11.699   6.632  1.0358 -0.9369  4.4489
  227MOL0     H30612   3.268  11.856   6.591  1.1565  0.2923 -0.4131
  227MOL0     H30613   3.518  11.884   6.626 -0.2795 -0.2588 -0.1963
  227MOL0     H30614   3.432  11.971   6.747 -0.2017 -0.2485  2.0897
  227MOL0     H30615   3.536  11.678   6.789 -4.4990 -0.3462 -0.7328
  227MOL0     H30616   3.494  11.783   6.918  0.5991 -1.6696  0.0264
  227MOL0     H30617   3.728  11.833   6.731 -1.2827 -2.4109 -0.4999
  227MOL0     H30618   3.670  11.949   6.854  0.5932  0.4078 -0.2133
  227MOL0     H30619   3.803  11.676   6.897 -0.1540 -0.2243  0.7352
  227MOL0     H30620   3.734  11.771   7.034  1.6162  0.1437  0.2377
  227MOL0     H30621   3.889  11.934   7.016  0.5884 -0.5491  0.3356
  227MOL0     H30622   3.976  11.782   7.024  0.5161  0.0764 -1.3453
  227MOL0     H30623   3.952  11.965   6.783  0.4904 -0.8536 -1.4861
  227MOL0     H30624   3.979  11.796   6.760 -1.6205 -0.1016  1.1038
  227MOL0     H30625   4.181  11.964   6.768 -0.2715  3.8444  1.2097
  227MOL0     H30626   4.189  11.813   6.870 -3.8130 -1.2308 -0.1609
  227MOL0     H30627   3.029  11.822   6.642 -0.5534  1.1966 -0.3826
  227MOL0     H30628   2.877  12.004   6.676  1.0323  0.7934 -1.1893
  227MOL0     H30629   2.863  12.452   6.924  0.1946  2.5010  1.6527
  227MOL0     H30630   2.764  12.632   7.036 -1.8802  1.9489 -1.1334
  227MOL0     H30631   2.722  11.795   7.597 -1.4342 -0.8150 -1.1313
  227MOL0     H30632   2.703  11.537   7.693  0.6694  0.3257  0.9491
  227MOL0     H30633   2.811  11.138   7.745 -1.0408  1.3562 -1.7672
  227MOL0     H30634   2.756  10.922   7.837  1.0096 -1.7615 -0.9636
  227MOL0     H30635   2.464  10.641   7.670 -0.3971  0.3916  2.5764
  227MOL0     H30636   2.612  10.639   7.569  4.2812  1.4364  2.2639
  227MOL0     H30637   2.592  10.518   7.850 -2.0735 -1.0645 -0.8521
  227MOL0     H30638   2.724  10.496   7.754 -0.6426 -5.0289  2.9080
  227MOL0     H30639   2.584  10.389   7.577  0.7587 -0.9114  0.0347
  227MOL0     H30640   2.445  10.404   7.712 -0.0083  0.7079  2.5378
  227MOL0     H30641   2.710  10.275   7.766 -2.4603  1.2112  3.7220
  227MOL0     H30642   2.603  10.178   7.658  0.1358  1.1832 -1.5620
  227MOL0     H30643   2.409  10.137   8.035 -1.5864  2.7541 -1.0124
  227MOL0     H30644   2.496  10.845   7.518 -0.7219 -0.3286  2.8127
  227MOL0     H30645   2.548  11.061   7.406  0.7369  0.0250 -0.0782
  228MOL0     O30646  10.861   4.020   6.004 -0.0720 -0.2159  0.3871
  228MOL0     C30647  10.756   4.024   6.066  0.3520 -0.1967  0.1228
  228MOL0     O30648  10.673   3.920   6.093 -0.5186  0.3252 -0.6924
  228MOL0     C30649  10.698   3.793   6.038 -0.1879 -1.1803  0.8078
  228MOL0     C30650  10.609   3.724   5.966  0.0728  0.7157  0.3516
  228MOL0     C30651  10.640   3.603   5.892  0.4261  0.5677 -0.1101
  228MOL0     C30652  10.770   3.547   5.910  0.0847  0.4222  0.8013
  228MOL0     O30653  10.816   3.431   5.859 -0.0400 -0.0027  0.4615
  228MOL0     C30654  10.848   3.316   5.947  0.2334  0.2089  0.7737
  228MOL0     C30655  10.880   3.193   5.856 -0.2509 -0.3926  0.5779
  228MOL0     C30656  10.764   3.137   5.774  0.4717 -0.9048 -1.0216
  228MOL0     C30657  10.657   3.070   5.871 -1.4148 -0.1640  0.6213
  228MOL0     C30658  10.552   2.987   5.806 -0.1096 -0.0532  0.4947
  228MOL0     C30659  10.471   2.919   5.905 -0.1935  0.0345 -0.1027
  228MOL0     C30660  10.389   3.003   6.018 -0.1242  0.2693  0.5182
  228MOL0     C30661  10.272   2.925   6.069 -0.1148 -0.2246 -0.2261
  228MOL0     N30662  10.143   2.989   6.038 -0.6070 -0.2037  0.9027
  228MOL0     C30663  10.112   3.119   6.066  0.2121 -0.0095  0.0826
  228MOL0     C30664  10.000   3.143   6.003 -0.5432  0.3385 -0.6914
  228MOL0     C30665   9.916   3.261   6.017  1.0260 -0.8038  0.4242
  228MOL0     C30666   9.847   3.263   6.151  0.1910 -0.0403  1.0396
  228MOL0     C30667   9.771   3.142   6.191 -0.4934  0.5346 -0.6728
  228MOL0     C30668   9.682   3.161   6.316 -0.4010 -0.4631 -0.1982
  228MOL0     O30669   9.581   3.262   6.292  0.2021 -0.0141 -0.3310
  228MOL0     C30670   9.513   3.320   6.397  0.2167 -1.0394  0.1036
  228MOL0     C30671   9.533   3.274   6.528  0.1524  0.4572  0.0004
  228MOL0     C30672   9.451   3.316   6.633 -0.1445  0.0390 -0.7951
  228MOL0     C30673   9.482   3.247   6.770  1.0398 -0.6275  0.5755
  228MOL0     C30674   9.351   3.417   6.610 -0.5378  0.5714 -0.6414
  228MOL0     C30675   9.252   3.454   6.720 -0.6932 -0.8845  0.4425
  228MOL0     O30676   9.140   3.525   6.692  0.0551  0.0739  0.8576
  228MOL0     C30677   9.030   3.535   6.769 -0.6660  0.0349  0.5540
  228MOL0     C30678   8.949   3.642   6.738  0.5346  0.0652 -0.3895
  228MOL0     C30679   8.824   3.662   6.793  0.4287  0.6426  0.7928
  228MOL0     C30680   8.777   3.559   6.878  0.1912 -0.6165 -0.0142
  228MOL0     O30681   8.645   3.576   6.925 -0.3136  0.7953  0.0015
  228MOL0     C30682   8.598   3.502   7.034 -0.7947  0.7903  0.4480
  228MOL0     C30683   8.465   3.563   7.071 -1.0197  0.5584  0.2549
  228MOL0     C30684   8.363   3.530   6.956 -0.1471  0.2662  0.5157
  228MOL0     C30685   8.220   3.587   6.978 -0.3922 -0.6506  0.4392
  228MOL0     C30686   8.158   3.642   6.849 -0.4398  0.1863  0.6314
  228MOL0     C30687   8.127   3.542   6.737 -0.3643  1.1991  0.0588
  228MOL0     C30688   8.084   3.400   6.784  0.1235 -0.0651 -0.1762
  228MOL0     C30689   7.950   3.417   6.857  0.7775 -0.6041 -0.6165
  228MOL0    Cl30690   7.807   3.445   6.737  0.2369 -0.0165 -0.9380
  228MOL0     C30691   8.864   3.460   6.921  0.0739  0.0228  0.1159
  228MOL0     C30692   8.990   3.445   6.861 -0.9849  0.1924  0.4703
  228MOL0     O30693   9.282   3.426   6.836 -0.2691 -0.0145  0.0098
  228MOL0     C30694   9.332   3.465   6.478 -0.6153 -0.6214 -0.7384
  228MOL0     C30695   9.419   3.417   6.374  0.5199 -1.2725  0.4876
  228MOL0     N30696   9.972   3.033   5.927 -0.4145  0.2401  0.9883
  228MOL0     N30697  10.052   2.939   5.947  0.3734  0.4837 -0.5943
  228MOL0     C30698  10.857   3.611   5.992 -0.1385  1.2854 -0.4032
  228MOL0     C30699  10.825   3.733   6.049  0.7136  0.0125 -0.1252
  228MOL0     C30700  10.740   4.142   6.148  0.2340  0.2636 -0.1757
  228MOL0     C30701  10.820   4.244   6.140  0.2020  0.0725 -0.1301
  228MOL0     C30702  10.801   4.363   6.205 -1.2412 -0.3052  0.3563
  228MOL0     C30703  10.704   4.370   6.304 -0.2492 -0.2754 -0.6973
  228MOL0     O30704  10.689   4.490   6.366  0.4737  1.0039  0.0383
  228MOL0     C30705  10.673   4.492   6.506 -0.2895 -1.2927 -0.6047
  228MOL0     C30706  10.779   4.567   6.592 -0.1627  0.8836  0.9303
  228MOL0     C30707  10.833   4.691   6.514 -0.1208 -0.5196 -0.6913
  228MOL0     C30708  10.889   4.791   6.612  0.0859 -0.1194  0.0930
  228MOL0     C30709  10.801   4.829   6.724 -0.6295 -0.6279  0.5469
  228MOL0     C30710  10.732   4.844   6.821  0.4255 -0.2528 -0.4218
  228MOL0     C30711  10.616   4.267   6.324 -0.1809  1.1848  0.8699
  228MOL0     C30712  10.640   4.153   6.247 -0.2233 -0.3560  0.6191
  228MOL0     H30713  10.507   3.760   5.969 -0.1804 -0.0399  2.4972
  228MOL0     H30714  10.563   3.556   5.831 -0.4172  1.8158 -0.0313
  228MOL0     H30715  10.935   3.339   6.008  1.1758  0.7201 -0.6995
  228MOL0     H30716  10.762   3.302   6.013 -0.7564 -3.4202 -1.0317
  228MOL0     H30717  10.959   3.234   5.792 -0.4272  0.1458  0.7055
  228MOL0     H30718  10.916   3.117   5.926 -3.1002  0.5379  3.2778
  228MOL0     H30719  10.725   3.204   5.697 -0.6645  2.2274  2.0329
  228MOL0     H30720  10.795   3.049   5.717 -0.7617 -0.2707 -2.7378
  228MOL0     H30721  10.711   3.002   5.937  1.1710  0.5682 -0.6280
  228MOL0     H30722  10.618   3.159   5.922 -0.2427 -0.1813  1.5903
  228MOL0     H30723  10.487   3.040   5.735 -2.4946 -2.8160  0.4251
  228MOL0     H30724  10.598   2.915   5.738 -2.9822 -0.6919 -0.8965
  228MOL0     H30725  10.405   2.858   5.842  1.7395 -1.6913 -0.5581
  228MOL0     H30726  10.522   2.844   5.966 -0.0908  1.7366  1.9896
  228MOL0     H30727  10.457   3.041   6.094 -0.8665  2.3184  0.2199
  228MOL0     H30728  10.351   3.099   5.982 -0.0180  0.6201  1.3218
  228MOL0     H30729  10.277   2.915   6.178  0.4793 -3.2704 -0.4558
  228MOL0     H30730  10.269   2.821   6.037  0.2759 -1.0083  2.0710
  228MOL0     H30731  10.147   3.194   6.136 -1.7647  0.5204  0.5589
  228MOL0     H30732   9.961   3.360   6.006 -1.3937  0.6738  2.6576
  228MOL0     H30733   9.842   3.257   5.936 -0.8106  2.1399  1.8050
  228MOL0     H30734   9.781   3.351   6.152  1.8754  1.2826  0.8168
  228MOL0     H30735   9.925   3.283   6.225 -0.4131 -0.8777  1.9266
  228MOL0     H30736   9.843   3.064   6.219  0.0965  0.8064 -1.4090
  228MOL0     H30737   9.705   3.118   6.107 -1.4831 -1.6725  0.6250
  228MOL0     H30738   9.746   3.196   6.398 -0.8809  1.7274 -0.7046
  228MOL0     H30739   9.641   3.063   6.342 -1.0502 -0.4062 -0.9994
  228MOL0     H30740   9.592   3.191   6.565 -1.2865  0.8816  3.6772
  228MOL0     H30741   9.395   3.202   6.821  1.4833 -0.7958  1.1976
  228MOL0     H30742   9.562   3.174   6.765  0.1513 -1.9380  3.3179
  228MOL0     H30743   9.527   3.318   6.840 -3.4288 -0.4859  3.7579
  228MOL0     H30744   8.984   3.708   6.659  0.1892  2.4081  1.3133
  228MOL0     H30745   8.758   3.746   6.771  0.4923  0.2223 -1.1728
  228MOL0     H30746   8.584   3.395   7.011  1.7722  0.1833  1.4290
  228MOL0     H30747   8.672   3.502   7.114  0.6720 -1.8061 -0.7686
  228MOL0     H30748   8.436   3.521   7.167 -0.9680  0.1935  0.1107
  228MOL0     H30749   8.470   3.671   7.088  0.6888  0.6966 -0.8371
  228MOL0     H30750   8.354   3.423   6.938  2.8604  0.3673 -2.6891
  228MOL0     H30751   8.405   3.562   6.860  1.1283 -1.2123  0.5526
  228MOL0     H30752   8.156   3.507   7.016  0.7644 -1.7195  0.1913
  228MOL0     H30753   8.223   3.665   7.055 -3.9562 -0.0905  0.2063
  228MOL0     H30754   8.225   3.720   6.812  0.9470 -1.8433 -1.3932
  228MOL0     H30755   8.063   3.688   6.878 -1.2598 -1.9739  1.5985
  228MOL0     H30756   8.058   3.583   6.662 -1.8318 -0.5326  0.3950
  228MOL0     H30757   8.217   3.525   6.677 -0.5539  0.7007 -0.0850
  228MOL0     H30758   8.158   3.349   6.847 -2.2977 -2.7258  0.7029
  228MOL0     H30759   8.071   3.337   6.695  0.5729  1.6236 -1.4866
  228MOL0     H30760   7.957   3.501   6.926  2.6552 -0.5638 -0.8111
  228MOL0     H30761   7.925   3.325   6.911  1.3388 -0.0614  0.6031
  228MOL0     H30762   8.835   3.386   6.995 -3.2835  0.7969 -0.2452
  228MOL0     H30763   9.051   3.364   6.900 -1.3522 -0.1297  0.3792
  228MOL0     H30764   9.246   3.525   6.451 -0.6833 -0.2315  0.2794
  228MOL0     H30765   9.414   3.465   6.277  1.7115 -0.3726  0.8455
  228MOL0     H30766  10.955   3.565   6.002  0.3508  2.4020  0.1345
  228MOL0     H30767  10.905   3.781   6.105  1.3884  0.1464 -1.1859
  228MOL0     H30768  10.898   4.245   6.065  2.6665  0.0251  2.2987
  228MOL0     H30769  10.855   4.454   6.178 -1.4951 -0.9375 -2.5897
  228MOL0     H30770  10.579   4.544   6.524  0.0782  0.1505 -2.6166
  228MOL0     H30771  10.671   4.388   6.543  0.2653 -0.0705  3.3824
  228MOL0     H30772  10.866   4.502   6.610  1.4691  1.4048 -3.8113
  228MOL0     H30773  10.730   4.580   6.689 -1.8756 -2.2392  0.6031
  228MOL0     H30774  10.762   4.736   6.445  0.0392  0.3223 -0.3197
  228MOL0     H30775  10.912   4.651   6.450  0.1724 -1.6655  0.3409
  228MOL0     H30776  10.907   4.889   6.566  2.0437 -0.4894 -0.0535
  228MOL0     H30777  10.987   4.762   6.651  0.2835  0.4236  0.0118
  228MOL0     H30778  10.680   4.860   6.913  2.4751 -2.3229  1.2069
  228MOL0     H30779  10.535   4.271   6.395 -0.9793  0.5272  0.0174
  228MOL0     H30780  10.577   4.065   6.253 -0.5836 -0.2149 -0.6977
  229MOL0     O30781   7.484  10.685   2.358  1.0096  0.0848  0.7355
  229MOL0     C30782   7.548  10.589   2.328 -0.1455 -0.7542 -0.2315
  229MOL0     O30783   7.507  10.462   2.301  0.7866  0.3143  0.3542
  229MOL0     C30784   7.371  10.426   2.292 -0.4289  0.6303 -0.1175
  229MOL0     C30785   7.261  10.500   2.318  0.7867  0.4583 -0.1370
  229MOL0     C30786   7.133  10.456   2.278  0.1635 -0.3276  0.0973
  229MOL0     C30787   7.113  10.321   2.245 -0.1146 -0.2090  0.9874
  229MOL0     O30788   6.978  10.294   2.219 -0.5204 -0.9685 -0.6843
  229MOL0     C30789   6.939  10.170   2.162 -0.0098 -0.2592  0.9447
  229MOL0     C30790   6.790  10.163   2.129 -0.0804  0.0136 -0.6385
  229MOL0     C30791   6.750  10.287   2.043 -0.3827  1.1405  0.2886
  229MOL0     C30792   6.594  10.273   2.019 -0.4723  0.3954 -0.5215
  229MOL0     C30793   6.565  10.390   1.929  0.1291 -0.1498 -0.1232
  229MOL0     C30794   6.409  10.405   1.916  0.1620 -0.6417  0.4675
  229MOL0     C30795   6.374  10.509   1.799 -0.1493  0.0908  0.6690
  229MOL0     C30796   6.236  10.503   1.757 -0.0004  0.2649 -0.7128
  229MOL0     N30797   6.145  10.521   1.875  0.8036 -0.7385 -0.1337
  229MOL0     C30798   6.049  10.430   1.917 -1.0645  0.2337 -0.1474
  229MOL0     C30799   6.022  10.455   2.044  0.2590 -0.6931 -0.1302
  229MOL0     C30800   5.933  10.374   2.148 -0.5306 -0.7119  0.6629
  229MOL0     C30801   5.785  10.381   2.104  0.0507  0.1041 -0.4203
  229MOL0     C30802   5.667  10.396   2.195  0.1961 -0.2271  0.4116
  229MOL0     C30803   5.543  10.477   2.136  0.2847  0.2109 -0.2042
  229MOL0     O30804   5.566  10.599   2.209  0.2394 -0.4706 -0.0445
  229MOL0     C30805   5.460  10.695   2.202  0.2287  0.9413  0.7539
  229MOL0     C30806   5.465  10.803   2.288  0.2996 -0.5687 -0.1057
  229MOL0     C30807   5.380  10.918   2.284  0.5378  1.8596  0.8631
  229MOL0     C30808   5.407  11.036   2.371  0.2079 -0.0173  0.3464
  229MOL0     C30809   5.280  10.914   2.180 -0.6896  0.3164 -0.7068
  229MOL0     C30810   5.188  11.027   2.155 -0.1757  0.0654  0.2152
  229MOL0     O30811   5.159  11.042   2.021 -0.1848 -0.3759 -0.2709
  229MOL0     C30812   5.136  11.174   1.991  0.0310 -0.5650 -0.0717
  229MOL0     C30813   5.233  11.273   1.944  0.3175  0.0662  0.8075
  229MOL0     C30814   5.207  11.409   1.913  0.8964 -0.1721  0.4761
  229MOL0     C30815   5.083  11.446   1.908  0.8776 -0.0865 -0.2368
  229MOL0     O30816   5.063  11.582   1.886  0.0925 -0.6369 -0.0632
  229MOL0     C30817   4.942  11.640   1.934 -0.5567  0.5558 -0.8150
  229MOL0     C30818   4.938  11.795   1.892 -0.1140  0.7246 -0.5664
  229MOL0     C30819   5.050  11.877   1.955 -0.8103 -0.6094 -0.2795
  229MOL0     C30820   5.016  11.973   2.075 -0.6752  0.1418 -1.3356
  229MOL0     C30821   4.962  11.896   2.200 -0.0885  0.1379 -1.0379
  229MOL0     C30822   4.971  11.995   2.324  0.4214 -0.1243 -0.1135
  229MOL0     C30823   4.897  11.908   2.437  0.4045 -1.6628 -0.0569
  229MOL0     C30824   4.757  11.957   2.468 -0.0566 -0.0430 -0.1995
  229MOL0    Cl30825   4.692  11.897   2.624  0.1553 -0.4474  0.3094
  229MOL0     C30826   4.982  11.356   1.957 -0.0676 -0.1125  0.0580
  229MOL0     C30827   5.010  11.217   2.000 -0.3386  0.2247  1.7619
  229MOL0     O30828   5.139  11.101   2.245  0.8520 -0.2256  0.1175
  229MOL0     C30829   5.270  10.801   2.094  0.4988 -1.0405  0.3480
  229MOL0     C30830   5.355  10.692   2.107 -0.2019 -0.0165 -0.6793
  229MOL0     N30831   6.081  10.581   2.070 -0.4194  0.3609  0.0099
  229MOL0     N30832   6.141  10.625   1.964  0.1232  0.8083 -1.0090
  229MOL0     C30833   7.223  10.238   2.232  0.5355  0.2709 -0.4831
  229MOL0     C30834   7.352  10.288   2.258 -0.1670 -0.6729  0.1960
  229MOL0     C30835   7.697  10.610   2.321  0.4243 -0.4826 -0.4130
  229MOL0     C30836   7.763  10.712   2.394  1.0785  0.6669 -0.6982
  229MOL0     C30837   7.899  10.720   2.373  0.5601 -0.9124 -0.4681
  229MOL0     C30838   7.977  10.636   2.305  0.4024  0.7322 -0.3745
  229MOL0     O30839   8.114  10.663   2.307 -0.3138 -0.1025 -0.6209
  229MOL0     C30840   8.167  10.716   2.191 -0.4813  0.8970  0.3895
  229MOL0     C30841   8.242  10.614   2.112 -0.3944  0.9947  1.4956
  229MOL0     C30842   8.367  10.675   2.042 -0.1511 -1.0531 -0.6977
  229MOL0     C30843   8.469  10.574   1.980  1.4835  0.2197 -0.4809
  229MOL0     C30844   8.534  10.637   1.865  0.3227 -0.5369  0.5672
  229MOL0     C30845   8.595  10.677   1.766  0.4652  0.6451 -0.0183
  229MOL0     C30846   7.918  10.529   2.245  0.4553 -0.0968 -0.2997
  229MOL0     C30847   7.777  10.521   2.240  0.1973  0.2973  0.6083
  229MOL0     H30848   7.263  10.600   2.361  0.6713  0.9365 -1.2023
  229MOL0     H30849   7.037  10.504   2.292 -2.7866 -4.9662 -1.7092
  229MOL0     H30850   6.991  10.156   2.067 -2.1234 -1.7159 -0.0797
  229MOL0     H30851   6.957  10.078   2.218 -5.0610 -2.6139 -0.6347
  229MOL0     H30852   6.753  10.071   2.081 -0.7482  0.0761 -0.2513
  229MOL0     H30853   6.730  10.160   2.220  1.8571  0.9777  0.7247
  229MOL0     H30854   6.783  10.379   2.093  0.5183  1.2670 -0.5075
  229MOL0     H30855   6.798  10.289   1.944  0.9951  1.2669  0.9342
  229MOL0     H30856   6.574  10.180   1.966 -1.2310 -2.6625  4.4474
  229MOL0     H30857   6.537  10.278   2.113 -2.4964 -0.1811 -1.6466
  229MOL0     H30858   6.614  10.483   1.958 -0.4505 -0.4322  1.9738
  229MOL0     H30859   6.605  10.360   1.832 -1.2903 -0.7846 -0.5487
  229MOL0     H30860   6.382  10.307   1.878  1.7876 -1.1573  0.5751
  229MOL0     H30861   6.350  10.428   2.006  0.2762 -2.6916  1.0990
  229MOL0     H30862   6.396  10.613   1.824  0.1622  0.5597 -1.3717
  229MOL0     H30863   6.441  10.498   1.713 -1.6079 -0.4768 -0.4275
  229MOL0     H30864   6.211  10.405   1.717  1.4049 -1.1183  1.5761
  229MOL0     H30865   6.224  10.583   1.683 -1.3759 -1.4354 -2.4082
  229MOL0     H30866   6.032  10.338   1.861 -3.0398  1.7526 -2.2175
  229MOL0     H30867   5.972  10.273   2.164  2.4817  0.3848  0.7420
  229MOL0     H30868   5.943  10.442   2.233 -2.5518  2.1769 -1.2086
  229MOL0     H30869   5.768  10.291   2.044  1.8294 -2.1377  2.2221
  229MOL0     H30870   5.774  10.472   2.043  0.4804  1.6630  1.6899
  229MOL0     H30871   5.703  10.454   2.281  0.9749  1.4465 -0.9762
  229MOL0     H30872   5.640  10.302   2.245  2.5950 -1.3936 -0.3304
  229MOL0     H30873   5.452  10.419   2.149  2.0371 -3.2772 -2.1990
  229MOL0     H30874   5.565  10.503   2.032  1.0637  0.8339  0.0991
  229MOL0     H30875   5.547  10.808   2.358 -0.3075 -0.5292  0.6210
  229MOL0     H30876   5.503  11.033   2.423  0.0682  0.4757  0.6381
  229MOL0     H30877   5.438  11.119   2.307  1.4259 -2.4598 -2.4742
  229MOL0     H30878   5.317  11.067   2.425 -0.0161 -0.0579  0.0046
  229MOL0     H30879   5.334  11.235   1.955  0.4767  0.4890  0.8417
  229MOL0     H30880   5.292  11.472   1.892  1.8609 -0.9493  1.8797
  229MOL0     H30881   4.855  11.593   1.886  0.9037 -1.6575 -1.4420
  229MOL0     H30882   4.944  11.632   2.043  2.3572 -0.0741 -0.8440
  229MOL0     H30883   4.953  11.808   1.784  2.5878 -0.4465 -0.4109
  229MOL0     H30884   4.850  11.841   1.938  0.5128 -0.2061  1.6968
  229MOL0     H30885   5.102  11.940   1.882 -2.4794 -1.2609 -2.1293
  229MOL0     H30886   5.123  11.807   1.996 -0.9929 -0.2009  0.7834
  229MOL0     H30887   5.101  12.034   2.107 -0.9245 -0.0405 -0.2606
  229MOL0     H30888   4.928  12.035   2.056 -0.2794  0.4987 -2.0521
  229MOL0     H30889   5.026  11.808   2.211  1.4636  1.3050 -0.2544
  229MOL0     H30890   4.856  11.871   2.195 -0.3013 -0.3378  2.7941
  229MOL0     H30891   5.074  12.020   2.353  0.5567  0.5943 -1.1535
  229MOL0     H30892   4.925  12.094   2.322  0.8692  0.2723  3.2706
  229MOL0     H30893   4.950  11.926   2.531 -0.3248 -2.4407  0.5223
  229MOL0     H30894   4.905  11.801   2.417  4.1317 -1.4037 -0.6268
  229MOL0     H30895   4.696  11.918   2.386 -0.0012 -0.8930  0.1560
  229MOL0     H30896   4.739  12.064   2.460 -0.7698 -0.1449 -0.0509
  229MOL0     H30897   4.878  11.380   1.936 -0.8783 -4.0558 -1.1587
  229MOL0     H30898   4.920  11.162   2.028 -0.8956  1.7950  3.2618
  229MOL0     H30899   5.198  10.803   2.013  2.7013  0.9812 -1.7251
  229MOL0     H30900   5.354  10.623   2.023  0.6704  1.3582 -1.8642
  229MOL0     H30901   7.200  10.138   2.196 -1.6650 -1.6722  5.1878
  229MOL0     H30902   7.439  10.224   2.244 -0.7751 -1.2015 -1.2612
  229MOL0     H30903   7.704  10.777   2.458  1.4995  0.5508 -0.1900
  229MOL0     H30904   7.961  10.802   2.404 -0.7699  0.4139 -1.1661
  229MOL0     H30905   8.099  10.775   2.128  0.8391  0.1654 -1.8590
  229MOL0     H30906   8.242  10.791   2.218  0.8821 -0.4436  0.4403
  229MOL0     H30907   8.180  10.561   2.040  1.9289 -1.4477  1.1439
  229MOL0     H30908   8.284  10.540   2.180  0.5851 -0.0797 -0.2135
  229MOL0     H30909   8.429  10.735   2.109  0.8796 -1.7810 -0.9880
  229MOL0     H30910   8.318  10.739   1.968  0.1306  3.1635  2.3905
  229MOL0     H30911   8.409  10.489   1.946 -3.1436  1.3371  3.7166
  229MOL0     H30912   8.537  10.525   2.051 -2.4140 -1.5571  2.4575
  229MOL0     H30913   8.640  10.714   1.676 -2.9126 -0.2317 -2.2991
  229MOL0     H30914   7.987  10.466   2.190  1.8982 -0.0396  1.3499
  229MOL0     H30915   7.739  10.432   2.191 -0.5116  1.4928 -1.1095
  230MOL0     O30916   1.039  10.797   4.545 -0.6884  0.1578 -0.6024
  230MOL0     C30917   1.053  10.679   4.567 -0.3734 -0.3549  0.2535
  230MOL0     O30918   1.153  10.617   4.643  0.9257 -0.9402  0.5615
  230MOL0     C30919   1.277  10.674   4.688 -0.7181 -0.0719  0.6808
  230MOL0     C30920   1.341  10.607   4.784 -0.7664 -0.2218  0.1543
  230MOL0     C30921   1.465  10.657   4.833  0.4881 -1.1730 -0.3485
  230MOL0     C30922   1.524  10.776   4.785 -0.5601  0.3597 -0.4803
  230MOL0     O30923   1.636  10.834   4.834 -0.9821  0.6842 -0.7092
  230MOL0     C30924   1.656  10.836   4.979  0.3041  0.8157 -0.6400
  230MOL0     C30925   1.753  10.954   5.019 -0.7521  0.0547 -1.0950
  230MOL0     C30926   1.870  10.971   4.927 -0.8618  0.5929 -0.0461
  230MOL0     C30927   1.923  11.109   4.936 -0.2446  0.1434  0.3741
  230MOL0     C30928   2.048  11.132   4.857 -0.4534  0.5490 -0.6025
  230MOL0     C30929   2.003  11.155   4.711  0.1781  0.2535 -0.3867
  230MOL0     C30930   2.111  11.135   4.602  0.3514 -0.2147 -0.4908
  230MOL0     C30931   2.157  10.989   4.579  0.4057  0.4076 -0.5601
  230MOL0     N30932   2.052  10.902   4.526 -0.0031 -0.0599 -0.6651
  230MOL0     C30933   1.979  10.924   4.409  0.0935 -0.5533 -1.6272
  230MOL0     C30934   1.925  10.798   4.396 -0.4511  1.2582  1.1083
  230MOL0     C30935   1.846  10.764   4.268  1.3605  0.1194 -0.0279
  230MOL0     C30936   1.733  10.867   4.250 -0.8139  0.1633 -0.9027
  230MOL0     C30937   1.637  10.812   4.145  0.4975  0.5854  0.0630
  230MOL0     C30938   1.523  10.914   4.097 -0.3140  0.0424  0.6562
  230MOL0     O30939   1.591  11.030   4.045 -0.0266  0.3072 -0.0988
  230MOL0     C30940   1.521  11.136   3.998  0.2845 -0.2041 -1.1546
  230MOL0     C30941   1.388  11.135   3.946  0.3973 -0.3292 -0.1073
  230MOL0     C30942   1.333  11.260   3.899  0.4539  0.1368 -0.1070
  230MOL0     C30943   1.194  11.272   3.852 -0.4609 -0.4286  0.0293
  230MOL0     C30944   1.409  11.384   3.905  0.0288 -0.6863  0.0007
  230MOL0     C30945   1.363  11.517   3.846  0.5271  0.0893 -0.0199
  230MOL0     O30946   1.445  11.618   3.879  0.2743  0.0166 -0.4521
  230MOL0     C30947   1.427  11.746   3.829 -0.7654 -0.4377 -0.1418
  230MOL0     C30948   1.458  11.781   3.697 -0.1352 -0.7260 -0.2982
  230MOL0     C30949   1.407  11.903   3.650 -0.0893 -0.7008  0.0264
  230MOL0     C30950   1.335  11.990   3.733 -0.3551 -0.5159 -0.4402
  230MOL0     O30951   1.288  12.117   3.700  0.3445  0.1105 -0.4226
  230MOL0     C30952   1.273  12.148   3.562 -0.3534 -0.1184 -0.7565
  230MOL0     C30953   1.209  12.279   3.537 -0.2144  0.5757  1.0453
  230MOL0     C30954   1.235  12.314   3.394 -0.6104 -0.5885 -0.2413
  230MOL0     C30955   1.159  12.227   3.292  0.8104 -0.0656  0.0028
  230MOL0     C30956   1.181  12.284   3.153 -0.8632  0.9746  0.0085
  230MOL0     C30957   1.101  12.205   3.043 -0.0787 -0.1833 -0.2613
  230MOL0     C30958   1.139  12.267   2.906  0.1795  0.3539 -0.3794
  230MOL0     C30959   1.103  12.166   2.802  0.1952 -0.2747 -0.0992
  230MOL0    Cl30960   0.931  12.163   2.793  0.0172 -0.0553  0.5119
  230MOL0     C30961   1.314  11.963   3.867  0.0249  0.3013  0.2224
  230MOL0     C30962   1.363  11.839   3.911 -0.4284 -0.6191  0.8626
  230MOL0     O30963   1.278  11.510   3.760 -0.3986 -0.0413 -0.3083
  230MOL0     C30964   1.542  11.375   3.962 -0.0438 -0.9263  1.0583
  230MOL0     C30965   1.594  11.255   4.000 -0.3652  0.1048 -1.0357
  230MOL0     N30966   1.958  10.715   4.498 -0.0762 -0.7151 -0.2927
  230MOL0     N30967   2.032  10.771   4.584  0.7217 -0.4836  0.0457
  230MOL0     C30968   1.469  10.824   4.669 -0.0608  0.5069 -1.1255
  230MOL0     C30969   1.347  10.776   4.622  0.1083  0.3775  0.0028
  230MOL0     C30970   0.940  10.588   4.542 -0.6995  0.2962 -0.2559
  230MOL0     C30971   0.806  10.634   4.540  0.1810  0.2345 -0.5119
  230MOL0     C30972   0.699  10.546   4.534 -0.3075  1.1600 -0.5611
  230MOL0     C30973   0.734  10.410   4.508  0.1112 -0.0316  0.3448
  230MOL0     O30974   0.627  10.326   4.495 -0.4694 -0.1677  0.8597
  230MOL0     C30975   0.630  10.223   4.589 -0.3706  0.6574 -0.0277
  230MOL0     C30976   0.511  10.222   4.691  0.5819 -0.1855 -0.1446
  230MOL0     C30977   0.483  10.086   4.744 -0.6774 -0.7795  0.0774
  230MOL0     C30978   0.393  10.079   4.865  0.7556  0.2388 -0.4399
  230MOL0     C30979   0.256  10.115   4.823 -0.6506 -0.5829  0.3667
  230MOL0     C30980   0.140  10.123   4.788  0.0716 -0.1940  0.0802
  230MOL0     C30981   0.861  10.363   4.496 -1.9304 -0.3874  0.3578
  230MOL0     C30982   0.962  10.452   4.516  1.0567 -0.7234  0.2228
  230MOL0     H30983   1.287  10.529   4.836 -1.4172  1.1984  1.6724
  230MOL0     H30984   1.509  10.604   4.916  1.0957 -1.1541 -0.6522
  230MOL0     H30985   1.561  10.839   5.032  0.2576  0.4491 -0.7018
  230MOL0     H30986   1.706  10.745   5.012 -1.7099 -1.0565 -2.4573
  230MOL0     H30987   1.702  11.049   5.036  0.6405  0.6302  0.0581
  230MOL0     H30988   1.777  10.928   5.123 -0.7952  1.0550 -0.8250
  230MOL0     H30989   1.959  10.907   4.937 -0.2470  1.3652 -0.4769
  230MOL0     H30990   1.842  10.948   4.824 -1.6222 -1.3082  0.5463
  230MOL0     H30991   1.858  11.194   4.912  0.6953  0.4077 -1.3457
  230MOL0     H30992   1.952  11.128   5.040  1.6330  0.3161 -0.1453
  230MOL0     H30993   2.109  11.208   4.906  2.8540 -1.4539 -1.3289
  230MOL0     H30994   2.116  11.047   4.869  0.0222  0.6627 -2.3374
  230MOL0     H30995   1.919  11.092   4.680 -0.4133  0.1800  1.2923
  230MOL0     H30996   1.962  11.255   4.695  1.4264  0.8351 -0.1048
  230MOL0     H30997   2.064  11.163   4.508  1.0996  1.6808 -0.3442
  230MOL0     H30998   2.196  11.203   4.611  1.8425 -2.1667  1.3382
  230MOL0     H30999   2.198  10.951   4.673  1.6957  2.3515 -0.2842
  230MOL0     H31000   2.251  10.982   4.522  1.8874 -0.5514  1.8590
  230MOL0     H31001   1.984  11.016   4.351 -2.3111 -0.1232 -1.2519
  230MOL0     H31002   1.917  10.767   4.185  1.1247  0.5900 -0.2186
  230MOL0     H31003   1.805  10.665   4.290  0.0251  0.9235  1.3247
  230MOL0     H31004   1.777  10.963   4.223 -1.5250  0.9901  0.7275
  230MOL0     H31005   1.676  10.887   4.342 -0.6123  0.4132 -0.8311
  230MOL0     H31006   1.607  10.709   4.168  1.4513  0.2806  0.0025
  230MOL0     H31007   1.702  10.797   4.059  0.4312  1.9604 -0.2442
  230MOL0     H31008   1.457  10.942   4.179 -1.1276  0.6055 -0.1712
  230MOL0     H31009   1.465  10.867   4.016 -1.6562  1.3922  0.7932
  230MOL0     H31010   1.327  11.045   3.943  1.1654 -0.8644 -0.1090
  230MOL0     H31011   1.148  11.367   3.880 -0.2957 -0.3120 -0.0925
  230MOL0     H31012   1.190  11.259   3.743 -1.8161  2.9409 -0.4819
  230MOL0     H31013   1.152  11.182   3.897  1.9468 -0.7569  1.7616
  230MOL0     H31014   1.506  11.703   3.639  1.0253  1.1297 -1.9264
  230MOL0     H31015   1.425  11.925   3.545 -1.8240 -1.6167 -0.5026
  230MOL0     H31016   1.373  12.137   3.518 -0.2747  1.2731 -0.9450
  230MOL0     H31017   1.195  12.086   3.517  0.4739  0.5299 -3.2303
  230MOL0     H31018   1.101  12.274   3.554 -0.5007 -0.1999 -0.8565
  230MOL0     H31019   1.253  12.351   3.607 -1.9531  2.8639 -0.0879
  230MOL0     H31020   1.343  12.310   3.374 -0.2678 -0.5473  1.4831
  230MOL0     H31021   1.203  12.418   3.391  1.4108  0.4875  5.0012
  230MOL0     H31022   1.194  12.125   3.310 -0.5617 -0.1542  2.6754
  230MOL0     H31023   1.050  12.226   3.303  0.8179 -2.4629  0.3982
  230MOL0     H31024   1.288  12.289   3.131 -1.1825  2.5339 -1.3512
  230MOL0     H31025   1.150  12.388   3.157  0.3507  1.3191  1.1854
  230MOL0     H31026   1.142  12.105   3.064 -0.1805  0.0353  1.1169
  230MOL0     H31027   0.995  12.227   3.058  0.0215  1.4692 -1.7416
  230MOL0     H31028   1.248  12.276   2.915  0.0244  2.9324 -0.3636
  230MOL0     H31029   1.084  12.359   2.883  0.7918 -0.2059 -5.2577
  230MOL0     H31030   1.140  12.066   2.829 -1.3089 -1.6344 -2.7474
  230MOL0     H31031   1.150  12.203   2.711  0.2197  0.8252  0.3498
  230MOL0     H31032   1.270  12.036   3.935 -0.7784 -0.1901  0.2468
  230MOL0     H31033   1.347  11.827   4.017 -0.5734  2.7709  1.3378
  230MOL0     H31034   1.606  11.462   3.966 -0.4340 -0.5415 -0.2349
  230MOL0     H31035   1.699  11.250   4.028  0.8571 -2.6891 -5.2120
  230MOL0     H31036   1.518  10.905   4.617  1.3388  0.7359  0.4378
  230MOL0     H31037   1.303  10.825   4.536 -1.5267  0.5621  0.8993
  230MOL0     H31038   0.792  10.741   4.557 -1.8090  0.1361 -1.2825
  230MOL0     H31039   0.596  10.571   4.557 -1.0937 -2.8483  1.1873
  230MOL0     H31040   0.632  10.122   4.545 -2.7538 -0.1276  1.4995
  230MOL0     H31041   0.721  10.223   4.649  1.2384 -4.9226 -1.8070
  230MOL0     H31042   0.417  10.270   4.663  0.0726 -1.6576 -1.0814
  230MOL0     H31043   0.551  10.282   4.773  2.2033 -2.2282  0.6539
  230MOL0     H31044   0.576  10.031   4.761  1.2948  2.2501 -0.1137
  230MOL0     H31045   0.443  10.019   4.667 -2.0075 -2.4051  2.0673
  230MOL0     H31046   0.420  10.140   4.951  0.1682  1.6947 -1.2468
  230MOL0     H31047   0.386   9.980   4.909 -0.4935  1.1935  1.6431
  230MOL0     H31048   0.038  10.135   4.757  0.3056  2.1636  0.0630
  230MOL0     H31049   0.869  10.256   4.477  0.9836 -0.2930  0.5832
  230MOL0     H31050   1.068  10.433   4.501  0.9338 -2.9345  1.6160
  231MOL0     O31051   4.336  10.707  11.339  0.0386  0.4340 -0.2111
  231MOL0     C31052   4.409  10.620  11.388  0.1005 -0.2506  0.3483
  231MOL0     O31053   4.428  10.605  11.523  0.3326 -0.2505 -1.1848
  231MOL0     C31054   4.382  10.707  11.607  0.1816  0.6232  0.1706
  231MOL0     C31055   4.261  10.671  11.689 -0.3825 -0.1186  0.5228
  231MOL0     C31056   4.215  10.760  11.779 -0.3698  0.2427  0.2123
  231MOL0     C31057   4.283  10.877  11.798  0.5266  0.0051 -0.5952
  231MOL0     O31058   4.232  10.968  11.884  0.3210  0.5792  0.1091
  231MOL0     C31059   4.170  11.069  11.819  0.6267  0.0520  0.7681
  231MOL0     C31060   4.117  11.157  11.932 -1.3896 -0.3546 -0.3652
  231MOL0     C31061   4.025  11.079  12.028  0.4958 -0.7762 -0.5186
  231MOL0     C31062   3.974  11.156  12.143  0.2924 -0.1196  0.6421
  231MOL0     C31063   3.907  11.070  12.253 -0.1982  0.6486 -0.6998
  231MOL0     C31064   3.743  11.066  12.245 -0.5470 -0.7056 -0.1082
  231MOL0     C31065   3.691  11.063  12.395 -0.2135  0.4577  0.2440
  231MOL0     C31066   3.551  10.993  12.403  0.5422 -0.5271 -1.1934
  231MOL0     N31067   3.522  10.931  12.534 -0.6765 -0.2473  0.1702
  231MOL0     C31068   3.522  10.994  12.657  0.6336  0.2451 -0.9538
  231MOL0     C31069   3.542  10.893  12.745  0.0829  0.8710 -0.3236
  231MOL0     C31070   3.538  10.909  12.892  0.1132  0.7133 -0.7982
  231MOL0     C31071   3.632  10.820  12.976 -0.4668  0.3414  1.0471
  231MOL0     C31072   3.576  10.703  13.046  0.1815 -0.1870 -0.6203
  231MOL0     C31073   3.504  10.604  12.967 -0.9546  0.1948  0.2938
  231MOL0     O31074   3.370  10.628  12.935  0.0417 -0.0353 -0.3221
  231MOL0     C31075   3.274  10.625  13.028  0.5870 -0.4190  0.3750
  231MOL0     C31076   3.287  10.585  13.167  0.4873 -0.3543  0.1666
  231MOL0     C31077   3.170  10.577  13.255 -1.0425 -0.0929  0.3517
  231MOL0     C31078   3.212  10.580  13.402  0.1548  0.6378  0.6517
  231MOL0     C31079   3.043  10.594  13.203  1.2485 -0.2326 -0.3994
  231MOL0     C31080   2.929  10.582  13.290  0.2953 -0.0510  0.1227
  231MOL0     O31081   2.819  10.532  13.219  0.8090 -0.2286 -0.5029
  231MOL0     C31082   2.699  10.513  13.285 -0.5465 -1.1541 -0.3512
  231MOL0     C31083   2.685  10.451  13.419 -0.2713  0.4307 -0.3400
  231MOL0     C31084   2.557  10.425  13.473 -0.3716 -0.5801  0.6557
  231MOL0     C31085   2.446  10.464  13.399  0.1909  0.5118  0.2625
  231MOL0     O31086   2.326  10.454  13.468  0.8426 -0.5289 -0.1974
  231MOL0     C31087   2.228  10.558  13.438  0.1216  0.2146  0.0268
  231MOL0     C31088   2.113  10.559  13.551  0.5905 -0.5492 -1.0656
  231MOL0     C31089   2.008  10.456  13.521 -0.0386  0.4858 -0.0973
  231MOL0     C31090   1.935  10.416  13.649 -0.1669 -0.1814  0.6821
  231MOL0     C31091   1.844  10.526  13.696 -0.4198  0.2910 -1.0901
  231MOL0     C31092   1.705  10.549  13.631  0.3695 -0.5166  0.2001
  231MOL0     C31093   1.610  10.421  13.637 -0.3108  0.0737  0.7634
  231MOL0     C31094   1.459  10.436  13.639  0.2957  0.1252  0.8120
  231MOL0    Cl31095   1.405  10.549  13.505  0.1982  0.3040  0.2773
  231MOL0     C31096   2.458  10.514  13.266  0.0492  0.2486 -1.2747
  231MOL0     C31097   2.583  10.539  13.213 -0.6488 -0.4517  0.1943
  231MOL0     O31098   2.936  10.612  13.410  0.6775  0.5888 -0.0994
  231MOL0     C31099   3.037  10.622  13.065  0.0645 -1.6110  0.0250
  231MOL0     C31100   3.143  10.641  12.976 -0.0531 -0.6023  0.0618
  231MOL0     N31101   3.551  10.776  12.681  0.3309  0.5494 -0.0332
  231MOL0     N31102   3.548  10.799  12.560 -0.6889  0.0088 -0.8167
  231MOL0     C31103   4.401  10.911  11.732 -0.3399  0.4909 -0.3538
  231MOL0     C31104   4.449  10.823  11.635  0.0452 -0.4450  0.7049
  231MOL0     C31105   4.478  10.535  11.288  0.6938  0.4678  0.0064
  231MOL0     C31106   4.484  10.576  11.153 -0.4507 -0.3375  0.9088
  231MOL0     C31107   4.567  10.510  11.060 -0.0865 -0.2718  0.6696
  231MOL0     C31108   4.656  10.421  11.107 -0.8646  0.0626  0.2252
  231MOL0     O31109   4.754  10.359  11.031 -0.3954 -0.8081 -0.5347
  231MOL0     C31110   4.699  10.287  10.917  0.1275  0.3165 -0.1251
  231MOL0     C31111   4.807  10.198  10.873 -0.2194  0.2873  0.5286
  231MOL0     C31112   4.782  10.147  10.726 -0.0468 -0.0075  0.1021
  231MOL0     C31113   4.889  10.057  10.677 -1.1345  0.1032  0.5612
  231MOL0     C31114   4.848   9.919  10.645  0.7098 -0.2623 -0.1229
  231MOL0     C31115   4.803   9.805  10.614 -0.3352 -0.7037  0.2378
  231MOL0     C31116   4.648  10.373  11.241  0.2816 -0.5662  0.2358
  231MOL0     C31117   4.561  10.428  11.329  0.2282  0.7574 -0.7061
  231MOL0     H31118   4.195  10.594  11.651  0.8310  0.3604 -2.8271
  231MOL0     H31119   4.130  10.749  11.847  0.4165 -1.6014  0.9678
  231MOL0     H31120   4.242  11.130  11.764  3.3887 -1.3187  2.6355
  231MOL0     H31121   4.082  11.031  11.765 -0.3294 -1.9022  3.4917
  231MOL0     H31122   4.208  11.192  11.982 -0.7049  0.1196 -1.8918
  231MOL0     H31123   4.058  11.239  11.892 -0.1237  1.6619  1.6812
  231MOL0     H31124   3.941  11.038  11.971  2.2508 -2.2684 -2.1609
  231MOL0     H31125   4.081  10.996  12.072  2.5280 -0.3611 -2.1611
  231MOL0     H31126   4.066  11.187  12.193  1.2724 -0.2888 -0.9750
  231MOL0     H31127   3.919  11.249  12.125  1.3185  1.3540  4.3024
  231MOL0     H31128   3.949  10.970  12.241  1.3367  1.4045 -2.1319
  231MOL0     H31129   3.935  11.110  12.351 -0.7375  0.3297 -0.4110
  231MOL0     H31130   3.704  11.153  12.190 -0.7758 -2.0798 -2.2421
  231MOL0     H31131   3.717  10.975  12.191 -2.0162 -0.8502  0.7920
  231MOL0     H31132   3.763  11.012  12.459  1.5628  2.3590 -0.1170
  231MOL0     H31133   3.663  11.161  12.436 -0.6565  0.6019 -0.3869
  231MOL0     H31134   3.539  10.915  12.327  0.7509 -2.0159  0.2383
  231MOL0     H31135   3.471  11.065  12.385 -0.4766 -1.1794  0.4338
  231MOL0     H31136   3.502  11.100  12.670 -1.4081  0.1441 -2.6644
  231MOL0     H31137   3.543  11.008  12.939 -1.6455  0.0544  0.9191
  231MOL0     H31138   3.439  10.878  12.926 -0.1962 -1.5327 -3.3916
  231MOL0     H31139   3.670  10.893  13.048  1.5695 -0.6318  1.0086
  231MOL0     H31140   3.716  10.786  12.916  0.2339  2.6698  0.6076
  231MOL0     H31141   3.523  10.736  13.137 -0.9262 -0.4122 -1.1666
  231MOL0     H31142   3.671  10.663  13.083  2.6544  1.5757 -4.4722
  231MOL0     H31143   3.504  10.504  13.012 -0.7617 -0.4336 -1.0341
  231MOL0     H31144   3.554  10.595  12.870 -1.1568 -2.3679  0.3531
  231MOL0     H31145   3.388  10.596  13.205  0.4908 -0.1816  0.1092
  231MOL0     H31146   3.193  10.676  13.450  1.3773  1.9920 -1.4286
  231MOL0     H31147   3.143  10.503  13.437 -0.0114 -0.2791 -1.5148
  231MOL0     H31148   3.316  10.546  13.400 -0.7934 -2.6441  1.6689
  231MOL0     H31149   2.775  10.429  13.476 -1.2840  0.0089  1.1378
  231MOL0     H31150   2.544  10.393  13.575 -2.2948 -2.9388 -0.2402
  231MOL0     H31151   2.281  10.654  13.431  2.6767 -0.9448  1.8981
  231MOL0     H31152   2.191  10.550  13.335 -0.9784  0.6968  0.3730
  231MOL0     H31153   2.166  10.544  13.645 -0.6676  0.9591 -0.0685
  231MOL0     H31154   2.071  10.660  13.557 -1.6676 -1.4825  0.4475
  231MOL0     H31155   2.056  10.371  13.470 -1.2363  0.4466 -1.2237
  231MOL0     H31156   1.934  10.499  13.452 -1.9171 -0.0667  1.5040
  231MOL0     H31157   1.874  10.326  13.636  1.1766 -0.9536 -0.6463
  231MOL0     H31158   2.015  10.396  13.720  1.1630  3.6426  0.4882
  231MOL0     H31159   1.898  10.621  13.700  0.7315 -0.3400  2.8341
  231MOL0     H31160   1.824  10.511  13.803  1.3822  8.5098  1.1363
  231MOL0     H31161   1.649  10.625  13.686 -2.8264 -2.9339  0.5944
  231MOL0     H31162   1.710  10.582  13.527  0.4296  1.1624  0.7077
  231MOL0     H31163   1.630  10.357  13.724 -2.5295 -1.5722  0.1657
  231MOL0     H31164   1.622  10.360  13.547 -1.1816  1.9720 -0.7084
  231MOL0     H31165   1.437  10.482  13.736  1.0694 -0.1492  1.1256
  231MOL0     H31166   1.413  10.337  13.640  1.9335 -0.6719  0.9736
  231MOL0     H31167   2.368  10.534  13.209 -1.0962  0.2592  0.4366
  231MOL0     H31168   2.589  10.578  13.112  2.1623 -0.1242  0.3939
  231MOL0     H31169   2.938  10.651  13.030 -0.5337 -2.3525  1.0298
  231MOL0     H31170   3.122  10.665  12.872 -0.6950 -0.4048  0.2330
  231MOL0     H31171   4.451  11.003  11.759  1.9704 -0.4976 -1.0252
  231MOL0     H31172   4.538  10.832  11.573  0.6175  1.9461  1.7399
  231MOL0     H31173   4.425  10.652  11.102  1.2196 -0.1575 -0.9071
  231MOL0     H31174   4.564  10.536  10.955  0.5539 -0.6425  0.5613
  231MOL0     H31175   4.615  10.223  10.944  0.0807 -0.5374 -2.1756
  231MOL0     H31176   4.663  10.352  10.836 -2.1820 -1.9748 -1.0563
  231MOL0     H31177   4.805  10.114  10.943 -0.6203 -0.8655 -0.8121
  231MOL0     H31178   4.900  10.254  10.886 -0.9342  1.2130  1.7917
  231MOL0     H31179   4.766  10.237  10.666 -1.0546  0.0502  0.4428
  231MOL0     H31180   4.688  10.093  10.731  0.1490 -0.6015 -1.9660
  231MOL0     H31181   4.970  10.049  10.751 -0.8856 -2.8934  0.0658
  231MOL0     H31182   4.929  10.113  10.592  0.0960 -0.1356  0.9612
  231MOL0     H31183   4.775   9.704  10.592 -1.1675 -0.9016  2.0622
  231MOL0     H31184   4.716  10.294  11.273 -0.3544 -0.4439  1.9504
  231MOL0     H31185   4.572  10.410  11.436 -0.6192 -0.4073 -0.7902
  232MOL0     O31186   9.345   3.118   5.143 -0.3572  1.5068 -0.0213
  232MOL0     C31187   9.236   3.083   5.104  0.5224 -0.4252  0.5237
  232MOL0     O31188   9.153   3.155   5.032 -0.2899  0.0994  0.0343
  232MOL0     C31189   9.186   3.275   4.968  0.1309 -0.6660  1.2262
  232MOL0     C31190   9.312   3.312   4.935 -0.1314 -1.2662 -0.2711
  232MOL0     C31191   9.330   3.431   4.856  0.0704 -0.3246 -0.2957
  232MOL0     C31192   9.224   3.510   4.799  0.2705  0.2654 -0.8608
  232MOL0     O31193   9.260   3.625   4.737 -0.4018  0.4386 -0.4221
  232MOL0     C31194   9.159   3.725   4.718  0.6123 -0.6222  0.2164
  232MOL0     C31195   9.224   3.851   4.663  0.0310 -0.7648  0.1861
  232MOL0     C31196   9.318   3.921   4.763  0.0545  0.2530 -0.1347
  232MOL0     C31197   9.325   4.074   4.738  0.2841  0.1617 -1.0641
  232MOL0     C31198   9.415   4.132   4.847 -0.4178  0.7475  0.4618
  232MOL0     C31199   9.341   4.165   4.978 -0.1125 -0.5718  0.2299
  232MOL0     C31200   9.428   4.246   5.070 -0.8189  0.0575 -0.2685
  232MOL0     C31201   9.410   4.400   5.054  0.8327  0.2251 -0.3724
  232MOL0     N31202   9.505   4.482   5.135 -0.5139  0.2248 -0.4556
  232MOL0     C31203   9.611   4.561   5.089  0.2133  1.0162  0.1361
  232MOL0     C31204   9.649   4.629   5.197 -1.1930 -1.0323  0.7113
  232MOL0     C31205   9.754   4.730   5.216 -0.8260 -0.1031 -1.1561
  232MOL0     C31206   9.895   4.681   5.224 -0.4144  0.0071  0.6097
  232MOL0     C31207   9.920   4.629   5.365  0.3148 -0.1243 -1.0052
  232MOL0     C31208  10.054   4.565   5.382 -0.2691 -0.1369  1.0017
  232MOL0     O31209  10.154   4.648   5.454 -0.9702  0.4591  0.2332
  232MOL0     C31210  10.173   4.633   5.585  1.1239 -0.4229 -0.7938
  232MOL0     C31211  10.086   4.564   5.674 -0.3846  0.2630  0.7970
  232MOL0     C31212  10.090   4.562   5.815 -0.4511  0.3816  0.0680
  232MOL0     C31213   9.972   4.500   5.896 -1.5819 -0.3490 -0.1782
  232MOL0     C31214  10.183   4.653   5.865  0.1761  0.5122  0.0249
  232MOL0     C31215  10.162   4.689   6.006 -0.0458  0.2284  0.7511
  232MOL0     O31216  10.029   4.703   6.046  0.1332 -0.3855  0.2440
  232MOL0     C31217   9.978   4.782   6.147 -0.8662  1.6205  0.0032
  232MOL0     C31218   9.835   4.794   6.150 -0.3903  0.0856 -0.7663
  232MOL0     C31219   9.771   4.862   6.257  0.4047 -1.2874 -1.0334
  232MOL0     C31220   9.844   4.914   6.356 -0.0666  0.3145  0.1010
  232MOL0     O31221   9.777   4.983   6.449 -0.4860  0.5024 -0.2491
  232MOL0     C31222   9.848   5.025   6.555  0.0047  0.1675 -0.0059
  232MOL0     C31223   9.766   5.120   6.652  0.6579  0.2884 -0.7985
  232MOL0     C31224   9.615   5.087   6.658 -0.1454 -0.8184 -0.6669
  232MOL0     C31225   9.541   5.151   6.778  0.2756  0.1826  0.4298
  232MOL0     C31226   9.395   5.107   6.786  0.9936 -0.5517 -0.1036
  232MOL0     C31227   9.290   5.120   6.673  1.1201  0.0118  0.0711
  232MOL0     C31228   9.173   5.018   6.675  0.0120  0.2478  0.6970
  232MOL0     C31229   9.070   5.034   6.786  0.0539 -0.8191 -0.4939
  232MOL0    Cl31230   8.931   4.932   6.740  0.4351 -0.1795  0.1258
  232MOL0     C31231   9.985   4.895   6.351  0.5930 -0.3428  0.0878
  232MOL0     C31232  10.046   4.824   6.252 -0.1174 -0.2705  0.1816
  232MOL0     O31233  10.261   4.721   6.072  0.0324 -0.5130 -0.3406
  232MOL0     C31234  10.281   4.720   5.791 -0.3289  0.3047  0.4419
  232MOL0     C31235  10.282   4.705   5.647  1.3274  0.0904  0.7451
  232MOL0     N31236   9.579   4.594   5.313  1.0702  0.0413  0.9849
  232MOL0     N31237   9.500   4.497   5.271  0.0761  0.7764 -0.8647
  232MOL0     C31238   9.095   3.465   4.840 -0.1223  0.0696 -0.4026
  232MOL0     C31239   9.081   3.353   4.921 -1.1861  0.4587  0.0350
  232MOL0     C31240   9.189   2.951   5.148  0.6623  0.0439 -0.7422
  232MOL0     C31241   9.270   2.866   5.222 -0.0997  0.0349 -0.7405
  232MOL0     C31242   9.238   2.739   5.268  1.1290 -0.0144 -0.3382
  232MOL0     C31243   9.098   2.700   5.253 -0.0973 -0.2189 -0.2681
  232MOL0     O31244   9.030   2.592   5.309 -0.4647 -0.4812  0.1101
  232MOL0     C31245   9.114   2.527   5.406  0.1917 -0.4031  0.9483
  232MOL0     C31246   9.034   2.410   5.460 -0.1467 -0.0999 -0.6059
  232MOL0     C31247   9.008   2.308   5.350  0.3069 -0.6236 -0.5728
  232MOL0     C31248   9.037   2.164   5.388  0.0523 -0.0792  0.0492
  232MOL0     C31249   8.960   2.112   5.502  0.0719 -0.0085 -0.4937
  232MOL0     C31250   8.882   2.061   5.583  0.0756 -0.6062 -0.0477
  232MOL0     C31251   9.022   2.787   5.171 -0.5003 -0.0948 -0.0343
  232MOL0     C31252   9.059   2.910   5.122 -0.7297 -0.2518 -0.0175
  232MOL0     H31253   9.404   3.257   4.951  0.1527 -0.6925  0.0550
  232MOL0     H31254   9.424   3.462   4.812  0.3657 -0.9195 -0.0969
  232MOL0     H31255   9.096   3.671   4.646 -1.4809  0.3650  1.2313
  232MOL0     H31256   9.098   3.741   4.807 -0.4671 -2.8511 -0.0436
  232MOL0     H31257   9.288   3.828   4.577 -2.5504  0.9251 -2.3944
  232MOL0     H31258   9.151   3.929   4.641 -0.6598 -1.3987  0.1700
  232MOL0     H31259   9.305   3.885   4.865  3.9055 -1.9612 -0.2477
  232MOL0     H31260   9.417   3.879   4.741  0.6251  2.4961 -2.3344
  232MOL0     H31261   9.361   4.096   4.637 -4.4164  1.6536 -2.6865
  232MOL0     H31262   9.226   4.120   4.744  0.1768 -0.2048  2.7263
  232MOL0     H31263   9.498   4.064   4.869 -0.5651  0.7844  1.1705
  232MOL0     H31264   9.449   4.221   4.795  1.2439 -0.4375 -0.5840
  232MOL0     H31265   9.246   4.215   4.955 -0.8499 -2.7817 -2.0542
  232MOL0     H31266   9.314   4.073   5.031  1.7017 -0.3987  1.5410
  232MOL0     H31267   9.406   4.219   5.173 -1.1102  3.0192  0.5389
  232MOL0     H31268   9.534   4.222   5.052 -0.7727  1.4698 -2.2538
  232MOL0     H31269   9.309   4.423   5.086  0.6589  1.0958 -1.4764
  232MOL0     H31270   9.409   4.430   4.949 -1.5245  0.3951 -0.3508
  232MOL0     H31271   9.649   4.563   4.987 -0.5614 -1.9660 -0.3091
  232MOL0     H31272   9.755   4.804   5.135 -0.1383  0.0610 -1.0106
  232MOL0     H31273   9.732   4.794   5.302 -0.4774  1.5949 -2.2733
  232MOL0     H31274   9.961   4.763   5.194 -2.1641  1.6874  1.1278
  232MOL0     H31275   9.911   4.601   5.151 -0.4577  1.3846 -0.9575
  232MOL0     H31276   9.844   4.554   5.388 -0.5912  1.6159  2.2827
  232MOL0     H31277   9.919   4.706   5.443 -0.3615  1.1334 -2.2118
  232MOL0     H31278  10.091   4.539   5.283 -1.0499  2.1339  0.0453
  232MOL0     H31279  10.050   4.466   5.429 -1.8702 -0.4551  0.2757
  232MOL0     H31280   9.992   4.520   5.644  0.2343 -0.3628 -0.3013
  232MOL0     H31281   9.887   4.569   5.896 -1.0351  0.3866 -1.9171
  232MOL0     H31282   9.944   4.405   5.849  0.8946 -0.7440 -0.9952
  232MOL0     H31283  10.006   4.470   5.995  1.5180  0.8997 -0.7608
  232MOL0     H31284   9.772   4.757   6.069 -0.9189 -2.8549  0.8577
  232MOL0     H31285   9.663   4.871   6.251  0.6144  3.6262 -0.8295
  232MOL0     H31286   9.885   4.944   6.619  0.7749  0.9103  0.5059
  232MOL0     H31287   9.940   5.076   6.527  0.4992  0.0668  1.3279
  232MOL0     H31288   9.814   5.112   6.750  0.9554  3.5702 -0.5543
  232MOL0     H31289   9.774   5.223   6.615 -0.4107  1.8667  2.8865
  232MOL0     H31290   9.591   4.981   6.654 -1.2101 -0.5581 -2.4997
  232MOL0     H31291   9.581   5.126   6.561 -0.5771 -0.3498 -0.3307
  232MOL0     H31292   9.603   5.121   6.864 -1.7452  0.9703  2.2405
  232MOL0     H31293   9.551   5.258   6.763  0.1702 -0.0554 -1.6499
  232MOL0     H31294   9.354   5.170   6.866  1.0560 -1.6688  0.8201
  232MOL0     H31295   9.390   5.001   6.810  0.7124 -1.0337 -2.0962
  232MOL0     H31296   9.253   5.222   6.686  0.4010 -0.3180  0.7298
  232MOL0     H31297   9.339   5.120   6.575  1.4062 -0.8350  0.2068
  232MOL0     H31298   9.219   4.919   6.677 -0.1559  0.1224 -0.7380
  232MOL0     H31299   9.128   5.023   6.576 -1.7311  2.1390  1.5157
  232MOL0     H31300   9.046   5.141   6.782  1.2141 -0.3882  2.0221
  232MOL0     H31301   9.120   5.020   6.882  1.1029  0.0062 -0.8980
  232MOL0     H31302  10.048   4.912   6.438 -0.0331 -3.1334  1.1917
  232MOL0     H31303  10.152   4.805   6.263  0.0520 -0.2618 -1.2324
  232MOL0     H31304  10.357   4.778   5.842 -1.4619 -0.4318  3.1205
  232MOL0     H31305  10.363   4.737   5.583 -0.6101 -1.6186 -2.8825
  232MOL0     H31306   9.014   3.529   4.807 -0.6455  0.4236  1.4634
  232MOL0     H31307   8.985   3.317   4.957 -1.9432  2.3240 -0.0579
  232MOL0     H31308   9.371   2.901   5.245 -1.0081  2.3138  0.0894
  232MOL0     H31309   9.302   2.674   5.327  0.2832 -0.9917 -0.4641
  232MOL0     H31310   9.208   2.485   5.369  0.4385  1.6795 -1.0375
  232MOL0     H31311   9.144   2.600   5.482  2.5866  0.1073 -0.3652
  232MOL0     H31312   8.940   2.434   5.511  0.7285  0.3517  0.8600
  232MOL0     H31313   9.096   2.360   5.534 -1.6750  0.4294  1.1116
  232MOL0     H31314   9.063   2.329   5.258  1.1018 -2.5098 -0.5861
  232MOL0     H31315   8.902   2.302   5.323  0.3949 -2.6372 -0.6543
  232MOL0     H31316   9.145   2.154   5.396  0.1514 -0.1252 -1.1031
  232MOL0     H31317   9.000   2.094   5.311 -2.2485  0.0515  0.9533
  232MOL0     H31318   8.809   2.029   5.654  0.2569 -1.1725 -0.1078
  232MOL0     H31319   8.917   2.763   5.156 -0.0612 -2.5266  0.3010
  232MOL0     H31320   8.986   2.971   5.070 -0.3513  0.5568  0.3736
  233MOL0     O31321   1.026   8.320   1.579  0.4320 -0.6015 -0.4724
  233MOL0     C31322   1.084   8.374   1.481 -0.2550 -0.2279  0.3128
  233MOL0     O31323   1.040   8.495   1.429  0.4569 -0.6707 -0.1648
  233MOL0     C31324   0.923   8.541   1.473  0.2003  0.6918  0.0306
  233MOL0     C31325   0.802   8.507   1.403 -0.2539  0.0667 -0.4535
  233MOL0     C31326   0.674   8.532   1.460  0.4932 -0.2678  0.4505
  233MOL0     C31327   0.669   8.589   1.593 -0.9625  0.3844 -0.7317
  233MOL0     O31328   0.547   8.630   1.654 -0.0993  0.6889 -0.2572
  233MOL0     C31329   0.421   8.580   1.601 -0.2418 -0.3454  0.7046
  233MOL0     C31330   0.305   8.604   1.692 -0.1458 -0.6862 -0.1582
  233MOL0     C31331   0.162   8.580   1.639  0.1579 -0.0214 -0.3204
  233MOL0     C31332   0.078   8.706   1.647  0.4758  0.1076 -0.6026
  233MOL0     C31333  -0.073   8.689   1.615 -0.5562  0.7511  0.1728
  233MOL0     C31334  -0.175   8.650   1.738  0.7547 -0.3561 -0.0061
  233MOL0     C31335  -0.316   8.664   1.678 -0.3997  0.4564  0.0340
  233MOL0     C31336  -0.358   8.583   1.555 -0.7793  0.3990 -0.6065
  233MOL0     N31337  -0.335   8.441   1.585  0.1787 -0.5118  0.3967
  233MOL0     C31338  -0.271   8.347   1.506  0.4759  0.2290 -0.3700
  233MOL0     C31339  -0.298   8.232   1.576 -0.3890  0.2979 -0.1254
  233MOL0     C31340  -0.293   8.098   1.518  1.5581 -0.5842  0.4376
  233MOL0     C31341  -0.152   8.061   1.469  0.6750  0.5925  0.8331
  233MOL0     C31342  -0.151   7.915   1.417 -0.0627  0.2331  0.1169
  233MOL0     C31343  -0.005   7.878   1.354  0.1352  0.0094  0.3435
  233MOL0     O31344  -0.016   7.756   1.280  0.0115  0.3710  0.1301
  233MOL0     C31345   0.096   7.705   1.201  0.4129 -1.0501  0.1781
  233MOL0     C31346   0.228   7.750   1.210  0.3178 -0.3137  1.3682
  233MOL0     C31347   0.333   7.707   1.127 -0.1297 -0.1668 -0.5537
  233MOL0     C31348   0.460   7.788   1.150 -1.3283 -0.2414  0.4097
  233MOL0     C31349   0.305   7.610   1.027 -0.2870 -0.2361  1.0256
  233MOL0     C31350   0.414   7.549   0.949 -0.5318  1.0051  0.1813
  233MOL0     O31351   0.537   7.551   1.004  0.2479  0.5306  0.6201
  233MOL0     C31352   0.639   7.473   0.965  0.7377  1.3481  1.1864
  233MOL0     C31353   0.746   7.493   1.046 -0.3202 -0.5929 -0.1821
  233MOL0     C31354   0.880   7.444   1.009 -0.7229 -0.5905 -0.2277
  233MOL0     C31355   0.893   7.369   0.896 -0.3748  0.6495  0.5057
  233MOL0     O31356   1.019   7.319   0.876  0.4145  0.7909 -0.3450
  233MOL0     C31357   1.039   7.220   0.776 -0.4981 -1.0111 -0.5688
  233MOL0     C31358   1.191   7.179   0.760 -0.0197  0.2992 -0.8171
  233MOL0     C31359   1.189   7.082   0.642  0.1422 -0.2184 -0.8400
  233MOL0     C31360   1.332   7.061   0.594 -0.4281 -0.2201  0.6625
  233MOL0     C31361   1.342   6.972   0.474 -0.4265 -0.4884  0.6440
  233MOL0     C31362   1.236   6.961   0.364 -0.0659  0.1320 -0.7555
  233MOL0     C31363   1.274   6.881   0.240  0.2656  0.3605  0.2407
  233MOL0     C31364   1.367   6.972   0.167 -0.1481 -0.3529  0.6869
  233MOL0    Cl31365   1.374   6.947  -0.005 -0.2806  0.0055  0.0715
  233MOL0     C31366   0.781   7.342   0.818 -0.0035  0.8650  0.1535
  233MOL0     C31367   0.659   7.403   0.835 -0.3605  0.1958 -0.2519
  233MOL0     O31368   0.379   7.474   0.860 -0.0581  0.0459 -0.3746
  233MOL0     C31369   0.176   7.560   1.023 -0.4467 -0.8389 -0.2827
  233MOL0     C31370   0.075   7.608   1.103 -0.5232  0.2668  0.0918
  233MOL0     N31371  -0.353   8.269   1.699  1.3485 -0.6481  0.6066
  233MOL0     N31372  -0.371   8.394   1.702  0.2273 -0.2849 -1.0117
  233MOL0     C31373   0.784   8.627   1.664  0.3417 -0.8302 -0.7103
  233MOL0     C31374   0.907   8.610   1.609 -0.2202 -0.6549 -0.1407
  233MOL0     C31375   1.219   8.323   1.440 -0.2428  1.5007 -0.3139
  233MOL0     C31376   1.274   8.205   1.499 -0.4155 -0.0714 -0.2480
  233MOL0     C31377   1.394   8.159   1.451 -0.6628  0.4728 -0.3278
  233MOL0     C31378   1.469   8.233   1.354 -0.2818  0.6704 -0.1746
  233MOL0     O31379   1.580   8.189   1.302 -0.1653  0.1463 -0.1055
  233MOL0     C31380   1.660   8.093   1.373  0.4966  0.9932 -0.4911
  233MOL0     C31381   1.679   7.969   1.286  0.0556  0.6290  0.9845
  233MOL0     C31382   1.739   7.997   1.145  0.2722 -0.0898 -0.2072
  233MOL0     C31383   1.870   8.079   1.123 -0.3885  0.1448  0.0799
  233MOL0     C31384   1.991   8.017   1.169  0.3983 -0.1699 -0.3747
  233MOL0     C31385   2.101   7.978   1.202  1.2375  0.6814  0.1121
  233MOL0     C31386   1.416   8.348   1.295 -0.2767 -0.3300 -0.1008
  233MOL0     C31387   1.293   8.394   1.343  1.4999 -0.0470  0.2844
  233MOL0     H31388   0.803   8.452   1.310  0.4802 -2.5072  0.9703
  233MOL0     H31389   0.582   8.511   1.405  0.4210  3.7945 -1.3398
  233MOL0     H31390   0.397   8.643   1.515 -0.4708 -1.3807 -0.0035
  233MOL0     H31391   0.423   8.476   1.568 -3.7922 -0.1931 -0.3996
  233MOL0     H31392   0.342   8.564   1.786  3.2158  1.9226 -0.1766
  233MOL0     H31393   0.304   8.712   1.709 -3.0916 -0.9953  2.4404
  233MOL0     H31394   0.158   8.554   1.533  0.7988 -2.2691  0.1522
  233MOL0     H31395   0.101   8.506   1.692 -3.6512  3.0487  0.1485
  233MOL0     H31396   0.087   8.745   1.749  0.5354 -0.3056 -0.4450
  233MOL0     H31397   0.121   8.781   1.580  0.0599  2.5081  1.6403
  233MOL0     H31398  -0.108   8.784   1.574  0.2561  0.9291 -0.1275
  233MOL0     H31399  -0.091   8.629   1.525 -1.0629 -2.6354  2.3735
  233MOL0     H31400  -0.167   8.550   1.780 -1.6115 -0.2879  0.7543
  233MOL0     H31401  -0.176   8.724   1.819  1.2214 -0.8521  0.4594
  233MOL0     H31402  -0.384   8.647   1.762  1.2701  0.6914  1.4790
  233MOL0     H31403  -0.320   8.770   1.652 -1.1349  1.7939  4.7028
  233MOL0     H31404  -0.291   8.607   1.471  0.9302  0.8303  0.8224
  233MOL0     H31405  -0.459   8.608   1.522 -2.1271 -0.2724  2.6626
  233MOL0     H31406  -0.221   8.360   1.411 -2.5981 -0.3037 -2.1507
  233MOL0     H31407  -0.314   8.035   1.606 -2.2232  1.1220  0.9476
  233MOL0     H31408  -0.364   8.087   1.436 -0.2413  0.4039  1.7899
  233MOL0     H31409  -0.081   8.078   1.550  1.6777 -1.7879  0.5213
  233MOL0     H31410  -0.134   8.124   1.382 -2.2661  1.2945  0.6081
  233MOL0     H31411  -0.226   7.914   1.337 -2.7965 -3.2422  2.4453
  233MOL0     H31412  -0.190   7.839   1.485 -2.7259 -1.4049 -2.9282
  233MOL0     H31413   0.059   7.860   1.440  2.5075 -2.0556 -1.6962
  233MOL0     H31414   0.022   7.963   1.290 -3.4720  1.9701  1.1362
  233MOL0     H31415   0.256   7.816   1.292 -0.8032  1.5872  0.2811
  233MOL0     H31416   0.515   7.819   1.061 -0.5627 -2.1915  0.1453
  233MOL0     H31417   0.432   7.886   1.188  0.3400  0.5658 -0.3352
  233MOL0     H31418   0.531   7.740   1.218 -0.6563 -1.3033 -0.9769
  233MOL0     H31419   0.715   7.559   1.126 -0.6214 -0.4143 -0.4440
  233MOL0     H31420   0.966   7.455   1.075 -1.2828  1.3252  0.2424
  233MOL0     H31421   0.975   7.140   0.813 -1.3400  0.2150  0.7075
  233MOL0     H31422   1.008   7.265   0.681  2.2198  2.1828 -0.1329
  233MOL0     H31423   1.246   7.268   0.726 -3.2426  0.5832 -6.5939
  233MOL0     H31424   1.224   7.132   0.853 -2.8564 -2.1381 -0.8642
  233MOL0     H31425   1.123   7.118   0.563 -0.4328  2.5928  0.7995
  233MOL0     H31426   1.136   6.989   0.666 -2.2182  0.0389 -4.3888
  233MOL0     H31427   1.364   7.157   0.551  2.0054 -0.5204  1.6399
  233MOL0     H31428   1.398   7.023   0.672  0.4394  1.7785  0.9734
  233MOL0     H31429   1.346   6.868   0.505  0.5564 -1.2211 -1.6809
  233MOL0     H31430   1.440   6.982   0.426 -0.8627  1.9457  0.1278
  233MOL0     H31431   1.151   6.915   0.417  0.5351 -0.9383 -0.6852
  233MOL0     H31432   1.212   7.063   0.334 -0.9659 -0.2173 -1.2620
  233MOL0     H31433   1.187   6.867   0.176 -2.1397  1.0598  3.1502
  233MOL0     H31434   1.319   6.784   0.262  1.4892  0.9369  0.3977
  233MOL0     H31435   1.467   6.970   0.210  0.2134  3.0233  0.2109
  233MOL0     H31436   1.335   7.076   0.175  1.7387  0.4283 -1.1168
  233MOL0     H31437   0.800   7.282   0.729 -2.0949  0.4994 -0.0833
  233MOL0     H31438   0.583   7.395   0.757  0.5118  1.4638 -1.2868
  233MOL0     H31439   0.154   7.490   0.942 -0.3032  0.9179 -1.9118
  233MOL0     H31440  -0.027   7.572   1.094 -0.3359 -0.8165  1.9199
  233MOL0     H31441   0.786   8.666   1.765  0.9613  4.2928 -2.4232
  233MOL0     H31442   0.998   8.634   1.663  0.3280 -0.9383 -0.9176
  233MOL0     H31443   1.214   8.161   1.577  3.8965 -0.4357  3.2592
  233MOL0     H31444   1.427   8.059   1.475  1.5338  1.1865 -0.1316
  233MOL0     H31445   1.761   8.134   1.382  2.4485 -3.4964  1.2322
  233MOL0     H31446   1.619   8.060   1.470  0.7798 -2.3715 -1.3764
  233MOL0     H31447   1.581   7.925   1.265 -0.7603  1.7873  2.1649
  233MOL0     H31448   1.745   7.894   1.331 -1.5590 -3.8574 -3.2714
  233MOL0     H31449   1.662   8.040   1.080  1.9246  0.2422 -2.0800
  233MOL0     H31450   1.763   7.897   1.108  1.5098 -0.4203  1.4021
  233MOL0     H31451   1.854   8.174   1.173 -3.1718 -0.2309  0.0731
  233MOL0     H31452   1.887   8.086   1.015 -1.9960 -0.0548 -0.2147
  233MOL0     H31453   2.190   7.939   1.247 -0.0506 -1.1643  1.1941
  233MOL0     H31454   1.471   8.406   1.221  0.8478  1.1439  1.8003
  233MOL0     H31455   1.245   8.477   1.292 -1.4971 -2.6312 -1.4398
  234MOL0     O31456   8.217   7.521   6.929 -0.4038 -0.5776  0.3456
  234MOL0     C31457   8.313   7.457   6.888  0.0458 -0.7273 -0.1399
  234MOL0     O31458   8.305   7.329   6.827 -0.6885 -0.5808 -0.1438
  234MOL0     C31459   8.180   7.280   6.793  0.9826 -0.5371  0.2126
  234MOL0     C31460   8.167   7.252   6.662 -0.1274 -0.3841 -0.1381
  234MOL0     C31461   8.050   7.216   6.605  0.1109  1.0788 -0.2627
  234MOL0     C31462   7.934   7.194   6.691  0.2024  0.8307  0.3399
  234MOL0     O31463   7.806   7.189   6.647 -0.3762 -0.6937  0.4785
  234MOL0     C31464   7.768   7.185   6.506  0.0372 -0.5692 -0.2639
  234MOL0     C31465   7.748   7.035   6.455 -0.5145 -0.9070  0.1112
  234MOL0     C31466   7.646   6.943   6.526  0.0363  0.0836  0.3775
  234MOL0     C31467   7.709   6.847   6.631 -0.4099 -0.3561  0.1933
  234MOL0     C31468   7.634   6.848   6.761  1.1401  0.3893  0.3180
  234MOL0     C31469   7.661   6.726   6.851 -0.3908 -0.4609  0.9955
  234MOL0     C31470   7.563   6.599   6.828 -0.0015 -0.5413 -0.3547
  234MOL0     C31471   7.549   6.538   6.685  0.0779 -0.0591 -0.3516
  234MOL0     N31472   7.477   6.410   6.682  0.0335 -0.6649 -0.1604
  234MOL0     C31473   7.345   6.392   6.704 -0.0553  0.2568  0.2270
  234MOL0     C31474   7.320   6.254   6.714 -0.0971  0.4431  0.0844
  234MOL0     C31475   7.191   6.175   6.736 -0.1842  0.8405 -0.5246
  234MOL0     C31476   7.060   6.224   6.671 -0.4807 -0.2558 -0.4238
  234MOL0     C31477   6.945   6.158   6.721 -0.7253 -0.0012 -0.4099
  234MOL0     C31478   6.831   6.175   6.625  1.2004  0.2251  0.5391
  234MOL0     O31479   6.715   6.095   6.664  0.1073  0.1336 -0.1125
  234MOL0     C31480   6.596   6.121   6.597  0.6484 -1.1036  0.3156
  234MOL0     C31481   6.538   6.030   6.509  0.5794  0.0656 -0.0080
  234MOL0     C31482   6.407   6.046   6.462  0.6894  0.1799  0.5259
  234MOL0     C31483   6.342   5.938   6.370  0.0033 -0.3728  0.8623
  234MOL0     C31484   6.337   6.169   6.484 -0.4542  0.3056 -0.0057
  234MOL0     C31485   6.208   6.219   6.426  0.1360 -0.5312 -0.2545
  234MOL0     O31486   6.153   6.141   6.326 -0.1083 -0.4332 -0.2004
  234MOL0     C31487   6.053   6.180   6.246  0.6401  0.4430 -0.1130
  234MOL0     C31488   5.942   6.106   6.240  0.1052  0.3181  0.3657
  234MOL0     C31489   5.831   6.145   6.174  0.0466 -0.7454  0.7295
  234MOL0     C31490   5.829   6.273   6.112  1.5865 -1.0190 -0.1759
  234MOL0     O31491   5.705   6.310   6.064 -0.1722  0.3457  0.5593
  234MOL0     C31492   5.683   6.437   6.018 -0.8954 -0.2699 -0.4012
  234MOL0     C31493   5.568   6.438   5.922  0.6549 -0.0763 -0.3321
  234MOL0     C31494   5.431   6.475   5.979 -0.2677 -0.0043  0.4687
  234MOL0     C31495   5.313   6.418   5.882 -0.0033  0.3217 -0.2681
  234MOL0     C31496   5.178   6.452   5.948 -0.0303  0.5140 -0.8201
  234MOL0     C31497   5.073   6.500   5.841 -0.3861 -0.5165  0.0998
  234MOL0     C31498   4.949   6.570   5.898  0.1502  0.4526 -0.2752
  234MOL0     C31499   4.839   6.482   5.986 -0.0176 -0.0136 -0.1241
  234MOL0    Cl31500   4.802   6.325   5.933  0.1881  0.4749  0.1499
  234MOL0     C31501   5.945   6.351   6.114  0.3557  0.5428  0.0858
  234MOL0     C31502   6.064   6.294   6.180  0.5971  0.6003  0.4188
  234MOL0     O31503   6.159   6.322   6.472 -0.3316 -0.3706  0.3006
  234MOL0     C31504   6.397   6.255   6.581 -0.5802 -0.7331  0.1845
  234MOL0     C31505   6.521   6.229   6.649 -0.0663  0.0804  0.5714
  234MOL0     N31506   7.443   6.195   6.718 -1.2847 -0.0248 -0.2370
  234MOL0     N31507   7.532   6.288   6.711  0.3230  0.0576  0.1566
  234MOL0     C31508   7.957   7.195   6.822 -1.0078 -0.5890 -0.8568
  234MOL0     C31509   8.076   7.238   6.878 -0.3273 -0.0621  0.3915
  234MOL0     C31510   8.443   7.514   6.929 -0.0530 -0.8021 -0.1164
  234MOL0     C31511   8.463   7.659   6.935 -0.2303  0.4552 -0.3062
  234MOL0     C31512   8.592   7.714   6.936  0.5007  0.7551  0.3087
  234MOL0     C31513   8.704   7.631   6.944 -0.4399 -0.1081 -0.3905
  234MOL0     O31514   8.832   7.680   6.931  0.6481  0.3874  0.6789
  234MOL0     C31515   8.849   7.808   6.998 -0.5387 -0.4914 -0.5422
  234MOL0     C31516   8.995   7.845   7.025 -0.0939  0.5603  0.0432
  234MOL0     C31517   9.056   7.765   7.136 -0.4437  0.3342 -0.4250
  234MOL0     C31518   9.196   7.815   7.190  0.3628 -0.3521  0.1737
  234MOL0     C31519   9.239   7.743   7.310 -0.0499 -0.8418 -0.0067
  234MOL0     C31520   9.284   7.686   7.406 -0.4709  0.7474 -0.5646
  234MOL0     C31521   8.693   7.496   6.954  0.2467  0.0663 -0.0050
  234MOL0     C31522   8.559   7.434   6.947 -0.3890 -0.3676  0.0861
  234MOL0     H31523   8.257   7.269   6.603  2.1651 -1.7795  2.6946
  234MOL0     H31524   8.034   7.205   6.498 -0.1963  0.5786 -0.1718
  234MOL0     H31525   7.672   7.234   6.487 -0.4359 -0.0498  2.8524
  234MOL0     H31526   7.842   7.238   6.445 -2.8036  3.7725 -0.3968
  234MOL0     H31527   7.717   7.045   6.350 -3.8504  0.8384  1.1070
  234MOL0     H31528   7.843   6.981   6.451  0.5116  0.7857  0.4806
  234MOL0     H31529   7.571   7.005   6.576  0.4508  2.7419 -2.0458
  234MOL0     H31530   7.596   6.880   6.453 -1.3487 -0.0865  1.4284
  234MOL0     H31531   7.729   6.750   6.587  0.5846  0.9165 -2.3577
  234MOL0     H31532   7.807   6.887   6.660 -2.0296  0.9598  4.7430
  234MOL0     H31533   7.644   6.942   6.815 -0.4940 -0.1662  1.6507
  234MOL0     H31534   7.530   6.838   6.731  0.7091  2.7751  0.7916
  234MOL0     H31535   7.766   6.695   6.855 -0.0514  0.5787  0.5220
  234MOL0     H31536   7.661   6.764   6.954 -1.4340  4.0131 -0.4211
  234MOL0     H31537   7.607   6.522   6.892  1.9809 -0.4430 -1.5374
  234MOL0     H31538   7.464   6.618   6.872  0.2630 -2.3805  1.1800
  234MOL0     H31539   7.646   6.511   6.643 -1.1551 -0.2671 -3.3132
  234MOL0     H31540   7.499   6.613   6.623  0.4619  1.0732  0.6778
  234MOL0     H31541   7.275   6.475   6.708  1.6238  1.6867  2.8251
  234MOL0     H31542   7.213   6.074   6.700  0.1973  0.1303  1.5568
  234MOL0     H31543   7.177   6.165   6.844  1.2970  2.1238 -0.1754
  234MOL0     H31544   7.071   6.196   6.565 -0.6559  2.1174 -1.1316
  234MOL0     H31545   7.051   6.333   6.676  0.5241 -0.2180  1.6201
  234MOL0     H31546   6.917   6.194   6.821 -1.6808  1.2503 -1.1031
  234MOL0     H31547   6.973   6.052   6.728  0.4172  0.3083 -0.1460
  234MOL0     H31548   6.875   6.151   6.528  2.1682  3.8792 -0.0901
  234MOL0     H31549   6.802   6.281   6.621 -1.4378 -0.4483 -0.1081
  234MOL0     H31550   6.594   5.946   6.471  0.5761 -0.3524  0.8905
  234MOL0     H31551   6.238   5.917   6.396 -0.6118  2.8699  1.4299
  234MOL0     H31552   6.359   5.970   6.267 -0.0938 -0.6062  0.7737
  234MOL0     H31553   6.400   5.845   6.378  1.3714  0.2314 -1.3076
  234MOL0     H31554   5.945   6.006   6.284 -1.6588  0.6699  1.3989
  234MOL0     H31555   5.740   6.087   6.183 -0.5764  0.3630  2.0833
  234MOL0     H31556   5.647   6.494   6.104  0.1591 -2.2418  1.4499
  234MOL0     H31557   5.770   6.488   5.977  0.1220  0.6357  2.6249
  234MOL0     H31558   5.584   6.508   5.840 -3.5291 -0.0195 -1.3340
  234MOL0     H31559   5.556   6.338   5.880 -1.2294 -0.7561  1.6753
  234MOL0     H31560   5.429   6.584   5.976 -1.0556  0.0126  1.1403
  234MOL0     H31561   5.415   6.452   6.084  0.6340  0.8096  0.7922
  234MOL0     H31562   5.324   6.476   5.790  2.5306  3.1182  1.5970
  234MOL0     H31563   5.322   6.309   5.872  0.2527 -0.3983  4.8740
  234MOL0     H31564   5.190   6.535   6.019  1.7523 -0.2278 -0.1913
  234MOL0     H31565   5.151   6.362   6.005 -3.5256  1.3721 -0.9073
  234MOL0     H31566   5.128   6.565   5.772  0.7369 -0.5487  0.9322
  234MOL0     H31567   5.047   6.414   5.779  3.8281 -0.3867 -2.2249
  234MOL0     H31568   4.901   6.631   5.822 -0.9102 -0.5665 -0.4472
  234MOL0     H31569   4.988   6.644   5.968 -1.6574 -0.2675  1.6067
  234MOL0     H31570   4.747   6.527   6.024 -1.9542 -2.4781 -1.5639
  234MOL0     H31571   4.882   6.470   6.085 -1.5226 -0.1324  0.5426
  234MOL0     H31572   5.970   6.443   6.062  0.7185  0.2568 -0.2560
  234MOL0     H31573   6.153   6.356   6.185  1.6667 -0.6574 -1.6647
  234MOL0     H31574   6.360   6.348   6.625  2.0191  0.7136 -0.4979
  234MOL0     H31575   6.559   6.309   6.711  0.0198  2.5926 -2.4708
  234MOL0     H31576   7.876   7.179   6.893 -1.3981  0.3260 -1.0822
  234MOL0     H31577   8.089   7.236   6.985 -3.7575 -1.9685  0.9108
  234MOL0     H31578   8.381   7.728   6.914 -0.3483  0.0310 -1.3303
  234MOL0     H31579   8.598   7.820   6.918  0.6372  0.4238 -1.8676
  234MOL0     H31580   8.806   7.895   6.946 -3.5185  0.6450  3.3250
  234MOL0     H31581   8.796   7.802   7.094  2.8370  0.8220  1.5755
  234MOL0     H31582   9.005   7.950   7.054 -1.0380  0.8926 -0.7707
  234MOL0     H31583   9.052   7.822   6.934 -2.3240 -2.6558 -0.7225
  234MOL0     H31584   9.058   7.656   7.130  1.1874  0.0863  2.4509
  234MOL0     H31585   8.994   7.778   7.225  1.8114 -1.2767  1.5455
  234MOL0     H31586   9.196   7.923   7.208  2.7470 -0.4468  0.9541
  234MOL0     H31587   9.263   7.802   7.104 -1.8910  1.1100 -1.9712
  234MOL0     H31588   9.327   7.628   7.486  0.7195  2.7182  0.2932
  234MOL0     H31589   8.784   7.437   6.954 -1.4478 -2.7888  2.2530
  234MOL0     H31590   8.558   7.326   6.948 -1.9306 -0.4093 -1.3344
  235MOL0     O31591   9.275   8.523   6.549  0.0030  0.4535 -0.1320
  235MOL0     C31592   9.157   8.556   6.538  1.7392 -1.3548 -0.5450
  235MOL0     O31593   9.110   8.688   6.573  0.0868  0.0054  0.0605
  235MOL0     C31594   9.218   8.785   6.589 -0.5111  0.7097 -0.1515
  235MOL0     C31595   9.287   8.805   6.702 -0.4282 -0.5097  0.1491
  235MOL0     C31596   9.397   8.893   6.706 -0.6176  0.0505 -0.2660
  235MOL0     C31597   9.432   8.983   6.604 -0.5657 -0.0899 -0.1908
  235MOL0     O31598   9.530   9.081   6.608 -0.3184 -0.1962 -0.2265
  235MOL0     C31599   9.630   9.075   6.715  0.2783  0.4597  0.4538
  235MOL0     C31600   9.734   9.179   6.709  0.5947  0.4930  0.1142
  235MOL0     C31601   9.677   9.318   6.722  0.8837 -0.1741  0.1854
  235MOL0     C31602   9.776   9.429   6.741 -0.4028  0.3738 -0.9965
  235MOL0     C31603   9.706   9.566   6.744  0.1632 -0.7704  0.3880
  235MOL0     C31604   9.637   9.599   6.883 -0.4438  0.1793  2.4063
  235MOL0     C31605   9.519   9.681   6.861  0.3382 -0.4386 -0.7930
  235MOL0     C31606   9.403   9.686   6.971  0.1823  0.1079  0.3093
  235MOL0     N31607   9.427   9.784   7.084 -0.3657  0.7344  1.2640
  235MOL0     C31608   9.531   9.771   7.176  0.4374  0.5176  0.5445
  235MOL0     C31609   9.493   9.876   7.255  0.0738  1.0689 -0.5246
  235MOL0     C31610   9.577   9.905   7.383  0.2193  0.3371 -0.3249
  235MOL0     C31611   9.720   9.960   7.341  0.7168 -0.2751 -0.5004
  235MOL0     C31612   9.793  10.043   7.450 -0.6892 -0.3653  0.4827
  235MOL0     C31613   9.925  10.114   7.411 -1.1475  0.0349 -0.4522
  235MOL0     O31614  10.022  10.015   7.372  0.0235 -0.2896 -0.1892
  235MOL0     C31615  10.100   9.960   7.479 -0.8733  0.4937 -0.3253
  235MOL0     C31616  10.052   9.956   7.610 -0.4229 -0.1248  1.0531
  235MOL0     C31617  10.129   9.921   7.722 -0.3961  0.5007 -0.2383
  235MOL0     C31618  10.058   9.907   7.861  0.4206 -0.3657  0.4785
  235MOL0     C31619  10.265   9.879   7.698 -0.2350 -0.7118  0.1161
  235MOL0     C31620  10.358   9.835   7.806  0.3300 -0.8743  0.2691
  235MOL0     O31621  10.310   9.844   7.935 -0.5012 -1.1663 -0.0621
  235MOL0     C31622  10.401   9.805   8.032 -0.2352  0.3646 -0.5829
  235MOL0     C31623  10.374   9.699   8.114  0.2089  0.4434 -0.0470
  235MOL0     C31624  10.450   9.678   8.234 -0.0379  0.5020  0.4988
  235MOL0     C31625  10.573   9.753   8.254  0.6924  0.0536 -0.3359
  235MOL0     O31626  10.659   9.726   8.360  0.0489 -0.2478 -0.5358
  235MOL0     C31627  10.616   9.662   8.485  0.2990 -0.4338  0.4230
  235MOL0     C31628  10.732   9.676   8.579  0.7695  0.8972 -0.3315
  235MOL0     C31629  10.685   9.616   8.716  0.0298  0.6367 -0.0479
  235MOL0     C31630  10.791   9.652   8.827  0.7894  0.3512  0.3476
  235MOL0     C31631  10.917   9.566   8.816  0.8261  0.7208  0.2384
  235MOL0     C31632  10.995   9.578   8.942 -0.9279 -0.0598  0.1770
  235MOL0     C31633  11.118   9.487   8.934 -0.5092 -0.3471  0.0751
  235MOL0     C31634  11.195   9.498   9.064  0.3577  0.4797  0.2577
  235MOL0    Cl31635  11.092   9.465   9.208 -0.3378 -0.3901  0.5570
  235MOL0     C31636  10.599   9.869   8.178 -0.2895  0.0138 -0.2383
  235MOL0     C31637  10.509   9.897   8.074  0.3281  0.8223  0.1958
  235MOL0     O31638  10.473   9.802   7.773  0.2841 -0.2341 -0.1742
  235MOL0     C31639  10.311   9.883   7.562  0.5520  0.8947  0.0091
  235MOL0     C31640  10.233   9.930   7.456  0.6243  0.3680 -0.8158
  235MOL0     N31641   9.389   9.947   7.211 -0.4609  0.2182 -0.5550
  235MOL0     N31642   9.342   9.884   7.107 -1.1273  0.2757 -0.4575
  235MOL0     C31643   9.334   8.980   6.507  0.2590  0.2439  0.4314
  235MOL0     C31644   9.229   8.883   6.493  0.1868  0.1792 -1.0341
  235MOL0     C31645   9.050   8.458   6.490  0.1839  0.2883  0.8677
  235MOL0     C31646   8.914   8.468   6.510  1.0907  1.3301  0.6405
  235MOL0     C31647   8.816   8.376   6.446  0.0597 -0.5247  0.2113
  235MOL0     C31648   8.872   8.274   6.367  0.4635 -0.0354 -0.2717
  235MOL0     O31649   8.775   8.194   6.312  0.2986  0.1375  0.5319
  235MOL0     C31650   8.821   8.064   6.255 -0.5178 -0.1534  0.6565
  235MOL0     C31651   8.722   7.955   6.286 -0.5423 -0.1285  1.1385
  235MOL0     C31652   8.588   7.995   6.221  0.1982  0.7806 -1.0609
  235MOL0     C31653   8.481   7.885   6.241  0.0845  0.3615  0.2223
  235MOL0     C31654   8.516   7.753   6.192 -0.3587 -0.5004 -0.3877
  235MOL0     C31655   8.552   7.638   6.171  0.1054 -0.3513 -1.0025
  235MOL0     C31656   9.009   8.267   6.339 -0.2500 -0.3677 -0.3296
  235MOL0     C31657   9.100   8.352   6.406  0.2037  0.1169  0.0865
  235MOL0     H31658   9.263   8.740   6.786 -0.1624  0.9972  1.4554
  235MOL0     H31659   9.449   8.894   6.801 -0.4662 -2.6298 -0.2369
  235MOL0     H31660   9.597   9.069   6.819  1.9503  1.7040  1.1016
  235MOL0     H31661   9.691   8.988   6.691  2.9763  1.9731  1.3931
  235MOL0     H31662   9.788   9.152   6.801 -0.7869 -0.2387  0.7407
  235MOL0     H31663   9.806   9.169   6.627  2.8701 -0.5744  2.0929
  235MOL0     H31664   9.627   9.349   6.629  0.8261  0.5891  0.4596
  235MOL0     H31665   9.604   9.310   6.802  1.6765 -1.0089  0.8482
  235MOL0     H31666   9.815   9.406   6.841 -4.6737  0.1109  0.8283
  235MOL0     H31667   9.851   9.419   6.662 -1.2385  2.7453 -2.1683
  235MOL0     H31668   9.794   9.629   6.724  1.8122 -2.7749  1.0276
  235MOL0     H31669   9.634   9.568   6.661  1.9033 -0.3424 -1.1766
  235MOL0     H31670   9.610   9.504   6.931 -0.2963 -0.5870  1.0262
  235MOL0     H31671   9.718   9.647   6.938  1.5077 -1.3296  1.0116
  235MOL0     H31672   9.530   9.789   6.844 -1.0537 -0.1638 -0.1213
  235MOL0     H31673   9.459   9.626   6.788 -2.2117 -0.0920  0.8859
  235MOL0     H31674   9.390   9.588   7.018  1.5373 -0.3488 -0.2287
  235MOL0     H31675   9.306   9.706   6.924  0.4395 -1.2039 -0.8570
  235MOL0     H31676   9.603   9.691   7.183 -0.2707 -0.1567  0.2794
  235MOL0     H31677   9.527   9.976   7.450  2.9588  0.5435  1.6492
  235MOL0     H31678   9.590   9.811   7.436 -1.3216 -0.7277 -1.7483
  235MOL0     H31679   9.689  10.016   7.252  0.0514 -1.1069 -0.8122
  235MOL0     H31680   9.778   9.877   7.299 -1.3118 -1.4502 -1.1190
  235MOL0     H31681   9.797   9.984   7.542  2.7716  3.2665  3.0033
  235MOL0     H31682   9.721  10.117   7.489  0.1878 -0.5847  2.6274
  235MOL0     H31683   9.956  10.177   7.495 -0.2553 -3.4313  2.1014
  235MOL0     H31684   9.904  10.166   7.318 -0.3384 -1.0688 -1.2709
  235MOL0     H31685   9.946   9.971   7.632 -1.7619 -0.9305 -3.6588
  235MOL0     H31686  10.101   9.974   7.936 -1.8852  0.7315  0.9096
  235MOL0     H31687   9.951   9.928   7.857  0.7790  1.6503 -2.6657
  235MOL0     H31688  10.067   9.801   7.885 -1.6932 -0.4291  1.1405
  235MOL0     H31689  10.291   9.635   8.086  0.4876  0.5582 -1.1619
  235MOL0     H31690  10.419   9.595   8.297 -1.5023 -0.0769 -0.9206
  235MOL0     H31691  10.525   9.714   8.519  0.6324  2.2503 -2.3662
  235MOL0     H31692  10.588   9.559   8.461 -3.3396  0.1299  1.6121
  235MOL0     H31693  10.816   9.618   8.540  0.6806 -0.8496  1.8134
  235MOL0     H31694  10.763   9.780   8.580  1.8575  0.6469  2.2961
  235MOL0     H31695  10.689   9.507   8.703  5.4851  0.5948 -0.1200
  235MOL0     H31696  10.588   9.650   8.755 -2.2898 -4.2150 -0.8262
  235MOL0     H31697  10.806   9.760   8.827  2.1313  0.2078 -1.3942
  235MOL0     H31698  10.735   9.610   8.911 -1.6966  1.0185 -0.8959
  235MOL0     H31699  10.960   9.586   8.718 -0.6031 -1.4714 -0.9315
  235MOL0     H31700  10.882   9.464   8.799  2.7049  0.2472 -1.1470
  235MOL0     H31701  11.021   9.683   8.958  0.8051 -0.1368 -1.6364
  235MOL0     H31702  10.943   9.535   9.028 -0.9671 -6.6159 -2.4984
  235MOL0     H31703  11.182   9.511   8.849  3.6255 -4.4445  1.6003
  235MOL0     H31704  11.085   9.383   8.933 -2.5856  0.2630 -1.5740
  235MOL0     H31705  11.237   9.599   9.067  1.3287  0.1267  4.0842
  235MOL0     H31706  11.282   9.431   9.064  1.9357  2.2927 -2.7547
  235MOL0     H31707  10.679   9.932   8.216 -0.3920 -1.3652  2.5240
  235MOL0     H31708  10.531   9.987   8.017 -0.2790  2.7915  2.8668
  235MOL0     H31709  10.415   9.864   7.536  1.1081  4.0109 -0.4866
  235MOL0     H31710  10.271   9.922   7.354  2.7189 -0.2124 -0.0350
  235MOL0     H31711   9.327   9.051   6.425 -0.3665 -1.2675 -0.8808
  235MOL0     H31712   9.160   8.906   6.413  1.7609  1.7669 -2.0142
  235MOL0     H31713   8.876   8.536   6.586 -1.3666 -2.2997  3.0174
  235MOL0     H31714   8.709   8.384   6.461 -0.0113  0.9809 -0.8492
  235MOL0     H31715   8.834   8.064   6.147  0.6184 -2.8784  0.7185
  235MOL0     H31716   8.917   8.031   6.294 -1.0723 -0.3223  1.9414
  235MOL0     H31717   8.716   7.944   6.395 -1.5847 -0.8127  1.0224
  235MOL0     H31718   8.761   7.866   6.235 -0.3005  2.1883 -3.2060
  235MOL0     H31719   8.607   8.003   6.114 -1.9913  2.1690 -1.3928
  235MOL0     H31720   8.553   8.091   6.258 -1.1171 -0.2306  0.4813
  235MOL0     H31721   8.397   7.913   6.177  2.7321 -2.0009 -4.9510
  235MOL0     H31722   8.446   7.878   6.344  0.9704 -3.1837  0.4101
  235MOL0     H31723   8.589   7.537   6.174  5.3154  1.2945  1.4643
  235MOL0     H31724   9.040   8.204   6.257 -2.7148  0.0333 -1.6440
  235MOL0     H31725   9.207   8.350   6.384  0.1771 -1.9783 -0.0895
  236MOL0     O31726   3.930   3.768   9.279 -0.0937 -0.2258  0.4051
  236MOL0     C31727   4.011   3.863   9.295 -0.8060  0.0314  0.3810
  236MOL0     O31728   4.022   3.969   9.208 -0.3087  0.3171 -0.0192
  236MOL0     C31729   3.934   4.001   9.109 -0.2632  0.0331  0.5758
  236MOL0     C31730   4.004   4.051   9.005  0.3722  0.5558 -0.0471
  236MOL0     C31731   3.935   4.070   8.884 -0.4645 -0.8381  0.0938
  236MOL0     C31732   3.796   4.058   8.874 -0.8887  0.8694 -0.1058
  236MOL0     O31733   3.713   4.070   8.761  0.0428 -0.7078  0.1774
  236MOL0     C31734   3.773   4.128   8.642  1.1535  0.1669  0.1308
  236MOL0     C31735   3.684   4.213   8.557 -0.2760  0.7270  0.1228
  236MOL0     C31736   3.571   4.124   8.491  0.6789 -1.2800  0.7969
  236MOL0     C31737   3.479   4.213   8.415 -0.6169 -0.2064 -0.6912
  236MOL0     C31738   3.375   4.135   8.332  0.2833 -0.5298  0.6207
  236MOL0     C31739   3.289   4.209   8.238  0.6765 -0.0907  0.0000
  236MOL0     C31740   3.178   4.115   8.179 -0.3546  0.3485 -0.2367
  236MOL0     C31741   3.093   4.202   8.091 -0.1423 -0.0542  0.2090
  236MOL0     N31742   2.989   4.119   8.027  0.4360 -0.2297 -0.1068
  236MOL0     C31743   2.932   4.141   7.910  0.1507 -0.9884 -0.3832
  236MOL0     C31744   2.816   4.067   7.909 -0.9644 -0.2933  0.2191
  236MOL0     C31745   2.730   4.054   7.791 -0.1876  0.4932 -0.8802
  236MOL0     C31746   2.585   4.081   7.821  0.2187 -0.4718 -1.4602
  236MOL0     C31747   2.504   4.102   7.691  0.5617 -1.1120  0.2255
  236MOL0     C31748   2.356   4.111   7.720 -0.4499 -0.0432 -0.6676
  236MOL0     O31749   2.280   4.137   7.601  0.1526  0.2281  0.1169
  236MOL0     C31750   2.242   4.262   7.561 -0.4333  0.1109 -0.3581
  236MOL0     C31751   2.126   4.268   7.487 -0.4989 -0.2357 -0.0240
  236MOL0     C31752   2.071   4.384   7.449  0.0572  0.0049  0.1422
  236MOL0     C31753   1.930   4.385   7.383 -0.5877  0.2601  0.7452
  236MOL0     C31754   2.132   4.509   7.487 -0.0624  0.4544 -0.0807
  236MOL0     C31755   2.075   4.646   7.468  0.4270  0.6834  1.1986
  236MOL0     O31756   2.119   4.745   7.553  0.0483 -0.2708 -0.2486
  236MOL0     C31757   2.118   4.878   7.520  0.5947  0.5997  0.6228
  236MOL0     C31758   2.124   4.970   7.624 -0.8811  0.0522 -0.4755
  236MOL0     C31759   2.116   5.109   7.600 -0.5157  0.2304 -0.1016
  236MOL0     C31760   2.109   5.160   7.469  0.0100  0.5198 -0.9319
  236MOL0     O31761   2.117   5.301   7.449  0.4544 -0.1998  0.3966
  236MOL0     C31762   2.093   5.389   7.560 -0.9861 -0.2286 -0.3425
  236MOL0     C31763   2.062   5.532   7.496  0.8221 -1.0552 -0.5592
  236MOL0     C31764   1.997   5.611   7.604 -0.1008  0.5925 -1.2724
  236MOL0     C31765   1.887   5.710   7.552  0.0448  0.3885 -0.4645
  236MOL0     C31766   1.851   5.795   7.679 -0.5101 -0.0247 -0.0225
  236MOL0     C31767   1.706   5.782   7.723 -0.0641 -0.4389 -0.0911
  236MOL0     C31768   1.671   5.646   7.793 -0.3131  0.3100 -0.5365
  236MOL0     C31769   1.527   5.642   7.855  0.8310  0.1781 -0.1362
  236MOL0    Cl31770   1.533   5.675   8.028 -0.0716 -0.2116  0.4402
  236MOL0     C31771   2.112   5.070   7.362 -2.0897 -0.0196  0.1016
  236MOL0     C31772   2.117   4.930   7.387  1.0869 -0.4654 -0.2952
  236MOL0     O31773   2.005   4.664   7.366 -0.5440 -0.0153 -0.2433
  236MOL0     C31774   2.236   4.499   7.575 -0.2401  1.2525  0.1620
  236MOL0     C31775   2.297   4.376   7.610 -0.7403 -0.3070  0.4762
  236MOL0     N31776   2.801   4.003   8.035  0.0114 -0.0773  0.0691
  236MOL0     N31777   2.913   4.027   8.096  1.1962 -0.6450 -0.9035
  236MOL0     C31778   3.733   4.008   8.986  1.1891  0.0847  0.3303
  236MOL0     C31779   3.800   3.973   9.103  0.4889 -0.7330 -0.3910
  236MOL0     C31780   4.094   3.872   9.413  0.1570 -0.1215 -0.5320
  236MOL0     C31781   4.046   3.822   9.537 -0.8651  0.1952  0.2293
  236MOL0     C31782   4.125   3.820   9.651  0.0573 -0.3038  0.1911
  236MOL0     C31783   4.258   3.855   9.647  0.3212  0.4998 -0.0076
  236MOL0     O31784   4.330   3.842   9.761  0.5410 -0.2436 -0.2570
  236MOL0     C31785   4.466   3.855   9.780  0.4070 -0.5606 -0.2515
  236MOL0     C31786   4.527   3.739   9.857  0.2812  0.4217  0.1573
  236MOL0     C31787   4.457   3.714   9.989 -0.0230  0.4090  0.3027
  236MOL0     C31788   4.475   3.562  10.024 -0.2542 -0.0719 -0.4850
  236MOL0     C31789   4.404   3.539  10.152  0.4934 -1.1744 -1.3770
  236MOL0     C31790   4.360   3.535  10.270  0.4531 -0.2119  0.5427
  236MOL0     C31791   4.311   3.907   9.529 -0.2767 -0.7611  0.2744
  236MOL0     C31792   4.223   3.917   9.417 -0.4808  0.0424  0.6910
  236MOL0     H31793   4.108   4.077   9.020  0.5519 -0.8489  1.3839
  236MOL0     H31794   3.991   4.096   8.795 -0.8931 -2.1447 -0.5883
  236MOL0     H31795   3.863   4.185   8.665  1.0706 -0.4375  2.1387
  236MOL0     H31796   3.806   4.043   8.581  1.5915  2.4425 -3.0645
  236MOL0     H31797   3.657   4.303   8.613 -1.2294 -0.7048  2.0684
  236MOL0     H31798   3.748   4.245   8.474 -0.0681  0.5736  0.2231
  236MOL0     H31799   3.630   4.062   8.423  1.5195 -1.3669  1.5919
  236MOL0     H31800   3.516   4.062   8.561  0.6648 -3.0733 -0.7328
  236MOL0     H31801   3.440   4.284   8.489 -0.2564  2.5241 -2.9415
  236MOL0     H31802   3.545   4.267   8.347  0.4845  0.7731  1.0677
  236MOL0     H31803   3.433   4.064   8.271  0.7332 -1.0417  1.6229
  236MOL0     H31804   3.308   4.076   8.395 -1.3295  1.2405  0.6432
  236MOL0     H31805   3.233   4.293   8.280  0.1457 -0.6384  0.4188
  236MOL0     H31806   3.346   4.240   8.151 -0.3243 -0.4686 -0.8129
  236MOL0     H31807   3.234   4.041   8.121  0.7467  2.5740 -2.1629
  236MOL0     H31808   3.120   4.068   8.259 -0.1492  1.0901  0.3495
  236MOL0     H31809   3.157   4.252   8.018  1.1008  0.5455  1.6502
  236MOL0     H31810   3.043   4.276   8.154  0.8014 -1.5684  2.9036
  236MOL0     H31811   2.967   4.191   7.820 -0.7300 -1.5260 -1.0433
  236MOL0     H31812   2.764   4.121   7.712  0.9979  0.6138 -0.3089
  236MOL0     H31813   2.729   3.949   7.761  1.2488 -0.3983  1.8484
  236MOL0     H31814   2.560   4.166   7.885 -2.0967 -0.2600 -2.5353
  236MOL0     H31815   2.557   3.983   7.863  1.8215 -1.2140 -2.0318
  236MOL0     H31816   2.517   4.016   7.624 -1.7207  1.6083 -4.1484
  236MOL0     H31817   2.527   4.188   7.628 -1.1105 -2.9745 -3.1544
  236MOL0     H31818   2.331   4.189   7.792  1.1285 -0.2578  0.1423
  236MOL0     H31819   2.318   4.023   7.773  0.4561 -0.1109 -0.1128
  236MOL0     H31820   2.079   4.172   7.466  1.9113 -1.1278 -1.8655
  236MOL0     H31821   1.856   4.448   7.433 -1.4154 -0.0332 -0.0737
  236MOL0     H31822   1.924   4.417   7.278 -0.7386 -1.1287  0.3066
  236MOL0     H31823   1.880   4.288   7.384  0.6749 -0.4206 -0.0121
  236MOL0     H31824   2.125   4.929   7.724  0.0135 -1.6853 -1.1424
  236MOL0     H31825   2.122   5.173   7.687  1.8149 -0.8168  0.5599
  236MOL0     H31826   2.008   5.351   7.618 -0.8056  1.9967  1.5066
  236MOL0     H31827   2.181   5.388   7.624 -1.5996  0.5671  0.5342
  236MOL0     H31828   2.153   5.584   7.466  0.2262  1.4781  1.6267
  236MOL0     H31829   1.989   5.530   7.414  0.4944  3.7910 -0.6767
  236MOL0     H31830   2.082   5.667   7.645 -0.5357  0.2277  0.1921
  236MOL0     H31831   1.951   5.548   7.680  1.4733 -0.7439 -1.3792
  236MOL0     H31832   1.907   5.778   7.468 -2.2022  0.2553 -1.1571
  236MOL0     H31833   1.794   5.666   7.517  0.0354 -1.3329  1.5549
  236MOL0     H31834   1.874   5.897   7.646 -2.2674  0.1285 -0.8772
  236MOL0     H31835   1.926   5.787   7.758 -0.8551 -0.1673  0.2910
  236MOL0     H31836   1.676   5.865   7.788  2.5589  1.3552 -1.0110
  236MOL0     H31837   1.638   5.794   7.638 -0.4737  0.5572  0.3536
  236MOL0     H31838   1.745   5.621   7.869 -1.4009  0.3050  0.5425
  236MOL0     H31839   1.684   5.570   7.716  1.9410 -0.2869  0.3736
  236MOL0     H31840   1.468   5.554   7.826  1.3956 -0.5713  0.8968
  236MOL0     H31841   1.478   5.730   7.814  1.0827 -0.5735 -2.1394
  236MOL0     H31842   2.117   5.102   7.258 -0.0070 -2.2103 -0.5587
  236MOL0     H31843   2.136   4.864   7.302 -1.2498 -1.2011 -0.3004
  236MOL0     H31844   2.263   4.590   7.628 -1.7672  2.3666 -0.8766
  236MOL0     H31845   2.386   4.370   7.671  0.1612  1.9395 -0.5053
  236MOL0     H31846   3.625   3.999   8.986  1.3609 -2.6514  0.5553
  236MOL0     H31847   3.750   3.933   9.190 -1.7646  3.5231  0.5146
  236MOL0     H31848   3.942   3.791   9.549 -1.3084  1.5616  0.1285
  236MOL0     H31849   4.085   3.782   9.744  0.6839 -2.1578 -0.2524
  236MOL0     H31850   4.522   3.857   9.687  1.1984  1.6327  0.2242
  236MOL0     H31851   4.480   3.947   9.836  0.0296  0.0809 -1.1870
  236MOL0     H31852   4.622   3.789   9.879 -0.4240  1.8536  0.0936
  236MOL0     H31853   4.538   3.648   9.797 -2.4710  1.7309 -2.6009
  236MOL0     H31854   4.354   3.751   9.989  0.4433  1.7656 -0.5894
  236MOL0     H31855   4.497   3.773  10.071 -3.2494  1.2791  1.4030
  236MOL0     H31856   4.583   3.552  10.037 -0.4806 -0.0582  1.9331
  236MOL0     H31857   4.442   3.495   9.943  0.8403  1.7229 -2.5154
  236MOL0     H31858   4.312   3.516  10.364 -1.7222  0.5325 -0.3672
  236MOL0     H31859   4.413   3.945   9.526 -1.6242  3.3855 -0.6267
  236MOL0     H31860   4.265   3.946   9.322 -2.0975 -1.8880 -0.7186
  237MOL0     O31861   6.314   7.948   1.052 -0.1067  0.6801 -0.8933
  237MOL0     C31862   6.294   7.961   0.935  0.2485 -0.4647 -0.7068
  237MOL0     O31863   6.173   7.972   0.874  0.1155  0.5086  0.5626
  237MOL0     C31864   6.058   7.939   0.948 -0.6212  0.0892 -0.6470
  237MOL0     C31865   5.983   8.041   1.008 -0.5973 -0.4990  0.6307
  237MOL0     C31866   5.879   8.016   1.101 -0.2075  0.1076  0.6120
  237MOL0     C31867   5.851   7.881   1.116  1.2208 -0.9206  0.4672
  237MOL0     O31868   5.745   7.825   1.187 -0.1297 -0.1714  0.0973
  237MOL0     C31869   5.694   7.901   1.306  0.6874  0.6044  0.8038
  237MOL0     C31870   5.614   7.798   1.389  0.2534  0.7203 -0.2370
  237MOL0     C31871   5.528   7.867   1.501  0.7907 -0.1052 -0.2653
  237MOL0     C31872   5.592   7.945   1.613 -0.5669 -0.1475  0.0451
  237MOL0     C31873   5.481   8.003   1.709 -0.3888  0.2645  0.3262
  237MOL0     C31874   5.538   8.090   1.822  0.3667 -0.5662  0.0603
  237MOL0     C31875   5.651   8.185   1.772 -0.8534 -0.5567  0.5568
  237MOL0     C31876   5.682   8.296   1.877  0.3822 -0.5279  0.5760
  237MOL0     N31877   5.723   8.250   2.017 -0.0762 -0.2745  0.6736
  237MOL0     C31878   5.844   8.262   2.079  0.4961 -1.0522 -0.4746
  237MOL0     C31879   5.814   8.227   2.213 -0.2435 -0.0787  0.3978
  237MOL0     C31880   5.916   8.257   2.319 -0.6094 -0.3929 -0.3225
  237MOL0     C31881   5.923   8.130   2.409 -0.8332 -0.5194 -0.7217
  237MOL0     C31882   6.031   8.154   2.513 -0.7784 -0.0126  0.5072
  237MOL0     C31883   6.087   8.013   2.554  0.1645  0.2292  0.3277
  237MOL0     O31884   6.224   8.017   2.612  0.5700 -0.1119  0.1242
  237MOL0     C31885   6.285   7.898   2.639 -1.0595  0.3329  0.2178
  237MOL0     C31886   6.398   7.916   2.708  0.0442 -0.0121 -0.8071
  237MOL0     C31887   6.466   7.809   2.764 -0.5258 -0.4904  0.0412
  237MOL0     C31888   6.592   7.857   2.840  1.3369  0.7109  0.3637
  237MOL0     C31889   6.432   7.680   2.732  0.0569  0.2958 -0.3847
  237MOL0     C31890   6.503   7.558   2.781  0.8519  0.3206 -0.8785
  237MOL0     O31891   6.570   7.562   2.909 -0.3261  0.8655  0.3914
  237MOL0     C31892   6.642   7.451   2.949 -0.1958  0.9025  0.5104
  237MOL0     C31893   6.610   7.401   3.076 -0.1867  0.0046 -0.0187
  237MOL0     C31894   6.667   7.290   3.130 -0.4114 -0.4492  0.7027
  237MOL0     C31895   6.760   7.217   3.046  0.2956 -0.0168  0.0237
  237MOL0     O31896   6.824   7.097   3.086 -0.0333 -0.4082  0.4524
  237MOL0     C31897   6.761   7.011   3.186  0.4681  0.3789  0.2040
  237MOL0     C31898   6.852   6.894   3.217 -0.0365 -0.1477 -0.3436
  237MOL0     C31899   6.958   6.942   3.322  0.5115 -0.4643 -0.1542
  237MOL0     C31900   7.028   6.832   3.400  0.4163 -0.0413  0.2324
  237MOL0     C31901   7.109   6.874   3.531  0.2605 -0.1109  0.0657
  237MOL0     C31902   7.153   6.774   3.633 -0.8683 -0.1739  0.1143
  237MOL0     C31903   7.203   6.858   3.748  0.0166  0.6377 -0.6744
  237MOL0     C31904   7.233   6.753   3.865 -0.5679 -0.9617  0.1151
  237MOL0    Cl31905   7.338   6.817   3.993 -0.8263 -0.1513  0.0397
  237MOL0     C31906   6.787   7.261   2.916  0.2740  0.1325 -0.1563
  237MOL0     C31907   6.731   7.383   2.865  0.8743  0.3992 -0.4907
  237MOL0     O31908   6.507   7.471   2.697 -0.3399  0.3186 -0.2621
  237MOL0     C31909   6.324   7.660   2.646  1.2555  0.6898 -1.4635
  237MOL0     C31910   6.242   7.767   2.608 -0.3145 -0.4141 -0.5094
  237MOL0     N31911   5.683   8.182   2.228  0.4682  0.1480 -0.9107
  237MOL0     N31912   5.632   8.204   2.113 -0.5026 -0.0890  0.2679
  237MOL0     C31913   5.932   7.781   1.064  1.0410  0.1990  0.3233
  237MOL0     C31914   6.027   7.811   0.977  0.4075 -0.0186  0.3981
  237MOL0     C31915   6.407   8.004   0.848 -0.4993  0.5397  0.3879
  237MOL0     C31916   6.530   8.040   0.899 -0.7764 -0.7618  0.4267
  237MOL0     C31917   6.636   8.065   0.813  0.0901 -0.6156  0.3094
  237MOL0     C31918   6.620   8.050   0.672 -0.3325 -0.5576 -0.7126
  237MOL0     O31919   6.708   8.062   0.573 -0.1682 -0.5056  0.8011
  237MOL0     C31920   6.844   8.107   0.582 -0.4468 -0.2027  0.2774
  237MOL0     C31921   6.861   8.261   0.585  0.5687  0.8158  1.2597
  237MOL0     C31922   6.984   8.316   0.655  0.6797  0.1718 -0.4565
  237MOL0     C31923   7.113   8.298   0.586  0.8753  0.6525 -0.3808
  237MOL0     C31924   7.100   8.363   0.450  0.1140 -0.1662  0.5729
  237MOL0     C31925   7.094   8.420   0.341  0.0728  0.1093  0.0344
  237MOL0     C31926   6.488   8.022   0.622 -0.3349 -0.2908  0.0934
  237MOL0     C31927   6.385   7.996   0.714  0.6711  0.6363  0.6295
  237MOL0     H31928   5.991   8.147   0.989  1.0755 -0.8385 -0.8171
  237MOL0     H31929   5.822   8.101   1.137 -3.0830 -1.9553  1.2989
  237MOL0     H31930   5.782   7.936   1.360  0.5757 -1.0544  2.1576
  237MOL0     H31931   5.619   7.971   1.269 -0.6343 -0.5640  1.1534
  237MOL0     H31932   5.548   7.749   1.317  0.3961 -0.0095  0.1155
  237MOL0     H31933   5.674   7.712   1.421 -0.6042 -0.3285 -1.3671
  237MOL0     H31934   5.445   7.913   1.446 -0.6124 -0.9755  1.0172
  237MOL0     H31935   5.481   7.783   1.554 -0.2398 -0.5156 -1.7538
  237MOL0     H31936   5.666   7.885   1.667  0.6737  0.2890 -1.1207
  237MOL0     H31937   5.645   8.027   1.564  1.9362 -0.3447  2.2206
  237MOL0     H31938   5.430   8.067   1.637 -0.5728 -2.2212 -1.9049
  237MOL0     H31939   5.409   7.928   1.743 -0.1857 -0.1880 -0.2144
  237MOL0     H31940   5.460   8.142   1.879  1.4591  2.0913 -0.7143
  237MOL0     H31941   5.574   8.011   1.888  0.3701  1.0262  2.0509
  237MOL0     H31942   5.743   8.128   1.756 -0.1407  0.8749 -0.6943
  237MOL0     H31943   5.631   8.230   1.674  2.7752 -0.8848 -0.4660
  237MOL0     H31944   5.593   8.358   1.892  2.7261  3.6906 -1.0874
  237MOL0     H31945   5.757   8.358   1.826 -1.5196  1.2263 -0.2418
  237MOL0     H31946   5.941   8.294   2.042  1.2222 -0.4635  1.7578
  237MOL0     H31947   6.016   8.272   2.279 -0.8047  0.8407 -0.3972
  237MOL0     H31948   5.888   8.340   2.385 -0.4128 -0.2395 -0.4342
  237MOL0     H31949   5.928   8.043   2.344  0.1198  0.4183 -1.9392
  237MOL0     H31950   5.827   8.119   2.462 -2.2455  2.6051 -2.3524
  237MOL0     H31951   5.991   8.195   2.606 -1.9263  3.6856 -1.4317
  237MOL0     H31952   6.112   8.214   2.472  0.1618 -1.3488  0.3348
  237MOL0     H31953   6.103   7.953   2.464  1.6311 -2.0550  2.0044
  237MOL0     H31954   6.021   7.957   2.620  0.1019 -0.9181 -0.6676
  237MOL0     H31955   6.426   8.019   2.730  1.5054 -0.6162  0.3736
  237MOL0     H31956   6.579   7.958   2.880 -3.3753 -0.4534  2.5063
  237MOL0     H31957   6.596   7.799   2.933  0.4103  1.7115  1.0507
  237MOL0     H31958   6.684   7.842   2.782 -0.0910  0.5765 -1.9830
  237MOL0     H31959   6.543   7.452   3.145  1.2394  0.2927  1.1975
  237MOL0     H31960   6.636   7.249   3.226  1.0381 -5.4675 -0.6466
  237MOL0     H31961   6.730   7.067   3.275 -0.1080 -2.4344  1.8712
  237MOL0     H31962   6.668   6.969   3.149 -0.5566  3.2690 -0.7697
  237MOL0     H31963   6.787   6.823   3.269 -0.1199  1.4577  1.9257
  237MOL0     H31964   6.907   6.847   3.135 -0.1546 -0.3201 -0.3245
  237MOL0     H31965   6.907   6.998   3.401  1.8998  3.5260 -1.8259
  237MOL0     H31966   7.038   7.004   3.280 -0.2957  1.9029  1.5621
  237MOL0     H31967   6.951   6.755   3.411  0.2960 -1.1677 -5.2582
  237MOL0     H31968   7.094   6.780   3.329 -0.7505 -1.8822  0.4043
  237MOL0     H31969   7.046   6.957   3.564 -1.3641 -0.1302 -2.7045
  237MOL0     H31970   7.198   6.925   3.492  0.0968 -0.6512 -1.0465
  237MOL0     H31971   7.067   6.723   3.677 -0.3860  0.0899  1.3839
  237MOL0     H31972   7.221   6.700   3.588 -3.6126 -1.7171 -1.8286
  237MOL0     H31973   7.116   6.918   3.777  0.4631  0.3211  1.4498
  237MOL0     H31974   7.288   6.924   3.732 -1.7537  2.8561 -1.3898
  237MOL0     H31975   7.289   6.670   3.819  0.9742 -1.2910  2.4346
  237MOL0     H31976   7.136   6.720   3.903 -1.2013 -0.2953 -0.8700
  237MOL0     H31977   6.847   7.208   2.844  0.1828  1.8969 -1.6046
  237MOL0     H31978   6.743   7.420   2.763 -0.3324  3.3858  0.3372
  237MOL0     H31979   6.294   7.558   2.628 -1.9409  1.4104 -0.7574
  237MOL0     H31980   6.152   7.748   2.550 -0.4765  2.1158 -1.2200
  237MOL0     H31981   5.904   7.678   1.088  1.6490 -0.5501 -1.9543
  237MOL0     H31982   6.080   7.724   0.939 -0.1042 -1.1241  2.0823
  237MOL0     H31983   6.545   8.038   1.006 -3.0754 -1.9778  0.7986
  237MOL0     H31984   6.729   8.076   0.867 -0.6376  0.1492  1.4399
  237MOL0     H31985   6.880   8.063   0.675  0.9090  2.3876  1.0692
  237MOL0     H31986   6.912   8.067   0.506 -0.0198 -1.2050  1.1673
  237MOL0     H31987   6.768   8.298   0.628 -0.4256  1.7167 -1.4498
  237MOL0     H31988   6.857   8.297   0.481  1.5937  0.9385  1.2458
  237MOL0     H31989   6.990   8.272   0.755 -1.3518 -0.7646 -0.7052
  237MOL0     H31990   6.964   8.421   0.677  1.3197 -0.1917  2.1547
  237MOL0     H31991   7.130   8.191   0.572  1.4059  0.8742 -1.5573
  237MOL0     H31992   7.197   8.335   0.646  2.2367  0.6581 -2.1899
  237MOL0     H31993   7.099   8.456   0.240  0.5861 -2.9904 -1.1558
  237MOL0     H31994   6.476   7.998   0.517 -0.0231  1.4627 -0.3797
  237MOL0     H31995   6.292   7.951   0.683  0.1058  1.6707  0.7572
  238MOL0     O31996   7.421   8.000   1.794  0.7739 -0.8400  0.2554
  238MOL0     C31997   7.518   7.935   1.811  0.1708 -0.5336  0.3643
  238MOL0     O31998   7.524   7.806   1.806  0.3222  0.0688  0.4354
  238MOL0     C31999   7.407   7.750   1.776 -0.6836 -0.6611 -0.5663
  238MOL0     C32000   7.359   7.723   1.642 -0.8959 -0.9331  0.5914
  238MOL0     C32001   7.231   7.675   1.621  0.4404  0.1392  0.0375
  238MOL0     C32002   7.144   7.647   1.731 -0.9420  0.0779  0.3321
  238MOL0     O32003   7.017   7.607   1.717  0.1957  0.4293  0.8805
  238MOL0     C32004   6.994   7.480   1.653 -0.2586 -0.8998  0.7377
  238MOL0     C32005   7.035   7.356   1.731 -0.1706  0.4247  0.3768
  238MOL0     C32006   7.178   7.325   1.705  1.1422 -1.2997 -0.2819
  238MOL0     C32007   7.206   7.214   1.605 -0.2260  0.1569  0.0786
  238MOL0     C32008   7.201   7.265   1.460 -0.9634  0.2765  0.2920
  238MOL0     C32009   7.190   7.134   1.377  0.0308 -0.3617 -0.3862
  238MOL0     C32010   7.263   7.160   1.238  0.1062 -0.4850  0.9643
  238MOL0     C32011   7.226   7.290   1.168  0.8760  0.1058 -0.3899
  238MOL0     N32012   7.304   7.283   1.041  0.7126 -0.6015 -0.0339
  238MOL0     C32013   7.258   7.228   0.924 -0.3445  0.4022  0.1093
  238MOL0     C32014   7.350   7.260   0.831  0.3375 -0.1334  0.1168
  238MOL0     C32015   7.323   7.241   0.678  0.2055  0.2391 -0.3277
  238MOL0     C32016   7.365   7.367   0.601 -0.7358 -0.3143  0.0034
  238MOL0     C32017   7.388   7.339   0.455 -0.0273 -0.1193  0.1305
  238MOL0     C32018   7.457   7.454   0.382  0.3178 -0.7571 -0.7427
  238MOL0     O32019   7.361   7.507   0.294  0.3258 -0.0052  1.2614
  238MOL0     C32020   7.362   7.639   0.278  0.4580 -0.8402 -0.3679
  238MOL0     C32021   7.287   7.718   0.365  0.1188 -0.3310 -0.3420
  238MOL0     C32022   7.282   7.850   0.359 -0.7399  0.2921 -1.1318
  238MOL0     C32023   7.219   7.915   0.473 -0.0361  0.1117 -0.1392
  238MOL0     C32024   7.343   7.916   0.238  0.8313 -0.5693 -0.4540
  238MOL0     C32025   7.368   8.061   0.236 -0.3479 -0.7062  0.4829
  238MOL0     O32026   7.425   8.113   0.119 -0.7819  0.8327  0.0406
  238MOL0     C32027   7.432   8.249   0.092  0.1195 -0.9220 -0.6316
  238MOL0     C32028   7.429   8.295  -0.045 -0.7546 -0.3444 -0.0367
  238MOL0     C32029   7.437   8.429  -0.070  0.8719 -0.3086 -0.4153
  238MOL0     C32030   7.454   8.525   0.028  0.1105  0.1926  0.4337
  238MOL0     O32031   7.457   8.653  -0.015  0.5557 -1.1817 -0.1760
  238MOL0     C32032   7.550   8.749   0.038 -0.0168 -0.4894  0.1297
  238MOL0     C32033   7.692   8.705  -0.006 -0.1968 -0.5629 -0.8027
  238MOL0     C32034   7.750   8.751  -0.136 -0.0209  0.3139 -0.3648
  238MOL0     C32035   7.675   8.690  -0.249 -0.4664 -0.6872 -0.4794
  238MOL0     C32036   7.746   8.738  -0.381  0.4244  0.0149  0.0351
  238MOL0     C32037   7.669   8.682  -0.502 -0.4252  1.0312 -0.5395
  238MOL0     C32038   7.721   8.726  -0.642 -0.0417  0.3023  0.3362
  238MOL0     C32039   7.873   8.686  -0.656 -0.6902  0.1491  0.3041
  238MOL0    Cl32040   7.907   8.640  -0.831 -0.1574 -0.1574 -0.1405
  238MOL0     C32041   7.467   8.476   0.163  0.0959 -1.2366  0.4655
  238MOL0     C32042   7.454   8.343   0.195 -0.8673  0.2624 -0.3739
  238MOL0     O32043   7.313   8.131   0.323 -0.2107  0.3747 -0.0266
  238MOL0     C32044   7.396   7.840   0.136  0.1055  0.3809  0.0309
  238MOL0     C32045   7.405   7.703   0.162  0.0681  0.3991  1.4601
  238MOL0     N32046   7.454   7.338   0.893  1.3594  0.6886 -0.2942
  238MOL0     N32047   7.424   7.339   1.022  0.0846 -0.0140 -0.4556
  238MOL0     C32048   7.191   7.669   1.864  0.1674 -0.8336 -0.7858
  238MOL0     C32049   7.324   7.719   1.883  0.2893 -0.4921 -0.0445
  238MOL0     C32050   7.644   7.992   1.840 -0.7021 -0.6826 -0.3615
  238MOL0     C32051   7.753   7.939   1.774 -0.5291  0.4709  0.1380
  238MOL0     C32052   7.884   7.984   1.782  0.6654 -0.5747 -1.1680
  238MOL0     C32053   7.906   8.104   1.852  0.5215  0.2216  0.1870
  238MOL0     O32054   8.042   8.122   1.868 -0.4882 -0.9457 -0.4478
  238MOL0     C32055   8.089   8.223   1.962 -1.4602 -0.0350 -0.7765
  238MOL0     C32056   8.242   8.238   1.942 -0.2709  1.1056 -0.0634
  238MOL0     C32057   8.325   8.129   2.020  0.0227 -0.7362 -0.2203
  238MOL0     C32058   8.299   7.991   1.962  0.1633 -0.1560 -0.0627
  238MOL0     C32059   8.392   7.891   2.018  0.4573 -0.2018 -0.3224
  238MOL0     C32060   8.478   7.815   2.048 -0.0965  0.6946 -0.3937
  238MOL0     C32061   7.794   8.169   1.917  0.0653 -0.4620  0.0899
  238MOL0     C32062   7.663   8.111   1.911 -1.0799 -0.3183 -0.3225
  238MOL0     H32063   7.436   7.763   1.577  0.3736 -1.7404  1.5446
  238MOL0     H32064   7.208   7.668   1.515  1.2698 -0.6889 -0.0935
  238MOL0     H32065   6.887   7.469   1.630 -0.3942  0.0275  0.8648
  238MOL0     H32066   7.047   7.492   1.558 -0.8672 -0.6376  0.4221
  238MOL0     H32067   7.027   7.369   1.839 -1.2864 -5.3579  1.3281
  238MOL0     H32068   6.973   7.273   1.697  0.4490 -0.5089  1.4782
  238MOL0     H32069   7.218   7.420   1.669 -0.4567  0.0488  1.2911
  238MOL0     H32070   7.221   7.300   1.803  2.7672 -1.6525 -1.0436
  238MOL0     H32071   7.306   7.170   1.614 -0.3510 -0.7416 -2.2699
  238MOL0     H32072   7.142   7.126   1.615  0.9834 -0.4903  3.2117
  238MOL0     H32073   7.113   7.323   1.430 -1.5744 -1.2291 -0.9227
  238MOL0     H32074   7.289   7.328   1.444 -1.4044  0.9673  0.5019
  238MOL0     H32075   7.245   7.054   1.428  1.5342  0.5135 -0.5693
  238MOL0     H32076   7.087   7.099   1.366 -1.3926  2.8973  1.3480
  238MOL0     H32077   7.372   7.153   1.240  0.7589  3.0419 -3.9302
  238MOL0     H32078   7.240   7.071   1.179  1.7083 -0.2916 -0.0312
  238MOL0     H32079   7.261   7.377   1.224 -0.2151  0.5468 -0.3853
  238MOL0     H32080   7.119   7.298   1.148 -0.3616  0.8490  4.9904
  238MOL0     H32081   7.162   7.176   0.930 -0.9158  1.5906  3.8162
  238MOL0     H32082   7.393   7.165   0.641  2.1977  2.5693 -1.6150
  238MOL0     H32083   7.218   7.218   0.657 -0.1562  0.9896  0.6060
  238MOL0     H32084   7.460   7.409   0.635  1.4369 -1.7325 -3.6653
  238MOL0     H32085   7.275   7.429   0.604 -0.2421  0.7280 -2.9846
  238MOL0     H32086   7.287   7.330   0.414  0.3436 -3.4478 -0.2920
  238MOL0     H32087   7.439   7.245   0.435  0.6861  0.2254  0.2974
  238MOL0     H32088   7.547   7.413   0.335  0.3449 -1.5030 -0.0571
  238MOL0     H32089   7.489   7.533   0.449 -1.9758  0.0814 -0.5618
  238MOL0     H32090   7.242   7.649   0.437 -0.0900 -1.2358 -1.3065
  238MOL0     H32091   7.174   7.846   0.545  1.0258  0.0216  0.4629
  238MOL0     H32092   7.288   7.978   0.531 -1.4185  3.8274 -2.2382
  238MOL0     H32093   7.140   7.981   0.437 -1.1307 -1.7248 -1.2812
  238MOL0     H32094   7.423   8.216  -0.120 -0.9064 -1.7312  1.3800
  238MOL0     H32095   7.447   8.463  -0.172  0.4715  0.7949 -0.1007
  238MOL0     H32096   7.537   8.844  -0.013 -2.0490  0.7752  2.7446
  238MOL0     H32097   7.533   8.765   0.145 -1.9309 -2.2962  0.1699
  238MOL0     H32098   7.759   8.750   0.068  0.9194 -1.7278 -1.0592
  238MOL0     H32099   7.710   8.600   0.020 -2.0434 -0.2173  2.3334
  238MOL0     H32100   7.855   8.723  -0.149  0.0816  1.2607 -1.7920
  238MOL0     H32101   7.759   8.859  -0.148  1.0255  0.1896 -0.7891
  238MOL0     H32102   7.689   8.582  -0.242 -0.9668 -0.6561  2.9359
  238MOL0     H32103   7.569   8.717  -0.241 -1.4142 -3.1350 -3.2385
  238MOL0     H32104   7.852   8.709  -0.385  0.6399  0.6688  0.6852
  238MOL0     H32105   7.740   8.847  -0.383  1.6128  0.1458 -3.2980
  238MOL0     H32106   7.675   8.574  -0.491  0.2121  1.1419  0.3442
  238MOL0     H32107   7.560   8.690  -0.498 -0.4471  0.7275  3.5551
  238MOL0     H32108   7.717   8.833  -0.664  2.9733  0.5383  0.4316
  238MOL0     H32109   7.670   8.669  -0.720 -0.8446  0.1306  0.9635
  238MOL0     H32110   7.918   8.610  -0.592  1.7145  0.7877 -0.5165
  238MOL0     H32111   7.935   8.773  -0.632  1.5254 -0.7148 -1.9045
  238MOL0     H32112   7.486   8.547   0.243 -1.3428 -3.1905  2.6544
  238MOL0     H32113   7.484   8.309   0.294 -1.0470 -2.3403 -1.1287
  238MOL0     H32114   7.414   7.877   0.035 -1.5695  3.2102  0.6519
  238MOL0     H32115   7.447   7.632   0.092  3.1011  1.9595  1.5501
  238MOL0     H32116   7.126   7.664   1.951  3.7202  0.9575  2.3044
  238MOL0     H32117   7.358   7.743   1.983  1.2379 -1.1002 -0.2049
  238MOL0     H32118   7.756   7.860   1.699  1.2548  2.7076 -2.3497
  238MOL0     H32119   7.967   7.932   1.734  2.1266 -0.5361  1.1431
  238MOL0     H32120   8.039   8.315   1.931  0.3154  0.1819 -3.2950
  238MOL0     H32121   8.061   8.198   2.065  1.2040 -2.2682 -0.4816
  238MOL0     H32122   8.271   8.336   1.982  2.1191  0.7241 -0.6760
  238MOL0     H32123   8.257   8.236   1.834 -2.9761  0.7146 -0.4888
  238MOL0     H32124   8.289   8.131   2.124  0.4235 -0.2777 -0.0835
  238MOL0     H32125   8.432   8.147   2.025  0.1953 -1.9111  2.5766
  238MOL0     H32126   8.305   7.996   1.853  2.7460  1.5752  0.0727
  238MOL0     H32127   8.197   7.961   1.987 -0.9427  0.1267 -3.7144
  238MOL0     H32128   8.538   7.730   2.075 -1.3158  0.2773  1.2211
  238MOL0     H32129   7.799   8.262   1.972 -4.0581 -0.1808  0.2705
  238MOL0     H32130   7.582   8.171   1.950 -0.9069  1.0849 -2.0207
  239MOL0     O32131   2.111   5.753   0.193  0.7766 -0.0061  0.5034
  239MOL0     C32132   2.058   5.643   0.206 -0.2926 -0.1013 -0.6565
  239MOL0     O32133   1.925   5.615   0.197  0.4321 -1.1744 -0.3100
  239MOL0     C32134   1.832   5.690   0.138  0.2578 -0.1730 -0.0667
  239MOL0     C32135   1.756   5.765   0.231  0.2818  0.0602  0.0476
  239MOL0     C32136   1.661   5.859   0.191 -1.0878 -0.9386  0.4831
  239MOL0     C32137   1.637   5.880   0.056  0.0228  0.6287 -0.3524
  239MOL0     O32138   1.523   5.948   0.016 -0.3894 -0.5101  0.0177
  239MOL0     C32139   1.548   6.090   0.006 -1.1629  0.5871 -0.1875
  239MOL0     C32140   1.431   6.145  -0.064  0.1163 -0.2859  0.2680
  239MOL0     C32141   1.448   6.295  -0.085  0.2797  1.2312 -0.5572
  239MOL0     C32142   1.323   6.359  -0.153 -0.5963 -0.0556 -0.8554
  239MOL0     C32143   1.188   6.367  -0.076  0.3713  0.4923 -0.1428
  239MOL0     C32144   1.182   6.473   0.038  0.0255  0.2534  0.7063
  239MOL0     C32145   1.030   6.469   0.102  0.1983  0.4234 -0.1653
  239MOL0     C32146   0.998   6.574   0.213  1.1201 -0.9019  0.3703
  239MOL0     N32147   1.048   6.533   0.346 -0.2526  0.2019  0.0519
  239MOL0     C32148   1.005   6.424   0.420 -0.2640  0.9661  0.2903
  239MOL0     C32149   1.098   6.417   0.520  0.7646  0.4319 -0.2688
  239MOL0     C32150   1.108   6.313   0.638 -0.7097  0.2933  0.2767
  239MOL0     C32151   1.195   6.200   0.602  0.1835  0.6141  0.0242
  239MOL0     C32152   1.135   6.094   0.513 -0.1799  0.8968  0.7977
  239MOL0     C32153   1.161   6.097   0.362 -0.1983  0.3419 -0.2780
  239MOL0     O32154   1.074   6.003   0.291 -0.6802 -0.3835 -0.0847
  239MOL0     C32155   1.012   6.061   0.180 -0.9427  0.9316 -0.0020
  239MOL0     C32156   1.047   6.026   0.055  0.6802  0.0376 -0.0155
  239MOL0     C32157   0.965   6.073  -0.052 -0.6152 -0.0688 -0.4679
  239MOL0     C32158   1.011   6.024  -0.180  0.3533 -0.0734  0.4821
  239MOL0     C32159   0.860   6.172  -0.022 -0.6483 -0.0212  0.4007
  239MOL0     C32160   0.788   6.245  -0.133  0.7733  0.4166  1.0006
  239MOL0     O32161   0.782   6.187  -0.260 -0.1362 -0.1841 -0.8204
  239MOL0     C32162   0.719   6.250  -0.355 -0.0459 -0.1566 -0.3551
  239MOL0     C32163   0.743   6.381  -0.392  0.4257  0.4418 -0.0160
  239MOL0     C32164   0.700   6.434  -0.517 -0.3618 -0.2425  0.0405
  239MOL0     C32165   0.600   6.373  -0.584  0.3740  0.6872 -0.0854
  239MOL0     O32166   0.549   6.450  -0.689  0.2293  0.2138 -0.2076
  239MOL0     C32167   0.487   6.388  -0.810  0.1803 -0.6962 -0.1787
  239MOL0     C32168   0.340   6.366  -0.800  0.3840  1.2582 -0.1432
  239MOL0     C32169   0.302   6.284  -0.926  0.5833  0.0269  0.5694
  239MOL0     C32170   0.169   6.217  -0.891 -0.3000 -0.9848 -1.3252
  239MOL0     C32171   0.107   6.154  -1.017  0.0939  0.1649 -0.3810
  239MOL0     C32172  -0.036   6.101  -0.993 -0.0437 -0.0292 -0.1686
  239MOL0     C32173  -0.035   5.974  -0.902 -1.3147 -0.1072 -0.1069
  239MOL0     C32174  -0.173   5.940  -0.841  0.3832 -0.2842  0.1027
  239MOL0    Cl32175  -0.219   6.063  -0.721  0.0453 -0.8152  0.3769
  239MOL0     C32176   0.563   6.244  -0.543  0.2491 -0.4897  0.0523
  239MOL0     C32177   0.626   6.181  -0.435  0.6905  0.0859  0.2391
  239MOL0     O32178   0.717   6.336  -0.103 -0.6829  0.0040  0.3034
  239MOL0     C32179   0.828   6.202   0.112  0.0948  0.1985 -0.2521
  239MOL0     C32180   0.902   6.146   0.209  0.2649 -0.0094  0.6336
  239MOL0     N32181   1.190   6.520   0.512 -0.2323  0.4931  0.1718
  239MOL0     N32182   1.159   6.587   0.409  0.6405 -0.4330  0.0280
  239MOL0     C32183   1.728   5.813  -0.042  0.2254 -0.1578 -0.1498
  239MOL0     C32184   1.829   5.721   0.004  0.7300 -0.0826  0.0492
  239MOL0     C32185   2.151   5.530   0.229  0.5743  1.4622  0.1483
  239MOL0     C32186   2.293   5.541   0.230  0.2069  0.4358  0.0663
  239MOL0     C32187   2.371   5.436   0.289 -0.2968 -0.3030  0.7628
  239MOL0     C32188   2.309   5.309   0.327  0.6584 -1.0138 -0.0104
  239MOL0     O32189   2.390   5.206   0.365 -0.2339 -0.2065 -0.5224
  239MOL0     C32190   2.329   5.106   0.451  0.4317 -0.0928 -0.2617
  239MOL0     C32191   2.425   4.982   0.431 -0.6941 -0.6707  0.2624
  239MOL0     C32192   2.521   4.959   0.548  0.4056  0.0714  0.5437
  239MOL0     C32193   2.450   4.894   0.668 -0.0834 -0.0508 -0.0565
  239MOL0     C32194   2.417   4.756   0.625  1.3263  0.1934 -0.3828
  239MOL0     C32195   2.360   4.647   0.604  0.0785  0.6149 -0.1259
  239MOL0     C32196   2.168   5.297   0.300 -0.9823 -0.2208  0.4962
  239MOL0     C32197   2.090   5.399   0.252  0.3191 -0.0408 -0.6922
  239MOL0     H32198   1.768   5.753   0.338 -3.2227 -1.1412  0.4340
  239MOL0     H32199   1.587   5.891   0.263 -0.2933 -0.4703  1.1048
  239MOL0     H32200   1.551   6.134   0.107 -0.4939 -0.3462  0.2119
  239MOL0     H32201   1.633   6.119  -0.056 -2.8412  0.3114 -2.7414
  239MOL0     H32202   1.408   6.101  -0.161  0.1442  0.5770 -0.1455
  239MOL0     H32203   1.343   6.129   0.000 -0.5575 -0.7715 -0.7489
  239MOL0     H32204   1.477   6.347   0.007  3.5273  3.0173 -2.4259
  239MOL0     H32205   1.529   6.316  -0.155 -0.5712  0.6587 -1.7474
  239MOL0     H32206   1.342   6.463  -0.180 -1.9877  1.7108  3.9487
  239MOL0     H32207   1.305   6.312  -0.250 -0.5701  0.0704 -0.9219
  239MOL0     H32208   1.119   6.406  -0.152 -2.8128 -1.2986  1.6467
  239MOL0     H32209   1.158   6.265  -0.053 -1.3110 -0.2531 -4.6186
  239MOL0     H32210   1.264   6.454   0.108  3.2561  1.9994 -2.2855
  239MOL0     H32211   1.195   6.569  -0.011  2.6881 -0.4030 -0.0533
  239MOL0     H32212   0.953   6.489   0.027 -1.4437 -0.6585  1.1530
  239MOL0     H32213   1.021   6.373   0.154  0.8138  0.3297 -0.2199
  239MOL0     H32214   0.889   6.586   0.208  1.0231 -2.0963 -1.8554
  239MOL0     H32215   1.037   6.667   0.171 -2.9572  0.3130 -1.2234
  239MOL0     H32216   0.926   6.350   0.417  2.6584 -2.3955  0.3409
  239MOL0     H32217   1.159   6.367   0.718 -3.1500  2.0548  0.7577
  239MOL0     H32218   1.007   6.282   0.665 -0.2865 -0.0597  1.5052
  239MOL0     H32219   1.214   6.155   0.700 -0.6710  1.7944  0.7568
  239MOL0     H32220   1.292   6.237   0.570 -0.1455 -0.6955 -2.7637
  239MOL0     H32221   1.030   6.078   0.536 -0.4416  1.4048 -0.0134
  239MOL0     H32222   1.181   6.002   0.551 -2.3972 -0.0008  1.4265
  239MOL0     H32223   1.266   6.072   0.348  0.1436 -1.4502  4.0726
  239MOL0     H32224   1.148   6.195   0.314  0.3942 -1.2186 -3.9399
  239MOL0     H32225   1.125   5.952   0.039  2.9241  2.0248  1.0452
  239MOL0     H32226   0.932   6.009  -0.254 -0.1573  0.0688  0.9883
  239MOL0     H32227   1.074   6.107  -0.215  0.8132  0.3306  2.1657
  239MOL0     H32228   1.077   5.938  -0.171  0.9838  0.1378 -1.5767
  239MOL0     H32229   0.791   6.453  -0.327  0.5460  0.1266  0.2475
  239MOL0     H32230   0.741   6.533  -0.539 -0.0558  0.2386  2.4658
  239MOL0     H32231   0.507   6.471  -0.877  0.7162  0.3460  1.2203
  239MOL0     H32232   0.548   6.302  -0.840  2.2745  1.1715 -1.5722
  239MOL0     H32233   0.319   6.303  -0.714  0.7851  4.1325  2.2168
  239MOL0     H32234   0.286   6.462  -0.797 -0.7322  0.7693 -2.1573
  239MOL0     H32235   0.379   6.209  -0.945  0.0837 -1.3076  3.2689
  239MOL0     H32236   0.293   6.356  -1.008 -2.0059  2.5056  2.7849
  239MOL0     H32237   0.181   6.143  -0.812  0.4139  0.8028  0.3267
  239MOL0     H32238   0.094   6.288  -0.855  0.4219 -0.3104 -1.1255
  239MOL0     H32239   0.174   6.076  -1.052  1.8647  2.5057 -2.5659
  239MOL0     H32240   0.116   6.228  -1.097 -2.9883 -0.5215 -1.5087
  239MOL0     H32241  -0.087   6.185  -0.944 -1.7049  0.0600 -1.9427
  239MOL0     H32242  -0.091   6.078  -1.084 -4.3626  0.2593  2.1141
  239MOL0     H32243   0.048   5.980  -0.831  0.6910 -0.8697 -2.2385
  239MOL0     H32244  -0.005   5.892  -0.969  0.9946  0.0877  0.6009
  239MOL0     H32245  -0.165   5.848  -0.782  0.9215  0.1251  0.6823
  239MOL0     H32246  -0.249   5.930  -0.919  1.6603 -0.1554 -1.2133
  239MOL0     H32247   0.489   6.192  -0.603  1.9900 -0.8962 -1.8358
  239MOL0     H32248   0.601   6.076  -0.443 -0.4634  0.4843 -2.4975
  239MOL0     H32249   0.739   6.257   0.142 -0.2533 -0.6753  0.3506
  239MOL0     H32250   0.863   6.155   0.310  2.2790 -1.2364  1.5983
  239MOL0     H32251   1.727   5.830  -0.149  2.7972  1.5637  0.0266
  239MOL0     H32252   1.899   5.682  -0.069  2.1917  1.6421  0.4451
  239MOL0     H32253   2.331   5.633   0.187  0.9825  0.2274  0.2896
  239MOL0     H32254   2.479   5.439   0.296 -0.0758  3.3554 -1.7518
  239MOL0     H32255   2.331   5.130   0.558 -1.3886 -3.4596  0.6872
  239MOL0     H32256   2.230   5.071   0.422  0.4430 -0.8611  0.5734
  239MOL0     H32257   2.489   4.984   0.342  1.2935  0.9099  1.6650
  239MOL0     H32258   2.358   4.899   0.404 -0.4082  0.2393 -3.8926
  239MOL0     H32259   2.575   5.051   0.572  0.4815  0.5030 -1.1449
  239MOL0     H32260   2.605   4.900   0.510  1.0009  1.1543  0.1553
  239MOL0     H32261   2.363   4.953   0.698 -0.3080  0.1645 -1.1141
  239MOL0     H32262   2.512   4.890   0.759  0.9061  0.4680 -0.6786
  239MOL0     H32263   2.313   4.558   0.569 -1.5062  1.0944  0.7051
  239MOL0     H32264   2.116   5.202   0.302 -0.1331 -0.6811  1.5653
  239MOL0     H32265   1.982   5.390   0.252 -0.6523  5.3629  4.4175
  240MOL0     O32266   4.320   1.478  11.245 -0.4672  0.3574 -0.0701
  240MOL0     C32267   4.356   1.509  11.359  0.0994 -0.2840  0.9380
  240MOL0     O32268   4.482   1.515  11.412 -0.0395 -0.0456  0.3914
  240MOL0     C32269   4.584   1.433  11.373  0.6211 -0.5984 -0.0577
  240MOL0     C32270   4.570   1.338  11.268 -0.4918  0.3830  0.1859
  240MOL0     C32271   4.681   1.255  11.236 -0.1348 -0.4069 -0.3354
  240MOL0     C32272   4.807   1.270  11.302  0.6354  0.7457 -0.1009
  240MOL0     O32273   4.921   1.218  11.258  0.2049  0.8873 -0.4194
  240MOL0     C32274   4.909   1.076  11.237 -1.2013 -0.3156 -1.0582
  240MOL0     C32275   5.009   1.012  11.337  0.5108 -0.7350 -0.2599
  240MOL0     C32276   4.950   1.006  11.475 -0.4171 -0.2345  0.1192
  240MOL0     C32277   5.060   0.921  11.558 -0.5146 -0.3512 -0.1072
  240MOL0     C32278   5.164   0.996  11.636  0.4769 -1.3734 -0.1661
  240MOL0     C32279   5.119   1.100  11.743  0.2975  1.8300 -0.0247
  240MOL0     C32280   5.023   1.055  11.852  0.3026 -0.2281  0.4753
  240MOL0     C32281   4.873   1.101  11.823 -0.5389 -0.2307 -0.1051
  240MOL0     N32282   4.846   1.238  11.859 -0.0309  0.0737 -0.2059
  240MOL0     C32283   4.869   1.288  11.990 -0.4727  0.6637 -0.3586
  240MOL0     C32284   4.847   1.420  11.978  0.0756  0.8178 -0.7545
  240MOL0     C32285   4.835   1.512  12.092  0.1058  0.3717  0.2961
  240MOL0     C32286   4.971   1.535  12.153  0.0801  0.3722  0.5047
  240MOL0     C32287   4.971   1.664  12.236  0.1008 -0.3090 -0.7462
  240MOL0     C32288   5.118   1.678  12.289  0.5901 -0.1730  0.6773
  240MOL0     O32289   5.200   1.738  12.183 -0.1068  0.0760 -0.0458
  240MOL0     C32290   5.314   1.796  12.216  0.6065  0.3098 -0.1797
  240MOL0     C32291   5.437   1.740  12.184  0.3312 -0.2273  0.8355
  240MOL0     C32292   5.555   1.800  12.230 -1.4810 -0.7899 -0.3835
  240MOL0     C32293   5.685   1.738  12.187 -0.4800 -0.3025  0.1104
  240MOL0     C32294   5.552   1.922  12.302 -0.5739 -0.9926  0.0932
  240MOL0     C32295   5.676   2.004  12.323  0.9314  0.0066 -0.7875
  240MOL0     O32296   5.637   2.129  12.360  0.2323  0.1453  0.0024
  240MOL0     C32297   5.737   2.199  12.421 -0.4293 -0.4376 -0.3885
  240MOL0     C32298   5.831   2.274  12.356 -0.1048  0.9577  0.8364
  240MOL0     C32299   5.936   2.339  12.414  0.2849  0.0888  0.6592
  240MOL0     C32300   5.926   2.354  12.559 -0.3880  0.2469 -0.6602
  240MOL0     O32301   6.018   2.419  12.628 -0.4976  0.3474 -0.2011
  240MOL0     C32302   6.151   2.427  12.575  0.2719  0.9829  0.9361
  240MOL0     C32303   6.266   2.429  12.672  0.1990  0.7046  0.5985
  240MOL0     C32304   6.286   2.555  12.765  0.2001 -0.1371  0.8827
  240MOL0     C32305   6.437   2.560  12.806 -0.0053  0.7382 -0.9031
  240MOL0     C32306   6.460   2.652  12.926  0.3983 -0.5962  0.0159
  240MOL0     C32307   6.422   2.796  12.903  0.0913 -0.2562 -0.4352
  240MOL0     C32308   6.447   2.888  13.027  0.6174  0.5438  0.2430
  240MOL0     C32309   6.306   2.917  13.098  0.1694  0.2822 -0.1927
  240MOL0    Cl32310   6.302   3.040  13.230  0.4104 -0.1754  0.2171
  240MOL0     C32311   5.825   2.300  12.624  0.1246  0.4599 -0.0204
  240MOL0     C32312   5.745   2.211  12.561  0.5530 -0.4710 -0.0670
  240MOL0     O32313   5.786   1.962  12.307 -1.0377 -1.0375 -0.7387
  240MOL0     C32314   5.422   1.968  12.347  0.1373  0.6910  0.5958
  240MOL0     C32315   5.308   1.900  12.306 -0.7203  0.4873  0.4305
  240MOL0     N32316   4.817   1.449  11.849 -0.2187  0.2298  0.4007
  240MOL0     N32317   4.819   1.345  11.775 -0.0372  0.1525  0.7059
  240MOL0     C32318   4.811   1.350  11.417 -0.0543 -0.5332 -0.5470
  240MOL0     C32319   4.701   1.428  11.449 -0.5483  0.4466  0.6013
  240MOL0     C32320   4.250   1.562  11.445  0.2131  0.2016 -0.7425
  240MOL0     C32321   4.125   1.594  11.399  0.8632 -0.4734 -0.3413
  240MOL0     C32322   4.039   1.675  11.473 -0.4451  0.4177  0.0114
  240MOL0     C32323   4.059   1.709  11.605  0.1473  0.3335  0.1114
  240MOL0     O32324   3.980   1.780  11.689  0.6251 -0.3083  0.3360
  240MOL0     C32325   3.841   1.803  11.661 -0.8437 -0.7009 -0.3911
  240MOL0     C32326   3.785   1.898  11.778  0.4712  0.2573  0.0084
  240MOL0     C32327   3.812   2.049  11.753 -0.9390  0.6119  0.6615
  240MOL0     C32328   3.753   2.134  11.859  0.2038  0.3682  0.8357
  240MOL0     C32329   3.623   2.172  11.809  0.1253 -0.8838  0.7564
  240MOL0     C32330   3.520   2.198  11.754  0.0133  0.3598 -0.7827
  240MOL0     C32331   4.185   1.665  11.656  1.0507  0.2772  1.1513
  240MOL0     C32332   4.279   1.598  11.577 -0.1781  0.4110 -1.0012
  240MOL0     H32333   4.485   1.320  11.203  0.0907  0.6957 -0.6896
  240MOL0     H32334   4.672   1.194  11.147  2.6762  1.9700 -2.4557
  240MOL0     H32335   4.809   1.042  11.265 -2.1893  2.5608 -0.6765
  240MOL0     H32336   4.934   1.056  11.132  0.4521 -2.4464 -0.3336
  240MOL0     H32337   5.035   0.913  11.296  0.7535 -0.4316 -0.8505
  240MOL0     H32338   5.108   1.057  11.335  0.1101  0.2750 -3.6348
  240MOL0     H32339   4.952   1.107  11.518  3.6778  0.6823 -1.6579
  240MOL0     H32340   4.857   0.950  11.470  0.1944 -1.1759 -1.5257
  240MOL0     H32341   5.004   0.867  11.635  0.1966  0.7061  1.1993
  240MOL0     H32342   5.107   0.843  11.497 -0.3661 -0.3700  0.0297
  240MOL0     H32343   5.235   0.923  11.676  2.8432  1.0618  0.4486
  240MOL0     H32344   5.215   1.045  11.552 -3.9758 -0.4423 -2.6257
  240MOL0     H32345   5.216   1.124  11.787  1.2920  0.8661 -1.5722
  240MOL0     H32346   5.081   1.194  11.700 -1.8123  0.2593 -1.8019
  240MOL0     H32347   5.033   0.947  11.866 -0.2532  0.0012  3.4339
  240MOL0     H32348   5.042   1.102  11.949  1.4114  1.3074 -0.4337
  240MOL0     H32349   4.792   1.045  11.872  0.3341 -0.9161  0.6061
  240MOL0     H32350   4.844   1.085  11.719 -1.2784  2.6432 -0.4058
  240MOL0     H32351   4.899   1.220  12.069 -0.4216 -2.5642 -2.9323
  240MOL0     H32352   4.799   1.611  12.063 -0.4757 -0.4476 -2.0248
  240MOL0     H32353   4.760   1.460  12.151  3.6285 -3.0026  2.3243
  240MOL0     H32354   5.044   1.533  12.071 -0.9674 -0.6643 -0.4509
  240MOL0     H32355   5.000   1.445  12.209  1.5256  0.7677  0.4414
  240MOL0     H32356   4.909   1.650  12.325  2.3207 -4.0171  0.4451
  240MOL0     H32357   4.942   1.750  12.175  0.5752  0.3314 -0.0895
  240MOL0     H32358   5.178   1.587  12.297  2.1852  0.7740 -0.1334
  240MOL0     H32359   5.104   1.721  12.389  2.3689 -1.9055  1.7428
  240MOL0     H32360   5.448   1.659  12.112  2.2235  1.0096 -0.3367
  240MOL0     H32361   5.739   1.803  12.118 -0.2128 -1.0837 -0.4354
  240MOL0     H32362   5.745   1.730  12.278  0.1501  0.3406 -0.2464
  240MOL0     H32363   5.672   1.640  12.139 -0.8054  0.3052 -1.0795
  240MOL0     H32364   5.819   2.281  12.248 -4.3987 -1.2720  0.9529
  240MOL0     H32365   6.018   2.382  12.357  1.3511 -2.2704  0.2749
  240MOL0     H32366   6.173   2.334  12.522 -0.8625  0.5815  1.1473
  240MOL0     H32367   6.168   2.518  12.515  1.3132  0.0463 -0.2540
  240MOL0     H32368   6.267   2.338  12.733  0.9971  1.0332  1.0986
  240MOL0     H32369   6.364   2.422  12.623  0.0105 -2.1029  0.5021
  240MOL0     H32370   6.218   2.544  12.850  0.9304 -1.6872  1.3082
  240MOL0     H32371   6.253   2.643  12.710 -2.7715 -0.4207  1.9989
  240MOL0     H32372   6.484   2.464  12.829 -0.1860  1.0104  0.7505
  240MOL0     H32373   6.495   2.599  12.722 -1.2737  5.4297  0.1069
  240MOL0     H32374   6.565   2.646  12.955 -0.3018  1.5682  3.6863
  240MOL0     H32375   6.412   2.621  13.020 -1.8977  1.9906 -0.1807
  240MOL0     H32376   6.489   2.825  12.821  1.4409  0.9141  1.0133
  240MOL0     H32377   6.320   2.814  12.868  0.3506  4.7048  0.5799
  240MOL0     H32378   6.497   2.976  12.985 -0.0151 -0.1628 -2.0873
  240MOL0     H32379   6.513   2.839  13.100  1.1047 -0.6203 -0.9606
  240MOL0     H32380   6.277   2.821  13.139  2.7722 -1.2571 -1.6756
  240MOL0     H32381   6.239   2.951  13.018  0.1400 -0.9640 -0.7084
  240MOL0     H32382   5.814   2.325  12.729 -0.6022 -0.3115  0.0967
  240MOL0     H32383   5.664   2.167  12.619 -1.0015  2.5200  0.2302
  240MOL0     H32384   5.414   2.058  12.408  0.9543  1.2848 -0.1402
  240MOL0     H32385   5.214   1.937  12.346 -2.4220 -2.8736 -0.1391
  240MOL0     H32386   4.901   1.347  11.478 -0.9204 -0.2654  0.7667
  240MOL0     H32387   4.718   1.493  11.534  1.7650  1.7510 -0.7453
  240MOL0     H32388   4.098   1.567  11.298  0.5594 -0.3928 -0.2833
  240MOL0     H32389   3.952   1.708  11.418 -0.1217 -0.5524 -1.1229
  240MOL0     H32390   3.827   1.860  11.568  4.1121  0.2631 -0.8441
  240MOL0     H32391   3.795   1.704  11.652  0.0355 -1.2471  0.8532
  240MOL0     H32392   3.822   1.876  11.878  0.5735 -1.4381 -0.3689
  240MOL0     H32393   3.677   1.889  11.788  0.1805  2.6154 -0.3844
  240MOL0     H32394   3.775   2.064  11.651  1.7525  2.2626 -0.1494
  240MOL0     H32395   3.921   2.057  11.755 -0.8894 -0.1136  1.3116
  240MOL0     H32396   3.812   2.224  11.878 -0.6521  0.9873  0.6025
  240MOL0     H32397   3.753   2.060  11.939 -0.8812 -3.5270 -2.3960
  240MOL0     H32398   3.428   2.226  11.706 -1.0220 -2.1982 -0.4495
  240MOL0     H32399   4.218   1.699  11.753  1.6047  1.9181  0.4210
  240MOL0     H32400   4.384   1.587  11.602 -0.3703 -0.2757 -0.4512
  241MOL0     O32401   2.280   0.292   3.561  0.1245  0.5561 -0.1776
  241MOL0     C32402   2.266   0.338   3.447 -0.4640  0.3643 -1.2517
  241MOL0     O32403   2.178   0.429   3.409 -0.4493 -0.0118 -0.5064
  241MOL0     C32404   2.071   0.454   3.489 -0.5480 -0.2191 -0.0036
  241MOL0     C32405   1.979   0.350   3.509 -0.1496 -0.8985  0.3078
  241MOL0     C32406   1.863   0.376   3.593  0.0435 -0.0563  0.3760
  241MOL0     C32407   1.834   0.503   3.631 -0.4747 -0.1662  0.6067
  241MOL0     O32408   1.715   0.522   3.703  0.1639  0.3535  0.4508
  241MOL0     C32409   1.669   0.651   3.724  0.2107 -0.0260  0.3662
  241MOL0     C32410   1.722   0.710   3.857  0.2909 -0.3839  0.4040
  241MOL0     C32411   1.665   0.618   3.964  0.2340 -0.0286  0.5652
  241MOL0     C32412   1.742   0.501   4.026 -0.1306  0.1596 -0.5384
  241MOL0     C32413   1.880   0.550   4.086  0.1390 -0.2668 -0.7307
  241MOL0     C32414   1.868   0.642   4.209  1.1631 -0.5732 -0.5648
  241MOL0     C32415   1.996   0.648   4.280 -1.3418  0.0154  1.1416
  241MOL0     C32416   2.010   0.519   4.365  0.5358 -0.3600 -0.0306
  241MOL0     N32417   2.112   0.538   4.471  0.1076  0.3183 -0.3077
  241MOL0     C32418   2.240   0.497   4.457  0.2130  0.0447  0.0581
  241MOL0     C32419   2.302   0.526   4.580  0.2483 -0.0761 -0.5706
  241MOL0     C32420   2.438   0.495   4.625  1.0337  0.4074  0.3769
  241MOL0     C32421   2.541   0.530   4.514 -0.4806 -0.1605 -1.0033
  241MOL0     C32422   2.524   0.675   4.442  0.6433  0.3609 -0.6323
  241MOL0     C32423   2.558   0.798   4.529  0.7089  0.2489 -0.0545
  241MOL0     O32424   2.493   0.782   4.655  0.4998 -0.2997  0.6877
  241MOL0     C32425   2.534   0.867   4.761  0.3596  0.4448  0.1436
  241MOL0     C32426   2.638   0.966   4.755  0.0626 -0.4268  0.1459
  241MOL0     C32427   2.670   1.059   4.861  0.4042  0.3519  0.6255
  241MOL0     C32428   2.792   1.150   4.858  0.1779 -0.5972 -0.3621
  241MOL0     C32429   2.579   1.056   4.975  0.2418  0.1443  0.6399
  241MOL0     C32430   2.601   1.153   5.089  0.0324 -0.7693 -0.8216
  241MOL0     O32431   2.618   1.284   5.053  0.3057  1.2717 -0.1893
  241MOL0     C32432   2.617   1.395   5.133 -0.4888 -0.0006  0.3426
  241MOL0     C32433   2.636   1.400   5.273  1.0948 -0.1214  0.2555
  241MOL0     C32434   2.617   1.517   5.346 -0.0094 -0.1715  0.2218
  241MOL0     C32435   2.587   1.642   5.284 -0.2546 -0.6165  0.4893
  241MOL0     O32436   2.587   1.757   5.361  0.0498  0.3071 -0.0294
  241MOL0     C32437   2.541   1.881   5.298 -0.6236  0.4334 -0.3613
  241MOL0     C32438   2.459   1.961   5.397 -0.3535 -0.5514 -0.8416
  241MOL0     C32439   2.550   2.001   5.518 -0.6551  0.6570  0.5744
  241MOL0     C32440   2.467   2.069   5.627  1.4296  0.6124 -0.2568
  241MOL0     C32441   2.564   2.104   5.746 -0.4085 -0.8439  0.1935
  241MOL0     C32442   2.499   2.111   5.885 -0.8598  0.4012  0.3532
  241MOL0     C32443   2.600   2.141   5.997  0.4224 -0.4919 -0.0367
  241MOL0     C32444   2.538   2.183   6.119  0.2952 -0.5462 -0.5918
  241MOL0    Cl32445   2.675   2.228   6.231  0.0366 -0.3235 -0.4856
  241MOL0     C32446   2.578   1.636   5.138 -0.3829  0.0947 -0.1278
  241MOL0     C32447   2.593   1.513   5.069  0.4746 -0.7613 -0.2081
  241MOL0     O32448   2.575   1.112   5.204 -0.1309 -0.6339  0.5059
  241MOL0     C32449   2.474   0.958   4.982  0.1581  0.1846 -0.8706
  241MOL0     C32450   2.456   0.867   4.873  0.2300 -1.5268 -0.5222
  241MOL0     N32451   2.214   0.591   4.652  0.0460 -0.0380 -0.7282
  241MOL0     N32452   2.096   0.590   4.593  0.1884  0.7092 -0.0748
  241MOL0     C32453   1.931   0.599   3.605 -0.0006 -0.4612  0.9892
  241MOL0     C32454   2.052   0.577   3.529  0.4617 -0.6690 -1.1462
  241MOL0     C32455   2.368   0.301   3.349  0.3818  0.6882  0.1413
  241MOL0     C32456   2.437   0.178   3.348  0.3441 -0.3421 -0.2546
  241MOL0     C32457   2.506   0.130   3.242  0.6582  0.4628  0.0140
  241MOL0     C32458   2.533   0.216   3.134  1.5092 -0.9580 -0.3518
  241MOL0     O32459   2.625   0.195   3.037 -0.3608  0.4186  0.9043
  241MOL0     C32460   2.725   0.086   3.041 -0.4250 -0.2446 -0.2072
  241MOL0     C32461   2.856   0.149   3.096 -1.0592  1.2996 -0.1677
  241MOL0     C32462   2.851   0.119   3.240  0.1467 -0.2241 -0.5058
  241MOL0     C32463   2.956   0.191   3.323 -0.0396  0.7141 -0.4581
  241MOL0     C32464   3.093   0.136   3.302 -0.0802  0.7691  0.1399
  241MOL0     C32465   3.207   0.090   3.290  0.8939  0.7116 -0.2495
  241MOL0     C32466   2.477   0.349   3.141  1.0013 -0.1818 -0.0827
  241MOL0     C32467   2.392   0.388   3.242  0.2179 -0.3337 -0.5062
  241MOL0     H32468   1.996   0.245   3.490  1.2285 -0.8432  1.0934
  241MOL0     H32469   1.795   0.299   3.628 -0.6089  0.4058  0.1510
  241MOL0     H32470   1.700   0.722   3.647  0.5103  1.7334  2.0266
  241MOL0     H32471   1.563   0.677   3.733  0.6972  1.7752  1.6661
  241MOL0     H32472   1.831   0.703   3.862  0.3775 -1.2044 -1.5830
  241MOL0     H32473   1.702   0.817   3.870  0.4695  0.0566 -2.3897
  241MOL0     H32474   1.644   0.685   4.048  2.0704  0.9720  0.3052
  241MOL0     H32475   1.573   0.572   3.929  1.2270 -1.7904  0.1226
  241MOL0     H32476   1.692   0.461   4.115  2.0745 -0.3410  0.5479
  241MOL0     H32477   1.767   0.429   3.947  1.2663  0.1211 -0.0825
  241MOL0     H32478   1.946   0.471   4.124 -1.2551 -0.1519  2.2766
  241MOL0     H32479   1.942   0.599   4.011 -3.5497  2.5137 -2.2630
  241MOL0     H32480   1.840   0.741   4.173 -0.6661 -0.3085  1.3874
  241MOL0     H32481   1.796   0.594   4.275  1.5628 -1.2204 -0.5827
  241MOL0     H32482   2.077   0.661   4.208  2.2617 -0.3743  4.7838
  241MOL0     H32483   1.989   0.735   4.346 -2.3391  2.2072 -1.6135
  241MOL0     H32484   2.039   0.434   4.303  1.1928 -0.7308  0.7597
  241MOL0     H32485   1.912   0.498   4.409 -0.0418  1.3680 -0.3866
  241MOL0     H32486   2.272   0.450   4.364 -2.1211  1.1151 -1.3909
  241MOL0     H32487   2.457   0.543   4.722  1.0544  1.5949 -0.1918
  241MOL0     H32488   2.449   0.390   4.653  0.2241 -0.6687 -2.9067
  241MOL0     H32489   2.537   0.458   4.432 -0.4127 -0.0736 -1.0840
  241MOL0     H32490   2.642   0.519   4.552 -0.7486  0.0384 -0.2134
  241MOL0     H32491   2.421   0.690   4.409  1.3174  0.0826 -3.0527
  241MOL0     H32492   2.578   0.667   4.347  2.9225  0.8297  0.5423
  241MOL0     H32493   2.508   0.879   4.474  0.4556  0.5644  0.6324
  241MOL0     H32494   2.667   0.805   4.528  0.8061 -0.2779 -3.2133
  241MOL0     H32495   2.696   0.974   4.664  1.3870 -0.8121  0.9211
  241MOL0     H32496   2.862   1.152   4.774 -0.6783 -0.3216 -1.0855
  241MOL0     H32497   2.758   1.254   4.861 -0.0304 -0.6859  0.9109
  241MOL0     H32498   2.853   1.138   4.948  0.6285 -1.0045 -0.7224
  241MOL0     H32499   2.656   1.307   5.325 -1.4667 -0.8712  0.0070
  241MOL0     H32500   2.654   1.524   5.447  1.7410 -1.0997 -0.3079
  241MOL0     H32501   2.620   1.944   5.257  0.3412 -0.7433 -0.3410
  241MOL0     H32502   2.467   1.875   5.218  0.0767 -1.3097 -0.9211
  241MOL0     H32503   2.420   2.049   5.344 -1.3904  0.9951  2.2349
  241MOL0     H32504   2.389   1.889   5.439  0.3122 -1.3170 -1.0259
  241MOL0     H32505   2.620   2.078   5.483  0.0059  0.2741  1.0390
  241MOL0     H32506   2.604   1.914   5.556 -0.9822  1.0799  2.0640
  241MOL0     H32507   2.428   2.160   5.581  2.2581  0.5301 -1.1699
  241MOL0     H32508   2.386   2.003   5.658  3.9873 -2.7569 -0.1541
  241MOL0     H32509   2.612   2.201   5.733  1.2797 -1.3297  2.2744
  241MOL0     H32510   2.641   2.027   5.735 -1.7652 -1.8945 -3.1881
  241MOL0     H32511   2.425   2.192   5.884 -0.3372  1.0934 -4.2106
  241MOL0     H32512   2.443   2.021   5.911 -1.3585 -0.2956 -2.7844
  241MOL0     H32513   2.662   2.225   5.963 -1.1626  2.1565  3.0106
  241MOL0     H32514   2.667   2.056   6.013  0.6793 -0.0550  1.4002
  241MOL0     H32515   2.483   2.095   6.152 -1.8534  0.9675  0.1661
  241MOL0     H32516   2.460   2.260   6.115  0.2168 -0.3748  2.2641
  241MOL0     H32517   2.562   1.733   5.091 -1.0668  0.1976  0.2933
  241MOL0     H32518   2.594   1.500   4.961 -0.9102 -1.7741 -0.1254
  241MOL0     H32519   2.397   0.951   5.058 -0.9224 -2.8796 -2.0891
  241MOL0     H32520   2.381   0.791   4.857 -2.2381  0.7507 -0.4890
  241MOL0     H32521   1.912   0.697   3.648 -0.3788  0.5242 -1.3049
  241MOL0     H32522   2.131   0.645   3.499  0.5758 -1.1667 -1.9973
  241MOL0     H32523   2.435   0.113   3.435  1.2004  0.3650  0.3061
  241MOL0     H32524   2.556   0.033   3.251  0.3339  0.2695 -0.2263
  241MOL0     H32525   2.696  -0.002   3.099  0.0911 -0.2283  0.0804
  241MOL0     H32526   2.740   0.049   2.939  1.2118 -1.6230  0.4769
  241MOL0     H32527   2.872   0.254   3.073  3.0821  0.8722  0.0444
  241MOL0     H32528   2.950   0.101   3.068 -0.8216  1.3543  0.5222
  241MOL0     H32529   2.860   0.011   3.252  3.3941 -0.1221 -1.0907
  241MOL0     H32530   2.754   0.157   3.273  0.5043  0.8268 -0.6310
  241MOL0     H32531   2.941   0.183   3.431  3.2400  1.9376  0.2075
  241MOL0     H32532   2.961   0.299   3.304  0.6674  0.7995  0.1747
  241MOL0     H32533   3.306   0.050   3.284  0.8452  0.4370  0.5852
  241MOL0     H32534   2.518   0.421   3.071  2.1829 -2.2034 -1.5750
  241MOL0     H32535   2.341   0.484   3.239  0.4981  0.0086  2.4947
  242MOL0     O32536   5.006   7.480   3.267  0.4587 -0.1464 -0.8536
  242MOL0     C32537   4.959   7.557   3.341  0.4549 -0.8078  0.7250
  242MOL0     O32538   4.933   7.692   3.307  0.6374 -0.5060 -0.8828
  242MOL0     C32539   4.988   7.744   3.196 -0.4861  0.0963  0.6660
  242MOL0     C32540   4.908   7.764   3.083  0.6783 -0.3598 -0.5402
  242MOL0     C32541   4.968   7.824   2.968 -0.2147  0.2206 -0.2903
  242MOL0     C32542   5.102   7.855   2.969 -0.5614  0.5873  0.8546
  242MOL0     O32543   5.177   7.915   2.868 -0.3996 -0.0109  0.1609
  242MOL0     C32544   5.117   7.969   2.747  0.3419 -0.2988 -0.2259
  242MOL0     C32545   5.050   8.104   2.776 -0.8804  0.4681 -0.2564
  242MOL0     C32546   4.955   8.158   2.678 -0.1910 -0.3370 -0.0518
  242MOL0     C32547   4.983   8.143   2.526  1.0045 -0.5845  0.5719
  242MOL0     C32548   5.070   8.260   2.479 -0.5435 -0.1235  0.4364
  242MOL0     C32549   5.158   8.235   2.359  0.2795  0.7117 -0.6934
  242MOL0     C32550   5.249   8.359   2.322  0.1349  0.6614 -0.3331
  242MOL0     C32551   5.339   8.318   2.200 -0.2462 -0.1815 -1.2947
  242MOL0     N32552   5.402   8.443   2.139 -0.0771  0.5810  0.2054
  242MOL0     C32553   5.528   8.493   2.177 -0.3790 -0.8152 -0.3306
  242MOL0     C32554   5.537   8.600   2.097 -0.0950 -0.4472  0.1879
  242MOL0     C32555   5.657   8.699   2.093  0.4582 -0.1528  0.1901
  242MOL0     C32556   5.787   8.653   2.043 -1.2460 -0.2059  0.1638
  242MOL0     C32557   5.791   8.643   1.890  0.7023  0.4527  0.6115
  242MOL0     C32558   5.927   8.588   1.835  0.5491  0.8851 -0.3587
  242MOL0     O32559   6.029   8.673   1.878  0.3080 -0.1875 -0.3802
  242MOL0     C32560   6.138   8.692   1.797  0.7445  0.6130  0.3207
  242MOL0     C32561   6.193   8.596   1.718  0.8878 -0.2916  0.4241
  242MOL0     C32562   6.298   8.626   1.629  0.9118 -0.0624  0.4507
  242MOL0     C32563   6.342   8.508   1.535 -0.5359  0.2799 -0.3410
  242MOL0     C32564   6.369   8.752   1.636  0.7545  0.7835 -0.5296
  242MOL0     C32565   6.482   8.785   1.538  0.5579 -0.2909  0.3563
  242MOL0     O32566   6.569   8.884   1.590 -0.1218 -0.9744  0.5958
  242MOL0     C32567   6.656   8.934   1.498  0.5103 -0.5215  0.4415
  242MOL0     C32568   6.612   9.015   1.386  0.0750  0.2545 -0.1177
  242MOL0     C32569   6.711   9.071   1.308  0.3907  0.2217 -0.4034
  242MOL0     C32570   6.855   9.062   1.335  0.5021 -0.2896  1.2505
  242MOL0     O32571   6.935   9.124   1.238 -0.2877  0.0715  0.1119
  242MOL0     C32572   6.974   9.252   1.283 -0.0688  0.0134 -0.2119
  242MOL0     C32573   7.056   9.318   1.171  0.1214 -0.6267 -0.0722
  242MOL0     C32574   7.096   9.458   1.211 -0.0942 -0.7570  0.0936
  242MOL0     C32575   6.988   9.563   1.178 -0.7783  0.0635  0.3333
  242MOL0     C32576   7.044   9.705   1.163 -0.1996  0.0062 -0.1724
  242MOL0     C32577   7.068   9.774   1.305 -0.5414 -0.4948  0.1107
  242MOL0     C32578   7.166   9.897   1.299  0.2552 -0.1411  0.4501
  242MOL0     C32579   7.196   9.952   1.441  0.5534 -0.7439 -0.2918
  242MOL0    Cl32580   7.282  10.111   1.417 -0.1048  0.4903 -0.6238
  242MOL0     C32581   6.898   8.980   1.438  0.1308  0.1159  0.0460
  242MOL0     C32582   6.794   8.914   1.517 -0.9915 -0.6930  0.1723
  242MOL0     O32583   6.487   8.748   1.416 -0.0918 -0.2972  0.7327
  242MOL0     C32584   6.313   8.844   1.728 -1.0225 -0.2906 -0.7659
  242MOL0     C32585   6.197   8.818   1.803  0.0622 -0.8166 -0.2542
  242MOL0     N32586   5.435   8.598   2.011  1.0489 -0.5623  0.1075
  242MOL0     N32587   5.357   8.495   2.030  0.5620  0.2512  0.2245
  242MOL0     C32588   5.182   7.824   3.073 -0.0709 -0.7249  0.4333
  242MOL0     C32589   5.123   7.779   3.189 -0.7603 -0.8269 -0.3394
  242MOL0     C32590   4.909   7.508   3.467 -0.2455  0.2400  0.5566
  242MOL0     C32591   4.827   7.584   3.556 -0.6974 -0.0561  0.3764
  242MOL0     C32592   4.788   7.529   3.681  0.7957 -0.4527  0.7383
  242MOL0     C32593   4.834   7.404   3.722 -0.4379  0.8277  0.8381
  242MOL0     O32594   4.804   7.342   3.836  0.5217  0.9244 -1.0421
  242MOL0     C32595   4.699   7.382   3.923  0.1172  1.1474  0.4295
  242MOL0     C32596   4.667   7.287   4.047  0.5649  0.4341  0.0491
  242MOL0     C32597   4.537   7.351   4.114 -0.5157 -1.0676  0.3642
  242MOL0     C32598   4.541   7.347   4.270 -0.1229 -0.2138  0.3200
  242MOL0     C32599   4.438   7.437   4.334  0.3766 -0.1249  0.3667
  242MOL0     C32600   4.355   7.487   4.407  0.3546 -0.5537  0.2735
  242MOL0     C32601   4.926   7.337   3.636  0.9272 -0.2976 -0.3047
  242MOL0     C32602   4.962   7.383   3.513  0.0029  0.5483 -0.2495
  242MOL0     H32603   4.803   7.741   3.073  0.7158 -0.2719 -1.1587
  242MOL0     H32604   4.905   7.844   2.881 -4.1144  0.8825  2.4175
  242MOL0     H32605   5.189   7.981   2.666 -1.1698  2.4124 -1.3192
  242MOL0     H32606   5.042   7.898   2.708 -0.5862  1.4390 -1.7736
  242MOL0     H32607   5.010   8.093   2.877 -1.0236 -0.1407 -0.3745
  242MOL0     H32608   5.134   8.174   2.785 -0.9405  0.7084 -1.4043
  242MOL0     H32609   4.855   8.114   2.690 -0.7331  0.4520 -1.4542
  242MOL0     H32610   4.947   8.265   2.698  0.4471  0.6966 -4.4597
  242MOL0     H32611   5.039   8.055   2.495  1.6480  1.5358 -5.7474
  242MOL0     H32612   4.884   8.147   2.481  0.7130 -1.7750  1.0857
  242MOL0     H32613   5.013   8.352   2.464  0.5337  0.3724 -0.7865
  242MOL0     H32614   5.151   8.281   2.549 -1.8389  0.3259  1.8480
  242MOL0     H32615   5.227   8.153   2.382 -1.6880 -1.6203 -2.6743
  242MOL0     H32616   5.097   8.206   2.273  2.2605 -1.1850 -1.5566
  242MOL0     H32617   5.181   8.442   2.299  0.1526  0.9067  0.4712
  242MOL0     H32618   5.311   8.377   2.410  1.6080 -2.0754 -0.7206
  242MOL0     H32619   5.275   8.273   2.124 -1.5216 -2.5615  1.0123
  242MOL0     H32620   5.405   8.234   2.224  0.2446 -0.6500 -3.9686
  242MOL0     H32621   5.595   8.459   2.256 -0.2870 -2.8160 -1.2156
  242MOL0     H32622   5.635   8.789   2.034  1.9323 -0.2426 -0.5437
  242MOL0     H32623   5.678   8.735   2.195  1.3490 -0.8032  0.2440
  242MOL0     H32624   5.819   8.560   2.092 -0.0458 -0.7759 -1.5813
  242MOL0     H32625   5.860   8.731   2.067 -2.4882  0.3843  2.2207
  242MOL0     H32626   5.773   8.741   1.844 -0.0180 -0.7162 -1.7540
  242MOL0     H32627   5.706   8.581   1.861 -0.1261  1.9174 -0.1688
  242MOL0     H32628   5.929   8.594   1.725 -1.4936  0.6516 -0.4525
  242MOL0     H32629   5.949   8.485   1.865 -0.6428  1.4689  2.7970
  242MOL0     H32630   6.146   8.498   1.724 -1.8886  0.7274 -2.2355
  242MOL0     H32631   6.439   8.519   1.486  0.5787 -1.9797  1.1485
  242MOL0     H32632   6.371   8.419   1.592 -0.0887  1.7250  1.8023
  242MOL0     H32633   6.262   8.486   1.463 -0.0434  2.7178 -1.7475
  242MOL0     H32634   6.505   9.031   1.376  0.6151  4.2468 -1.4737
  242MOL0     H32635   6.684   9.114   1.212  0.0211  0.8912 -0.0037
  242MOL0     H32636   6.887   9.318   1.295  1.7701  2.3943  0.7820
  242MOL0     H32637   7.033   9.243   1.375 -0.9649 -0.7977  0.3119
  242MOL0     H32638   7.135   9.246   1.146 -1.2393 -1.7779 -1.2618
  242MOL0     H32639   6.988   9.314   1.085 -1.3921 -2.4214  1.1298
  242MOL0     H32640   7.180   9.497   1.152 -2.1872  2.0135 -1.2780
  242MOL0     H32641   7.120   9.479   1.315  0.9665  3.9003 -0.8730
  242MOL0     H32642   6.945   9.542   1.080 -0.9605  1.7637  0.0172
  242MOL0     H32643   6.909   9.563   1.254  2.2921  0.9135  3.7761
  242MOL0     H32644   6.975   9.771   1.109 -0.2181  0.6209  0.5836
  242MOL0     H32645   7.139   9.700   1.109 -0.0706  0.8277 -0.0331
  242MOL0     H32646   6.972   9.818   1.334 -1.4650 -0.4179 -2.7477
  242MOL0     H32647   7.108   9.706   1.381 -0.1228  0.1969  0.5232
  242MOL0     H32648   7.116   9.967   1.231  0.3586 -0.2937  0.2139
  242MOL0     H32649   7.256   9.869   1.243 -0.0351  3.3740 -2.1324
  242MOL0     H32650   7.260   9.878   1.489  0.1041 -1.2613 -0.4897
  242MOL0     H32651   7.106   9.959   1.503  2.2002 -1.8005  2.4309
  242MOL0     H32652   7.003   8.957   1.454 -0.4395 -2.1291  0.8902
  242MOL0     H32653   6.836   8.871   1.608 -4.1979 -1.4610  1.4243
  242MOL0     H32654   6.355   8.944   1.722  1.7662 -1.4410 -1.7806
  242MOL0     H32655   6.163   8.891   1.876  0.6459  0.2169 -0.9732
  242MOL0     H32656   5.290   7.834   3.076 -0.2247  1.6259  0.0614
  242MOL0     H32657   5.198   7.764   3.266  0.4564 -2.4283 -1.7693
  242MOL0     H32658   4.790   7.682   3.526 -0.0992 -0.0226 -0.2914
  242MOL0     H32659   4.722   7.582   3.748 -0.1149  0.0113 -0.4991
  242MOL0     H32660   4.718   7.483   3.961  0.2969  1.9532 -1.6822
  242MOL0     H32661   4.608   7.390   3.862 -0.2556  1.9830  1.0830
  242MOL0     H32662   4.749   7.278   4.119 -0.3504  1.0337  1.1874
  242MOL0     H32663   4.637   7.189   4.007 -1.4619  0.2390  1.8852
  242MOL0     H32664   4.452   7.301   4.067  0.2020 -0.1719 -2.0445
  242MOL0     H32665   4.535   7.458   4.089  3.8392  0.1088  3.8450
  242MOL0     H32666   4.642   7.378   4.298  0.1069  1.4897 -2.1539
  242MOL0     H32667   4.532   7.240   4.291 -0.6428 -0.7748 -2.4004
  242MOL0     H32668   4.278   7.537   4.463 -0.3428  1.1989 -2.1059
  242MOL0     H32669   4.979   7.248   3.668  2.3563  0.8272  0.5550
  242MOL0     H32670   5.037   7.334   3.451 -1.4126 -0.0266 -1.5906
  243MOL0     O32671   2.484   3.606   6.895 -0.0057 -0.8420  0.2253
  243MOL0     C32672   2.373   3.665   6.889  0.7041  0.1208  0.5697
  243MOL0     O32673   2.367   3.793   6.864 -0.9062 -0.0177 -0.1074
  243MOL0     C32674   2.482   3.864   6.873 -0.1745 -0.7193  0.3406
  243MOL0     C32675   2.518   3.917   6.999 -0.4733  0.4852  0.5918
  243MOL0     C32676   2.624   4.007   7.002 -0.5689  0.8619 -0.1486
  243MOL0     C32677   2.703   4.035   6.886 -0.1424  0.0538  0.1269
  243MOL0     O32678   2.828   4.099   6.875 -0.3738  0.6966 -0.1011
  243MOL0     C32679   2.884   4.169   6.985  0.0146 -0.1565 -0.4272
  243MOL0     C32680   3.030   4.190   6.945  0.0226 -0.1342 -0.4476
  243MOL0     C32681   3.103   4.242   7.062  0.3654  1.6520  0.3667
  243MOL0     C32682   3.256   4.243   7.041  0.4623 -0.2192  0.6925
  243MOL0     C32683   3.332   4.319   7.156 -0.1454  0.2640  0.9545
  243MOL0     C32684   3.482   4.285   7.157  0.3986  0.7039  0.3651
  243MOL0     C32685   3.518   4.154   7.223  0.0932 -0.3277 -0.4518
  243MOL0     C32686   3.670   4.139   7.220  0.2306 -0.2493 -0.1327
  243MOL0     N32687   3.711   3.999   7.237  0.4115  0.2783  0.2748
  243MOL0     C32688   3.634   3.887   7.257 -0.4247 -0.6283 -0.4394
  243MOL0     C32689   3.715   3.781   7.300  0.5252 -0.1443  0.1610
  243MOL0     C32690   3.668   3.647   7.369 -0.6983  0.5977  0.0705
  243MOL0     C32691   3.624   3.550   7.263  0.0681 -0.1613 -0.4914
  243MOL0     C32692   3.754   3.501   7.194  0.5869  0.3306 -0.1599
  243MOL0     C32693   3.716   3.390   7.091 -0.3376  0.2443  0.4363
  243MOL0     O32694   3.814   3.403   6.983 -0.6011  0.2845  0.4500
  243MOL0     C32695   3.797   3.329   6.869 -0.7830 -0.6321  0.2070
  243MOL0     C32696   3.702   3.222   6.843 -0.4711  0.6538 -0.6609
  243MOL0     C32697   3.695   3.150   6.723  0.1979  0.0685  0.1644
  243MOL0     C32698   3.595   3.039   6.712  0.3881  0.5700 -0.4356
  243MOL0     C32699   3.799   3.174   6.625 -0.4131  0.4166  0.3145
  243MOL0     C32700   3.812   3.106   6.491 -0.6922 -0.0354  0.1521
  243MOL0     O32701   3.928   3.127   6.422  0.1860  0.3237 -0.2974
  243MOL0     C32702   3.951   3.045   6.315 -0.2110  0.5327 -0.6731
  243MOL0     C32703   3.889   3.047   6.189 -0.4539 -0.3135 -0.1991
  243MOL0     C32704   3.932   2.963   6.087 -0.1330 -0.9486  1.0638
  243MOL0     C32705   4.029   2.869   6.115 -0.0640 -0.4156  0.2733
  243MOL0     O32706   4.077   2.782   6.020 -0.1344 -0.6442 -0.5652
  243MOL0     C32707   4.148   2.857   5.918 -0.3066  0.1588  0.0365
  243MOL0     C32708   4.162   2.785   5.787  0.4211 -0.2150  0.1725
  243MOL0     C32709   4.029   2.773   5.705 -1.3980 -0.5344 -0.6557
  243MOL0     C32710   4.057   2.747   5.557 -0.1909  0.0737  0.1612
  243MOL0     C32711   3.922   2.702   5.495 -0.2030 -0.1508 -0.4004
  243MOL0     C32712   3.805   2.810   5.487 -0.8392 -0.9452  0.0854
  243MOL0     C32713   3.862   2.938   5.439 -0.1022 -0.6268  0.2170
  243MOL0     C32714   3.766   3.028   5.375  0.6595 -0.1090 -0.0161
  243MOL0    Cl32715   3.658   3.079   5.508 -0.2272 -0.2878  0.0087
  243MOL0     C32716   4.080   2.852   6.240 -0.5731 -0.5848  0.5318
  243MOL0     C32717   4.043   2.937   6.337  0.3509 -0.5550  0.4623
  243MOL0     O32718   3.711   3.055   6.439 -0.3396  0.2158  0.2702
  243MOL0     C32719   3.895   3.265   6.659 -1.0061 -0.2121  0.1691
  243MOL0     C32720   3.884   3.353   6.766  0.3934 -0.6475  0.6094
  243MOL0     N32721   3.837   3.833   7.298  0.7493 -0.5692 -0.0950
  243MOL0     N32722   3.834   3.961   7.272  0.3359 -0.1839  0.0666
  243MOL0     C32723   2.651   3.993   6.763  0.9263 -0.7155  0.2789
  243MOL0     C32724   2.544   3.906   6.758  0.7673  0.5987 -0.2990
  243MOL0     C32725   2.244   3.590   6.895 -0.1794 -0.7143  0.2713
  243MOL0     C32726   2.121   3.651   6.898  0.2428 -0.2953 -0.6125
  243MOL0     C32727   2.002   3.579   6.882 -0.5149 -0.4169 -0.1971
  243MOL0     C32728   2.003   3.437   6.853 -1.2555  0.6559 -0.7149
  243MOL0     O32729   1.879   3.378   6.841  0.1698  0.3239  0.3195
  243MOL0     C32730   1.877   3.236   6.817  0.2308  0.0933  0.0979
  243MOL0     C32731   1.764   3.160   6.880  0.3529  0.5098 -0.1523
  243MOL0     C32732   1.794   3.163   7.040 -0.1530 -0.0340  0.7152
  243MOL0     C32733   1.835   3.029   7.094 -0.4735 -0.3505 -0.2369
  243MOL0     C32734   1.859   3.050   7.236  0.7481  0.2368 -0.7640
  243MOL0     C32735   1.870   3.072   7.355 -0.4511 -0.5021  0.5383
  243MOL0     C32736   2.133   3.374   6.841 -0.8304  0.1110  1.2981
  243MOL0     C32737   2.249   3.448   6.858 -0.4036 -1.1769 -0.6467
  243MOL0     H32738   2.472   3.904   7.097 -0.4261  1.5872  0.7758
  243MOL0     H32739   2.655   4.040   7.100  1.8513 -2.1192  0.2240
  243MOL0     H32740   2.839   4.263   7.017  1.5141  0.4876 -0.1488
  243MOL0     H32741   2.872   4.111   7.077 -0.4103 -1.1877 -1.1086
  243MOL0     H32742   3.076   4.092   6.928 -2.0779 -1.1595 -0.5579
  243MOL0     H32743   3.038   4.254   6.857 -1.4963  1.9880  0.8795
  243MOL0     H32744   3.062   4.341   7.083  0.3344  2.1222 -1.6922
  243MOL0     H32745   3.083   4.166   7.138  2.0322 -1.0563 -1.7269
  243MOL0     H32746   3.278   4.136   7.041 -2.6158 -0.9268  0.9660
  243MOL0     H32747   3.291   4.287   6.947 -0.4515 -1.6031 -0.3356
  243MOL0     H32748   3.323   4.428   7.149 -4.0749  0.0035 -0.0026
  243MOL0     H32749   3.294   4.294   7.256 -2.2416 -1.1739 -0.1306
  243MOL0     H32750   3.526   4.282   7.057  4.1915 -2.1559  1.8680
  243MOL0     H32751   3.527   4.363   7.219 -2.7092  3.6877 -0.8373
  243MOL0     H32752   3.476   4.151   7.324 -2.6433  0.3823 -1.4746
  243MOL0     H32753   3.466   4.072   7.172 -2.9501 -0.1355  2.0472
  243MOL0     H32754   3.717   4.206   7.293  0.2430 -1.4398  0.9767
  243MOL0     H32755   3.714   4.183   7.130  3.3731 -3.3811 -0.3665
  243MOL0     H32756   3.528   3.869   7.247  0.0288 -4.3715  0.1516
  243MOL0     H32757   3.745   3.600   7.431 -3.0277 -1.5043  1.5116
  243MOL0     H32758   3.587   3.654   7.441  0.2370 -3.7047  1.8291
  243MOL0     H32759   3.565   3.598   7.183  3.3874  2.3442 -1.6682
  243MOL0     H32760   3.579   3.466   7.315  0.8014  1.7436  3.6047
  243MOL0     H32761   3.820   3.444   7.260 -0.2771 -1.9221 -1.1529
  243MOL0     H32762   3.799   3.586   7.143 -2.4755  1.5534 -1.0223
  243MOL0     H32763   3.616   3.419   7.057  1.0776  3.6942 -1.1614
  243MOL0     H32764   3.708   3.287   7.129 -1.7747 -0.0997 -0.7063
  243MOL0     H32765   3.626   3.202   6.917 -1.7909  2.4109 -1.4585
  243MOL0     H32766   3.534   3.059   6.623  1.6073  0.7093 -1.2554
  243MOL0     H32767   3.651   2.946   6.702 -1.4750 -0.5883 -0.7691
  243MOL0     H32768   3.527   3.026   6.797 -0.9131 -0.2696 -1.5503
  243MOL0     H32769   3.820   3.130   6.185  0.4049  0.5491  1.7484
  243MOL0     H32770   3.891   2.963   5.987  0.2166  2.9974  0.7439
  243MOL0     H32771   4.104   2.956   5.902  0.8848  0.8828  1.1687
  243MOL0     H32772   4.248   2.865   5.959 -0.1538 -2.2797  0.2816
  243MOL0     H32773   4.225   2.843   5.720 -0.7484  0.0714 -0.7124
  243MOL0     H32774   4.202   2.685   5.802 -1.1293 -1.1000 -1.2787
  243MOL0     H32775   3.960   2.858   5.707  0.5943  1.1468 -0.8886
  243MOL0     H32776   3.973   2.693   5.755 -4.3927  0.3390 -2.3316
  243MOL0     H32777   4.098   2.839   5.513  1.8937 -1.2441 -0.8273
  243MOL0     H32778   4.132   2.667   5.555  2.2627  2.2330 -1.5519
  243MOL0     H32779   3.883   2.622   5.559 -0.3709 -0.1898 -0.5479
  243MOL0     H32780   3.928   2.657   5.396  2.2957 -0.0327 -0.3628
  243MOL0     H32781   3.733   2.777   5.411  0.7369 -2.5133 -0.8064
  243MOL0     H32782   3.763   2.810   5.588  1.3983 -2.0635  1.0752
  243MOL0     H32783   3.924   2.913   5.353 -0.1827  1.6816 -0.5714
  243MOL0     H32784   3.915   3.000   5.512  2.1992 -0.4263 -1.5392
  243MOL0     H32785   3.709   2.972   5.300  0.4089 -0.6790  0.5917
  243MOL0     H32786   3.816   3.118   5.338 -0.8044  1.6662  2.1114
  243MOL0     H32787   4.158   2.782   6.266 -0.5149  0.0935  2.3014
  243MOL0     H32788   4.090   2.928   6.435  0.1436 -1.1567  0.5049
  243MOL0     H32789   3.974   3.299   6.592 -3.2914  2.6083 -1.3460
  243MOL0     H32790   3.956   3.434   6.768  2.3600 -2.2241 -1.4228
  243MOL0     H32791   2.691   4.019   6.666  0.9696  0.6886  0.6549
  243MOL0     H32792   2.508   3.871   6.662 -1.2578 -2.2640  1.3264
  243MOL0     H32793   2.102   3.757   6.911 -1.9305 -0.0697 -4.2231
  243MOL0     H32794   1.905   3.626   6.890 -0.6505 -0.9573  1.9615
  243MOL0     H32795   1.870   3.216   6.710  1.4333 -3.2321  0.5025
  243MOL0     H32796   1.965   3.191   6.864  0.3632 -0.4936 -0.6933
  243MOL0     H32797   1.759   3.057   6.843  0.4525  1.2852 -2.4718
  243MOL0     H32798   1.663   3.198   6.862  0.3055 -0.4746 -2.3093
  243MOL0     H32799   1.704   3.195   7.093 -0.7792 -0.5008 -0.0478
  243MOL0     H32800   1.880   3.228   7.059  1.2474 -0.9204 -1.9952
  243MOL0     H32801   1.925   2.996   7.041 -1.8993  0.1034 -3.0842
  243MOL0     H32802   1.758   2.952   7.085  0.1271 -1.2129  1.5123
  243MOL0     H32803   1.896   3.091   7.457 -3.3465  0.5620  1.1605
  243MOL0     H32804   2.156   3.272   6.813 -3.9028  0.2741 -2.8576
  243MOL0     H32805   2.349   3.408   6.843  0.1526 -0.1549  0.1876
  244MOL0     O32806   6.827  10.273   8.271 -0.2064 -0.4262 -0.3385
  244MOL0     C32807   6.884  10.298   8.163 -0.5900 -0.0262  0.5986
  244MOL0     O32808   6.973  10.211   8.104  0.6088  0.4040 -0.1381
  244MOL0     C32809   6.983  10.077   8.152 -0.2664 -0.0633  0.1826
  244MOL0     C32810   6.989   9.984   8.047  0.1579  0.4817 -0.0706
  244MOL0     C32811   6.952   9.854   8.077 -0.5817  0.4453 -0.5312
  244MOL0     C32812   6.937   9.809   8.211 -0.2956 -0.4387  0.0046
  244MOL0     O32813   6.883   9.682   8.237 -1.0119 -0.1947  0.6280
  244MOL0     C32814   6.945   9.605   8.340  0.1552  0.8463 -0.4348
  244MOL0     C32815   6.887   9.458   8.331  0.2100 -0.5764  0.4959
  244MOL0     C32816   6.742   9.458   8.336 -0.0101  0.8672  1.0472
  244MOL0     C32817   6.673   9.489   8.472 -0.3543  0.2526 -0.3972
  244MOL0     C32818   6.524   9.470   8.459 -0.4632  0.6589 -0.5261
  244MOL0     C32819   6.448   9.503   8.587  0.5105 -1.2114  0.3337
  244MOL0     C32820   6.297   9.538   8.557  0.0201 -0.0167  0.1381
  244MOL0     C32821   6.301   9.669   8.481 -0.1964 -0.3349  0.9062
  244MOL0     N32822   6.169   9.713   8.434 -0.0312  0.6147  0.0296
  244MOL0     C32823   6.105   9.638   8.333  0.4333 -0.1598 -0.5763
  244MOL0     C32824   6.013   9.733   8.285 -0.2384  0.2297 -0.0057
  244MOL0     C32825   5.923   9.732   8.173 -0.5349  0.0377  0.9702
  244MOL0     C32826   5.870   9.863   8.113  0.3732 -0.3362  0.2411
  244MOL0     C32827   5.949   9.990   8.084  0.4967 -0.4226 -0.0912
  244MOL0     C32828   5.874  10.104   8.013 -0.6149 -0.0695 -0.1690
  244MOL0     O32829   5.874  10.113   7.873  0.8955  0.3427  0.8409
  244MOL0     C32830   5.822  10.007   7.800  0.7341  0.1868  0.2453
  244MOL0     C32831   5.888   9.942   7.693  0.5172  0.7811 -0.7545
  244MOL0     C32832   5.837   9.840   7.617 -0.4364  0.3000 -0.2416
  244MOL0     C32833   5.919   9.806   7.498  0.5393 -0.3304  0.2224
  244MOL0     C32834   5.715   9.782   7.663  0.0758  0.2982  0.1444
  244MOL0     C32835   5.654   9.665   7.597 -0.1666  0.3182  0.0141
  244MOL0     O32836   5.576   9.587   7.678 -0.1171  0.3352  0.0842
  244MOL0     C32837   5.551   9.460   7.629 -0.5633 -0.5429  0.6258
  244MOL0     C32838   5.427   9.406   7.624 -0.4903 -0.1144 -0.8236
  244MOL0     C32839   5.408   9.279   7.567  0.8985 -0.0782  0.4412
  244MOL0     C32840   5.513   9.205   7.527  0.2346  0.4113 -0.6739
  244MOL0     O32841   5.485   9.089   7.454  0.2611 -0.3154 -0.0004
  244MOL0     C32842   5.589   9.004   7.406  0.5355  0.0871 -0.5653
  244MOL0     C32843   5.531   8.864   7.397 -0.6886  0.5906 -0.1051
  244MOL0     C32844   5.628   8.757   7.340 -0.0225 -0.2751  0.6335
  244MOL0     C32845   5.547   8.633   7.300  0.0464 -0.5945  0.4186
  244MOL0     C32846   5.626   8.519   7.233 -0.2445 -0.4310  0.5220
  244MOL0     C32847   5.555   8.381   7.227  0.9250 -0.1982  0.2540
  244MOL0     C32848   5.647   8.262   7.171  0.3529  0.5716  0.5485
  244MOL0     C32849   5.579   8.127   7.138  0.7752 -0.3540  0.2214
  244MOL0    Cl32850   5.533   8.048   7.285 -0.0449 -0.1759 -0.0083
  244MOL0     C32851   5.636   9.257   7.541  0.6143 -0.4175  0.0900
  244MOL0     C32852   5.661   9.390   7.584  0.7578  1.0443 -0.3011
  244MOL0     O32853   5.673   9.646   7.472 -0.1061  0.1366  0.5216
  244MOL0     C32854   5.652   9.832   7.774  0.1651  0.1060  0.3789
  244MOL0     C32855   5.696   9.943   7.839 -0.1177 -0.1038  0.0231
  244MOL0     N32856   6.024   9.854   8.358 -0.8762 -0.2929 -0.0107
  244MOL0     N32857   6.111   9.838   8.452 -0.3915  0.0298  1.3446
  244MOL0     C32858   6.963   9.902   8.313 -1.0288 -0.2245 -0.0519
  244MOL0     C32859   6.994  10.039   8.285  0.1080 -1.0224  0.7032
  244MOL0     C32860   6.865  10.423   8.093 -0.0200 -0.5203 -0.2486
  244MOL0     C32861   6.965  10.496   8.025  0.0368  0.7594 -0.7638
  244MOL0     C32862   6.940  10.610   7.953 -0.2573 -0.3250 -0.1565
  244MOL0     C32863   6.814  10.668   7.947  0.0423 -0.2306  0.3674
  244MOL0     O32864   6.796  10.790   7.885  0.0973 -0.4766 -0.3554
  244MOL0     C32865   6.673  10.848   7.879 -0.1825 -0.0810  0.1055
  244MOL0     C32866   6.583  10.792   7.770 -0.0390 -0.0825  0.7802
  244MOL0     C32867   6.446  10.867   7.783 -1.4357  0.1135 -0.1637
  244MOL0     C32868   6.338  10.800   7.696  0.0466  0.0126 -0.9614
  244MOL0     C32869   6.366  10.808   7.551 -0.0001  0.1889  1.0118
  244MOL0     C32870   6.387  10.818   7.432 -0.5348  0.4144  0.6261
  244MOL0     C32871   6.710  10.600   8.020 -0.3930 -0.6403  0.2821
  244MOL0     C32872   6.737  10.480   8.086  0.0283  0.1401  0.5467
  244MOL0     H32873   6.984  10.032   7.950 -0.9636 -0.8900 -0.7158
  244MOL0     H32874   6.932   9.781   7.999  1.8559 -0.7857 -0.0895
  244MOL0     H32875   7.053   9.600   8.324 -0.2885 -2.4433 -3.3401
  244MOL0     H32876   6.928   9.643   8.442 -1.7364  0.4192 -0.5705
  244MOL0     H32877   6.916   9.417   8.234  1.1703  0.9306  0.1014
  244MOL0     H32878   6.932   9.404   8.415  1.8948 -0.0701 -0.0340
  244MOL0     H32879   6.701   9.536   8.271 -2.0846  0.1530  1.4141
  244MOL0     H32880   6.704   9.360   8.305  2.9510 -1.1758  3.3516
  244MOL0     H32881   6.717   9.431   8.554 -0.4316  0.4072 -0.2438
  244MOL0     H32882   6.701   9.592   8.496 -1.6637  0.8355 -1.2791
  244MOL0     H32883   6.506   9.542   8.378  1.7435  3.9106  1.6094
  244MOL0     H32884   6.500   9.369   8.427 -2.0504  1.1766 -1.0682
  244MOL0     H32885   6.448   9.423   8.662  2.6173 -0.5835  1.0521
  244MOL0     H32886   6.494   9.586   8.641 -1.2974  0.8512 -1.1159
  244MOL0     H32887   6.252   9.461   8.493  1.8587 -1.7189  0.7732
  244MOL0     H32888   6.242   9.545   8.651 -0.7150  2.0742 -0.4024
  244MOL0     H32889   6.372   9.676   8.397  0.0117 -1.5451  0.9663
  244MOL0     H32890   6.338   9.739   8.557 -2.6678  0.1541  1.7244
  244MOL0     H32891   6.116   9.537   8.295 -0.0573 -1.0013  1.4049
  244MOL0     H32892   5.977   9.690   8.087 -2.0103  2.9856 -1.6063
  244MOL0     H32893   5.838   9.665   8.186 -0.3575 -1.6598 -4.1346
  244MOL0     H32894   5.788   9.885   8.182 -1.4423 -3.1642 -0.8625
  244MOL0     H32895   5.815   9.835   8.023 -1.0341 -2.0076  1.5336
  244MOL0     H32896   6.035   9.961   8.023  0.7694  4.3053 -2.4090
  244MOL0     H32897   5.984  10.030   8.180 -0.8373 -0.9121  0.6217
  244MOL0     H32898   5.927  10.194   8.047 -0.4093 -0.1273 -0.3383
  244MOL0     H32899   5.773  10.113   8.053 -0.0253  1.0082  1.1845
  244MOL0     H32900   5.986   9.985   7.673  2.1926 -0.9707  2.7511
  244MOL0     H32901   5.943   9.699   7.498 -0.6265 -0.6093  0.3137
  244MOL0     H32902   5.851   9.821   7.413 -0.6151  2.8631  1.5715
  244MOL0     H32903   6.010   9.865   7.486 -0.1102  1.1729  2.2418
  244MOL0     H32904   5.341   9.465   7.656 -1.5178 -0.4158 -2.8549
  244MOL0     H32905   5.314   9.233   7.537 -0.1064  2.3993 -0.5334
  244MOL0     H32906   5.613   9.031   7.302 -1.9997  2.8644 -0.5629
  244MOL0     H32907   5.673   9.005   7.476  0.0142 -1.0440  0.1044
  244MOL0     H32908   5.488   8.828   7.491 -2.6170 -0.2528 -1.2516
  244MOL0     H32909   5.443   8.871   7.332 -2.6448 -6.2043  0.9700
  244MOL0     H32910   5.705   8.742   7.416 -0.6682 -1.7882  1.0305
  244MOL0     H32911   5.669   8.795   7.245  2.2735 -3.1074  0.3165
  244MOL0     H32912   5.488   8.594   7.384 -1.5825  1.8934  0.5535
  244MOL0     H32913   5.477   8.663   7.222  1.3178  2.9169  0.4749
  244MOL0     H32914   5.727   8.519   7.275 -0.3567  0.9566  0.8403
  244MOL0     H32915   5.644   8.542   7.127  1.1625 -3.2458  0.0499
  244MOL0     H32916   5.505   8.350   7.319 -1.1831  1.1640 -0.3650
  244MOL0     H32917   5.479   8.401   7.151 -0.2260  1.9542  1.8922
  244MOL0     H32918   5.732   8.251   7.240 -0.2603  4.4317  2.1727
  244MOL0     H32919   5.692   8.296   7.078  0.0438  1.7406  0.8139
  244MOL0     H32920   5.636   8.058   7.076 -1.2249 -0.7620 -1.2768
  244MOL0     H32921   5.488   8.160   7.087 -0.0931  0.0686  1.9504
  244MOL0     H32922   5.723   9.202   7.506 -0.4542 -3.1832  1.5093
  244MOL0     H32923   5.760   9.431   7.598  0.5054  1.8344 -0.7487
  244MOL0     H32924   5.561   9.787   7.812  0.5796  0.3524  1.7336
  244MOL0     H32925   5.634   9.981   7.919 -1.3752  0.0861 -0.9925
  244MOL0     H32926   6.950   9.877   8.418 -1.5881 -1.5897 -0.4338
  244MOL0     H32927   6.989  10.116   8.361 -3.9539 -0.9266  0.5646
  244MOL0     H32928   7.062  10.449   8.031 -0.7073 -0.8519 -0.9553
  244MOL0     H32929   7.021  10.663   7.905  0.6878 -1.1777  0.4589
  244MOL0     H32930   6.627  10.853   7.978 -1.9096  0.0959 -0.6694
  244MOL0     H32931   6.700  10.951   7.852  0.8918 -0.4917 -0.4018
  244MOL0     H32932   6.585  10.684   7.783 -0.0512 -0.0710  0.8787
  244MOL0     H32933   6.633  10.797   7.673  0.5859 -1.9370  0.9600
  244MOL0     H32934   6.458  10.973   7.756 -1.6319  0.1128 -0.2523
  244MOL0     H32935   6.415  10.861   7.887  1.0066 -2.0879  0.5554
  244MOL0     H32936   6.248  10.856   7.721  1.0407  0.8357  0.9992
  244MOL0     H32937   6.317  10.699   7.733 -0.2030  0.6258  0.6234
  244MOL0     H32938   6.400  10.835   7.327  1.2932  1.1742  0.9425
  244MOL0     H32939   6.610  10.641   8.025  0.7557  2.2183  1.8972
  244MOL0     H32940   6.651  10.430   8.130 -1.5375  2.3357  0.1612
  245MOL0     O32941   2.716   7.289   7.432  0.3070 -0.1863 -0.3955
  245MOL0     C32942   2.664   7.388   7.475  0.2175 -0.6467 -0.3183
  245MOL0     O32943   2.709   7.459   7.583  0.6463  0.5192 -0.8562
  245MOL0     C32944   2.801   7.389   7.660 -0.8680 -0.7461  0.2699
  245MOL0     C32945   2.756   7.305   7.774 -0.3779 -0.2288  0.2269
  245MOL0     C32946   2.850   7.234   7.849  0.0583  1.4707  0.6329
  245MOL0     C32947   2.979   7.236   7.816  0.0836  0.4040 -0.5040
  245MOL0     O32948   3.066   7.173   7.901  0.6033 -0.7851  0.0171
  245MOL0     C32949   3.173   7.254   7.963  1.2510 -0.5576  0.3864
  245MOL0     C32950   3.259   7.164   8.047  0.4855  0.0472  0.4433
  245MOL0     C32951   3.337   7.077   7.947 -0.2664 -0.2067 -0.1442
  245MOL0     C32952   3.437   7.154   7.848  0.7238  0.6984  0.3500
  245MOL0     C32953   3.462   7.045   7.724  1.2815  0.3825  0.0818
  245MOL0     C32954   3.577   7.071   7.637  0.3986  0.7246  0.6952
  245MOL0     C32955   3.557   7.190   7.546 -0.3716  1.0505 -0.3826
  245MOL0     C32956   3.670   7.218   7.451  0.2417 -0.0929  0.9330
  245MOL0     N32957   3.805   7.201   7.500  0.3835 -0.2450 -0.2607
  245MOL0     C32958   3.870   7.265   7.610  0.0667  0.3983  0.4779
  245MOL0     C32959   3.970   7.183   7.656 -1.2739 -0.1083  0.2071
  245MOL0     C32960   4.081   7.203   7.766 -0.0943 -0.5819  0.2459
  245MOL0     C32961   4.188   7.310   7.739 -0.0720  0.1502 -0.1537
  245MOL0     C32962   4.294   7.229   7.668 -0.5968 -0.4583 -0.6700
  245MOL0     C32963   4.403   7.327   7.619  0.7550  1.0268 -0.1850
  245MOL0     O32964   4.481   7.256   7.523  0.1213  0.2641 -0.2544
  245MOL0     C32965   4.566   7.329   7.455 -0.5259  0.2374 -0.6949
  245MOL0     C32966   4.520   7.384   7.331  0.1520  0.0040 -0.1548
  245MOL0     C32967   4.593   7.469   7.251  0.6594 -0.4558  0.0182
  245MOL0     C32968   4.554   7.502   7.114 -0.2357 -0.5423 -0.1134
  245MOL0     C32969   4.720   7.518   7.294 -0.1038  0.4043 -0.2263
  245MOL0     C32970   4.809   7.620   7.227 -0.2743 -1.4841 -0.5004
  245MOL0     O32971   4.941   7.608   7.248 -0.0180 -0.5356  0.2586
  245MOL0     C32972   5.030   7.691   7.189  0.2170  0.0121  0.6921
  245MOL0     C32973   5.161   7.692   7.240  1.5025  1.0009  0.1654
  245MOL0     C32974   5.264   7.750   7.183  0.1842  0.1340  0.8158
  245MOL0     C32975   5.254   7.814   7.061  0.7359  0.7373  0.3180
  245MOL0     O32976   5.375   7.867   7.020 -0.2809 -0.0667 -0.0397
  245MOL0     C32977   5.377   7.882   6.881  0.7793 -1.1724 -0.6945
  245MOL0     C32978   5.513   7.929   6.817  0.7068  0.0693  0.2055
  245MOL0     C32979   5.510   7.943   6.660 -0.7132 -0.4315  0.6751
  245MOL0     C32980   5.662   7.971   6.615  0.3197 -0.2682  0.0009
  245MOL0     C32981   5.679   7.966   6.459 -0.0014  1.1902  0.1237
  245MOL0     C32982   5.732   8.088   6.394 -0.0208  0.1407  1.1008
  245MOL0     C32983   5.695   8.096   6.241 -0.0816  0.3468  0.4450
  245MOL0     C32984   5.779   8.200   6.172 -0.6708 -0.5334 -0.1264
  245MOL0    Cl32985   5.725   8.219   6.007 -0.1753  0.2710  0.3590
  245MOL0     C32986   5.124   7.821   7.001 -0.1742 -0.4072 -0.5268
  245MOL0     C32987   5.017   7.770   7.071  0.2761 -0.1227  0.4620
  245MOL0     O32988   4.755   7.718   7.178  0.2428 -0.2028 -0.2041
  245MOL0     C32989   4.762   7.473   7.423 -0.1018 -0.0731 -0.0798
  245MOL0     C32990   4.692   7.373   7.497  0.4995 -0.2154  0.2515
  245MOL0     N32991   3.974   7.079   7.567  0.0408  0.0413 -0.3481
  245MOL0     N32992   3.880   7.091   7.480  0.3495 -0.1744  0.2680
  245MOL0     C32993   3.030   7.316   7.704 -0.9560 -0.3267 -0.6625
  245MOL0     C32994   2.934   7.391   7.630  0.8345 -1.0576 -0.6235
  245MOL0     C32995   2.563   7.438   7.385  0.8351  0.3498 -0.1905
  245MOL0     C32996   2.530   7.385   7.263  0.3084 -0.8698 -1.0737
  245MOL0     C32997   2.420   7.438   7.187  1.1429 -0.3627  0.4568
  245MOL0     C32998   2.336   7.540   7.242 -0.5629 -0.1081 -0.4476
  245MOL0     O32999   2.224   7.593   7.175  0.2218 -0.4075  0.1136
  245MOL0     C33000   2.099   7.577   7.241  0.1232 -0.0273  0.4163
  245MOL0     C33001   2.037   7.443   7.193 -0.8692 -0.5056  0.1799
  245MOL0     C33002   2.005   7.422   7.045  0.1504 -0.2229 -1.6552
  245MOL0     C33003   1.895   7.516   6.985  0.4036 -0.3129  1.2727
  245MOL0     C33004   1.751   7.491   7.027  0.4664  1.2371  0.3231
  245MOL0     C33005   1.635   7.492   7.050 -1.0505 -0.7309 -0.8844
  245MOL0     C33006   2.381   7.595   7.366 -0.1418 -0.0458 -0.0010
  245MOL0     C33007   2.481   7.537   7.434 -1.0027  0.4950  0.2838
  245MOL0     H33008   2.651   7.296   7.800 -0.4259 -1.0998 -0.2466
  245MOL0     H33009   2.812   7.172   7.929 -1.6909 -0.6396 -1.6473
  245MOL0     H33010   3.223   7.306   7.881 -0.2516  0.0568 -0.1770
  245MOL0     H33011   3.130   7.327   8.031  0.9634 -1.9762  1.7948
  245MOL0     H33012   3.321   7.225   8.114  0.2201  0.2613  0.4940
  245MOL0     H33013   3.188   7.113   8.113  0.9250  2.4924  3.0175
  245MOL0     H33014   3.396   7.016   8.016  0.0487  3.1411  2.8373
  245MOL0     H33015   3.258   7.019   7.899 -0.5636 -0.7383  0.9633
  245MOL0     H33016   3.409   7.254   7.815 -4.6709  0.2616  2.6177
  245MOL0     H33017   3.530   7.154   7.906  1.3612  0.2634 -0.6391
  245MOL0     H33018   3.477   6.952   7.779  1.8481  0.8266  0.6942
  245MOL0     H33019   3.367   7.061   7.672  2.0890  2.4218 -0.8728
  245MOL0     H33020   3.673   7.082   7.688  1.4292 -0.0881 -0.9745
  245MOL0     H33021   3.589   6.982   7.574  1.6853  2.2079 -1.2564
  245MOL0     H33022   3.468   7.167   7.486  1.0848 -1.8044 -1.6326
  245MOL0     H33023   3.543   7.279   7.609  0.5596  0.9779 -0.0570
  245MOL0     H33024   3.651   7.319   7.413 -1.9704 -1.1855 -1.1279
  245MOL0     H33025   3.668   7.175   7.350  0.4981  4.6946 -1.3826
  245MOL0     H33026   3.845   7.355   7.667  0.1869  0.7523 -0.0221
  245MOL0     H33027   4.028   7.230   7.858 -0.5365  0.1676 -0.2239
  245MOL0     H33028   4.136   7.108   7.769  1.2736  0.1402 -0.6521
  245MOL0     H33029   4.233   7.359   7.826  0.8765 -0.5368 -0.2437
  245MOL0     H33030   4.146   7.389   7.676 -0.0785 -1.9074 -2.9118
  245MOL0     H33031   4.259   7.171   7.581  0.7803  1.2889 -2.4905
  245MOL0     H33032   4.348   7.154   7.727  0.3709  1.3624  0.8644
  245MOL0     H33033   4.454   7.361   7.710  2.8794  0.5993 -1.1719
  245MOL0     H33034   4.354   7.415   7.576 -0.1277  1.8704  2.3421
  245MOL0     H33035   4.427   7.340   7.298 -2.6867  3.0942  2.8489
  245MOL0     H33036   4.474   7.439   7.074  1.1219 -0.1559 -3.7694
  245MOL0     H33037   4.524   7.607   7.120 -1.7781 -1.0326  2.0380
  245MOL0     H33038   4.628   7.493   7.034  1.3475 -0.7012  1.2837
  245MOL0     H33039   5.165   7.642   7.336 -0.5559 -2.6639 -1.4473
  245MOL0     H33040   5.359   7.738   7.234 -0.0944 -4.5114  0.6066
  245MOL0     H33041   5.354   7.782   6.844  2.5916 -1.4409 -1.2174
  245MOL0     H33042   5.308   7.960   6.847 -1.1294 -2.5197 -0.0536
  245MOL0     H33043   5.531   8.023   6.869  0.6677 -0.4499  1.1748
  245MOL0     H33044   5.595   7.864   6.850  3.0335  2.9430  0.4414
  245MOL0     H33045   5.458   8.028   6.615  0.9313  0.1068 -0.2641
  245MOL0     H33046   5.476   7.854   6.608 -0.1936  0.3490 -1.0745
  245MOL0     H33047   5.680   8.074   6.647 -0.9754  1.4284 -4.0662
  245MOL0     H33048   5.739   7.908   6.660  1.5692 -1.6976 -3.7210
  245MOL0     H33049   5.581   7.934   6.423 -0.5111  2.0545  0.7136
  245MOL0     H33050   5.734   7.874   6.438 -1.7036 -0.5886  2.8807
  245MOL0     H33051   5.688   8.168   6.455 -1.3988  0.5969 -0.3950
  245MOL0     H33052   5.840   8.081   6.401 -0.2076 -1.8467  3.0668
  245MOL0     H33053   5.591   8.129   6.244 -1.1658 -2.5690 -1.1130
  245MOL0     H33054   5.717   7.998   6.199  1.7752  0.5512  0.8436
  245MOL0     H33055   5.885   8.173   6.164 -0.8216 -0.9024 -0.9272
  245MOL0     H33056   5.772   8.299   6.218  1.5443 -0.3321 -0.1490
  245MOL0     H33057   5.123   7.880   6.910 -0.9735  1.6757  0.7546
  245MOL0     H33058   4.919   7.800   7.034 -0.5866 -2.5494  0.6152
  245MOL0     H33059   4.852   7.521   7.459  0.6752 -1.0517 -0.6754
  245MOL0     H33060   4.728   7.353   7.597 -0.5878 -1.0814  0.4978
  245MOL0     H33061   3.138   7.313   7.691 -0.7341  1.4649  0.4823
  245MOL0     H33062   2.972   7.451   7.547 -1.1856  1.7988  0.3598
  245MOL0     H33063   2.593   7.308   7.219  1.8188 -0.6091  0.5204
  245MOL0     H33064   2.410   7.401   7.086 -1.4805 -0.0401  0.5405
  245MOL0     H33065   2.123   7.573   7.348 -1.4832  0.4832  0.8204
  245MOL0     H33066   2.041   7.665   7.216 -0.4621 -0.8475 -1.3015
  245MOL0     H33067   1.947   7.416   7.250 -1.8545 -1.0567 -1.5639
  245MOL0     H33068   2.112   7.368   7.218  4.3207  3.6999 -1.1690
  245MOL0     H33069   1.973   7.320   7.023 -0.9382 -0.4903  0.8761
  245MOL0     H33070   2.095   7.439   6.985  1.4837  2.1803  0.8081
  245MOL0     H33071   1.896   7.487   6.880  0.2617 -1.6500  1.6247
  245MOL0     H33072   1.925   7.621   6.997  2.2486 -0.3506 -1.9373
  245MOL0     H33073   1.529   7.507   7.053 -0.9021  0.7666  2.2373
  245MOL0     H33074   2.326   7.677   7.412 -0.4881 -0.7592  0.8881
  245MOL0     H33075   2.499   7.580   7.532  0.2449 -0.5812  0.5525
  246MOL0     O33076   7.730   5.912   9.815  0.1892 -0.2086  0.2902
  246MOL0     C33077   7.812   5.837   9.863  1.1730 -1.2761 -0.4104
  246MOL0     O33078   7.795   5.762   9.978  0.8428 -0.8411 -0.6351
  246MOL0     C33079   7.662   5.765  10.039  0.1045  0.1256  0.9491
  246MOL0     C33080   7.642   5.787  10.172 -0.0706  0.0175 -0.5159
  246MOL0     C33081   7.514   5.768  10.230  0.0642  0.9178  0.4168
  246MOL0     C33082   7.403   5.748  10.152  0.6910 -0.1911  0.0505
  246MOL0     O33083   7.286   5.724  10.213  0.9649 -0.8651 -0.2692
  246MOL0     C33084   7.275   5.599  10.285  0.5375 -0.2162  0.4745
  246MOL0     C33085   7.133   5.562  10.283 -0.0551  0.3866 -0.9916
  246MOL0     C33086   7.052   5.651  10.384  0.1417 -0.2156  0.4283
  246MOL0     C33087   6.899   5.614  10.405  0.2303 -0.6695  0.1792
  246MOL0     C33088   6.834   5.706  10.508  0.0738 -0.7641 -0.5102
  246MOL0     C33089   6.686   5.684  10.511  0.5007 -0.0892  0.7602
  246MOL0     C33090   6.599   5.770  10.595 -0.2018  0.2363 -0.5649
  246MOL0     C33091   6.614   5.919  10.552 -0.4126 -0.2615 -0.0011
  246MOL0     N33092   6.520   6.020  10.618 -0.6264  0.2269 -0.7865
  246MOL0     C33093   6.485   6.014  10.755 -0.8718 -0.6564 -0.4384
  246MOL0     C33094   6.393   6.112  10.767  0.1349 -0.1953 -0.3478
  246MOL0     C33095   6.326   6.148  10.890 -0.1763 -0.4833 -0.2443
  246MOL0     C33096   6.178   6.173  10.870 -1.4338 -0.4154 -1.4728
  246MOL0     C33097   6.092   6.139  10.994 -0.4310  0.5397  0.2036
  246MOL0     C33098   6.120   6.212  11.135 -0.1248 -0.2087 -0.9848
  246MOL0     O33099   6.002   6.208  11.227  0.8289 -0.0594  0.0252
  246MOL0     C33100   6.039   6.209  11.362  0.5430 -0.4622 -0.3251
  246MOL0     C33101   5.962   6.135  11.444  0.2759  0.8762 -0.1102
  246MOL0     C33102   5.984   6.115  11.580  0.2881 -0.5160  0.5323
  246MOL0     C33103   5.900   6.005  11.637  0.0189  0.8140 -0.3517
  246MOL0     C33104   6.100   6.174  11.640  0.3298  0.1924 -0.9878
  246MOL0     C33105   6.132   6.158  11.782 -1.0381 -0.4291 -0.7836
  246MOL0     O33106   6.251   6.210  11.829 -0.0764  0.5537 -0.1756
  246MOL0     C33107   6.284   6.207  11.961 -0.1169 -0.5623 -0.7224
  246MOL0     C33108   6.257   6.328  12.032  0.0305 -0.5147  0.2734
  246MOL0     C33109   6.296   6.325  12.172 -0.0366  0.2584 -0.1182
  246MOL0     C33110   6.344   6.211  12.235 -0.4248  0.1322 -0.5567
  246MOL0     O33111   6.356   6.213  12.372 -0.0756 -0.2496 -0.4531
  246MOL0     C33112   6.439   6.113  12.446 -0.1470 -0.1123  0.9618
  246MOL0     C33113   6.334   6.001  12.505 -0.4639 -0.2254 -0.4054
  246MOL0     C33114   6.273   6.053  12.643  0.5823 -0.2432 -0.3184
  246MOL0     C33115   6.244   5.920  12.726 -0.2637 -0.1622 -0.5760
  246MOL0     C33116   6.227   5.943  12.875  0.1173 -0.6937 -0.8689
  246MOL0     C33117   6.113   5.864  12.943 -0.1385  0.0412 -0.8394
  246MOL0     C33118   6.144   5.709  12.926 -0.2363  0.0820  0.2125
  246MOL0     C33119   6.283   5.657  12.937 -0.8084 -0.0249  0.1004
  246MOL0    Cl33120   6.362   5.709  13.091 -0.4739 -0.1316  0.3699
  246MOL0     C33121   6.359   6.096  12.157  0.2525  1.0742  1.0725
  246MOL0     C33122   6.321   6.094  12.017 -0.9447  0.3646  0.2176
  246MOL0     O33123   6.061   6.093  11.855  0.6174  0.0747 -0.1870
  246MOL0     C33124   6.184   6.255  11.558  0.5049  0.1403  0.0260
  246MOL0     C33125   6.149   6.280  11.422 -0.1833  0.4606  0.2991
  246MOL0     N33126   6.373   6.170  10.642  1.1352  0.4617  0.9349
  246MOL0     N33127   6.449   6.111  10.555  0.0062 -0.5633  1.3614
  246MOL0     C33128   7.420   5.752  10.015 -0.2776  0.4739  0.3250
  246MOL0     C33129   7.547   5.745   9.957 -0.3830  0.7031 -0.3893
  246MOL0     C33130   7.942   5.835   9.800  0.6980 -0.0707 -0.6860
  246MOL0     C33131   8.056   5.794   9.874 -1.0865  0.4358  0.1186
  246MOL0     C33132   8.181   5.796   9.818 -0.6051 -0.3220  0.7190
  246MOL0     C33133   8.205   5.833   9.690  0.2443 -0.1468 -0.4101
  246MOL0     O33134   8.333   5.837   9.645  0.5176  0.4601  0.1388
  246MOL0     C33135   8.363   5.841   9.509 -0.2748  0.0715 -0.3115
  246MOL0     C33136   8.505   5.883   9.484 -0.0977  0.4847 -0.0117
  246MOL0     C33137   8.603   5.767   9.488 -0.1767  0.3698  0.2450
  246MOL0     C33138   8.751   5.796   9.468  0.5939 -0.9037  0.3700
  246MOL0     C33139   8.779   5.876   9.348  0.4888  0.3481 -0.2840
  246MOL0     C33140   8.795   5.927   9.234  0.5454  0.1980  0.5519
  246MOL0     C33141   8.088   5.861   9.620 -0.8684  0.6274  0.1640
  246MOL0     C33142   7.958   5.865   9.668 -0.1016  0.0448  0.1818
  246MOL0     H33143   7.731   5.788  10.235 -0.6430  0.2578  0.3094
  246MOL0     H33144   7.507   5.778  10.338 -1.9749  1.3929  0.2824
  246MOL0     H33145   7.329   5.512  10.246 -2.0963 -2.2439  1.0319
  246MOL0     H33146   7.305   5.605  10.390 -0.8462  1.5507  0.8133
  246MOL0     H33147   7.103   5.569  10.178  4.3808  2.1549 -2.3605
  246MOL0     H33148   7.103   5.461  10.313  0.2626  0.6627  0.3165
  246MOL0     H33149   7.102   5.639  10.480 -2.2632  2.9473  2.2609
  246MOL0     H33150   7.052   5.758  10.362 -0.3533 -0.0881  1.0122
  246MOL0     H33151   6.851   5.631  10.308  1.8576  3.1703 -0.1440
  246MOL0     H33152   6.889   5.509  10.433  0.2180 -0.2245  2.0162
  246MOL0     H33153   6.881   5.698  10.606  1.3156  2.5010 -0.6880
  246MOL0     H33154   6.852   5.807  10.468  0.7874  0.0209  1.6675
  246MOL0     H33155   6.650   5.698  10.408  3.3424  3.4505  0.0477
  246MOL0     H33156   6.665   5.580  10.539  3.2306 -0.8244  0.3654
  246MOL0     H33157   6.495   5.737  10.597  0.3987 -2.0249 -2.2883
  246MOL0     H33158   6.636   5.771  10.697  0.1333  1.9123 -0.6678
  246MOL0     H33159   6.605   5.916  10.443  1.5847 -1.9189 -0.1713
  246MOL0     H33160   6.717   5.949  10.572  0.6300 -2.5557 -1.5000
  246MOL0     H33161   6.533   5.962  10.837  3.8045  3.4566 -0.0329
  246MOL0     H33162   6.342   6.073  10.968  2.4022 -2.0145 -2.0686
  246MOL0     H33163   6.359   6.246  10.924  0.8825 -1.1606  0.7466
  246MOL0     H33164   6.151   6.117  10.780  0.4650 -1.2028 -1.6083
  246MOL0     H33165   6.163   6.281  10.858  4.7077  0.8263 -1.2789
  246MOL0     H33166   6.105   6.034  11.024 -0.7718  0.9651  2.0013
  246MOL0     H33167   5.988   6.138  10.963 -0.3628 -3.0289 -0.3034
  246MOL0     H33168   6.140   6.319  11.123 -0.4832 -0.1071 -0.7147
  246MOL0     H33169   6.209   6.180  11.191 -2.1583 -0.6842  2.2865
  246MOL0     H33170   5.881   6.085  11.391 -2.5774  2.5647  2.3506
  246MOL0     H33171   5.842   6.045  11.720 -0.3876 -0.5841  0.0681
  246MOL0     H33172   5.827   5.974  11.562 -1.8818  0.6344  1.4934
  246MOL0     H33173   5.955   5.919  11.677 -0.7647  0.4659 -0.0019
  246MOL0     H33174   6.224   6.419  11.984 -2.3780 -0.9685  0.9406
  246MOL0     H33175   6.265   6.412  12.229 -0.3136 -0.0038  0.1325
  246MOL0     H33176   6.515   6.065  12.384 -1.7097  1.4706 -2.4822
  246MOL0     H33177   6.483   6.161  12.533 -0.8842  0.5649  0.9804
  246MOL0     H33178   6.256   5.982  12.431 -1.5246  0.9877  0.3653
  246MOL0     H33179   6.396   5.911  12.515 -2.1643 -1.4509 -0.4581
  246MOL0     H33180   6.187   6.120  12.637  1.1408  1.0441  3.2712
  246MOL0     H33181   6.348   6.113  12.694 -1.1320  2.4710 -0.8098
  246MOL0     H33182   6.155   5.871  12.686 -1.2373 -0.1572  1.4492
  246MOL0     H33183   6.328   5.851  12.714  0.4549  0.3553  1.1008
  246MOL0     H33184   6.206   6.050  12.877 -1.1869 -0.9409 -0.2506
  246MOL0     H33185   6.325   5.917  12.917 -0.3122 -0.5887  0.2168
  246MOL0     H33186   6.113   5.881  13.051  2.3919 -1.1626 -0.5958
  246MOL0     H33187   6.006   5.878  12.924 -1.3857 -1.3444  3.8692
  246MOL0     H33188   6.105   5.677  12.830 -1.8956  2.1321  0.1295
  246MOL0     H33189   6.069   5.664  12.992 -3.3887  0.9351 -2.5302
  246MOL0     H33190   6.335   5.683  12.844 -2.7729  0.0108 -1.0444
  246MOL0     H33191   6.279   5.548  12.944  0.9295 -0.0698  1.0060
  246MOL0     H33192   6.394   5.998  12.188 -1.6484  0.0892  0.2569
  246MOL0     H33193   6.327   6.011  11.948 -0.1161  1.7164 -1.4095
  246MOL0     H33194   6.275   6.306  11.588  3.6757 -2.7296 -3.6332
  246MOL0     H33195   6.213   6.337  11.356 -0.8901  0.0399 -0.7901
  246MOL0     H33196   7.336   5.737   9.948  0.7695 -2.5728 -0.4407
  246MOL0     H33197   7.558   5.712   9.854  0.9452 -0.8677  0.2037
  246MOL0     H33198   8.046   5.769   9.979 -2.8779 -1.0653 -0.3664
  246MOL0     H33199   8.273   5.782   9.874  1.9996  0.2270 -3.0474
  246MOL0     H33200   8.336   5.742   9.471  0.9789 -0.6949  0.7056
  246MOL0     H33201   8.310   5.917   9.451 -0.1530  2.3349  2.3440
  246MOL0     H33202   8.526   5.962   9.556 -1.5953 -1.6229  2.9435
  246MOL0     H33203   8.511   5.937   9.389 -0.5528  4.4948  2.0381
  246MOL0     H33204   8.570   5.695   9.412 -0.9624  1.8013 -0.8265
  246MOL0     H33205   8.597   5.708   9.579 -3.0755 -2.1583 -1.3793
  246MOL0     H33206   8.803   5.704   9.441  0.9920 -0.7794  0.7202
  246MOL0     H33207   8.785   5.850   9.556 -0.0819  1.8721 -0.9478
  246MOL0     H33208   8.805   5.976   9.139  0.0390 -1.0930 -0.1874
  246MOL0     H33209   8.094   5.889   9.515  1.9681  1.0881  0.3633
  246MOL0     H33210   7.874   5.896   9.606 -0.8858 -0.2422  1.0706
  247MOL0     O33211   5.769   8.183   4.071  0.3371  0.1848 -0.1984
  247MOL0     C33212   5.742   8.096   3.987 -0.1274 -0.4313  0.1071
  247MOL0     O33213   5.833   8.019   3.913  0.8818 -0.6125 -0.2874
  247MOL0     C33214   5.964   8.059   3.919  0.0017 -0.3347 -0.0751
  247MOL0     C33215   6.046   8.011   4.027 -0.4250  0.2591 -0.3331
  247MOL0     C33216   6.183   8.051   4.034  0.6084 -0.7434  0.3147
  247MOL0     C33217   6.242   8.144   3.954 -0.6051 -0.4258  1.0908
  247MOL0     O33218   6.372   8.182   3.978  0.5590  0.9425 -0.2921
  247MOL0     C33219   6.428   8.302   3.938  0.7434  0.3136  0.1408
  247MOL0     C33220   6.473   8.294   3.785  0.6681  0.1912  0.2396
  247MOL0     C33221   6.576   8.405   3.745 -0.5792 -0.3700  0.0751
  247MOL0     C33222   6.546   8.541   3.793  0.3250 -1.0547  0.3786
  247MOL0     C33223   6.653   8.631   3.743 -0.0565  0.3258 -0.4606
  247MOL0     C33224   6.625   8.776   3.811  0.3096  0.4230 -0.2513
  247MOL0     C33225   6.728   8.877   3.763 -0.1130  0.0084  0.6294
  247MOL0     C33226   6.872   8.839   3.777  0.3376  0.0889 -0.5605
  247MOL0     N33227   6.925   8.864   3.917 -0.1472  0.7401  0.0367
  247MOL0     C33228   6.911   8.780   4.023  1.1079 -0.4931 -0.0463
  247MOL0     C33229   6.974   8.855   4.118 -0.3307  0.9237 -0.2802
  247MOL0     C33230   6.986   8.820   4.264 -0.3580  0.3052 -0.5094
  247MOL0     C33231   6.851   8.851   4.325  0.6425 -0.0967 -0.5399
  247MOL0     C33232   6.842   8.844   4.474  0.4961 -0.3334 -0.5520
  247MOL0     C33233   6.699   8.828   4.518 -0.1286 -0.1105  0.4337
  247MOL0     O33234   6.681   8.849   4.658 -0.4510  0.0798 -0.5419
  247MOL0     C33235   6.682   8.728   4.732 -0.1536  0.3562 -0.1488
  247MOL0     C33236   6.592   8.740   4.837  0.4619 -0.9306  0.2958
  247MOL0     C33237   6.575   8.640   4.938 -0.8215  0.5623  0.5169
  247MOL0     C33238   6.482   8.665   5.057  0.7087 -0.3007  0.7927
  247MOL0     C33239   6.664   8.525   4.933 -0.2499 -0.4413 -0.6017
  247MOL0     C33240   6.668   8.423   5.043 -0.1951  0.2097 -0.3135
  247MOL0     O33241   6.634   8.462   5.169 -0.6653  0.5602 -0.4310
  247MOL0     C33242   6.698   8.401   5.279 -0.6888  0.5302  0.3179
  247MOL0     C33243   6.816   8.330   5.285  0.3947  0.8534  0.0341
  247MOL0     C33244   6.871   8.296   5.407 -0.2492  0.2043  0.2663
  247MOL0     C33245   6.798   8.299   5.523  0.7973  0.4036  0.2677
  247MOL0     O33246   6.837   8.265   5.650 -0.1005  0.2974 -0.2850
  247MOL0     C33247   6.772   8.143   5.694  0.0225 -1.1232  0.3688
  247MOL0     C33248   6.874   8.033   5.705 -0.4309  0.6398 -0.9519
  247MOL0     C33249   6.968   8.064   5.821  0.5794 -1.5928 -1.1352
  247MOL0     C33250   7.078   7.958   5.843  0.1400 -0.4635 -0.8542
  247MOL0     C33251   7.183   7.953   5.741 -0.0703  0.0553  0.1569
  247MOL0     C33252   7.281   8.065   5.739 -0.0247 -0.1113 -0.2367
  247MOL0     C33253   7.342   8.107   5.605 -0.0876  0.1156  0.2919
  247MOL0     C33254   7.243   8.174   5.521  0.5170 -0.5203  0.6793
  247MOL0    Cl33255   7.313   8.260   5.382 -0.1215  0.3849  0.1284
  247MOL0     C33256   6.667   8.353   5.514 -1.1679 -0.9797 -0.4263
  247MOL0     C33257   6.624   8.407   5.396  0.7382  0.5678  0.0466
  247MOL0     O33258   6.701   8.307   5.016 -0.1810  0.3229 -0.5220
  247MOL0     C33259   6.748   8.515   4.821 -0.1264  0.3471  0.3223
  247MOL0     C33260   6.752   8.606   4.718  0.5911 -0.5542 -0.2682
  247MOL0     N33261   7.031   8.962   4.064  0.5185  0.4103  0.5565
  247MOL0     N33262   7.011   8.968   3.939 -0.3068  0.3468  0.4773
  247MOL0     C33263   6.162   8.192   3.847  0.9838 -0.2121 -0.3117
  247MOL0     C33264   6.025   8.152   3.832  0.8230  0.5363  0.2524
  247MOL0     C33265   5.604   8.055   3.976  0.2930 -0.3467 -0.5326
  247MOL0     C33266   5.549   7.955   3.884  0.2041 -0.5007 -0.2954
  247MOL0     C33267   5.415   7.917   3.889  0.2921 -0.8622  0.6455
  247MOL0     C33268   5.326   7.979   3.976 -0.0311  0.1325 -0.1907
  247MOL0     O33269   5.193   7.951   3.952  0.2833 -0.4483  0.2770
  247MOL0     C33270   5.099   7.983   4.053 -0.3139 -0.4863  0.0638
  247MOL0     C33271   4.952   7.944   4.004 -0.6270  0.3106 -0.7350
  247MOL0     C33272   4.852   7.973   4.108 -0.0331  0.0886 -0.2689
  247MOL0     C33273   4.727   7.889   4.131  0.2714 -0.6402  0.0452
  247MOL0     C33274   4.676   7.837   4.004  0.3192  0.0188  0.0815
  247MOL0     C33275   4.626   7.772   3.911  0.7797  0.0957  0.4457
  247MOL0     C33276   5.377   8.075   4.061 -0.6258  0.2744 -0.3390
  247MOL0     C33277   5.509   8.118   4.057 -0.2471  0.9637  0.8737
  247MOL0     H33278   5.999   7.944   4.097 -0.7650 -2.3941 -2.9254
  247MOL0     H33279   6.243   8.019   4.119  0.6857 -0.2291  0.4551
  247MOL0     H33280   6.355   8.383   3.947 -0.6471 -0.7532 -0.9829
  247MOL0     H33281   6.507   8.326   4.010  2.6950 -1.2427 -1.3766
  247MOL0     H33282   6.524   8.199   3.767 -0.8054  0.1278 -5.8151
  247MOL0     H33283   6.386   8.293   3.719  0.4333 -0.0497  0.5529
  247MOL0     H33284   6.662   8.372   3.803 -0.6228 -1.2657 -0.3585
  247MOL0     H33285   6.602   8.400   3.639 -0.1308 -0.3054  0.1813
  247MOL0     H33286   6.448   8.578   3.761  0.8603 -1.5759 -2.1049
  247MOL0     H33287   6.541   8.545   3.902 -0.6283  2.6969  0.3683
  247MOL0     H33288   6.751   8.586   3.759  2.1120  4.1336 -1.8337
  247MOL0     H33289   6.635   8.635   3.635  0.1255 -2.2602 -0.6456
  247MOL0     H33290   6.526   8.811   3.782  0.0345 -0.1993 -0.0784
  247MOL0     H33291   6.627   8.756   3.919  0.1739 -4.1175 -0.8801
  247MOL0     H33292   6.706   8.883   3.657 -1.7298  0.3058  0.9679
  247MOL0     H33293   6.708   8.976   3.804  1.4880  0.6268 -0.0052
  247MOL0     H33294   6.930   8.901   3.708 -0.5435  3.8055  1.7240
  247MOL0     H33295   6.890   8.734   3.755  2.6559  0.0536  1.1697
  247MOL0     H33296   6.846   8.695   4.040  2.3635 -1.2886  1.0113
  247MOL0     H33297   6.999   8.713   4.285 -2.4143  0.0731 -0.1856
  247MOL0     H33298   7.066   8.877   4.312 -1.5632 -0.2372  2.3717
  247MOL0     H33299   6.776   8.777   4.295  0.6712 -0.7637  0.9482
  247MOL0     H33300   6.826   8.951   4.289  0.7226 -0.4688 -1.6437
  247MOL0     H33301   6.876   8.935   4.523  1.4967 -2.1839  2.4330
  247MOL0     H33302   6.902   8.760   4.511 -1.4653 -1.6779 -0.2566
  247MOL0     H33303   6.670   8.730   4.478  0.8859  0.9678 -3.3904
  247MOL0     H33304   6.636   8.894   4.457 -0.8985 -0.7225  0.5496
  247MOL0     H33305   6.526   8.826   4.839  2.5375  0.7547  1.9592
  247MOL0     H33306   6.422   8.574   5.073 -1.6566  0.8477 -0.9671
  247MOL0     H33307   6.545   8.679   5.145  0.9082  1.1686  0.4359
  247MOL0     H33308   6.417   8.752   5.044 -0.4605 -0.7683  2.8948
  247MOL0     H33309   6.874   8.311   5.195 -0.2957 -2.0761  0.1154
  247MOL0     H33310   6.971   8.254   5.414 -0.4388 -0.0558  1.6892
  247MOL0     H33311   6.718   8.169   5.786 -1.4142  1.9911 -1.1886
  247MOL0     H33312   6.696   8.109   5.623 -0.4013 -0.0049  0.2626
  247MOL0     H33313   6.816   7.940   5.712 -1.6779  1.4889  1.1891
  247MOL0     H33314   6.928   8.024   5.611 -1.1861  0.2307 -1.3628
  247MOL0     H33315   6.915   8.059   5.917  0.7799  1.3216 -0.7629
  247MOL0     H33316   7.013   8.164   5.819  1.9939 -2.1360  0.6153
  247MOL0     H33317   7.123   7.986   5.939 -0.7837  2.2469 -1.1180
  247MOL0     H33318   7.031   7.860   5.851 -1.2577  0.1431 -1.4155
  247MOL0     H33319   7.124   7.956   5.648 -1.1697  0.7620  0.8597
  247MOL0     H33320   7.231   7.857   5.759  0.0047  0.0498 -0.0644
  247MOL0     H33321   7.243   8.157   5.783 -0.5628 -0.0889 -0.7413
  247MOL0     H33322   7.360   8.037   5.809  0.5528 -2.1034 -1.5943
  247MOL0     H33323   7.380   8.019   5.553 -0.2884 -0.5743  1.2837
  247MOL0     H33324   7.431   8.167   5.624  0.2241 -1.1202  3.1058
  247MOL0     H33325   7.190   8.253   5.576 -2.6877 -1.3457 -1.0069
  247MOL0     H33326   7.164   8.104   5.492 -1.3339  3.0726 -4.2444
  247MOL0     H33327   6.615   8.369   5.608 -0.8146 -0.0041 -0.3815
  247MOL0     H33328   6.541   8.477   5.388  0.6517  0.4285 -0.2995
  247MOL0     H33329   6.810   8.425   4.823  0.4775  0.7358  2.6254
  247MOL0     H33330   6.812   8.585   4.630  3.8566 -0.2075  1.7077
  247MOL0     H33331   6.202   8.267   3.779  2.0279 -0.4443  0.0248
  247MOL0     H33332   5.955   8.190   3.758  0.8947 -0.4406 -0.3246
  247MOL0     H33333   5.611   7.901   3.813  0.1810 -1.2631  0.2596
  247MOL0     H33334   5.364   7.854   3.816 -0.2764 -3.0237  2.7622
  247MOL0     H33335   5.139   7.935   4.142 -0.2117  4.6727  3.2152
  247MOL0     H33336   5.091   8.092   4.061 -2.8756 -0.5078 -0.9988
  247MOL0     H33337   4.942   7.835   3.995  1.4673 -0.1060  1.1546
  247MOL0     H33338   4.928   7.983   3.905 -0.0588  4.0577  0.4759
  247MOL0     H33339   4.816   8.076   4.096 -1.5261  0.1783  3.6097
  247MOL0     H33340   4.913   7.975   4.198  2.0873 -3.6583 -1.3816
  247MOL0     H33341   4.647   7.941   4.185 -1.6617 -3.7206  0.4076
  247MOL0     H33342   4.751   7.810   4.202 -0.7473  0.5059  1.7220
  247MOL0     H33343   4.581   7.716   3.832 -1.7730  0.1769  1.7463
  247MOL0     H33344   5.311   8.129   4.127  0.0806  0.3688  0.3074
  247MOL0     H33345   5.541   8.206   4.111  1.0964  0.4839  0.8866
  248MOL0     O33346   7.772   7.093   7.735 -0.2937  0.1332 -0.8582
  248MOL0     C33347   7.755   7.164   7.638  0.3830 -0.7217  0.0611
  248MOL0     O33348   7.643   7.172   7.565 -0.5186  0.6128  0.6136
  248MOL0     C33349   7.526   7.122   7.617  0.4294 -0.1135  0.4102
  248MOL0     C33350   7.487   7.153   7.747 -0.5960 -0.6823  0.1587
  248MOL0     C33351   7.373   7.092   7.802  0.0909  0.8473 -0.7034
  248MOL0     C33352   7.292   7.014   7.730 -0.7905  1.2359  0.3461
  248MOL0     O33353   7.177   6.944   7.779 -0.4600  0.5281  0.0839
  248MOL0     C33354   7.165   6.906   7.914  0.6312  0.3428 -0.5480
  248MOL0     C33355   7.018   6.850   7.921 -0.3714 -0.2695  0.7779
  248MOL0     C33356   6.982   6.773   8.051  0.2629 -0.6729 -0.1361
  248MOL0     C33357   6.837   6.726   8.055  0.0272  0.0316  0.7719
  248MOL0     C33358   6.806   6.662   8.195 -0.3495  0.5598 -0.0629
  248MOL0     C33359   6.662   6.622   8.201 -0.3658  0.7406  0.7466
  248MOL0     C33360   6.630   6.561   8.340  0.1591  0.1128 -0.1769
  248MOL0     C33361   6.668   6.417   8.347  0.2989 -0.5785 -0.9505
  248MOL0     N33362   6.553   6.335   8.327 -0.0099  0.7081 -0.6457
  248MOL0     C33363   6.450   6.351   8.235  0.4069 -0.2306 -0.7114
  248MOL0     C33364   6.357   6.260   8.253 -0.3079 -0.5118  0.2691
  248MOL0     C33365   6.220   6.265   8.176  0.6871 -0.2265 -0.5228
  248MOL0     C33366   6.167   6.124   8.145  0.1177  0.4826  0.3802
  248MOL0     C33367   6.254   6.036   8.054 -0.8862 -0.7739 -0.0897
  248MOL0     C33368   6.330   5.914   8.116 -0.4035 -0.1902 -0.0003
  248MOL0     O33369   6.344   5.827   8.000  0.0208 -0.5398 -0.0189
  248MOL0     C33370   6.400   5.708   8.007  1.1070 -0.0440  0.8412
  248MOL0     C33371   6.474   5.651   8.116  0.0389  0.4748  0.1131
  248MOL0     C33372   6.530   5.523   8.109 -0.3673 -0.8112  0.0886
  248MOL0     C33373   6.598   5.482   8.240 -0.1244  0.3504  0.5584
  248MOL0     C33374   6.508   5.444   7.995 -0.4921 -0.9135 -0.6422
  248MOL0     C33375   6.559   5.304   7.979  0.0346  0.4957  1.0869
  248MOL0     O33376   6.622   5.243   8.079  0.1803  0.1987  0.0373
  248MOL0     C33377   6.643   5.112   8.053  0.6965 -0.5958  0.2361
  248MOL0     C33378   6.732   5.048   7.966  0.4200 -1.1497 -0.2588
  248MOL0     C33379   6.738   4.914   7.968 -0.6220 -0.0515  0.6494
  248MOL0     C33380   6.660   4.830   8.051  0.6968 -0.1775  1.3484
  248MOL0     O33381   6.661   4.690   8.048  0.8342  0.2576 -0.1549
  248MOL0     C33382   6.749   4.617   7.955  0.7494 -0.6886  0.0573
  248MOL0     C33383   6.759   4.472   8.005 -0.9899  0.5097 -1.3095
  248MOL0     C33384   6.868   4.392   7.932 -0.0536 -0.1735  0.2152
  248MOL0     C33385   6.855   4.400   7.778 -0.2773 -0.6159 -0.2466
  248MOL0     C33386   6.985   4.355   7.711  0.6929 -0.0206 -0.6248
  248MOL0     C33387   7.120   4.431   7.745  0.0803  0.1086 -0.7371
  248MOL0     C33388   7.105   4.585   7.763  0.7664 -0.4729 -0.4114
  248MOL0     C33389   7.233   4.671   7.753 -0.2841  0.0917 -0.0951
  248MOL0    Cl33390   7.326   4.624   7.895  0.0730 -0.3508  0.0753
  248MOL0     C33391   6.569   4.898   8.137 -0.4374 -0.1124 -0.8696
  248MOL0     C33392   6.571   5.034   8.148 -0.4133 -0.8143 -0.1177
  248MOL0     O33393   6.538   5.265   7.868  0.1828 -0.4896  0.7875
  248MOL0     C33394   6.437   5.502   7.888 -0.0758 -0.5137  0.5011
  248MOL0     C33395   6.386   5.633   7.894 -1.0175 -0.0563  0.1455
  248MOL0     N33396   6.402   6.184   8.364 -0.7921 -0.3669  0.0541
  248MOL0     N33397   6.514   6.231   8.407  0.2560  0.4856 -0.7411
  248MOL0     C33398   7.325   6.984   7.599  0.3807 -0.1465  0.3917
  248MOL0     C33399   7.441   7.035   7.541  0.4908  0.6357 -0.7587
  248MOL0     C33400   7.882   7.226   7.591  0.3489 -0.5034 -0.7225
  248MOL0     C33401   7.896   7.254   7.451  0.2716  0.7645 -0.2621
  248MOL0     C33402   8.008   7.317   7.397  0.1597  0.2422  0.1607
  248MOL0     C33403   8.108   7.344   7.477 -0.4817 -0.0875 -0.6250
  248MOL0     O33404   8.215   7.390   7.410  0.1525 -0.4634 -0.4344
  248MOL0     C33405   8.341   7.413   7.483  0.1777  0.2473  0.5037
  248MOL0     C33406   8.434   7.495   7.400 -0.4521 -0.1134 -0.4465
  248MOL0     C33407   8.583   7.480   7.444  0.8923 -0.0304  0.2780
  248MOL0     C33408   8.670   7.539   7.339 -1.2345 -0.4558  0.2943
  248MOL0     C33409   8.818   7.534   7.371  0.5351  0.4314  0.2156
  248MOL0     C33410   8.930   7.527   7.399 -0.4882  0.3309 -0.9691
  248MOL0     C33411   8.096   7.333   7.615 -0.3021  0.1029  0.0870
  248MOL0     C33412   7.990   7.258   7.670  0.3532 -0.5305 -0.0364
  248MOL0     H33413   7.562   7.214   7.796 -0.5834  1.2593 -2.1457
  248MOL0     H33414   7.341   7.124   7.901 -1.4615 -1.6368 -0.3203
  248MOL0     H33415   7.236   6.830   7.946  1.6010  2.5938  3.4115
  248MOL0     H33416   7.164   6.997   7.975 -2.4708 -1.1326  1.9142
  248MOL0     H33417   6.951   6.932   7.895 -1.2389 -0.4664  2.3030
  248MOL0     H33418   7.009   6.779   7.837  1.4510  1.8580 -1.3702
  248MOL0     H33419   7.041   6.681   8.055  0.9059 -0.2804 -0.4615
  248MOL0     H33420   7.005   6.842   8.133  2.1400  0.2867 -1.3949
  248MOL0     H33421   6.772   6.813   8.038 -1.0967 -0.9135  0.0740
  248MOL0     H33422   6.800   6.658   7.978 -3.7682  1.9538  0.6216
  248MOL0     H33423   6.876   6.584   8.227  1.6781  3.0827  2.1667
  248MOL0     H33424   6.835   6.737   8.269  0.4516 -0.7507  1.0105
  248MOL0     H33425   6.604   6.716   8.201 -1.3116  0.1826  1.5840
  248MOL0     H33426   6.628   6.569   8.111 -4.5559  1.9791  1.3535
  248MOL0     H33427   6.691   6.620   8.410 -1.3194  2.5684 -0.8396
  248MOL0     H33428   6.526   6.574   8.374  1.2875  0.9363  3.4330
  248MOL0     H33429   6.718   6.393   8.441 -1.9314 -2.9681 -0.2547
  248MOL0     H33430   6.747   6.405   8.272  1.5060 -1.9155  0.4593
  248MOL0     H33431   6.444   6.429   8.159 -2.0278  1.4155  1.0455
  248MOL0     H33432   6.141   6.307   8.238  0.9094 -0.4008 -0.1180
  248MOL0     H33433   6.236   6.325   8.087  1.8795 -0.5137 -0.5209
  248MOL0     H33434   6.078   6.143   8.085  1.0225  0.2109 -1.1059
  248MOL0     H33435   6.124   6.078   8.234 -2.1208  0.7326 -0.5137
  248MOL0     H33436   6.321   6.095   7.991 -1.7286 -0.5300 -0.7730
  248MOL0     H33437   6.190   6.009   7.970  0.0270 -2.0433 -0.4080
  248MOL0     H33438   6.269   5.876   8.199  3.2288 -1.7947  2.1885
  248MOL0     H33439   6.427   5.950   8.153 -1.0788  1.0304  0.6697
  248MOL0     H33440   6.486   5.706   8.209 -1.2036  1.5058 -0.3064
  248MOL0     H33441   6.613   5.570   8.303 -0.6550  2.5300 -2.1735
  248MOL0     H33442   6.534   5.411   8.294  2.6819  0.2046  4.0567
  248MOL0     H33443   6.696   5.439   8.217 -0.1614 -0.5687  1.9593
  248MOL0     H33444   6.800   5.108   7.906  0.6132  1.1630  2.0690
  248MOL0     H33445   6.808   4.882   7.892  0.9259  0.6845  1.7319
  248MOL0     H33446   6.704   4.618   7.855 -3.4418 -2.7396  1.6632
  248MOL0     H33447   6.850   4.657   7.947 -0.3184  1.8814 -2.5284
  248MOL0     H33448   6.787   4.474   8.111  0.2774 -0.9143 -1.5885
  248MOL0     H33449   6.661   4.424   7.992 -0.3051 -1.3056 -0.0909
  248MOL0     H33450   6.861   4.288   7.966  1.5253  0.3509  2.3760
  248MOL0     H33451   6.963   4.427   7.973 -0.5131  0.0614  1.1080
  248MOL0     H33452   6.771   4.336   7.749 -1.6198 -0.1326  2.2786
  248MOL0     H33453   6.839   4.503   7.744  0.6243 -1.0966 -2.2674
  248MOL0     H33454   6.961   4.355   7.604 -2.7052  0.8511  0.0217
  248MOL0     H33455   6.989   4.254   7.753  2.7149 -0.2362 -1.2405
  248MOL0     H33456   7.161   4.377   7.830 -1.8282 -1.4884 -0.7600
  248MOL0     H33457   7.191   4.406   7.665 -0.1717 -0.7733 -0.6944
  248MOL0     H33458   7.067   4.602   7.864 -0.0985  0.1750 -0.8318
  248MOL0     H33459   7.032   4.622   7.690 -0.5998  0.1717  1.2029
  248MOL0     H33460   7.215   4.779   7.763  2.5260  0.6309  0.1152
  248MOL0     H33461   7.293   4.665   7.661  0.9751  2.3329  0.4998
  248MOL0     H33462   6.517   4.835   8.209  1.1510  1.7273  2.0877
  248MOL0     H33463   6.492   5.069   8.213  0.6254 -2.0732  1.9054
  248MOL0     H33464   6.409   5.439   7.805  1.2761 -5.1616  3.2174
  248MOL0     H33465   6.333   5.665   7.805  2.2225  0.0457 -1.8960
  248MOL0     H33466   7.256   6.924   7.540  1.9079 -0.0521 -1.5899
  248MOL0     H33467   7.491   7.013   7.447  4.3790  0.9255  1.0192
  248MOL0     H33468   7.813   7.241   7.383  0.8499  0.8634 -1.0008
  248MOL0     H33469   8.018   7.337   7.291 -0.1929 -0.0861  0.0658
  248MOL0     H33470   8.318   7.459   7.579  1.2317 -1.8309  1.8128
  248MOL0     H33471   8.383   7.314   7.500 -2.5176 -1.0219  0.3251
  248MOL0     H33472   8.411   7.602   7.401  0.2164  0.0328  0.4526
  248MOL0     H33473   8.423   7.456   7.298  2.3275  1.5949 -1.5350
  248MOL0     H33474   8.599   7.371   7.448 -0.0279 -0.1417  1.2879
  248MOL0     H33475   8.592   7.533   7.539 -0.9722 -1.1645  1.1417
  248MOL0     H33476   8.651   7.646   7.327  0.0748 -0.3357 -1.0502
  248MOL0     H33477   8.657   7.494   7.240 -1.7597  0.1014  0.1102
  248MOL0     H33478   9.037   7.525   7.405 -0.4991 -3.0573  0.3886
  248MOL0     H33479   8.177   7.365   7.680 -1.0536  0.9554  0.6262
  248MOL0     H33480   7.992   7.238   7.777 -1.3785  0.5362  0.2288
  249MOL0     O33481   7.270   9.962   0.554 -0.0541 -0.1862 -0.2483
  249MOL0     C33482   7.285  10.009   0.662  0.1086 -0.9250 -0.6602
  249MOL0     O33483   7.207   9.978   0.775 -0.1643 -0.1550  0.3924
  249MOL0     C33484   7.096   9.897   0.754  0.6168 -0.2728  0.4660
  249MOL0     C33485   7.108   9.752   0.749 -0.1104  0.0722  0.4229
  249MOL0     C33486   6.995   9.678   0.753  0.5079 -0.1254 -0.1161
  249MOL0     C33487   6.869   9.738   0.760  0.8971  0.0213  0.6415
  249MOL0     O33488   6.756   9.658   0.762  0.5250 -0.2621  0.1083
  249MOL0     C33489   6.625   9.718   0.728 -0.4172  1.7064 -0.5730
  249MOL0     C33490   6.521   9.607   0.703  0.2974  0.2827 -0.5910
  249MOL0     C33491   6.393   9.658   0.767  0.1049 -0.5757 -0.1592
  249MOL0     C33492   6.323   9.745   0.664 -0.4958 -0.1753 -0.5530
  249MOL0     C33493   6.177   9.771   0.706  0.3239 -1.7867 -0.2786
  249MOL0     C33494   6.114   9.886   0.625  0.7316 -0.5632 -0.0891
  249MOL0     C33495   5.988   9.948   0.684 -0.7166 -0.4595 -0.3134
  249MOL0     C33496   5.911  10.049   0.584  0.2290  0.1206 -1.1901
  249MOL0     N33497   5.828   9.971   0.492 -0.0395 -0.3266  0.7861
  249MOL0     C33498   5.696   9.982   0.473  0.1904  0.6037  0.8622
  249MOL0     C33499   5.676   9.913   0.362 -0.3063  0.2493  0.4024
  249MOL0     C33500   5.555   9.892   0.287  0.3777 -0.0729 -0.0926
  249MOL0     C33501   5.427   9.921   0.359  0.3865 -0.2808  0.4798
  249MOL0     C33502   5.410  10.075   0.366 -0.2685  0.7793  0.7812
  249MOL0     C33503   5.320  10.123   0.476 -0.1899  0.9463 -0.1953
  249MOL0     O33504   5.368  10.099   0.611 -0.1600  0.3116  0.2101
  249MOL0     C33505   5.340  10.188   0.713 -0.2928  0.8027  0.4084
  249MOL0     C33506   5.233  10.278   0.709 -0.1583 -0.1081  0.6782
  249MOL0     C33507   5.205  10.371   0.807 -0.3576 -0.3248  0.5000
  249MOL0     C33508   5.107  10.482   0.782  0.4617 -0.6330 -0.0697
  249MOL0     C33509   5.285  10.370   0.928 -0.7288  0.4589  0.6286
  249MOL0     C33510   5.279  10.467   1.036 -0.1653  0.7079  0.2734
  249MOL0     O33511   5.264  10.602   1.000  0.6440 -0.3812  0.1890
  249MOL0     C33512   5.321  10.699   1.086  0.2827 -0.6554  0.0634
  249MOL0     C33513   5.287  10.832   1.070 -0.2501 -0.2729  0.4269
  249MOL0     C33514   5.366  10.941   1.112 -0.0079  0.2512 -0.2247
  249MOL0     C33515   5.478  10.917   1.192  0.2561 -0.2353  1.1673
  249MOL0     O33516   5.564  11.007   1.241  0.3325 -0.0155  0.8001
  249MOL0     C33517   5.595  11.124   1.154  0.3985 -0.2965 -0.7802
  249MOL0     C33518   5.690  11.215   1.232 -0.7706 -1.3034  0.0955
  249MOL0     C33519   5.744  11.342   1.154 -0.1081 -0.1459 -0.6656
  249MOL0     C33520   5.831  11.438   1.242 -0.2887  0.0912  1.0175
  249MOL0     C33521   5.742  11.519   1.340  0.5321  0.3553 -0.5283
  249MOL0     C33522   5.827  11.625   1.415  0.4923  0.3584  0.0385
  249MOL0     C33523   5.759  11.714   1.523  0.0764 -0.3438  0.5878
  249MOL0     C33524   5.845  11.817   1.580 -0.2055 -1.4030 -0.3533
  249MOL0    Cl33525   6.004  11.749   1.633 -0.2731  0.3652 -0.0700
  249MOL0     C33526   5.509  10.782   1.215 -0.1743  0.0931 -0.1045
  249MOL0     C33527   5.434  10.677   1.172  0.1803 -0.8306  0.4137
  249MOL0     O33528   5.281  10.421   1.156  0.5376  0.5123  0.6377
  249MOL0     C33529   5.396  10.275   0.937 -0.1862  0.8641 -1.2766
  249MOL0     C33530   5.416  10.188   0.829 -0.3832 -0.5101 -0.6356
  249MOL0     N33531   5.801   9.868   0.317  0.4553  0.4327  0.4896
  249MOL0     N33532   5.889   9.916   0.389 -0.1097  0.1218 -0.3331
  249MOL0     C33533   6.855   9.878   0.753  0.4720 -0.1084 -0.3512
  249MOL0     C33534   6.971   9.955   0.752  0.5316  0.3806  0.1370
  249MOL0     C33535   7.382  10.111   0.684 -0.1431  0.1934 -0.2380
  249MOL0     C33536   7.384  10.189   0.798  0.0124 -0.4318 -1.2603
  249MOL0     C33537   7.479  10.293   0.826 -0.8579 -0.0711  0.0103
  249MOL0     C33538   7.566  10.333   0.724  0.4470  0.5528  0.8157
  249MOL0     O33539   7.662  10.422   0.752 -0.4184  0.1890  0.0856
  249MOL0     C33540   7.694  10.515   0.661  0.1451 -0.4461 -0.0121
  249MOL0     C33541   7.668  10.657   0.722 -0.3611 -0.0865  0.3274
  249MOL0     C33542   7.511  10.681   0.770 -1.1696  0.0711  0.7181
  249MOL0     C33543   7.491  10.817   0.824  0.4480  0.4524 -0.5023
  249MOL0     C33544   7.345  10.828   0.853  0.2052 -0.1174 -0.2144
  249MOL0     C33545   7.224  10.852   0.863 -0.0490 -1.1163 -0.7726
  249MOL0     C33546   7.562  10.255   0.609  0.8755  0.3017  0.0581
  249MOL0     C33547   7.490  10.134   0.594 -0.1376 -0.4618 -0.2924
  249MOL0     H33548   7.202   9.699   0.760 -0.7638 -0.7159  2.9661
  249MOL0     H33549   6.999   9.571   0.735 -0.9858 -0.0581 -0.9617
  249MOL0     H33550   6.598   9.783   0.811 -0.0395  2.1268 -0.7746
  249MOL0     H33551   6.635   9.781   0.639  2.3770  0.4221 -1.3088
  249MOL0     H33552   6.515   9.581   0.597  0.7517 -3.9741  0.2425
  249MOL0     H33553   6.539   9.510   0.750 -2.6052 -1.8215 -3.4163
  249MOL0     H33554   6.338   9.563   0.774  3.6384 -2.6720  2.2934
  249MOL0     H33555   6.411   9.691   0.869  1.6847  0.7056 -0.8094
  249MOL0     H33556   6.381   9.838   0.666 -2.0740  0.9053 -1.8940
  249MOL0     H33557   6.332   9.698   0.565  0.1975  0.9674 -1.0592
  249MOL0     H33558   6.129   9.674   0.687 -1.1441 -0.5098 -4.0105
  249MOL0     H33559   6.190   9.801   0.810  1.6051  1.2779 -1.2157
  249MOL0     H33560   6.182   9.970   0.608  0.1361 -0.3193 -1.2759
  249MOL0     H33561   6.103   9.838   0.528 -0.4900 -0.4382 -0.0178
  249MOL0     H33562   5.920   9.869   0.719 -1.9065  1.0022  0.8272
  249MOL0     H33563   6.024  10.002   0.772  0.5334  1.5011 -1.9347
  249MOL0     H33564   5.986  10.119   0.546  0.3026  0.8289  0.1956
  249MOL0     H33565   5.850  10.102   0.657  2.1127 -1.1043  1.4408
  249MOL0     H33566   5.620  10.026   0.536  0.2201  0.0685  1.2772
  249MOL0     H33567   5.554   9.937   0.187  0.1818 -2.3439 -1.1788
  249MOL0     H33568   5.545   9.784   0.278  0.0285 -0.2230  1.7366
  249MOL0     H33569   5.414   9.881   0.460 -5.2221 -2.7227 -0.8505
  249MOL0     H33570   5.338   9.870   0.322  0.7770 -0.0695 -0.8039
  249MOL0     H33571   5.387  10.115   0.267  2.3331  0.5661  0.0262
  249MOL0     H33572   5.509  10.118   0.381 -1.2247  2.5902  2.2605
  249MOL0     H33573   5.221  10.079   0.464 -0.9231  2.8735 -1.6184
  249MOL0     H33574   5.297  10.229   0.465 -0.5965  1.1957  2.2819
  249MOL0     H33575   5.166  10.275   0.624 -1.7571 -1.0005  1.9274
  249MOL0     H33576   5.046  10.473   0.692 -1.3152  0.9720  0.8987
  249MOL0     H33577   5.034  10.493   0.863  0.0152 -0.1490 -0.5310
  249MOL0     H33578   5.160  10.578   0.785  3.3113 -2.0957  2.4768
  249MOL0     H33579   5.201  10.855   1.008 -0.3525 -1.3997  0.1391
  249MOL0     H33580   5.340  11.046   1.104  0.5907  0.3991 -0.2278
  249MOL0     H33581   5.631  11.092   1.056 -1.1677 -0.3764 -1.3641
  249MOL0     H33582   5.502  11.179   1.139 -0.1719 -0.7302  0.8679
  249MOL0     H33583   5.644  11.245   1.327  0.5973  2.2654 -0.2147
  249MOL0     H33584   5.786  11.167   1.250  0.6437  1.1648 -0.4021
  249MOL0     H33585   5.662  11.398   1.109  0.4804  1.7653  0.5432
  249MOL0     H33586   5.806  11.302   1.073  0.8387  0.9875 -0.5257
  249MOL0     H33587   5.896  11.376   1.304  0.3382  0.1789  0.4647
  249MOL0     H33588   5.891  11.508   1.182 -1.8387  0.6947  0.1050
  249MOL0     H33589   5.704  11.444   1.410 -0.3578  1.7917  0.5741
  249MOL0     H33590   5.666  11.573   1.283  1.5335  2.1465 -0.2483
  249MOL0     H33591   5.910  11.573   1.464  1.2617  1.5165  0.0027
  249MOL0     H33592   5.877  11.684   1.339  0.5051  0.3142  0.0125
  249MOL0     H33593   5.725  11.654   1.608 -0.5521  1.8712  1.9591
  249MOL0     H33594   5.668  11.756   1.479  0.0260 -1.8405 -0.8820
  249MOL0     H33595   5.789  11.867   1.659  0.6427 -1.5412  0.3466
  249MOL0     H33596   5.873  11.893   1.507  0.6204 -1.0938  0.2745
  249MOL0     H33597   5.599  10.750   1.268  0.1964 -1.3032 -1.4778
  249MOL0     H33598   5.457  10.573   1.192 -0.5630 -1.1738 -0.4473
  249MOL0     H33599   5.465  10.269   1.021  1.0377  0.7447 -2.2518
  249MOL0     H33600   5.498  10.117   0.834  2.1004  2.0650 -1.8415
  249MOL0     H33601   6.757   9.920   0.774  0.4929 -0.6417  0.9475
  249MOL0     H33602   6.966  10.063   0.750  0.7140  0.3798 -0.4527
  249MOL0     H33603   7.325  10.184   0.889  2.5765  0.8910  0.5884
  249MOL0     H33604   7.489  10.340   0.923 -2.8683 -2.0575  1.2685
  249MOL0     H33605   7.800  10.508   0.635  0.6356 -0.4190  1.8534
  249MOL0     H33606   7.638  10.501   0.568  0.5982 -2.8149  0.0059
  249MOL0     H33607   7.681  10.735   0.646  0.9487 -1.2601 -0.7104
  249MOL0     H33608   7.729  10.663   0.812 -1.2951 -4.6576  1.5287
  249MOL0     H33609   7.484  10.597   0.836  0.2423 -1.3133 -0.3588
  249MOL0     H33610   7.451  10.657   0.682 -1.0376 -1.8629  1.0892
  249MOL0     H33611   7.512  10.890   0.745  0.7474  1.4379  0.4532
  249MOL0     H33612   7.549  10.833   0.916  0.8902  1.6653 -0.9632
  249MOL0     H33613   7.124  10.889   0.877  1.7895  4.6763 -0.0085
  249MOL0     H33614   7.643  10.270   0.538 -0.3020  0.6678 -1.2458
  249MOL0     H33615   7.490  10.068   0.508 -2.6358 -0.5254 -0.3194
  250MOL0     O33616   2.841   6.059   8.272 -0.0843  0.2798 -0.0203
  250MOL0     C33617   2.798   5.949   8.256  0.6613  0.6908 -0.0484
  250MOL0     O33618   2.855   5.833   8.278  0.3502  0.2108  0.0840
  250MOL0     C33619   2.962   5.839   8.372 -0.2892 -0.2429  0.4136
  250MOL0     C33620   3.095   5.869   8.333  0.1489  0.2493 -0.5299
  250MOL0     C33621   3.194   5.909   8.429  0.5299  0.2284 -0.0382
  250MOL0     C33622   3.156   5.898   8.566 -0.4985  0.2323  0.7163
  250MOL0     O33623   3.243   5.933   8.662 -0.0775 -0.2303  0.0245
  250MOL0     C33624   3.375   5.876   8.644  0.0434  0.5566  0.0854
  250MOL0     C33625   3.424   5.814   8.774 -0.0806 -0.5845 -0.7575
  250MOL0     C33626   3.551   5.731   8.746  0.0378  0.0177  0.3816
  250MOL0     C33627   3.613   5.676   8.876 -0.0395 -0.1131  0.3546
  250MOL0     C33628   3.724   5.581   8.832  0.5550  0.3562  0.0254
  250MOL0     C33629   3.745   5.495   8.952  1.4134  0.0649  0.3873
  250MOL0     C33630   3.879   5.421   8.945 -0.2113  0.1361  0.9165
  250MOL0     C33631   3.901   5.324   8.827  0.4865  0.6493  0.2308
  250MOL0     N33632   3.798   5.215   8.827 -0.3060 -0.4523  0.1372
  250MOL0     C33633   3.765   5.139   8.934 -0.0134 -0.1175 -1.1295
  250MOL0     C33634   3.661   5.066   8.888 -0.0847  0.5253  0.1529
  250MOL0     C33635   3.584   4.959   8.952 -0.2444  0.2458  1.1715
  250MOL0     C33636   3.442   5.003   8.995  0.0974 -0.4452 -0.0539
  250MOL0     C33637   3.345   4.890   9.023  0.9465 -0.0538 -1.0620
  250MOL0     C33638   3.220   4.953   9.099 -0.5422 -0.8225  0.1449
  250MOL0     O33639   3.257   5.002   9.223  0.2425 -0.3974  0.2870
  250MOL0     C33640   3.316   4.910   9.304  0.4814 -0.4726  0.5095
  250MOL0     C33641   3.442   4.933   9.341 -0.5106  0.0712 -0.5326
  250MOL0     C33642   3.521   4.847   9.409  0.3393  0.6112 -1.5646
  250MOL0     C33643   3.666   4.868   9.442  0.7266 -0.3684  0.3704
  250MOL0     C33644   3.459   4.729   9.466 -0.5137 -0.1320 -0.2822
  250MOL0     C33645   3.523   4.645   9.561  0.2700 -0.3316  0.4254
  250MOL0     O33646   3.578   4.714   9.665  0.8717  0.1437  0.0503
  250MOL0     C33647   3.623   4.647   9.776 -0.1787  1.0059  0.4787
  250MOL0     C33648   3.574   4.665   9.907  0.4160  0.1427  0.3282
  250MOL0     C33649   3.616   4.607  10.022  0.4709 -0.7144 -0.0307
  250MOL0     C33650   3.737   4.525  10.009  1.0314  0.4700  0.1335
  250MOL0     O33651   3.797   4.456  10.113 -0.2370  0.1043  0.1555
  250MOL0     C33652   3.938   4.437  10.111  0.6153 -0.1291 -0.4689
  250MOL0     C33653   3.985   4.397  10.258 -0.8244  0.0592 -0.4584
  250MOL0     C33654   4.079   4.507  10.311 -0.2589  0.1362 -0.1351
  250MOL0     C33655   4.128   4.494  10.457  0.3210  0.1817  0.2147
  250MOL0     C33656   4.265   4.427  10.455  0.5070 -0.6874  0.1378
  250MOL0     C33657   4.320   4.383  10.589 -0.4317  0.1408 -0.2842
  250MOL0     C33658   4.444   4.292  10.571 -0.0585 -0.2264 -0.3543
  250MOL0     C33659   4.546   4.301  10.696 -0.2675 -0.2357 -0.0686
  250MOL0    Cl33660   4.463   4.217  10.831 -0.1065 -0.4099 -0.3049
  250MOL0     C33661   3.789   4.495   9.879  0.3834 -0.4802 -0.3133
  250MOL0     C33662   3.746   4.573   9.769 -0.6597  1.5707 -0.3456
  250MOL0     O33663   3.509   4.526   9.559  0.8084  0.6187  0.1214
  250MOL0     C33664   3.320   4.709   9.435 -0.4190 -0.6741  0.6611
  250MOL0     C33665   3.258   4.794   9.348  0.3194 -0.5669  0.0493
  250MOL0     N33666   3.645   5.098   8.760 -0.0919 -0.2653 -0.4337
  250MOL0     N33667   3.717   5.195   8.724  0.2134  1.1426 -0.7427
  250MOL0     C33668   3.031   5.850   8.606  0.8534 -0.3382  0.0745
  250MOL0     C33669   2.935   5.823   8.506 -1.2134 -0.5485  0.9436
  250MOL0     C33670   2.655   5.957   8.224 -0.8466 -0.3078  0.6604
  250MOL0     C33671   2.596   6.080   8.172 -0.5957  0.6661 -0.3700
  250MOL0     C33672   2.470   6.086   8.110  0.6850  1.1683  0.2103
  250MOL0     C33673   2.398   5.965   8.113 -1.5176 -0.1360 -0.1926
  250MOL0     O33674   2.279   5.951   8.056  0.3176 -0.3032  0.0526
  250MOL0     C33675   2.212   6.064   8.011  0.5986  1.0883  0.5873
  250MOL0     C33676   2.248   6.121   7.876  0.1435 -0.1874 -0.0675
  250MOL0     C33677   2.147   6.241   7.862 -1.0364 -0.5029 -0.2380
  250MOL0     C33678   2.142   6.298   7.721 -0.4414 -0.4688 -0.2275
  250MOL0     C33679   2.041   6.399   7.714 -0.0624 -0.6937  0.4039
  250MOL0     C33680   1.972   6.494   7.694 -0.4931 -0.6966  0.1523
  250MOL0     C33681   2.448   5.848   8.174 -0.4728 -0.0896 -0.8781
  250MOL0     C33682   2.573   5.840   8.222 -0.2133 -0.2946 -0.6394
  250MOL0     H33683   3.125   5.881   8.229 -0.9853  0.4086 -0.8568
  250MOL0     H33684   3.291   5.935   8.390 -0.2641  2.2023 -0.7841
  250MOL0     H33685   3.392   5.797   8.571 -1.6632 -0.7473  1.0451
  250MOL0     H33686   3.437   5.959   8.608  0.0671 -0.4814 -2.4790
  250MOL0     H33687   3.436   5.899   8.842  0.9544 -1.8014  0.6720
  250MOL0     H33688   3.352   5.742   8.814  0.4748 -0.9590 -0.4103
  250MOL0     H33689   3.525   5.650   8.677 -1.7268 -0.6088  1.6777
  250MOL0     H33690   3.631   5.793   8.705  0.7914  0.3536  2.2449
  250MOL0     H33691   3.652   5.754   8.943 -0.3215  0.6453 -0.3507
  250MOL0     H33692   3.527   5.636   8.931 -1.0971  2.7034  0.9609
  250MOL0     H33693   3.709   5.514   8.747  0.5162 -4.0067  3.1390
  250MOL0     H33694   3.818   5.633   8.814  0.2055  0.3785 -1.9790
  250MOL0     H33695   3.738   5.549   9.047 -1.7284 -2.2306  1.6236
  250MOL0     H33696   3.663   5.422   8.952  0.7436  0.8016  0.7941
  250MOL0     H33697   3.963   5.489   8.928  0.6954 -1.5572 -2.2625
  250MOL0     H33698   3.892   5.375   9.043  0.4881 -0.7357  0.4277
  250MOL0     H33699   3.996   5.269   8.834  0.4580  0.4423 -0.8459
  250MOL0     H33700   3.884   5.368   8.728  1.3194 -1.3090 -0.8401
  250MOL0     H33701   3.814   5.135   9.031 -0.7175  3.1656 -0.5312
  250MOL0     H33702   3.584   4.871   8.886  3.8249  1.3899 -0.6595
  250MOL0     H33703   3.643   4.926   9.037  0.8190 -0.6349  0.1237
  250MOL0     H33704   3.408   5.070   8.916  1.6824 -3.6086 -3.7445
  250MOL0     H33705   3.447   5.067   9.084 -1.1388  0.0741 -0.3388
  250MOL0     H33706   3.387   4.809   9.083 -0.1630 -0.3908 -0.7214
  250MOL0     H33707   3.310   4.858   8.924  5.3862  1.4057 -3.3880
  250MOL0     H33708   3.144   4.878   9.120 -3.6539  2.2743  0.8434
  250MOL0     H33709   3.177   5.031   9.035  1.1037 -0.2649 -0.3516
  250MOL0     H33710   3.486   5.030   9.320  0.3925  0.1891  1.6114
  250MOL0     H33711   3.659   4.919   9.539 -1.4733  1.6718 -0.7555
  250MOL0     H33712   3.720   4.774   9.455  0.8492 -0.5328 -1.1632
  250MOL0     H33713   3.729   4.920   9.370  1.9932 -1.5856  0.5582
  250MOL0     H33714   3.473   4.704   9.909 -0.7474 -2.6350  0.2168
  250MOL0     H33715   3.564   4.627  10.115  0.3194  0.7977 -0.4129
  250MOL0     H33716   3.966   4.354  10.046  1.4606 -0.7187  0.6092
  250MOL0     H33717   4.001   4.515  10.068  0.5688  0.4972  0.5508
  250MOL0     H33718   3.906   4.363  10.327  2.7035 -3.5632  2.2892
  250MOL0     H33719   4.055   4.314  10.253 -0.9521 -0.0780 -0.0101
  250MOL0     H33720   4.029   4.604  10.311  0.0963  0.3214 -0.2680
  250MOL0     H33721   4.163   4.510  10.241 -0.3888 -3.7942 -0.7005
  250MOL0     H33722   4.125   4.596  10.496 -3.4115  1.0147 -1.7440
  250MOL0     H33723   4.061   4.435  10.521 -0.7451 -0.9965 -1.8553
  250MOL0     H33724   4.326   4.502  10.404  1.7822 -1.8957 -0.1524
  250MOL0     H33725   4.266   4.340  10.388  1.9193 -1.6538  1.3547
  250MOL0     H33726   4.341   4.472  10.649  0.5070  0.0297 -0.4328
  250MOL0     H33727   4.251   4.324  10.650  1.7874  1.8212  4.3920
  250MOL0     H33728   4.493   4.330  10.481 -0.7689  4.6410  1.0371
  250MOL0     H33729   4.412   4.190  10.547 -2.6536  0.1083  1.2886
  250MOL0     H33730   4.567   4.407  10.713 -2.2538  0.1397  0.3972
  250MOL0     H33731   4.640   4.248  10.680 -1.2849 -2.0287 -0.4273
  250MOL0     H33732   3.869   4.422   9.864 -0.7445 -1.7018 -0.5233
  250MOL0     H33733   3.795   4.575   9.672  0.6353  2.7931  0.2983
  250MOL0     H33734   3.271   4.613   9.451  0.3638 -1.4760 -1.4150
  250MOL0     H33735   3.160   4.762   9.315  0.8428  0.3809 -2.7189
  250MOL0     H33736   2.995   5.854   8.709  1.1101 -0.6279  0.1772
  250MOL0     H33737   2.837   5.782   8.526 -1.9489  0.7368  0.1519
  250MOL0     H33738   2.666   6.162   8.158 -1.5225  1.2862 -1.5970
  250MOL0     H33739   2.436   6.174   8.056  0.3112  1.5235  1.0145
  250MOL0     H33740   2.104   6.044   8.017  0.6588  0.8515  0.8941
  250MOL0     H33741   2.224   6.137   8.091 -0.6905  1.8126  0.1616
  250MOL0     H33742   2.231   6.038   7.807  1.7955 -0.6695  0.0631
  250MOL0     H33743   2.349   6.159   7.864  0.1849 -0.3570 -0.2566
  250MOL0     H33744   2.169   6.318   7.937 -1.6948 -0.1403 -0.4096
  250MOL0     H33745   2.050   6.203   7.894 -0.1634 -5.7211 -2.7246
  250MOL0     H33746   2.109   6.225   7.646 -0.9605 -0.9353  0.4462
  250MOL0     H33747   2.238   6.338   7.689  1.9271 -3.9565  1.8603
  250MOL0     H33748   1.912   6.579   7.671  0.5986  0.4664  1.4458
  250MOL0     H33749   2.385   5.760   8.166  2.0867 -2.2395  0.8096
  250MOL0     H33750   2.612   5.749   8.268 -1.0743 -0.0661  0.6001
  251MOL0     O33751   3.734   1.276   6.852  0.2340 -0.1663  0.2749
  251MOL0     C33752   3.698   1.388   6.806  1.1308 -0.4217  0.1596
  251MOL0     O33753   3.743   1.512   6.853 -0.3009  0.1818 -0.1042
  251MOL0     C33754   3.769   1.510   6.987  0.0865  1.0719  0.4173
  251MOL0     C33755   3.875   1.589   7.030  0.4675 -0.4011  0.1920
  251MOL0     C33756   3.911   1.606   7.165 -0.7930  0.2182  0.3320
  251MOL0     C33757   3.839   1.538   7.265 -0.6204 -1.0129  0.4177
  251MOL0     O33758   3.873   1.544   7.396 -0.7054  0.5547 -0.1474
  251MOL0     C33759   3.970   1.629   7.446  0.3655 -0.6235  0.1937
  251MOL0     C33760   3.943   1.624   7.597 -0.7276  0.0531  0.2018
  251MOL0     C33761   3.963   1.493   7.666 -0.1517  0.0487  0.0046
  251MOL0     C33762   3.924   1.493   7.812  0.4304  0.7109 -0.6470
  251MOL0     C33763   3.936   1.351   7.858  0.2006  0.1056  0.0276
  251MOL0     C33764   3.892   1.348   8.005 -0.8820 -0.7471  0.5297
  251MOL0     C33765   3.852   1.209   8.039  0.2680 -0.4255  0.6048
  251MOL0     C33766   3.800   1.191   8.183  0.0762  0.6145  0.7337
  251MOL0     N33767   3.886   1.258   8.285  0.3149 -0.1745  0.0622
  251MOL0     C33768   3.844   1.314   8.398  0.7063 -0.2172 -0.6029
  251MOL0     C33769   3.957   1.330   8.463  0.1052 -0.4615 -0.2036
  251MOL0     C33770   3.963   1.386   8.601  0.6536  0.6201 -0.6309
  251MOL0     C33771   4.088   1.336   8.686  0.4587 -0.1295  0.3743
  251MOL0     C33772   4.053   1.345   8.838  0.0980  0.1238 -0.4750
  251MOL0     C33773   4.169   1.322   8.926 -0.0697 -0.2040  0.2854
  251MOL0     O33774   4.121   1.334   9.060 -0.4711 -0.0682 -0.4306
  251MOL0     C33775   4.212   1.344   9.163  0.1394  0.1645  0.6210
  251MOL0     C33776   4.347   1.288   9.167 -0.7339 -0.7565 -0.4710
  251MOL0     C33777   4.413   1.310   9.285  0.2712 -0.1963 -0.0429
  251MOL0     C33778   4.556   1.248   9.285  0.2131 -0.3624 -0.0642
  251MOL0     C33779   4.352   1.373   9.406 -0.0849  0.0976  0.5526
  251MOL0     C33780   4.426   1.380   9.530 -0.5546 -0.6363  0.3510
  251MOL0     O33781   4.563   1.416   9.513  0.2307  0.3851 -0.2890
  251MOL0     C33782   4.624   1.450   9.637 -0.3346  0.5841  0.2394
  251MOL0     C33783   4.687   1.337   9.691 -0.3047  0.5336 -0.4175
  251MOL0     C33784   4.781   1.361   9.798 -0.5119  0.2537  0.1193
  251MOL0     C33785   4.808   1.485   9.847  1.0070 -0.7040 -0.2817
  251MOL0     O33786   4.889   1.494   9.957  0.7313  0.4927  0.3109
  251MOL0     C33787   4.983   1.600   9.965  0.5413  0.9560 -0.1246
  251MOL0     C33788   5.041   1.585  10.111  0.1893  0.4885 -0.1240
  251MOL0     C33789   5.133   1.711  10.150 -0.2358 -0.2852  0.5782
  251MOL0     C33790   5.065   1.845  10.142  0.1969  0.6902  0.4723
  251MOL0     C33791   5.154   1.943  10.222 -0.2192  0.1704 -1.2546
  251MOL0     C33792   5.169   1.906  10.377  0.1335 -0.1394  0.0569
  251MOL0     C33793   5.250   2.011  10.456  0.0890 -0.9089 -0.6330
  251MOL0     C33794   5.263   1.970  10.598 -0.3352  0.5103  0.4305
  251MOL0    Cl33795   5.378   1.830  10.605  0.3193  0.2577 -0.5131
  251MOL0     C33796   4.731   1.592   9.799  0.1506  0.1093  0.4745
  251MOL0     C33797   4.643   1.577   9.685  1.1439 -0.7628 -0.0887
  251MOL0     O33798   4.361   1.384   9.635  0.0017  0.7654  0.0809
  251MOL0     C33799   4.221   1.417   9.396 -0.0515  0.7974  0.0228
  251MOL0     C33800   4.160   1.404   9.273 -0.3078 -0.8981 -0.1487
  251MOL0     N33801   4.070   1.273   8.394  0.2112  0.3802  0.2331
  251MOL0     N33802   4.027   1.244   8.280 -0.1371  0.1814 -0.1299
  251MOL0     C33803   3.744   1.453   7.219 -0.2861 -0.8215 -0.5407
  251MOL0     C33804   3.700   1.445   7.086 -0.5587  0.7214  0.2000
  251MOL0     C33805   3.638   1.382   6.666  0.3093 -0.4870 -0.9550
  251MOL0     C33806   3.547   1.279   6.637 -0.8148  0.5046  0.7503
  251MOL0     C33807   3.502   1.269   6.500 -1.1684 -0.3948 -0.4486
  251MOL0     C33808   3.532   1.364   6.398  0.4500  0.2456 -1.5541
  251MOL0     O33809   3.488   1.350   6.267 -0.6198  0.4915 -0.3226
  251MOL0     C33810   3.383   1.260   6.244  0.0796 -0.1708  0.0429
  251MOL0     C33811   3.302   1.292   6.112  0.2821  0.6914 -0.4711
  251MOL0     C33812   3.156   1.228   6.105  0.3882  0.6972  0.0152
  251MOL0     C33813   3.100   1.212   5.957  0.3432  0.0513 -0.5044
  251MOL0     C33814   2.964   1.142   5.949  0.7938  0.2736  0.2000
  251MOL0     C33815   2.857   1.086   5.939 -0.5830 -0.3640  0.6413
  251MOL0     C33816   3.610   1.467   6.432 -0.3162  0.3653 -0.3289
  251MOL0     C33817   3.671   1.465   6.559 -1.6322  0.5434 -0.7043
  251MOL0     H33818   3.941   1.630   6.954 -1.0723  0.1483 -0.8980
  251MOL0     H33819   4.002   1.661   7.184 -1.1906  0.8866  0.3288
  251MOL0     H33820   4.069   1.588   7.422 -0.0276 -1.5103  0.0403
  251MOL0     H33821   3.946   1.730   7.415  0.1501  0.1782  2.7068
  251MOL0     H33822   4.009   1.700   7.641 -0.2488  1.1656 -2.2330
  251MOL0     H33823   3.836   1.641   7.612 -0.4090  2.0951  0.4171
  251MOL0     H33824   3.888   1.429   7.620 -1.6385  0.9812  1.0370
  251MOL0     H33825   4.061   1.449   7.644  0.0379  0.1450  0.6165
  251MOL0     H33826   3.984   1.557   7.877 -0.5737 -1.9024  3.2111
  251MOL0     H33827   3.819   1.521   7.821 -0.2237 -1.7151  0.1079
  251MOL0     H33828   3.878   1.284   7.793  1.0615  0.9591 -1.6917
  251MOL0     H33829   4.037   1.309   7.855 -0.3077 -1.2014  0.2339
  251MOL0     H33830   3.971   1.391   8.067 -0.4885  1.1004 -1.1463
  251MOL0     H33831   3.802   1.403   8.033 -0.4063 -0.5200  1.6655
  251MOL0     H33832   3.774   1.166   7.975  1.3956 -2.3810  0.4787
  251MOL0     H33833   3.936   1.140   8.025  0.9855  0.3660  0.9588
  251MOL0     H33834   3.788   1.087   8.216  0.5490  0.9557  2.0314
  251MOL0     H33835   3.697   1.224   8.191  0.3723  1.1103  3.4856
  251MOL0     H33836   3.743   1.346   8.426  0.8990 -1.0633  1.2453
  251MOL0     H33837   3.975   1.494   8.600  2.8123  0.6141  3.2843
  251MOL0     H33838   3.876   1.364   8.663 -0.0808  3.7770 -0.3884
  251MOL0     H33839   4.179   1.390   8.660 -0.7578  1.3241 -1.0567
  251MOL0     H33840   4.100   1.231   8.659 -0.1346 -0.5565  1.6533
  251MOL0     H33841   3.980   1.275   8.879 -0.5207  1.4460  0.7528
  251MOL0     H33842   4.014   1.447   8.841  0.9871  0.5642 -2.4986
  251MOL0     H33843   4.255   1.386   8.907  1.0001 -1.5810  0.2652
  251MOL0     H33844   4.213   1.223   8.908  0.3434 -0.4250  2.2490
  251MOL0     H33845   4.390   1.247   9.077 -0.2305 -3.1730  0.7877
  251MOL0     H33846   4.577   1.186   9.198  0.6134 -1.0602  0.5264
  251MOL0     H33847   4.629   1.330   9.274  0.5664 -0.8912 -2.1839
  251MOL0     H33848   4.584   1.197   9.377  2.4507  0.7223 -0.0655
  251MOL0     H33849   4.684   1.238   9.647 -3.3680  1.9789 -4.0455
  251MOL0     H33850   4.852   1.288   9.835  1.8892  2.8352  0.9966
  251MOL0     H33851   5.053   1.580   9.882 -0.4417 -0.4496 -0.6555
  251MOL0     H33852   4.947   1.702   9.951  1.6895  1.2711 -0.9937
  251MOL0     H33853   4.959   1.597  10.183  1.1667  1.5763  0.8511
  251MOL0     H33854   5.093   1.489  10.126  2.7015  2.0085  1.6521
  251MOL0     H33855   5.224   1.706  10.089 -0.3476 -1.2924  0.4676
  251MOL0     H33856   5.156   1.681  10.252 -1.0133 -0.9859  0.5641
  251MOL0     H33857   5.066   1.866  10.034 -3.2867  1.2492  0.4084
  251MOL0     H33858   4.960   1.846  10.174  0.7356  2.6071  2.3446
  251MOL0     H33859   5.110   2.043  10.211  0.6931  0.6591 -0.5274
  251MOL0     H33860   5.249   1.940  10.168 -0.7369 -2.4036 -2.1492
  251MOL0     H33861   5.069   1.915  10.422  0.7811 -0.0454  1.5128
  251MOL0     H33862   5.219   1.810  10.393 -0.5204 -0.9509 -2.2582
  251MOL0     H33863   5.192   2.104  10.452 -0.5734 -1.0929  2.4077
  251MOL0     H33864   5.344   2.037  10.407 -2.6046  6.4049 -3.3237
  251MOL0     H33865   5.165   1.948  10.642 -1.2979 -2.6117 -2.8174
  251MOL0     H33866   5.304   2.056  10.651  5.5893 -0.8473 -1.2349
  251MOL0     H33867   4.742   1.685   9.854  1.3975  0.4976 -0.3613
  251MOL0     H33868   4.580   1.654   9.642  2.1547 -0.6971 -1.5551
  251MOL0     H33869   4.159   1.461   9.474 -1.7451  0.6238 -1.1585
  251MOL0     H33870   4.060   1.446   9.277 -0.0085 -0.2373  1.7291
  251MOL0     H33871   3.697   1.395   7.298 -0.1616  0.5405  0.5808
  251MOL0     H33872   3.618   1.379   7.063 -1.2519  0.6179  2.6214
  251MOL0     H33873   3.524   1.208   6.716 -1.6511  1.3495  1.2821
  251MOL0     H33874   3.448   1.176   6.482  0.6912 -1.8451  0.9902
  251MOL0     H33875   3.426   1.161   6.228 -2.4717 -1.2471 -0.8027
  251MOL0     H33876   3.315   1.265   6.330  3.7378  0.8857  3.1069
  251MOL0     H33877   3.354   1.260   6.021 -2.0826  1.4263 -2.2057
  251MOL0     H33878   3.294   1.400   6.100  0.8478  0.5814 -2.1383
  251MOL0     H33879   3.088   1.285   6.168 -0.3401 -0.8457  0.6716
  251MOL0     H33880   3.162   1.128   6.149  2.3942  0.0004 -1.6599
  251MOL0     H33881   3.174   1.152   5.902  1.9902  1.4657  0.0961
  251MOL0     H33882   3.102   1.311   5.910  1.1215  1.7837  2.8909
  251MOL0     H33883   2.766   1.029   5.935 -1.8491  1.6153 -0.3218
  251MOL0     H33884   3.634   1.534   6.350 -2.1821 -2.3649 -3.3055
  251MOL0     H33885   3.752   1.534   6.580 -0.5644 -0.1676 -2.2752
  252MOL0     O33886   5.552  11.430   1.653 -0.1667 -0.3755 -0.2404
  252MOL0     C33887   5.621  11.439   1.757 -0.1827 -0.5979  0.6564
  252MOL0     O33888   5.716  11.352   1.794  0.8688 -0.1345  0.3550
  252MOL0     C33889   5.743  11.257   1.700  0.9829 -0.2275  0.3163
  252MOL0     C33890   5.674  11.138   1.686 -0.0481  0.9692  0.0809
  252MOL0     C33891   5.714  11.048   1.585  0.2689 -0.6558  0.7255
  252MOL0     C33892   5.828  11.071   1.511  0.6005  0.3407 -0.1356
  252MOL0     O33893   5.882  10.975   1.421 -0.2803 -0.3620  0.6389
  252MOL0     C33894   5.868  10.837   1.431 -0.5808  0.1173  0.5744
  252MOL0     C33895   5.967  10.772   1.321 -0.3905 -0.6846 -0.8261
  252MOL0     C33896   5.926  10.777   1.179  0.2950  0.7189 -0.4064
  252MOL0     C33897   5.943  10.908   1.111 -0.0874 -0.1689  0.6695
  252MOL0     C33898   6.073  10.982   1.150 -0.0500 -0.0328 -0.1633
  252MOL0     C33899   6.067  11.120   1.088  0.8860  0.5722  0.1784
  252MOL0     C33900   6.209  11.184   1.078  0.0362  0.4399 -0.6759
  252MOL0     C33901   6.258  11.212   0.936 -0.3514  0.3781  0.1237
  252MOL0     N33902   6.279  11.074   0.877  0.0339 -0.0051  0.0027
  252MOL0     C33903   6.387  11.002   0.917 -0.3164  0.5308  0.0782
  252MOL0     C33904   6.385  10.883   0.859  0.3801  0.6766  0.0359
  252MOL0     C33905   6.468  10.771   0.895  0.0995  1.2794  0.7500
  252MOL0     C33906   6.392  10.651   0.932  0.7340  0.4323  0.5512
  252MOL0     C33907   6.274  10.662   1.037 -0.9956 -0.1326  0.8717
  252MOL0     C33908   6.319  10.722   1.169  0.4028 -0.5756 -0.6854
  252MOL0     O33909   6.430  10.659   1.227  0.0742 -0.1502 -0.5379
  252MOL0     C33910   6.475  10.695   1.349 -0.3706 -1.0527 -0.7026
  252MOL0     C33911   6.593  10.651   1.396  0.2197  0.8909 -0.4663
  252MOL0     C33912   6.662  10.686   1.507  0.3186  0.6080 -0.5153
  252MOL0     C33913   6.781  10.604   1.555 -0.7221  0.2028 -0.0268
  252MOL0     C33914   6.590  10.778   1.595 -0.4121 -0.9981  0.2308
  252MOL0     C33915   6.646  10.824   1.725 -0.1660  1.9129  0.7719
  252MOL0     O33916   6.566  10.836   1.826  0.3450 -0.1551 -0.5105
  252MOL0     C33917   6.602  10.902   1.950 -0.9628 -0.3585 -0.4319
  252MOL0     C33918   6.502  10.892   2.045  0.0109  0.7290  0.7953
  252MOL0     C33919   6.503  10.965   2.165 -0.7725 -0.4842  0.3218
  252MOL0     C33920   6.619  11.036   2.203  0.0320  0.0739  0.8125
  252MOL0     O33921   6.615  11.107   2.317 -0.5384 -0.1690 -0.2070
  252MOL0     C33922   6.731  11.121   2.397  1.6713  0.1472  0.0949
  252MOL0     C33923   6.680  11.154   2.532  0.0051 -0.6509 -0.1237
  252MOL0     C33924   6.784  11.200   2.637 -0.4438 -0.3907  0.7186
  252MOL0     C33925   6.873  11.320   2.598 -1.4474 -0.4136  0.2359
  252MOL0     C33926   6.917  11.406   2.713 -0.5290 -0.1650  0.1502
  252MOL0     C33927   6.993  11.531   2.665 -0.3560  0.3467  0.4228
  252MOL0     C33928   6.911  11.625   2.578 -0.8063  0.0765  0.1946
  252MOL0     C33929   6.801  11.705   2.656  0.6207  0.2194 -0.5145
  252MOL0    Cl33930   6.719  11.827   2.545 -0.4299  0.4579 -0.2128
  252MOL0     C33931   6.727  11.050   2.107  0.6933 -0.9755 -0.4108
  252MOL0     C33932   6.722  10.974   1.985 -0.1459 -0.3832  0.1119
  252MOL0     O33933   6.767  10.862   1.725  0.8369  0.1059  0.7764
  252MOL0     C33934   6.470  10.839   1.550  0.0830 -0.2598 -0.3579
  252MOL0     C33935   6.416  10.797   1.427 -0.1255 -0.4992 -0.7350
  252MOL0     N33936   6.256  10.880   0.795  0.3587  0.7283 -0.1352
  252MOL0     N33937   6.197  10.993   0.805 -0.4428  0.0593 -0.9135
  252MOL0     C33938   5.894  11.197   1.520 -0.8637 -0.6391 -0.0713
  252MOL0     C33939   5.847  11.297   1.612 -0.4240  0.6262  0.3232
  252MOL0     C33940   5.586  11.553   1.846 -0.9609 -0.1392  0.6516
  252MOL0     C33941   5.492  11.646   1.798 -0.4913  0.1023 -0.5139
  252MOL0     C33942   5.478  11.762   1.865  0.2053  0.6735 -0.8353
  252MOL0     C33943   5.555  11.797   1.987  0.6495  0.0653 -0.0992
  252MOL0     O33944   5.547  11.909   2.068 -0.3819  0.4168 -0.5077
  252MOL0     C33945   5.411  11.949   2.096 -0.7338 -0.1362 -0.0742
  252MOL0     C33946   5.395  12.052   2.211 -0.3055  0.1464 -0.8202
  252MOL0     C33947   5.440  12.202   2.184 -0.5594  0.9574 -0.0238
  252MOL0     C33948   5.589  12.204   2.210 -0.5266  0.7972  0.4602
  252MOL0     C33949   5.654  12.316   2.141  0.3214 -0.1893 -0.3283
  252MOL0     C33950   5.715  12.406   2.083 -0.7785 -0.4028 -0.0168
  252MOL0     C33951   5.646  11.702   2.034  0.1600 -0.3323 -0.1785
  252MOL0     C33952   5.662  11.581   1.960  0.2474 -0.1311  0.0767
  252MOL0     H33953   5.590  11.126   1.753 -0.5514  0.7327 -0.5873
  252MOL0     H33954   5.673  10.947   1.579  0.2211 -0.5396 -2.7628
  252MOL0     H33955   5.898  10.803   1.530  0.1938  0.4009  0.4449
  252MOL0     H33956   5.766  10.808   1.405 -1.1548  3.8865 -2.3470
  252MOL0     H33957   6.072  10.791   1.347 -0.6080 -0.7563  0.1365
  252MOL0     H33958   5.963  10.666   1.345  0.1846 -0.7280 -0.9001
  252MOL0     H33959   5.985  10.703   1.125  1.5705  2.1446 -1.0140
  252MOL0     H33960   5.824  10.747   1.153  0.7899  0.6496 -2.4136
  252MOL0     H33961   5.942  10.890   1.004 -1.6798  0.0707  0.6307
  252MOL0     H33962   5.861  10.978   1.129 -0.4571 -0.1646 -0.9099
  252MOL0     H33963   6.081  11.002   1.257  0.0346  1.1748 -0.3812
  252MOL0     H33964   6.154  10.920   1.109 -0.4660 -0.2611 -0.6602
  252MOL0     H33965   6.018  11.116   0.990  0.5934 -0.9221  0.3559
  252MOL0     H33966   5.996  11.186   1.138  2.3224  1.3749  1.2421
  252MOL0     H33967   6.201  11.282   1.127 -3.3576 -0.2861  0.5307
  252MOL0     H33968   6.288  11.127   1.127  1.5195 -0.4377 -3.8344
  252MOL0     H33969   6.350  11.270   0.936 -1.5287  2.3305 -0.4201
  252MOL0     H33970   6.179  11.261   0.878 -0.1740  3.1312  2.0640
  252MOL0     H33971   6.452  11.053   0.988  1.0764  1.1942 -1.5891
  252MOL0     H33972   6.533  10.752   0.809  1.8234 -0.0847  2.2704
  252MOL0     H33973   6.531  10.796   0.981 -0.2594 -1.2527  1.8537
  252MOL0     H33974   6.468  10.584   0.974  2.9929  3.7426  2.2548
  252MOL0     H33975   6.340  10.618   0.843  0.0078  0.4493  0.9643
  252MOL0     H33976   6.249  10.559   1.065  0.6598 -0.7250  0.2771
  252MOL0     H33977   6.187  10.711   0.992 -0.7154 -0.9382 -0.6286
  252MOL0     H33978   6.231  10.716   1.233  1.1495 -0.2839  0.3896
  252MOL0     H33979   6.351  10.825   1.152  1.3556 -0.3815  1.8676
  252MOL0     H33980   6.642  10.582   1.328  2.3403 -0.0738  1.9027
  252MOL0     H33981   6.863  10.671   1.582 -3.4465  2.2496  4.2103
  252MOL0     H33982   6.768  10.569   1.658  2.2837 -0.0642  0.3512
  252MOL0     H33983   6.809  10.530   1.479  1.3912  0.9356 -0.0387
  252MOL0     H33984   6.409  10.841   2.020 -0.3209 -0.1468  3.5298
  252MOL0     H33985   6.428  10.967   2.244 -1.3365  0.7296 -0.2111
  252MOL0     H33986   6.789  11.029   2.401 -3.0568 -3.2844 -1.1769
  252MOL0     H33987   6.791  11.207   2.363 -0.6011  2.3355  1.2923
  252MOL0     H33988   6.602  11.231   2.524 -0.2360 -1.0135 -1.5711
  252MOL0     H33989   6.635  11.063   2.572  0.8038  0.2902  3.1631
  252MOL0     H33990   6.851  11.116   2.659 -1.3455 -1.6773 -1.1954
  252MOL0     H33991   6.724  11.214   2.728 -1.2147 -1.0918  0.3243
  252MOL0     H33992   6.953  11.275   2.539 -2.9170 -2.2534 -0.4804
  252MOL0     H33993   6.808  11.381   2.534 -0.7603 -0.3054 -0.3695
  252MOL0     H33994   6.986  11.350   2.777 -2.6709 -0.6826  2.1181
  252MOL0     H33995   6.827  11.430   2.769 -0.1550  0.3849  0.5266
  252MOL0     H33996   7.034  11.583   2.752  3.2371  0.8776 -1.3880
  252MOL0     H33997   7.081  11.503   2.607 -1.7691  0.7002 -2.0343
  252MOL0     H33998   6.861  11.572   2.496 -1.0795  1.0997 -0.3184
  252MOL0     H33999   6.986  11.695   2.539  1.4703 -1.9780  0.6376
  252MOL0     H34000   6.854  11.754   2.738  0.0168  2.4004 -1.3677
  252MOL0     H34001   6.726  11.637   2.698  1.8220 -1.0558 -0.3593
  252MOL0     H34002   6.811  11.113   2.133 -0.3744 -0.9587  3.6384
  252MOL0     H34003   6.809  10.975   1.921 -0.8732 -1.4409 -0.9490
  252MOL0     H34004   6.415  10.906   1.616  2.5160  0.4607  1.0716
  252MOL0     H34005   6.325  10.854   1.408 -0.1126  2.0589  4.9348
  252MOL0     H34006   5.976  11.209   1.450 -0.3839 -4.8419 -0.5055
  252MOL0     H34007   5.892  11.394   1.630 -1.0697  0.3182  4.4039
  252MOL0     H34008   5.443  11.638   1.701  1.4801 -0.7289 -1.4850
  252MOL0     H34009   5.408  11.840   1.837 -1.3062 -0.4982 -0.4157
  252MOL0     H34010   5.378  11.995   2.003  0.7910 -0.8389 -1.0035
  252MOL0     H34011   5.336  11.871   2.112  1.1470 -2.2099 -0.9435
  252MOL0     H34012   5.445  12.014   2.300  3.1625 -0.7324 -2.9602
  252MOL0     H34013   5.288  12.057   2.235  0.2135  0.3900  1.6918
  252MOL0     H34014   5.386  12.265   2.255  0.3656  1.3562  0.3312
  252MOL0     H34015   5.422  12.235   2.081 -1.2614  1.9712  0.4179
  252MOL0     H34016   5.642  12.115   2.176 -3.5685 -1.9149  2.2541
  252MOL0     H34017   5.595  12.209   2.319  2.1729  1.6126  0.3476
  252MOL0     H34018   5.764  12.485   2.030  0.5238 -0.5341  0.9425
  252MOL0     H34019   5.710  11.731   2.117 -2.5350  0.8152  1.6362
  252MOL0     H34020   5.747  11.515   1.978  1.1079  0.5517 -1.2479
  253MOL0     O34021   5.035   5.458   3.412  0.2725  0.2499  0.1014
  253MOL0     C34022   5.105   5.355   3.420  0.2303 -0.2321  0.5381
  253MOL0     O34023   5.083   5.251   3.510 -0.3589  0.3412 -0.8055
  253MOL0     C34024   4.953   5.247   3.568  0.6558  0.7750 -0.0635
  253MOL0     C34025   4.930   5.310   3.694  0.1996 -0.3300  0.1378
  253MOL0     C34026   4.816   5.285   3.771  0.6706  0.2709 -1.0639
  253MOL0     C34027   4.718   5.187   3.730  0.0216 -0.4161 -0.1648
  253MOL0     O34028   4.596   5.174   3.792 -0.6540 -0.1481 -0.2477
  253MOL0     C34029   4.595   5.111   3.913 -0.3041 -0.0365 -1.2333
  253MOL0     C34030   4.632   4.964   3.908 -0.6774  0.1370  0.9999
  253MOL0     C34031   4.527   4.878   3.818  0.2688  0.3517 -0.8687
  253MOL0     C34032   4.379   4.929   3.823 -0.7464 -0.2555 -1.0223
  253MOL0     C34033   4.273   4.842   3.750 -0.3185 -0.1823 -0.2427
  253MOL0     C34034   4.134   4.909   3.752 -0.5489  1.1485  0.4061
  253MOL0     C34035   4.025   4.839   3.675  1.0950  0.8451  0.3167
  253MOL0     C34036   3.974   4.710   3.738  0.5680  0.5485  0.2366
  253MOL0     N34037   3.839   4.677   3.697 -0.1862 -0.7413  0.6715
  253MOL0     C34038   3.726   4.724   3.771 -0.0065 -0.0146  0.2418
  253MOL0     C34039   3.622   4.679   3.697 -0.3155  0.5338  0.3806
  253MOL0     C34040   3.467   4.691   3.716 -0.9165 -0.0957  1.0983
  253MOL0     C34041   3.425   4.716   3.857  0.2023 -0.9004 -0.7479
  253MOL0     C34042   3.275   4.755   3.889 -0.1824  0.0733  0.4772
  253MOL0     C34043   3.176   4.715   3.781 -0.2872  0.6050  0.1738
  253MOL0     O34044   3.036   4.746   3.816 -0.3582 -0.1457  0.2355
  253MOL0     C34045   2.939   4.771   3.720  0.5919  1.2624 -0.1702
  253MOL0     C34046   2.968   4.817   3.596 -0.0067 -0.2020  0.6885
  253MOL0     C34047   2.869   4.840   3.499 -0.2627 -0.6755  0.3093
  253MOL0     C34048   2.917   4.911   3.377  0.3778 -0.7911  0.9087
  253MOL0     C34049   2.732   4.823   3.536 -0.0652  0.0917  0.0345
  253MOL0     C34050   2.614   4.842   3.451 -0.0036  0.1368  0.8713
  253MOL0     O34051   2.618   4.815   3.315 -0.0475 -0.0514  0.1484
  253MOL0     C34052   2.518   4.847   3.234  0.7756  0.6588  0.5294
  253MOL0     C34053   2.440   4.742   3.183 -0.2196 -0.6595  1.0689
  253MOL0     C34054   2.313   4.772   3.121 -0.1822  0.1078  0.6150
  253MOL0     C34055   2.274   4.904   3.108 -0.0714 -0.2713  0.1342
  253MOL0     O34056   2.155   4.927   3.053 -0.7013 -0.9811  0.7836
  253MOL0     C34057   2.155   5.011   2.931 -0.1813  0.0639 -0.2661
  253MOL0     C34058   2.019   5.012   2.855  0.6277 -0.7541 -0.1115
  253MOL0     C34059   1.990   4.884   2.771  0.5942  0.3463 -0.3331
  253MOL0     C34060   1.860   4.819   2.834 -0.6363  1.0692  0.4504
  253MOL0     C34061   1.889   4.731   2.956 -1.9326 -1.2919 -0.5275
  253MOL0     C34062   1.773   4.652   3.021  0.5746 -0.0978 -0.1171
  253MOL0     C34063   1.809   4.542   3.118  0.3101  0.5455 -1.1325
  253MOL0     C34064   1.711   4.518   3.225  0.1300  0.1101 -0.0967
  253MOL0    Cl34065   1.759   4.380   3.314  0.2875 -0.2463 -0.3085
  253MOL0     C34066   2.357   5.010   3.148 -0.2290 -0.1452  0.5228
  253MOL0     C34067   2.481   4.985   3.216  0.0378  0.1305  0.8739
  253MOL0     O34068   2.512   4.882   3.508 -0.2391  0.0074 -0.5957
  253MOL0     C34069   2.708   4.765   3.663 -0.6830 -0.4726  0.5791
  253MOL0     C34070   2.810   4.741   3.755  0.0310  0.1259  0.8415
  253MOL0     N34071   3.667   4.609   3.584 -0.8015  0.2577  0.1634
  253MOL0     N34072   3.800   4.606   3.587 -0.3242  0.3626  0.1682
  253MOL0     C34073   4.741   5.129   3.605  0.2975 -0.1105 -1.1395
  253MOL0     C34074   4.850   5.156   3.526 -0.5559 -0.2643  0.9136
  253MOL0     C34075   5.220   5.351   3.341 -0.3826 -0.0324  0.1012
  253MOL0     C34076   5.296   5.233   3.335 -0.7419  0.8637  0.2814
  253MOL0     C34077   5.414   5.234   3.259 -0.1622 -0.8699  0.2292
  253MOL0     C34078   5.451   5.352   3.182  1.0839 -1.1346 -0.4194
  253MOL0     O34079   5.551   5.360   3.097 -0.5518 -0.5105  0.0375
  253MOL0     C34080   5.639   5.249   3.090  0.1508  0.1073 -0.5939
  253MOL0     C34081   5.751   5.295   3.003 -0.3076 -0.1202  1.0713
  253MOL0     C34082   5.868   5.184   3.002  0.3873 -0.1118  0.4752
  253MOL0     C34083   5.996   5.209   3.080 -0.7835 -0.0474  0.3678
  253MOL0     C34084   5.988   5.216   3.224  0.0170  0.1163 -0.1920
  253MOL0     C34085   5.982   5.221   3.343  1.2781  0.9470 -0.4188
  253MOL0     C34086   5.368   5.464   3.189  0.2408  0.4876  0.0629
  253MOL0     C34087   5.259   5.467   3.265  0.1658 -0.3328 -0.4828
  253MOL0     H34088   5.011   5.362   3.744  0.2133 -2.3904  2.3941
  253MOL0     H34089   4.806   5.347   3.860  0.2613 -0.4800 -0.5831
  253MOL0     H34090   4.653   5.171   3.984  2.3933 -1.7403 -1.8564
  253MOL0     H34091   4.492   5.120   3.948  0.4748 -1.7946  1.9742
  253MOL0     H34092   4.730   4.960   3.861  0.1325  4.2697  1.9678
  253MOL0     H34093   4.629   4.933   4.013  1.3296 -1.8575  0.5408
  253MOL0     H34094   4.567   4.888   3.717  0.4097 -1.7234 -1.0575
  253MOL0     H34095   4.546   4.774   3.845 -0.6107  0.4160  0.0567
  253MOL0     H34096   4.348   4.931   3.928 -2.5195  1.1334 -1.5226
  253MOL0     H34097   4.376   5.029   3.778  1.3753 -1.3650 -3.9119
  253MOL0     H34098   4.317   4.824   3.651  0.5739 -1.2225  0.3180
  253MOL0     H34099   4.270   4.748   3.807  0.7968  0.3549  0.7338
  253MOL0     H34100   4.093   4.930   3.852 -2.0783 -1.4232  0.4241
  253MOL0     H34101   4.155   5.003   3.700  0.8735 -0.0047 -1.2365
  253MOL0     H34102   3.936   4.900   3.657 -0.9641 -1.7049  1.2436
  253MOL0     H34103   4.067   4.805   3.580  0.0243  2.9843 -1.0062
  253MOL0     H34104   3.973   4.731   3.846 -1.1427  2.9626 -0.1465
  253MOL0     H34105   4.036   4.627   3.706 -0.0429 -0.1029  0.7131
  253MOL0     H34106   3.715   4.785   3.861 -1.3949  2.2578 -1.3609
  253MOL0     H34107   3.426   4.768   3.650 -0.4231 -3.5552 -3.7785
  253MOL0     H34108   3.421   4.596   3.688 -1.2611  0.5457 -0.6146
  253MOL0     H34109   3.491   4.785   3.912  1.9485 -0.8893 -2.7604
  253MOL0     H34110   3.431   4.625   3.917 -0.1963 -0.9949 -0.8494
  253MOL0     H34111   3.265   4.864   3.882 -1.0284  0.1191  1.9660
  253MOL0     H34112   3.251   4.719   3.990 -1.8982 -0.7399 -0.1957
  253MOL0     H34113   3.180   4.611   3.746  0.8717  0.3880  0.9087
  253MOL0     H34114   3.199   4.777   3.695 -2.3046 -0.4291 -1.2059
  253MOL0     H34115   3.066   4.862   3.585 -1.1772  2.0987 -0.9866
  253MOL0     H34116   2.922   4.841   3.293 -0.3224 -0.0818  0.2620
  253MOL0     H34117   2.848   4.991   3.350  2.7264  1.4017  0.9590
  253MOL0     H34118   3.016   4.956   3.393 -0.2557  1.1530 -0.3571
  253MOL0     H34119   2.473   4.638   3.185 -0.8251 -0.8437  2.0140
  253MOL0     H34120   2.240   4.706   3.075  0.0575  0.3324 -0.0907
  253MOL0     H34121   2.176   5.114   2.962 -0.5094  0.1282 -0.2491
  253MOL0     H34122   2.231   4.978   2.860 -1.0445 -0.6353 -0.8959
  253MOL0     H34123   1.944   5.035   2.931  1.8275  3.6081  0.0237
  253MOL0     H34124   2.019   5.097   2.786 -0.2426 -0.7354 -0.1025
  253MOL0     H34125   2.076   4.816   2.762  1.2097  1.3158 -2.1238
  253MOL0     H34126   1.971   4.919   2.669 -0.9514 -0.8738 -0.5027
  253MOL0     H34127   1.780   4.891   2.852  0.0036  1.4636  1.8444
  253MOL0     H34128   1.821   4.759   2.751  0.5805  4.0577 -2.5260
  253MOL0     H34129   1.940   4.790   3.033 -0.8936 -1.6115 -0.9492
  253MOL0     H34130   1.963   4.658   2.923  0.9832  1.5765 -0.8469
  253MOL0     H34131   1.703   4.727   3.059  2.1933  1.8455 -0.7419
  253MOL0     H34132   1.716   4.593   2.948 -0.3032 -0.5503  0.9156
  253MOL0     H34133   1.902   4.560   3.173 -1.8451  0.7278  2.8889
  253MOL0     H34134   1.819   4.443   3.072 -3.4667  0.0690 -1.2068
  253MOL0     H34135   1.614   4.500   3.176 -0.0304  2.6594 -0.8417
  253MOL0     H34136   1.699   4.593   3.303  2.2657 -1.4658  1.8635
  253MOL0     H34137   2.319   5.112   3.145  0.3139  0.0636 -3.1886
  253MOL0     H34138   2.533   5.061   3.272  0.9526 -0.4444  0.8323
  253MOL0     H34139   2.608   4.756   3.704 -1.5964  0.8679 -1.2472
  253MOL0     H34140   2.783   4.699   3.852 -1.3428  0.0736  0.4602
  253MOL0     H34141   4.664   5.077   3.549 -1.0455  2.0829 -1.4441
  253MOL0     H34142   4.846   5.103   3.432  0.1670 -0.2174  0.8517
  253MOL0     H34143   5.264   5.138   3.377  1.4487 -0.9641 -1.8596
  253MOL0     H34144   5.470   5.141   3.257  3.3703  1.0846  1.0371
  253MOL0     H34145   5.683   5.227   3.188 -1.2062 -0.0206  0.0106
  253MOL0     H34146   5.581   5.165   3.051 -2.8274  2.2551 -1.0673
  253MOL0     H34147   5.784   5.392   3.042 -0.6861  1.4054 -2.0544
  253MOL0     H34148   5.711   5.316   2.903  0.7391  1.1110  0.8891
  253MOL0     H34149   5.888   5.165   2.896 -2.0635 -1.1147  0.1116
  253MOL0     H34150   5.822   5.093   3.041  0.8882 -0.1063  1.0815
  253MOL0     H34151   6.039   5.306   3.054  0.9987 -0.6766  0.8453
  253MOL0     H34152   6.065   5.132   3.046  0.9865  2.8236 -3.2386
  253MOL0     H34153   5.995   5.220   3.449 -1.1338  1.4501 -0.0599
  253MOL0     H34154   5.382   5.560   3.140  2.0840 -0.2112 -0.8782
  253MOL0     H34155   5.194   5.554   3.266  0.5017 -0.0679 -1.1348
  254MOL0     O34156   1.995   5.092   8.576  0.1450 -0.9473 -0.3361
  254MOL0     C34157   2.082   5.130   8.653 -0.2751 -0.1398 -0.1120
  254MOL0     O34158   2.169   5.239   8.635  0.2879  0.0188 -0.0163
  254MOL0     C34159   2.170   5.319   8.527  0.2605  0.0710  0.0981
  254MOL0     C34160   2.285   5.357   8.461 -0.1928  0.2975 -0.0874
  254MOL0     C34161   2.277   5.449   8.352 -0.2837 -0.5444 -0.5329
  254MOL0     C34162   2.150   5.491   8.310  0.1848 -0.5305 -0.3296
  254MOL0     O34163   2.160   5.575   8.201  1.2768  0.2986  1.0762
  254MOL0     C34164   2.065   5.570   8.094 -0.0348 -0.9223  0.1877
  254MOL0     C34165   1.999   5.709   8.068  0.2192 -0.4564 -0.1429
  254MOL0     C34166   1.897   5.742   8.179 -1.0054 -0.2062  0.0124
  254MOL0     C34167   1.840   5.883   8.158 -0.4492  0.6403  0.1939
  254MOL0     C34168   1.724   5.907   8.247  0.5000  0.1952  0.4764
  254MOL0     C34169   1.676   6.050   8.226  0.2889 -0.8810 -0.5191
  254MOL0     C34170   1.584   6.068   8.095 -0.3541  0.5821  0.4545
  254MOL0     C34171   1.450   6.004   8.107  0.2137  0.1927 -0.5549
  254MOL0     N34172   1.370   6.007   7.981  0.1132 -0.7650 -0.7480
  254MOL0     C34173   1.334   6.126   7.925  0.2724 -0.2324  0.0103
  254MOL0     C34174   1.261   6.079   7.818 -1.0020 -0.5377  0.0480
  254MOL0     C34175   1.226   6.153   7.690 -0.5037  0.2065  0.9365
  254MOL0     C34176   1.078   6.194   7.694 -0.8186  0.2645 -0.1838
  254MOL0     C34177   1.051   6.278   7.567  1.1465 -0.5734  0.0760
  254MOL0     C34178   0.906   6.339   7.582  0.3519  0.1856 -0.6832
  254MOL0     O34179   0.814   6.231   7.568  0.0756  0.5137  0.1022
  254MOL0     C34180   0.686   6.268   7.526 -0.4410 -0.4225 -0.4530
  254MOL0     C34181   0.623   6.163   7.471  0.5340 -0.3404  0.1293
  254MOL0     C34182   0.496   6.168   7.419  0.0588 -0.8707  0.3575
  254MOL0     C34183   0.450   6.056   7.324  0.0138  1.3824  0.5032
  254MOL0     C34184   0.432   6.295   7.423 -0.5092  1.2120  0.0764
  254MOL0     C34185   0.305   6.322   7.355  0.7435 -0.1581 -0.9911
  254MOL0     O34186   0.227   6.217   7.329 -0.0863  0.5031 -0.7569
  254MOL0     C34187   0.100   6.217   7.303  0.4229  0.1044 -0.4396
  254MOL0     C34188   0.006   6.259   7.395 -0.2736 -0.0813 -0.2505
  254MOL0     C34189  -0.127   6.245   7.366  0.1808 -0.3027 -0.4478
  254MOL0     C34190  -0.184   6.182   7.258  0.2852  0.7834 -0.6317
  254MOL0     O34191  -0.307   6.174   7.219  0.2069 -0.2284 -0.1732
  254MOL0     C34192  -0.412   6.182   7.316  0.3597 -0.2793  0.7903
  254MOL0     C34193  -0.544   6.167   7.249  1.1459 -0.3142 -0.1704
  254MOL0     C34194  -0.583   6.288   7.163  0.1532  0.2912  0.8975
  254MOL0     C34195  -0.713   6.260   7.090  0.0841  0.2240 -0.6740
  254MOL0     C34196  -0.748   6.387   7.018 -0.4740 -0.3758  0.7428
  254MOL0     C34197  -0.880   6.362   6.942 -0.1293  0.3103  0.0638
  254MOL0     C34198  -0.917   6.487   6.854 -0.2267  0.3653  0.0534
  254MOL0     C34199  -1.045   6.482   6.774 -0.2015  0.2670 -0.5084
  254MOL0    Cl34200  -1.176   6.465   6.898  0.2240 -0.2044  0.0246
  254MOL0     C34201  -0.086   6.131   7.168  0.6323  0.1019 -0.2445
  254MOL0     C34202   0.050   6.151   7.191  0.2280 -0.2355  0.2151
  254MOL0     O34203   0.284   6.437   7.316 -0.5746 -0.6623  0.0439
  254MOL0     C34204   0.487   6.403   7.489  0.7394  1.3374 -0.2634
  254MOL0     C34205   0.611   6.380   7.545 -0.3539 -0.6891  0.0367
  254MOL0     N34206   1.246   5.944   7.820 -0.4140 -0.2015  0.8307
  254MOL0     N34207   1.310   5.904   7.921 -0.1589  0.6997 -0.0701
  254MOL0     C34208   2.032   5.449   8.380  0.2756 -0.8057  0.0402
  254MOL0     C34209   2.043   5.362   8.488  0.5268 -1.2577 -0.5187
  254MOL0     C34210   2.084   5.049   8.780 -0.3096 -0.4240  0.2980
  254MOL0     C34211   2.196   5.059   8.861 -0.1139 -0.0539 -0.6046
  254MOL0     C34212   2.199   4.987   8.977 -0.6489 -0.3877 -0.8242
  254MOL0     C34213   2.098   4.892   9.010  0.2107  0.4111  0.6007
  254MOL0     O34214   2.097   4.815   9.125 -0.7332  0.3758 -0.4057
  254MOL0     C34215   2.212   4.797   9.209 -0.1840  0.5163 -0.2046
  254MOL0     C34216   2.192   4.669   9.297 -0.1998  0.0367 -0.7388
  254MOL0     C34217   2.063   4.672   9.378 -0.6715  0.2040  0.6484
  254MOL0     C34218   2.057   4.758   9.508 -0.1804 -0.5183 -0.0483
  254MOL0     C34219   1.921   4.805   9.534 -0.2514  0.8721 -0.1328
  254MOL0     C34220   1.803   4.845   9.548 -1.4229  0.1695 -1.0723
  254MOL0     C34221   1.985   4.878   8.929 -0.3961  0.6172 -0.3237
  254MOL0     C34222   1.981   4.967   8.813  1.3230  0.4129 -0.3405
  254MOL0     H34223   2.387   5.325   8.481  0.7341  2.5146 -0.9188
  254MOL0     H34224   2.368   5.483   8.303  1.0491  0.8494  2.6404
  254MOL0     H34225   2.116   5.543   8.001 -2.7520 -1.6932 -1.1954
  254MOL0     H34226   1.982   5.504   8.121 -1.3500  1.3626  2.0342
  254MOL0     H34227   2.070   5.791   8.056  0.5894 -0.7048  0.3385
  254MOL0     H34228   1.946   5.697   7.972  2.1911  1.2157 -1.5331
  254MOL0     H34229   1.822   5.663   8.192 -3.0406  1.9254  2.4209
  254MOL0     H34230   1.960   5.751   8.268  1.8696 -1.9490 -1.7194
  254MOL0     H34231   1.923   5.951   8.180 -1.6840  1.8585  1.2675
  254MOL0     H34232   1.810   5.890   8.053 -4.1748 -1.6069  0.9119
  254MOL0     H34233   1.643   5.836   8.228  1.3805 -1.0280  1.0934
  254MOL0     H34234   1.745   5.909   8.355 -0.5202  5.9278  0.8970
  254MOL0     H34235   1.606   6.071   8.307 -0.4946 -3.6121 -0.3667
  254MOL0     H34236   1.761   6.119   8.223  1.5445 -2.3763 -0.8653
  254MOL0     H34237   1.564   6.171   8.067 -0.9066 -0.3353 -2.9341
  254MOL0     H34238   1.647   6.028   8.015  0.0031 -2.6868  2.1768
  254MOL0     H34239   1.399   6.058   8.187  2.0072  2.1119 -0.6075
  254MOL0     H34240   1.463   5.897   8.128  0.3637  0.1419 -0.8907
  254MOL0     H34241   1.369   6.228   7.928  0.8920 -0.4379 -0.0484
  254MOL0     H34242   1.291   6.240   7.677 -0.1921 -0.0288  0.8963
  254MOL0     H34243   1.240   6.090   7.601 -1.9314  2.0012 -0.6506
  254MOL0     H34244   1.068   6.236   7.795 -0.7864 -1.6115  0.6482
  254MOL0     H34245   1.021   6.101   7.686 -1.4703  0.7778 -1.8897
  254MOL0     H34246   1.056   6.214   7.478 -2.5021 -2.8793  1.3297
  254MOL0     H34247   1.129   6.354   7.556  0.6023  0.1266  0.9861
  254MOL0     H34248   0.884   6.415   7.506 -3.3433  0.3803  0.3800
  254MOL0     H34249   0.897   6.394   7.676  4.3218 -1.2451  0.7564
  254MOL0     H34250   0.671   6.066   7.476  2.4472  0.5872  0.9150
  254MOL0     H34251   0.535   6.007   7.278 -0.7293  0.1776  0.3593
  254MOL0     H34252   0.397   5.974   7.374 -0.6905 -1.0361 -3.7684
  254MOL0     H34253   0.384   6.079   7.240  0.4878 -0.5472 -0.4561
  254MOL0     H34254   0.045   6.307   7.484 -1.7185 -0.3947  0.5819
  254MOL0     H34255  -0.194   6.283   7.443  0.8143  0.8227 -0.4318
  254MOL0     H34256  -0.414   6.097   7.385 -1.2535 -0.3660  0.6731
  254MOL0     H34257  -0.401   6.274   7.374 -1.2824 -0.1247  0.8931
  254MOL0     H34258  -0.538   6.079   7.186 -2.7405 -1.8759  1.3337
  254MOL0     H34259  -0.616   6.157   7.331  0.0233  4.6027 -0.2379
  254MOL0     H34260  -0.513   6.308   7.081  0.1788  2.2699  1.3389
  254MOL0     H34261  -0.588   6.381   7.221 -1.1375  0.4759  0.5058
  254MOL0     H34262  -0.696   6.185   7.013  2.8476 -0.2703  0.2827
  254MOL0     H34263  -0.783   6.226   7.167  2.8086 -1.3456  1.2945
  254MOL0     H34264  -0.671   6.413   6.945 -0.9198  0.9928  0.7213
  254MOL0     H34265  -0.748   6.476   7.083 -0.9947  0.6981 -0.6640
  254MOL0     H34266  -0.858   6.291   6.862  1.2150  0.9963 -0.2106
  254MOL0     H34267  -0.956   6.325   7.012  0.7432 -0.2713  0.7349
  254MOL0     H34268  -0.832   6.500   6.788 -4.1343  1.4030 -5.4867
  254MOL0     H34269  -0.926   6.571   6.924 -2.3369 -2.5109  3.6655
  254MOL0     H34270  -1.050   6.400   6.702 -1.3725 -2.7742  2.7685
  254MOL0     H34271  -1.065   6.581   6.730 -1.9826  1.5203  2.8288
  254MOL0     H34272  -0.118   6.075   7.081  0.2658  1.1101 -0.7852
  254MOL0     H34273   0.127   6.113   7.124 -1.7070 -0.0729 -2.2797
  254MOL0     H34274   0.431   6.496   7.498  1.8038  2.0730 -0.9360
  254MOL0     H34275   0.653   6.464   7.600 -0.3848 -1.0335  0.5906
  254MOL0     H34276   1.936   5.470   8.334  1.9504  0.2306 -3.2397
  254MOL0     H34277   1.955   5.336   8.546  0.3044 -2.2288 -1.2622
  254MOL0     H34278   2.278   5.129   8.843 -1.8128  1.9459 -1.0399
  254MOL0     H34279   2.286   5.004   9.040 -0.0184 -0.5584 -1.6405
  254MOL0     H34280   2.297   4.760   9.150  0.6076  2.8549 -0.6339
  254MOL0     H34281   2.237   4.889   9.261 -0.2075  0.6136 -0.3635
  254MOL0     H34282   2.271   4.661   9.373  1.3007  1.1764 -2.1059
  254MOL0     H34283   2.192   4.583   9.229  0.7447 -0.4403 -0.1604
  254MOL0     H34284   2.047   4.568   9.408  0.7572 -0.5469 -1.0132
  254MOL0     H34285   1.991   4.697   9.300 -1.8564 -3.4105  0.3563
  254MOL0     H34286   2.108   4.853   9.487  0.8123 -1.1951 -0.8115
  254MOL0     H34287   2.106   4.718   9.597 -1.1391 -1.7022 -0.0212
  254MOL0     H34288   1.708   4.887   9.576  0.2219  2.7870  1.1066
  254MOL0     H34289   1.902   4.815   8.961  0.0707  1.2834  2.4946
  254MOL0     H34290   1.888   4.971   8.756 -0.1839  1.2218  2.0081
  255MOL0     O34291   3.042   1.097   3.911  0.2594 -0.0034  0.3858
  255MOL0     C34292   2.991   1.202   3.884  0.2176  0.3913 -0.6364
  255MOL0     O34293   2.935   1.230   3.762 -0.9892  0.4905 -0.2626
  255MOL0     C34294   2.951   1.160   3.646  0.4164 -0.2418  0.1141
  255MOL0     C34295   2.951   1.021   3.646  0.4875 -0.8764  0.3425
  255MOL0     C34296   2.941   0.948   3.529  0.1008 -0.2371  0.8733
  255MOL0     C34297   2.927   1.023   3.409 -0.2374  0.4584  0.9142
  255MOL0     O34298   2.905   0.954   3.299  0.6616 -0.5386  0.1050
  255MOL0     C34299   2.992   0.844   3.258 -0.1442 -0.0246 -0.1993
  255MOL0     C34300   2.971   0.815   3.110  0.7455  0.6842  0.1299
  255MOL0     C34301   2.984   0.670   3.069 -0.0530  0.7043 -0.1493
  255MOL0     C34302   3.122   0.596   3.114 -0.3605  0.2780 -1.1522
  255MOL0     C34303   3.124   0.446   3.067 -0.9171 -0.0010 -1.0430
  255MOL0     C34304   3.056   0.409   2.928 -0.1325  0.3435  0.2767
  255MOL0     C34305   3.074   0.258   2.889  0.2501  0.9712  0.0545
  255MOL0     C34306   3.171   0.243   2.768  0.1630 -0.5929 -1.3146
  255MOL0     N34307   3.148   0.117   2.703  1.3173 -0.4453  0.4319
  255MOL0     C34308   3.084   0.001   2.749  0.5353  0.2050  0.3808
  255MOL0     C34309   3.097  -0.093   2.653 -0.8311 -0.5193 -0.0673
  255MOL0     C34310   3.040  -0.232   2.645  0.1398  0.2571 -0.1103
  255MOL0     C34311   2.891  -0.246   2.618  0.2220 -0.0293  0.0238
  255MOL0     C34312   2.866  -0.211   2.474 -0.1680 -0.5161 -0.8046
  255MOL0     C34313   2.713  -0.203   2.445 -0.5535 -0.0887  0.7863
  255MOL0     O34314   2.686  -0.185   2.305 -0.9139 -0.1729  0.4934
  255MOL0     C34315   2.662  -0.048   2.273 -0.2719 -0.3564 -0.8494
  255MOL0     C34316   2.548   0.018   2.312 -0.4039 -0.3058 -0.2618
  255MOL0     C34317   2.528   0.155   2.280  0.3829  0.2100 -0.3349
  255MOL0     C34318   2.385   0.205   2.315 -1.2294  0.8326  0.1420
  255MOL0     C34319   2.632   0.236   2.235 -0.4043 -1.0344  0.4872
  255MOL0     C34320   2.627   0.385   2.192  0.1661  0.2981 -0.5894
  255MOL0     O34321   2.701   0.417   2.086 -0.8764  0.0044 -0.2545
  255MOL0     C34322   2.693   0.546   2.037  0.1015  0.5214  0.9914
  255MOL0     C34323   2.675   0.566   1.903  0.0642  0.8677 -0.6430
  255MOL0     C34324   2.667   0.703   1.859 -0.1863  0.2473  0.1207
  255MOL0     C34325   2.682   0.813   1.950  0.6530 -0.6598  0.5860
  255MOL0     O34326   2.686   0.945   1.899 -0.9842  0.1117 -0.4028
  255MOL0     C34327   2.701   1.058   1.994  0.5466  0.4299 -0.9596
  255MOL0     C34328   2.568   1.092   2.069  0.0145  0.6471  0.4348
  255MOL0     C34329   2.470   1.149   1.967  0.0835  0.3502  0.0040
  255MOL0     C34330   2.355   1.225   2.025 -0.8758  1.1606 -0.1512
  255MOL0     C34331   2.293   1.312   1.916 -0.5888  0.1827  0.3037
  255MOL0     C34332   2.232   1.249   1.786  0.0885 -0.7238  0.4845
  255MOL0     C34333   2.141   1.338   1.702  0.2785 -1.1049 -0.4950
  255MOL0     C34334   2.025   1.263   1.644  0.6210 -0.1056  0.3255
  255MOL0    Cl34335   1.926   1.387   1.557 -0.2683 -0.3103 -0.1527
  255MOL0     C34336   2.706   0.776   2.088  0.3551 -0.5159  0.4912
  255MOL0     C34337   2.728   0.649   2.126  0.7468 -0.5438 -0.5672
  255MOL0     O34338   2.556   0.458   2.256 -0.1685 -0.8189 -0.6958
  255MOL0     C34339   2.750   0.166   2.203  0.8777 -0.6122  0.0922
  255MOL0     C34340   2.759   0.029   2.223 -0.5660 -1.2795 -0.8395
  255MOL0     N34341   3.160  -0.030   2.546 -0.5347  0.3550 -0.3969
  255MOL0     N34342   3.184   0.092   2.578 -0.7340  0.4409 -0.3364
  255MOL0     C34343   2.916   1.160   3.412 -0.3344  1.1027 -1.3165
  255MOL0     C34344   2.938   1.230   3.530  0.6392  0.2307 -1.0352
  255MOL0     C34345   2.991   1.307   3.980  0.0088 -0.2741  0.4376
  255MOL0     C34346   3.053   1.292   4.106 -0.2510  0.5824  0.3348
  255MOL0     C34347   3.037   1.382   4.203 -0.7109 -0.1328 -0.9069
  255MOL0     C34348   2.982   1.506   4.180  1.3271 -1.0036 -0.0789
  255MOL0     O34349   2.994   1.600   4.289  0.5286 -0.0391 -0.4913
  255MOL0     C34350   2.931   1.734   4.274 -0.9412  1.2667 -0.6006
  255MOL0     C34351   2.878   1.775   4.410  0.4945 -0.4254  0.8884
  255MOL0     C34352   2.874   1.928   4.420  0.1797  0.3188  0.2658
  255MOL0     C34353   2.994   1.982   4.491 -0.5201 -0.6205 -1.1205
  255MOL0     C34354   3.120   1.964   4.427 -0.0772  0.1511  0.0996
  255MOL0     C34355   3.226   1.945   4.367  0.4348 -0.7756  0.2929
  255MOL0     C34356   2.923   1.523   4.056 -0.6034  0.3136  0.7018
  255MOL0     C34357   2.922   1.424   3.964  0.8264 -0.5231 -0.0142
  255MOL0     H34358   2.958   0.959   3.735  1.9503 -1.5765 -0.2217
  255MOL0     H34359   2.945   0.840   3.538  1.2871 -0.1641  1.4428
  255MOL0     H34360   3.097   0.873   3.266 -0.7029  1.5932  2.5574
  255MOL0     H34361   2.983   0.759   3.326 -1.1629 -0.2656 -0.6165
  255MOL0     H34362   2.876   0.861   3.082 -0.2302 -1.1049  0.4082
  255MOL0     H34363   3.038   0.883   3.056 -0.4893  2.4232  0.6669
  255MOL0     H34364   2.901   0.614   3.113  1.9331 -0.7553  2.0771
  255MOL0     H34365   2.975   0.680   2.961 -1.3283  0.7368 -0.0519
  255MOL0     H34366   3.209   0.651   3.077  0.0742  2.1546  2.1892
  255MOL0     H34367   3.136   0.592   3.223 -0.7729  1.1091 -1.0615
  255MOL0     H34368   3.227   0.411   3.051 -0.6033  0.3838  0.0057
  255MOL0     H34369   3.091   0.383   3.151 -1.1534  1.6598  0.1614
  255MOL0     H34370   2.949   0.431   2.933 -0.0340  0.5534  1.9858
  255MOL0     H34371   3.097   0.478   2.853  0.1006 -2.1411 -1.9899
  255MOL0     H34372   3.120   0.193   2.964 -1.1340  0.2887  0.3391
  255MOL0     H34373   2.972   0.231   2.861  0.6575 -0.1647 -0.3710
  255MOL0     H34374   3.278   0.253   2.789 -0.3847 -0.8663  2.2132
  255MOL0     H34375   3.157   0.318   2.689  1.2092 -0.6361 -1.5550
  255MOL0     H34376   3.028  -0.030   2.838  0.7450 -0.5588  0.2512
  255MOL0     H34377   3.093  -0.277   2.561 -0.3459  0.3054 -0.4455
  255MOL0     H34378   3.065  -0.273   2.743  1.5046  1.9927  0.3211
  255MOL0     H34379   2.838  -0.178   2.685 -1.7181 -1.2993 -0.1493
  255MOL0     H34380   2.858  -0.350   2.629  1.8433 -0.8475 -2.0584
  255MOL0     H34381   2.909  -0.282   2.402 -0.6872 -1.9684  0.2663
  255MOL0     H34382   2.902  -0.108   2.465 -2.0449  0.4677  1.8446
  255MOL0     H34383   2.667  -0.127   2.509  0.7795  0.4017  1.1961
  255MOL0     H34384   2.668  -0.299   2.471 -0.4556 -1.1302 -2.3936
  255MOL0     H34385   2.462  -0.035   2.354 -1.1441  1.3645  0.4082
  255MOL0     H34386   2.376   0.302   2.266 -0.6032  0.8758  0.1150
  255MOL0     H34387   2.309   0.132   2.282 -0.8210 -0.0427  1.0866
  255MOL0     H34388   2.375   0.225   2.422  1.3199  2.2144  0.1902
  255MOL0     H34389   2.653   0.477   1.846  1.3346 -0.1972  0.4568
  255MOL0     H34390   2.666   0.720   1.751 -1.1205 -0.2393  0.0381
  255MOL0     H34391   2.775   1.028   2.069  0.8218  1.1921 -0.9171
  255MOL0     H34392   2.739   1.147   1.943  1.7135  0.4169 -0.1685
  255MOL0     H34393   2.519   1.005   2.114 -0.7680  0.0951 -1.3939
  255MOL0     H34394   2.600   1.158   2.150  2.0867  1.1631 -0.7331
  255MOL0     H34395   2.433   1.058   1.917 -3.0259 -1.9216  5.4864
  255MOL0     H34396   2.533   1.213   1.906  0.8421  0.0182  0.4181
  255MOL0     H34397   2.278   1.160   2.068  2.5984 -2.2096  1.5811
  255MOL0     H34398   2.395   1.283   2.109 -1.5714 -0.5136  1.4006
  255MOL0     H34399   2.362   1.388   1.879  1.1581 -1.2552  0.5090
  255MOL0     H34400   2.214   1.371   1.964 -0.8071 -1.2847  1.8715
  255MOL0     H34401   2.311   1.228   1.714 -0.4923  2.4377 -1.2572
  255MOL0     H34402   2.174   1.163   1.820 -0.1938  0.2408  2.6439
  255MOL0     H34403   2.196   1.395   1.627 -0.5317 -0.0096 -0.2724
  255MOL0     H34404   2.095   1.415   1.765 -1.0219 -1.4355 -1.0046
  255MOL0     H34405   1.981   1.191   1.713  0.6293 -0.0947  0.3429
  255MOL0     H34406   2.055   1.194   1.565 -2.2130 -1.9610  0.7266
  255MOL0     H34407   2.723   0.855   2.161  1.9134  1.0448 -1.4255
  255MOL0     H34408   2.786   0.635   2.216  2.4520  1.5707 -1.2286
  255MOL0     H34409   2.842   0.217   2.179  3.3601 -4.0169  1.5733
  255MOL0     H34410   2.855  -0.015   2.196 -1.3551 -2.2783 -2.1614
  255MOL0     H34411   2.909   1.214   3.318 -2.0253  0.7883 -1.4179
  255MOL0     H34412   2.945   1.338   3.524  0.2471  0.3516  0.3225
  255MOL0     H34413   3.118   1.206   4.120  0.2841  0.8974 -0.1544
  255MOL0     H34414   3.074   1.370   4.304 -0.1990  0.1810 -1.0551
  255MOL0     H34415   3.009   1.809   4.259 -1.4813  2.6109  2.5900
  255MOL0     H34416   2.858   1.726   4.193  0.6514 -2.0388 -1.8968
  255MOL0     H34417   2.930   1.729   4.495 -1.9153 -1.2576  2.0008
  255MOL0     H34418   2.775   1.741   4.422  0.2150  0.1896  0.3052
  255MOL0     H34419   2.788   1.954   4.483  0.7087 -0.9351  1.5685
  255MOL0     H34420   2.857   1.970   4.321 -2.1922 -0.4897  0.2695
  255MOL0     H34421   2.995   1.935   4.589  1.2228 -0.9316 -1.2451
  255MOL0     H34422   2.983   2.090   4.502 -0.5936 -0.5383 -1.9390
  255MOL0     H34423   3.322   1.929   4.322  1.3246  1.2384  1.3094
  255MOL0     H34424   2.874   1.613   4.020  1.7185  0.0613 -3.8005
  255MOL0     H34425   2.866   1.442   3.872  0.5501  0.5857  0.3561
  256MOL0     O34426   6.723   8.422  10.645 -0.1721  0.9689  0.7681
  256MOL0     C34427   6.666   8.497  10.718  0.3503 -0.5598  0.1062
  256MOL0     O34428   6.687   8.513  10.847 -0.1245  1.0680  0.0207
  256MOL0     C34429   6.757   8.410  10.906 -0.0557 -0.6575 -0.1860
  256MOL0     C34430   6.896   8.438  10.931 -0.3060  0.2598  1.1486
  256MOL0     C34431   6.973   8.351  11.008 -0.1157  1.5450  0.6502
  256MOL0     C34432   6.922   8.230  11.053  0.1426 -0.5484  0.1573
  256MOL0     O34433   6.961   8.148  11.159  0.4173 -0.1018  0.9778
  256MOL0     C34434   7.064   8.195  11.245 -0.7237 -0.0966 -0.2401
  256MOL0     C34435   7.022   8.297  11.345 -1.1282 -0.4201 -0.9244
  256MOL0     C34436   6.960   8.222  11.470 -0.7545 -0.0437  0.0341
  256MOL0     C34437   6.844   8.114  11.448 -0.2560 -0.3470  0.4485
  256MOL0     C34438   6.706   8.177  11.406 -0.4982 -0.0292 -0.1412
  256MOL0     C34439   6.590   8.073  11.425 -0.1856 -0.1311 -0.4457
  256MOL0     C34440   6.450   8.137  11.438 -1.5773  0.3759  0.8976
  256MOL0     C34441   6.401   8.229  11.322 -0.2205 -0.4542  0.0708
  256MOL0     N34442   6.379   8.161  11.193  0.2564  0.0231 -0.4291
  256MOL0     C34443   6.254   8.154  11.136  0.6478 -0.3225  0.6816
  256MOL0     C34444   6.263   8.107  11.009 -0.7780  0.0522  0.3898
  256MOL0     C34445   6.148   8.067  10.930 -0.4350  0.3244  0.0006
  256MOL0     C34446   6.061   7.958  11.002  0.1396  0.9111 -0.6245
  256MOL0     C34447   6.142   7.845  11.076  0.4625 -0.3191 -0.4105
  256MOL0     C34448   6.226   7.767  10.971  0.1963 -0.8311  0.1327
  256MOL0     O34449   6.253   7.628  11.015  0.1485 -0.4435 -0.0458
  256MOL0     C34450   6.331   7.584  11.114 -0.6860 -0.7986  0.1763
  256MOL0     C34451   6.306   7.465  11.176  0.3996 -0.0001 -0.1802
  256MOL0     C34452   6.394   7.420  11.284 -0.6158  0.8629  0.0769
  256MOL0     C34453   6.367   7.280  11.334 -0.0162 -0.2206  0.0686
  256MOL0     C34454   6.500   7.497  11.334  0.6060 -0.4269 -0.1817
  256MOL0     C34455   6.594   7.452  11.442  1.3806 -0.4553 -0.3767
  256MOL0     O34456   6.669   7.549  11.490  0.2737  0.3178 -0.4132
  256MOL0     C34457   6.752   7.548  11.606  0.2716  0.2537  0.5417
  256MOL0     C34458   6.822   7.435  11.647  0.2414 -0.4617  0.0790
  256MOL0     C34459   6.896   7.446  11.762 -0.8235 -0.0933 -0.3439
  256MOL0     C34460   6.915   7.560  11.837  0.2295  0.1203  0.3074
  256MOL0     O34461   6.980   7.555  11.958  0.4574  0.1287 -0.3201
  256MOL0     C34462   6.890   7.552  12.074 -0.4993 -0.5935  0.0259
  256MOL0     C34463   6.963   7.633  12.184  0.4433 -0.5562 -0.2018
  256MOL0     C34464   7.103   7.597  12.216 -0.1962  0.3647 -0.5834
  256MOL0     C34465   7.148   7.710  12.314  0.4144  0.8574  0.3941
  256MOL0     C34466   7.292   7.693  12.338 -0.9669 -0.1345  0.5722
  256MOL0     C34467   7.357   7.794  12.436  0.7455 -0.5060 -0.0712
  256MOL0     C34468   7.511   7.771  12.429  0.5608 -0.4022  0.2879
  256MOL0     C34469   7.571   7.888  12.354 -0.2518 -0.4750 -0.2203
  256MOL0    Cl34470   7.754   7.885  12.363 -0.2186 -0.3060  0.7397
  256MOL0     C34471   6.847   7.671  11.799 -0.3264 -0.1105  0.2574
  256MOL0     C34472   6.764   7.665  11.686 -0.0058 -0.0344 -0.2394
  256MOL0     O34473   6.591   7.334  11.482 -0.1376  0.3050 -0.2288
  256MOL0     C34474   6.515   7.623  11.271 -0.1324  0.3337  0.0517
  256MOL0     C34475   6.431   7.666  11.168 -0.6403 -1.0621  0.5758
  256MOL0     N34476   6.399   8.074  10.997 -0.3783 -0.7301  0.3286
  256MOL0     N34477   6.464   8.108  11.102 -0.2009  0.4736 -0.5379
  256MOL0     C34478   6.786   8.201  11.021 -0.4965  0.3058  0.1502
  256MOL0     C34479   6.706   8.288  10.955  0.1222  0.3886  0.5331
  256MOL0     C34480   6.572   8.601  10.660 -0.1687  0.7266  0.1675
  256MOL0     C34481   6.564   8.621  10.520 -0.6046  0.1908  0.2953
  256MOL0     C34482   6.449   8.680  10.462 -0.5302 -0.2677  0.7068
  256MOL0     C34483   6.350   8.728  10.544  0.1373  0.7808  0.4196
  256MOL0     O34484   6.245   8.797  10.482 -0.5631  0.7974  0.0590
  256MOL0     C34485   6.170   8.895  10.551  0.5559 -0.7728  0.7833
  256MOL0     C34486   6.065   8.955  10.456  0.1874  0.0825  0.2607
  256MOL0     C34487   5.957   8.851  10.421  0.1393  0.3323 -0.0758
  256MOL0     C34488   5.842   8.855  10.525  0.3996 -0.1061 -0.2181
  256MOL0     C34489   5.755   8.736  10.537  1.1531  0.7647 -0.3277
  256MOL0     C34490   5.692   8.633  10.571 -1.1795 -0.6100  0.1884
  256MOL0     C34491   6.374   8.728  10.684  0.4505 -0.1963 -0.5787
  256MOL0     C34492   6.476   8.663  10.742 -0.5480  0.2925  0.9606
  256MOL0     H34493   6.924   8.539  10.901  0.2709 -1.0996 -3.7498
  256MOL0     H34494   7.078   8.374  11.028 -0.7929  5.3545  0.4966
  256MOL0     H34495   7.101   8.110  11.302 -1.7557 -1.4261 -1.4575
  256MOL0     H34496   7.146   8.231  11.181  0.8318 -1.2883  0.9964
  256MOL0     H34497   7.111   8.349  11.379 -1.6646  0.3376 -0.6573
  256MOL0     H34498   6.969   8.386  11.310  0.7782  1.4669  0.7551
  256MOL0     H34499   7.045   8.171  11.517 -0.4788  0.9054  0.5864
  256MOL0     H34500   6.932   8.300  11.542  2.1753  1.7237 -0.5702
  256MOL0     H34501   6.882   8.035  11.383  4.0155  1.0584  0.9528
  256MOL0     H34502   6.834   8.063  11.544  1.9590 -0.7392  0.5052
  256MOL0     H34503   6.685   8.261  11.473 -2.8095  0.3462 -1.2554
  256MOL0     H34504   6.707   8.214  11.303  2.6558  0.2146 -0.1121
  256MOL0     H34505   6.594   7.992  11.352  0.2126  0.3037 -0.9135
  256MOL0     H34506   6.593   8.034  11.527 -1.1614  3.5045  1.1288
  256MOL0     H34507   6.377   8.055  11.442 -1.8385  0.6272  1.2882
  256MOL0     H34508   6.450   8.184  11.536  0.2980  0.1280  1.0595
  256MOL0     H34509   6.475   8.310  11.314 -0.7328 -0.0253 -0.3799
  256MOL0     H34510   6.310   8.288  11.338 -0.3284 -1.5449  5.6230
  256MOL0     H34511   6.165   8.188  11.189  0.9900  0.6363  0.6678
  256MOL0     H34512   6.081   8.151  10.910 -1.2028 -0.2219  0.2601
  256MOL0     H34513   6.183   8.025  10.835  2.1594  1.3947  0.3872
  256MOL0     H34514   5.983   7.922  10.933 -0.4902 -0.4370  0.7338
  256MOL0     H34515   6.005   8.005  11.083 -1.6003 -2.6639  0.4695
  256MOL0     H34516   6.075   7.775  11.127 -0.1431 -0.9103 -1.9299
  256MOL0     H34517   6.211   7.889  11.149 -0.4271  2.8131 -1.3214
  256MOL0     H34518   6.319   7.822  10.955 -0.0697 -0.4138  0.0139
  256MOL0     H34519   6.169   7.773  10.877 -1.8438 -2.6931  1.1729
  256MOL0     H34520   6.224   7.398  11.153  0.8425 -1.2771  1.7263
  256MOL0     H34521   6.343   7.279  11.441 -2.3552  4.5235 -0.1467
  256MOL0     H34522   6.271   7.247  11.294 -1.0914  1.8061  0.8094
  256MOL0     H34523   6.447   7.211  11.306 -0.1397  0.1658 -1.2847
  256MOL0     H34524   6.830   7.340  11.596  1.0248 -1.2866  1.6542
  256MOL0     H34525   6.943   7.351  11.783 -0.1558 -1.0146 -4.9432
  256MOL0     H34526   6.802   7.614  12.055 -0.8407 -0.9278  0.4904
  256MOL0     H34527   6.873   7.448  12.104  1.2755 -0.6771  0.8855
  256MOL0     H34528   6.954   7.737  12.149  0.8561  0.5236  2.5936
  256MOL0     H34529   6.901   7.629  12.275  0.6704  0.9281  0.0575
  256MOL0     H34530   7.167   7.590  12.127 -0.9100 -3.7667 -0.9856
  256MOL0     H34531   7.111   7.502  12.270 -4.1634  0.8279  1.1545
  256MOL0     H34532   7.128   7.805  12.265 -0.0135 -0.1124 -1.4241
  256MOL0     H34533   7.089   7.721  12.405 -3.7316  2.5579 -2.2225
  256MOL0     H34534   7.355   7.684  12.249 -1.4093 -1.7621  0.3778
  256MOL0     H34535   7.303   7.595  12.387 -5.2122  0.8090  4.0334
  256MOL0     H34536   7.330   7.897  12.413  0.0058 -0.8973 -1.0476
  256MOL0     H34537   7.308   7.771  12.532 -1.5423 -0.4184 -1.1616
  256MOL0     H34538   7.528   7.674  12.382  0.4920  0.7378 -2.2828
  256MOL0     H34539   7.553   7.781  12.529  0.1571 -1.3721  0.5602
  256MOL0     H34540   7.537   7.988  12.382  4.6150  0.1647  5.2039
  256MOL0     H34541   7.545   7.863  12.250  1.9155 -2.8171 -0.3197
  256MOL0     H34542   6.856   7.767  11.849  1.0813  1.3088 -2.4873
  256MOL0     H34543   6.707   7.756  11.669 -0.1263 -0.4128 -2.1464
  256MOL0     H34544   6.589   7.692  11.311  0.4308 -0.6219  0.7036
  256MOL0     H34545   6.447   7.760  11.116  0.4754  0.4143  3.3709
  256MOL0     H34546   6.754   8.104  11.060  0.7704  0.1126  0.7583
  256MOL0     H34547   6.603   8.273  10.924  0.2050  1.3066 -0.2204
  256MOL0     H34548   6.640   8.583  10.452 -2.0765  0.8094 -1.7800
  256MOL0     H34549   6.440   8.694  10.354  0.8118 -2.7894  0.1920
  256MOL0     H34550   6.107   8.844  10.626 -3.1381 -0.7860 -2.0436
  256MOL0     H34551   6.233   8.968  10.602 -1.1333 -0.5497  2.7010
  256MOL0     H34552   6.120   8.988  10.368 -0.1315 -0.5791 -0.1891
  256MOL0     H34553   6.020   9.043  10.502 -1.3413 -0.7087  0.3480
  256MOL0     H34554   6.013   8.756  10.423  1.5252  1.1287  1.4325
  256MOL0     H34555   5.914   8.879  10.325 -2.2986  2.1582  1.4140
  256MOL0     H34556   5.788   8.950  10.532  1.9842  0.7045  2.1011
  256MOL0     H34557   5.894   8.858  10.621  0.1717 -1.9266 -0.0053
  256MOL0     H34558   5.660   8.533  10.592 -1.8377 -1.1985 -3.1145
  256MOL0     H34559   6.298   8.775  10.745 -1.4372 -2.5085 -0.9908
  256MOL0     H34560   6.472   8.649  10.850 -0.6963 -1.1439  0.7817
  257MOL0     O34561   2.975   7.822   4.114 -0.3448  0.4504 -0.6484
  257MOL0     C34562   2.864   7.771   4.133 -0.3649 -1.0727  0.0550
  257MOL0     O34563   2.770   7.807   4.221 -0.9911 -0.1299  0.3284
  257MOL0     C34564   2.795   7.912   4.313  0.9188 -0.0524  0.3951
  257MOL0     C34565   2.701   8.011   4.320  0.7355 -1.0306 -0.7846
  257MOL0     C34566   2.719   8.118   4.405  0.2633  0.2035  0.1041
  257MOL0     C34567   2.839   8.118   4.475 -0.8410 -0.2319 -0.3475
  257MOL0     O34568   2.831   8.215   4.577 -1.3539  0.1016 -0.1528
  257MOL0     C34569   2.927   8.215   4.687  0.1235  0.5529  0.5057
  257MOL0     C34570   2.868   8.287   4.809  0.1089 -0.2965  0.1124
  257MOL0     C34571   2.859   8.434   4.791  0.3499 -0.5411 -0.9344
  257MOL0     C34572   2.824   8.500   4.927 -0.1476 -0.9524  0.2418
  257MOL0     C34573   2.784   8.647   4.910  1.1374  0.9900 -0.0308
  257MOL0     C34574   2.635   8.683   4.858  0.3131  0.1454 -0.0196
  257MOL0     C34575   2.528   8.642   4.961 -0.5008 -0.3508 -0.1141
  257MOL0     C34576   2.391   8.611   4.899  0.1306  0.6782 -0.2377
  257MOL0     N34577   2.294   8.563   4.999  0.3765  0.0230  0.2217
  257MOL0     C34578   2.248   8.633   5.105  0.4780 -0.2709  0.0274
  257MOL0     C34579   2.189   8.546   5.191  0.0160 -0.0369 -0.1597
  257MOL0     C34580   2.127   8.566   5.331  0.2505 -0.3831 -0.1165
  257MOL0     C34581   1.995   8.643   5.318  0.0603 -0.5188 -1.1515
  257MOL0     C34582   1.895   8.554   5.247 -0.1096  0.1237 -0.2326
  257MOL0     C34583   1.785   8.650   5.209 -0.1509  1.1761 -0.0842
  257MOL0     O34584   1.676   8.580   5.161 -0.1635 -0.7711 -0.3390
  257MOL0     C34585   1.659   8.529   5.035  0.1262 -0.0404  0.5638
  257MOL0     C34586   1.549   8.448   5.005  0.0372  0.1355  0.2417
  257MOL0     C34587   1.521   8.394   4.881 -0.8564  0.0277  0.1215
  257MOL0     C34588   1.397   8.306   4.894  0.9495  0.2664  0.5181
  257MOL0     C34589   1.609   8.417   4.777  1.1286  0.0622 -0.9273
  257MOL0     C34590   1.582   8.365   4.647 -0.4458  0.1505 -0.0185
  257MOL0     O34591   1.451   8.348   4.621 -0.0875  0.2281  0.2137
  257MOL0     C34592   1.417   8.259   4.522  0.4177  0.5418  1.2809
  257MOL0     C34593   1.470   8.125   4.521 -0.5280  0.1546  0.0893
  257MOL0     C34594   1.416   8.034   4.425  0.5291  0.0074  0.1626
  257MOL0     C34595   1.315   8.070   4.337 -0.8986 -1.1440 -0.3325
  257MOL0     O34596   1.266   7.964   4.266 -0.6344 -0.2884  0.1120
  257MOL0     C34597   1.172   7.993   4.166 -0.3536  0.7842  0.4696
  257MOL0     C34598   1.145   7.849   4.108 -0.6212  0.0305  0.4979
  257MOL0     C34599   1.050   7.850   3.988  0.4930  0.5165  0.3804
  257MOL0     C34600   1.001   7.707   3.952  0.5801 -0.4770  0.2910
  257MOL0     C34601   0.887   7.725   3.850 -0.5034 -0.1689  0.4388
  257MOL0     C34602   0.817   7.597   3.806 -0.6937  0.9910  0.4229
  257MOL0     C34603   0.690   7.633   3.732  0.1887 -1.0359  0.1839
  257MOL0     C34604   0.634   7.512   3.647  0.2077  1.0017  0.4843
  257MOL0    Cl34605   0.482   7.540   3.557  0.4174 -0.2387 -0.6832
  257MOL0     C34606   1.262   8.197   4.341 -0.5786  0.7571 -0.3145
  257MOL0     C34607   1.314   8.297   4.430  0.2363 -0.4654 -0.6302
  257MOL0     O34608   1.682   8.339   4.583 -0.2930  0.7388 -0.5754
  257MOL0     C34609   1.713   8.508   4.801 -0.1044  0.2937  0.0815
  257MOL0     C34610   1.740   8.566   4.921 -0.3311 -0.0890  0.1121
  257MOL0     N34611   2.203   8.421   5.127 -0.0810 -0.2098  0.1145
  257MOL0     N34612   2.267   8.437   5.017 -0.1863  0.4008  1.0232
  257MOL0     C34613   2.936   8.016   4.472  0.6578  0.8913  0.1892
  257MOL0     C34614   2.916   7.905   4.386  0.1663  0.4162 -0.2733
  257MOL0     C34615   2.845   7.645   4.053 -0.2357 -0.1655 -0.5741
  257MOL0     C34616   2.949   7.564   4.008 -0.1726  0.2831  0.3133
  257MOL0     C34617   2.929   7.439   3.949  0.1679  1.5467  1.0587
  257MOL0     C34618   2.799   7.400   3.917  1.5843  0.3391  0.0613
  257MOL0     O34619   2.770   7.287   3.846 -0.7506 -0.2063 -0.3350
  257MOL0     C34620   2.691   7.308   3.732  0.7083 -0.1889  1.0076
  257MOL0     C34621   2.782   7.311   3.606  0.4088 -1.0176 -0.1805
  257MOL0     C34622   2.870   7.183   3.604 -0.6995 -0.0363  0.0436
  257MOL0     C34623   2.803   7.052   3.555  0.1044 -0.2399  0.4349
  257MOL0     C34624   2.886   6.939   3.586 -0.2068  0.6053  0.4436
  257MOL0     C34625   2.959   6.838   3.590  0.4929  0.1856  0.1483
  257MOL0     C34626   2.692   7.477   3.967  0.1807  0.8016 -0.4460
  257MOL0     C34627   2.714   7.597   4.030 -0.4446  0.1292 -0.2033
  257MOL0     H34628   2.606   8.018   4.269 -1.7673  0.4107  3.5061
  257MOL0     H34629   2.643   8.190   4.433 -2.5709 -2.2371 -0.7354
  257MOL0     H34630   2.953   8.113   4.719  1.4845  0.2563 -1.4083
  257MOL0     H34631   3.018   8.267   4.655  1.2825  0.0181  2.6559
  257MOL0     H34632   2.765   8.254   4.825 -0.3766  1.6309  1.3166
  257MOL0     H34633   2.929   8.266   4.897 -0.8678  1.3737  1.2484
  257MOL0     H34634   2.954   8.470   4.751  0.5994 -1.4841 -1.2247
  257MOL0     H34635   2.780   8.463   4.721 -0.3448  1.5273  0.6049
  257MOL0     H34636   2.741   8.447   4.975 -0.2008 -1.3831 -0.3187
  257MOL0     H34637   2.904   8.505   5.002 -2.8142  0.9291  3.2196
  257MOL0     H34638   2.784   8.700   5.006  0.4641 -1.0223  1.1492
  257MOL0     H34639   2.861   8.694   4.848  2.7572  0.6082  1.5896
  257MOL0     H34640   2.648   8.790   4.842  1.8673  0.4237  2.5780
  257MOL0     H34641   2.612   8.630   4.765  2.3805  0.0997 -0.5474
  257MOL0     H34642   2.563   8.554   5.017  3.7069  1.0741 -0.1197
  257MOL0     H34643   2.517   8.721   5.036 -0.5259 -0.3551 -0.1126
  257MOL0     H34644   2.420   8.532   4.829  1.9741  0.3069  0.8819
  257MOL0     H34645   2.354   8.695   4.839 -1.3951  0.6866  0.6579
  257MOL0     H34646   2.256   8.741   5.107  1.4622 -0.3422  0.7427
  257MOL0     H34647   2.113   8.467   5.376 -5.1227  0.1613  0.1335
  257MOL0     H34648   2.200   8.621   5.391 -0.4587  0.8807 -0.3769
  257MOL0     H34649   2.016   8.736   5.264 -2.1631  0.7999  0.0702
  257MOL0     H34650   1.949   8.676   5.412  1.6328  2.2995 -1.2645
  257MOL0     H34651   1.873   8.480   5.324 -2.1131  2.5993  1.7608
  257MOL0     H34652   1.938   8.503   5.160  1.8475  1.2750  0.0070
  257MOL0     H34653   1.822   8.726   5.140  2.0230  0.5972  0.3647
  257MOL0     H34654   1.753   8.709   5.295  0.6269  1.9210 -0.2932
  257MOL0     H34655   1.475   8.437   5.083 -1.2048  1.8890 -0.6177
  257MOL0     H34656   1.395   8.212   4.838 -0.1448 -0.3647  1.5906
  257MOL0     H34657   1.371   8.279   4.996 -2.6535 -2.1698 -0.8485
  257MOL0     H34658   1.315   8.370   4.858 -0.2388 -0.5569  1.6832
  257MOL0     H34659   1.545   8.086   4.590  0.0580 -1.0405 -1.1578
  257MOL0     H34660   1.444   7.930   4.416  1.5992  0.4648 -3.1476
  257MOL0     H34661   1.083   8.041   4.207 -1.9448  0.1959 -2.1064
  257MOL0     H34662   1.218   8.056   4.090 -1.2695  0.8858 -0.0129
  257MOL0     H34663   1.244   7.807   4.089 -1.4473 -0.7756 -2.5136
  257MOL0     H34664   1.100   7.786   4.186 -0.5859 -0.4163  0.1617
  257MOL0     H34665   1.108   7.893   3.906 -0.5169  0.4522 -0.3958
  257MOL0     H34666   0.968   7.914   4.023  0.5327  0.5442  0.4220
  257MOL0     H34667   1.074   7.647   3.897  2.8290  1.1392  1.3757
  257MOL0     H34668   0.971   7.656   4.044 -2.3928  0.1174 -0.2584
  257MOL0     H34669   0.926   7.774   3.760 -0.9186  1.5151  1.1291
  257MOL0     H34670   0.812   7.790   3.897 -0.2163  1.0868 -0.7645
  257MOL0     H34671   0.886   7.533   3.750 -2.3053 -1.7044  1.3484
  257MOL0     H34672   0.802   7.532   3.892  0.6289 -1.4729 -1.0863
  257MOL0     H34673   0.696   7.718   3.663 -2.7669  1.1521  2.3132
  257MOL0     H34674   0.617   7.664   3.808  3.2457 -2.1370  3.9072
  257MOL0     H34675   0.616   7.432   3.719 -2.1906  1.2101  0.1885
  257MOL0     H34676   0.712   7.480   3.578 -1.2608 -1.1639 -0.2592
  257MOL0     H34677   1.171   8.226   4.290  0.0756 -1.0131 -2.6888
  257MOL0     H34678   1.274   8.397   4.423 -0.2365 -0.5849  0.2567
  257MOL0     H34679   1.774   8.524   4.713 -1.0748  0.1921 -0.6204
  257MOL0     H34680   1.820   8.638   4.930  0.5847 -1.2086  1.1638
  257MOL0     H34681   3.021   8.023   4.539  0.0875  2.0478  0.8158
  257MOL0     H34682   2.976   7.815   4.385 -0.8117 -0.3818  2.7567
  257MOL0     H34683   3.051   7.599   4.015 -1.0853  3.2454  0.1158
  257MOL0     H34684   3.017   7.385   3.914 -1.7096 -0.9523 -0.0883
  257MOL0     H34685   2.623   7.224   3.716  0.4024  0.4565 -1.5218
  257MOL0     H34686   2.624   7.393   3.717 -1.2804 -2.1305 -2.3891
  257MOL0     H34687   2.847   7.397   3.621 -1.8307  0.6694  0.4039
  257MOL0     H34688   2.721   7.314   3.515  0.5076 -0.2275 -0.2181
  257MOL0     H34689   2.928   7.169   3.696  1.9838 -0.6608 -1.6262
  257MOL0     H34690   2.945   7.207   3.528  0.0153  0.7731  0.9804
  257MOL0     H34691   2.788   7.054   3.447  0.0612  0.2412  0.4490
  257MOL0     H34692   2.714   7.028   3.614  0.9702 -2.5094  0.9332
  257MOL0     H34693   3.009   6.744   3.598  1.4215  0.6461 -0.1695
  257MOL0     H34694   2.587   7.448   3.963 -0.7240  3.8693 -1.1649
  257MOL0     H34695   2.626   7.647   4.070 -2.4199 -3.3282  0.1990
  258MOL0     O34696   8.241   6.183  11.314  0.1311 -0.1862 -0.6621
  258MOL0     C34697   8.325   6.252  11.368 -0.1419  0.0835 -0.0007
  258MOL0     O34698   8.387   6.218  11.489 -0.2472  0.1102  0.3916
  258MOL0     C34699   8.372   6.093  11.553  1.1810 -0.3257  0.2963
  258MOL0     C34700   8.458   6.084  11.670  1.1241  0.7994  0.4003
  258MOL0     C34701   8.476   5.964  11.740 -0.3328  0.3161  0.3831
  258MOL0     C34702   8.404   5.846  11.699 -0.2552  0.6420 -0.4571
  258MOL0     O34703   8.426   5.737  11.790 -0.5842 -0.0564  0.4546
  258MOL0     C34704   8.334   5.629  11.781  0.8355  0.5707 -0.9635
  258MOL0     C34705   8.225   5.659  11.878 -0.5144 -0.2424  0.0966
  258MOL0     C34706   8.269   5.662  12.024  0.5539  0.9285  0.4861
  258MOL0     C34707   8.155   5.712  12.115 -0.3349 -0.1023  0.9437
  258MOL0     C34708   8.181   5.703  12.268  0.0999 -0.4266 -0.0541
  258MOL0     C34709   8.311   5.770  12.313  0.2010  0.6799 -0.1818
  258MOL0     C34710   8.365   5.737  12.449  0.1991 -0.0015 -0.1778
  258MOL0     C34711   8.293   5.788  12.583  0.2952  0.8216 -0.2320
  258MOL0     N34712   8.337   5.918  12.608  0.1986 -0.2146  0.1734
  258MOL0     C34713   8.469   5.943  12.657  0.3685 -0.0323  0.6975
  258MOL0     C34714   8.469   6.076  12.686 -0.0858  0.3225 -1.1553
  258MOL0     C34715   8.579   6.157  12.747  0.4362 -0.3936 -0.8282
  258MOL0     C34716   8.599   6.299  12.677  1.2677 -0.2655  0.2416
  258MOL0     C34717   8.715   6.391  12.750  0.3831 -0.1575  0.4156
  258MOL0     C34718   8.710   6.541  12.703  0.0479 -0.2068 -0.7498
  258MOL0     O34719   8.808   6.630  12.755 -0.2666 -0.1020  0.4237
  258MOL0     C34720   8.799   6.762  12.723 -0.6956 -0.9717  0.8888
  258MOL0     C34721   8.923   6.820  12.737  0.1292 -0.7189  0.5703
  258MOL0     C34722   8.928   6.963  12.731 -0.3504 -0.2366  0.6451
  258MOL0     C34723   9.058   7.037  12.761  0.1551 -0.1525 -0.8898
  258MOL0     C34724   8.806   7.041  12.704 -0.2881  0.9820 -0.0965
  258MOL0     C34725   8.798   7.181  12.674  0.4315 -0.5193 -0.7306
  258MOL0     O34726   8.912   7.242  12.650 -0.1658 -0.4305 -0.6425
  258MOL0     C34727   8.915   7.383  12.632 -0.1346 -0.3637 -0.9091
  258MOL0     C34728   8.804   7.475  12.621 -0.1298 -0.1245 -0.3883
  258MOL0     C34729   8.821   7.612  12.615  0.7429 -0.8635  0.8462
  258MOL0     C34730   8.947   7.675  12.606  0.0425  0.3806 -0.0185
  258MOL0     O34731   8.970   7.804  12.575  0.3735 -0.6917 -0.1337
  258MOL0     C34732   9.063   7.848  12.486  0.3575 -0.1859 -0.0458
  258MOL0     C34733   9.021   7.971  12.413 -1.0593 -0.5130  0.1021
  258MOL0     C34734   9.135   8.033  12.330 -0.5389  0.4893 -0.7993
  258MOL0     C34735   9.144   7.954  12.197  0.0879 -1.5197 -0.7379
  258MOL0     C34736   9.249   8.030  12.113 -0.8554 -0.4400 -0.8302
  258MOL0     C34737   9.251   7.996  11.968  0.0969  0.2866 -0.0625
  258MOL0     C34738   9.282   7.846  11.937 -1.1215 -0.7351 -0.6704
  258MOL0     C34739   9.425   7.798  11.956 -0.4305  0.7599 -0.7386
  258MOL0    Cl34740   9.547   7.872  11.854 -0.1213  0.2511 -0.3330
  258MOL0     C34741   9.054   7.580  12.615 -0.0089 -0.5507  0.2980
  258MOL0     C34742   9.034   7.444  12.633  0.2636  0.0197  0.4869
  258MOL0     O34743   8.691   7.235  12.662  0.0364  0.0646 -0.3998
  258MOL0     C34744   8.687   6.970  12.688  0.2062  0.8238 -0.6482
  258MOL0     C34745   8.687   6.833  12.692  0.0364 -0.5851  0.4958
  258MOL0     N34746   8.336   6.118  12.664 -0.5424  0.2724  0.7097
  258MOL0     N34747   8.260   6.021  12.631 -0.4517  0.2823 -0.2455
  258MOL0     C34748   8.332   5.847  11.580  0.1801 -0.7100  1.2453
  258MOL0     C34749   8.313   5.968  11.510 -1.0457  0.0702  0.6739
  258MOL0     C34750   8.365   6.380  11.314 -0.3485  0.9159  0.9686
  258MOL0     C34751   8.273   6.460  11.242 -0.2953 -0.0507  1.0288
  258MOL0     C34752   8.303   6.583  11.191  0.1475 -0.3107  0.5492
  258MOL0     C34753   8.429   6.644  11.208 -0.3431 -0.1910 -1.4154
  258MOL0     O34754   8.448   6.774  11.164 -0.3979 -0.5248 -0.2206
  258MOL0     C34755   8.563   6.848  11.224 -0.2068  0.1431 -0.8690
  258MOL0     C34756   8.561   7.008  11.182  0.1388  0.1156  0.0925
  258MOL0     C34757   8.438   7.080  11.250 -0.5938 -0.3787 -0.1120
  258MOL0     C34758   8.469   7.227  11.260 -0.5470  0.8880  0.1598
  258MOL0     C34759   8.457   7.275  11.127 -0.3354  0.7331  0.4717
  258MOL0     C34760   8.451   7.312  11.017 -0.1712  0.7116 -0.2234
  258MOL0     C34761   8.525   6.563  11.274 -0.0592 -0.4699  0.1054
  258MOL0     C34762   8.490   6.433  11.326  0.2335 -0.5414 -0.7684
  258MOL0     H34763   8.521   6.171  11.689  2.1641  0.3919 -0.9775
  258MOL0     H34764   8.534   5.952  11.831 -1.8155 -0.4205  1.2709
  258MOL0     H34765   8.297   5.606  11.680 -0.3311 -4.8090  0.3501
  258MOL0     H34766   8.398   5.545  11.810  2.6818  1.0521 -3.3313
  258MOL0     H34767   8.200   5.764  11.858 -1.5478  0.9992  6.0845
  258MOL0     H34768   8.133   5.603  11.859 -1.5035  0.7420  1.7293
  258MOL0     H34769   8.294   5.557  12.043 -1.7650 -0.2504 -2.2226
  258MOL0     H34770   8.361   5.722  12.028  4.0132 -3.7630 -0.2214
  258MOL0     H34771   8.130   5.815  12.088 -0.0296 -0.1410  0.5002
  258MOL0     H34772   8.063   5.655  12.100 -0.5089  0.6296 -1.0270
  258MOL0     H34773   8.095   5.753  12.315  1.5121  0.1807  2.0328
  258MOL0     H34774   8.185   5.600  12.303 -1.6822  0.3646  2.7994
  258MOL0     H34775   8.397   5.725  12.263  0.7092 -1.1820  2.1510
  258MOL0     H34776   8.296   5.876  12.293 -0.2287  0.3148 -1.9960
  258MOL0     H34777   8.382   5.629  12.453 -0.2714 -0.1888 -2.2524
  258MOL0     H34778   8.463   5.785  12.459  0.4292 -0.8618  2.5548
  258MOL0     H34779   8.318   5.722  12.667 -0.8563  2.8495  1.8050
  258MOL0     H34780   8.184   5.780  12.585 -0.1220  4.8770  0.9052
  258MOL0     H34781   8.549   5.873  12.681  0.8041 -0.3787 -1.4925
  258MOL0     H34782   8.546   6.168  12.851  1.7310  2.0043 -0.5980
  258MOL0     H34783   8.668   6.094  12.743 -0.5409 -1.8175 -0.8534
  258MOL0     H34784   8.503   6.351  12.686  0.4085 -0.7361 -4.0003
  258MOL0     H34785   8.620   6.279  12.572  0.3827  0.9391 -0.1865
  258MOL0     H34786   8.806   6.343  12.713  0.1175  2.5007 -4.5039
  258MOL0     H34787   8.710   6.402  12.858 -0.8059 -0.5512  0.4170
  258MOL0     H34788   8.615   6.580  12.740  0.0577 -0.4517 -0.4619
  258MOL0     H34789   8.717   6.562  12.596 -1.6033  1.1958 -0.6260
  258MOL0     H34790   9.010   6.764  12.769  1.2038  1.6605  2.1611
  258MOL0     H34791   9.042   7.135  12.807 -0.6561 -0.2816 -0.8830
  258MOL0     H34792   9.125   6.981  12.828  0.8671 -2.0867 -3.0817
  258MOL0     H34793   9.110   7.058  12.667  1.5362  0.7314  0.0199
  258MOL0     H34794   8.700   7.445  12.614 -1.1613  2.4406  1.8838
  258MOL0     H34795   8.734   7.676  12.627  0.8208 -0.3192 -1.2630
  258MOL0     H34796   9.156   7.872  12.539  1.0042 -3.8850  0.8295
  258MOL0     H34797   9.085   7.764  12.419 -0.1277 -1.7296  1.6294
  258MOL0     H34798   8.938   7.951  12.345  0.6756  0.9995 -2.6129
  258MOL0     H34799   8.995   8.050  12.484 -0.5906  1.6958 -2.0454
  258MOL0     H34800   9.230   8.021  12.385 -2.0344 -0.6487  1.7303
  258MOL0     H34801   9.114   8.139  12.317  1.8838  1.3996  1.5569
  258MOL0     H34802   9.159   7.847  12.217 -1.5250 -1.3320  2.1157
  258MOL0     H34803   9.051   7.969  12.142 -1.6045  0.7272  2.4265
  258MOL0     H34804   9.344   8.025  12.167 -2.0777  0.9307  1.6644
  258MOL0     H34805   9.224   8.136  12.114 -0.7101 -0.3046 -3.7677
  258MOL0     H34806   9.154   8.026  11.929  0.4625  2.2880  0.4708
  258MOL0     H34807   9.323   8.051  11.908 -2.4438 -0.7165 -4.4553
  258MOL0     H34808   9.273   7.839  11.828 -1.5569 -0.3845 -0.6553
  258MOL0     H34809   9.213   7.786  11.997  1.7778  0.4942  4.4450
  258MOL0     H34810   9.430   7.692  11.926 -1.8014  0.2079  0.8585
  258MOL0     H34811   9.441   7.808  12.063 -3.2615 -0.4748 -0.1179
  258MOL0     H34812   9.156   7.613  12.601 -0.3602 -0.3075 -2.0953
  258MOL0     H34813   9.109   7.369  12.655  0.0192 -0.4820 -0.3226
  258MOL0     H34814   8.601   7.025  12.650 -1.0003 -0.7786 -0.3477
  258MOL0     H34815   8.593   6.778  12.685 -1.2555  1.7462 -2.6538
  258MOL0     H34816   8.294   5.760  11.528 -2.3089  1.1426 -0.2408
  258MOL0     H34817   8.259   5.964  11.416 -0.1700 -0.0100  0.1577
  258MOL0     H34818   8.178   6.407  11.233 -0.8837  0.9236  1.3010
  258MOL0     H34819   8.224   6.631  11.134 -1.1391 -1.0735  1.6181
  258MOL0     H34820   8.563   6.846  11.334  1.3067  0.8565 -0.8285
  258MOL0     H34821   8.660   6.809  11.192 -1.6282 -1.0221 -4.2009
  258MOL0     H34822   8.559   7.015  11.073  0.2439 -2.9958 -0.1918
  258MOL0     H34823   8.654   7.048  11.223  1.0283 -2.3639  0.6934
  258MOL0     H34824   8.418   7.047  11.352 -2.8411 -1.7585 -0.9307
  258MOL0     H34825   8.343   7.070  11.198 -1.7327 -0.6882  1.9285
  258MOL0     H34826   8.565   7.241  11.311 -1.5264 -0.5139  2.6125
  258MOL0     H34827   8.393   7.274  11.324 -1.1350  1.6704 -1.0748
  258MOL0     H34828   8.448   7.347  10.916 -2.9751 -1.5658 -1.0651
  258MOL0     H34829   8.627   6.599  11.286 -1.0189  2.1687  1.1732
  258MOL0     H34830   8.560   6.377  11.387 -1.1792 -0.6043  0.8503
  259MOL0     O34831   0.884   3.101   5.385  0.5884 -1.1347 -0.4248
  259MOL0     C34832   0.791   3.041   5.336  0.2780 -0.1080 -0.0174
  259MOL0     O34833   0.794   2.908   5.302 -0.5347 -0.4617  0.0830
  259MOL0     C34834   0.875   2.819   5.359 -0.6769  1.0829  0.2052
  259MOL0     C34835   0.886   2.695   5.298  0.8788  0.6132 -0.2524
  259MOL0     C34836   0.972   2.600   5.349  0.0111  0.5302  0.2674
  259MOL0     C34837   1.041   2.622   5.468 -0.5440 -0.4298  0.2125
  259MOL0     O34838   1.138   2.545   5.519 -0.2389  0.8983 -0.8180
  259MOL0     C34839   1.213   2.470   5.421 -0.0921  0.0252 -0.0022
  259MOL0     C34840   1.304   2.556   5.336  0.6967 -0.3250 -0.0859
  259MOL0     C34841   1.413   2.633   5.403  0.3013  0.6019  0.3981
  259MOL0     C34842   1.432   2.771   5.336  1.1036  0.0972 -0.0133
  259MOL0     C34843   1.539   2.850   5.414 -0.3591  1.5156 -0.4923
  259MOL0     C34844   1.568   2.987   5.367  0.5386  0.1846  0.1617
  259MOL0     C34845   1.463   3.088   5.403  0.2419 -0.3067 -0.0850
  259MOL0     C34846   1.427   3.164   5.272  0.5202  0.0306 -0.8535
  259MOL0     N34847   1.336   3.272   5.302 -0.5423  0.2301  0.4263
  259MOL0     C34848   1.202   3.259   5.327 -0.2567  0.0645  1.0576
  259MOL0     C34849   1.170   3.373   5.394  0.7768  1.0884  0.2631
  259MOL0     C34850   1.027   3.401   5.458 -1.2881  0.3711 -0.2441
  259MOL0     C34851   0.941   3.507   5.396 -0.3881 -0.6355  0.3978
  259MOL0     C34852   1.028   3.637   5.365 -0.1976 -0.1443  0.2180
  259MOL0     C34853   0.952   3.768   5.360 -0.1991  0.1624  0.4853
  259MOL0     O34854   1.027   3.866   5.295  0.2476 -0.0845  0.8115
  259MOL0     C34855   0.955   3.968   5.231 -0.5524 -0.4544  0.3847
  259MOL0     C34856   0.867   4.047   5.301 -0.0511 -0.4931  0.1126
  259MOL0     C34857   0.800   4.150   5.243 -1.1780 -0.1399 -0.2581
  259MOL0     C34858   0.697   4.239   5.324  0.3432 -0.1628  0.4681
  259MOL0     C34859   0.828   4.173   5.106  0.1258 -0.3572 -0.3309
  259MOL0     C34860   0.773   4.293   5.039 -0.4134  1.0650  0.5306
  259MOL0     O34861   0.704   4.269   4.918  0.2625  0.0013 -0.1998
  259MOL0     C34862   0.652   4.374   4.847 -0.2937 -0.2607  0.7127
  259MOL0     C34863   0.727   4.482   4.793 -1.1255 -0.3428 -0.0670
  259MOL0     C34864   0.662   4.590   4.730  0.4310  0.0831 -0.0281
  259MOL0     C34865   0.521   4.589   4.705 -0.6735 -0.4312 -0.1075
  259MOL0     O34866   0.453   4.692   4.641  0.7477  0.0009 -0.5645
  259MOL0     C34867   0.502   4.829   4.639 -0.2244  0.8285 -0.3148
  259MOL0     C34868   0.392   4.937   4.614  0.1795  0.3868  1.5905
  259MOL0     C34869   0.286   4.892   4.513 -0.3813 -0.2060 -0.4777
  259MOL0     C34870   0.198   5.012   4.460 -0.2580 -0.0839  0.0030
  259MOL0     C34871   0.076   5.041   4.552 -0.6311  0.1994 -0.3213
  259MOL0     C34872  -0.023   5.154   4.483 -0.0312 -0.4614  0.6011
  259MOL0     C34873  -0.158   5.142   4.549  0.3685 -0.0305 -0.4411
  259MOL0     C34874  -0.155   5.224   4.678 -0.3116  0.4740  0.0206
  259MOL0    Cl34875  -0.322   5.214   4.740 -0.0891 -0.2692  0.2096
  259MOL0     C34876   0.452   4.474   4.739 -0.5740 -0.1438 -0.2286
  259MOL0     C34877   0.520   4.367   4.801  0.5785 -0.6494 -0.1274
  259MOL0     O34878   0.786   4.404   5.093  0.2995 -0.1190  0.3863
  259MOL0     C34879   0.915   4.089   5.038  0.8862 -0.9483  0.5163
  259MOL0     C34880   0.974   3.982   5.092  0.1516  0.0562 -0.0314
  259MOL0     N34881   1.283   3.449   5.410  0.0198  0.2627 -0.4691
  259MOL0     N34882   1.383   3.381   5.361 -0.0103  0.0826  0.3525
  259MOL0     C34883   1.032   2.743   5.530  0.3803 -0.8795  1.1759
  259MOL0     C34884   0.951   2.845   5.471  0.8728  0.5260 -0.0206
  259MOL0     C34885   0.671   3.111   5.280  0.8963  0.2911 -0.6555
  259MOL0     C34886   0.629   3.231   5.339 -0.0248  0.5478  0.4927
  259MOL0     C34887   0.514   3.296   5.288  0.1820  0.2697 -1.2274
  259MOL0     C34888   0.445   3.245   5.175 -0.6555  0.6994  0.1674
  259MOL0     O34889   0.328   3.300   5.125 -0.1647 -0.3291 -0.3671
  259MOL0     C34890   0.347   3.432   5.083 -0.5582  0.7322 -0.4293
  259MOL0     C34891   0.250   3.450   4.968 -0.1882 -0.0833  0.2611
  259MOL0     C34892   0.261   3.342   4.863 -0.0713  0.6417  0.4429
  259MOL0     C34893   0.170   3.373   4.735  0.3947 -0.7179 -0.1524
  259MOL0     C34894   0.194   3.273   4.624 -0.1774  0.5089 -0.1296
  259MOL0     C34895   0.230   3.193   4.541  0.0327 -0.4153  0.1958
  259MOL0     C34896   0.504   3.136   5.102 -0.0991  1.1348 -1.5308
  259MOL0     C34897   0.615   3.064   5.160 -0.4221  0.6031  0.4032
  259MOL0     H34898   0.825   2.678   5.210  1.0488 -0.0337 -0.2490
  259MOL0     H34899   0.978   2.506   5.295 -2.2214  1.5256 -1.9330
  259MOL0     H34900   1.273   2.407   5.488  0.2260  0.8291  0.4847
  259MOL0     H34901   1.154   2.398   5.363  1.0352 -2.5732  1.8285
  259MOL0     H34902   1.344   2.508   5.246 -1.7449  0.2008 -1.5658
  259MOL0     H34903   1.236   2.627   5.287 -0.6173 -1.4286  0.0803
  259MOL0     H34904   1.378   2.646   5.506 -0.5087  0.8556  0.1035
  259MOL0     H34905   1.505   2.575   5.407  0.5053  0.8486 -0.4120
  259MOL0     H34906   1.449   2.770   5.228 -1.3818  2.6044 -0.5453
  259MOL0     H34907   1.335   2.821   5.337  0.6135 -0.8203 -0.1541
  259MOL0     H34908   1.524   2.859   5.522  0.2850  1.8266 -0.4236
  259MOL0     H34909   1.636   2.801   5.400 -2.0542 -1.7787 -1.9038
  259MOL0     H34910   1.664   3.017   5.409  1.2706 -4.0137  2.0050
  259MOL0     H34911   1.587   2.970   5.261 -4.3976  0.7250 -1.0843
  259MOL0     H34912   1.374   3.046   5.451 -0.3481 -2.7906 -3.0484
  259MOL0     H34913   1.510   3.155   5.476 -1.8743 -0.2449  1.3217
  259MOL0     H34914   1.385   3.088   5.205 -0.9561 -0.9127  1.0590
  259MOL0     H34915   1.522   3.193   5.226 -0.8382  2.3376 -2.4169
  259MOL0     H34916   1.135   3.182   5.290  0.3646  1.1354 -2.7115
  259MOL0     H34917   0.977   3.303   5.456  1.2399 -1.0250 -2.6691
  259MOL0     H34918   1.059   3.428   5.559 -1.4965 -2.7003  0.7571
  259MOL0     H34919   0.859   3.532   5.464 -1.4224 -1.4850 -0.5078
  259MOL0     H34920   0.890   3.473   5.306 -0.9286 -5.3472  2.2128
  259MOL0     H34921   1.070   3.616   5.267  1.8284 -1.9672  1.3873
  259MOL0     H34922   1.109   3.639   5.438 -2.3622  0.0855  2.7850
  259MOL0     H34923   0.932   3.794   5.464  0.4687  1.1535  0.3746
  259MOL0     H34924   0.860   3.751   5.303  1.7058 -1.6584 -2.3414
  259MOL0     H34925   0.851   4.013   5.403  2.1184 -1.0933  0.2967
  259MOL0     H34926   0.651   4.183   5.407 -0.3289 -0.2035  0.0777
  259MOL0     H34927   0.742   4.332   5.362 -2.0577  1.2694  0.0455
  259MOL0     H34928   0.616   4.264   5.254  0.6964  1.9865  0.7418
  259MOL0     H34929   0.834   4.495   4.803 -0.8210 -0.7893 -2.1708
  259MOL0     H34930   0.715   4.674   4.687  1.2073 -1.2137 -1.7405
  259MOL0     H34931   0.555   4.854   4.732  0.3836  3.1721 -1.2012
  259MOL0     H34932   0.571   4.829   4.554  0.4362  0.0503  0.2080
  259MOL0     H34933   0.338   4.956   4.707 -1.6088  4.1228 -0.0050
  259MOL0     H34934   0.442   5.028   4.578  0.3307  0.2927  1.5645
  259MOL0     H34935   0.220   4.815   4.555  0.2754 -1.8404 -2.2791
  259MOL0     H34936   0.340   4.830   4.440 -0.0196 -2.9974  1.9602
  259MOL0     H34937   0.262   5.100   4.449 -1.2655  0.4554 -2.0811
  259MOL0     H34938   0.176   4.972   4.361 -1.2500 -1.2511  0.6614
  259MOL0     H34939   0.105   5.084   4.648  0.4388  1.3833 -1.1406
  259MOL0     H34940   0.029   4.942   4.562 -1.3025  0.4585 -0.8378
  259MOL0     H34941   0.020   5.254   4.491  1.9422 -1.3117  1.1565
  259MOL0     H34942  -0.026   5.126   4.377  3.5344 -1.2479  0.5813
  259MOL0     H34943  -0.159   5.038   4.585  0.0974 -0.0834 -0.5977
  259MOL0     H34944  -0.235   5.158   4.473 -1.6429 -3.4828  0.6569
  259MOL0     H34945  -0.139   5.330   4.656 -0.6513 -0.1460 -3.8155
  259MOL0     H34946  -0.087   5.181   4.752 -0.1369 -2.9461 -1.9503
  259MOL0     H34947   0.349   4.485   4.706 -0.2314 -0.0324 -1.3038
  259MOL0     H34948   0.464   4.278   4.827 -3.5808  2.1609  1.6760
  259MOL0     H34949   0.928   4.109   4.932  3.7131 -1.3323  0.7119
  259MOL0     H34950   1.037   3.918   5.031 -0.1752  0.5542 -0.9159
  259MOL0     H34951   1.106   2.761   5.608  0.2846 -0.2895  1.1388
  259MOL0     H34952   0.935   2.934   5.530  1.7942  0.5572  0.1818
  259MOL0     H34953   0.691   3.273   5.418  2.0738 -0.4915 -0.5213
  259MOL0     H34954   0.471   3.385   5.335 -2.0062 -1.0416 -0.5752
  259MOL0     H34955   0.319   3.496   5.167  0.8350  2.9596 -1.5458
  259MOL0     H34956   0.446   3.467   5.052 -0.5798  0.1056 -1.2459
  259MOL0     H34957   0.271   3.544   4.917 -2.6252  0.9745  1.0628
  259MOL0     H34958   0.143   3.466   4.985  0.0592  4.5514 -1.3275
  259MOL0     H34959   0.241   3.241   4.900 -1.5387  1.5673  2.3385
  259MOL0     H34960   0.364   3.352   4.829 -0.0701  6.8235  1.0821
  259MOL0     H34961   0.187   3.474   4.695  0.5833 -0.9493 -0.6713
  259MOL0     H34962   0.067   3.379   4.769  0.8144  1.8690  0.8954
  259MOL0     H34963   0.252   3.125   4.461 -3.6913 -3.6196  1.5674
  259MOL0     H34964   0.436   3.091   5.030 -0.5723  2.3642 -1.8766
  259MOL0     H34965   0.648   2.978   5.103  1.5040  3.0127 -2.4138
  260MOL0     O34966   0.992   5.659   9.786  0.3806  0.2544  0.6754
  260MOL0     C34967   1.101   5.644   9.731  0.5413 -0.8582  0.5160
  260MOL0     O34968   1.119   5.612   9.601  0.2566  0.3470  0.3633
  260MOL0     C34969   1.003   5.585   9.533  0.7530  0.6350 -0.5920
  260MOL0     C34970   0.946   5.455   9.542  0.2274  0.3761  0.5376
  260MOL0     C34971   0.819   5.443   9.482  0.5249  0.1159 -0.0396
  260MOL0     C34972   0.749   5.547   9.418 -0.5507  0.2849  0.4120
  260MOL0     O34973   0.620   5.512   9.396 -0.6509  0.5657 -0.4753
  260MOL0     C34974   0.542   5.579   9.295  0.1873 -0.1437  0.4532
  260MOL0     C34975   0.464   5.707   9.338  0.2104 -0.1258  0.4705
  260MOL0     C34976   0.360   5.690   9.454  0.3541 -0.2442 -0.3925
  260MOL0     C34977   0.416   5.689   9.591 -1.2265 -0.2676 -0.2837
  260MOL0     C34978   0.290   5.669   9.690 -0.8474 -0.1917  0.2904
  260MOL0     C34979   0.328   5.706   9.828 -0.3067 -0.4949  0.3492
  260MOL0     C34980   0.220   5.661   9.929  0.1641 -0.1525  0.0143
  260MOL0     C34981   0.228   5.715  10.078  0.1738  0.2173  0.3520
  260MOL0     N34982   0.266   5.858  10.089 -0.0433 -0.3435 -0.5944
  260MOL0     C34983   0.395   5.898  10.101 -0.2768 -1.0493 -0.2564
  260MOL0     C34984   0.390   6.036  10.102  0.6231  0.9388 -0.0838
  260MOL0     C34985   0.506   6.132  10.117 -0.7502 -0.1208 -0.7956
  260MOL0     C34986   0.579   6.117  10.258  0.7526  0.3121  0.3470
  260MOL0     C34987   0.659   6.237  10.316 -0.7525  0.0082 -0.3607
  260MOL0     C34988   0.775   6.288  10.230  0.0842 -0.9489 -0.1328
  260MOL0     O34989   0.760   6.275  10.084 -0.9260 -0.3513 -0.7243
  260MOL0     C34990   0.857   6.340  10.000  0.2119  0.0201 -0.3164
  260MOL0     C34991   0.845   6.317   9.872 -0.2278 -0.3701  0.9977
  260MOL0     C34992   0.932   6.364   9.770 -0.8131 -0.5283  0.8589
  260MOL0     C34993   0.911   6.331   9.624 -0.5843  0.7218 -0.0710
  260MOL0     C34994   1.044   6.440   9.819  0.0576 -0.3114 -1.3101
  260MOL0     C34995   1.155   6.485   9.737  0.7160 -0.7203  0.0130
  260MOL0     O34996   1.146   6.489   9.597  0.0671 -0.7769 -0.8701
  260MOL0     C34997   1.207   6.578   9.512  0.5422 -0.1288 -0.0784
  260MOL0     C34998   1.303   6.672   9.532 -0.2685  0.5566  0.0167
  260MOL0     C34999   1.348   6.755   9.422  0.2761  0.3067 -0.7700
  260MOL0     C35000   1.290   6.756   9.295 -0.2740 -0.3550  1.0728
  260MOL0     O35001   1.334   6.847   9.203  0.3213 -0.1525  0.2285
  260MOL0     C35002   1.292   6.837   9.061 -0.3547 -1.0622  0.1776
  260MOL0     C35003   1.333   6.961   8.991  0.6159 -0.9064  0.1555
  260MOL0     C35004   1.334   6.964   8.840 -0.5683 -0.8790  0.7586
  260MOL0     C35005   1.395   7.094   8.788 -0.1608 -0.2023  0.2912
  260MOL0     C35006   1.349   7.129   8.646  0.2468 -0.0264 -0.1129
  260MOL0     C35007   1.420   7.054   8.538  0.0303  0.1050 -0.2483
  260MOL0     C35008   1.370   7.119   8.402 -0.7409  0.6126 -0.6679
  260MOL0     C35009   1.472   7.086   8.292  0.2599  0.4934  0.1707
  260MOL0    Cl35010   1.481   6.917   8.271 -0.2371 -0.0549 -0.0251
  260MOL0     C35011   1.195   6.653   9.274 -0.1148 -0.4568  0.9230
  260MOL0     C35012   1.162   6.566   9.375 -0.2213  0.4581 -0.4402
  260MOL0     O35013   1.256   6.523   9.801 -0.2479 -0.0615 -0.6880
  260MOL0     C35014   1.050   6.471   9.958 -0.8769  0.9105 -0.4335
  260MOL0     C35015   0.954   6.418  10.045  0.4465 -0.3184  0.1330
  260MOL0     N35016   0.261   6.068  10.084  0.5757 -0.3306 -0.0717
  260MOL0     N35017   0.185   5.960  10.084 -0.1282  1.1875 -1.0170
  260MOL0     C35018   0.815   5.671   9.398  0.4268  0.8458  0.4084
  260MOL0     C35019   0.936   5.690   9.468  0.5576 -0.2963 -0.3080
  260MOL0     C35020   1.223   5.657   9.810  0.4319 -0.0069 -0.4764
  260MOL0     C35021   1.213   5.655   9.951 -0.8169  0.9389  0.3675
  260MOL0     C35022   1.331   5.686  10.037  0.6140  0.7129 -0.7135
  260MOL0     C35023   1.453   5.713   9.980 -0.2749  0.0779  0.3646
  260MOL0     O35024   1.557   5.748  10.066 -0.3731 -0.6087 -0.0462
  260MOL0     C35025   1.686   5.797  10.023 -0.3350 -0.9749 -0.2727
  260MOL0     C35026   1.786   5.839  10.134  0.0034 -0.3300  0.6484
  260MOL0     C35027   1.912   5.898  10.069  0.4791  0.1645 -0.5675
  260MOL0     C35028   2.028   5.928  10.171 -0.8162  0.2908 -0.1769
  260MOL0     C35029   2.130   6.018  10.118  0.6812  1.0624  0.1471
  260MOL0     C35030   2.203   6.095  10.063 -0.0475 -0.8062  0.0366
  260MOL0     C35031   1.464   5.710   9.840  0.0335  0.6523 -0.0300
  260MOL0     C35032   1.350   5.689   9.759 -0.7771  0.4763 -0.0185
  260MOL0     H35033   1.002   5.371   9.581  0.8779  0.2254 -0.6595
  260MOL0     H35034   0.768   5.348   9.494  2.4855 -0.7841  1.8170
  260MOL0     H35035   0.609   5.616   9.218  1.4902  4.0175  3.2554
  260MOL0     H35036   0.475   5.509   9.243  1.2272 -0.3451 -0.6638
  260MOL0     H35037   0.543   5.779   9.361  2.6404 -1.9694 -1.5162
  260MOL0     H35038   0.408   5.734   9.248 -0.0514 -1.3334  0.2594
  260MOL0     H35039   0.279   5.763   9.446  0.9769  0.1988 -4.4433
  260MOL0     H35040   0.314   5.590   9.449  0.2670 -0.1530 -1.9543
  260MOL0     H35041   0.499   5.620   9.607  0.4630  1.7145 -0.1483
  260MOL0     H35042   0.456   5.787   9.619  0.1124 -1.1707  1.1392
  260MOL0     H35043   0.201   5.726   9.664  0.7714  2.5443  0.3345
  260MOL0     H35044   0.262   5.564   9.685 -0.5925 -0.2140 -0.9116
  260MOL0     H35045   0.420   5.655   9.860 -0.7446 -1.1887  0.5260
  260MOL0     H35046   0.348   5.814   9.827  1.4652 -0.7562 -2.2442
  260MOL0     H35047   0.130   5.702   9.884 -0.4650 -0.1351  1.2445
  260MOL0     H35048   0.208   5.552   9.928 -0.3816 -0.0977 -1.3249
  260MOL0     H35049   0.304   5.660  10.135  0.6413 -0.5052 -0.9460
  260MOL0     H35050   0.135   5.685  10.128  1.3761 -1.3395  1.7699
  260MOL0     H35051   0.478   5.828  10.104 -0.3808 -1.1546  0.1618
  260MOL0     H35052   0.578   6.117  10.036 -1.2471  1.5242 -1.6042
  260MOL0     H35053   0.468   6.235  10.120  0.8244  0.4985 -1.1375
  260MOL0     H35054   0.643   6.028  10.256 -1.5282 -1.5780  2.9271
  260MOL0     H35055   0.499   6.091  10.327  0.4211  0.5744  0.0643
  260MOL0     H35056   0.703   6.200  10.409 -0.2632 -0.9694 -0.9634
  260MOL0     H35057   0.591   6.320  10.337 -0.1444  0.4233  0.0010
  260MOL0     H35058   0.860   6.222  10.245 -1.5792 -3.0542  0.5614
  260MOL0     H35059   0.801   6.391  10.258  0.6850 -1.4983  1.4466
  260MOL0     H35060   0.759   6.260   9.837 -0.6958 -0.7297  2.6440
  260MOL0     H35061   0.858   6.412   9.574 -0.7656  1.0427  0.6269
  260MOL0     H35062   1.006   6.306   9.578  0.2534  1.9637  0.9226
  260MOL0     H35063   0.857   6.235   9.624  1.8023 -0.7178 -0.8166
  260MOL0     H35064   1.350   6.689   9.629  1.6281  2.9962 -1.1925
  260MOL0     H35065   1.429   6.825   9.439 -3.2803  4.2010  2.1732
  260MOL0     H35066   1.355   6.761   9.013  0.7707  0.5779 -1.0864
  260MOL0     H35067   1.185   6.823   9.046 -0.6192  0.5445  0.4396
  260MOL0     H35068   1.257   7.037   9.008 -1.7631 -2.0495 -4.0027
  260MOL0     H35069   1.432   6.991   9.027 -0.3940 -0.4158  2.7243
  260MOL0     H35070   1.233   6.950   8.801 -0.5167 -2.6110  1.1845
  260MOL0     H35071   1.394   6.883   8.798  0.6278  1.1756 -1.8629
  260MOL0     H35072   1.353   7.175   8.848  0.9508  1.0720 -0.6101
  260MOL0     H35073   1.503   7.093   8.805 -0.4666 -0.1042  2.4645
  260MOL0     H35074   1.363   7.235   8.626  3.0267 -0.5726 -1.4964
  260MOL0     H35075   1.241   7.115   8.635  0.2262  1.4162 -2.4882
  260MOL0     H35076   1.524   7.088   8.546  0.2730  0.0843 -2.6380
  260MOL0     H35077   1.409   6.945   8.539 -1.8237  0.2213 -2.1930
  260MOL0     H35078   1.358   7.228   8.408  2.7092  1.0510  0.1995
  260MOL0     H35079   1.276   7.068   8.377 -2.4727  3.2717 -0.0397
  260MOL0     H35080   1.573   7.127   8.300  0.5612  0.0983 -1.3875
  260MOL0     H35081   1.432   7.135   8.203  2.1088  0.6140 -0.6427
  260MOL0     H35082   1.163   6.629   9.173  0.3423  1.1810  0.3576
  260MOL0     H35083   1.098   6.485   9.340 -0.0618  0.4390 -0.6939
  260MOL0     H35084   1.130   6.530  10.001 -0.3620 -0.6731  0.9323
  260MOL0     H35085   0.987   6.433  10.147  1.1965 -4.8269  0.7562
  260MOL0     H35086   0.769   5.752   9.342  1.0109 -0.7347 -2.5597
  260MOL0     H35087   0.962   5.795   9.474 -1.1975  0.1466  0.3121
  260MOL0     H35088   1.118   5.638  10.002 -1.9748 -3.2508 -2.5969
  260MOL0     H35089   1.320   5.684  10.145  3.5432 -0.2148 -0.3612
  260MOL0     H35090   1.729   5.712   9.970  0.3237 -0.7212 -0.1540
  260MOL0     H35091   1.686   5.879   9.951  1.5833  0.0075  0.7503
  260MOL0     H35092   1.813   5.746  10.186 -1.5866 -1.9737 -1.3018
  260MOL0     H35093   1.742   5.922  10.190 -0.4842  0.2933 -0.6188
  260MOL0     H35094   1.890   5.990  10.015  0.2507  2.0484  2.5240
  260MOL0     H35095   1.952   5.826   9.996 -0.1983  0.7401 -1.5356
  260MOL0     H35096   2.075   5.833  10.196  1.4622  0.8456 -1.9825
  260MOL0     H35097   2.002   5.981  10.263  2.3282  2.2700 -0.2941
  260MOL0     H35098   2.270   6.159  10.009 -0.7944 -0.1498 -0.1404
  260MOL0     H35099   1.553   5.740   9.786  1.4444 -2.7894  0.1739
  260MOL0     H35100   1.357   5.702   9.652 -0.9452  0.2600 -0.0573
  261MOL0     O35101   9.624  10.833   8.053  0.7393 -0.0516 -0.9151
  261MOL0     C35102   9.668  10.892   7.952 -0.5761 -0.5027 -0.4362
  261MOL0     O35103   9.797  10.912   7.922 -0.8988  0.7177  0.4121
  261MOL0     C35104   9.889  10.894   8.020 -0.2343 -0.6871 -0.1046
  261MOL0     C35105   9.866  10.942   8.151  1.1228 -0.8409  0.1571
  261MOL0     C35106   9.974  10.939   8.241 -0.1340  0.2445 -0.2648
  261MOL0     C35107  10.104  10.894   8.212  0.3703 -0.1300 -0.8734
  261MOL0     O35108  10.214  10.884   8.295  0.1741  0.4779  0.3651
  261MOL0     C35109  10.267  11.009   8.350 -0.2821 -0.0325 -0.9300
  261MOL0     C35110  10.425  11.000   8.372 -0.1666  0.6016 -0.1849
  261MOL0     C35111  10.474  11.125   8.444 -0.3374  0.0227  0.0538
  261MOL0     C35112  10.593  11.191   8.382  0.6428 -0.5383 -0.6163
  261MOL0     C35113  10.616  11.339   8.436  0.0758  1.0098 -0.5580
  261MOL0     C35114  10.732  11.409   8.364  0.4270 -0.1664 -0.1811
  261MOL0     C35115  10.751  11.549   8.422 -0.0821 -0.2347  0.3583
  261MOL0     C35116  10.647  11.654   8.388  0.7636  0.2634  0.2899
  261MOL0     N35117  10.685  11.792   8.430  0.2334  0.7275 -0.1658
  261MOL0     C35118  10.792  11.858   8.383  0.0006 -1.2908 -0.8752
  261MOL0     C35119  10.786  11.980   8.435 -0.4794 -0.5454 -0.3194
  261MOL0     C35120  10.886  12.092   8.399  0.3146  0.3931 -0.0192
  261MOL0     C35121  11.036  12.071   8.438 -0.5425 -0.0116  0.4307
  261MOL0     C35122  11.058  12.105   8.588  0.6799  0.7284 -0.0028
  261MOL0     C35123  11.203  12.143   8.620 -0.0321  0.0907 -0.7894
  261MOL0     O35124  11.259  12.252   8.554  0.4687 -0.1582 -0.2210
  261MOL0     C35125  11.382  12.290   8.580  0.0206 -0.6970 -0.1657
  261MOL0     C35126  11.491  12.231   8.506 -0.9098 -0.1796 -0.2209
  261MOL0     C35127  11.623  12.276   8.531  0.2267 -0.7231  0.1101
  261MOL0     C35128  11.738  12.205   8.464 -0.3569 -0.9967  0.8125
  261MOL0     C35129  11.647  12.375   8.631 -0.3907 -0.3914  0.2401
  261MOL0     C35130  11.786  12.440   8.656 -0.4436  0.4293  0.2883
  261MOL0     O35131  11.812  12.457   8.786  0.4416 -1.3438 -0.1457
  261MOL0     C35132  11.933  12.503   8.827 -0.2021 -0.3991 -0.0892
  261MOL0     C35133  12.054  12.452   8.780  0.3079  0.1815  1.0110
  261MOL0     C35134  12.175  12.492   8.835 -0.5521  0.4840 -0.2354
  261MOL0     C35135  12.181  12.598   8.923  0.1395 -0.9959 -0.1662
  261MOL0     O35136  12.309  12.637   8.968  0.7508 -0.0269  0.8317
  261MOL0     C35137  12.317  12.691   9.097  0.7682  0.8265  0.2034
  261MOL0     C35138  12.467  12.709   9.137 -0.1823 -0.0769  0.0758
  261MOL0     C35139  12.552  12.785   9.014  0.1686  0.3633 -0.3522
  261MOL0     C35140  12.699  12.807   9.038 -0.6706 -0.2529  0.0381
  261MOL0     C35141  12.773  12.916   8.960 -0.1011  0.5507  0.6877
  261MOL0     C35142  12.923  12.928   8.984 -0.2966 -0.4645 -0.1546
  261MOL0     C35143  12.993  13.043   8.905  0.4689 -0.1351 -0.6881
  261MOL0     C35144  12.938  13.187   8.943 -0.4274  0.2226  0.7800
  261MOL0    Cl35145  13.040  13.300   8.870  0.1247  0.5933 -0.2630
  261MOL0     C35146  12.058  12.654   8.968 -0.0638 -0.0475  0.3464
  261MOL0     C35147  11.934  12.595   8.927 -0.5334  0.0728 -0.1590
  261MOL0     O35148  11.858  12.488   8.564 -0.7592  0.1025 -0.1708
  261MOL0     C35149  11.536  12.431   8.700 -0.2098 -0.9174  0.7560
  261MOL0     C35150  11.409  12.389   8.674 -0.6839  0.3654 -0.5925
  261MOL0     N35151  10.666  11.995   8.510  0.3378  0.5357 -0.3285
  261MOL0     N35152  10.609  11.875   8.501 -0.0727 -0.3395 -0.7178
  261MOL0     C35153  10.121  10.838   8.085  0.2000 -0.6572 -0.8773
  261MOL0     C35154  10.017  10.850   7.984  0.8445 -0.2621 -0.5548
  261MOL0     C35155   9.562  10.941   7.861  0.2368 -0.2554 -0.1910
  261MOL0     C35156   9.588  10.987   7.737 -0.8017 -0.4376  0.0748
  261MOL0     C35157   9.484  11.055   7.659  0.0288 -0.2130 -0.4204
  261MOL0     C35158   9.360  11.091   7.720  0.1156  0.3654  1.0459
  261MOL0     O35159   9.261  11.154   7.651 -0.1129  1.0590  0.0519
  261MOL0     C35160   9.136  11.181   7.701 -0.1788  0.0173  0.1395
  261MOL0     C35161   9.061  11.251   7.590  0.4022 -0.3332  0.5925
  261MOL0     C35162   9.035  11.170   7.464  0.6510  0.7755 -0.7107
  261MOL0     C35163   9.069  11.244   7.334  0.3820 -0.5429  0.1893
  261MOL0     C35164   9.003  11.373   7.304 -1.0847  0.5384 -0.3173
  261MOL0     C35165   8.962  11.477   7.262  0.7718  0.0215 -0.4705
  261MOL0     C35166   9.336  11.043   7.848 -0.5297  0.3842  1.1511
  261MOL0     C35167   9.436  10.974   7.916 -0.4692  0.0245 -0.0612
  261MOL0     H35168   9.768  10.976   8.185  1.1728 -1.6584  1.1408
  261MOL0     H35169   9.976  10.993   8.336 -2.6239  0.6496 -0.3772
  261MOL0     H35170  10.240  11.091   8.283 -3.4320  0.0852  0.3184
  261MOL0     H35171  10.224  11.025   8.448  0.1962  0.9786 -0.8754
  261MOL0     H35172  10.445  10.900   8.412 -4.4537 -1.3438 -2.2611
  261MOL0     H35173  10.479  11.007   8.278  1.7440  2.4583  0.9650
  261MOL0     H35174  10.395  11.200   8.451  0.2445  1.2721 -4.0956
  261MOL0     H35175  10.502  11.098   8.547  0.3613 -0.3402 -0.2168
  261MOL0     H35176  10.679  11.124   8.397  1.1396  0.4069  1.0067
  261MOL0     H35177  10.565  11.207   8.278 -1.5075 -1.7646 -0.2787
  261MOL0     H35178  10.521  11.391   8.423 -1.0714 -0.8535 -0.0213
  261MOL0     H35179  10.655  11.328   8.537  1.2103  0.7928 -0.9997
  261MOL0     H35180  10.824  11.357   8.392  0.8118  0.6158  0.0313
  261MOL0     H35181  10.716  11.414   8.256  1.4789 -0.5282 -0.3645
  261MOL0     H35182  10.760  11.540   8.530 -2.6249  1.9290  0.8369
  261MOL0     H35183  10.845  11.583   8.377 -0.4369 -1.9537 -1.8916
  261MOL0     H35184  10.555  11.620   8.436 -1.1480  0.9053 -2.6995
  261MOL0     H35185  10.637  11.657   8.279  2.1900  3.0029  0.1500
  261MOL0     H35186  10.869  11.813   8.321  0.7654  0.4996 -1.3090
  261MOL0     H35187  10.882  12.112   8.292 -2.1577  2.5034  0.3772
  261MOL0     H35188  10.850  12.189   8.434  4.1725  2.2011 -0.6245
  261MOL0     H35189  11.096  12.142   8.380  3.1149 -3.7560 -0.9637
  261MOL0     H35190  11.073  11.968   8.431 -1.8701 -0.8308  3.7493
  261MOL0     H35191  11.020  12.023   8.650  0.5981 -0.1472 -1.1815
  261MOL0     H35192  10.997  12.194   8.607 -1.1432 -0.3231 -0.6606
  261MOL0     H35193  11.263  12.054   8.599  0.6603  0.7286 -1.5806
  261MOL0     H35194  11.213  12.164   8.727 -0.6067  0.5001 -0.8097
  261MOL0     H35195  11.458  12.153   8.438  2.2176 -0.8826 -1.1288
  261MOL0     H35196  11.703  12.108   8.426 -1.9688  0.3113 -1.2604
  261MOL0     H35197  11.794  12.267   8.394 -1.8924  0.7315  1.0449
  261MOL0     H35198  11.818  12.177   8.534  2.0048 -2.5962 -2.2330
  261MOL0     H35199  12.045  12.376   8.702 -0.6387  0.2853  1.0012
  261MOL0     H35200  12.267  12.447   8.798 -2.0691 -3.6447  0.5192
  261MOL0     H35201  12.264  12.787   9.105 -2.1826 -0.7675  1.2968
  261MOL0     H35202  12.272  12.616   9.163 -1.2997 -0.6170 -2.6620
  261MOL0     H35203  12.466  12.775   9.225  2.4712  1.4028 -0.8701
  261MOL0     H35204  12.508  12.610   9.154 -0.7951 -0.1811  1.0009
  261MOL0     H35205  12.503  12.878   8.985 -2.4856 -1.4532 -2.1848
  261MOL0     H35206  12.554  12.737   8.915 -0.8524  0.8244 -0.6124
  261MOL0     H35207  12.709  12.830   9.145  1.6874  1.1803 -0.3987
  261MOL0     H35208  12.755  12.717   9.011 -1.8216 -0.6215 -1.2083
  261MOL0     H35209  12.738  13.017   8.980 -0.7172  0.5288 -0.2064
  261MOL0     H35210  12.756  12.898   8.854 -0.4649  0.9661  0.6736
  261MOL0     H35211  12.940  12.947   9.090 -1.2244  0.1473 -0.1003
  261MOL0     H35212  12.980  12.838   8.956 -0.4774 -0.9171  0.9059
  261MOL0     H35213  12.982  13.029   8.797 -2.1116  1.3407 -0.6940
  261MOL0     H35214  13.100  13.041   8.928  0.3855 -2.8960 -0.1877
  261MOL0     H35215  12.936  13.193   9.052  0.2518 -0.8125  0.8753
  261MOL0     H35216  12.835  13.197   8.909  0.6119 -0.1423 -2.8427
  261MOL0     H35217  12.059  12.741   9.032 -1.4281 -1.3710  2.2586
  261MOL0     H35218  11.835  12.614   8.967  0.1644  0.7798  1.3055
  261MOL0     H35219  11.549  12.496   8.785  0.5726 -2.2089  1.6736
  261MOL0     H35220  11.329  12.420   8.740 -2.1452 -3.8353 -0.0801
  261MOL0     H35221  10.226  10.821   8.064  0.4147  0.7033 -0.9975
  261MOL0     H35222  10.036  10.814   7.883 -0.6594  1.3818 -1.4901
  261MOL0     H35223   9.684  10.979   7.688 -1.3477 -2.6125 -0.7945
  261MOL0     H35224   9.510  11.069   7.555  1.2713 -0.6400 -0.1786
  261MOL0     H35225   9.089  11.086   7.729 -1.9599  0.6991 -0.4340
  261MOL0     H35226   9.139  11.235   7.796  1.0425 -1.2969  0.8957
  261MOL0     H35227   9.119  11.338   7.559 -3.5269  2.1717 -0.4644
  261MOL0     H35228   8.967  11.288   7.633  0.6591  0.6654  0.3117
  261MOL0     H35229   8.930  11.138   7.463  0.9789 -0.7237  1.8085
  261MOL0     H35230   9.096  11.079   7.474  0.4306  0.4647 -2.0608
  261MOL0     H35231   9.048  11.173   7.254 -0.5889 -2.0249  1.7061
  261MOL0     H35232   9.177  11.260   7.330  0.4169 -0.7756  0.2388
  261MOL0     H35233   8.917  11.566   7.221  0.5247 -1.3399 -3.4177
  261MOL0     H35234   9.239  11.063   7.891 -1.5462  0.7509 -1.1512
  261MOL0     H35235   9.415  10.944   8.019 -1.0713 -0.2145 -0.2475
  262MOL0     O35236   0.320   6.230   8.641  0.1617  0.0524  0.7260
  262MOL0     C35237   0.430   6.239   8.688  0.7894 -0.2099 -0.4853
  262MOL0     O35238   0.459   6.322   8.795 -0.2358  0.4950  0.1782
  262MOL0     C35239   0.360   6.410   8.830  0.4076  0.1575 -0.0956
  262MOL0     C35240   0.398   6.547   8.841  0.5458  0.7407 -0.2352
  262MOL0     C35241   0.308   6.646   8.891  0.5525  0.0045  1.5671
  262MOL0     C35242   0.189   6.602   8.938  0.8326 -0.3548 -0.1017
  262MOL0     O35243   0.095   6.693   8.988  1.1481  0.3182  0.4977
  262MOL0     C35244   0.108   6.788   9.091 -0.7655 -1.3141  0.0005
  262MOL0     C35245  -0.007   6.882   9.099  0.3620 -0.3498 -1.1355
  262MOL0     C35246  -0.017   6.965   8.967 -0.2965  0.6711 -0.8903
  262MOL0     C35247  -0.098   7.096   8.993 -0.2201  0.5625 -0.6058
  262MOL0     C35248  -0.101   7.191   8.868  0.4152 -0.1356 -0.5777
  262MOL0     C35249   0.022   7.261   8.857 -0.5961  0.0964  0.3646
  262MOL0     C35250   0.022   7.321   8.714 -0.1360  0.1941  0.1993
  262MOL0     C35251  -0.079   7.439   8.694 -0.1215  0.1941 -0.0383
  262MOL0     N35252  -0.023   7.538   8.602 -0.2775 -0.1151 -0.1629
  262MOL0     C35253   0.082   7.623   8.632 -0.2254  0.4122  0.3290
  262MOL0     C35254   0.098   7.692   8.523 -0.7059  1.0771  0.1172
  262MOL0     C35255   0.180   7.815   8.498 -0.5355 -0.0546 -0.6374
  262MOL0     C35256   0.093   7.951   8.488  0.5674  1.1356  0.0457
  262MOL0     C35257   0.169   8.066   8.417 -1.2671  0.4175  0.3291
  262MOL0     C35258   0.080   8.181   8.421 -0.2079  0.5030  0.0145
  262MOL0     O35259   0.139   8.272   8.336 -0.6620 -0.6841  0.6952
  262MOL0     C35260   0.054   8.363   8.275  0.7650 -0.0265 -0.3485
  262MOL0     C35261   0.092   8.403   8.149 -0.0297 -0.5592 -0.8536
  262MOL0     C35262   0.022   8.504   8.082  0.0455  0.0230 -0.9038
  262MOL0     C35263   0.074   8.550   7.943  0.0514 -0.0197  0.0436
  262MOL0     C35264  -0.095   8.553   8.133 -0.4028 -0.5212 -0.3379
  262MOL0     C35265  -0.180   8.663   8.081 -0.4571  0.1113  0.8546
  262MOL0     O35266  -0.220   8.759   8.168  0.1387 -0.2209 -0.2640
  262MOL0     C35267  -0.333   8.842   8.142  0.1041  0.4644  0.0948
  262MOL0     C35268  -0.325   8.968   8.210  0.7745 -0.5472  0.7891
  262MOL0     C35269  -0.430   9.051   8.211  0.8402 -0.2512 -0.3704
  262MOL0     C35270  -0.546   9.015   8.139 -0.3003 -0.0910  0.5234
  262MOL0     O35271  -0.663   9.088   8.135 -0.6718 -0.2880 -0.0422
  262MOL0     C35272  -0.636   9.228   8.110 -0.9307 -0.1971  0.2799
  262MOL0     C35273  -0.600   9.253   7.965 -0.7456 -0.2633 -0.5992
  262MOL0     C35274  -0.727   9.235   7.868 -0.6055  0.7308 -0.3782
  262MOL0     C35275  -0.693   9.256   7.728 -0.4659  0.0047 -0.4205
  262MOL0     C35276  -0.811   9.230   7.631  0.5386 -0.4026  0.4952
  262MOL0     C35277  -0.767   9.233   7.484 -0.6746 -0.1448  0.0699
  262MOL0     C35278  -0.734   9.381   7.424  0.0605 -0.0461 -0.4780
  262MOL0     C35279  -0.704   9.369   7.267  0.0170 -0.2838  0.8777
  262MOL0    Cl35280  -0.846   9.364   7.175  0.6024 -0.0017 -0.0096
  262MOL0     C35281  -0.542   8.902   8.057 -0.1932 -0.5446 -0.0003
  262MOL0     C35282  -0.435   8.815   8.056 -0.2674  0.4693  0.0246
  262MOL0     O35283  -0.214   8.652   7.958  0.2875 -0.6325 -0.7208
  262MOL0     C35284  -0.130   8.516   8.261  0.3979 -0.3901 -0.6241
  262MOL0     C35285  -0.065   8.411   8.322 -1.2767 -0.5392 -0.1838
  262MOL0     N35286   0.005   7.654   8.419 -1.0795  0.4243 -0.0675
  262MOL0     N35287  -0.057   7.556   8.470 -0.6074 -0.0276 -0.3179
  262MOL0     C35288   0.155   6.465   8.938 -0.1502  0.1360  0.2315
  262MOL0     C35289   0.237   6.370   8.882 -0.4484  0.5001 -0.1425
  262MOL0     C35290   0.531   6.147   8.649  0.4415  0.2457 -0.5393
  262MOL0     C35291   0.656   6.142   8.710  0.7997 -0.6965  0.0191
  262MOL0     C35292   0.754   6.045   8.679  0.1371 -0.4109 -0.7521
  262MOL0     C35293   0.718   5.942   8.590  0.2763 -0.0969  0.0196
  262MOL0     O35294   0.810   5.849   8.558  0.2445 -0.2339 -0.0964
  262MOL0     C35295   0.805   5.804   8.419 -0.4858 -0.0137 -0.0049
  262MOL0     C35296   0.927   5.707   8.391 -0.1333 -0.5475 -1.0279
  262MOL0     C35297   1.065   5.766   8.421 -0.3508  0.1711  0.1478
  262MOL0     C35298   1.167   5.655   8.405 -1.1083  0.2030 -0.3384
  262MOL0     C35299   1.304   5.709   8.405 -1.2567  0.2379 -0.3380
  262MOL0     C35300   1.422   5.729   8.411  0.0192 -0.4737 -0.7923
  262MOL0     C35301   0.584   5.939   8.541  0.5395  0.4344  0.1099
  262MOL0     C35302   0.500   6.041   8.562 -0.1581  0.1705  0.0531
  262MOL0     H35303   0.503   6.576   8.838 -0.2866  4.2618  0.1021
  262MOL0     H35304   0.342   6.748   8.899  1.9880  0.0371 -2.7024
  262MOL0     H35305   0.127   6.744   9.190  2.9457 -0.2197 -0.0630
  262MOL0     H35306   0.194   6.847   9.061 -1.4495 -1.2118 -1.8527
  262MOL0     H35307  -0.101   6.827   9.108  0.6157 -1.3161 -3.5446
  262MOL0     H35308   0.020   6.951   9.179  0.7514 -1.4264 -0.3252
  262MOL0     H35309   0.083   6.995   8.933  0.4532  1.3637  1.7333
  262MOL0     H35310  -0.055   6.904   8.885 -0.3732  0.6620 -0.8473
  262MOL0     H35311  -0.200   7.066   9.019 -0.2782 -2.1798 -3.2960
  262MOL0     H35312  -0.054   7.151   9.076  0.1496 -0.5888 -0.0218
  262MOL0     H35313  -0.121   7.138   8.774 -1.1619 -0.6036 -0.0091
  262MOL0     H35314  -0.181   7.264   8.883 -0.5832 -1.0515 -1.2645
  262MOL0     H35315   0.039   7.333   8.937 -0.8808 -2.1155  2.5293
  262MOL0     H35316   0.110   7.196   8.860  0.4082  1.3847 -0.0152
  262MOL0     H35317   0.121   7.368   8.716 -1.1041  2.3281  0.5304
  262MOL0     H35318   0.004   7.252   8.631 -3.8493  1.2214  0.0034
  262MOL0     H35319  -0.103   7.481   8.792 -0.7535  0.1160 -0.1613
  262MOL0     H35320  -0.171   7.403   8.647 -1.3926  1.4061  1.4300
  262MOL0     H35321   0.143   7.637   8.721  0.3594 -1.1233  0.2171
  262MOL0     H35322   0.265   7.825   8.566 -1.1901  2.1408 -0.0578
  262MOL0     H35323   0.228   7.796   8.402  3.0800 -0.3905  1.0707
  262MOL0     H35324   0.086   7.974   8.594 -1.6160 -1.1318  0.5088
  262MOL0     H35325  -0.003   7.934   8.438  0.1901  2.9221  0.1275
  262MOL0     H35326   0.195   8.031   8.317 -2.0392 -2.9200  1.1868
  262MOL0     H35327   0.256   8.091   8.478 -2.1633 -1.1399  2.3503
  262MOL0     H35328   0.091   8.224   8.521 -0.6784 -2.2722  1.3624
  262MOL0     H35329  -0.025   8.159   8.401 -0.6883 -0.5385  3.1372
  262MOL0     H35330   0.181   8.361   8.103  1.1707 -1.6976  2.2505
  262MOL0     H35331   0.130   8.643   7.937 -3.5204  2.2579 -1.2954
  262MOL0     H35332   0.137   8.472   7.899 -1.2736 -1.8729  1.2543
  262MOL0     H35333  -0.019   8.545   7.885 -1.0165 -0.5130  1.6920
  262MOL0     H35334  -0.234   8.997   8.261  0.8368 -1.1697  1.0476
  262MOL0     H35335  -0.430   9.133   8.282  2.3186 -0.5423  0.0133
  262MOL0     H35336  -0.723   9.288   8.135 -1.2969 -1.1114  1.2436
  262MOL0     H35337  -0.562   9.268   8.180 -0.6760 -0.3931  0.1238
  262MOL0     H35338  -0.558   9.351   7.942  0.0864 -0.4960 -0.0935
  262MOL0     H35339  -0.537   9.170   7.931 -1.5591 -1.5839  1.0167
  262MOL0     H35340  -0.794   9.316   7.900 -0.2926  0.5398  0.8224
  262MOL0     H35341  -0.769   9.136   7.885  3.2014 -1.3705 -2.1292
  262MOL0     H35342  -0.656   9.356   7.705 -3.1762  1.0550 -0.6316
  262MOL0     H35343  -0.614   9.184   7.705  0.0677  0.4878 -0.1112
  262MOL0     H35344  -0.885   9.309   7.645 -0.6132 -1.6948  1.9749
  262MOL0     H35345  -0.855   9.134   7.660  0.3483 -0.1540  1.0385
  262MOL0     H35346  -0.682   9.165   7.475 -0.3583  0.2160  0.3107
  262MOL0     H35347  -0.853   9.192   7.429 -0.0325 -4.3335  1.8236
  262MOL0     H35348  -0.643   9.415   7.474  1.5818 -0.4421 -2.8530
  262MOL0     H35349  -0.817   9.448   7.447 -1.1836 -1.9023  0.7388
  262MOL0     H35350  -0.642   9.280   7.257 -0.4202 -0.3170 -2.8126
  262MOL0     H35351  -0.661   9.459   7.224 -0.0993  0.2685  1.8785
  262MOL0     H35352  -0.631   8.896   7.995 -2.7699  3.3650  2.8179
  262MOL0     H35353  -0.449   8.733   7.986  0.4099  1.2541 -1.0572
  262MOL0     H35354  -0.213   8.572   8.304  0.2861  1.0949 -2.5993
  262MOL0     H35355  -0.098   8.383   8.422  1.5235 -0.6330  0.8081
  262MOL0     H35356   0.060   6.449   8.988  0.6901  0.3746  1.9541
  262MOL0     H35357   0.207   6.267   8.868  0.9118  0.1163 -0.4408
  262MOL0     H35358   0.689   6.204   8.793  3.5002 -2.0293  0.0399
  262MOL0     H35359   0.856   6.035   8.715  0.2009 -0.2305 -0.8825
  262MOL0     H35360   0.721   5.741   8.389  1.9077 -2.9712 -0.8979
  262MOL0     H35361   0.822   5.882   8.344 -1.7223 -0.8001 -1.1358
  262MOL0     H35362   0.915   5.674   8.287 -1.2929 -1.8583 -0.5030
  262MOL0     H35363   0.924   5.615   8.450  1.0003 -0.1347 -0.2782
  262MOL0     H35364   1.074   5.810   8.521 -0.7978 -2.4054  1.4198
  262MOL0     H35365   1.074   5.850   8.352 -1.5962 -1.5941 -2.3134
  262MOL0     H35366   1.173   5.595   8.314 -0.2784 -1.4637  0.7552
  262MOL0     H35367   1.171   5.593   8.495  2.3005 -0.7872 -1.0171
  262MOL0     H35368   1.529   5.738   8.416  0.1752 -2.2648  3.2582
  262MOL0     H35369   0.540   5.861   8.479  0.0513  0.7946  0.0002
  262MOL0     H35370   0.404   6.035   8.512  0.1560 -6.1443 -0.5621
  263MOL0     O35371   4.702   0.170   7.943 -0.9971 -0.7013  0.1456
  263MOL0     C35372   4.693   0.047   7.924  0.2871 -0.8340  0.0090
  263MOL0     O35373   4.574  -0.020   7.894 -0.0624 -0.5905  0.7421
  263MOL0     C35374   4.471   0.065   7.881 -1.0011  0.6796  0.8246
  263MOL0     C35375   4.464   0.169   7.787  0.1674 -0.2359  0.8774
  263MOL0     C35376   4.345   0.224   7.739  0.5185  0.4732  1.8063
  263MOL0     C35377   4.225   0.183   7.789  0.4649 -0.1669 -0.5112
  263MOL0     O35378   4.117   0.235   7.727  0.2742  0.4410 -1.1476
  263MOL0     C35379   3.991   0.179   7.775  0.1098  0.1904  0.3443
  263MOL0     C35380   3.890   0.264   7.705  0.5091 -0.4016  0.8153
  263MOL0     C35381   3.742   0.238   7.747  0.8287 -0.0013 -0.3205
  263MOL0     C35382   3.637   0.332   7.665 -0.3221  0.4349  0.7534
  263MOL0     C35383   3.522   0.388   7.739  0.4912  0.1789  0.7001
  263MOL0     C35384   3.467   0.523   7.686  0.1276 -0.3715 -0.5217
  263MOL0     C35385   3.360   0.595   7.778  0.4025 -0.5417 -0.2204
  263MOL0     C35386   3.300   0.718   7.698 -0.0820  0.6024  0.2889
  263MOL0     N35387   3.180   0.753   7.787  0.2293 -0.9458 -0.1565
  263MOL0     C35388   3.193   0.836   7.901 -0.0583  1.0123 -0.1381
  263MOL0     C35389   3.084   0.809   7.966  0.2168 -0.3157  0.0454
  263MOL0     C35390   3.060   0.851   8.115 -0.1396  0.2302 -0.4482
  263MOL0     C35391   3.107   0.745   8.219 -0.0045  0.6221 -0.1844
  263MOL0     C35392   3.069   0.795   8.355  0.5777 -0.5037 -0.4512
  263MOL0     C35393   3.149   0.922   8.388 -0.1819 -0.8629 -0.1382
  263MOL0     O35394   3.120   0.951   8.527 -0.6294 -0.2034 -0.0636
  263MOL0     C35395   3.228   0.974   8.619 -0.9380 -0.2287  0.2984
  263MOL0     C35396   3.344   1.052   8.576  0.1257 -0.4598 -1.2834
  263MOL0     C35397   3.456   1.057   8.661  0.5072  0.2076 -0.2287
  263MOL0     C35398   3.562   1.159   8.615 -0.5527  0.3498 -0.8375
  263MOL0     C35399   3.445   1.000   8.790 -0.4995 -0.1128  0.2469
  263MOL0     C35400   3.545   1.029   8.895 -0.0903 -0.9755  0.3115
  263MOL0     O35401   3.672   1.030   8.844 -0.9060  0.5069  0.2637
  263MOL0     C35402   3.795   1.013   8.911  0.3792 -0.4949  0.0774
  263MOL0     C35403   3.915   1.016   8.834  0.2871  0.6054 -0.5863
  263MOL0     C35404   4.037   0.986   8.887 -0.1512 -0.3028  0.4194
  263MOL0     C35405   4.051   0.947   9.024  0.3242 -0.1053 -0.3065
  263MOL0     O35406   4.175   0.899   9.050 -0.5178 -0.2784 -1.0599
  263MOL0     C35407   4.213   0.867   9.188  0.2080  0.7885  0.5228
  263MOL0     C35408   4.332   0.773   9.189 -1.4274 -0.2337 -0.6374
  263MOL0     C35409   4.455   0.833   9.116 -0.0727 -0.4732 -0.8339
  263MOL0     C35410   4.554   0.730   9.060  0.0866 -0.8932  0.1888
  263MOL0     C35411   4.675   0.789   8.978 -0.1350  0.1321 -0.2681
  263MOL0     C35412   4.638   0.856   8.843  1.0044  0.2328  0.1212
  263MOL0     C35413   4.591   1.006   8.860  0.7156  0.1572  0.3410
  263MOL0     C35414   4.510   1.051   8.736 -0.5096  0.6176 -0.2389
  263MOL0    Cl35415   4.360   0.947   8.731 -0.2344 -0.2736 -0.0674
  263MOL0     C35416   3.939   0.933   9.098  0.7163  0.0089 -0.0764
  263MOL0     C35417   3.814   0.969   9.046  0.0391  0.6072  0.9624
  263MOL0     O35418   3.518   1.046   9.017 -0.0193  0.1990  0.5985
  263MOL0     C35419   3.336   0.921   8.827 -0.8265 -0.7568 -0.1445
  263MOL0     C35420   3.233   0.913   8.739  0.1628 -0.2917 -0.1968
  263MOL0     N35421   3.006   0.717   7.902 -0.4182 -0.9770 -0.5582
  263MOL0     N35422   3.063   0.686   7.791  0.8643 -0.1700 -0.2826
  263MOL0     C35423   4.227   0.095   7.905  0.2257  0.1398 -0.4730
  263MOL0     C35424   4.352   0.038   7.948  0.3843  0.0628 -0.1454
  263MOL0     C35425   4.817  -0.022   7.931 -0.5334 -0.0603  0.0824
  263MOL0     C35426   4.919   0.033   8.009  0.2063  1.1011  0.9355
  263MOL0     C35427   5.037  -0.041   8.030 -0.5044 -0.6655  0.5697
  263MOL0     C35428   5.067  -0.157   7.957  0.4231  0.3138  0.0214
  263MOL0     O35429   5.185  -0.226   7.969 -0.7587  0.2128  0.2665
  263MOL0     C35430   5.199  -0.333   7.879  0.2341  0.1244  0.6901
  263MOL0     C35431   5.336  -0.384   7.882  0.0343  0.1552  0.4136
  263MOL0     C35432   5.351  -0.511   7.973 -0.2386 -0.0624  0.4813
  263MOL0     C35433   5.480  -0.600   7.941  0.2555  0.5180  0.1966
  263MOL0     C35434   5.602  -0.531   7.994 -0.4692 -0.6950 -0.2242
  263MOL0     C35435   5.698  -0.474   8.050  0.5038  0.0454  0.0896
  263MOL0     C35436   4.956  -0.211   7.883 -0.4195  0.3501 -0.2674
  263MOL0     C35437   4.835  -0.143   7.868 -0.3434 -0.1748 -0.2170
  263MOL0     H35438   4.554   0.196   7.732 -1.0754  0.3058 -0.9805
  263MOL0     H35439   4.346   0.290   7.653 -1.6880  0.6462  1.8600
  263MOL0     H35440   3.977   0.074   7.747 -4.5114 -0.5960  4.1898
  263MOL0     H35441   3.981   0.196   7.883 -1.5186 -2.8326  0.8133
  263MOL0     H35442   3.915   0.368   7.724 -0.6716  0.1189 -0.3735
  263MOL0     H35443   3.900   0.240   7.599 -4.1504 -2.7466  0.6411
  263MOL0     H35444   3.709   0.136   7.727 -2.5002  1.7274 -6.0866
  263MOL0     H35445   3.732   0.253   7.855 -2.8073  0.4451 -0.5710
  263MOL0     H35446   3.708   0.410   7.637  0.6175 -1.6392 -3.3332
  263MOL0     H35447   3.610   0.280   7.573 -1.6485 -1.1850  1.9762
  263MOL0     H35448   3.439   0.318   7.744 -1.0319  1.4954 -2.8412
  263MOL0     H35449   3.558   0.407   7.840 -0.2783  1.8927  0.6910
  263MOL0     H35450   3.547   0.594   7.670 -0.0231 -0.4433 -1.6727
  263MOL0     H35451   3.424   0.491   7.591  2.5501 -1.3467 -1.3717
  263MOL0     H35452   3.285   0.517   7.792  0.4107 -1.1639 -3.0810
  263MOL0     H35453   3.413   0.626   7.870 -1.3677 -2.2071  1.4487
  263MOL0     H35454   3.269   0.677   7.601 -2.6943 -0.0341  1.3060
  263MOL0     H35455   3.369   0.802   7.685 -0.6782  1.0727  0.1354
  263MOL0     H35456   3.270   0.902   7.942 -1.3322 -0.4299  5.3965
  263MOL0     H35457   3.117   0.942   8.135 -1.9388  1.5846 -1.2606
  263MOL0     H35458   2.957   0.887   8.123 -1.2373 -3.0026  2.8606
  263MOL0     H35459   3.215   0.734   8.213 -0.0034  0.0506  0.6990
  263MOL0     H35460   3.060   0.649   8.199 -2.6328  2.2720 -2.7118
  263MOL0     H35461   3.090   0.720   8.432  3.1091 -0.5786 -1.1190
  263MOL0     H35462   2.964   0.823   8.367  0.3698 -0.7529 -1.6272
  263MOL0     H35463   3.121   1.013   8.335 -0.4065 -0.4553  0.6558
  263MOL0     H35464   3.255   0.898   8.378  0.6655  1.8361  1.3339
  263MOL0     H35465   3.332   1.111   8.486 -3.3762  3.0571  1.1327
  263MOL0     H35466   3.657   1.107   8.599 -0.6639 -0.6641  1.5025
  263MOL0     H35467   3.533   1.217   8.526 -1.8443 -0.7180 -1.1350
  263MOL0     H35468   3.587   1.233   8.691 -0.4953  1.6399 -2.0545
  263MOL0     H35469   3.917   1.034   8.727 -1.0959  2.9508 -0.2866
  263MOL0     H35470   4.116   0.976   8.813 -1.0463  3.1290 -1.2522
  263MOL0     H35471   4.234   0.957   9.246  1.8486 -0.0639  1.3138
  263MOL0     H35472   4.137   0.806   9.236 -0.6107 -1.2420 -3.0201
  263MOL0     H35473   4.363   0.759   9.293 -4.1963 -4.1836 -0.1008
  263MOL0     H35474   4.309   0.679   9.138  0.8281 -0.9157 -0.5083
  263MOL0     H35475   4.506   0.897   9.189 -0.3433 -2.4752  1.2222
  263MOL0     H35476   4.422   0.891   9.029 -2.6672  0.7409  0.8514
  263MOL0     H35477   4.610   0.670   9.132  1.3816 -0.1646 -0.1815
  263MOL0     H35478   4.481   0.682   8.994 -0.5583  2.9603 -2.1900
  263MOL0     H35479   4.751   0.712   8.964  3.0802  2.1219  3.7775
  263MOL0     H35480   4.729   0.869   9.030  1.5746  0.4992 -2.4647
  263MOL0     H35481   4.724   0.849   8.776  1.9701  0.1125  1.3456
  263MOL0     H35482   4.552   0.795   8.814 -1.5105  3.8071 -0.6709
  263MOL0     H35483   4.685   1.062   8.853  0.1083  1.2940  1.1670
  263MOL0     H35484   4.533   1.035   8.948 -4.1667 -0.4250 -2.3341
  263MOL0     H35485   4.588   1.042   8.660 -0.8697  1.9843 -0.7913
  263MOL0     H35486   4.490   1.158   8.736  1.1623  0.9838 -2.0277
  263MOL0     H35487   3.941   0.898   9.201 -1.4325  1.7493  0.6605
  263MOL0     H35488   3.726   0.973   9.108  0.5527 -2.4186  2.0520
  263MOL0     H35489   3.335   0.876   8.926  0.7477 -0.1885  0.1455
  263MOL0     H35490   3.155   0.843   8.765  2.3555 -2.6560  0.4208
  263MOL0     H35491   4.135   0.073   7.959  0.7975 -1.5945 -0.1271
  263MOL0     H35492   4.350  -0.044   8.019 -0.4059 -1.7545 -2.1452
  263MOL0     H35493   4.900   0.126   8.061 -3.1451 -1.2750  4.5354
  263MOL0     H35494   5.121   0.011   8.076  1.4998 -4.7225  2.0178
  263MOL0     H35495   5.116  -0.404   7.885 -2.0842  2.7368  1.8714
  263MOL0     H35496   5.178  -0.303   7.775  1.8045  1.7824  0.8000
  263MOL0     H35497   5.413  -0.313   7.915  0.4015 -0.5309  1.0805
  263MOL0     H35498   5.354  -0.420   7.781 -0.7501 -1.4685  0.8144
  263MOL0     H35499   5.264  -0.576   7.966 -0.5625  0.2877  1.1516
  263MOL0     H35500   5.359  -0.477   8.077  1.2288  1.1811 -0.0003
  263MOL0     H35501   5.487  -0.614   7.833  1.5246 -0.9335  0.4424
  263MOL0     H35502   5.472  -0.700   7.984  0.3006  0.8849  1.0696
  263MOL0     H35503   5.781  -0.415   8.081  0.3772  1.4971 -2.1397
  263MOL0     H35504   4.954  -0.309   7.837  1.2972 -0.7921  1.8847
  263MOL0     H35505   4.750  -0.189   7.818  0.7424  0.8419 -3.1964
  264MOL0     O35506   2.154   1.718  10.880 -0.1587 -0.6076 -0.1769
  264MOL0     C35507   2.133   1.836  10.844  0.0855 -0.6377 -0.0030
  264MOL0     O35508   2.010   1.899  10.831  0.2561 -0.4437 -0.2382
  264MOL0     C35509   1.893   1.833  10.847 -0.0388 -0.6631  0.2606
  264MOL0     C35510   1.789   1.906  10.908  0.6888  0.9582 -0.1073
  264MOL0     C35511   1.667   1.833  10.917 -1.0704 -0.4472  0.7437
  264MOL0     C35512   1.651   1.704  10.866  0.2918 -0.0755  0.9498
  264MOL0     O35513   1.528   1.637  10.888 -0.4820 -0.6485  0.5647
  264MOL0     C35514   1.516   1.495  10.884 -0.1085 -0.2235 -0.1411
  264MOL0     C35515   1.374   1.472  10.945  0.2334 -0.0566 -0.2779
  264MOL0     C35516   1.353   1.533  11.086 -0.3020 -0.3667  0.0332
  264MOL0     C35517   1.245   1.467  11.164 -0.5992 -0.0385 -0.2257
  264MOL0     C35518   1.190   1.560  11.282 -0.4174  1.0030 -0.2213
  264MOL0     C35519   1.111   1.465  11.379 -0.3748 -0.7784  0.7429
  264MOL0     C35520   1.199   1.336  11.427  0.6110  0.7583 -0.2057
  264MOL0     C35521   1.125   1.282  11.554 -0.4887  0.1873  0.0529
  264MOL0     N35522   0.977   1.260  11.554  0.1094 -0.9965  0.1481
  264MOL0     C35523   0.891   1.356  11.596 -0.5728  0.0137  0.7769
  264MOL0     C35524   0.765   1.307  11.570  0.3607 -0.6130 -0.3755
  264MOL0     C35525   0.635   1.384  11.589  0.2987 -0.2477 -0.6152
  264MOL0     C35526   0.536   1.318  11.681 -0.1306  0.9200 -0.3454
  264MOL0     C35527   0.402   1.392  11.676  0.3597 -0.5400  0.1308
  264MOL0     C35528   0.296   1.337  11.771  0.1565  0.9782  0.2454
  264MOL0     O35529   0.234   1.222  11.695  0.3809 -0.0157 -0.4629
  264MOL0     C35530   0.151   1.138  11.769  1.2426 -0.5982 -0.2128
  264MOL0     C35531   0.084   1.185  11.888 -0.7771 -0.2158  0.1536
  264MOL0     C35532  -0.001   1.097  11.966 -0.1369  0.2434 -0.3996
  264MOL0     C35533  -0.060   1.151  12.100 -0.7268 -0.2043  0.2505
  264MOL0     C35534  -0.018   0.961  11.925 -0.3270 -0.5094  0.6574
  264MOL0     C35535  -0.117   0.878  11.996 -0.7113  0.0042 -1.1409
  264MOL0     O35536  -0.068   0.742  11.988  0.1889 -0.8204 -0.2054
  264MOL0     C35537  -0.154   0.643  12.044 -0.5330 -0.3605 -1.1518
  264MOL0     C35538  -0.238   0.587  11.959  0.7186 -0.6612 -0.5377
  264MOL0     C35539  -0.332   0.493  12.015 -0.9942  0.7762 -0.2613
  264MOL0     C35540  -0.340   0.467  12.153 -0.4186  0.3124  0.1070
  264MOL0     O35541  -0.409   0.365  12.208  0.4120 -0.2876 -0.9324
  264MOL0     C35542  -0.485   0.278  12.131  0.0799 -0.7267 -0.6310
  264MOL0     C35543  -0.554   0.172  12.221  0.5416  0.5961  0.2919
  264MOL0     C35544  -0.446   0.070  12.284 -0.2218 -0.6238 -0.6640
  264MOL0     C35545  -0.503  -0.010  12.392 -0.2857 -0.5545  0.6714
  264MOL0     C35546  -0.581  -0.128  12.335 -0.7716 -0.2706  0.5492
  264MOL0     C35547  -0.659  -0.204  12.450 -0.6436 -0.0568  0.4876
  264MOL0     C35548  -0.713  -0.336  12.400  0.7555  0.4740  0.1952
  264MOL0     C35549  -0.806  -0.392  12.501 -0.6144  0.7547  0.6621
  264MOL0    Cl35550  -0.728  -0.442  12.649 -0.2879 -0.2660  0.1643
  264MOL0     C35551  -0.258   0.543  12.237  0.9790 -1.2956 -0.2339
  264MOL0     C35552  -0.163   0.633  12.190  1.0921  0.3934 -0.4845
  264MOL0     O35553  -0.208   0.912  12.067  0.4997 -0.6444  0.9329
  264MOL0     C35554   0.041   0.916  11.812  0.3247  0.0081  0.6034
  264MOL0     C35555   0.134   0.998  11.733  0.1870  0.1695 -0.2731
  264MOL0     N35556   0.782   1.177  11.519 -0.6173 -0.2967  0.2095
  264MOL0     N35557   0.909   1.159  11.500 -0.2650 -0.4689  0.6809
  264MOL0     C35558   1.757   1.638  10.801 -0.0959 -0.3411 -0.9943
  264MOL0     C35559   1.874   1.704  10.790  0.2944  0.2119 -0.6724
  264MOL0     C35560   2.252   1.904  10.808  0.0145  0.1274  0.5223
  264MOL0     C35561   2.374   1.842  10.775 -0.3912 -0.2378 -1.2536
  264MOL0     C35562   2.481   1.923  10.733  0.3239  0.6273  0.0762
  264MOL0     C35563   2.471   2.056  10.731 -0.2415  0.4578 -0.0096
  264MOL0     O35564   2.573   2.145  10.697  0.0087 -0.4234  0.1109
  264MOL0     C35565   2.665   2.105  10.583  0.8091 -0.5015  0.7691
  264MOL0     C35566   2.603   2.068  10.446 -1.1848  0.0390 -0.7524
  264MOL0     C35567   2.547   2.183  10.358 -0.2987 -0.0635 -0.0219
  264MOL0     C35568   2.434   2.262  10.426  0.4180  0.5627 -0.7013
  264MOL0     C35569   2.304   2.192  10.432 -0.0908 -0.3378  0.3301
  264MOL0     C35570   2.193   2.143  10.444 -0.2656  1.4524  0.1466
  264MOL0     C35571   2.356   2.119  10.760  1.0819 -0.2330  0.3900
  264MOL0     C35572   2.247   2.047  10.809 -0.3419  0.9078 -0.4335
  264MOL0     H35573   1.805   2.005  10.950  0.1855  0.9123  0.2090
  264MOL0     H35574   1.576   1.885  10.947 -2.6876 -1.8417 -1.4110
  264MOL0     H35575   1.529   1.468  10.779  1.2024  3.3767 -1.0845
  264MOL0     H35576   1.594   1.453  10.949  1.3421  0.0196 -1.6389
  264MOL0     H35577   1.300   1.520  10.880 -0.1546 -0.0779  0.1450
  264MOL0     H35578   1.345   1.367  10.957 -1.5884  0.6106  1.8023
  264MOL0     H35579   1.441   1.552  11.148 -0.2040  1.5380 -0.6246
  264MOL0     H35580   1.310   1.633  11.069  2.0585  0.8249  0.5999
  264MOL0     H35581   1.156   1.447  11.103 -2.3189 -0.5601  2.3068
  264MOL0     H35582   1.286   1.371  11.194  1.9044  1.3320  1.0902
  264MOL0     H35583   1.289   1.591  11.318  0.0008 -0.7572  0.2536
  264MOL0     H35584   1.132   1.644  11.244 -2.0505 -0.7104 -1.7303
  264MOL0     H35585   1.081   1.527  11.464 -0.3549  0.3792 -0.0646
  264MOL0     H35586   1.022   1.428  11.326 -1.3587  0.0674  1.7473
  264MOL0     H35587   1.212   1.249  11.362  0.0928 -1.5072  2.4707
  264MOL0     H35588   1.301   1.362  11.454 -0.2439  2.7336  1.3800
  264MOL0     H35589   1.138   1.348  11.641 -0.9563 -1.8361  1.7419
  264MOL0     H35590   1.179   1.188  11.570  2.2698  1.8024  0.8697
  264MOL0     H35591   0.920   1.452  11.638 -0.8030 -0.1274  1.2687
  264MOL0     H35592   0.643   1.486  11.630 -0.9777 -0.7485  1.0019
  264MOL0     H35593   0.585   1.400  11.494 -1.7901  1.1671  0.6308
  264MOL0     H35594   0.568   1.305  11.785  3.1700  0.5573 -1.2714
  264MOL0     H35595   0.527   1.215  11.645  3.0583  0.4328 -0.0941
  264MOL0     H35596   0.377   1.384  11.570  1.1091 -1.8697  0.0390
  264MOL0     H35597   0.413   1.501  11.686  1.2037 -0.6320  0.3100
  264MOL0     H35598   0.223   1.417  11.783 -0.6431  0.1593  1.0545
  264MOL0     H35599   0.335   1.309  11.869 -0.9213 -3.7885 -0.4079
  264MOL0     H35600   0.107   1.285  11.925  0.5968 -0.6199  0.4415
  264MOL0     H35601  -0.165   1.170  12.078 -0.5162 -1.5957 -2.2939
  264MOL0     H35602  -0.049   1.081  12.184 -0.0581  0.6496  0.9022
  264MOL0     H35603  -0.002   1.237  12.134 -0.7498 -0.4785  1.0086
  264MOL0     H35604  -0.226   0.633  11.861 -1.8496  0.2800 -0.4906
  264MOL0     H35605  -0.401   0.457  11.940 -1.6491  1.9981 -0.2714
  264MOL0     H35606  -0.559   0.344  12.085  0.1975  1.1083  1.6690
  264MOL0     H35607  -0.431   0.219  12.056 -1.4376 -1.6468 -1.0507
  264MOL0     H35608  -0.594   0.240  12.297  0.0173  0.7830 -0.1449
  264MOL0     H35609  -0.638   0.120  12.174  0.5273 -1.5456  2.5306
  264MOL0     H35610  -0.370   0.135  12.328  0.4915 -0.1172 -2.5746
  264MOL0     H35611  -0.378   0.016  12.217  4.4644  4.8403 -1.1272
  264MOL0     H35612  -0.423  -0.052  12.453 -1.0317 -0.4522  1.7435
  264MOL0     H35613  -0.561   0.054  12.459  1.1169 -1.5600  2.9447
  264MOL0     H35614  -0.502  -0.199  12.310  0.8684  0.6957  2.6616
  264MOL0     H35615  -0.652  -0.110  12.253 -1.5695 -1.1099  1.0402
  264MOL0     H35616  -0.587  -0.233  12.526  1.5423  1.9454 -0.6705
  264MOL0     H35617  -0.734  -0.141  12.498  1.0933  1.4558  1.3775
  264MOL0     H35618  -0.637  -0.413  12.381  0.2600 -0.0163  0.1731
  264MOL0     H35619  -0.766  -0.327  12.305  2.4700 -2.5491 -1.2006
  264MOL0     H35620  -0.845  -0.481  12.452  1.3208 -0.4267  1.1558
  264MOL0     H35621  -0.891  -0.328  12.529 -1.2367 -0.3432  1.3741
  264MOL0     H35622  -0.258   0.515  12.342  0.8393  0.4839  0.2733
  264MOL0     H35623  -0.093   0.695  12.246  3.2668 -2.3927  0.1027
  264MOL0     H35624   0.041   0.812  11.778 -0.2207  0.3338 -0.4618
  264MOL0     H35625   0.192   0.951  11.653  1.1715  4.4006 -2.3238
  264MOL0     H35626   1.761   1.536  10.764  1.2341 -2.0378  3.2535
  264MOL0     H35627   1.968   1.661  10.757  1.0738  0.0208  1.6309
  264MOL0     H35628   2.384   1.734  10.778 -0.0101 -0.1927 -0.6510
  264MOL0     H35629   2.569   1.871  10.697  1.5401  1.2795  2.0157
  264MOL0     H35630   2.735   2.187  10.566  0.6741 -0.8855 -2.0743
  264MOL0     H35631   2.726   2.017  10.606  1.0592 -1.9069 -4.1282
  264MOL0     H35632   2.525   1.992  10.455 -0.7352 -0.8861 -3.5131
  264MOL0     H35633   2.688   2.018  10.399 -0.3009 -1.0034  1.7949
  264MOL0     H35634   2.511   2.137  10.266  1.9727 -2.0549 -0.0104
  264MOL0     H35635   2.627   2.258  10.349 -0.1923  0.3624  3.1128
  264MOL0     H35636   2.421   2.353  10.367 -1.3915  0.9983  0.2901
  264MOL0     H35637   2.470   2.299  10.523  2.5433  1.2803 -1.6966
  264MOL0     H35638   2.094   2.101  10.449  1.0792 -2.4458 -1.8897
  264MOL0     H35639   2.342   2.226  10.758 -0.5426 -0.0946  5.6301
  264MOL0     H35640   2.157   2.093  10.850 -0.6127  0.6390 -0.7213
  265MOL0     O35641   1.695   3.514   1.779  0.3532 -0.3260 -0.6215
  265MOL0     C35642   1.632   3.622   1.780 -0.7600 -0.5749  0.3773
  265MOL0     O35643   1.496   3.646   1.748 -0.2282  0.8954  0.6914
  265MOL0     C35644   1.419   3.530   1.760 -1.3073  0.7191  0.7097
  265MOL0     C35645   1.381   3.484   1.883 -0.3665  0.0102 -0.3646
  265MOL0     C35646   1.301   3.374   1.883  0.2307 -0.2695 -0.0282
  265MOL0     C35647   1.266   3.302   1.765 -0.4475  0.6917 -0.4343
  265MOL0     O35648   1.206   3.177   1.774 -0.6210 -0.2480  0.3371
  265MOL0     C35649   1.125   3.132   1.891  0.1475 -0.6951 -1.0632
  265MOL0     C35650   1.085   2.983   1.885 -0.2722 -0.0663 -0.1937
  265MOL0     C35651   0.972   2.937   1.977 -0.5180  0.0864  0.2053
  265MOL0     C35652   0.988   2.981   2.118 -0.0210  0.0115  0.6637
  265MOL0     C35653   0.862   2.967   2.205 -0.0979  0.0116  0.0338
  265MOL0     C35654   0.852   3.051   2.332  0.3763 -0.2985  0.3376
  265MOL0     C35655   0.733   3.013   2.415  0.2190 -0.0251  0.0391
  265MOL0     C35656   0.713   3.109   2.532  0.3621  0.3114 -0.0136
  265MOL0     N35657   0.633   3.042   2.635 -0.6620  0.1966  0.7935
  265MOL0     C35658   0.500   3.042   2.632 -0.4839 -0.1850  0.2928
  265MOL0     C35659   0.458   2.947   2.722 -0.6313 -0.6705 -0.1512
  265MOL0     C35660   0.325   2.888   2.743 -0.2440 -0.7028  0.7130
  265MOL0     C35661   0.272   2.909   2.890  0.1540 -0.7843  0.4191
  265MOL0     C35662   0.128   2.921   2.890  0.7077 -0.0814  0.8039
  265MOL0     C35663   0.086   2.897   3.038  0.1712 -1.0489  1.2744
  265MOL0     O35664  -0.052   2.944   3.055  0.4480 -0.1250  0.3884
  265MOL0     C35665  -0.068   3.070   3.106 -0.6207 -0.1020  0.4506
  265MOL0     C35666   0.011   3.187   3.089  0.1911 -0.3742 -0.1887
  265MOL0     C35667  -0.018   3.312   3.135  0.2351  0.5166  0.7949
  265MOL0     C35668   0.081   3.430   3.119 -1.0720 -0.7166  0.1040
  265MOL0     C35669  -0.144   3.335   3.194  0.2259 -0.8093 -0.2581
  265MOL0     C35670  -0.195   3.474   3.240 -0.1850  0.2016  0.1075
  265MOL0     O35671  -0.152   3.591   3.180  0.8007 -0.2888  0.5734
  265MOL0     C35672  -0.151   3.703   3.260 -0.6472 -0.5829  0.7919
  265MOL0     C35673  -0.037   3.719   3.353  0.4560 -0.2062  0.2145
  265MOL0     C35674  -0.046   3.817   3.445  0.4891 -1.3518 -0.0921
  265MOL0     C35675  -0.153   3.905   3.450 -0.2090  0.9954 -0.0517
  265MOL0     O35676  -0.156   4.019   3.513  0.4802 -0.0771  0.0013
  265MOL0     C35677  -0.236   4.014   3.634 -0.6980 -0.4977  0.1905
  265MOL0     C35678  -0.229   4.154   3.681  0.7469 -0.7608 -0.7814
  265MOL0     C35679  -0.320   4.184   3.807  0.6109  0.4273 -0.1825
  265MOL0     C35680  -0.278   4.099   3.935  0.5415 -0.3631  0.8053
  265MOL0     C35681  -0.148   4.147   3.999 -0.0844 -0.3381 -0.1377
  265MOL0     C35682  -0.127   4.084   4.131  0.4202  0.6763 -0.2708
  265MOL0     C35683  -0.203   4.127   4.252 -0.1770  0.0455  0.9251
  265MOL0     C35684  -0.171   4.267   4.308  0.4935  1.1110  0.0174
  265MOL0    Cl35685  -0.324   4.366   4.301  0.1233 -0.0148 -0.4391
  265MOL0     C35686  -0.254   3.887   3.354 -0.6181 -0.0588 -0.5760
  265MOL0     C35687  -0.256   3.784   3.263  0.9798  0.0789 -0.5459
  265MOL0     O35688  -0.281   3.467   3.326 -0.5405 -0.0157 -0.7023
  265MOL0     C35689  -0.232   3.223   3.196  0.0603  0.2742 -1.6255
  265MOL0     C35690  -0.195   3.090   3.163 -1.1293  0.3496 -0.3068
  265MOL0     N35691   0.575   2.907   2.786 -0.1840 -0.5229  0.1910
  265MOL0     N35692   0.682   2.955   2.724  0.0325  0.1242  0.0345
  265MOL0     C35693   1.302   3.354   1.642  0.1256 -0.2862  0.5643
  265MOL0     C35694   1.373   3.475   1.645 -0.0747 -0.4839  0.8512
  265MOL0     C35695   1.700   3.740   1.841 -0.7521  0.1680 -0.1714
  265MOL0     C35696   1.819   3.730   1.909 -0.7857  0.3232  0.3377
  265MOL0     C35697   1.886   3.836   1.960 -0.4159 -0.0367  1.1844
  265MOL0     C35698   1.842   3.968   1.958 -0.0282 -0.5843 -0.3264
  265MOL0     O35699   1.922   4.072   2.007 -0.2954 -0.5181 -0.0643
  265MOL0     C35700   2.047   4.043   2.079 -0.2856 -0.4434  1.4797
  265MOL0     C35701   2.031   3.995   2.220 -0.7490 -1.1122 -0.3560
  265MOL0     C35702   1.951   4.086   2.314 -0.3687  0.6721 -0.2819
  265MOL0     C35703   1.805   4.089   2.268 -0.2515 -0.7057 -0.0208
  265MOL0     C35704   1.721   4.128   2.382 -0.1185  0.3627  1.0936
  265MOL0     C35705   1.645   4.158   2.469 -0.6260 -0.3433 -0.1859
  265MOL0     C35706   1.729   3.987   1.887  0.7215  0.2155  1.9476
  265MOL0     C35707   1.651   3.878   1.834 -0.4574 -0.1883 -0.2522
  265MOL0     H35708   1.407   3.530   1.977  0.2867 -0.1381 -0.4674
  265MOL0     H35709   1.258   3.342   1.978  2.0471  0.3555  1.0487
  265MOL0     H35710   1.184   3.147   1.982 -0.7109  0.6142 -0.6835
  265MOL0     H35711   1.037   3.195   1.909  0.7933 -0.4394  1.8514
  265MOL0     H35712   1.058   2.958   1.782  0.5787  2.2130 -1.0442
  265MOL0     H35713   1.175   2.922   1.898  0.5868  1.1498 -0.2551
  265MOL0     H35714   0.880   2.970   1.928 -0.2028 -1.3368 -1.4350
  265MOL0     H35715   0.979   2.828   1.977 -4.6408 -0.3497 -1.3435
  265MOL0     H35716   1.072   2.919   2.150  0.2522 -0.6221 -1.1472
  265MOL0     H35717   1.021   3.085   2.107  2.8764 -0.5045  3.1047
  265MOL0     H35718   0.777   2.988   2.138  0.2301  3.0396  0.4371
  265MOL0     H35719   0.858   2.862   2.236 -0.0230  0.1232  0.4212
  265MOL0     H35720   0.938   3.014   2.389  1.7589  0.5440 -1.1322
  265MOL0     H35721   0.849   3.159   2.314 -0.1275 -0.6236 -1.7806
  265MOL0     H35722   0.638   3.017   2.359 -2.0974 -4.5072  3.0283
  265MOL0     H35723   0.742   2.909   2.448  1.7321  0.0008 -0.2287
  265MOL0     H35724   0.672   3.204   2.497  1.4671  0.4985 -0.8448
  265MOL0     H35725   0.808   3.128   2.582  1.2644 -3.8246  0.2099
  265MOL0     H35726   0.435   3.100   2.567 -1.9015  1.5425  3.0416
  265MOL0     H35727   0.261   2.949   2.678 -1.3783 -2.3062  0.2697
  265MOL0     H35728   0.321   2.787   2.702 -0.6163  0.2441 -1.7610
  265MOL0     H35729   0.305   3.010   2.918  0.8544 -0.8758 -0.0483
  265MOL0     H35730   0.312   2.839   2.964  3.3791  0.1697 -0.2767
  265MOL0     H35731   0.075   2.850   2.827  1.3221  2.0209 -2.3304
  265MOL0     H35732   0.098   3.020   2.854 -0.3940 -0.2269  1.2897
  265MOL0     H35733   0.140   2.948   3.118 -0.0231  3.0720 -0.9740
  265MOL0     H35734   0.096   2.790   3.060  0.3372 -1.1615  0.6573
  265MOL0     H35735   0.102   3.181   3.031 -1.1380 -0.5318 -2.3942
  265MOL0     H35736   0.180   3.384   3.119 -0.2847  0.7592  3.0004
  265MOL0     H35737   0.054   3.481   3.026 -1.2558 -3.6174 -1.5776
  265MOL0     H35738   0.083   3.496   3.206  4.4944 -1.9146  1.2411
  265MOL0     H35739   0.034   3.638   3.338 -0.1192 -1.1572  2.3219
  265MOL0     H35740   0.036   3.829   3.516  1.5872 -0.6277 -1.4374
  265MOL0     H35741  -0.336   3.979   3.604 -1.2593  2.9799 -2.7435
  265MOL0     H35742  -0.196   3.943   3.706  3.0980 -1.1485 -2.2665
  265MOL0     H35743  -0.127   4.191   3.696  0.3068  0.1684  0.0178
  265MOL0     H35744  -0.262   4.212   3.595 -2.7323  2.1644  2.2143
  265MOL0     H35745  -0.423   4.160   3.781  0.7987  0.7284 -1.2535
  265MOL0     H35746  -0.321   4.291   3.826 -2.6014  0.5603 -0.5512
  265MOL0     H35747  -0.348   4.119   4.017  3.0051  0.8588  2.7442
  265MOL0     H35748  -0.283   3.992   3.913  0.2661  0.0640 -1.4913
  265MOL0     H35749  -0.141   4.256   4.009 -0.6149 -0.2497 -0.6901
  265MOL0     H35750  -0.062   4.110   3.942  0.8497  2.1955 -0.5327
  265MOL0     H35751  -0.144   3.977   4.112  0.5038  0.5665  0.2816
  265MOL0     H35752  -0.022   4.102   4.155  0.6387 -0.6381 -0.1506
  265MOL0     H35753  -0.187   4.049   4.327  0.8340 -0.6016  0.0695
  265MOL0     H35754  -0.310   4.110   4.237 -0.0712  1.3657 -2.0860
  265MOL0     H35755  -0.096   4.318   4.246  2.0517  2.6324  2.9240
  265MOL0     H35756  -0.136   4.266   4.412  0.9065  0.5021 -0.1168
  265MOL0     H35757  -0.342   3.950   3.366  0.5151  1.6837 -0.9557
  265MOL0     H35758  -0.343   3.755   3.205 -1.9781  0.4926  3.2849
  265MOL0     H35759  -0.325   3.245   3.248  1.8758  0.1431  1.9022
  265MOL0     H35760  -0.254   3.002   3.187  3.5913 -2.3326  3.3750
  265MOL0     H35761   1.277   3.317   1.544 -0.3381 -2.7444  1.5324
  265MOL0     H35762   1.389   3.511   1.544 -5.0656 -1.6150 -0.6343
  265MOL0     H35763   1.861   3.631   1.922  0.9140  1.2136  2.0432
  265MOL0     H35764   1.986   3.812   1.995  1.5037  4.3554 -0.5393
  265MOL0     H35765   2.107   3.968   2.025 -2.5106 -0.5496 -1.0638
  265MOL0     H35766   2.100   4.139   2.085 -1.7870  0.4054  1.6997
  265MOL0     H35767   2.132   3.972   2.257 -0.2696 -1.0581 -1.5706
  265MOL0     H35768   1.979   3.900   2.223  1.6495 -2.5513  3.5772
  265MOL0     H35769   1.996   4.185   2.302  0.7066  0.2559  0.2548
  265MOL0     H35770   1.955   4.050   2.417 -1.4097  1.3499  0.0226
  265MOL0     H35771   1.774   3.994   2.222  1.2824 -1.0567 -0.3921
  265MOL0     H35772   1.786   4.165   2.191  0.0667  1.3197  1.8258
  265MOL0     H35773   1.585   4.198   2.548 -3.1859 -0.9052 -1.7356
  265MOL0     H35774   1.711   4.093   1.870  0.6180 -0.3302 -2.3874
  265MOL0     H35775   1.565   3.898   1.771 -0.5979  0.2105  0.0633
  266MOL0     O35776   6.754  11.471   6.020  0.1652 -0.4167 -0.0762
  266MOL0     C35777   6.728  11.592   6.035  0.5078  0.1197 -0.8137
  266MOL0     O35778   6.636  11.637   6.128  0.4171 -0.2469  0.1614
  266MOL0     C35779   6.549  11.553   6.192  0.3149  0.2725 -0.3509
  266MOL0     C35780   6.587  11.516   6.331  0.7053  0.2656  0.4434
  266MOL0     C35781   6.496  11.428   6.402  0.1381  0.7439 -0.7364
  266MOL0     C35782   6.383  11.376   6.349  0.7068  0.5024  0.3457
  266MOL0     O35783   6.302  11.289   6.426  0.3290 -0.0176 -0.3611
  266MOL0     C35784   6.253  11.176   6.366  0.6060  1.2343  0.5370
  266MOL0     C35785   6.155  11.110   6.470 -0.8702 -0.3085 -0.8266
  266MOL0     C35786   6.073  10.990   6.416  0.8029  0.2672  0.4354
  266MOL0     C35787   5.923  11.023   6.416  0.3073 -0.0841  0.0441
  266MOL0     C35788   5.830  10.920   6.348 -0.2664 -0.1138 -0.0367
  266MOL0     C35789   5.687  10.954   6.350 -0.6438 -0.6329 -0.9063
  266MOL0     C35790   5.590  10.839   6.337 -0.7852 -0.0039 -1.5921
  266MOL0     C35791   5.580  10.788   6.191 -0.1077 -0.2447  0.3262
  266MOL0     N35792   5.495  10.662   6.182 -0.0306 -0.0927  1.0127
  266MOL0     C35793   5.494  10.553   6.265  1.3823 -0.3728  0.7177
  266MOL0     C35794   5.432  10.458   6.204 -1.7196  0.7408  0.8909
  266MOL0     C35795   5.397  10.334   6.287  0.2038  0.5481  0.1282
  266MOL0     C35796   5.244  10.317   6.309 -0.5547 -0.5612 -0.4192
  266MOL0     C35797   5.183  10.450   6.372 -0.4418  0.9960 -0.9132
  266MOL0     C35798   5.034  10.431   6.368 -0.8721 -0.0983  0.3181
  266MOL0     O35799   4.975  10.537   6.460 -0.0216  0.4817  0.2049
  266MOL0     C35800   4.848  10.519   6.509 -0.5707 -0.6335  0.5900
  266MOL0     C35801   4.830  10.549   6.642 -0.4134  0.3223  0.4582
  266MOL0     C35802   4.694  10.550   6.682 -0.0526 -0.8352 -0.7326
  266MOL0     C35803   4.674  10.568   6.831 -0.1332 -0.2020  0.2090
  266MOL0     C35804   4.588  10.514   6.599 -0.3678  0.0553  0.2856
  266MOL0     C35805   4.458  10.524   6.648  0.2634  0.2387  0.6186
  266MOL0     O35806   4.419  10.408   6.717 -0.6094  0.6588  0.3614
  266MOL0     C35807   4.296  10.420   6.778 -1.1136  0.2963 -0.5484
  266MOL0     C35808   4.232  10.535   6.843  0.2138  0.2821 -1.0149
  266MOL0     C35809   4.103  10.540   6.894 -0.1687 -0.0548  0.2871
  266MOL0     C35810   4.032  10.416   6.896 -0.9713 -0.5537  0.9290
  266MOL0     O35811   3.907  10.401   6.939 -0.0671 -0.3684  0.4797
  266MOL0     C35812   3.804  10.323   6.873 -0.5740  0.2926 -0.4732
  266MOL0     C35813   3.768  10.203   6.964 -0.5420 -0.4196 -0.5241
  266MOL0     C35814   3.648  10.129   6.915 -0.5857  0.5358 -0.8793
  266MOL0     C35815   3.579  10.055   7.032  0.4881  0.7711  0.5840
  266MOL0     C35816   3.466   9.952   6.982 -0.9863  0.7765 -0.3188
  266MOL0     C35817   3.340  10.026   6.950 -0.7166 -0.9097 -0.0076
  266MOL0     C35818   3.272  10.068   7.086  0.7817  0.2851 -0.7055
  266MOL0     C35819   3.139  10.145   7.078  0.7060  0.1545 -0.2277
  266MOL0    Cl35820   3.125  10.254   6.940 -0.2552 -0.1194  0.0209
  266MOL0     C35821   4.108  10.298   6.853 -0.0950  0.2274  0.7480
  266MOL0     C35822   4.233  10.301   6.799 -0.7741 -0.3737 -0.1123
  266MOL0     O35823   4.388  10.616   6.611  0.4395 -0.0345 -0.3498
  266MOL0     C35824   4.612  10.468   6.466  0.1477 -0.2427  0.4173
  266MOL0     C35825   4.744  10.475   6.423 -0.4807 -0.1247  0.9408
  266MOL0     N35826   5.380  10.497   6.087 -0.0397  0.0520 -0.0606
  266MOL0     N35827   5.416  10.619   6.070  0.3933  0.1665  0.1540
  266MOL0     C35828   6.349  11.407   6.215 -0.2752  0.6331  0.9319
  266MOL0     C35829   6.434  11.493   6.140  0.3929  0.7387  0.5676
  266MOL0     C35830   6.799  11.697   5.955  0.3565 -0.9623  0.7055
  266MOL0     C35831   6.773  11.834   5.981 -0.4677  0.6519 -0.4922
  266MOL0     C35832   6.821  11.923   5.887 -0.1704  0.0117  0.1991
  266MOL0     C35833   6.907  11.883   5.783  0.5139 -0.2341  0.1718
  266MOL0     O35834   6.972  11.968   5.699  0.1345 -0.2665 -0.0376
  266MOL0     C35835   7.007  12.094   5.762 -0.5871  0.3841 -0.6855
  266MOL0     C35836   7.145  12.078   5.838 -0.3204  0.0545 -0.3156
  266MOL0     C35837   7.263  12.065   5.745 -0.1317  0.5560  0.0795
  266MOL0     C35838   7.396  12.066   5.829 -0.0442 -0.5593  0.4960
  266MOL0     C35839   7.425  12.204   5.876  0.7864  0.0038 -0.7382
  266MOL0     C35840   7.451  12.317   5.904 -0.2128  0.3811  0.2340
  266MOL0     C35841   6.945  11.743   5.765  0.3988 -0.2942  0.2997
  266MOL0     C35842   6.886  11.648   5.851  0.1290 -1.1902  0.0298
  266MOL0     H35843   6.676  11.559   6.376  0.9661  1.2119 -0.9157
  266MOL0     H35844   6.525  11.400   6.503 -0.7275  2.4326  0.0238
  266MOL0     H35845   6.193  11.199   6.278 -0.2905 -0.3779  0.6894
  266MOL0     H35846   6.342  11.122   6.335  1.8388  3.3485  0.1948
  266MOL0     H35847   6.209  11.073   6.558  0.9522  3.4453 -0.1665
  266MOL0     H35848   6.091  11.187   6.516  1.7125  0.9712  0.8519
  266MOL0     H35849   6.104  10.952   6.318  0.8392  2.1413 -0.3161
  266MOL0     H35850   6.089  10.915   6.494  1.0158  0.8248  0.9374
  266MOL0     H35851   5.886  11.054   6.514 -1.7016 -0.1320 -0.6537
  266MOL0     H35852   5.904  11.115   6.360 -1.2661  0.3063  1.1501
  266MOL0     H35853   5.843  10.917   6.239 -0.4127 -0.1278 -0.0540
  266MOL0     H35854   5.837  10.819   6.390 -1.2480  0.1776  0.8541
  266MOL0     H35855   5.675  10.998   6.449  0.5368 -1.9251 -0.1666
  266MOL0     H35856   5.665  11.033   6.277 -0.6143 -0.2447 -0.4983
  266MOL0     H35857   5.612  10.765   6.414 -1.1017  2.8017  1.4145
  266MOL0     H35858   5.489  10.880   6.352  0.0895  2.2865 -1.5850
  266MOL0     H35859   5.680  10.777   6.147  0.1185 -2.5035  1.2461
  266MOL0     H35860   5.520  10.866   6.145 -0.2455  0.7901  2.1869
  266MOL0     H35861   5.538  10.543   6.363 -0.2360  0.3959  1.5645
  266MOL0     H35862   5.426  10.243   6.233 -0.7531 -0.7073  1.6265
  266MOL0     H35863   5.461  10.338   6.375  2.8584 -0.1906 -1.6339
  266MOL0     H35864   5.226  10.233   6.376  0.9372  0.0831  0.8891
  266MOL0     H35865   5.197  10.290   6.215  0.0412 -1.0341 -0.5824
  266MOL0     H35866   5.218  10.541   6.323  0.8746  1.7221  1.2525
  266MOL0     H35867   5.215  10.457   6.477 -0.0891  0.0883 -0.9469
  266MOL0     H35868   4.992  10.333   6.390 -0.5600 -0.1282  0.7926
  266MOL0     H35869   4.997  10.454   6.268  1.0094  1.3611 -0.1140
  266MOL0     H35870   4.918  10.580   6.697  0.1686  1.4828 -1.0580
  266MOL0     H35871   4.614  10.658   6.847  4.9940  3.5153  1.0642
  266MOL0     H35872   4.624  10.475   6.859 -2.1855  0.2048 -1.8577
  266MOL0     H35873   4.764  10.585   6.892 -1.3252 -0.6438  2.1709
  266MOL0     H35874   4.296  10.623   6.847  1.1583 -0.2960 -2.5405
  266MOL0     H35875   4.060  10.635   6.924 -1.1242 -1.1380  2.5801
  266MOL0     H35876   3.720  10.387   6.847 -2.4490 -1.3454  1.1392
  266MOL0     H35877   3.829  10.276   6.778  0.3722  0.2031 -0.1943
  266MOL0     H35878   3.845  10.127   6.975  0.1942  0.0723 -1.9769
  266MOL0     H35879   3.752  10.245   7.064  3.0178  0.1891 -0.0640
  266MOL0     H35880   3.685  10.056   6.843 -0.4289  0.5801 -0.8443
  266MOL0     H35881   3.572  10.195   6.874  1.7360  3.8876 -0.2634
  266MOL0     H35882   3.660   9.991   7.068 -1.1643 -1.0994  1.1835
  266MOL0     H35883   3.555  10.132   7.106  3.0005  2.1516  0.0681
  266MOL0     H35884   3.449   9.876   7.058 -1.3143 -0.8593 -1.9490
  266MOL0     H35885   3.512   9.914   6.890 -0.3312  0.1025  0.2795
  266MOL0     H35886   3.354  10.107   6.878 -2.8482 -2.6469 -2.5755
  266MOL0     H35887   3.270   9.967   6.890 -2.4508 -0.2564  1.2913
  266MOL0     H35888   3.341  10.128   7.145  1.7028  0.5919 -2.0539
  266MOL0     H35889   3.250   9.977   7.144 -4.8640  0.7404 -1.5555
  266MOL0     H35890   3.123  10.204   7.169  3.1153  0.9657 -0.2659
  266MOL0     H35891   3.050  10.081   7.083  1.3333 -0.7671  4.2983
  266MOL0     H35892   4.053  10.205   6.855  0.5131 -0.1582 -0.2900
  266MOL0     H35893   4.281  10.205   6.781 -1.4302 -1.0896  1.7104
  266MOL0     H35894   4.529  10.432   6.405  1.4323 -4.0390  0.6385
  266MOL0     H35895   4.762  10.463   6.317 -1.3732  2.2855  0.4434
  266MOL0     H35896   6.266  11.355   6.168 -0.2793  1.6235 -0.2039
  266MOL0     H35897   6.415  11.503   6.034  1.0962 -2.8724 -0.0405
  266MOL0     H35898   6.701  11.849   6.060 -1.1784 -1.5936 -0.6438
  266MOL0     H35899   6.796  12.027   5.907  1.0205  0.5387 -0.9302
  266MOL0     H35900   7.004  12.159   5.674  0.6764  1.0287 -0.2766
  266MOL0     H35901   6.938  12.145   5.831  1.5378  0.9785  1.1259
  266MOL0     H35902   7.137  11.992   5.905 -2.0781  0.2415 -0.2453
  266MOL0     H35903   7.173  12.159   5.906 -0.7746 -0.9640  1.1421
  266MOL0     H35904   7.267  12.156   5.684 -1.4433  1.6021  1.4693
  266MOL0     H35905   7.250  11.976   5.683 -1.7882  3.0631 -3.5893
  266MOL0     H35906   7.481  12.027   5.772 -1.1974 -0.0641 -1.6719
  266MOL0     H35907   7.385  12.008   5.921 -2.1946 -0.5930  0.2611
  266MOL0     H35908   7.474  12.414   5.944  0.0776  0.1978  0.5163
  266MOL0     H35909   7.015  11.697   5.696  2.6838  1.0652  1.5759
  266MOL0     H35910   6.899  11.542   5.833  1.7400 -1.3049  1.6142
  267MOL0     O35911   8.644   5.550   6.035  0.0683  0.7453 -0.1591
  267MOL0     C35912   8.555   5.535   5.953 -0.0450 -0.1828  0.2716
  267MOL0     O35913   8.435   5.602   5.957  0.1196 -0.0636  0.6158
  267MOL0     C35914   8.437   5.732   5.995 -0.1094 -0.4611  0.4499
  267MOL0     C35915   8.520   5.831   5.939 -0.2104  0.0436  0.1374
  267MOL0     C35916   8.517   5.969   5.956 -0.0970  0.3176  1.1516
  267MOL0     C35917   8.409   6.014   6.036  0.5489 -0.0396  0.1913
  267MOL0     O35918   8.387   6.153   6.049 -0.4870  0.5785  0.4193
  267MOL0     C35919   8.386   6.209   6.187  0.5257 -0.6577 -0.1596
  267MOL0     C35920   8.280   6.322   6.197 -0.1006  1.6095 -0.3212
  267MOL0     C35921   8.268   6.372   6.346 -0.1797  0.8197 -0.3934
  267MOL0     C35922   8.167   6.483   6.377  0.8901 -0.7768  0.2601
  267MOL0     C35923   8.027   6.437   6.329 -0.9293  0.2339 -0.5616
  267MOL0     C35924   7.917   6.531   6.374  0.5550  0.2236  0.6526
  267MOL0     C35925   7.798   6.493   6.293  0.2485  0.7905 -0.7989
  267MOL0     C35926   7.684   6.594   6.305  0.4745 -0.1411 -0.0699
  267MOL0     N35927   7.565   6.557   6.224 -0.1822 -0.7022  0.4330
  267MOL0     C35928   7.489   6.644   6.150 -0.3638  0.7609  0.1237
  267MOL0     C35929   7.392   6.582   6.084  0.4475 -0.5605 -1.3941
  267MOL0     C35930   7.300   6.640   5.984  0.2779  0.2790 -0.1574
  267MOL0     C35931   7.257   6.783   6.021 -0.0225 -0.6199 -0.0782
  267MOL0     C35932   7.142   6.821   5.926 -0.9228  0.6191  0.5043
  267MOL0     C35933   7.054   6.939   5.964 -0.4831 -0.3501  1.1817
  267MOL0     O35934   7.126   7.063   5.976 -0.3949 -0.4283 -0.3018
  267MOL0     C35935   7.161   7.131   5.870  0.8050  0.0058 -0.7130
  267MOL0     C35936   7.140   7.087   5.736 -0.2189 -0.4640  0.6543
  267MOL0     C35937   7.183   7.177   5.629  0.0187 -0.0781 -0.1482
  267MOL0     C35938   7.180   7.113   5.492  0.4097  0.3718 -0.5217
  267MOL0     C35939   7.238   7.297   5.655 -0.2402 -0.5632 -0.3137
  267MOL0     C35940   7.280   7.392   5.545  0.9752  0.7817  0.2283
  267MOL0     O35941   7.364   7.490   5.589 -0.0600  0.0423  0.7163
  267MOL0     C35942   7.420   7.567   5.490  0.6662  0.0701 -0.0906
  267MOL0     C35943   7.349   7.667   5.429  0.4819  0.6395 -0.6462
  267MOL0     C35944   7.405   7.742   5.329 -0.1246 -0.4309  0.5908
  267MOL0     C35945   7.539   7.730   5.288  0.1148  0.3587 -0.6233
  267MOL0     O35946   7.606   7.797   5.192  0.0060  0.2978  0.8441
  267MOL0     C35947   7.558   7.776   5.051 -0.3085 -0.2308  0.0001
  267MOL0     C35948   7.637   7.833   4.936  0.6624 -0.8420  0.8281
  267MOL0     C35949   7.784   7.793   4.933  0.5253  0.6881 -0.9376
  267MOL0     C35950   7.803   7.642   4.914 -0.1213  0.0806 -0.5907
  267MOL0     C35951   7.944   7.611   4.858  0.0633 -0.1634 -0.1254
  267MOL0     C35952   8.046   7.598   4.967 -0.4516 -0.1381  0.1114
  267MOL0     C35953   8.179   7.617   4.905  0.3199  0.5667  1.0227
  267MOL0     C35954   8.215   7.501   4.816 -0.9467  0.6270  0.5485
  267MOL0    Cl35955   8.221   7.347   4.899 -0.3208 -0.1778  0.1112
  267MOL0     C35956   7.605   7.626   5.353 -0.2719  0.3647  0.4060
  267MOL0     C35957   7.554   7.544   5.460 -0.4703  0.4370 -0.6230
  267MOL0     O35958   7.222   7.384   5.439 -0.1703 -0.8367 -0.5001
  267MOL0     C35959   7.246   7.348   5.787  0.7554 -0.2080 -0.5834
  267MOL0     C35960   7.209   7.259   5.888  0.4255 -0.7206  0.7051
  267MOL0     N35961   7.413   6.448   6.124 -0.4265 -0.5994  0.3049
  267MOL0     N35962   7.519   6.436   6.206  0.7167  0.0351  0.4632
  267MOL0     C35963   8.321   5.927   6.092 -0.5028  0.3408 -0.4751
  267MOL0     C35964   8.330   5.788   6.073 -0.2646  0.4991 -0.2943
  267MOL0     C35965   8.572   5.431   5.844 -0.1738  0.2691 -0.8157
  267MOL0     C35966   8.461   5.410   5.749 -0.5469  0.6978  0.4551
  267MOL0     C35967   8.477   5.319   5.648  0.8375  0.0226  0.2513
  267MOL0     C35968   8.599   5.251   5.629  0.7731  0.5426  0.3005
  267MOL0     O35969   8.626   5.147   5.545 -0.2118 -0.2573  0.8636
  267MOL0     C35970   8.551   5.139   5.417  0.1725  0.7842  0.1709
  267MOL0     C35971   8.561   5.273   5.346  0.4403  0.3986  0.4568
  267MOL0     C35972   8.490   5.284   5.206 -0.0785  0.1306  0.4507
  267MOL0     C35973   8.465   5.432   5.160  0.0042  0.6767 -0.2135
  267MOL0     C35974   8.367   5.501   5.248  0.5125 -0.2937 -0.2178
  267MOL0     C35975   8.278   5.538   5.328  0.1956  0.2886  0.1652
  267MOL0     C35976   8.697   5.268   5.726 -0.5254  0.4626  0.0488
  267MOL0     C35977   8.688   5.359   5.831 -0.7491 -0.8953  0.7989
  267MOL0     H35978   8.586   5.814   5.854 -0.2795  0.3953  0.0108
  267MOL0     H35979   8.583   6.036   5.901 -3.3362  1.6290 -1.4941
  267MOL0     H35980   8.357   6.140   6.267 -4.5887  1.7270  0.5000
  267MOL0     H35981   8.483   6.252   6.209  0.5533 -0.3478 -0.8450
  267MOL0     H35982   8.320   6.402   6.135 -1.0052  1.5273 -1.0252
  267MOL0     H35983   8.186   6.280   6.159  0.3950  3.0111 -3.4150
  267MOL0     H35984   8.252   6.286   6.411  0.6335  1.4664  0.7070
  267MOL0     H35985   8.371   6.402   6.368  0.4482 -1.6300  0.2974
  267MOL0     H35986   8.173   6.503   6.485  0.3813 -0.0833  0.1637
  267MOL0     H35987   8.199   6.573   6.324  2.1321 -1.1796  0.2899
  267MOL0     H35988   8.032   6.426   6.220 -0.8956  0.5720 -0.5947
  267MOL0     H35989   8.007   6.334   6.362 -0.6471 -0.4149 -2.2777
  267MOL0     H35990   7.892   6.517   6.480 -1.1924  0.5438  0.3193
  267MOL0     H35991   7.937   6.635   6.345  0.1277 -0.6921 -3.6656
  267MOL0     H35992   7.834   6.488   6.190 -0.4375  1.0631 -1.0566
  267MOL0     H35993   7.771   6.395   6.333 -0.3856  0.5787 -1.7226
  267MOL0     H35994   7.721   6.685   6.256  2.4227 -0.6344  0.4291
  267MOL0     H35995   7.659   6.623   6.408  2.6389  4.3674 -0.5744
  267MOL0     H35996   7.496   6.752   6.155  5.7677  0.7159  0.5971
  267MOL0     H35997   7.367   6.642   5.899 -0.3319 -0.0954 -0.6523
  267MOL0     H35998   7.216   6.571   5.971  3.3523 -4.3208  1.6722
  267MOL0     H35999   7.338   6.856   6.014  0.2144 -1.0890 -4.2354
  267MOL0     H36000   7.214   6.785   6.122  0.0020  0.5535 -0.0760
  267MOL0     H36001   7.077   6.733   5.917 -0.4570 -0.0705  3.1086
  267MOL0     H36002   7.197   6.837   5.833 -1.5548  0.6387  0.1343
  267MOL0     H36003   7.011   6.918   6.062  0.9766 -0.7143  1.7723
  267MOL0     H36004   6.966   6.958   5.901 -0.2144 -0.1650  0.8587
  267MOL0     H36005   7.096   6.992   5.705 -1.9833  0.3666  0.5250
  267MOL0     H36006   7.285   7.110   5.462  0.9680  0.2837  1.3311
  267MOL0     H36007   7.153   7.008   5.502 -0.2594  0.6394  0.7012
  267MOL0     H36008   7.130   7.168   5.411  1.9958  0.6469 -1.3636
  267MOL0     H36009   7.246   7.663   5.464  0.8218  1.3874  0.4795
  267MOL0     H36010   7.338   7.813   5.281 -1.1916  0.3322  3.0283
  267MOL0     H36011   7.558   7.667   5.039  0.9602 -0.4294  1.3891
  267MOL0     H36012   7.454   7.803   5.036 -1.2880 -3.4420  0.2497
  267MOL0     H36013   7.599   7.800   4.839 -0.3796  3.7673 -0.5619
  267MOL0     H36014   7.627   7.942   4.937 -2.5043 -1.0383  1.5253
  267MOL0     H36015   7.825   7.826   5.029  1.6233 -0.7892 -0.8613
  267MOL0     H36016   7.832   7.850   4.853 -0.6946  1.0629 -1.4376
  267MOL0     H36017   7.774   7.584   5.002 -2.7119  1.1470 -0.6704
  267MOL0     H36018   7.735   7.614   4.833  0.5623 -0.3616 -1.0261
  267MOL0     H36019   7.984   7.679   4.781 -3.3611  2.3980  0.1285
  267MOL0     H36020   7.936   7.509   4.819 -4.3798  0.6845 -2.0758
  267MOL0     H36021   8.034   7.678   5.041 -1.2913  0.8939 -1.1100
  267MOL0     H36022   8.043   7.498   5.012 -2.5656 -0.7079 -1.2014
  267MOL0     H36023   8.243   7.620   4.994  0.3671  0.8275  0.9812
  267MOL0     H36024   8.193   7.714   4.857  1.6636  0.0430  0.3081
  267MOL0     H36025   8.315   7.519   4.777 -0.8645 -1.0990 -0.1152
  267MOL0     H36026   8.147   7.485   4.732  1.9368  1.2749 -2.1007
  267MOL0     H36027   7.707   7.605   5.325 -0.6736  1.2026 -1.8948
  267MOL0     H36028   7.616   7.470   5.509 -2.0418 -0.3142  0.3293
  267MOL0     H36029   7.275   7.448   5.817 -0.4965 -0.1608  0.5519
  267MOL0     H36030   7.234   7.293   5.988 -0.4634 -0.3472  0.8086
  267MOL0     H36031   8.260   5.969   6.172  1.1285 -1.1401  1.6817
  267MOL0     H36032   8.259   5.722   6.122 -0.0824  1.2705  1.0451
  267MOL0     H36033   8.370   5.468   5.758  1.0765  3.3247  1.0705
  267MOL0     H36034   8.388   5.293   5.591  2.6394 -0.1833 -2.6913
  267MOL0     H36035   8.598   5.059   5.359  3.7328  0.2424  3.3755
  267MOL0     H36036   8.450   5.105   5.443  0.4099 -0.5822 -0.5801
  267MOL0     H36037   8.667   5.300   5.341 -0.3976  4.1922  0.1599
  267MOL0     H36038   8.515   5.347   5.412  2.3599  0.3816  1.9116
  267MOL0     H36039   8.391   5.239   5.212 -0.6133  1.3610  1.3211
  267MOL0     H36040   8.548   5.223   5.136  2.2459 -0.3533  2.6549
  267MOL0     H36041   8.432   5.436   5.056  1.0202 -1.1709 -0.6638
  267MOL0     H36042   8.558   5.488   5.172 -0.0782  0.4179  2.2425
  267MOL0     H36043   8.206   5.578   5.395  1.0322  0.8192  0.7696
  267MOL0     H36044   8.784   5.205   5.715 -1.3230 -0.9410  1.4318
  267MOL0     H36045   8.769   5.364   5.903  2.4598  0.8674 -2.5629
  268MOL0     O36046   5.207  10.232   6.916 -1.1036 -0.0860 -0.4112
  268MOL0     C36047   5.214  10.172   6.809 -0.7163 -0.3355  0.8289
  268MOL0     O36048   5.106  10.109   6.743  0.0245 -0.7839 -0.4029
  268MOL0     C36049   4.981  10.099   6.807 -0.3283 -0.4504  1.2880
  268MOL0     C36050   4.866  10.122   6.726  0.3358 -0.0670  0.8709
  268MOL0     C36051   4.737  10.104   6.774  0.4561  0.2483 -0.2893
  268MOL0     C36052   4.722  10.037   6.899 -0.6785 -0.4733  0.6513
  268MOL0     O36053   4.593  10.012   6.937  0.7951  0.4789 -0.0499
  268MOL0     C36054   4.563   9.904   7.025  0.4295 -0.0072 -0.8748
  268MOL0     C36055   4.417   9.870   7.019  0.4000  0.4529  0.4205
  268MOL0     C36056   4.313   9.980   7.044  0.0809  0.1458 -0.6624
  268MOL0     C36057   4.172   9.914   7.069 -0.4143  0.4626 -0.7306
  268MOL0     C36058   4.067  10.013   7.107  0.0543 -0.0503  0.1365
  268MOL0     C36059   4.082  10.054   7.256 -0.1854 -0.0299 -0.1683
  268MOL0     C36060   4.005  10.179   7.294 -0.1931  0.7594  0.3289
  268MOL0     C36061   4.036  10.223   7.443  0.4337 -0.9161 -1.1180
  268MOL0     N36062   4.016  10.361   7.468  1.3300  0.2800 -0.1020
  268MOL0     C36063   4.055  10.454   7.379  0.0183 -0.0306 -1.0521
  268MOL0     C36064   3.976  10.559   7.406 -0.2827 -0.0776  0.0078
  268MOL0     C36065   3.969  10.704   7.360 -0.4303 -0.4112 -0.8780
  268MOL0     C36066   3.927  10.714   7.216  0.1601 -0.0872  0.6799
  268MOL0     C36067   3.900  10.858   7.182  0.4640  0.0182  0.4979
  268MOL0     C36068   3.823  10.894   7.051  0.6141 -0.9146 -0.0280
  268MOL0     O36069   3.901  10.883   6.933 -1.0137 -0.5471 -1.2640
  268MOL0     C36070   3.861  10.959   6.822 -0.4894  0.1060  0.0354
  268MOL0     C36071   3.944  10.939   6.714  0.3891  0.2683  0.2176
  268MOL0     C36072   3.923  10.992   6.583 -0.4274  0.1375 -0.1462
  268MOL0     C36073   4.021  10.946   6.475 -0.2050  0.0918  0.8786
  268MOL0     C36074   3.813  11.079   6.562  0.0198 -1.0890 -0.0648
  268MOL0     C36075   3.781  11.138   6.430  0.1753  0.4522 -0.0935
  268MOL0     O36076   3.649  11.177   6.414  0.1727 -0.1943 -0.8032
  268MOL0     C36077   3.590  11.231   6.300 -0.4523  0.5124  0.8419
  268MOL0     C36078   3.628  11.200   6.163 -0.2822 -0.6747 -0.1514
  268MOL0     C36079   3.560  11.261   6.063  0.8870  0.3196 -0.4326
  268MOL0     C36080   3.440  11.325   6.082  0.6316  0.0112  0.0833
  268MOL0     O36081   3.373  11.366   5.966  0.4764  0.0425  0.5463
  268MOL0     C36082   3.240  11.417   5.987  0.6820 -0.0664 -0.3402
  268MOL0     C36083   3.139  11.306   6.003 -0.7000 -0.3535 -0.1921
  268MOL0     C36084   2.997  11.359   5.980 -0.3062 -0.4237  1.0583
  268MOL0     C36085   2.881  11.264   6.001 -0.5171  0.0906 -0.2606
  268MOL0     C36086   2.744  11.322   5.958 -0.3142  0.5853  0.8922
  268MOL0     C36087   2.706  11.315   5.809  0.2276 -0.6247 -1.2192
  268MOL0     C36088   2.555  11.301   5.790 -0.2983  1.5893  0.7837
  268MOL0     C36089   2.497  11.438   5.772  1.3880 -0.2616 -0.2276
  268MOL0    Cl36090   2.324  11.397   5.785 -0.0047  0.2882  0.3718
  268MOL0     C36091   3.394  11.348   6.211 -0.1938  0.1416  0.7257
  268MOL0     C36092   3.479  11.315   6.317 -0.6689  0.9155  0.3390
  268MOL0     O36093   3.865  11.150   6.340  0.0333  0.6110  0.3541
  268MOL0     C36094   3.719  11.100   6.670 -0.7024  0.6660 -0.2508
  268MOL0     C36095   3.744  11.044   6.801  0.8731  0.6917  0.7215
  268MOL0     N36096   3.902  10.524   7.521 -0.2933 -0.3187 -0.5249
  268MOL0     N36097   3.924  10.402   7.551  0.5985  0.9307  0.7658
  268MOL0     C36098   4.832  10.017   6.978  0.1910 -0.7992 -1.0539
  268MOL0     C36099   4.965  10.037   6.937  0.4294 -0.2710  0.7671
  268MOL0     C36100   5.343  10.173   6.732  0.8000 -0.2610 -0.5400
  268MOL0     C36101   5.448  10.259   6.754 -0.5837  0.4894  0.3408
  268MOL0     C36102   5.569  10.250   6.686  0.1395  0.3114  0.6935
  268MOL0     C36103   5.589  10.155   6.584  0.6477  0.1660  0.0382
  268MOL0     O36104   5.702  10.144   6.510 -0.2825 -0.4228  0.5189
  268MOL0     C36105   5.828  10.184   6.569 -0.3464  0.3346 -0.4402
  268MOL0     C36106   5.950  10.111   6.494  0.5125  0.0527 -0.3081
  268MOL0     C36107   5.969   9.978   6.567  0.5753  0.3357  0.4704
  268MOL0     C36108   6.098   9.910   6.528 -0.2671 -1.1231 -0.7484
  268MOL0     C36109   6.133   9.800   6.612 -0.4070  0.1101 -0.0896
  268MOL0     C36110   6.157   9.717   6.700  1.2934  0.2225  0.0165
  268MOL0     C36111   5.486  10.071   6.555  0.4976 -0.7300 -0.5996
  268MOL0     C36112   5.364  10.075   6.630 -0.2641 -0.2253 -1.1448
  268MOL0     H36113   4.887  10.150   6.623  3.7151  2.2654  2.0345
  268MOL0     H36114   4.641  10.109   6.724 -0.9623  0.3868  2.3032
  268MOL0     H36115   4.625   9.815   7.012  1.0477  0.2702  0.1130
  268MOL0     H36116   4.576   9.944   7.125  4.6187  1.5981 -1.8505
  268MOL0     H36117   4.400   9.822   6.922 -0.4213  0.6053  0.4766
  268MOL0     H36118   4.400   9.797   7.099 -0.6613  0.2476  0.0164
  268MOL0     H36119   4.329  10.035   7.137 -3.9200  0.0117  0.3115
  268MOL0     H36120   4.313  10.064   6.975 -2.5169 -1.8937 -3.4085
  268MOL0     H36121   4.138   9.859   6.981 -0.6620 -3.8013  1.7442
  268MOL0     H36122   4.183   9.837   7.147 -1.4475 -1.7415 -2.6272
  268MOL0     H36123   4.079  10.095   7.036 -3.2825  1.6419  1.3248
  268MOL0     H36124   3.964   9.978   7.092  0.3663 -1.1968  0.5372
  268MOL0     H36125   4.068   9.970   7.325  0.6492 -0.7094 -0.7843
  268MOL0     H36126   4.186  10.080   7.279  0.3382  0.3412 -2.6589
  268MOL0     H36127   4.031  10.255   7.219 -0.3279  0.0338 -0.4641
  268MOL0     H36128   3.899  10.154   7.284  0.5317 -3.0950  0.9725
  268MOL0     H36129   4.135  10.191   7.476  0.8354 -1.9335 -3.1818
  268MOL0     H36130   3.970  10.167   7.510 -0.3732  0.0093 -1.1095
  268MOL0     H36131   4.126  10.433   7.300  0.7961 -0.8506 -0.1484
  268MOL0     H36132   3.902  10.752   7.432  0.0235 -0.0881 -0.6667
  268MOL0     H36133   4.071  10.743   7.369 -0.5901  0.0468 -0.9817
  268MOL0     H36134   3.837  10.657   7.195  1.3731 -2.0180  0.4703
  268MOL0     H36135   4.004  10.671   7.152  2.0474  3.2482  0.4522
  268MOL0     H36136   3.995  10.912   7.177  0.2055  0.4107 -0.4879
  268MOL0     H36137   3.836  10.895   7.263 -1.7291 -1.6544 -0.3733
  268MOL0     H36138   3.805  11.000   7.072  0.2715 -0.9209 -0.2768
  268MOL0     H36139   3.726  10.846   7.033  0.7775 -0.6302 -1.8728
  268MOL0     H36140   4.014  10.860   6.737 -0.5422 -0.6790 -0.1382
  268MOL0     H36141   4.099  10.880   6.513  1.7876  0.7958 -1.6816
  268MOL0     H36142   3.969  10.888   6.397 -1.3554  0.9937  0.9353
  268MOL0     H36143   4.066  11.027   6.417  0.0872 -0.6267  0.0694
  268MOL0     H36144   3.699  11.119   6.154 -1.7096 -2.1352  1.0661
  268MOL0     H36145   3.593  11.229   5.964 -0.6582 -0.3741 -0.7610
  268MOL0     H36146   3.239  11.495   6.063 -2.0510 -0.6614  0.3434
  268MOL0     H36147   3.217  11.472   5.895  0.0948 -0.1444 -0.2449
  268MOL0     H36148   3.155  11.236   5.920 -1.3045 -2.4401  1.3562
  268MOL0     H36149   3.156  11.259   6.100 -0.2000 -1.1630 -0.6566
  268MOL0     H36150   2.994  11.416   5.886  1.3611  3.2833  3.0372
  268MOL0     H36151   2.984  11.440   6.052 -2.2441 -0.2712  0.5726
  268MOL0     H36152   2.907  11.173   5.945  1.7482  0.4238  0.1535
  268MOL0     H36153   2.881  11.239   6.107  0.3486 -0.3939 -0.3592
  268MOL0     H36154   2.737  11.427   5.988  1.0025  0.1370  2.9934
  268MOL0     H36155   2.673  11.276   6.026 -1.7748  1.5265  0.0623
  268MOL0     H36156   2.759  11.393   5.754  0.5732 -0.4866 -0.6940
  268MOL0     H36157   2.734  11.216   5.770 -1.0820 -1.6991  0.3905
  268MOL0     H36158   2.499  11.244   5.864 -1.4245  2.2304  0.4493
  268MOL0     H36159   2.537  11.254   5.692 -1.1983  2.5130  0.4915
  268MOL0     H36160   2.518  11.492   5.679 -1.0805  1.5006  0.1352
  268MOL0     H36161   2.539  11.502   5.851  0.5933  0.8751 -0.7036
  268MOL0     H36162   3.306  11.408   6.234 -0.2610 -0.1074  1.1206
  268MOL0     H36163   3.457  11.335   6.421  1.0589 -3.5396  1.8065
  268MOL0     H36164   3.635  11.164   6.646  0.8929  2.9679 -0.0120
  268MOL0     H36165   3.671  11.062   6.878  2.4447  0.8398  2.2518
  268MOL0     H36166   4.827   9.977   7.079 -1.0745 -0.0166 -0.7770
  268MOL0     H36167   5.058  10.029   6.992  0.1085 -3.0910  1.0717
  268MOL0     H36168   5.441  10.334   6.832  0.3304 -1.7443  2.7162
  268MOL0     H36169   5.644  10.328   6.695  0.3447  0.2836 -0.5698
  268MOL0     H36170   5.839  10.291   6.548  2.6691  0.1444 -0.3043
  268MOL0     H36171   5.823  10.176   6.678 -1.6631  0.0856 -0.5121
  268MOL0     H36172   6.046  10.163   6.509  1.1826 -1.1885 -0.1328
  268MOL0     H36173   5.944  10.098   6.386  1.8720  0.6771 -0.4808
  268MOL0     H36174   5.881   9.919   6.542  0.4356  1.1575 -1.0741
  268MOL0     H36175   5.963   9.994   6.675  1.0051 -0.1719  0.5730
  268MOL0     H36176   6.169   9.992   6.541 -0.1416 -1.1406 -1.2979
  268MOL0     H36177   6.114   9.880   6.424 -0.2940 -1.0979 -0.7603
  268MOL0     H36178   6.168   9.631   6.763 -1.1913 -0.0178  0.2046
  268MOL0     H36179   5.494  10.000   6.473 -0.8317 -2.0887  0.4097
  268MOL0     H36180   5.277  10.017   6.599 -1.8835  0.6541  1.4239
  269MOL0     O36181   5.070   2.223   3.207 -0.0582 -0.1088  0.1205
  269MOL0     C36182   5.056   2.347   3.189 -0.1954 -0.2287 -0.4220
  269MOL0     O36183   5.151   2.436   3.127 -0.4974 -0.2721 -0.5991
  269MOL0     C36184   5.274   2.381   3.101  0.1653 -0.1527 -0.5946
  269MOL0     C36185   5.372   2.407   3.197  0.2125 -0.3607 -0.1466
  269MOL0     C36186   5.502   2.361   3.171 -0.4350 -0.3711  0.3379
  269MOL0     C36187   5.540   2.294   3.057  0.2177 -0.3911 -0.2436
  269MOL0     O36188   5.670   2.257   3.050 -0.2777  0.0539  0.4268
  269MOL0     C36189   5.701   2.167   2.941 -0.0578 -0.3664 -0.6718
  269MOL0     C36190   5.833   2.100   2.945  0.0504 -0.4006 -0.2111
  269MOL0     C36191   5.864   2.032   3.072 -0.4348  0.7245  0.2979
  269MOL0     C36192   5.939   2.117   3.164 -0.5668  0.3583  0.5310
  269MOL0     C36193   5.935   2.044   3.297 -0.0469 -0.7920 -0.2446
  269MOL0     C36194   5.955   2.137   3.421 -0.1336  0.1039  0.6061
  269MOL0     C36195   5.844   2.228   3.486 -0.4292  0.2623  0.0895
  269MOL0     C36196   5.705   2.156   3.481 -0.4504  0.1973  0.9524
  269MOL0     N36197   5.701   2.041   3.569  1.0229 -1.1556  0.2904
  269MOL0     C36198   5.640   1.920   3.553  0.1793 -0.2394  0.1544
  269MOL0     C36199   5.662   1.845   3.666  0.5114 -0.2578  1.5364
  269MOL0     C36200   5.623   1.703   3.670  0.3849 -0.0072 -0.4084
  269MOL0     C36201   5.468   1.681   3.667 -0.0880  0.9728 -0.3457
  269MOL0     C36202   5.402   1.697   3.806  0.6074  0.5049  0.1411
  269MOL0     C36203   5.265   1.636   3.804 -0.2242 -0.3532 -0.1073
  269MOL0     O36204   5.196   1.665   3.930 -0.4313 -0.5446  0.3620
  269MOL0     C36205   5.066   1.650   3.939 -0.8875  0.6140  0.6677
  269MOL0     C36206   4.993   1.746   3.998  0.3741 -0.5133  1.2159
  269MOL0     C36207   4.855   1.753   3.991  0.9458  0.0234 -0.9397
  269MOL0     C36208   4.782   1.867   4.058  0.8809  0.6058 -0.2474
  269MOL0     C36209   4.786   1.653   3.924 -0.0178  0.2644  0.1597
  269MOL0     C36210   4.634   1.641   3.917 -0.3627  0.3780  0.4154
  269MOL0     O36211   4.587   1.521   3.936 -0.3966  0.7171  0.2074
  269MOL0     C36212   4.453   1.487   3.947  0.5990  0.9318  0.6529
  269MOL0     C36213   4.341   1.566   3.992  0.6331  0.1106 -0.1451
  269MOL0     C36214   4.218   1.504   3.997  0.8938  0.1835  0.3869
  269MOL0     C36215   4.199   1.363   3.974  0.1492 -0.1202 -0.3398
  269MOL0     O36216   4.085   1.305   4.014 -0.5697 -0.5167  0.1031
  269MOL0     C36217   3.985   1.305   3.916  0.1607 -0.2280 -1.2002
  269MOL0     C36218   3.984   1.173   3.836  0.9485 -0.2013 -0.0702
  269MOL0     C36219   3.872   1.181   3.738 -0.1720 -0.3211  0.7650
  269MOL0     C36220   3.756   1.091   3.790 -1.0207  0.7990  0.0742
  269MOL0     C36221   3.643   1.096   3.686 -0.7335  0.7329 -0.7274
  269MOL0     C36222   3.520   1.019   3.729 -0.3240 -0.6009 -0.4957
  269MOL0     C36223   3.430   0.973   3.623  0.4528 -0.1403  0.7919
  269MOL0     C36224   3.340   1.078   3.549 -0.5695  0.8307 -0.5944
  269MOL0    Cl36225   3.268   0.993   3.421  0.2190 -0.3075  0.3181
  269MOL0     C36226   4.311   1.283   3.945 -0.4875  0.2031  0.1247
  269MOL0     C36227   4.430   1.349   3.932  0.1799 -0.3642  0.2998
  269MOL0     O36228   4.570   1.738   3.887  0.8463 -1.0172  0.5837
  269MOL0     C36229   4.864   1.543   3.879  0.2053  0.2845  0.0615
  269MOL0     C36230   5.005   1.544   3.875  0.2224  0.1396 -0.6500
  269MOL0     N36231   5.726   1.931   3.761  0.4612  0.6461 -0.4564
  269MOL0     N36232   5.735   2.043   3.698 -0.3038  0.4288 -0.2160
  269MOL0     C36233   5.444   2.281   2.956  0.0070 -0.1203  1.1077
  269MOL0     C36234   5.311   2.317   2.981 -0.1684  0.1990 -0.2062
  269MOL0     C36235   4.934   2.408   3.237 -0.3987 -0.0765 -0.1600
  269MOL0     C36236   4.876   2.524   3.186  1.0091 -0.2397 -0.1417
  269MOL0     C36237   4.762   2.589   3.240 -0.1142 -1.3191  0.1888
  269MOL0     C36238   4.706   2.530   3.352 -0.6390 -0.2316  1.0911
  269MOL0     O36239   4.608   2.591   3.432 -0.0339  0.2276 -0.5417
  269MOL0     C36240   4.541   2.713   3.401  0.3502  0.1054  0.5557
  269MOL0     C36241   4.427   2.736   3.506 -0.6630 -0.4672 -0.8634
  269MOL0     C36242   4.300   2.645   3.479  1.0807  0.4189 -0.1038
  269MOL0     C36243   4.210   2.692   3.362  0.3534 -0.0010 -0.4417
  269MOL0     C36244   4.263   2.664   3.232  0.2007  0.1705  0.9604
  269MOL0     C36245   4.313   2.649   3.123  0.1942 -0.8039 -0.0841
  269MOL0     C36246   4.765   2.412   3.405  0.2396  0.5987 -0.6620
  269MOL0     C36247   4.876   2.355   3.351  0.5264  0.0056 -0.6416
  269MOL0     H36248   5.350   2.450   3.293  1.4494  2.0909 -0.8779
  269MOL0     H36249   5.581   2.378   3.244 -2.2180 -1.3607  2.6192
  269MOL0     H36250   5.632   2.082   2.938  1.5239 -1.6841 -4.0234
  269MOL0     H36251   5.693   2.221   2.847  2.1198 -1.7888 -1.7312
  269MOL0     H36252   5.845   2.029   2.863 -2.5921  0.9044 -1.8768
  269MOL0     H36253   5.911   2.174   2.924  2.0157 -1.8692  1.4698
  269MOL0     H36254   5.771   2.005   3.122 -1.1980  0.7197 -1.0631
  269MOL0     H36255   5.927   1.945   3.052 -0.1819  0.8502  0.5437
  269MOL0     H36256   6.042   2.116   3.129 -0.4669 -0.8656  0.8019
  269MOL0     H36257   5.907   2.221   3.171  1.4571  0.9650  1.2680
  269MOL0     H36258   5.836   1.999   3.312 -0.0269 -0.6367  0.3874
  269MOL0     H36259   6.010   1.968   3.319 -1.5346 -3.1439 -2.6605
  269MOL0     H36260   5.987   2.060   3.493 -4.5919 -3.0039 -0.2633
  269MOL0     H36261   6.038   2.203   3.396  0.3744 -1.4001 -2.0362
  269MOL0     H36262   5.876   2.260   3.585 -1.4767 -2.1818  1.2771
  269MOL0     H36263   5.825   2.325   3.438  2.1891  1.3576  1.0662
  269MOL0     H36264   5.681   2.135   3.377  1.1544 -1.6591  0.8955
  269MOL0     H36265   5.624   2.223   3.514 -0.7124  0.8082 -0.8420
  269MOL0     H36266   5.591   1.893   3.460  0.1204  1.2328 -0.2648
  269MOL0     H36267   5.675   1.669   3.579  0.2874  0.6726 -0.7278
  269MOL0     H36268   5.668   1.657   3.758 -1.8348 -0.8803  0.3236
  269MOL0     H36269   5.445   1.586   3.619 -1.4191  0.0930  1.8979
  269MOL0     H36270   5.415   1.757   3.609 -0.7934  0.3294 -0.5625
  269MOL0     H36271   5.394   1.802   3.835 -0.3511 -0.2414  2.8052
  269MOL0     H36272   5.466   1.653   3.883 -0.0519  0.2245  0.5373
  269MOL0     H36273   5.283   1.528   3.798  0.8403 -0.3101  1.6057
  269MOL0     H36274   5.202   1.668   3.721 -1.0188 -3.4140 -0.8198
  269MOL0     H36275   5.049   1.822   4.052  1.1004 -0.7386  0.7894
  269MOL0     H36276   4.743   1.931   3.979  2.7933  1.0679 -0.8799
  269MOL0     H36277   4.702   1.832   4.124  0.3949  0.3320 -0.9740
  269MOL0     H36278   4.859   1.924   4.110  1.9968 -0.2717 -0.8832
  269MOL0     H36279   4.365   1.663   4.033 -1.4970 -0.3036  2.2822
  269MOL0     H36280   4.132   1.556   4.039  0.2970 -1.3185  1.1191
  269MOL0     H36281   3.895   1.345   3.964  1.6622 -0.1821  1.7767
  269MOL0     H36282   4.007   1.377   3.837 -2.5145  0.1550 -1.7130
  269MOL0     H36283   4.080   1.165   3.785  2.2602 -0.2708  2.2922
  269MOL0     H36284   3.971   1.084   3.899 -3.0144 -0.9909 -1.6581
  269MOL0     H36285   3.910   1.140   3.644 -0.9307 -3.6109  1.7644
  269MOL0     H36286   3.840   1.285   3.732  1.9997  0.3924  0.3350
  269MOL0     H36287   3.791   0.988   3.784  0.2781  1.2886 -2.2135
  269MOL0     H36288   3.723   1.119   3.890  2.5214 -1.2776  2.0138
  269MOL0     H36289   3.672   1.075   3.583 -2.0233  0.3456 -1.0272
  269MOL0     H36290   3.619   1.202   3.679  0.4178  0.8919 -3.1048
  269MOL0     H36291   3.541   0.935   3.796  0.6289 -1.4579 -1.8311
  269MOL0     H36292   3.455   1.082   3.791 -3.3687 -2.3431 -1.6605
  269MOL0     H36293   3.363   0.896   3.663 -2.8506  2.6092  1.0450
  269MOL0     H36294   3.495   0.918   3.554  0.8042  0.7311  0.4176
  269MOL0     H36295   3.409   1.150   3.505 -0.2002 -1.3462 -3.9429
  269MOL0     H36296   3.265   1.129   3.610 -0.6865  0.4579 -0.4208
  269MOL0     H36297   4.300   1.177   3.929  2.6159 -0.1311 -0.4500
  269MOL0     H36298   4.519   1.291   3.908  1.9431  1.0551  2.9019
  269MOL0     H36299   4.818   1.450   3.848  1.5324 -0.0538 -0.9975
  269MOL0     H36300   5.059   1.470   3.816  0.0777  0.7523 -1.5736
  269MOL0     H36301   5.470   2.221   2.869 -2.9975 -3.1138  2.0886
  269MOL0     H36302   5.242   2.294   2.901  0.6725 -0.6617 -0.7005
  269MOL0     H36303   4.915   2.554   3.090 -0.8086  1.3795 -0.4390
  269MOL0     H36304   4.738   2.685   3.195 -1.4053 -2.6531 -2.1449
  269MOL0     H36305   4.620   2.786   3.424 -0.7445  2.2242 -1.9024
  269MOL0     H36306   4.501   2.719   3.300 -0.1714 -1.3798  0.6596
  269MOL0     H36307   4.396   2.840   3.513 -0.6271 -0.5645  1.9390
  269MOL0     H36308   4.459   2.705   3.605  0.0923 -1.3912 -1.3817
  269MOL0     H36309   4.237   2.653   3.568  0.1442  1.0944 -0.8162
  269MOL0     H36310   4.328   2.541   3.461 -0.7823  0.3972 -3.8824
  269MOL0     H36311   4.195   2.800   3.368 -0.1703 -0.1455  2.0255
  269MOL0     H36312   4.114   2.639   3.366  0.6845 -0.6257 -0.6666
  269MOL0     H36313   4.357   2.637   3.026 -0.8660 -2.6137 -0.3945
  269MOL0     H36314   4.705   2.380   3.489  0.9898  0.0538 -0.3228
  269MOL0     H36315   4.919   2.279   3.416  0.7468  1.8903  1.5395
  270MOL0     O36316   5.436   2.315   1.084  0.6283 -0.6661  0.2642
  270MOL0     C36317   5.382   2.426   1.109  0.3600  0.1195  0.6507
  270MOL0     O36318   5.265   2.471   1.056 -0.2691  0.2843 -0.4925
  270MOL0     C36319   5.193   2.384   0.987  0.2881  0.9658  0.0747
  270MOL0     C36320   5.164   2.249   1.026  0.0948  0.3269 -0.0036
  270MOL0     C36321   5.068   2.168   0.966 -0.0372 -0.1622  0.6486
  270MOL0     C36322   5.008   2.211   0.846  0.0318 -0.3528 -0.1227
  270MOL0     O36323   4.931   2.125   0.775 -0.6352  0.6735 -0.5060
  270MOL0     C36324   4.829   2.189   0.699  0.0417  0.2410  1.4741
  270MOL0     C36325   4.747   2.068   0.647  1.0162  0.2237 -0.0682
  270MOL0     C36326   4.640   2.018   0.738  0.2403  0.2699 -0.2241
  270MOL0     C36327   4.495   2.079   0.699 -1.0433 -0.3839  0.1848
  270MOL0     C36328   4.385   2.013   0.782  0.5092  0.1474  0.2615
  270MOL0     C36329   4.404   2.003   0.935 -0.5040 -0.1781 -0.5964
  270MOL0     C36330   4.278   1.947   1.006 -0.3539 -0.5859  0.9612
  270MOL0     C36331   4.273   1.797   1.040  1.1340 -0.2111 -1.1641
  270MOL0     N36332   4.366   1.757   1.147  0.3652 -0.0080 -0.8751
  270MOL0     C36333   4.337   1.648   1.237 -0.4026  0.5309  0.5080
  270MOL0     C36334   4.431   1.654   1.331 -0.9219  0.4242  0.3069
  270MOL0     C36335   4.440   1.570   1.452  0.0590 -0.4682 -0.4228
  270MOL0     C36336   4.322   1.589   1.556  1.0640 -0.7295  0.3631
  270MOL0     C36337   4.200   1.496   1.525 -0.7662 -0.3766  0.6146
  270MOL0     C36338   4.102   1.495   1.640 -0.7831 -0.5147 -0.5770
  270MOL0     O36339   4.011   1.390   1.627 -0.6034  0.6049 -0.2737
  270MOL0     C36340   3.883   1.408   1.574  0.7674 -0.4725 -0.1598
  270MOL0     C36341   3.778   1.316   1.611 -0.0250  0.0213  0.2808
  270MOL0     C36342   3.642   1.338   1.579  0.0334  0.3823 -0.2607
  270MOL0     C36343   3.539   1.242   1.636 -0.0031  0.5706  0.3050
  270MOL0     C36344   3.608   1.437   1.487  0.2149 -0.5341  0.7237
  270MOL0     C36345   3.477   1.464   1.425  0.5270  0.3411 -0.5147
  270MOL0     O36346   3.476   1.554   1.315  0.9668 -0.2593  0.2995
  270MOL0     C36347   3.354   1.591   1.262  0.6460  0.2931  0.4603
  270MOL0     C36348   3.334   1.723   1.246 -0.4150 -0.9369 -0.3841
  270MOL0     C36349   3.210   1.771   1.217 -0.0160  0.2423  0.4323
  270MOL0     C36350   3.101   1.681   1.187 -0.0013  0.6375 -0.3650
  270MOL0     O36351   2.979   1.729   1.150  0.3534  0.6672 -0.4475
  270MOL0     C36352   2.956   1.868   1.177 -0.6758 -1.1004  0.3725
  270MOL0     C36353   2.803   1.888   1.185  0.2173 -0.0048 -1.0151
  270MOL0     C36354   2.735   1.798   1.280  0.1012  0.5316  0.1944
  270MOL0     C36355   2.591   1.836   1.268 -0.5524  0.8778 -0.2980
  270MOL0     C36356   2.509   1.731   1.346  0.2987 -0.0755 -0.1419
  270MOL0     C36357   2.535   1.710   1.497  0.2430 -0.3250 -0.3720
  270MOL0     C36358   2.413   1.642   1.561  0.6624  0.7337 -0.6199
  270MOL0     C36359   2.408   1.660   1.717 -1.2096  0.2928  0.7677
  270MOL0    Cl36360   2.375   1.833   1.773  0.6153  0.3951 -0.4472
  270MOL0     C36361   3.130   1.540   1.196 -0.1642  0.3644 -1.4955
  270MOL0     C36362   3.262   1.492   1.229  0.3952 -0.6382  0.4385
  270MOL0     O36363   3.382   1.401   1.477  0.1978 -0.4580 -0.1250
  270MOL0     C36364   3.708   1.529   1.448 -0.1064  0.2158 -0.6764
  270MOL0     C36365   3.838   1.515   1.496 -0.6905 -0.3285  0.5849
  270MOL0     N36366   4.512   1.758   1.305  0.4131 -0.5708 -0.2139
  270MOL0     N36367   4.474   1.827   1.201 -0.0311  0.5659  0.2703
  270MOL0     C36368   5.041   2.347   0.798  0.1386  1.3024  0.3664
  270MOL0     C36369   5.131   2.426   0.871  0.3969  0.9511 -1.1062
  270MOL0     C36370   5.457   2.521   1.191 -0.1899 -0.9880  0.7420
  270MOL0     C36371   5.385   2.606   1.272  0.3779  0.1919 -0.0109
  270MOL0     C36372   5.441   2.721   1.321 -0.0601  0.3225  0.4568
  270MOL0     C36373   5.579   2.748   1.314  0.4402  0.9407  0.6155
  270MOL0     O36374   5.646   2.856   1.384  0.0206  0.5397 -0.0880
  270MOL0     C36375   5.571   2.945   1.461 -0.3052  0.5431  0.2647
  270MOL0     C36376   5.566   3.088   1.401  0.9538  0.1363  0.1884
  270MOL0     C36377   5.524   3.187   1.506 -0.3831  0.7561 -0.2888
  270MOL0     C36378   5.560   3.326   1.471 -0.9662 -0.2885  0.1115
  270MOL0     C36379   5.493   3.377   1.360  0.0391 -0.5720 -0.1919
  270MOL0     C36380   5.448   3.428   1.264 -0.4173  0.5725  0.0532
  270MOL0     C36381   5.656   2.656   1.245  0.0271  0.6537  1.4293
  270MOL0     C36382   5.594   2.542   1.178  0.3267 -0.0425  0.3278
  270MOL0     H36383   5.221   2.200   1.104 -0.2441  2.6388  1.8301
  270MOL0     H36384   5.054   2.069   1.007  0.9481 -1.3283 -1.6341
  270MOL0     H36385   4.764   2.258   0.754  0.9465  2.8669 -0.5338
  270MOL0     H36386   4.870   2.246   0.615 -1.6567 -0.4448  0.1433
  270MOL0     H36387   4.710   2.111   0.553  1.4447  2.1931  0.5969
  270MOL0     H36388   4.799   1.975   0.624 -1.1843 -1.3457  0.9693
  270MOL0     H36389   4.628   1.909   0.735  1.4340 -0.1560  4.0037
  270MOL0     H36390   4.666   2.051   0.839  1.8611  0.8326 -0.8030
  270MOL0     H36391   4.497   2.184   0.730  3.5688 -0.4228  0.7417
  270MOL0     H36392   4.478   2.078   0.591 -1.1208 -2.3058  0.1872
  270MOL0     H36393   4.298   2.079   0.774  1.1678  1.0206  0.2591
  270MOL0     H36394   4.369   1.908   0.756 -1.4178  0.8643 -1.7811
  270MOL0     H36395   4.493   1.942   0.952 -0.4563 -0.6880 -2.4596
  270MOL0     H36396   4.437   2.101   0.968 -0.2455 -0.6372  0.5655
  270MOL0     H36397   4.257   2.007   1.095 -2.2640 -1.4321  1.1465
  270MOL0     H36398   4.196   1.980   0.941  0.9865 -1.7887 -1.4697
  270MOL0     H36399   4.289   1.729   0.956  0.1684 -1.9941  0.0304
  270MOL0     H36400   4.170   1.777   1.068  1.7793 -1.0237  0.8119
  270MOL0     H36401   4.250   1.582   1.241 -0.0569 -0.0451 -1.0183
  270MOL0     H36402   4.449   1.465   1.425  1.4468 -0.9147  1.5891
  270MOL0     H36403   4.533   1.602   1.500  0.7764  0.2681 -2.1955
  270MOL0     H36404   4.300   1.697   1.554  2.3036 -0.4652 -0.2240
  270MOL0     H36405   4.362   1.573   1.656 -0.1751 -1.0736  0.8163
  270MOL0     H36406   4.233   1.393   1.507  1.0919  0.2020  0.5015
  270MOL0     H36407   4.141   1.527   1.439 -0.4259  0.3492  0.6340
  270MOL0     H36408   4.065   1.596   1.621  1.5296  0.2679 -1.2653
  270MOL0     H36409   4.160   1.488   1.733 -3.3736 -2.1785  1.0429
  270MOL0     H36410   3.810   1.228   1.665  0.9432 -0.9308 -1.7493
  270MOL0     H36411   3.465   1.208   1.562  1.0081  0.7609 -0.8329
  270MOL0     H36412   3.591   1.151   1.668 -0.6841 -0.3220 -0.9853
  270MOL0     H36413   3.484   1.282   1.721  0.1584  1.0841  0.1718
  270MOL0     H36414   3.410   1.793   1.281 -2.3331  1.0678  0.0050
  270MOL0     H36415   3.193   1.877   1.199 -1.1641  0.4622  2.5106
  270MOL0     H36416   2.996   1.898   1.275  0.2269  0.6414 -0.4836
  270MOL0     H36417   2.996   1.936   1.102 -1.9841 -0.7692 -0.0418
  270MOL0     H36418   2.786   1.991   1.217  0.3409  0.4114 -2.2418
  270MOL0     H36419   2.753   1.885   1.088  3.0844  2.1722 -2.7362
  270MOL0     H36420   2.765   1.805   1.385 -3.3387 -3.6418  1.7934
  270MOL0     H36421   2.756   1.693   1.256 -1.1969  0.2469  0.2160
  270MOL0     H36422   2.571   1.937   1.305  1.7502  0.9112  1.0905
  270MOL0     H36423   2.560   1.841   1.164  0.0460 -3.6079 -0.9255
  270MOL0     H36424   2.524   1.632   1.303 -0.0541 -0.1176 -0.1725
  270MOL0     H36425   2.405   1.765   1.340  0.2858 -0.2189 -0.7819
  270MOL0     H36426   2.624   1.646   1.503  0.9015  0.5991  0.2075
  270MOL0     H36427   2.545   1.805   1.550  1.6928 -0.7810  0.2459
  270MOL0     H36428   2.422   1.536   1.535  2.3129  0.5089  0.6521
  270MOL0     H36429   2.323   1.691   1.524  0.9790 -0.9899 -4.0416
  270MOL0     H36430   2.323   1.605   1.758 -2.0556  1.8174  1.1256
  270MOL0     H36431   2.504   1.636   1.762 -0.3253  2.3666  0.1054
  270MOL0     H36432   3.050   1.468   1.183 -2.0536  2.0073  0.2974
  270MOL0     H36433   3.284   1.386   1.228  1.3945 -0.4820 -2.2489
  270MOL0     H36434   3.689   1.607   1.375 -0.1176  0.9000  0.0462
  270MOL0     H36435   3.912   1.588   1.462 -1.0058 -0.7128 -0.9978
  270MOL0     H36436   5.000   2.393   0.709 -0.3474  1.7278  0.8001
  270MOL0     H36437   5.143   2.526   0.830  0.5683  1.6908  0.6293
  270MOL0     H36438   5.282   2.583   1.296  0.0971  0.5868 -0.8091
  270MOL0     H36439   5.369   2.788   1.368 -0.5854 -1.6345  2.6564
  270MOL0     H36440   5.475   2.913   1.501  1.5744 -0.6599  4.3368
  270MOL0     H36441   5.635   2.957   1.550  0.4674 -2.1324  0.1529
  270MOL0     H36442   5.487   3.083   1.326 -2.4016 -2.8919  3.5348
  270MOL0     H36443   5.665   3.112   1.361  0.2594 -0.4521 -2.0212
  270MOL0     H36444   5.578   3.167   1.600  2.4756  2.0905 -1.5168
  270MOL0     H36445   5.418   3.178   1.531  0.0323 -0.2578  1.2987
  270MOL0     H36446   5.668   3.347   1.465 -1.0237 -0.1179 -0.4011
  270MOL0     H36447   5.526   3.391   1.551  2.1996  1.1599  0.4323
  270MOL0     H36448   5.419   3.465   1.168  2.3024  1.9941 -0.3340
  270MOL0     H36449   5.760   2.686   1.253  0.1650  0.1087  1.7203
  270MOL0     H36450   5.650   2.468   1.123 -0.7784 -1.6933  1.3195
  271MOL0     O36451   6.880   6.484   3.460 -0.2584  0.6266 -0.0053
  271MOL0     C36452   6.912   6.423   3.352  1.0985 -0.0099 -0.6434
  271MOL0     O36453   7.005   6.329   3.341  0.0323 -0.8862 -0.2556
  271MOL0     C36454   7.038   6.249   3.448  1.3712 -1.0140  0.1560
  271MOL0     C36455   7.031   6.281   3.587 -0.9999 -0.9057 -0.3204
  271MOL0     C36456   7.056   6.168   3.676 -0.3766  0.5876  0.2173
  271MOL0     C36457   7.077   6.039   3.637 -0.4256  0.6284  0.0249
  271MOL0     O36458   7.101   5.924   3.709  0.1008 -0.4637 -0.3434
  271MOL0     C36459   7.073   5.941   3.849  0.0780 -1.2990 -0.2865
  271MOL0     C36460   6.924   5.925   3.867 -0.1807 -0.4541 -0.1347
  271MOL0     C36461   6.895   5.919   4.019 -0.5471 -0.4802  0.0754
  271MOL0     C36462   6.737   5.920   4.059 -0.0725 -0.8068  0.3627
  271MOL0     C36463   6.645   5.826   3.974 -0.0114  0.1577  0.4639
  271MOL0     C36464   6.678   5.674   3.998  0.6585  0.0021 -0.2124
  271MOL0     C36465   6.588   5.585   3.905 -0.3908  0.1152 -0.2861
  271MOL0     C36466   6.436   5.617   3.940 -0.1150  0.0540  0.6508
  271MOL0     N36467   6.346   5.522   3.880 -0.4671  0.0717  0.2060
  271MOL0     C36468   6.312   5.397   3.927  1.1922  0.3980 -0.4656
  271MOL0     C36469   6.199   5.371   3.849  0.1447 -0.0052  0.5515
  271MOL0     C36470   6.109   5.247   3.861  0.9722 -0.7181 -0.1034
  271MOL0     C36471   6.024   5.248   3.996 -0.0246  0.1070 -0.4034
  271MOL0     C36472   5.889   5.181   3.985  0.1631  0.7765  0.1450
  271MOL0     C36473   5.828   5.148   4.122  0.4869 -1.0312  0.6481
  271MOL0     O36474   5.800   5.010   4.120  0.7324 -0.0577 -0.3508
  271MOL0     C36475   5.717   4.949   4.219 -0.7366  0.1615  0.7576
  271MOL0     C36476   5.675   4.820   4.195  0.2631 -0.0491  0.2829
  271MOL0     C36477   5.602   4.750   4.284  0.2676 -0.2348  0.5248
  271MOL0     C36478   5.582   4.601   4.258  0.0036 -0.4349 -0.7326
  271MOL0     C36479   5.557   4.805   4.406 -0.4429 -0.0402 -0.4523
  271MOL0     C36480   5.483   4.737   4.515 -0.3430  1.7434  1.2665
  271MOL0     O36481   5.427   4.610   4.490  0.1459  0.2801  0.0478
  271MOL0     C36482   5.332   4.550   4.579 -0.2396  0.6026 -0.4991
  271MOL0     C36483   5.216   4.617   4.633 -0.6895 -0.9434 -0.1051
  271MOL0     C36484   5.120   4.549   4.703  0.7822 -0.2698 -0.2567
  271MOL0     C36485   5.127   4.414   4.729 -0.6814  1.3068  0.6045
  271MOL0     O36486   5.029   4.342   4.790  0.0560 -0.3362 -0.6308
  271MOL0     C36487   5.046   4.215   4.854  0.8758 -0.2672 -0.0702
  271MOL0     C36488   4.913   4.184   4.930  0.8627 -0.3993 -0.3850
  271MOL0     C36489   4.938   4.171   5.085  0.2807  0.4353 -0.1833
  271MOL0     C36490   4.820   4.079   5.142  1.5413  0.4752 -0.3367
  271MOL0     C36491   4.821   4.053   5.294 -0.4608  0.1325  1.0644
  271MOL0     C36492   4.936   3.961   5.326 -0.5410  0.7986 -0.5760
  271MOL0     C36493   4.929   3.935   5.488  1.0131  0.0327 -0.3658
  271MOL0     C36494   5.051   3.853   5.547 -0.2070 -0.6447  0.6107
  271MOL0    Cl36495   5.027   3.829   5.719 -0.0376 -0.3484 -0.0344
  271MOL0     C36496   5.241   4.348   4.676 -0.0024  0.3447 -0.2670
  271MOL0     C36497   5.336   4.411   4.602 -0.4418 -0.1264 -0.3167
  271MOL0     O36498   5.453   4.790   4.617  0.3896 -0.4154 -1.4105
  271MOL0     C36499   5.589   4.942   4.421  0.1597  0.7297  0.2958
  271MOL0     C36500   5.662   5.015   4.329 -0.0598 -0.6501 -0.4107
  271MOL0     N36501   6.186   5.466   3.745  0.3375 -0.5534  0.6505
  271MOL0     N36502   6.275   5.555   3.768  0.6923 -0.5516 -0.3135
  271MOL0     C36503   7.092   6.017   3.505  0.1867 -0.9479 -0.2706
  271MOL0     C36504   7.062   6.114   3.415 -0.5116 -0.6064 -0.2313
  271MOL0     C36505   6.859   6.462   3.219 -0.4012 -1.4706 -0.6479
  271MOL0     C36506   6.913   6.425   3.097  0.6092  0.4172  0.3437
  271MOL0     C36507   6.860   6.458   2.975 -0.4336 -0.2262  0.7476
  271MOL0     C36508   6.756   6.554   2.968  0.3292  0.7285  0.8063
  271MOL0     O36509   6.694   6.576   2.847 -0.6613  0.2675  0.2372
  271MOL0     C36510   6.766   6.545   2.722 -0.2550  0.4401  0.2988
  271MOL0     C36511   6.679   6.557   2.596 -0.5906  0.5388 -0.7730
  271MOL0     C36512   6.540   6.493   2.607 -0.1311  0.4337  0.4338
  271MOL0     C36513   6.541   6.340   2.608 -0.7853  0.5459 -0.3021
  271MOL0     C36514   6.578   6.280   2.479 -0.4179 -0.0183 -0.2345
  271MOL0     C36515   6.609   6.253   2.364  0.3845 -0.1440 -0.2185
  271MOL0     C36516   6.697   6.586   3.090  0.4198 -0.5490  0.4930
  271MOL0     C36517   6.742   6.542   3.212  0.0282  0.5388  0.2521
  271MOL0     H36518   7.005   6.378   3.629  1.0466 -0.8229  0.8716
  271MOL0     H36519   7.038   6.203   3.777  0.2365 -0.8198  0.8401
  271MOL0     H36520   7.118   5.869   3.917  2.6615  0.2350 -0.2687
  271MOL0     H36521   7.108   6.037   3.888  2.1307 -2.6132  1.2788
  271MOL0     H36522   6.868   6.013   3.834  0.9584  0.8920  1.3985
  271MOL0     H36523   6.896   5.826   3.827  2.7577 -0.7381 -1.8193
  271MOL0     H36524   6.937   5.828   4.062 -3.2809 -1.9269 -0.0451
  271MOL0     H36525   6.941   6.007   4.063 -2.7389  1.2400 -0.8376
  271MOL0     H36526   6.740   5.909   4.168  2.2879 -0.3962  0.3912
  271MOL0     H36527   6.697   6.021   4.048  0.2316 -0.5474  1.5386
  271MOL0     H36528   6.547   5.856   4.013 -0.8769 -0.6303 -1.0021
  271MOL0     H36529   6.653   5.836   3.865  1.8964 -4.3560 -0.0136
  271MOL0     H36530   6.785   5.656   3.981  0.8757  0.2823  0.7563
  271MOL0     H36531   6.653   5.648   4.101 -0.3567  1.3711 -0.0929
  271MOL0     H36532   6.604   5.591   3.797 -0.0588 -1.5793 -0.3511
  271MOL0     H36533   6.609   5.480   3.928 -2.0824 -0.7725 -2.4378
  271MOL0     H36534   6.411   5.722   3.923 -0.4849  0.0823  1.3104
  271MOL0     H36535   6.420   5.600   4.047 -0.3032 -2.7346  0.2584
  271MOL0     H36536   6.355   5.336   4.006 -0.0535  0.6372  0.4099
  271MOL0     H36537   6.036   5.259   3.780 -1.0261 -0.2456  1.6718
  271MOL0     H36538   6.173   5.160   3.847  0.6089 -1.3080  1.6709
  271MOL0     H36539   6.011   5.355   4.018  1.9633  0.2522  0.2631
  271MOL0     H36540   6.084   5.192   4.068 -2.1893  0.0081  1.3970
  271MOL0     H36541   5.895   5.091   3.924 -0.3628  0.9875 -0.2227
  271MOL0     H36542   5.820   5.253   3.939 -2.2188 -0.9668  0.8118
  271MOL0     H36543   5.732   5.196   4.140  0.6700  0.6418 -2.3359
  271MOL0     H36544   5.898   5.170   4.204  2.1655  0.5507 -1.1226
  271MOL0     H36545   5.706   4.781   4.098 -1.2410  1.4389 -0.8689
  271MOL0     H36546   5.476   4.583   4.239 -0.0538  1.2404 -2.3782
  271MOL0     H36547   5.633   4.566   4.168  0.9920  0.2196 -0.4461
  271MOL0     H36548   5.621   4.537   4.338 -3.1663 -0.2139  1.1280
  271MOL0     H36549   5.192   4.720   4.612  1.4666 -0.5920 -1.0858
  271MOL0     H36550   5.034   4.604   4.739 -0.6340 -4.3460  3.6366
  271MOL0     H36551   5.051   4.142   4.774  1.5124  0.6397 -0.8840
  271MOL0     H36552   5.131   4.228   4.922  2.1609  2.6345 -2.0215
  271MOL0     H36553   4.834   4.257   4.909 -0.1817 -2.0357 -2.4639
  271MOL0     H36554   4.883   4.083   4.900  3.9550 -0.9161 -2.1496
  271MOL0     H36555   4.937   4.272   5.126  1.7764  0.0220  0.9654
  271MOL0     H36556   5.033   4.126   5.113 -0.2700  0.5156  2.0374
  271MOL0     H36557   4.722   4.125   5.126  1.1566  0.8890  2.5274
  271MOL0     H36558   4.822   3.982   5.091  1.4882  0.3349 -0.0786
  271MOL0     H36559   4.722   4.010   5.313  0.2897 -0.3087  4.6862
  271MOL0     H36560   4.843   4.150   5.339  3.2529 -0.2499  0.4048
  271MOL0     H36561   4.932   3.867   5.271  1.9839 -1.3029  2.4233
  271MOL0     H36562   5.029   4.015   5.305  0.3101 -1.2394 -2.4791
  271MOL0     H36563   4.834   3.881   5.500  1.6442 -0.8154  1.1806
  271MOL0     H36564   4.925   4.032   5.538  0.0899 -0.4665  0.5781
  271MOL0     H36565   5.149   3.898   5.525  0.3676 -2.8323 -1.9115
  271MOL0     H36566   5.056   3.757   5.494 -0.3103 -1.0461  1.3259
  271MOL0     H36567   5.261   4.242   4.690  0.7252  0.4351 -0.5533
  271MOL0     H36568   5.422   4.349   4.579 -0.9440 -0.7319 -0.5829
  271MOL0     H36569   5.543   4.995   4.503 -0.3962  1.2434 -0.3354
  271MOL0     H36570   5.675   5.123   4.328 -4.1387 -0.0111 -1.4319
  271MOL0     H36571   7.124   5.916   3.477  1.0547 -1.3657  2.0243
  271MOL0     H36572   7.065   6.086   3.310  0.5364 -3.6576  0.5281
  271MOL0     H36573   7.003   6.364   3.099  0.4457  0.0155 -1.7720
  271MOL0     H36574   6.912   6.421   2.887  0.2569  3.4282 -0.5317
  271MOL0     H36575   6.848   6.618   2.719  1.8995 -1.8118  0.5340
  271MOL0     H36576   6.807   6.444   2.706 -1.3383  0.1797 -0.9945
  271MOL0     H36577   6.723   6.526   2.501  1.2527  2.4647 -0.6284
  271MOL0     H36578   6.661   6.665   2.595  0.1014  0.7420  1.6390
  271MOL0     H36579   6.471   6.532   2.531  1.3093  1.2236 -0.5203
  271MOL0     H36580   6.496   6.515   2.704 -0.2352  1.4142  0.1680
  271MOL0     H36581   6.441   6.303   2.633 -1.4368  0.9898 -2.1390
  271MOL0     H36582   6.615   6.308   2.683 -0.6398  1.6340  0.0263
  271MOL0     H36583   6.635   6.215   2.267 -2.4509 -0.7410 -0.8225
  271MOL0     H36584   6.610   6.651   3.098  1.8420  1.1863  3.0426
  271MOL0     H36585   6.686   6.572   3.300 -1.0309  0.6076 -0.4258
  272MOL0     O36586  11.281   3.788   4.898  0.6213  0.0842  0.1764
  272MOL0     C36587  11.288   3.882   4.822 -0.2967 -0.4496 -0.2726
  272MOL0     O36588  11.324   3.887   4.682 -1.0055  0.0791  0.4561
  272MOL0     C36589  11.364   3.764   4.626  0.3295 -0.9695  0.9760
  272MOL0     C36590  11.279   3.654   4.632  0.2271 -0.3753 -0.3815
  272MOL0     C36591  11.299   3.538   4.567  0.2181 -0.5979 -1.0018
  272MOL0     C36592  11.426   3.519   4.501 -1.0187  0.0721  0.1554
  272MOL0     O36593  11.450   3.417   4.403  0.3406  0.0605 -0.6788
  272MOL0     C36594  11.363   3.304   4.412  0.4520  0.0806 -0.5926
  272MOL0     C36595  11.409   3.188   4.328 -0.3734  1.0517  0.9109
  272MOL0     C36596  11.374   3.199   4.176 -0.3504 -0.3360 -0.4432
  272MOL0     C36597  11.421   3.082   4.089  0.1153  0.6173  0.0549
  272MOL0     C36598  11.570   3.053   4.096 -0.0947  0.5828 -0.0421
  272MOL0     C36599  11.672   3.178   4.075  0.0812 -0.6165  1.2019
  272MOL0     C36600  11.822   3.144   4.113 -0.4807 -0.1075 -0.6628
  272MOL0     C36601  11.894   3.070   4.005  1.0348  0.1925 -0.0611
  272MOL0     N36602  12.032   3.032   4.040  0.2737  0.3422 -0.0093
  272MOL0     C36603  12.072   2.946   4.142 -0.7099  0.7981 -0.6116
  272MOL0     C36604  12.209   2.937   4.137  0.3502  0.1855  0.0102
  272MOL0     C36605  12.307   2.843   4.204 -0.4066 -0.3593 -0.4201
  272MOL0     C36606  12.352   2.914   4.341 -0.9079  0.5084  1.1776
  272MOL0     C36607  12.491   2.868   4.368  0.4820  0.1129  0.3834
  272MOL0     C36608  12.550   2.917   4.503  0.6035 -0.5449 -0.0692
  272MOL0     O36609  12.524   3.054   4.540  0.2179 -0.3849  0.7797
  272MOL0     C36610  12.595   3.150   4.489  0.1427 -0.0307  0.2110
  272MOL0     C36611  12.714   3.134   4.424  0.6601  0.3813  0.4511
  272MOL0     C36612  12.781   3.250   4.381  0.1198  0.9839  0.0371
  272MOL0     C36613  12.924   3.227   4.348  0.6675  0.0058  0.3498
  272MOL0     C36614  12.723   3.372   4.387  0.3164 -0.5117 -0.6486
  272MOL0     C36615  12.790   3.489   4.327  0.2024 -0.2446 -0.2528
  272MOL0     O36616  12.698   3.597   4.314 -0.4613 -0.1439  0.5002
  272MOL0     C36617  12.733   3.689   4.222 -0.1107 -0.2921  0.4242
  272MOL0     C36618  12.829   3.794   4.245  0.0190  0.6215  0.3129
  272MOL0     C36619  12.873   3.863   4.134  0.1556 -0.2768 -0.2464
  272MOL0     C36620  12.827   3.845   4.008 -0.7824 -0.2823  0.1298
  272MOL0     O36621  12.874   3.935   3.914  0.3802 -0.5194  0.1281
  272MOL0     C36622  12.851   3.927   3.775  1.1048 -0.4875 -0.1690
  272MOL0     C36623  12.735   4.009   3.736  1.2614 -0.3822 -1.0246
  272MOL0     C36624  12.719   4.142   3.813  1.0384  0.1291  0.3708
  272MOL0     C36625  12.617   4.227   3.735 -0.0226 -0.5154 -0.9759
  272MOL0     C36626  12.596   4.360   3.813 -0.8646 -0.8039 -0.6842
  272MOL0     C36627  12.512   4.454   3.724 -0.3870  0.2787 -0.0301
  272MOL0     C36628  12.457   4.582   3.780 -0.2839 -0.9886  0.4292
  272MOL0     C36629  12.369   4.584   3.888  0.7098 -0.2481  0.2412
  272MOL0    Cl36630  12.406   4.743   3.975 -0.1749  0.7066 -0.0593
  272MOL0     C36631  12.721   3.755   3.985  0.3792 -0.2305 -0.8505
  272MOL0     C36632  12.673   3.671   4.096 -0.3097 -0.9280  0.0548
  272MOL0     O36633  12.915   3.497   4.309  0.0444  1.2810  0.3267
  272MOL0     C36634  12.589   3.381   4.433  0.6568 -0.1655  0.7868
  272MOL0     C36635  12.525   3.270   4.483 -1.2230 -0.6876 -0.1072
  272MOL0     N36636  12.243   3.033   4.040 -0.3415  0.1991  0.5630
  272MOL0     N36637  12.137   3.090   3.985 -0.1229  0.0716 -0.1139
  272MOL0     C36638  11.519   3.619   4.511 -0.2467 -0.1004 -1.2025
  272MOL0     C36639  11.488   3.742   4.566 -0.1684 -0.1516 -0.0027
  272MOL0     C36640  11.241   4.010   4.866 -0.0996 -0.0067 -0.1280
  272MOL0     C36641  11.231   4.043   5.007  0.8398  0.1917 -0.3619
  272MOL0     C36642  11.204   4.180   5.041  1.0181 -0.2315 -0.5366
  272MOL0     C36643  11.183   4.284   4.943  0.1327 -0.6603 -0.5748
  272MOL0     O36644  11.147   4.415   4.962  0.5341  0.1659  0.4002
  272MOL0     C36645  11.035   4.435   5.046 -0.0199  0.0743  0.8250
  272MOL0     C36646  10.983   4.573   5.019 -0.0789 -1.5671  0.7002
  272MOL0     C36647  10.890   4.625   5.121  0.6572  0.1302  0.0843
  272MOL0     C36648  10.766   4.692   5.048  0.8447 -0.1854  1.1906
  272MOL0     C36649  10.673   4.726   5.161 -0.2938  0.3652 -0.1545
  272MOL0     C36650  10.599   4.771   5.246 -0.6407  1.0617 -0.9160
  272MOL0     C36651  11.200   4.249   4.815 -0.7374 -0.0188  0.2492
  272MOL0     C36652  11.224   4.118   4.765  0.5943  0.2336  0.6380
  272MOL0     H36653  11.182   3.658   4.680  0.2211  2.2708 -0.5091
  272MOL0     H36654  11.225   3.462   4.543 -0.5251 -0.4797  0.7903
  272MOL0     H36655  11.359   3.280   4.518 -0.6255  0.8246 -0.4521
  272MOL0     H36656  11.266   3.333   4.371  1.3576  1.5610 -1.7875
  272MOL0     H36657  11.514   3.165   4.349 -1.2203 -2.4139  1.9480
  272MOL0     H36658  11.354   3.106   4.374  0.7683 -0.1938  0.1627
  272MOL0     H36659  11.266   3.209   4.163 -0.3556  0.7286  0.2697
  272MOL0     H36660  11.415   3.292   4.135  1.4814 -1.3843 -1.0813
  272MOL0     H36661  11.374   2.985   4.104  0.8171 -0.9488 -5.4281
  272MOL0     H36662  11.402   3.099   3.982  3.3740  1.2798 -0.5509
  272MOL0     H36663  11.589   3.016   4.197  0.9082 -1.7053 -1.0008
  272MOL0     H36664  11.596   2.971   4.027  3.5532  1.1925  0.3899
  272MOL0     H36665  11.658   3.232   3.981  1.5407  2.1940  2.4563
  272MOL0     H36666  11.641   3.269   4.128  1.6332  2.5393 -2.7522
  272MOL0     H36667  11.876   3.236   4.140 -1.7888  0.7161 -0.7737
  272MOL0     H36668  11.824   3.080   4.201 -1.9111  1.5866  0.6811
  272MOL0     H36669  11.889   3.141   3.922 -1.1133  0.8474  0.5716
  272MOL0     H36670  11.850   2.973   3.981  1.0353  0.1967 -0.0798
  272MOL0     H36671  12.011   2.909   4.224  3.6767 -0.9298  2.2912
  272MOL0     H36672  12.259   2.746   4.216 -3.5557  1.0252 -0.5354
  272MOL0     H36673  12.393   2.841   4.137 -0.9566  1.3419 -1.2658
  272MOL0     H36674  12.284   2.899   4.425 -0.0104 -0.3244  1.7700
  272MOL0     H36675  12.349   3.021   4.316 -0.8366 -0.2718 -2.9938
  272MOL0     H36676  12.563   2.902   4.293  3.1018 -2.7138  1.3702
  272MOL0     H36677  12.501   2.760   4.386  0.3533 -0.0408 -0.4223
  272MOL0     H36678  12.657   2.892   4.500  0.8087  0.2971 -2.8759
  272MOL0     H36679  12.504   2.853   4.579  0.1599 -0.3127 -0.1418
  272MOL0     H36680  12.771   3.046   4.453  0.6063  1.0934  3.0146
  272MOL0     H36681  12.947   3.122   4.367  1.8862  0.3863  1.1371
  272MOL0     H36682  12.935   3.223   4.239 -1.9165 -0.5858  0.0528
  272MOL0     H36683  12.992   3.294   4.403  0.0480 -1.7270  3.4614
  272MOL0     H36684  12.850   3.820   4.348  0.1257  0.6833  0.2749
  272MOL0     H36685  12.937   3.949   4.145  1.6928 -1.5328  1.3658
  272MOL0     H36686  12.942   3.971   3.733  0.7672  1.4271  0.9744
  272MOL0     H36687  12.841   3.826   3.735  2.6672  0.4165 -3.1618
  272MOL0     H36688  12.761   4.046   3.636  2.7999  0.4503 -0.3538
  272MOL0     H36689  12.646   3.946   3.740 -0.0346  1.3613 -1.0250
  272MOL0     H36690  12.816   4.190   3.827  0.3330  2.0868 -1.0170
  272MOL0     H36691  12.682   4.123   3.914  0.6918 -1.9670 -0.0917
  272MOL0     H36692  12.648   4.232   3.631  2.0868  0.2577 -0.3599
  272MOL0     H36693  12.516   4.184   3.743 -0.7319  1.2577  0.1745
  272MOL0     H36694  12.682   4.414   3.854 -1.1904  0.2081 -1.2945
  272MOL0     H36695  12.538   4.329   3.900 -2.8377  0.0856 -1.6144
  272MOL0     H36696  12.568   4.478   3.633  0.1779 -1.7591 -0.2723
  272MOL0     H36697  12.428   4.395   3.686  1.0610 -2.6020  0.9293
  272MOL0     H36698  12.413   4.629   3.692 -1.6670 -0.9089  1.1353
  272MOL0     H36699  12.549   4.630   3.816  0.3863  1.0996 -3.4831
  272MOL0     H36700  12.394   4.511   3.966  2.3661 -0.5128 -0.4837
  272MOL0     H36701  12.270   4.563   3.847  0.7760  0.9858 -0.5782
  272MOL0     H36702  12.670   3.752   3.890 -1.7381  1.7655  0.1271
  272MOL0     H36703  12.607   3.592   4.064 -0.4343 -1.4511  1.5281
  272MOL0     H36704  12.535   3.475   4.442  0.4842  0.2839 -3.1118
  272MOL0     H36705  12.434   3.288   4.538  0.4064  1.4154  2.1510
  272MOL0     H36706  11.621   3.602   4.477 -0.4329 -0.5678 -1.5264
  272MOL0     H36707  11.556   3.824   4.584 -0.3826 -0.1174  0.6810
  272MOL0     H36708  11.259   3.964   5.077  3.6123  2.4977  1.3367
  272MOL0     H36709  11.205   4.206   5.146 -0.3649  1.0055 -0.7992
  272MOL0     H36710  10.951   4.366   5.040 -1.4452  1.8361 -0.2732
  272MOL0     H36711  11.070   4.438   5.150 -3.1411  2.4511  1.9562
  272MOL0     H36712  10.943   4.580   4.918 -1.9392 -1.0406  1.4422
  272MOL0     H36713  11.077   4.629   5.013 -0.3583 -1.0744  0.8851
  272MOL0     H36714  10.937   4.697   5.189  2.6442 -1.2638  0.2935
  272MOL0     H36715  10.852   4.541   5.180  0.4030  0.3979  0.3052
  272MOL0     H36716  10.718   4.625   4.976 -0.1911  0.4681  1.2449
  272MOL0     H36717  10.792   4.783   4.994 -0.7049 -0.8731 -0.8314
  272MOL0     H36718  10.527   4.815   5.312 -0.1307  1.8892 -0.8947
  272MOL0     H36719  11.184   4.325   4.739  0.9379  2.3127  2.0918
  272MOL0     H36720  11.228   4.120   4.657 -0.2088  2.0420  0.6060
  273MOL0     O36721   9.076   8.982   0.059 -0.5793 -0.0069  0.3720
  273MOL0     C36722   9.030   9.092   0.024 -0.4353  0.4428 -0.7579
  273MOL0     O36723   9.077   9.204   0.071 -0.1871 -0.0194 -0.8051
  273MOL0     C36724   9.160   9.213   0.184  0.7866  0.0556 -1.0548
  273MOL0     C36725   9.170   9.128   0.293  0.0513  0.1263  0.2653
  273MOL0     C36726   9.244   9.165   0.412  0.4921 -0.3129  0.0446
  273MOL0     C36727   9.302   9.292   0.424 -0.3002  0.7902  0.4695
  273MOL0     O36728   9.360   9.318   0.542 -0.4031  0.3272 -0.2209
  273MOL0     C36729   9.506   9.343   0.550  1.2121  0.9136  0.2567
  273MOL0     C36730   9.577   9.226   0.476 -0.3936 -0.3236  0.3617
  273MOL0     C36731   9.732   9.234   0.468 -0.3588 -0.1700 -0.2815
  273MOL0     C36732   9.780   9.136   0.362  0.5740  0.8736  0.5233
  273MOL0     C36733   9.926   9.157   0.338 -0.8339  0.5538 -0.1063
  273MOL0     C36734  10.029   9.122   0.446 -0.5016 -0.6786  0.1254
  273MOL0     C36735  10.017   8.977   0.495 -0.6792  0.7241 -0.2927
  273MOL0     C36736  10.005   8.878   0.384  0.1475  0.2108  0.5451
  273MOL0     N36737  10.099   8.882   0.267  0.7808  0.1656 -0.3717
  273MOL0     C36738  10.232   8.924   0.275  1.3574  1.5016 -0.4644
  273MOL0     C36739  10.261   8.927   0.144  0.9965 -0.1678 -0.0114
  273MOL0     C36740  10.383   8.985   0.083  0.1924 -0.0552 -0.9305
  273MOL0     C36741  10.395   9.130   0.116 -0.5418 -0.0055  0.5522
  273MOL0     C36742  10.270   9.209   0.087 -0.1072  0.4403 -0.6217
  273MOL0     C36743  10.268   9.262  -0.048 -0.1559 -0.2331 -0.7404
  273MOL0     O36744  10.136   9.309  -0.071  0.4798 -0.2398  0.4374
  273MOL0     C36745  10.121   9.367  -0.198 -0.3413 -0.5060 -0.1321
  273MOL0     C36746  10.010   9.442  -0.217 -0.5172 -0.6524  0.2385
  273MOL0     C36747   9.979   9.504  -0.335 -0.3213  0.7069  0.8380
  273MOL0     C36748   9.850   9.576  -0.331 -0.1471 -0.1651  0.4010
  273MOL0     C36749  10.072   9.492  -0.446 -0.7550  0.3295 -0.5930
  273MOL0     C36750  10.042   9.556  -0.574  0.3251 -0.0879  0.4987
  273MOL0     O36751  10.149   9.588  -0.646 -0.4704  0.2298  0.1766
  273MOL0     C36752  10.131   9.645  -0.771  0.0025 -0.5692 -0.5226
  273MOL0     C36753  10.163   9.567  -0.887  0.2024 -0.3708 -0.5798
  273MOL0     C36754  10.175   9.625  -1.014  0.0835  0.0486 -0.3273
  273MOL0     C36755  10.124   9.757  -1.033 -0.1920 -0.7473 -0.0969
  273MOL0     O36756  10.120   9.830  -1.151  0.1628 -1.0615 -0.6944
  273MOL0     C36757  10.153   9.779  -1.280  0.5149  0.0373  0.3739
  273MOL0     C36758  10.181   9.898  -1.375  0.0418 -0.1402 -0.8516
  273MOL0     C36759  10.048   9.958  -1.416  0.3989  1.4369 -1.1377
  273MOL0     C36760  10.067  10.077  -1.503 -0.0252 -0.1038  0.0974
  273MOL0     C36761  10.117  10.032  -1.640 -0.1479 -0.2070  0.3772
  273MOL0     C36762  10.070  10.119  -1.751 -0.2353 -0.2946  0.5412
  273MOL0     C36763  10.114  10.046  -1.877 -0.1195 -0.3901 -0.2540
  273MOL0     C36764  10.071  10.136  -1.997 -0.1718  0.0041 -0.1331
  273MOL0    Cl36765  10.124  10.076  -2.147 -0.0900 -0.6103  0.1863
  273MOL0     C36766  10.069   9.822  -0.922  0.4454 -0.4164  0.1168
  273MOL0     C36767  10.096   9.778  -0.790 -0.1019 -0.3620  0.0746
  273MOL0     O36768   9.924   9.587  -0.608 -0.1090  0.5673  0.3069
  273MOL0     C36769  10.195   9.442  -0.414 -0.4515  0.6112 -0.0125
  273MOL0     C36770  10.215   9.360  -0.302  0.1693  0.4598 -0.1752
  273MOL0     N36771  10.161   8.869   0.068 -0.5950 -0.7416 -0.7810
  273MOL0     N36772  10.059   8.849   0.147  0.3403 -0.6412  1.2274
  273MOL0     C36773   9.292   9.371   0.312 -1.0598  0.0778 -0.8129
  273MOL0     C36774   9.219   9.335   0.203  0.5665 -0.8052  1.2126
  273MOL0     C36775   8.902   9.095  -0.053 -0.4626 -1.1394  0.5519
  273MOL0     C36776   8.837   9.221  -0.090  0.3781 -0.0637 -0.1436
  273MOL0     C36777   8.705   9.224  -0.146  0.6732 -0.4825  1.2865
  273MOL0     C36778   8.635   9.107  -0.159 -0.5619  0.6087 -1.2980
  273MOL0     O36779   8.503   9.113  -0.187  0.5478  0.6778  0.4574
  273MOL0     C36780   8.442   9.040  -0.297  0.3667  0.9158 -0.1317
  273MOL0     C36781   8.363   8.909  -0.259  0.4820  0.0821  0.6583
  273MOL0     C36782   8.217   8.944  -0.213 -0.0592 -0.7145 -0.4795
  273MOL0     C36783   8.134   8.820  -0.199  0.1616  0.4368 -0.9327
  273MOL0     C36784   8.127   8.735  -0.309 -0.3253 -0.0738  0.2406
  273MOL0     C36785   8.124   8.661  -0.404  0.1719 -0.2607  0.9110
  273MOL0     C36786   8.693   8.986  -0.123 -0.5916  0.0228  0.1128
  273MOL0     C36787   8.829   8.974  -0.076  1.0668  0.2201  0.3641
  273MOL0     H36788   9.103   9.044   0.309  0.3071 -0.2531 -0.6245
  273MOL0     H36789   9.230   9.097   0.496  1.4009 -1.2813 -0.5590
  273MOL0     H36790   9.533   9.443   0.513 -4.9107  2.7243 -0.3882
  273MOL0     H36791   9.538   9.320   0.652 -0.3088 -3.6952 -0.1006
  273MOL0     H36792   9.543   9.130   0.513 -0.5007 -0.3801  0.1203
  273MOL0     H36793   9.535   9.237   0.376 -0.5484  1.8345  0.6059
  273MOL0     H36794   9.771   9.336   0.461 -0.4014  0.2711  3.5886
  273MOL0     H36795   9.760   9.216   0.572 -3.3028 -4.0963  0.0344
  273MOL0     H36796   9.755   9.035   0.395 -2.0346  1.0571 -0.6600
  273MOL0     H36797   9.720   9.164   0.274 -2.3172  2.9537  2.9474
  273MOL0     H36798   9.943   9.102   0.245 -0.0386  1.7199 -0.6743
  273MOL0     H36799   9.945   9.263   0.321  2.1884  0.2685  0.9353
  273MOL0     H36800  10.129   9.131   0.403 -0.2742 -0.7912  0.6190
  273MOL0     H36801  10.015   9.184   0.535 -0.0363  0.3155 -0.4804
  273MOL0     H36802  10.091   8.947   0.570 -3.3511  0.5282  2.5093
  273MOL0     H36803   9.920   8.978   0.546  1.0645 -0.4774  3.3824
  273MOL0     H36804   9.903   8.879   0.346  0.8861  0.4409 -1.6175
  273MOL0     H36805  10.027   8.780   0.429 -0.0880 -0.4707 -0.7617
  273MOL0     H36806  10.267   8.986   0.357  2.1973 -1.1727  1.3239
  273MOL0     H36807  10.461   8.916   0.116 -0.4792 -0.6714 -0.5990
  273MOL0     H36808  10.386   8.983  -0.026 -0.7577 -0.3734 -0.9677
  273MOL0     H36809  10.479   9.171   0.058 -0.2118  1.4717  1.9719
  273MOL0     H36810  10.436   9.146   0.216  1.2058 -0.8436  0.0068
  273MOL0     H36811  10.264   9.280   0.170  1.5353  0.2038 -0.2755
  273MOL0     H36812  10.176   9.153   0.091 -2.0685  3.5031  3.5580
  273MOL0     H36813  10.290   9.180  -0.116 -0.0396  0.7886 -1.9747
  273MOL0     H36814  10.338   9.346  -0.050 -2.6794  2.0262 -0.0891
  273MOL0     H36815   9.947   9.458  -0.130  1.5748 -3.0301  2.3262
  273MOL0     H36816   9.815   9.597  -0.230 -0.5337 -1.1665  0.4884
  273MOL0     H36817   9.857   9.670  -0.386 -1.6542  1.0332  2.1360
  273MOL0     H36818   9.770   9.524  -0.385 -1.0743 -0.7991  2.3123
  273MOL0     H36819  10.199   9.466  -0.872  3.3921  0.4166 -2.0543
  273MOL0     H36820  10.219   9.564  -1.092 -0.0412 -1.3343  0.6555
  273MOL0     H36821  10.246   9.721  -1.278  0.5044 -0.1104 -1.6188
  273MOL0     H36822  10.065   9.725  -1.316  1.4912 -1.6427  0.3831
  273MOL0     H36823  10.220   9.982  -1.316 -7.3050  3.2130  0.4696
  273MOL0     H36824  10.252   9.877  -1.455  1.6585 -0.7274  0.6572
  273MOL0     H36825   9.999  10.001  -1.329  2.1305  0.6756  0.2727
  273MOL0     H36826   9.978   9.888  -1.463 -1.6888  2.6746 -0.0077
  273MOL0     H36827   9.971  10.129  -1.509 -0.8650 -1.6563 -0.5532
  273MOL0     H36828  10.134  10.149  -1.455  2.4489 -2.2908  0.1064
  273MOL0     H36829  10.072   9.933  -1.651 -1.5648  0.3592  0.7860
  273MOL0     H36830  10.226  10.029  -1.635  0.3341  3.7796 -2.6923
  273MOL0     H36831   9.961  10.126  -1.754 -0.0893  2.1199 -1.3666
  273MOL0     H36832  10.126  10.213  -1.745  1.2218 -1.2028  2.8120
  273MOL0     H36833  10.054   9.955  -1.882  3.6189 -3.2883  2.2138
  273MOL0     H36834  10.222  10.033  -1.886 -0.1342 -1.2316  0.6293
  273MOL0     H36835  10.121  10.232  -1.988  1.9848 -0.8350 -2.2515
  273MOL0     H36836   9.963  10.154  -2.007 -0.0857  1.6971  1.4448
  273MOL0     H36837  10.030   9.923  -0.932 -2.8971 -1.1546  3.5483
  273MOL0     H36838  10.079   9.848  -0.709  1.7793  1.2566 -0.8403
  273MOL0     H36839  10.280   9.444  -0.482 -1.2281  1.9917 -1.0032
  273MOL0     H36840  10.306   9.300  -0.296 -0.7592 -0.9889 -0.1499
  273MOL0     H36841   9.338   9.469   0.317  0.2312 -0.5289 -0.4368
  273MOL0     H36842   9.218   9.410   0.125  0.6977 -1.4764  0.5518
  273MOL0     H36843   8.880   9.318  -0.070 -2.5017  0.3645  6.7989
  273MOL0     H36844   8.662   9.315  -0.188  1.4757 -1.6677 -2.4475
  273MOL0     H36845   8.381   9.115  -0.349 -1.8813  0.2150  1.3447
  273MOL0     H36846   8.522   9.002  -0.361 -0.5170  2.2836 -2.1426
  273MOL0     H36847   8.407   8.852  -0.176 -2.6456 -1.1764  1.5813
  273MOL0     H36848   8.344   8.851  -0.350 -2.8934  1.5982  0.2317
  273MOL0     H36849   8.177   9.009  -0.291  1.2081 -0.5772 -1.0326
  273MOL0     H36850   8.219   8.987  -0.112  1.7586 -0.5267 -0.5557
  273MOL0     H36851   8.034   8.852  -0.167  0.5206  3.3507 -2.3683
  273MOL0     H36852   8.173   8.747  -0.127 -1.9992 -1.4120 -1.4923
  273MOL0     H36853   8.118   8.589  -0.484  2.3192 -0.2179  0.6691
  273MOL0     H36854   8.621   8.906  -0.138 -2.4654  2.0007 -2.4933
  273MOL0     H36855   8.870   8.878  -0.046  2.2362  0.5894  0.0287
  274MOL0     O36856   3.237   4.578   9.033  0.2983 -0.1432 -0.1605
  274MOL0     C36857   3.135   4.533   9.098 -0.0062  0.3116 -0.3394
  274MOL0     O36858   3.004   4.583   9.090 -0.1343 -0.2615 -0.1951
  274MOL0     C36859   2.973   4.681   8.994 -0.7955  0.5365  0.2106
  274MOL0     C36860   2.999   4.667   8.857 -0.3661  0.4213 -0.1223
  274MOL0     C36861   2.956   4.752   8.766  0.5021 -1.3428  0.0918
  274MOL0     C36862   2.889   4.867   8.806 -0.1874 -0.9434  0.8688
  274MOL0     O36863   2.852   4.947   8.705 -0.3104 -0.5412 -1.0098
  274MOL0     C36864   2.741   5.040   8.718  0.2275  0.7264 -1.4683
  274MOL0     C36865   2.607   4.960   8.706  0.9631 -0.6371  0.2300
  274MOL0     C36866   2.579   4.927   8.551  0.3203  0.3443 -0.1537
  274MOL0     C36867   2.437   4.888   8.528 -0.3835  0.7216  0.5078
  274MOL0     C36868   2.393   4.938   8.377  0.1958 -1.0288 -0.7087
  274MOL0     C36869   2.243   4.919   8.332 -0.2644 -0.0992  0.0850
  274MOL0     C36870   2.201   4.976   8.202  0.5014 -0.5165 -0.0986
  274MOL0     C36871   2.163   5.131   8.216 -0.1220  0.5143 -0.0900
  274MOL0     N36872   2.080   5.169   8.101  0.2617 -0.9531  0.0391
  274MOL0     C36873   1.943   5.151   8.099 -0.0231 -0.3903  0.0459
  274MOL0     C36874   1.902   5.226   7.992  1.3071  0.8322 -0.1239
  274MOL0     C36875   1.755   5.266   7.971 -0.3900  0.0579  0.9078
  274MOL0     C36876   1.663   5.147   7.926  0.0169  0.3383  0.5678
  274MOL0     C36877   1.517   5.150   7.966  0.5066  0.1791  0.3183
  274MOL0     C36878   1.450   5.279   7.916  0.0438 -0.2482 -0.5440
  274MOL0     O36879   1.304   5.258   7.912  0.7944  0.0346  0.5132
  274MOL0     C36880   1.211   5.353   7.916 -0.4509  0.0226  0.4955
  274MOL0     C36881   1.082   5.325   7.873 -0.1982  0.2205  0.3273
  274MOL0     C36882   0.978   5.415   7.868  0.0294 -0.8898 -0.3559
  274MOL0     C36883   0.847   5.373   7.808  0.1292  0.1882 -0.2347
  274MOL0     C36884   1.007   5.545   7.931  0.2906 -1.2144  0.2231
  274MOL0     C36885   0.902   5.650   7.954 -0.5720 -0.1046  0.3768
  274MOL0     O36886   0.937   5.754   8.028 -0.2152  0.3726  0.5317
  274MOL0     C36887   0.862   5.870   8.022  0.6862  0.1078 -0.1112
  274MOL0     C36888   0.738   5.881   8.087  0.8105  0.3567 -1.1018
  274MOL0     C36889   0.666   6.011   8.093 -0.0008  0.2532 -0.0818
  274MOL0     C36890   0.716   6.123   8.025  0.6414  0.1296  0.4289
  274MOL0     O36891   0.662   6.248   8.032  0.0311 -0.3749  0.3958
  274MOL0     C36892   0.590   6.267   7.910 -1.0868 -0.6475  0.2137
  274MOL0     C36893   0.493   6.388   7.924 -0.5207  0.7736  0.3097
  274MOL0     C36894   0.567   6.513   7.970 -0.5146  0.3272  0.3143
  274MOL0     C36895   0.457   6.623   7.968  0.3330  0.8758 -0.1595
  274MOL0     C36896   0.500   6.754   8.031  1.3066 -0.3127  0.8784
  274MOL0     C36897   0.494   6.748   8.179  0.7628  0.3802  0.0602
  274MOL0     C36898   0.481   6.891   8.241  0.5744 -0.6047  0.2982
  274MOL0     C36899   0.471   6.884   8.392  0.1467  0.1165 -0.5068
  274MOL0    Cl36900   0.641   6.857   8.460 -0.0031  0.4092  0.4080
  274MOL0     C36901   0.844   6.112   7.966  1.0453 -0.0740 -0.1724
  274MOL0     C36902   0.911   5.989   7.963 -1.6609  0.3306  0.1373
  274MOL0     O36903   0.793   5.626   7.914 -0.0790  0.2481 -0.0600
  274MOL0     C36904   1.137   5.573   7.979 -0.7687 -0.1760  0.0193
  274MOL0     C36905   1.239   5.487   7.957  0.8106 -0.7110 -0.3697
  274MOL0     N36906   2.008   5.279   7.931  0.1555  0.5905  0.3320
  274MOL0     N36907   2.113   5.244   7.988 -0.0322  0.1210 -0.2808
  274MOL0     C36908   2.875   4.893   8.941 -0.3171  0.4060 -0.2532
  274MOL0     C36909   2.916   4.800   9.042 -0.0095 -0.3492  0.3189
  274MOL0     C36910   3.150   4.417   9.199 -0.5542 -0.4446  0.1341
  274MOL0     C36911   3.276   4.401   9.262 -0.3500  0.4766 -0.7613
  274MOL0     C36912   3.290   4.304   9.362  0.7275  0.7947  0.2349
  274MOL0     C36913   3.182   4.209   9.387  0.0577 -0.4096  0.5138
  274MOL0     O36914   3.191   4.097   9.468 -0.0689 -0.0073 -0.0094
  274MOL0     C36915   3.297   4.085   9.565 -0.1332 -0.1260  0.1976
  274MOL0     C36916   3.300   3.962   9.650 -0.3508  0.1107 -0.3050
  274MOL0     C36917   3.192   3.960   9.755 -0.7261  0.7314 -0.2454
  274MOL0     C36918   3.197   3.842   9.846  0.1476  0.2929 -0.5014
  274MOL0     C36919   3.308   3.839   9.945  0.0463  0.0867  0.0902
  274MOL0     C36920   3.413   3.816  10.004 -0.2263  0.1747  0.7301
  274MOL0     C36921   3.062   4.233   9.322  0.4842 -0.7753 -0.5990
  274MOL0     C36922   3.040   4.332   9.227  0.4677 -0.7484 -0.5147
  274MOL0     H36923   3.059   4.583   8.823  0.4348  1.1870 -0.6131
  274MOL0     H36924   2.969   4.743   8.659  1.3100  3.4254 -0.4016
  274MOL0     H36925   2.755   5.088   8.815  2.4369 -1.7506 -0.4370
  274MOL0     H36926   2.736   5.118   8.642 -3.6680  2.3366  0.1976
  274MOL0     H36927   2.623   4.878   8.777  2.6818  1.9731  3.1379
  274MOL0     H36928   2.529   5.023   8.750 -0.9286  0.4826 -4.2156
  274MOL0     H36929   2.603   5.022   8.503 -1.1193  1.6569  1.5807
  274MOL0     H36930   2.646   4.851   8.510 -0.2945  0.1850 -0.8838
  274MOL0     H36931   2.432   4.779   8.537  0.1560  0.3481 -2.5987
  274MOL0     H36932   2.386   4.946   8.605  2.2521  2.9353  0.7475
  274MOL0     H36933   2.411   5.045   8.382  0.1012 -1.0689  2.0820
  274MOL0     H36934   2.451   4.885   8.301  0.1101 -0.5410 -1.1105
  274MOL0     H36935   2.231   4.810   8.332  0.9733 -0.2498 -0.0553
  274MOL0     H36936   2.184   4.961   8.414 -0.5822 -1.7199  0.7324
  274MOL0     H36937   2.276   4.966   8.123  1.1995  2.5058  0.0498
  274MOL0     H36938   2.105   4.927   8.185 -0.7044  2.3985 -2.4204
  274MOL0     H36939   2.247   5.201   8.219  0.0736  0.4040 -1.9471
  274MOL0     H36940   2.098   5.143   8.303 -0.0865 -0.9754  0.1702
  274MOL0     H36941   1.877   5.097   8.165 -1.7668  1.7860  0.1948
  274MOL0     H36942   1.722   5.304   8.068 -3.6554  2.2500 -0.8801
  274MOL0     H36943   1.756   5.341   7.892  0.9373 -2.4110 -1.6326
  274MOL0     H36944   1.697   5.053   7.971 -2.1744  0.1282  1.9329
  274MOL0     H36945   1.676   5.133   7.818  1.0565  3.3353  0.2333
  274MOL0     H36946   1.508   5.144   8.075  2.8383 -0.1981  0.5308
  274MOL0     H36947   1.476   5.065   7.912  1.4882  1.1586 -2.1215
  274MOL0     H36948   1.473   5.308   7.813  0.3306  1.5034 -0.0207
  274MOL0     H36949   1.476   5.363   7.981 -1.9456  0.5584 -0.7137
  274MOL0     H36950   1.075   5.223   7.838 -2.2477  0.3272  0.3363
  274MOL0     H36951   0.832   5.455   7.737  2.1762  3.4310  2.7534
  274MOL0     H36952   0.836   5.270   7.773 -0.1880  0.1712 -0.0911
  274MOL0     H36953   0.759   5.386   7.871  1.2501  1.0500  1.1886
  274MOL0     H36954   0.690   5.795   8.132  0.3542  1.0778 -0.1770
  274MOL0     H36955   0.566   6.025   8.133 -0.1606 -1.0883  0.0645
  274MOL0     H36956   0.659   6.276   7.826 -1.2417  2.1981  0.2822
  274MOL0     H36957   0.521   6.184   7.893  2.2627 -3.6152 -0.1608
  274MOL0     H36958   0.438   6.406   7.832 -2.3174 -3.1522  0.4167
  274MOL0     H36959   0.413   6.354   7.991  0.6872 -0.1977  1.3115
  274MOL0     H36960   0.652   6.535   7.905  0.2746 -0.9194  0.8989
  274MOL0     H36961   0.608   6.492   8.069  4.1529  2.7223 -0.8561
  274MOL0     H36962   0.425   6.643   7.865  0.2247  1.3419 -0.0359
  274MOL0     H36963   0.366   6.580   8.012  3.1516 -4.1105  1.5358
  274MOL0     H36964   0.433   6.834   7.997  3.4635  2.0934  1.9402
  274MOL0     H36965   0.598   6.784   7.993  0.5779 -1.7696 -2.6061
  274MOL0     H36966   0.404   6.694   8.210  0.8254 -0.0493 -0.4806
  274MOL0     H36967   0.580   6.693   8.219 -0.8213 -1.5619  1.0149
  274MOL0     H36968   0.401   6.944   8.189  2.4042  0.2649 -1.8246
  274MOL0     H36969   0.573   6.946   8.217  0.3252  0.6027  1.9815
  274MOL0     H36970   0.407   6.804   8.430  1.1733 -0.9474 -0.9502
  274MOL0     H36971   0.434   6.975   8.440  1.1026  1.0248 -1.4455
  274MOL0     H36972   0.905   6.192   7.927  5.5232 -3.5466 -1.0828
  274MOL0     H36973   1.015   5.986   7.935 -1.7546  2.3041 -0.5847
  274MOL0     H36974   1.158   5.674   8.013 -2.5860  1.3367 -2.9654
  274MOL0     H36975   1.335   5.510   8.003 -0.3947  3.4542  0.4695
  274MOL0     H36976   2.818   4.984   8.959  1.7790  1.9514 -1.0249
  274MOL0     H36977   2.890   4.805   9.147 -0.4193  0.1335  0.1954
  274MOL0     H36978   3.361   4.467   9.247 -1.6011  1.8379 -2.3426
  274MOL0     H36979   3.377   4.304   9.426  0.7567  3.6475  0.3375
  274MOL0     H36980   3.391   4.078   9.510 -1.6695  1.5317 -2.8831
  274MOL0     H36981   3.310   4.170   9.633 -2.0189  0.7907 -0.5124
  274MOL0     H36982   3.398   3.953   9.697  0.7621 -0.1445 -2.5265
  274MOL0     H36983   3.294   3.882   9.576 -0.4640  0.2449 -0.4420
  274MOL0     H36984   3.094   3.975   9.710 -1.2930 -0.9752  0.3448
  274MOL0     H36985   3.217   4.047   9.817 -1.1438  0.3071  0.5292
  274MOL0     H36986   3.208   3.752   9.784  2.1807 -0.2012  0.4988
  274MOL0     H36987   3.105   3.826   9.902 -1.0495 -0.7681 -2.6542
  274MOL0     H36988   3.490   3.790  10.074  1.7011  0.5432 -1.1437
  274MOL0     H36989   2.973   4.177   9.350  0.7416 -0.6343  0.5391
  274MOL0     H36990   2.939   4.355   9.195 -0.0898  0.8040  2.0490
  275MOL0     O36991  10.846   6.509   5.779  0.0890  0.0319  0.2695
  275MOL0     C36992  10.821   6.475   5.659 -0.1835  0.4433 -0.3422
  275MOL0     O36993  10.785   6.568   5.555 -0.4028  1.0412 -1.0918
  275MOL0     C36994  10.795   6.698   5.596  0.2852  0.5970  0.4666
  275MOL0     C36995  10.679   6.753   5.649  0.1885  0.2151  0.1221
  275MOL0     C36996  10.672   6.888   5.671  0.9778  0.3246  0.4643
  275MOL0     C36997  10.783   6.968   5.661  0.1040  0.1623  0.3215
  275MOL0     O36998  10.790   7.090   5.721 -0.5315  0.0286  0.3090
  275MOL0     C36999  10.720   7.105   5.849 -0.2965 -0.7112  0.6449
  275MOL0     C37000  10.758   7.006   5.957  0.6174  0.8873 -0.8109
  275MOL0     C37001  10.910   6.978   5.967  1.3451 -0.6090 -1.4473
  275MOL0     C37002  10.976   7.083   6.048 -0.6170 -0.1228 -0.2438
  275MOL0     C37003  11.111   7.120   5.997 -0.4002 -0.5289 -0.3405
  275MOL0     C37004  11.110   7.226   5.888 -0.3401 -0.2193  0.9324
  275MOL0     C37005  11.250   7.290   5.880  0.1596  0.3576 -0.0321
  275MOL0     C37006  11.364   7.192   5.880 -0.2517  0.2848  0.1652
  275MOL0     N37007  11.481   7.279   5.870 -0.0285  0.4558 -0.8797
  275MOL0     C37008  11.555   7.321   5.978 -0.1151 -0.1876 -0.6578
  275MOL0     C37009  11.658   7.397   5.922  0.1101  0.4735 -0.0555
  275MOL0     C37010  11.763   7.480   6.004  0.1766 -0.1475 -0.7092
  275MOL0     C37011  11.887   7.406   6.047 -0.3187 -0.3037 -0.9112
  275MOL0     C37012  11.870   7.280   6.142 -0.6831  0.1636 -0.6167
  275MOL0     C37013  11.818   7.316   6.288 -0.5538 -0.5132 -0.4186
  275MOL0     O37014  11.844   7.208   6.384  0.1191 -0.3513 -0.4374
  275MOL0     C37015  11.790   7.192   6.506 -0.7446 -0.2306 -0.4300
  275MOL0     C37016  11.848   7.110   6.606  1.2054 -0.0995  0.0725
  275MOL0     C37017  11.797   7.101   6.737  0.4148 -0.0708 -0.5920
  275MOL0     C37018  11.882   7.017   6.837  0.4961  0.6431 -0.1897
  275MOL0     C37019  11.679   7.172   6.769 -0.7349 -0.3496  0.4916
  275MOL0     C37020  11.615   7.159   6.912 -0.8736 -0.5090 -0.8170
  275MOL0     O37021  11.690   7.121   7.031 -0.0559  0.3624 -0.1679
  275MOL0     C37022  11.630   7.095   7.153 -0.5532  0.2899  0.6929
  275MOL0     C37023  11.685   7.136   7.278 -1.3763  0.0961  0.4325
  275MOL0     C37024  11.615   7.105   7.402 -0.6128  0.2676  0.4689
  275MOL0     C37025  11.492   7.034   7.402 -0.1653 -0.6250  0.2099
  275MOL0     O37026  11.436   7.018   7.523  0.0621  0.3450 -0.6017
  275MOL0     C37027  11.303   6.986   7.538  0.5631 -0.0554 -1.2673
  275MOL0     C37028  11.223   7.110   7.571 -0.3213  0.3568 -0.2165
  275MOL0     C37029  11.253   7.170   7.704 -0.8591  0.9557 -0.4077
  275MOL0     C37030  11.215   7.314   7.717  0.3328  1.1811 -0.1284
  275MOL0     C37031  11.074   7.349   7.677  0.1146 -0.5321  0.6183
  275MOL0     C37032  11.036   7.485   7.737  0.0304 -0.1686  0.0333
  275MOL0     C37033  10.941   7.552   7.635  0.7136  0.6787  0.6615
  275MOL0     C37034  10.891   7.692   7.682 -0.1814 -0.0728  0.3323
  275MOL0    Cl37035  10.785   7.659   7.826  0.2487  0.0550  0.1049
  275MOL0     C37036  11.435   7.009   7.274 -0.5270  0.7589  0.1130
  275MOL0     C37037  11.506   7.040   7.152  0.0196  0.9012 -0.4969
  275MOL0     O37038  11.504   7.203   6.919  0.7271  0.1282 -0.1388
  275MOL0     C37039  11.604   7.227   6.664  1.0379 -0.4181 -0.2922
  275MOL0     C37040  11.663   7.250   6.539 -1.3522  0.6626  0.0671
  275MOL0     N37041  11.653   7.382   5.787  0.6813  0.2334 -0.1935
  275MOL0     N37042  11.544   7.314   5.762 -0.2182 -0.1394 -0.3396
  275MOL0     C37043  10.895   6.906   5.604  0.1737 -0.5615  0.3549
  275MOL0     C37044  10.900   6.772   5.562 -0.0397  0.4751 -1.2046
  275MOL0     C37045  10.805   6.326   5.622 -0.8039 -0.2995 -0.2623
  275MOL0     C37046  10.733   6.286   5.511 -0.5582 -0.4283  0.0598
  275MOL0     C37047  10.712   6.152   5.492  0.3926 -0.5382 -0.1623
  275MOL0     C37048  10.763   6.057   5.573 -0.5017 -0.3262 -0.1149
  275MOL0     O37049  10.728   5.930   5.573  0.2637  0.4720  0.6883
  275MOL0     C37050  10.836   5.842   5.548  0.6772  0.7219  0.1611
  275MOL0     C37051  10.883   5.870   5.405 -0.8392  0.3062 -0.7881
  275MOL0     C37052  10.974   5.753   5.340  0.4439 -0.0700  0.2747
  275MOL0     C37053  10.966   5.755   5.179  0.2216  0.2411  0.0348
  275MOL0     C37054  11.057   5.855   5.129 -0.4095  0.4507 -0.2973
  275MOL0     C37055  11.152   5.911   5.087  0.0142  0.8923  0.1933
  275MOL0     C37056  10.831   6.099   5.689 -0.0681 -0.0623  0.8632
  275MOL0     C37057  10.868   6.229   5.711  0.0672 -0.4022 -0.1694
  275MOL0     H37058  10.588   6.701   5.678  1.1184  1.2346  5.9994
  275MOL0     H37059  10.578   6.936   5.697  1.3486  1.1263  0.3497
  275MOL0     H37060  10.744   7.206   5.884 -1.3212 -0.0944 -0.3976
  275MOL0     H37061  10.612   7.089   5.838 -0.2996  0.9769 -2.9609
  275MOL0     H37062  10.721   7.043   6.053  1.3297  0.4192 -0.3569
  275MOL0     H37063  10.705   6.913   5.936  0.7074  1.1697 -2.4872
  275MOL0     H37064  10.934   6.880   6.011  1.7838  0.5000  0.9914
  275MOL0     H37065  10.957   6.974   5.869  1.4545 -3.2828 -1.3649
  275MOL0     H37066  10.915   7.173   6.060 -0.2933  0.0520  0.1110
  275MOL0     H37067  10.995   7.043   6.148 -1.5064 -2.7500 -1.0535
  275MOL0     H37068  11.160   7.164   6.084  1.3948  0.8643 -1.9726
  275MOL0     H37069  11.165   7.032   5.961  4.3331  1.7784  0.3860
  275MOL0     H37070  11.075   7.174   5.798 -4.1954 -2.9892  3.6889
  275MOL0     H37071  11.033   7.300   5.909  0.1236 -0.3764  3.4777
  275MOL0     H37072  11.261   7.357   5.794  0.3734 -0.3320 -0.5536
  275MOL0     H37073  11.267   7.345   5.974 -2.3906 -0.3373  0.9182
  275MOL0     H37074  11.360   7.139   5.784 -0.4098 -1.1739  0.9630
  275MOL0     H37075  11.375   7.116   5.957  0.4149 -1.1149 -1.2368
  275MOL0     H37076  11.541   7.314   6.085  0.5710  1.0660 -0.4663
  275MOL0     H37077  11.781   7.564   5.936 -5.3206  1.7806 -0.2441
  275MOL0     H37078  11.714   7.520   6.093 -1.6796  2.0679 -2.5546
  275MOL0     H37079  11.949   7.474   6.105  1.3023 -1.8700 -0.7059
  275MOL0     H37080  11.942   7.384   5.955 -2.0953 -0.1226 -2.0825
  275MOL0     H37081  11.967   7.233   6.161 -0.0347  1.7709  0.2123
  275MOL0     H37082  11.810   7.210   6.084  0.8624 -2.1279  0.4149
  275MOL0     H37083  11.711   7.338   6.276 -0.2213  0.1297 -2.7490
  275MOL0     H37084  11.856   7.417   6.307 -1.2200  0.3948 -3.3231
  275MOL0     H37085  11.937   7.050   6.589  0.3232 -1.6750  0.7662
  275MOL0     H37086  11.940   6.935   6.794 -1.8752 -2.5123  2.1816
  275MOL0     H37087  11.937   7.092   6.896 -0.8286  1.3695  0.1487
  275MOL0     H37088  11.819   6.960   6.906  0.5114  1.3353  0.4174
  275MOL0     H37089  11.782   7.185   7.273 -1.8599  1.0036 -3.7508
  275MOL0     H37090  11.663   7.142   7.492  1.1485  0.1670 -0.3897
  275MOL0     H37091  11.264   6.923   7.458  3.4036  0.7613 -3.4418
  275MOL0     H37092  11.293   6.925   7.628  1.0739 -2.2023 -2.5994
  275MOL0     H37093  11.242   7.189   7.497  2.2127 -0.5447 -0.6400
  275MOL0     H37094  11.116   7.090   7.563 -0.7057  1.1936  2.1930
  275MOL0     H37095  11.358   7.153   7.731 -0.9460 -1.4508 -1.3082
  275MOL0     H37096  11.186   7.122   7.775 -2.4202 -0.5742 -2.7511
  275MOL0     H37097  11.232   7.341   7.821  1.0679 -2.2491  0.7495
  275MOL0     H37098  11.278   7.383   7.660  2.7766 -0.4018  0.4786
  275MOL0     H37099  11.001   7.277   7.714  0.7689 -1.6667 -0.2153
  275MOL0     H37100  11.070   7.343   7.567 -1.2377  0.1844  0.6129
  275MOL0     H37101  10.992   7.481   7.837  0.5959 -0.3423  0.2803
  275MOL0     H37102  11.131   7.539   7.739 -0.3318  0.5195 -0.9888
  275MOL0     H37103  10.863   7.482   7.608  2.0851 -0.6650  0.0483
  275MOL0     H37104  10.990   7.558   7.538 -0.3318  0.5870  0.1216
  275MOL0     H37105  10.830   7.734   7.602 -2.6306  1.6811  2.9604
  275MOL0     H37106  10.975   7.757   7.710  1.0020 -1.5819  0.4180
  275MOL0     H37107  11.336   6.964   7.266 -0.1869 -0.1564  0.8216
  275MOL0     H37108  11.451   7.014   7.062  0.7362 -2.2047 -0.1319
  275MOL0     H37109  11.501   7.262   6.674 -1.1086 -5.2130 -2.3849
  275MOL0     H37110  11.607   7.295   6.458 -1.0753 -2.4520 -2.0134
  275MOL0     H37111  10.989   6.958   5.590 -1.2192  2.0434  0.1648
  275MOL0     H37112  10.994   6.731   5.526 -0.6695  0.0152 -2.3876
  275MOL0     H37113  10.688   6.370   5.459 -1.7601 -1.1294 -0.0819
  275MOL0     H37114  10.652   6.130   5.405 -1.5202  3.7355 -0.2126
  275MOL0     H37115  10.920   5.859   5.617 -0.5823  4.4688  1.0264
  275MOL0     H37116  10.803   5.739   5.561 -1.1895  1.2375 -0.1909
  275MOL0     H37117  10.934   5.967   5.407 -1.3872  0.5850  0.3565
  275MOL0     H37118  10.796   5.895   5.343 -1.7338  0.1110  0.3580
  275MOL0     H37119  10.918   5.661   5.358  1.5236 -0.2267  3.3870
  275MOL0     H37120  11.077   5.752   5.376  0.1595 -2.9144  1.2393
  275MOL0     H37121  10.860   5.766   5.155 -0.0206 -2.6716 -0.6502
  275MOL0     H37122  11.001   5.659   5.139 -0.0954 -0.5750  1.6215
  275MOL0     H37123  11.236   5.968   5.051  1.1348 -0.2306  0.9452
  275MOL0     H37124  10.848   6.031   5.772 -2.4296 -1.3443  0.3785
  275MOL0     H37125  10.915   6.256   5.805 -0.1050 -0.3574 -0.0955
  276MOL0     O37126  10.230  10.660   0.373  0.0727 -1.0187  0.1689
  276MOL0     C37127  10.252  10.695   0.487 -0.6021  0.0283 -0.6619
  276MOL0     O37128  10.162  10.758   0.574  0.2645  1.0992  0.3740
  276MOL0     C37129  10.035  10.792   0.540  0.2339 -0.2939 -0.4548
  276MOL0     C37130   9.974  10.779   0.414 -0.4207 -0.6314  0.6182
  276MOL0     C37131   9.838  10.817   0.399  1.1224 -0.1651 -0.6240
  276MOL0     C37132   9.770  10.863   0.508 -0.0080 -0.4384  0.4434
  276MOL0     O37133   9.639  10.906   0.509  0.7174  0.5386  0.4876
  276MOL0     C37134   9.593  10.964   0.385 -0.9215 -0.5051 -1.0054
  276MOL0     C37135   9.468  11.042   0.417  0.8656 -0.0587 -0.3731
  276MOL0     C37136   9.430  11.143   0.299  1.0010  0.3741  0.1007
  276MOL0     C37137   9.349  11.077   0.195 -0.6111 -1.1948 -0.6797
  276MOL0     C37138   9.268  11.175   0.104  0.7556 -0.8106 -0.1177
  276MOL0     C37139   9.367  11.259   0.020  0.2482 -0.6974  0.0633
  276MOL0     C37140   9.293  11.335  -0.081 -0.4370 -1.2969 -0.0687
  276MOL0     C37141   9.358  11.477  -0.084  0.1980  0.3415 -0.3426
  276MOL0     N37142   9.307  11.543  -0.205 -0.1127 -0.4551  0.0366
  276MOL0     C37143   9.189  11.614  -0.212 -0.3906  0.2300 -0.0354
  276MOL0     C37144   9.192  11.673  -0.338  0.1323 -0.0516 -0.4001
  276MOL0     C37145   9.079  11.745  -0.395 -0.3713 -0.2561  0.2966
  276MOL0     C37146   9.095  11.758  -0.548 -0.2188  0.1145  0.3564
  276MOL0     C37147   9.078  11.635  -0.635  0.0007 -0.8832  0.0358
  276MOL0     C37148   9.156  11.656  -0.768  0.4083 -0.4259  0.5294
  276MOL0     O37149   9.076  11.604  -0.876 -0.3089 -0.2663  1.4125
  276MOL0     C37150   8.977  11.695  -0.927 -0.2830 -0.4934 -0.1250
  276MOL0     C37151   8.878  11.637  -1.006 -0.0346 -0.8812 -0.1178
  276MOL0     C37152   8.767  11.705  -1.049  0.9319 -0.4167  0.0057
  276MOL0     C37153   8.660  11.631  -1.127  0.1173 -0.8672  0.7800
  276MOL0     C37154   8.762  11.848  -1.039  0.7222  0.4583 -0.2221
  276MOL0     C37155   8.657  11.932  -1.088 -0.1460  0.1104 -0.1737
  276MOL0     O37156   8.702  12.032  -1.165 -0.0405  0.1730  0.9902
  276MOL0     C37157   8.608  12.108  -1.223 -0.1225 -0.4569  0.9060
  276MOL0     C37158   8.564  12.080  -1.353 -0.1446 -0.2211  0.6672
  276MOL0     C37159   8.488  12.176  -1.427 -0.5864  0.3491  0.5862
  276MOL0     C37160   8.479  12.300  -1.380 -0.1235 -0.6439 -0.1985
  276MOL0     O37161   8.449  12.398  -1.473 -0.4522  0.0217 -0.0888
  276MOL0     C37162   8.539  12.513  -1.488 -0.4206 -0.5503 -0.1790
  276MOL0     C37163   8.637  12.507  -1.607  0.0827 -0.8922 -0.5169
  276MOL0     C37164   8.730  12.395  -1.584  1.0628  1.5061 -0.7543
  276MOL0     C37165   8.828  12.389  -1.698 -1.0434  0.2046 -0.8482
  276MOL0     C37166   8.928  12.268  -1.661  0.5269 -0.1780  0.8799
  276MOL0     C37167   8.942  12.195  -1.796 -0.9269  0.1261 -0.4224
  276MOL0     C37168   9.069  12.123  -1.801 -0.4740 -0.2721 -0.7624
  276MOL0     C37169   9.117  12.074  -1.936  0.5524  0.7092 -0.5904
  276MOL0    Cl37170   9.286  12.009  -1.935 -0.4198 -0.3204 -0.1298
  276MOL0     C37171   8.530  12.336  -1.252 -0.3660  0.5080 -0.2616
  276MOL0     C37172   8.588  12.234  -1.178  0.5278 -0.3608  0.0383
  276MOL0     O37173   8.537  11.895  -1.072 -0.5602  0.2231  0.5272
  276MOL0     C37174   8.863  11.904  -0.964  0.5548  0.4087 -0.0728
  276MOL0     C37175   8.962  11.831  -0.899  0.6410 -1.3279  0.1734
  276MOL0     N37176   9.309  11.642  -0.402 -0.1380  0.2998  1.0276
  276MOL0     N37177   9.373  11.570  -0.322 -0.4738 -0.7537  0.4714
  276MOL0     C37178   9.826  10.874   0.633  0.2935 -0.6668  0.5700
  276MOL0     C37179   9.961  10.845   0.647  0.0796  0.1494 -0.4481
  276MOL0     C37180  10.392  10.668   0.548 -1.2775  0.5003  0.0905
  276MOL0     C37181  10.418  10.688   0.682 -0.1827  0.1652  0.0780
  276MOL0     C37182  10.552  10.677   0.729  0.5870 -0.4779 -0.2305
  276MOL0     C37183  10.657  10.641   0.644  0.5154 -0.1362  0.6336
  276MOL0     O37184  10.786  10.615   0.686  0.2783  0.2862  0.1292
  276MOL0     C37185  10.819  10.610   0.826 -0.8133 -0.9788 -0.6452
  276MOL0     C37186  10.839  10.754   0.889  0.1840  0.4492 -0.2405
  276MOL0     C37187  10.955  10.827   0.833  0.1477  0.0494 -0.3227
  276MOL0     C37188  11.060  10.877   0.948  0.8332 -0.9915  0.0097
  276MOL0     C37189  11.141  10.989   0.896  0.1614  1.1512 -0.3611
  276MOL0     C37190  11.189  11.086   0.843  0.2691  0.9078  0.0662
  276MOL0     C37191  10.625  10.620   0.507  0.2164  0.0843  0.8777
  276MOL0     C37192  10.496  10.631   0.461 -0.0437 -0.3757  0.7266
  276MOL0     H37193  10.033  10.743   0.330  2.5983  0.4418  2.1049
  276MOL0     H37194   9.799  10.812   0.297 -0.8036  0.6300  0.0329
  276MOL0     H37195   9.667  11.040   0.356  0.4628 -2.1703 -2.0106
  276MOL0     H37196   9.586  10.897   0.298  1.8781 -2.0500 -0.1605
  276MOL0     H37197   9.394  10.961   0.410  0.8168  0.0964 -3.0492
  276MOL0     H37198   9.479  11.088   0.515  1.9215  2.5499 -1.6191
  276MOL0     H37199   9.363  11.214   0.350  1.1370  0.9790 -0.5474
  276MOL0     H37200   9.519  11.187   0.253 -0.4049  4.1916  0.6562
  276MOL0     H37201   9.405  11.010   0.129 -2.5165 -3.6509  0.0116
  276MOL0     H37202   9.278  11.012   0.248 -1.8708  1.7468  1.5456
  276MOL0     H37203   9.204  11.120   0.035  1.7010 -0.5202 -1.2538
  276MOL0     H37204   9.207  11.239   0.167  1.8872 -1.9175  2.2381
  276MOL0     H37205   9.417  11.327   0.089 -2.5580  0.3527  1.2244
  276MOL0     H37206   9.432  11.191  -0.036 -0.9034 -0.4904 -1.6187
  276MOL0     H37207   9.300  11.290  -0.180  1.6466 -0.1704 -0.4766
  276MOL0     H37208   9.189  11.353  -0.052 -0.1915 -0.3171  0.2454
  276MOL0     H37209   9.467  11.473  -0.089  0.1070 -1.3316 -2.2071
  276MOL0     H37210   9.319  11.541  -0.005 -1.6141  0.4079 -1.2447
  276MOL0     H37211   9.111  11.618  -0.136  0.6575  0.0191  1.0888
  276MOL0     H37212   8.991  11.684  -0.373  0.6696 -1.3620  1.5717
  276MOL0     H37213   9.066  11.837  -0.337 -0.8226  0.0623 -0.3032
  276MOL0     H37214   9.193  11.800  -0.570 -0.0836 -1.7177 -3.1853
  276MOL0     H37215   9.031  11.842  -0.576 -0.4120  0.7339  2.4495
  276MOL0     H37216   8.974  11.611  -0.660 -0.0875  1.9468 -3.0084
  276MOL0     H37217   9.120  11.547  -0.585 -0.1173 -1.8341 -1.4696
  276MOL0     H37218   9.251  11.602  -0.766  1.2794  0.9407 -1.0792
  276MOL0     H37219   9.190  11.757  -0.794  3.2555 -1.4985 -0.2767
  276MOL0     H37220   8.873  11.533  -1.033 -0.8731 -0.0089 -3.7750
  276MOL0     H37221   8.633  11.684  -1.219  0.9796 -0.6941  0.6160
  276MOL0     H37222   8.697  11.534  -1.162  1.1918  0.0137 -0.6774
  276MOL0     H37223   8.578  11.636  -1.055 -1.2491  0.9933 -0.7792
  276MOL0     H37224   8.589  11.980  -1.389  0.4099 -0.2886  1.2208
  276MOL0     H37225   8.446  12.163  -1.526  0.3606  2.2776 -0.1355
  276MOL0     H37226   8.479  12.599  -1.521 -0.4649 -1.4722 -2.6976
  276MOL0     H37227   8.590  12.533  -1.393 -0.0087 -1.2778 -0.2426
  276MOL0     H37228   8.592  12.493  -1.706  1.2934 -1.1208 -1.0640
  276MOL0     H37229   8.680  12.607  -1.611  0.9001 -1.2486 -0.9556
  276MOL0     H37230   8.672  12.303  -1.576  2.2182  0.5696 -2.5980
  276MOL0     H37231   8.790  12.409  -1.493 -1.2691 -1.4291  1.4266
  276MOL0     H37232   8.772  12.357  -1.786 -2.2120 -1.8963  0.5408
  276MOL0     H37233   8.881  12.483  -1.712 -4.5692  2.1654 -2.3250
  276MOL0     H37234   8.889  12.202  -1.583  0.9707 -2.7472 -0.9633
  276MOL0     H37235   9.021  12.315  -1.628 -0.0673  2.2875 -0.7025
  276MOL0     H37236   8.855  12.129  -1.788 -2.8029  2.6743  1.5575
  276MOL0     H37237   8.936  12.262  -1.882 -3.2302  0.2814 -0.1876
  276MOL0     H37238   9.074  12.032  -1.739  1.1490 -0.1467 -0.6595
  276MOL0     H37239   9.150  12.190  -1.771  0.0788 -0.0054 -2.7409
  276MOL0     H37240   9.122  12.164  -1.998 -3.4967  2.3942  1.2016
  276MOL0     H37241   9.048  11.998  -1.975 -0.8729  2.7989 -2.4089
  276MOL0     H37242   8.536  12.436  -1.209  0.1213  0.0194  0.8525
  276MOL0     H37243   8.624  12.267  -1.080 -1.4021 -1.4105  1.1617
  276MOL0     H37244   8.846  12.007  -0.936  1.3803  0.4461  0.3076
  276MOL0     H37245   9.037  11.893  -0.851 -1.2226  1.2549 -0.0523
  276MOL0     H37246   9.768  10.923   0.711  0.3097 -1.2822  0.9789
  276MOL0     H37247  10.012  10.865   0.741  0.2654 -0.8068 -0.3364
  276MOL0     H37248  10.342  10.723   0.751  0.3491 -0.2254  0.8794
  276MOL0     H37249  10.566  10.689   0.836  1.5558  1.2365 -0.5190
  276MOL0     H37250  10.746  10.550   0.880  0.1568 -0.4788  1.3028
  276MOL0     H37251  10.905  10.546   0.844 -3.4907 -4.6311  0.2830
  276MOL0     H37252  10.863  10.732   0.994  1.8098 -0.7102 -0.8222
  276MOL0     H37253  10.751  10.818   0.878 -0.9515 -1.3164 -2.1412
  276MOL0     H37254  10.924  10.912   0.771  3.3145  1.9717  0.5025
  276MOL0     H37255  11.000  10.757   0.763 -0.3346  1.5455 -2.2089
  276MOL0     H37256  11.125  10.795   0.978  3.5811  0.9838 -0.1600
  276MOL0     H37257  11.000  10.913   1.032 -0.4279  0.2147 -1.3469
  276MOL0     H37258  11.239  11.171   0.803  0.3799  1.0725  0.5510
  276MOL0     H37259  10.708  10.603   0.440 -0.6364  0.6335 -0.3431
  276MOL0     H37260  10.479  10.605   0.357 -0.6309 -1.3579  1.0562
  277MOL0     O37261  10.251   3.797   8.585 -0.4035 -0.0349 -0.6441
  277MOL0     C37262  10.264   3.888   8.503 -0.0528 -0.3457 -0.2476
  277MOL0     O37263  10.369   3.984   8.508 -0.0543  0.1512 -0.2942
  277MOL0     C37264  10.456   3.983   8.619  0.8594 -0.3161  1.7002
  277MOL0     C37265  10.456   4.095   8.704  0.2882 -0.2646  0.1656
  277MOL0     C37266  10.548   4.091   8.815 -1.1380  0.0648 -0.5838
  277MOL0     C37267  10.619   3.982   8.847  0.6125  0.3160  0.4375
  277MOL0     O37268  10.703   4.000   8.950  0.2490  0.5784 -0.7045
  277MOL0     C37269  10.627   3.966   9.078  0.2424 -0.5510  0.7788
  277MOL0     C37270  10.561   3.821   9.095 -0.6134 -0.6993 -0.3056
  277MOL0     C37271  10.670   3.729   9.153 -0.1127 -0.4396 -0.5595
  277MOL0     C37272  10.628   3.587   9.172 -0.2954 -0.1390  0.5302
  277MOL0     C37273  10.737   3.500   9.231 -0.1789 -0.0544  0.4761
  277MOL0     C37274  10.695   3.357   9.241 -0.2679  0.2503  0.1604
  277MOL0     C37275  10.816   3.267   9.274 -0.2160  0.0799  0.1921
  277MOL0     C37276  10.791   3.118   9.258  0.1568 -0.1821 -0.3657
  277MOL0     N37277  10.917   3.049   9.272 -0.9316 -0.3360 -0.4556
  277MOL0     C37278  11.008   3.069   9.373  0.4310  0.7999 -0.9302
  277MOL0     C37279  11.102   2.966   9.350  0.0689 -0.0968  0.1168
  277MOL0     C37280  11.223   2.934   9.430 -0.3252  0.1070 -0.6445
  277MOL0     C37281  11.200   2.841   9.553 -0.3044 -0.5919 -0.1523
  277MOL0     C37282  11.325   2.853   9.646 -0.2416  0.5344  0.1875
  277MOL0     C37283  11.333   2.751   9.762 -0.6737  1.3786  0.3378
  277MOL0     O37284  11.236   2.754   9.870  0.0054 -0.7904  0.0464
  277MOL0     C37285  11.297   2.723   9.988  0.0971 -0.4654 -0.0302
  277MOL0     C37286  11.330   2.593  10.018  0.8060 -0.3866  0.5411
  277MOL0     C37287  11.402   2.551  10.127  0.2237 -0.0103  0.1840
  277MOL0     C37288  11.441   2.400  10.126  0.2076 -0.6864 -0.5642
  277MOL0     C37289  11.434   2.651  10.225 -0.5832  0.5868 -0.1674
  277MOL0     C37290  11.517   2.618  10.347 -0.4296  0.0370  1.2409
  277MOL0     O37291  11.570   2.732  10.400 -0.5169  0.0151  0.3714
  277MOL0     C37292  11.624   2.727  10.527  0.0698  0.2891 -0.6724
  277MOL0     C37293  11.577   2.634  10.632  0.1874 -0.1679  0.0717
  277MOL0     C37294  11.631   2.633  10.755 -0.2585 -0.6831  0.1715
  277MOL0     C37295  11.741   2.723  10.789 -0.0831 -0.6097 -0.2556
  277MOL0     O37296  11.806   2.726  10.904 -0.1591 -0.1701 -0.2932
  277MOL0     C37297  11.778   2.611  10.994  0.4716  0.8927  0.9289
  277MOL0     C37298  11.873   2.610  11.116  0.0496  0.4272 -0.1607
  277MOL0     C37299  12.014   2.581  11.064  0.8527 -0.2170  0.4783
  277MOL0     C37300  12.121   2.640  11.149 -0.6276  0.3485 -0.6142
  277MOL0     C37301  12.259   2.618  11.090 -0.0986  0.2192  0.5221
  277MOL0     C37302  12.375   2.652  11.185  0.5721 -0.0680 -0.3393
  277MOL0     C37303  12.457   2.768  11.150  0.6664  1.0208  0.0653
  277MOL0     C37304  12.555   2.807  11.253  0.6137 -0.3288  0.0237
  277MOL0    Cl37305  12.685   2.693  11.253 -0.4678  0.4229 -0.0120
  277MOL0     C37306  11.780   2.815  10.685 -0.4829 -0.2813  0.2175
  277MOL0     C37307  11.720   2.819  10.559  0.2752 -0.9226  0.8585
  277MOL0     O37308  11.538   2.498  10.386  0.4777 -0.2583 -0.5998
  277MOL0     C37309  11.395   2.791  10.202  0.5880  0.4770 -0.1738
  277MOL0     C37310  11.318   2.825  10.087  0.1699 -0.4679 -0.3195
  277MOL0     N37311  11.060   2.896   9.239 -0.3409 -0.4847  0.1462
  277MOL0     N37312  10.953   2.940   9.196  0.4879 -0.2061  0.3190
  277MOL0     C37313  10.618   3.878   8.758 -0.1033  0.7361  0.4383
  277MOL0     C37314  10.535   3.870   8.645 -0.6330  1.3987  0.6512
  277MOL0     C37315  10.169   3.905   8.391  0.9082 -0.0836 -0.3666
  277MOL0     C37316  10.099   3.790   8.344  0.3104  0.1086 -0.3534
  277MOL0     C37317  10.025   3.792   8.218 -0.7249  0.2670 -0.3088
  277MOL0     C37318  10.016   3.906   8.145  0.7465  0.2386 -0.8714
  277MOL0     O37319   9.938   3.897   8.036  0.0158  0.7474 -0.1750
  277MOL0     C37320   9.850   4.003   7.997 -0.5650  0.7661 -0.6822
  277MOL0     C37321   9.885   4.065   7.865  0.5488  0.3960 -0.1211
  277MOL0     C37322   9.760   4.135   7.816 -0.0791 -0.6797  0.8738
  277MOL0     C37323   9.780   4.182   7.670 -0.9209 -0.2793  0.2786
  277MOL0     C37324   9.674   4.264   7.636  0.0692 -0.3621  0.2321
  277MOL0     C37325   9.584   4.347   7.606  0.5185 -0.0630  0.7713
  277MOL0     C37326  10.069   4.026   8.198  0.4444 -0.2876 -1.3792
  277MOL0     C37327  10.150   4.027   8.311  0.8298  0.2672 -0.7317
  277MOL0     H37328  10.385   4.174   8.682  0.7880  0.3628  0.7681
  277MOL0     H37329  10.541   4.187   8.864  1.0151 -0.0730  0.0747
  277MOL0     H37330  10.702   3.977   9.157 -0.3012  0.6621  1.1416
  277MOL0     H37331  10.555   4.046   9.097  1.0762  0.4790 -0.2739
  277MOL0     H37332  10.479   3.831   9.167  1.0240  0.4969  1.4812
  277MOL0     H37333  10.518   3.787   9.000 -1.1881 -1.8036  0.3369
  277MOL0     H37334  10.747   3.726   9.076 -0.5228 -0.1070 -0.9951
  277MOL0     H37335  10.703   3.772   9.248 -1.9642 -1.6474  0.7004
  277MOL0     H37336  10.543   3.567   9.238  0.1418  0.4920  1.2958
  277MOL0     H37337  10.615   3.548   9.071  4.0866  0.3460 -0.4200
  277MOL0     H37338  10.821   3.505   9.162  1.5812  4.8746  2.5750
  277MOL0     H37339  10.763   3.533   9.332 -1.5612 -0.1038  0.8726
  277MOL0     H37340  10.615   3.361   9.315 -0.2667 -0.3442  0.2005
  277MOL0     H37341  10.648   3.320   9.149 -0.2364  0.2626  0.1396
  277MOL0     H37342  10.898   3.299   9.209 -0.5942  0.2669 -0.1938
  277MOL0     H37343  10.831   3.292   9.379  2.1923 -0.1236 -0.0481
  277MOL0     H37344  10.733   3.088   9.170 -2.9957 -1.8370  2.0412
  277MOL0     H37345  10.730   3.090   9.345  0.6471 -0.3507 -0.0709
  277MOL0     H37346  10.991   3.139   9.453  0.9180 -0.9689  0.7948
  277MOL0     H37347  11.298   2.905   9.357  1.6603  1.0771  0.9188
  277MOL0     H37348  11.267   3.024   9.473  1.0268 -0.9050  0.1587
  277MOL0     H37349  11.202   2.739   9.513  0.6096 -0.4925 -0.3917
  277MOL0     H37350  11.107   2.864   9.605  0.0738 -0.2675  0.3977
  277MOL0     H37351  11.318   2.950   9.696  0.4008  1.2667 -1.0840
  277MOL0     H37352  11.410   2.835   9.580 -0.8399 -2.3310  0.0813
  277MOL0     H37353  11.432   2.758   9.806  0.0465 -0.4685 -0.8625
  277MOL0     H37354  11.325   2.653   9.714 -1.0049  0.6081  1.9000
  277MOL0     H37355  11.311   2.515   9.945  1.9502 -2.0065  1.8925
  277MOL0     H37356  11.402   2.365  10.030  0.9580 -1.9507 -0.4243
  277MOL0     H37357  11.548   2.383  10.143  0.0088  0.4751  2.4127
  277MOL0     H37358  11.391   2.352  10.210  0.5951 -2.1140 -1.1278
  277MOL0     H37359  11.491   2.569  10.617  1.6004 -2.1990  0.3756
  277MOL0     H37360  11.586   2.564  10.825 -1.2811  0.6044  0.8260
  277MOL0     H37361  11.672   2.590  11.015  0.1511 -2.3760 -2.8098
  277MOL0     H37362  11.804   2.515  10.950  3.1149  0.5362  2.9977
  277MOL0     H37363  11.863   2.712  11.153  2.0986  1.6949 -2.7527
  277MOL0     H37364  11.836   2.524  11.173 -0.1996 -0.5276 -1.6982
  277MOL0     H37365  12.014   2.623  10.963 -3.0997  1.5880  1.0351
  277MOL0     H37366  12.028   2.474  11.046 -1.0616 -0.2150 -1.4700
  277MOL0     H37367  12.104   2.746  11.174 -0.7368  0.3151 -0.5449
  277MOL0     H37368  12.118   2.580  11.240 -4.0445  0.1008 -0.7545
  277MOL0     H37369  12.272   2.673  10.997 -0.8225 -0.0993  0.2287
  277MOL0     H37370  12.269   2.511  11.070  2.8360 -0.0128  2.4709
  277MOL0     H37371  12.338   2.662  11.288  0.8439  0.0946 -0.2574
  277MOL0     H37372  12.436   2.562  11.191 -0.3631 -0.6569  0.8870
  277MOL0     H37373  12.391   2.854  11.134  0.8364  1.4798  1.6543
  277MOL0     H37374  12.506   2.738  11.057  0.9816  0.9653  0.2472
  277MOL0     H37375  12.512   2.812  11.354  2.7390  1.9145  0.9196
  277MOL0     H37376  12.599   2.904  11.229 -0.6105  0.2197 -0.0813
  277MOL0     H37377  11.870   2.875  10.695 -0.9208  0.2693  1.0572
  277MOL0     H37378  11.751   2.887  10.481 -1.3079 -2.8741 -1.6757
  277MOL0     H37379  11.417   2.868  10.275  0.8743 -0.4317  0.7169
  277MOL0     H37380  11.276   2.921  10.061 -1.3842 -1.0495 -0.0646
  277MOL0     H37381  10.692   3.799   8.766 -1.1118 -0.1999  0.7058
  277MOL0     H37382  10.541   3.782   8.582  2.0803  3.2887 -2.0509
  277MOL0     H37383  10.124   3.693   8.386  0.8471  0.4113  0.0379
  277MOL0     H37384   9.984   3.700   8.179 -2.5638  0.8519  0.1237
  277MOL0     H37385   9.751   3.957   8.004 -1.5018  2.4902 -1.9155
  277MOL0     H37386   9.838   4.077   8.077 -2.1918 -0.2463  0.0648
  277MOL0     H37387   9.920   4.003   7.782  3.2999  2.7906 -0.9528
  277MOL0     H37388   9.968   4.135   7.881  0.4954  1.3313 -3.1997
  277MOL0     H37389   9.752   4.227   7.875 -0.1823  0.5990 -1.0665
  277MOL0     H37390   9.668   4.076   7.822 -1.8070  1.5484 -1.5005
  277MOL0     H37391   9.790   4.101   7.597 -0.5930  1.3880 -1.5945
  277MOL0     H37392   9.865   4.251   7.657 -0.7733 -0.9831 -4.0919
  277MOL0     H37393   9.513   4.417   7.568 -1.3244 -1.5047  1.3726
  277MOL0     H37394  10.052   4.123   8.152 -1.6490 -0.0447 -0.2550
  277MOL0     H37395  10.196   4.117   8.351 -1.8006  0.6799  1.6764
  278MOL0     O37396   1.307  10.138   6.080  0.6107 -0.0812 -1.2087
  278MOL0     C37397   1.394  10.186   6.151  1.3397  1.2746 -1.5674
  278MOL0     O37398   1.511  10.241   6.116  0.1140  0.1245  0.5098
  278MOL0     C37399   1.542  10.241   5.975 -0.2377  0.2858  0.2672
  278MOL0     C37400   1.535  10.140   5.883 -0.4393 -0.5741 -0.2236
  278MOL0     C37401   1.567  10.157   5.748 -0.2286 -0.2140  0.0347
  278MOL0     C37402   1.618  10.279   5.706  0.5192 -0.1976  1.3299
  278MOL0     O37403   1.656  10.292   5.569 -0.0701 -0.6251  0.5420
  278MOL0     C37404   1.615  10.200   5.463 -1.5328  0.0013 -0.1620
  278MOL0     C37405   1.462  10.177   5.441 -0.0175  0.0263  0.1517
  278MOL0     C37406   1.380  10.314   5.448 -0.3416  0.5149 -0.5525
  278MOL0     C37407   1.345  10.363   5.303 -0.1399  0.1938 -0.8725
  278MOL0     C37408   1.263  10.275   5.223  0.2740 -0.0045  1.0681
  278MOL0     C37409   1.203  10.338   5.087 -0.0250 -0.2156  0.5861
  278MOL0     C37410   1.144  10.233   4.994  0.1802 -0.0435 -0.5257
  278MOL0     C37411   1.084  10.283   4.865  0.0970  0.7411  0.0526
  278MOL0     N37412   1.023  10.172   4.789 -0.1144  0.1245 -0.1066
  278MOL0     C37413   1.086  10.104   4.686  0.4247  0.5555 -0.5240
  278MOL0     C37414   0.988  10.006   4.655  0.9511  0.4369  0.4533
  278MOL0     C37415   0.986   9.899   4.543  0.9845  0.2203  0.3045
  278MOL0     C37416   0.873   9.931   4.444  0.0441  0.2740  0.1970
  278MOL0     C37417   0.869   9.827   4.327 -0.6276 -0.1291 -0.5913
  278MOL0     C37418   0.794   9.868   4.204  0.3103 -0.1414 -0.0505
  278MOL0     O37419   0.651   9.862   4.239  0.1595 -0.2374  0.3692
  278MOL0     C37420   0.557   9.785   4.176 -0.0926  0.4574 -0.6004
  278MOL0     C37421   0.452   9.845   4.109  0.6536  0.3613  0.0877
  278MOL0     C37422   0.340   9.767   4.060  0.3330 -0.7374  0.1354
  278MOL0     C37423   0.218   9.846   3.996 -0.0481 -0.6004  0.4731
  278MOL0     C37424   0.342   9.628   4.082  0.1336 -0.6357  0.2805
  278MOL0     C37425   0.246   9.537   4.022  1.2166  0.3967 -0.4089
  278MOL0     O37426   0.239   9.427   4.087 -0.3664  0.3305 -0.3455
  278MOL0     C37427   0.150   9.322   4.050  0.0388  0.5727 -0.5857
  278MOL0     C37428   0.133   9.223   4.158  0.4663  0.2839 -0.4066
  278MOL0     C37429   0.055   9.110   4.139 -0.3780 -0.2957 -0.0319
  278MOL0     C37430  -0.008   9.089   4.019 -0.4360 -0.0308 -0.1443
  278MOL0     O37431  -0.073   8.973   3.981 -0.0098  0.0517 -0.6373
  278MOL0     C37432  -0.186   8.938   4.061 -0.4783 -0.8131  0.6263
  278MOL0     C37433  -0.306   8.946   3.966  0.0708 -0.3604  0.5081
  278MOL0     C37434  -0.330   9.087   3.917 -0.3738 -0.5117  0.0640
  278MOL0     C37435  -0.467   9.097   3.846  0.4509  0.2131 -0.5286
  278MOL0     C37436  -0.490   9.233   3.790 -0.0320 -1.2067  0.3664
  278MOL0     C37437  -0.617   9.250   3.708  0.0005 -0.2479 -0.0244
  278MOL0     C37438  -0.617   9.396   3.641 -0.3673  0.2089  1.4055
  278MOL0     C37439  -0.743   9.411   3.551  0.6269  0.1503  0.7703
  278MOL0    Cl37440  -0.729   9.312   3.398 -0.1082  0.1673 -0.0932
  278MOL0     C37441   0.018   9.179   3.912  0.3146 -0.1053 -0.8157
  278MOL0     C37442   0.095   9.295   3.926 -0.6139  0.2343 -0.3259
  278MOL0     O37443   0.188   9.566   3.921  0.3132 -0.5483  0.1871
  278MOL0     C37444   0.456   9.567   4.134  0.2853  0.4362  0.5281
  278MOL0     C37445   0.561   9.644   4.192 -0.3093 -0.3820  0.8401
  278MOL0     N37446   0.889  10.012   4.753 -1.5742  0.3933 -0.1272
  278MOL0     N37447   0.907  10.113   4.823  0.6244  0.4649 -0.4645
  278MOL0     C37448   1.625  10.385   5.794  0.1576 -0.4475 -0.0861
  278MOL0     C37449   1.587  10.365   5.927 -0.2526 -0.7289 -0.1962
  278MOL0     C37450   1.370  10.168   6.296 -0.2790  0.1194  0.4929
  278MOL0     C37451   1.242  10.152   6.352  0.1232  0.2824 -1.4514
  278MOL0     C37452   1.223  10.151   6.487  0.1831  1.0636  0.1846
  278MOL0     C37453   1.323  10.171   6.581  0.2147  0.1679  0.7721
  278MOL0     O37454   1.282  10.161   6.718 -0.3073  0.3744 -0.4409
  278MOL0     C37455   1.381  10.191   6.812 -0.6750  0.0836  0.0787
  278MOL0     C37456   1.328  10.175   6.957  1.3390  0.6936 -0.2250
  278MOL0     C37457   1.334  10.028   6.996  0.5693 -0.3536  0.6043
  278MOL0     C37458   1.247  10.008   7.126 -0.1217  0.9063 -0.1475
  278MOL0     C37459   1.343  10.004   7.238 -0.0881 -0.4402  0.5075
  278MOL0     C37460   1.428  10.019   7.320 -0.7130  0.1338  0.1099
  278MOL0     C37461   1.448  10.184   6.529 -0.0105 -0.6720 -0.4402
  278MOL0     C37462   1.470  10.175   6.394 -0.2363  0.1664 -0.7808
  278MOL0     H37463   1.508  10.040   5.917  1.3170 -0.4174  1.8378
  278MOL0     H37464   1.548  10.070   5.687 -1.7269  1.4903 -2.0720
  278MOL0     H37465   1.663  10.233   5.370  1.9044 -3.9069 -0.1061
  278MOL0     H37466   1.668  10.104   5.473  0.4318  0.6185 -3.0958
  278MOL0     H37467   1.456  10.125   5.345  3.1408  0.5200 -0.4130
  278MOL0     H37468   1.421  10.113   5.520 -2.3975  0.2997 -0.7784
  278MOL0     H37469   1.306  10.307   5.529  1.9841  0.7783  1.7232
  278MOL0     H37470   1.446  10.394   5.483 -0.0789 -0.0992  0.3888
  278MOL0     H37471   1.284  10.454   5.311 -2.6000 -1.3987 -0.5164
  278MOL0     H37472   1.435  10.386   5.244 -2.5760  1.6341 -4.3971
  278MOL0     H37473   1.315  10.184   5.191  0.3001 -0.2061  1.6635
  278MOL0     H37474   1.175  10.273   5.289 -2.6075  2.1830 -2.3465
  278MOL0     H37475   1.133  10.419   5.106  0.7593  0.5702  0.2115
  278MOL0     H37476   1.288  10.382   5.034 -0.2572 -0.4272  0.0306
  278MOL0     H37477   1.225  10.163   4.974  1.1551  0.5942  1.0346
  278MOL0     H37478   1.064  10.192   5.056 -1.8889  1.7294 -1.8399
  278MOL0     H37479   1.165  10.337   4.815 -0.6426  2.5830  0.7434
  278MOL0     H37480   0.999  10.351   4.873 -0.6357 -0.3516  2.4550
  278MOL0     H37481   1.177  10.130   4.634  0.3574 -0.1889 -1.0204
  278MOL0     H37482   1.084   9.906   4.493  1.1884  0.1121  0.6868
  278MOL0     H37483   0.985   9.801   4.590  1.2244 -0.1547 -0.4457
  278MOL0     H37484   0.892  10.032   4.408  0.4835 -0.0277 -0.4388
  278MOL0     H37485   0.778   9.932   4.499 -0.9434  0.9908 -1.4387
  278MOL0     H37486   0.833   9.733   4.372 -1.3407  0.0147 -0.8483
  278MOL0     H37487   0.964   9.790   4.288 -0.7572 -2.3338  0.9694
  278MOL0     H37488   0.824   9.792   4.132 -0.9099 -1.2345  0.5661
  278MOL0     H37489   0.829   9.964   4.164  1.1110 -0.1429  0.6143
  278MOL0     H37490   0.454   9.953   4.102 -2.7726  0.4569 -1.0793
  278MOL0     H37491   0.126   9.803   4.037  0.1037 -0.0140  1.4476
  278MOL0     H37492   0.234   9.951   4.024  3.5497 -0.7948 -0.3798
  278MOL0     H37493   0.218   9.834   3.887  1.0812 -0.7036  0.4775
  278MOL0     H37494   0.176   9.244   4.255  2.1748 -3.6540 -0.1040
  278MOL0     H37495   0.047   9.034   4.216  1.2169  0.5585  1.0167
  278MOL0     H37496  -0.167   8.836   4.096  3.0952 -0.1373  1.0101
  278MOL0     H37497  -0.194   9.013   4.140  2.3209  1.9301 -1.4332
  278MOL0     H37498  -0.287   8.869   3.890  0.1065 -0.7483  0.9075
  278MOL0     H37499  -0.404   8.914   4.003 -0.9392 -1.5010 -2.7369
  278MOL0     H37500  -0.250   9.098   3.844  2.0770 -0.4570  2.5799
  278MOL0     H37501  -0.309   9.166   3.989  1.9126  2.1195 -3.1769
  278MOL0     H37502  -0.470   9.028   3.761 -0.9806 -0.2409 -0.1335
  278MOL0     H37503  -0.542   9.070   3.921 -1.1287  0.4188 -1.9640
  278MOL0     H37504  -0.403   9.258   3.729 -2.3252  1.0913 -2.3054
  278MOL0     H37505  -0.501   9.301   3.875 -3.1073 -2.2964  0.9535
  278MOL0     H37506  -0.635   9.168   3.638 -0.5963  1.8595 -2.4566
  278MOL0     H37507  -0.700   9.246   3.780 -0.1168  2.1715  0.0641
  278MOL0     H37508  -0.529   9.399   3.576  0.3645  0.4707  2.3906
  278MOL0     H37509  -0.604   9.484   3.705  3.0157  1.2075 -0.4158
  278MOL0     H37510  -0.771   9.511   3.516 -1.7793 -0.0446  1.8934
  278MOL0     H37511  -0.826   9.379   3.615  1.1770  0.1501  1.5010
  278MOL0     H37512  -0.014   9.157   3.811 -1.5853  0.2807 -0.3426
  278MOL0     H37513   0.127   9.350   3.838  1.8056 -0.0371  0.3025
  278MOL0     H37514   0.475   9.461   4.149  1.9377  0.7518  0.8644
  278MOL0     H37515   0.643   9.595   4.243 -0.6186 -1.3913  0.3953
  278MOL0     H37516   1.649  10.482   5.750 -0.0491  0.4006  1.6064
  278MOL0     H37517   1.616  10.456   5.979 -1.6418 -0.4471  0.1360
  278MOL0     H37518   1.167  10.155   6.273 -0.2521  2.2956 -1.0942
  278MOL0     H37519   1.123  10.136   6.525  1.0894 -2.4445  1.5915
  278MOL0     H37520   1.472  10.130   6.807  0.0579  1.0842  0.7705
  278MOL0     H37521   1.411  10.295   6.803  2.1204 -0.6387  0.1218
  278MOL0     H37522   1.223  10.206   6.961  0.8177 -0.9781  0.2248
  278MOL0     H37523   1.379  10.232   7.034 -0.1228  0.2198  1.1503
  278MOL0     H37524   1.438  10.012   7.024  0.8833  0.8623  0.2186
  278MOL0     H37525   1.288   9.960   6.924 -0.1227  1.1433 -0.4181
  278MOL0     H37526   1.208   9.906   7.119  0.4715  0.7046 -0.5158
  278MOL0     H37527   1.165  10.079   7.141 -0.7695  0.4202 -1.2642
  278MOL0     H37528   1.522  10.030   7.369 -1.2547  0.8511  1.0122
  278MOL0     H37529   1.534  10.191   6.594 -2.3646 -1.7021  3.0594
  278MOL0     H37530   1.576  10.184   6.371 -0.4637  2.4474 -1.2507
  279MOL0     O37531   8.026   9.539   9.876  0.6379 -0.9723  0.1782
  279MOL0     C37532   8.045   9.583   9.995 -0.3517  0.4528  0.1700
  279MOL0     O37533   7.965   9.653  10.068  0.2623 -0.1683 -0.3599
  279MOL0     C37534   7.837   9.674  10.031 -0.1146  0.9481  0.3408
  279MOL0     C37535   7.787   9.702   9.899  0.6027  0.6353  0.0733
  279MOL0     C37536   7.653   9.742   9.897  0.4313 -0.2180  0.5243
  279MOL0     C37537   7.565   9.750  10.005 -0.5816  0.2622 -0.0726
  279MOL0     O37538   7.438   9.804   9.984 -0.5114 -0.6502 -0.6511
  279MOL0     C37539   7.341   9.782  10.090 -0.4455 -0.0681 -0.9411
  279MOL0     C37540   7.214   9.837  10.032 -0.9973  0.5420  0.0167
  279MOL0     C37541   7.171   9.780   9.888  0.5689  0.8295 -0.7487
  279MOL0     C37542   7.038   9.815   9.829  0.0649  0.0989 -0.5556
  279MOL0     C37543   7.008   9.758   9.692 -0.6246  0.4252  0.3367
  279MOL0     C37544   6.985   9.608   9.661  0.8798  1.5078 -0.0138
  279MOL0     C37545   6.961   9.586   9.514 -0.5952 -1.4837 -0.4528
  279MOL0     C37546   6.907   9.445   9.481  0.5277 -0.0194  0.0745
  279MOL0     N37547   6.991   9.332   9.521 -0.1943 -1.0468  0.0603
  279MOL0     C37548   7.124   9.320   9.492 -0.1138  0.0220 -0.1901
  279MOL0     C37549   7.157   9.208   9.560 -0.5087 -0.6627 -0.4010
  279MOL0     C37550   7.298   9.149   9.570  0.4732  0.1903  1.3903
  279MOL0     C37551   7.408   9.253   9.594 -0.1624  0.2474 -0.4907
  279MOL0     C37552   7.407   9.297   9.747  0.0739  0.6676  0.0911
  279MOL0     C37553   7.462   9.433   9.746 -0.2037 -0.4536  0.5563
  279MOL0     O37554   7.598   9.439   9.696 -0.1545  1.2205  0.2101
  279MOL0     C37555   7.709   9.377   9.751 -0.3265  0.1128 -1.2613
  279MOL0     C37556   7.732   9.378   9.889  0.2965 -0.5233  0.8172
  279MOL0     C37557   7.843   9.303   9.946  0.7934 -0.9979  0.1101
  279MOL0     C37558   7.861   9.311  10.100 -0.2098 -0.2187 -0.4969
  279MOL0     C37559   7.910   9.212   9.866  0.3997 -0.3041  0.0360
  279MOL0     C37560   8.023   9.117   9.907  0.2732  0.5340  0.3621
  279MOL0     O37561   8.103   9.058   9.809  0.5162 -0.3957 -0.5303
  279MOL0     C37562   8.212   8.999   9.846  0.7923  0.0260  0.5540
  279MOL0     C37563   8.336   9.070   9.838 -0.8794  0.0722 -0.6804
  279MOL0     C37564   8.459   8.999   9.849  0.2879 -0.4369 -0.6226
  279MOL0     C37565   8.455   8.863   9.871 -0.1542 -0.2132 -0.1508
  279MOL0     O37566   8.565   8.785   9.864 -1.2176  0.2457  0.5345
  279MOL0     C37567   8.692   8.825   9.810  0.6011 -0.6469 -0.5031
  279MOL0     C37568   8.773   8.712   9.769  0.0894 -0.1738  0.3424
  279MOL0     C37569   8.922   8.750   9.736  0.1096 -0.1106 -1.6463
  279MOL0     C37570   9.023   8.637   9.743 -0.4381  0.2065 -0.5110
  279MOL0     C37571   9.027   8.553   9.871 -0.2433  0.0254 -0.9394
  279MOL0     C37572   9.054   8.627  10.003 -0.7104 -0.1362  0.4348
  279MOL0     C37573   9.062   8.537  10.126 -0.5415 -0.4724  0.6332
  279MOL0     C37574   9.137   8.607  10.234 -0.1994  0.7872  0.7651
  279MOL0    Cl37575   9.308   8.615  10.220 -0.4522  0.0061  0.2213
  279MOL0     C37576   8.337   8.790   9.869  0.7484 -0.3362 -0.9693
  279MOL0     C37577   8.219   8.860   9.872  0.6165 -0.1140  0.5206
  279MOL0     O37578   8.053   9.118  10.026 -0.0947 -0.4142 -0.4904
  279MOL0     C37579   7.886   9.209   9.730 -0.1342 -0.2550 -0.5903
  279MOL0     C37580   7.798   9.304   9.672 -0.0956  0.5090 -0.2387
  279MOL0     N37581   7.047   9.168   9.627  1.1546  0.6332  0.2748
  279MOL0     N37582   6.942   9.231   9.596 -0.2122  0.3994 -0.5390
  279MOL0     C37583   7.613   9.690  10.126 -0.5031  0.8143 -0.1463
  279MOL0     C37584   7.752   9.667  10.142 -1.4622 -0.0389 -0.1081
  279MOL0     C37585   8.183   9.558  10.049  0.2762 -0.1215  0.3879
  279MOL0     C37586   8.261   9.451   9.983  0.8607  0.0365 -1.5330
  279MOL0     C37587   8.378   9.412  10.051 -0.0990  0.1125  0.1806
  279MOL0     C37588   8.434   9.471  10.160  0.2559 -0.7931 -0.6087
  279MOL0     O37589   8.529   9.419  10.242  0.4046 -0.5545 -0.1912
  279MOL0     C37590   8.485   9.309  10.321 -0.4273 -0.2260 -0.5264
  279MOL0     C37591   8.585   9.206  10.339  0.2262  1.2254 -0.3758
  279MOL0     C37592   8.627   9.146  10.202  0.2858  0.4195 -0.4570
  279MOL0     C37593   8.693   9.012  10.209 -0.0424  0.1120 -0.4253
  279MOL0     C37594   8.805   8.992  10.120 -0.4858 -0.7205  0.2757
  279MOL0     C37595   8.910   8.957  10.053  0.1986  0.3898 -0.8871
  279MOL0     C37596   8.365   9.582  10.212 -0.1206  0.2112 -0.3642
  279MOL0     C37597   8.238   9.621  10.163 -0.5570  0.5085  0.0925
  279MOL0     H37598   7.851   9.693   9.811  1.5961 -3.1885  0.9803
  279MOL0     H37599   7.616   9.758   9.796  0.5440 -0.6586  0.4149
  279MOL0     H37600   7.345   9.675  10.109 -3.5040 -0.0078  0.7347
  279MOL0     H37601   7.356   9.844  10.179  3.8612 -2.4013  0.2270
  279MOL0     H37602   7.125   9.827  10.095 -1.9189 -2.2765 -1.5200
  279MOL0     H37603   7.234   9.943  10.014  2.2889  0.4512  2.2495
  279MOL0     H37604   7.251   9.798   9.815 -1.1251 -0.7023 -3.1041
  279MOL0     H37605   7.162   9.672   9.900  1.6886  0.3214 -3.6640
  279MOL0     H37606   6.963   9.779   9.900  1.0722  1.8853  1.5458
  279MOL0     H37607   7.030   9.924   9.840 -0.4495  0.1240 -1.1111
  279MOL0     H37608   6.924   9.815   9.652  1.8529  1.6127 -3.8211
  279MOL0     H37609   7.095   9.784   9.631 -1.6326 -0.2116 -1.4672
  279MOL0     H37610   7.067   9.540   9.687 -1.1621 -1.6212 -1.1232
  279MOL0     H37611   6.895   9.573   9.713  0.2023  0.8145 -1.6009
  279MOL0     H37612   6.883   9.657   9.484 -0.3623 -0.9471  0.1893
  279MOL0     H37613   7.047   9.603   9.449 -1.1313  1.9679 -0.4572
  279MOL0     H37614   6.891   9.444   9.372  3.6309 -0.3515 -0.4918
  279MOL0     H37615   6.804   9.436   9.517  1.3799 -1.4859  2.3652
  279MOL0     H37616   7.183   9.384   9.427 -1.0237 -1.8371 -2.9964
  279MOL0     H37617   7.311   9.068   9.643  1.5828 -0.6020  0.3524
  279MOL0     H37618   7.311   9.103   9.472 -0.7032  0.2520  1.1915
  279MOL0     H37619   7.404   9.343   9.531  2.3825  1.6312  1.1499
  279MOL0     H37620   7.509   9.218   9.570 -0.2424 -0.3096 -0.0305
  279MOL0     H37621   7.477   9.227   9.792  1.0706  2.5487  1.6081
  279MOL0     H37622   7.311   9.294   9.800 -0.1926 -0.5549 -0.4264
  279MOL0     H37623   7.471   9.462   9.851  2.3822 -0.1680  0.3333
  279MOL0     H37624   7.399   9.510   9.701  3.0053  2.4483  0.5638
  279MOL0     H37625   7.676   9.447   9.951  0.7756  0.8373 -0.2144
  279MOL0     H37626   7.814   9.395  10.152  2.1056  0.4600  0.6587
  279MOL0     H37627   7.830   9.219  10.150  0.5001 -0.9327 -1.3435
  279MOL0     H37628   7.968   9.322  10.119  0.0360 -0.1806 -1.8237
  279MOL0     H37629   8.324   9.175   9.815 -4.8696  0.7259  3.0910
  279MOL0     H37630   8.556   9.042   9.826 -0.1354 -0.4119 -2.5323
  279MOL0     H37631   8.673   8.883   9.719  1.9573 -0.2700 -0.5652
  279MOL0     H37632   8.745   8.881   9.888  1.2765 -2.1378  0.1292
  279MOL0     H37633   8.759   8.649   9.857 -0.8883  0.9032  0.9936
  279MOL0     H37634   8.740   8.665   9.676  1.6484 -0.1887 -0.2397
  279MOL0     H37635   8.940   8.835   9.803 -2.0222  1.1256 -2.5433
  279MOL0     H37636   8.931   8.793   9.636  1.1587 -0.2818 -1.6335
  279MOL0     H37637   8.995   8.578   9.655  0.5425  0.5015 -1.0392
  279MOL0     H37638   9.127   8.668   9.730  0.0191 -1.2100 -0.4218
  279MOL0     H37639   9.114   8.487   9.869 -0.8321 -0.8359  0.4252
  279MOL0     H37640   8.933   8.499   9.890  0.1861 -0.2867  0.4094
  279MOL0     H37641   9.146   8.687   9.996 -1.5857  1.1200 -0.6413
  279MOL0     H37642   8.976   8.701  10.020  1.6397  2.3797  0.9660
  279MOL0     H37643   9.102   8.438  10.106  3.2264  1.0263 -0.0556
  279MOL0     H37644   8.960   8.520  10.163 -0.7870 -3.0875 -0.9969
  279MOL0     H37645   9.115   8.560  10.330  2.5225 -0.3014  0.9392
  279MOL0     H37646   9.098   8.710  10.237 -1.5101  0.4970 -2.1867
  279MOL0     H37647   8.336   8.682   9.864  0.5843 -0.4301  0.5290
  279MOL0     H37648   8.131   8.800   9.891  0.7952 -0.1391  1.3316
  279MOL0     H37649   7.930   9.140   9.659 -1.0557 -1.8095  0.2734
  279MOL0     H37650   7.787   9.287   9.566  1.6569 -0.4303 -0.3014
  279MOL0     H37651   7.547   9.711  10.209 -1.8021  1.9807 -1.4321
  279MOL0     H37652   7.795   9.649  10.240 -0.2682  0.0531 -0.5980
  279MOL0     H37653   8.229   9.389   9.900 -0.8012 -3.4104  1.3856
  279MOL0     H37654   8.438   9.328  10.019 -0.5573 -1.6829  3.5632
  279MOL0     H37655   8.455   9.338  10.422 -1.1508  2.5143 -1.4370
  279MOL0     H37656   8.396   9.260  10.281 -0.8782  0.4030 -0.2991
  279MOL0     H37657   8.533   9.125  10.390 -1.1869  1.0426 -2.0220
  279MOL0     H37658   8.674   9.234  10.397  0.3073  0.7768 -0.2795
  279MOL0     H37659   8.690   9.222  10.155 -1.4704  1.0485 -1.9001
  279MOL0     H37660   8.537   9.137  10.140 -0.1199 -0.6765  0.2740
  279MOL0     H37661   8.610   8.950  10.173 -0.7442  0.8630 -0.1384
  279MOL0     H37662   8.717   8.988  10.313 -0.2616  1.9558  0.0850
  279MOL0     H37663   8.989   8.926   9.987  0.1100 -3.0256  0.3881
  279MOL0     H37664   8.387   9.618  10.312  0.1089  2.2202 -1.0746
  279MOL0     H37665   8.178   9.693  10.217 -0.1434 -0.4766  1.9361
  280MOL0     O37666   0.967   7.666   6.540 -0.5262  0.2721 -0.4638
  280MOL0     C37667   0.988   7.713   6.651  0.8715 -0.4471  0.1217
  280MOL0     O37668   1.088   7.672   6.731 -0.0019 -0.4306  0.1899
  280MOL0     C37669   1.175   7.574   6.692  0.2536 -0.0251  0.3554
  280MOL0     C37670   1.267   7.606   6.587 -0.0350 -1.1636 -0.0384
  280MOL0     C37671   1.352   7.508   6.534  0.8506 -0.3506 -0.3177
  280MOL0     C37672   1.343   7.375   6.564  1.1390  0.0520 -0.6192
  280MOL0     O37673   1.442   7.295   6.523 -0.1892  0.0905  1.0109
  280MOL0     C37674   1.444   7.153   6.556 -0.1849 -0.1400  0.1243
  280MOL0     C37675   1.502   7.107   6.693  0.5204  0.0253 -0.1462
  280MOL0     C37676   1.625   7.180   6.740  0.7018  0.4841  1.2816
  280MOL0     C37677   1.752   7.140   6.666  0.0498 -0.2109  0.0196
  280MOL0     C37678   1.876   7.189   6.730 -0.0424  0.3295  0.3772
  280MOL0     C37679   1.990   7.129   6.652 -0.2556 -0.0192  0.2117
  280MOL0     C37680   2.118   7.129   6.735 -0.6817  0.1192 -0.1798
  280MOL0     C37681   2.133   7.013   6.846 -0.0759  0.4105  0.2147
  280MOL0     N37682   2.247   7.055   6.938 -0.0084 -0.9914 -0.0376
  280MOL0     C37683   2.380   7.027   6.902  1.0622 -0.4780  0.3236
  280MOL0     C37684   2.441   7.074   7.018 -0.2802  0.0122  0.1428
  280MOL0     C37685   2.592   7.078   7.049  0.4674 -0.2833 -0.5384
  280MOL0     C37686   2.622   7.017   7.190 -0.8158 -0.2263  0.7297
  280MOL0     C37687   2.769   6.967   7.183 -0.2554  0.7290 -0.8207
  280MOL0     C37688   2.828   6.935   7.329 -0.4873 -0.3950  0.1083
  280MOL0     O37689   2.977   6.929   7.315 -0.1259  0.2362 -0.5253
  280MOL0     C37690   3.048   7.045   7.290  0.0021  0.5147  0.1825
  280MOL0     C37691   3.168   7.029   7.229  0.1542 -0.0532 -0.0971
  280MOL0     C37692   3.255   7.139   7.208  0.6869  0.3029 -0.3933
  280MOL0     C37693   3.386   7.099   7.139  0.2923 -0.3589  0.1039
  280MOL0     C37694   3.202   7.270   7.226 -0.0990 -0.3982 -0.2151
  280MOL0     C37695   3.282   7.397   7.179 -0.0516  0.9344  1.2098
  280MOL0     O37696   3.368   7.377   7.071  0.5813  0.9379  0.2309
  280MOL0     C37697   3.452   7.471   7.034 -0.0947 -0.2624 -0.4880
  280MOL0     C37698   3.405   7.573   6.969 -0.6699 -0.4056  0.0404
  280MOL0     C37699   3.479   7.689   6.951  0.6849  0.0743 -0.5469
  280MOL0     C37700   3.619   7.687   6.983  0.7764 -0.6725  0.2894
  280MOL0     O37701   3.694   7.798   6.960 -0.1276  0.7399  0.3211
  280MOL0     C37702   3.828   7.812   7.018  0.5970  0.0576 -0.9649
  280MOL0     C37703   3.882   7.957   7.018 -0.1824 -0.1697  0.2134
  280MOL0     C37704   4.029   7.971   7.036 -0.0296  0.6677  0.4924
  280MOL0     C37705   4.079   8.113   7.063  0.5777 -0.3324 -0.4996
  280MOL0     C37706   4.233   8.133   7.086  0.3170  0.7394  0.0543
  280MOL0     C37707   4.305   8.144   6.945  0.2919  0.0926  0.3445
  280MOL0     C37708   4.450   8.191   6.955  0.3963 -0.2330 -0.8601
  280MOL0     C37709   4.471   8.337   7.006 -0.6007 -0.4944 -0.3095
  280MOL0    Cl37710   4.651   8.382   6.994  0.4068 -0.4751 -0.4160
  280MOL0     C37711   3.659   7.576   7.054  0.1556 -1.2465 -0.2850
  280MOL0     C37712   3.588   7.463   7.074  0.6462 -0.6557 -0.4665
  280MOL0     O37713   3.273   7.503   7.242 -0.2425  0.0338 -0.2067
  280MOL0     C37714   3.087   7.290   7.303  0.1113 -0.2761  0.3697
  280MOL0     C37715   3.015   7.176   7.335 -0.2538  0.6000 -0.5073
  280MOL0     N37716   2.349   7.111   7.108  0.0256 -0.6103  0.1317
  280MOL0     N37717   2.226   7.112   7.063 -0.2994  0.2810 -0.6316
  280MOL0     C37718   1.250   7.344   6.669 -0.4718  1.2655  0.5200
  280MOL0     C37719   1.164   7.441   6.734  0.2694 -0.0758  1.5125
  280MOL0     C37720   0.899   7.829   6.690 -0.1501  0.5067 -0.2238
  280MOL0     C37721   0.786   7.872   6.611  0.1672 -0.8827 -0.4730
  280MOL0     C37722   0.727   7.992   6.627  0.2397  1.6158 -0.3249
  280MOL0     C37723   0.764   8.078   6.723 -0.4216  0.2622 -0.9110
  280MOL0     O37724   0.713   8.199   6.737 -0.2522  0.4767 -0.6582
  280MOL0     C37725   0.574   8.211   6.730 -0.0062 -0.0025 -0.2420
  280MOL0     C37726   0.551   8.324   6.830  0.8035  0.2170 -1.1834
  280MOL0     C37727   0.600   8.458   6.772 -0.3794  0.2379  0.3868
  280MOL0     C37728   0.527   8.580   6.832  0.2836 -0.1656 -0.4889
  280MOL0     C37729   0.529   8.580   6.979  0.2475  0.3860  0.3906
  280MOL0     C37730   0.533   8.565   7.098 -0.3329 -0.2411 -0.9396
  280MOL0     C37731   0.862   8.040   6.806 -0.4455  0.1468 -0.6100
  280MOL0     C37732   0.932   7.924   6.786 -0.8275  0.1635 -0.1410
  280MOL0     H37733   1.277   7.707   6.548 -0.6511 -0.8783  0.5072
  280MOL0     H37734   1.433   7.538   6.468  2.2493  0.2706  1.6142
  280MOL0     H37735   1.340   7.118   6.552 -0.6487  1.1307  0.3135
  280MOL0     H37736   1.500   7.101   6.478  0.4483  2.1434 -1.0499
  280MOL0     H37737   1.422   7.127   6.765  0.9172  0.1650  0.2585
  280MOL0     H37738   1.521   7.000   6.687  0.8451  0.1335 -1.4394
  280MOL0     H37739   1.616   7.289   6.741 -1.1771  0.3921 -0.5014
  280MOL0     H37740   1.640   7.160   6.847 -2.6581 -4.4119  1.1746
  280MOL0     H37741   1.761   7.031   6.655  0.6757 -0.0421 -1.5633
  280MOL0     H37742   1.758   7.188   6.568 -2.4130  0.7021  0.2499
  280MOL0     H37743   1.884   7.297   6.717 -3.6077  1.0669  2.7917
  280MOL0     H37744   1.887   7.168   6.837  1.5808  1.3976  0.4614
  280MOL0     H37745   1.966   7.024   6.630  1.1145 -0.5693  1.2008
  280MOL0     H37746   2.005   7.171   6.552  1.5749  2.1272  1.3264
  280MOL0     H37747   2.195   7.109   6.659 -1.1264 -1.4059 -0.2747
  280MOL0     H37748   2.139   7.223   6.786  2.0032 -1.0544  1.0990
  280MOL0     H37749   2.166   6.918   6.804  1.4130  0.6404  0.7865
  280MOL0     H37750   2.031   7.009   6.886  0.1062  2.3110  0.9634
  280MOL0     H37751   2.423   7.006   6.804 -1.5198  1.3676 -1.3332
  280MOL0     H37752   2.636   7.012   6.974 -0.6680  1.2344 -2.6567
  280MOL0     H37753   2.633   7.179   7.036  0.4071 -0.4050 -1.7784
  280MOL0     H37754   2.554   6.931   7.194 -3.2195  1.2012 -3.2991
  280MOL0     H37755   2.600   7.078   7.277 -1.1627  1.1904 -0.3162
  280MOL0     H37756   2.820   7.057   7.147  0.5540 -0.4321 -2.6980
  280MOL0     H37757   2.772   6.885   7.111 -0.6363  0.1094 -0.1468
  280MOL0     H37758   2.792   6.840   7.369  0.4395 -1.7154 -1.9966
  280MOL0     H37759   2.806   7.011   7.404  1.3594 -1.0589  1.3881
  280MOL0     H37760   3.207   6.930   7.205  1.6673 -0.3597  3.1105
  280MOL0     H37761   3.377   7.097   7.030  3.9220  1.0264 -0.3624
  280MOL0     H37762   3.463   7.169   7.172 -0.3494 -0.0883  1.0684
  280MOL0     H37763   3.427   7.002   7.168  0.7302  0.5402  2.7881
  280MOL0     H37764   3.301   7.561   6.939 -0.0633 -1.0284 -2.0291
  280MOL0     H37765   3.437   7.769   6.891 -4.0771 -0.7501  1.2356
  280MOL0     H37766   3.817   7.788   7.124  0.6441  0.5651 -0.8435
  280MOL0     H37767   3.909   7.750   6.978 -0.1958 -0.4953 -1.7509
  280MOL0     H37768   3.852   8.017   6.931 -0.5014  1.5696  1.4592
  280MOL0     H37769   3.833   7.999   7.106  0.0543 -0.8883  0.6986
  280MOL0     H37770   4.095   7.933   6.957  2.4023 -1.4414  3.3147
  280MOL0     H37771   4.054   7.915   7.126 -0.6293 -1.4673 -0.6020
  280MOL0     H37772   4.038   8.180   6.987  0.0757  0.0078  0.0670
  280MOL0     H37773   4.020   8.145   7.150 -2.6912 -4.5915 -0.7834
  280MOL0     H37774   4.276   8.051   7.144 -2.3338 -0.3197  0.6659
  280MOL0     H37775   4.258   8.216   7.154 -2.8243 -0.6592  3.2156
  280MOL0     H37776   4.300   8.040   6.912 -1.2928 -0.7640  2.8971
  280MOL0     H37777   4.238   8.210   6.889 -0.9476 -1.5970 -0.2466
  280MOL0     H37778   4.499   8.183   6.858 -2.1635 -1.3574 -2.1323
  280MOL0     H37779   4.500   8.123   7.025  0.0301 -0.4511 -0.8100
  280MOL0     H37780   4.443   8.347   7.112 -1.9438 -1.1056 -0.5895
  280MOL0     H37781   4.408   8.413   6.959 -0.3623  1.0342  1.6735
  280MOL0     H37782   3.758   7.586   7.097 -0.9802 -0.2932  2.3022
  280MOL0     H37783   3.627   7.380   7.133  1.2373 -1.0612 -1.4064
  280MOL0     H37784   3.054   7.389   7.331 -0.7201 -0.0871 -1.1723
  280MOL0     H37785   2.950   7.187   7.421 -1.7890 -3.0216 -1.0045
  280MOL0     H37786   1.245   7.240   6.700  1.0400  0.5463 -1.4431
  280MOL0     H37787   1.092   7.414   6.810 -0.7993  0.9987  0.9054
  280MOL0     H37788   0.765   7.825   6.515  2.6879 -1.1079 -0.9972
  280MOL0     H37789   0.644   8.014   6.561 -1.5651  2.0082  1.9338
  280MOL0     H37790   0.537   8.234   6.630 -0.8887 -0.3333 -0.0019
  280MOL0     H37791   0.527   8.118   6.764  0.3997 -0.3252 -0.5585
  280MOL0     H37792   0.588   8.296   6.929 -0.8183 -0.3943 -0.7138
  280MOL0     H37793   0.443   8.330   6.844  0.7847  0.0492 -1.2591
  280MOL0     H37794   0.592   8.473   6.664  1.1499 -1.2168  0.0294
  280MOL0     H37795   0.708   8.453   6.786 -0.5407 -1.3196  1.2833
  280MOL0     H37796   0.424   8.570   6.796  0.0281  0.8322 -0.0577
  280MOL0     H37797   0.570   8.676   6.804  2.0648 -0.6738  0.3341
  280MOL0     H37798   0.529   8.565   7.205  1.2964  0.4101 -0.8451
  280MOL0     H37799   0.907   8.093   6.890  1.6406 -0.1372 -1.4730
  280MOL0     H37800   1.025   7.904   6.839 -0.9830  0.0526  0.0950
  281MOL0     O37801   8.210   5.690  10.177 -0.1389  0.1931  0.6077
  281MOL0     C37802   8.283   5.630  10.102  0.7327 -0.3350 -1.3074
  281MOL0     O37803   8.250   5.510  10.035 -0.3799 -0.1920 -0.0233
  281MOL0     C37804   8.119   5.478  10.018  0.2937 -0.1646  0.2555
  281MOL0     C37805   8.040   5.446  10.125 -0.2865  1.0821 -1.0844
  281MOL0     C37806   7.918   5.373  10.106 -0.2486 -0.3730  1.0250
  281MOL0     C37807   7.868   5.343   9.972 -1.2190 -1.1214  0.4126
  281MOL0     O37808   7.745   5.290   9.945  1.4274 -0.5796 -0.1138
  281MOL0     C37809   7.638   5.376   9.980 -0.6968 -1.3181 -0.7028
  281MOL0     C37810   7.516   5.289   9.990  0.1134  0.7861 -0.5613
  281MOL0     C37811   7.381   5.366   9.988 -0.2909  1.0828  0.1584
  281MOL0     C37812   7.255   5.267   9.994 -0.2626  0.2001  0.0698
  281MOL0     C37813   7.249   5.199  10.138  0.1861 -0.4699 -0.0114
  281MOL0     C37814   7.110   5.145  10.180 -0.4472  1.0355  0.6712
  281MOL0     C37815   7.112   5.113  10.322 -0.4265 -0.1417 -0.6507
  281MOL0     C37816   7.010   4.997  10.352 -0.5116  0.4279  0.2204
  281MOL0     N37817   6.876   5.034  10.309  0.1387  0.0760 -0.0133
  281MOL0     C37818   6.804   5.153  10.345  0.0103  0.9882  0.3874
  281MOL0     C37819   6.679   5.128  10.290 -1.1536 -0.6225  0.0248
  281MOL0     C37820   6.559   5.213  10.289 -0.2658 -0.2981  0.4220
  281MOL0     C37821   6.579   5.326  10.191 -0.2571  0.9328 -0.2238
  281MOL0     C37822   6.479   5.439  10.208 -0.1683  1.1253 -0.1446
  281MOL0     C37823   6.502   5.547  10.103  0.2625  0.0757 -0.6724
  281MOL0     O37824   6.636   5.606  10.113 -0.0129  0.0440 -0.7288
  281MOL0     C37825   6.693   5.662   9.998  0.9770  0.2324  0.6528
  281MOL0     C37826   6.834   5.675   9.995  0.5721 -0.0507 -0.7185
  281MOL0     C37827   6.901   5.735   9.885 -0.5425 -0.0181  0.1588
  281MOL0     C37828   7.049   5.746   9.907 -0.0723 -0.6347 -0.2966
  281MOL0     C37829   6.833   5.780   9.770 -0.6845  0.2701 -0.1854
  281MOL0     C37830   6.902   5.833   9.644  0.1143  1.0530 -0.0945
  281MOL0     O37831   6.829   5.903   9.551 -0.3141 -0.0726  0.2358
  281MOL0     C37832   6.881   5.997   9.464  0.4662  0.1053 -0.2078
  281MOL0     C37833   6.797   6.027   9.362  0.8935 -1.0492 -0.0140
  281MOL0     C37834   6.833   6.127   9.271  0.2454 -0.1886  0.8824
  281MOL0     C37835   6.951   6.197   9.287  0.4161 -0.3933 -0.5835
  281MOL0     O37836   6.998   6.294   9.203  0.3993  0.5161  0.4314
  281MOL0     C37837   6.910   6.373   9.122  0.4428 -0.2089 -0.7066
  281MOL0     C37838   6.994   6.480   9.057 -0.2841 -0.6591  1.3696
  281MOL0     C37839   6.905   6.573   8.968  0.5829  0.3927 -0.1927
  281MOL0     C37840   6.870   6.507   8.829  0.2195  0.0773 -0.3621
  281MOL0     C37841   6.756   6.583   8.749 -0.1475 -0.5298  0.2211
  281MOL0     C37842   6.792   6.724   8.708 -0.5668 -0.2889  0.4709
  281MOL0     C37843   6.915   6.723   8.618  0.8125 -0.2921 -0.2510
  281MOL0     C37844   6.922   6.856   8.545 -0.6086  0.5274  0.2941
  281MOL0    Cl37845   7.059   6.833   8.433  0.4943 -0.4967 -0.1879
  281MOL0     C37846   7.042   6.158   9.386  0.5930  0.0888 -0.0338
  281MOL0     C37847   7.008   6.056   9.479 -0.4502  0.0261  1.0801
  281MOL0     O37848   7.026   5.804   9.634  1.5374 -0.1770  0.2634
  281MOL0     C37849   6.692   5.757   9.766 -0.8913 -0.4225 -0.6189
  281MOL0     C37850   6.622   5.698   9.875  0.0870  0.1516 -0.1221
  281MOL0     N37851   6.685   5.009  10.225  0.3665 -0.0791  1.5270
  281MOL0     N37852   6.797   4.956  10.224 -0.1977 -0.1324 -0.4218
  281MOL0     C37853   7.946   5.386   9.858 -0.6262  0.3313 -0.4268
  281MOL0     C37854   8.076   5.450   9.881 -0.0578 -0.9358  0.6480
  281MOL0     C37855   8.427   5.660  10.104 -0.2238  0.8128 -0.3478
  281MOL0     C37856   8.484   5.738  10.201 -0.2177 -0.4014 -0.2274
  281MOL0     C37857   8.618   5.768  10.207  0.3064  0.2158 -0.9417
  281MOL0     C37858   8.705   5.705  10.119  0.8394 -1.0336  0.4397
  281MOL0     O37859   8.835   5.708  10.109  0.2715  0.1635  0.0160
  281MOL0     C37860   8.910   5.749  10.220 -0.1969  1.6213  0.0429
  281MOL0     C37861   8.919   5.638  10.330 -0.0741  0.8904 -0.4764
  281MOL0     C37862   8.943   5.708  10.468 -0.2071 -0.5451  0.1383
  281MOL0     C37863   9.005   5.604  10.564  0.5571 -0.1979  0.4669
  281MOL0     C37864   8.905   5.495  10.596 -0.0819 -0.0183 -0.0914
  281MOL0     C37865   8.820   5.420  10.619  0.5154  0.4417  0.0116
  281MOL0     C37866   8.647   5.627  10.019 -0.5722  0.7300 -0.3967
  281MOL0     C37867   8.514   5.598  10.015  0.4745 -0.1758 -0.0395
  281MOL0     H37868   8.088   5.472  10.219  0.1357 -1.2976 -0.5872
  281MOL0     H37869   7.878   5.358  10.206  0.8095  0.1006  1.5358
  281MOL0     H37870   7.654   5.433  10.072  1.2584 -1.6661 -0.7832
  281MOL0     H37871   7.631   5.457   9.906 -1.1165  0.6463  1.3953
  281MOL0     H37872   7.517   5.226   9.900  1.5082 -0.5269  0.3328
  281MOL0     H37873   7.529   5.235  10.084 -0.0260  2.7373  0.6269
  281MOL0     H37874   7.379   5.443  10.066  1.5393  0.3811  0.9701
  281MOL0     H37875   7.377   5.420   9.893  2.0324  0.1096 -0.5760
  281MOL0     H37876   7.165   5.329   9.988 -0.4932 -0.2711 -2.4378
  281MOL0     H37877   7.256   5.197   9.911  1.9335  0.9400 -0.5912
  281MOL0     H37878   7.322   5.118  10.147 -1.8831 -2.3913  0.3390
  281MOL0     H37879   7.287   5.279  10.202  0.0271 -0.3269 -0.0952
  281MOL0     H37880   7.031   5.218  10.161 -1.8323 -0.9408 -2.0034
  281MOL0     H37881   7.088   5.054  10.123 -1.0978  1.2134  0.6298
  281MOL0     H37882   7.212   5.078  10.349  0.2552  1.7127 -0.6374
  281MOL0     H37883   7.091   5.207  10.373  2.3160 -1.0581  2.4930
  281MOL0     H37884   7.001   4.975  10.459  1.9982  1.1459  0.6447
  281MOL0     H37885   7.036   4.905  10.298  0.0843  1.1964 -0.8465
  281MOL0     H37886   6.826   5.230  10.417 -1.6242 -0.2831  2.3716
  281MOL0     H37887   6.469   5.156  10.267  0.3262 -0.9921 -0.2268
  281MOL0     H37888   6.560   5.267  10.385  0.0441  2.0581 -0.8191
  281MOL0     H37889   6.569   5.278  10.093  1.8975 -0.3018  0.0993
  281MOL0     H37890   6.682   5.362  10.199 -0.3839  1.3936 -0.5877
  281MOL0     H37891   6.505   5.490  10.302 -0.4185  0.5003  0.2745
  281MOL0     H37892   6.378   5.398  10.217  0.3271 -0.9177 -2.8975
  281MOL0     H37893   6.422   5.621  10.117 -2.9151 -2.8020 -2.0643
  281MOL0     H37894   6.490   5.496  10.007 -0.9406 -3.2374  1.0937
  281MOL0     H37895   6.881   5.641  10.087 -1.5749 -2.1601 -0.2980
  281MOL0     H37896   7.107   5.825   9.860  0.8482  1.1348  3.4406
  281MOL0     H37897   7.064   5.754  10.015 -2.8326  1.2992  0.0414
  281MOL0     H37898   7.097   5.648   9.898  1.4919 -0.1959  2.3281
  281MOL0     H37899   6.708   5.968   9.344 -0.0167  0.6137 -1.2881
  281MOL0     H37900   6.777   6.150   9.181  0.9076  1.9339  0.9608
  281MOL0     H37901   6.860   6.313   9.045 -0.9417  0.4688 -0.3574
  281MOL0     H37902   6.839   6.422   9.189 -1.5234 -1.4462 -1.7825
  281MOL0     H37903   7.046   6.547   9.126  1.8083 -0.7339 -0.0729
  281MOL0     H37904   7.073   6.432   9.000 -0.1823 -0.3794  1.2726
  281MOL0     H37905   6.955   6.670   8.957  0.8947  0.1362 -1.0933
  281MOL0     H37906   6.814   6.597   9.024  0.8001  1.6903 -0.3698
  281MOL0     H37907   6.964   6.490   8.776  2.1874 -0.6599  3.0683
  281MOL0     H37908   6.824   6.415   8.864  1.3604 -0.2700  0.2646
  281MOL0     H37909   6.676   6.601   8.821  0.6636  1.5332  0.6681
  281MOL0     H37910   6.720   6.526   8.663 -0.0629 -0.2471 -0.0002
  281MOL0     H37911   6.708   6.782   8.667 -0.5460  1.6171  2.8761
  281MOL0     H37912   6.813   6.767   8.806 -0.6970 -3.2737  1.9083
  281MOL0     H37913   6.905   6.646   8.540 -1.8911  2.7995 -3.2632
  281MOL0     H37914   6.999   6.699   8.684 -0.4036  1.4977  2.1051
  281MOL0     H37915   6.936   6.941   8.613  0.3235  0.2324  0.4774
  281MOL0     H37916   6.836   6.858   8.477 -0.3951  0.1909  0.0089
  281MOL0     H37917   7.135   6.210   9.405 -1.6633  3.9922  1.3501
  281MOL0     H37918   7.088   6.036   9.550 -0.9742 -0.0507  1.6483
  281MOL0     H37919   6.631   5.796   9.686 -0.6506  4.2287  1.1509
  281MOL0     H37920   6.516   5.677   9.865 -0.1573  1.9367 -1.6472
  281MOL0     H37921   7.899   5.379   9.760  0.1969 -0.3570 -0.7822
  281MOL0     H37922   8.136   5.482   9.797 -1.8809 -0.2544 -0.4352
  281MOL0     H37923   8.420   5.773  10.281 -1.3423  0.2442 -1.3744
  281MOL0     H37924   8.656   5.836  10.282 -0.7794 -0.1511 -0.0268
  281MOL0     H37925   9.013   5.771  10.189 -0.3587  1.2829 -0.7371
  281MOL0     H37926   8.874   5.841  10.267  3.4742  4.0727 -1.4922
  281MOL0     H37927   8.992   5.562  10.301  0.5722  0.6512  1.5711
  281MOL0     H37928   8.823   5.591  10.351  1.4670 -2.3419  0.0845
  281MOL0     H37929   8.850   5.746  10.511 -0.7477  1.8299 -2.8216
  281MOL0     H37930   9.022   5.783  10.460  2.7775 -3.2498  1.7110
  281MOL0     H37931   9.051   5.655  10.649  2.7618 -2.0724  0.4965
  281MOL0     H37932   9.096   5.570  10.515 -1.1776 -1.6735 -1.9402
  281MOL0     H37933   8.746   5.353  10.657  0.8990  0.3740  0.6700
  281MOL0     H37934   8.710   5.590   9.939  1.6179 -1.1379  2.0203
  281MOL0     H37935   8.470   5.532   9.942  1.0251 -0.1069 -0.4426
  282MOL0     O37936   9.331  10.951   2.644  0.5422 -0.0574 -0.2680
  282MOL0     C37937   9.326  10.859   2.562  0.3588 -0.3089  0.2722
  282MOL0     O37938   9.212  10.806   2.508 -0.2751  1.0332  0.3526
  282MOL0     C37939   9.095  10.864   2.545 -0.3382 -0.1470 -0.5705
  282MOL0     C37940   9.022  10.954   2.463  0.3948 -0.5088 -0.7356
  282MOL0     C37941   8.906  11.011   2.510 -0.2258 -0.0418 -0.2239
  282MOL0     C37942   8.864  11.005   2.644 -0.3267 -0.0421  0.5265
  282MOL0     O37943   8.744  11.064   2.683 -0.2455  0.2719  0.0287
  282MOL0     C37944   8.768  11.154   2.798  0.9615  0.4058  0.3205
  282MOL0     C37945   8.686  11.101   2.921 -0.6434 -0.4937 -0.7656
  282MOL0     C37946   8.534  11.126   2.942  0.5444 -0.3215 -0.7398
  282MOL0     C37947   8.457  11.130   2.808 -1.2014  0.6756 -0.6006
  282MOL0     C37948   8.307  11.147   2.823  0.3028  0.0389 -0.0328
  282MOL0     C37949   8.256  11.294   2.782  1.3235 -0.3319 -0.1533
  282MOL0     C37950   8.102  11.326   2.820 -0.0773 -0.3094  0.3546
  282MOL0     C37951   8.003  11.212   2.777 -0.4235 -0.9727  0.4456
  282MOL0     N37952   7.872  11.241   2.841  0.2027 -0.4714 -0.3300
  282MOL0     C37953   7.839  11.229   2.970 -0.1762  0.0283  0.1714
  282MOL0     C37954   7.702  11.258   2.971 -0.1806  0.0633 -0.3221
  282MOL0     C37955   7.607  11.267   3.084 -0.5252  0.3013  0.1082
  282MOL0     C37956   7.584  11.413   3.148  0.5338 -0.0370 -0.0493
  282MOL0     C37957   7.706  11.500   3.176 -0.3349 -0.2737  0.1820
  282MOL0     C37958   7.799  11.439   3.289  0.0137  0.3983 -0.0857
  282MOL0     O37959   7.891  11.336   3.246  0.0671 -0.8921  0.3203
  282MOL0     C37960   8.025  11.377   3.246  0.4922 -0.0497  0.0462
  282MOL0     C37961   8.119  11.284   3.270 -0.3936  0.1142 -0.7334
  282MOL0     C37962   8.251  11.303   3.278 -0.5913 -0.4322 -0.7105
  282MOL0     C37963   8.331  11.185   3.324 -0.8591  0.3405  0.0765
  282MOL0     C37964   8.303  11.430   3.247 -0.0337  0.8341 -0.4944
  282MOL0     C37965   8.443  11.465   3.218 -0.2748  0.9535 -0.2089
  282MOL0     O37966   8.533  11.372   3.259 -0.0058 -0.1024  0.3418
  282MOL0     C37967   8.666  11.387   3.228  1.1062 -0.5967 -0.0151
  282MOL0     C37968   8.713  11.405   3.106  0.5868 -0.3135  0.2481
  282MOL0     C37969   8.849  11.393   3.078 -0.0291  0.7690 -0.3431
  282MOL0     C37970   8.939  11.358   3.181  0.1636 -0.2859  0.2377
  282MOL0     O37971   9.069  11.339   3.139 -0.1368  1.0016  0.1127
  282MOL0     C37972   9.142  11.245   3.221  0.7152 -0.8263  0.3571
  282MOL0     C37973   9.248  11.175   3.123  1.0743 -0.0036 -0.0689
  282MOL0     C37974   9.372  11.261   3.141  0.0075 -0.3028  0.1978
  282MOL0     C37975   9.485  11.207   3.061 -1.0449  0.3491  0.1032
  282MOL0     C37976   9.614  11.283   3.080  0.1865 -0.5328 -0.2068
  282MOL0     C37977   9.731  11.190   3.067 -0.3906 -0.2553  0.1079
  282MOL0     C37978   9.872  11.253   3.059 -0.1238 -0.3195 -0.1311
  282MOL0     C37979   9.974  11.146   3.077 -0.2947  0.4649 -0.1784
  282MOL0    Cl37980   9.974  11.097   3.250  0.2839  0.0221 -0.5333
  282MOL0     C37981   8.891  11.358   3.311 -0.2928  0.4915  0.3000
  282MOL0     C37982   8.754  11.360   3.329  0.6820 -0.8589 -0.8836
  282MOL0     O37983   8.473  11.580   3.182  0.0243 -0.0516 -0.1458
  282MOL0     C37984   8.205  11.531   3.213 -1.6113 -0.3277 -0.5419
  282MOL0     C37985   8.068  11.509   3.210 -0.1594  0.1987 -0.0010
  282MOL0     N37986   7.659  11.302   2.843  0.0491  0.1464 -0.0481
  282MOL0     N37987   7.765  11.289   2.766 -0.1678 -0.3048  0.0226
  282MOL0     C37988   8.937  10.919   2.721 -0.0381 -0.1349 -1.1998
  282MOL0     C37989   9.049  10.845   2.671  0.8589 -0.6088  0.1304
  282MOL0     C37990   9.448  10.787   2.519 -0.5961 -0.7014  0.1662
  282MOL0     C37991   9.438  10.648   2.494 -0.0486  0.7332 -0.3598
  282MOL0     C37992   9.551  10.573   2.464  0.4039 -0.5056 -0.8024
  282MOL0     C37993   9.668  10.643   2.442  0.4606  0.3228 -0.8640
  282MOL0     O37994   9.784  10.586   2.405 -0.3427 -0.0604  0.5881
  282MOL0     C37995   9.789  10.474   2.314 -0.3817  0.0964 -0.6005
  282MOL0     C37996   9.718  10.486   2.178  0.6991 -1.1218 -0.8186
  282MOL0     C37997   9.739  10.361   2.098  0.6926  0.5662  0.8367
  282MOL0     C37998   9.687  10.229   2.162  0.6417  0.3238  0.1977
  282MOL0     C37999   9.546  10.249   2.204  0.4656  0.0267  0.1998
  282MOL0     C38000   9.430  10.265   2.243 -0.0671  0.1379 -0.6598
  282MOL0     C38001   9.678  10.785   2.463 -0.1200 -0.0036  0.2343
  282MOL0     C38002   9.565  10.858   2.503 -0.6080 -0.4590  0.2244
  282MOL0     H38003   9.058  10.979   2.364  0.0236  1.8640 -0.3116
  282MOL0     H38004   8.851  11.062   2.431 -0.0393  0.2241 -0.1845
  282MOL0     H38005   8.869  11.155   2.839  1.4507 -1.4593 -0.7367
  282MOL0     H38006   8.736  11.256   2.773  2.4140  0.1797 -3.1012
  282MOL0     H38007   8.693  10.991   2.925 -1.0286 -0.5683 -1.7476
  282MOL0     H38008   8.733  11.140   3.012 -0.7280 -0.0401 -0.9153
  282MOL0     H38009   8.490  11.046   3.003  1.9950 -1.1436 -0.7118
  282MOL0     H38010   8.510  11.218   2.995 -1.3668 -0.3322 -1.4948
  282MOL0     H38011   8.487  11.208   2.737 -3.0436  0.4899 -1.6357
  282MOL0     H38012   8.471  11.032   2.762 -0.4215 -0.6272  2.1778
  282MOL0     H38013   8.271  11.078   2.747  1.4589 -1.0096  0.3250
  282MOL0     H38014   8.279  11.118   2.925  0.1297  1.6689  0.4184
  282MOL0     H38015   8.328  11.358   2.835  2.4401 -1.0884 -0.7017
  282MOL0     H38016   8.271  11.306   2.674  1.1497 -1.8492 -0.3686
  282MOL0     H38017   8.095  11.346   2.928  1.7649  0.8669  0.3031
  282MOL0     H38018   8.075  11.419   2.769 -0.3676  0.9998  2.7249
  282MOL0     H38019   8.039  11.112   2.803  0.1312 -0.8950  0.0048
  282MOL0     H38020   7.989  11.217   2.669  0.4334 -3.9275  0.0924
  282MOL0     H38021   7.900  11.187   3.050 -2.1555 -2.9287  0.3044
  282MOL0     H38022   7.511  11.232   3.045 -0.5189  2.6930 -2.3888
  282MOL0     H38023   7.657  11.202   3.157  0.5408  0.0830 -0.7856
  282MOL0     H38024   7.528  11.396   3.240 -0.5527  0.4597 -0.6105
  282MOL0     H38025   7.506  11.460   3.087 -1.5630  1.0478  3.2432
  282MOL0     H38026   7.670  11.600   3.203  1.3960  0.9589 -1.7719
  282MOL0     H38027   7.752  11.528   3.080 -0.4238  0.2001  0.2736
  282MOL0     H38028   7.738  11.392   3.366 -0.9261  0.9744 -0.4591
  282MOL0     H38029   7.844  11.533   3.324 -0.2356  0.1683  0.8562
  282MOL0     H38030   8.079  11.188   3.300 -1.9212 -0.4552 -4.0661
  282MOL0     H38031   8.401  11.212   3.404 -1.8797  0.0913  1.0789
  282MOL0     H38032   8.258  11.113   3.362 -1.7550 -0.2886 -2.6009
  282MOL0     H38033   8.388  11.131   3.248  0.1822  0.8139  0.4983
  282MOL0     H38034   8.638  11.434   3.032  0.4277  3.7216  1.7158
  282MOL0     H38035   8.881  11.385   2.974 -1.5746 -4.1502 -0.7055
  282MOL0     H38036   9.191  11.298   3.304  0.9977  2.2749 -1.6322
  282MOL0     H38037   9.082  11.156   3.245 -0.8719  0.0583 -0.1657
  282MOL0     H38038   9.285  11.081   3.164 -0.5397 -1.8092 -2.4729
  282MOL0     H38039   9.220  11.152   3.020  1.1648 -2.9759  0.4876
  282MOL0     H38040   9.396  11.272   3.247  1.0522 -1.3038  0.0764
  282MOL0     H38041   9.347  11.364   3.113 -0.2909 -0.4310 -0.0161
  282MOL0     H38042   9.503  11.101   3.085 -3.7902 -1.3820 -4.2706
  282MOL0     H38043   9.463  11.206   2.954  3.1650  0.3548 -0.9499
  282MOL0     H38044   9.608  11.329   3.179 -0.1473 -1.6819  0.3138
  282MOL0     H38045   9.619  11.364   3.006 -0.6444  2.1942  2.5401
  282MOL0     H38046   9.726  11.121   3.152 -0.1638 -2.0576 -1.2717
  282MOL0     H38047   9.724  11.122   2.983  1.1825 -0.7963  0.3727
  282MOL0     H38048   9.895  11.338   3.125 -0.3810 -0.7952  0.5833
  282MOL0     H38049   9.874  11.287   2.955  0.2599 -1.6573 -0.5789
  282MOL0     H38050  10.072  11.185   3.048  0.2320 -0.3202  0.4724
  282MOL0     H38051   9.943  11.056   3.021 -1.9056 -0.4637  2.0584
  282MOL0     H38052   8.959  11.340   3.394 -0.7519 -1.4769  0.3144
  282MOL0     H38053   8.700  11.337   3.420  1.2040 -3.0074 -1.0547
  282MOL0     H38054   8.242  11.630   3.192  0.6532 -0.9602  0.2132
  282MOL0     H38055   7.991  11.574   3.170 -1.0412 -1.8037 -1.7195
  282MOL0     H38056   8.917  10.914   2.827  2.0068 -1.5250 -0.8197
  282MOL0     H38057   9.096  10.773   2.737 -1.3549 -1.5567  0.7424
  282MOL0     H38058   9.339  10.602   2.493 -0.6280  1.9568 -0.4394
  282MOL0     H38059   9.554  10.465   2.451  0.7932 -0.3177 -2.5531
  282MOL0     H38060   9.896  10.458   2.298 -0.1024  1.9249 -0.7290
  282MOL0     H38061   9.754  10.383   2.362  1.2350 -1.8894 -2.9334
  282MOL0     H38062   9.746  10.582   2.134 -1.6713  0.2907  0.4866
  282MOL0     H38063   9.609  10.490   2.191  0.6013 -1.8157 -1.3659
  282MOL0     H38064   9.842  10.332   2.077  0.4743 -2.0842  2.8816
  282MOL0     H38065   9.696  10.385   2.000 -0.5646  1.1845  1.5183
  282MOL0     H38066   9.757  10.192   2.238  0.5960 -0.8534 -0.3222
  282MOL0     H38067   9.676  10.147   2.092  0.1953  3.2565 -3.4602
  282MOL0     H38068   9.337  10.279   2.294 -0.3211  0.9284 -1.3104
  282MOL0     H38069   9.776  10.831   2.465  0.5134 -1.1994 -1.5003
  282MOL0     H38070   9.566  10.965   2.520 -1.1952 -0.3285 -0.4888
  283MOL0     O38071  10.484   2.761   2.470  0.0388  0.4426  0.0010
  283MOL0     C38072  10.502   2.775   2.345 -0.3922 -0.9158 -0.6060
  283MOL0     O38073  10.622   2.781   2.280 -0.7010  0.2261 -0.6408
  283MOL0     C38074  10.747   2.805   2.340 -0.6657  0.3396  0.0074
  283MOL0     C38075  10.759   2.875   2.458  0.0694 -0.2550  0.0437
  283MOL0     C38076  10.892   2.895   2.509  0.9396 -0.0015 -0.2713
  283MOL0     C38077  11.005   2.848   2.435 -0.8768  1.0288 -0.9215
  283MOL0     O38078  11.136   2.865   2.482  1.2032  0.2771  0.3623
  283MOL0     C38079  11.154   2.937   2.612  0.1637 -0.0152 -0.6158
  283MOL0     C38080  11.299   2.928   2.651  0.2987  0.2507  0.3287
  283MOL0     C38081  11.400   2.914   2.532  0.1833 -0.8583 -0.5890
  283MOL0     C38082  11.402   3.017   2.418 -0.7456  0.9089  0.3089
  283MOL0     C38083  11.531   3.001   2.333 -0.3218  0.3452  0.1685
  283MOL0     C38084  11.529   2.888   2.226  0.2569 -0.6066  0.7600
  283MOL0     C38085  11.531   2.950   2.088 -0.5084  0.0060  0.6941
  283MOL0     C38086  11.520   2.840   1.981  0.6711  0.4162  0.0134
  283MOL0     N38087  11.539   2.881   1.844 -0.1016  0.7303  0.0742
  283MOL0     C38088  11.604   2.798   1.763 -0.0834  0.3984  1.7183
  283MOL0     C38089  11.600   2.872   1.648  0.2662  0.6117  0.9269
  283MOL0     C38090  11.640   2.813   1.512  0.0492 -0.1011 -1.1002
  283MOL0     C38091  11.776   2.758   1.526 -0.7301 -0.3276  0.0803
  283MOL0     C38092  11.831   2.722   1.392  0.2478 -1.1113  0.4608
  283MOL0     C38093  11.982   2.692   1.400  0.3836  0.2959 -0.5393
  283MOL0     O38094  11.991   2.539   1.390 -0.2375 -0.5264 -1.0333
  283MOL0     C38095  12.114   2.479   1.387 -0.9782  0.0731 -0.7008
  283MOL0     C38096  12.120   2.340   1.416 -0.2845  0.8570  0.8686
  283MOL0     C38097  12.235   2.260   1.402 -0.4008  0.5664  1.0245
  283MOL0     C38098  12.213   2.109   1.433 -0.9985 -0.4352 -0.0482
  283MOL0     C38099  12.362   2.320   1.354 -0.3850 -0.3934 -0.5023
  283MOL0     C38100  12.484   2.248   1.307  0.2344  0.2101  0.3966
  283MOL0     O38101  12.472   2.122   1.252 -0.7786  0.1359 -1.0805
  283MOL0     C38102  12.584   2.060   1.218 -0.6347  0.2342 -0.0613
  283MOL0     C38103  12.648   2.079   1.092  0.4515  0.1925 -0.3595
  283MOL0     C38104  12.770   1.999   1.076  0.3953 -0.0335 -0.0967
  283MOL0     C38105  12.798   1.896   1.161 -0.1553  0.7093 -0.1968
  283MOL0     O38106  12.909   1.817   1.123  0.6336 -0.2610 -0.9192
  283MOL0     C38107  13.021   1.819   1.211  0.5647  0.2542 -0.4484
  283MOL0     C38108  13.148   1.841   1.125 -0.1312  0.0029 -0.0605
  283MOL0     C38109  13.154   1.979   1.065  0.0836 -0.8134  0.9431
  283MOL0     C38110  13.301   2.030   1.033 -0.3264 -0.3339 -0.2310
  283MOL0     C38111  13.402   2.019   1.154  0.9013  0.4570 -0.3418
  283MOL0     C38112  13.354   2.067   1.294 -0.7686  0.2918  0.5268
  283MOL0     C38113  13.459   2.060   1.401 -0.2507  0.5716  0.1657
  283MOL0     C38114  13.469   1.927   1.454 -0.4415 -0.5096  0.4670
  283MOL0    Cl38115  13.605   1.836   1.372 -0.2612 -0.5295  0.1527
  283MOL0     C38116  12.734   1.875   1.278 -0.0738 -0.2839 -0.2343
  283MOL0     C38117  12.621   1.953   1.303  0.4671  0.3193 -0.5657
  283MOL0     O38118  12.589   2.295   1.351  0.1356 -0.1112  0.6181
  283MOL0     C38119  12.359   2.469   1.345 -0.6278 -0.3412 -0.0430
  283MOL0     C38120  12.238   2.537   1.360 -0.2309  0.0091 -0.4956
  283MOL0     N38121  11.515   2.981   1.656 -0.1873  0.6733  0.4828
  283MOL0     N38122  11.476   2.984   1.777  1.0465 -0.4205 -0.8250
  283MOL0     C38123  10.985   2.777   2.315  0.7330  0.2575  0.2442
  283MOL0     C38124  10.852   2.761   2.266 -0.3728  0.5661 -0.2390
  283MOL0     C38125  10.385   2.795   2.262  0.4706  0.6080  0.2491
  283MOL0     C38126  10.263   2.854   2.313 -0.0041 -0.6233  1.0589
  283MOL0     C38127  10.153   2.887   2.220  0.9410  0.5161 -0.6132
  283MOL0     C38128  10.178   2.859   2.092  0.5519 -0.0036  0.1485
  283MOL0     O38129  10.070   2.867   2.005  0.1989  0.3431  0.7625
  283MOL0     C38130  10.080   2.935   1.884  0.6334 -0.7572 -0.5507
  283MOL0     C38131  10.065   3.092   1.912  0.0188  0.3167 -0.4333
  283MOL0     C38132   9.921   3.129   1.964  0.0966  0.2444  0.9484
  283MOL0     C38133   9.825   3.157   1.852  0.2712 -0.7561 -0.3724
  283MOL0     C38134   9.863   3.290   1.795 -0.5769 -0.4682 -0.6249
  283MOL0     C38135   9.914   3.387   1.746  0.0404  0.7834 -0.1786
  283MOL0     C38136  10.297   2.812   2.044 -1.0136  0.0027  0.8864
  283MOL0     C38137  10.402   2.774   2.129  0.8544  0.1511  0.8477
  283MOL0     H38138  10.676   2.918   2.512 -0.9652 -2.8398  0.6261
  283MOL0     H38139  10.907   2.950   2.601  1.1218 -0.6474  0.0932
  283MOL0     H38140  11.136   3.043   2.593 -0.7490  0.3808  1.9670
  283MOL0     H38141  11.092   2.901   2.695 -3.0881  0.3787 -2.7069
  283MOL0     H38142  11.320   2.998   2.732  0.1490 -0.6904  1.2018
  283MOL0     H38143  11.311   2.827   2.692 -0.0186 -1.0042 -2.4140
  283MOL0     H38144  11.502   2.903   2.571 -0.9347 -0.0080  2.8894
  283MOL0     H38145  11.380   2.818   2.482 -0.6567 -0.9014 -0.1864
  283MOL0     H38146  11.307   2.997   2.367 -0.5781  1.8310 -0.3876
  283MOL0     H38147  11.411   3.119   2.459 -1.0496  1.4558 -0.9365
  283MOL0     H38148  11.563   3.090   2.277  2.0689 -1.5246 -1.6693
  283MOL0     H38149  11.619   2.988   2.398  0.9028 -0.4016 -1.5658
  283MOL0     H38150  11.623   2.834   2.240  1.0831  0.5343 -0.1843
  283MOL0     H38151  11.442   2.825   2.246 -0.5403  0.6872  1.4887
  283MOL0     H38152  11.468   3.040   2.089  0.5944  0.7824  1.2551
  283MOL0     H38153  11.635   2.983   2.083 -1.5218  3.4621 -1.3533
  283MOL0     H38154  11.418   2.803   1.994  1.1637  0.1099  5.3491
  283MOL0     H38155  11.585   2.757   2.009 -1.1474 -0.2355  2.6294
  283MOL0     H38156  11.653   2.703   1.781  0.5859  0.4362  0.3226
  283MOL0     H38157  11.570   2.745   1.463  0.1411 -0.4965 -0.6930
  283MOL0     H38158  11.649   2.898   1.443  2.5498 -0.1767 -0.9771
  283MOL0     H38159  11.775   2.659   1.571  1.3200 -0.1433  0.6291
  283MOL0     H38160  11.841   2.822   1.587 -2.7344  1.9679 -0.0387
  283MOL0     H38161  11.828   2.814   1.334 -0.4667 -0.7442  1.0561
  283MOL0     H38162  11.768   2.647   1.343 -0.6201 -1.6644  2.2989
  283MOL0     H38163  12.021   2.724   1.497 -1.0676  1.8200 -0.3992
  283MOL0     H38164  12.022   2.745   1.313 -0.8413  1.2088 -0.5837
  283MOL0     H38165  12.021   2.301   1.438  0.0100 -1.5477 -1.5104
  283MOL0     H38166  12.231   2.053   1.341  1.4893  1.7126 -0.9734
  283MOL0     H38167  12.279   2.067   1.509 -0.2929  1.2793  0.3317
  283MOL0     H38168  12.113   2.096   1.476 -0.7706  1.2835  1.0698
  283MOL0     H38169  12.623   2.154   1.018  1.0252  0.8042  0.0687
  283MOL0     H38170  12.837   2.026   0.995 -0.5426  2.5205 -0.1186
  283MOL0     H38171  13.009   1.894   1.289 -6.7457 -1.0650  0.4011
  283MOL0     H38172  13.040   1.723   1.261 -1.0412  0.1380  0.0140
  283MOL0     H38173  13.236   1.823   1.187 -0.5009  0.8518  0.7436
  283MOL0     H38174  13.153   1.772   1.040  0.9325 -3.6801  2.7329
  283MOL0     H38175  13.120   2.056   1.135  1.6050  1.9975 -1.1640
  283MOL0     H38176  13.084   2.007   0.985  1.6798  2.6211  0.5492
  283MOL0     H38177  13.340   1.965   0.954  0.8974 -1.0593  0.9326
  283MOL0     H38178  13.297   2.133   0.997 -0.6527 -0.8016 -1.6029
  283MOL0     H38179  13.488   2.080   1.126  0.3506  0.9635 -0.9392
  283MOL0     H38180  13.440   1.917   1.155 -0.4349 -0.1275 -2.6592
  283MOL0     H38181  13.317   2.167   1.271  2.1088  1.7877  1.8152
  283MOL0     H38182  13.263   2.009   1.310 -0.3395  0.0503  2.2187
  283MOL0     H38183  13.424   2.108   1.493  1.0487  1.3478  0.2711
  283MOL0     H38184  13.552   2.108   1.368 -1.6682  1.3248 -3.2343
  283MOL0     H38185  13.373   1.875   1.446 -0.1540 -0.8612 -1.0039
  283MOL0     H38186  13.483   1.933   1.562  0.7926  1.1231  0.2517
  283MOL0     H38187  12.772   1.806   1.352  0.0764  0.3102  0.2476
  283MOL0     H38188  12.583   1.946   1.404 -2.1487  0.2873 -1.4903
  283MOL0     H38189  12.453   2.512   1.311 -0.9006 -1.7469 -2.9269
  283MOL0     H38190  12.232   2.644   1.343 -2.4895 -0.2782 -1.9085
  283MOL0     H38191  11.072   2.760   2.253  1.2520  0.2042  0.9738
  283MOL0     H38192  10.838   2.726   2.164 -1.9507  1.2842 -0.2924
  283MOL0     H38193  10.261   2.861   2.421 -0.3030 -1.9816  1.1611
  283MOL0     H38194  10.057   2.919   2.257  0.8073 -1.4973  0.9518
  283MOL0     H38195  10.177   2.909   1.843  0.6292 -3.2790  0.8500
  283MOL0     H38196  10.008   2.896   1.812 -1.5449 -1.9822  2.1037
  283MOL0     H38197  10.098   3.155   1.829 -0.6705  0.3737 -0.6756
  283MOL0     H38198  10.125   3.133   1.993  0.4794  2.0735 -1.6024
  283MOL0     H38199   9.930   3.211   2.036 -0.6370 -0.5290  1.9690
  283MOL0     H38200   9.876   3.047   2.021 -4.0899  1.1324 -0.6910
  283MOL0     H38201   9.727   3.162   1.901  0.5021 -2.3525  0.3363
  283MOL0     H38202   9.821   3.087   1.769 -3.7695  1.2897 -2.1603
  283MOL0     H38203   9.955   3.474   1.699  0.1826 -0.0325 -1.6028
  283MOL0     H38204  10.302   2.779   1.941 -0.5263  4.3707 -0.6753
  283MOL0     H38205  10.493   2.726   2.094 -0.4085 -0.8701 -1.2562
  284MOL0     O38206   6.988   6.091   1.631 -0.1163 -0.8568  0.0378
  284MOL0     C38207   7.101   6.073   1.652  0.7229  0.5296 -0.6491
  284MOL0     O38208   7.158   6.050   1.779 -0.4752  0.0163 -0.2592
  284MOL0     C38209   7.091   6.046   1.901 -0.8973  0.7864 -0.0492
  284MOL0     C38210   7.172   6.004   2.007  1.1413 -0.4226  0.1268
  284MOL0     C38211   7.130   6.009   2.138 -0.8777  0.5043 -0.8666
  284MOL0     C38212   7.001   6.046   2.179 -0.3530 -0.1301  0.1388
  284MOL0     O38213   6.962   6.033   2.309 -0.0449  0.2526 -1.1386
  284MOL0     C38214   6.851   5.946   2.322  0.3120 -0.4391 -0.8465
  284MOL0     C38215   6.808   5.949   2.475 -0.5775 -0.6155  0.6902
  284MOL0     C38216   6.913   5.907   2.580 -0.1757  0.2168 -0.1083
  284MOL0     C38217   6.908   5.758   2.572  0.2897 -0.2722  0.3894
  284MOL0     C38218   7.035   5.688   2.623 -0.6322  0.3738  0.3645
  284MOL0     C38219   7.041   5.685   2.782  0.1648  0.3986 -0.4450
  284MOL0     C38220   7.190   5.649   2.824 -0.3725 -0.7692  0.4425
  284MOL0     C38221   7.220   5.500   2.824 -0.3367 -0.5190 -0.6050
  284MOL0     N38222   7.190   5.464   2.966  0.7986 -0.8740  0.5113
  284MOL0     C38223   7.059   5.427   3.009 -0.3954 -0.0884 -0.0842
  284MOL0     C38224   7.078   5.387   3.135  0.4775  0.1797  0.0730
  284MOL0     C38225   6.974   5.331   3.234 -0.0071  0.0189  0.0309
  284MOL0     C38226   6.867   5.439   3.263 -0.5590 -0.2347  0.1251
  284MOL0     C38227   6.730   5.389   3.205 -0.2429  0.8076 -0.6459
  284MOL0     C38228   6.719   5.376   3.054  0.3407 -0.8411 -0.3232
  284MOL0     O38229   6.742   5.507   3.001  0.5505  0.0780  0.0349
  284MOL0     C38230   6.664   5.558   2.898 -0.4233  0.6609 -0.6045
  284MOL0     C38231   6.659   5.699   2.892 -0.0832  0.4340  0.6959
  284MOL0     C38232   6.581   5.749   2.790 -0.5224 -0.7296  0.9213
  284MOL0     C38233   6.580   5.895   2.763 -0.4481  0.7076 -0.7043
  284MOL0     C38234   6.514   5.663   2.701  0.6055 -0.3444 -0.3884
  284MOL0     C38235   6.425   5.716   2.593  0.2826 -0.5358  0.4291
  284MOL0     O38236   6.340   5.815   2.635  0.6594 -0.9965 -0.6737
  284MOL0     C38237   6.240   5.846   2.551  0.3422 -0.6029  0.8206
  284MOL0     C38238   6.109   5.817   2.591 -0.2329  0.4371 -0.0710
  284MOL0     C38239   5.999   5.864   2.520  0.1568 -0.4941 -0.8829
  284MOL0     C38240   6.019   5.925   2.394 -0.0414 -0.0932  0.0326
  284MOL0     O38241   5.921   5.996   2.333 -0.0732  0.6578  0.0372
  284MOL0     C38242   5.784   5.942   2.334  0.6664 -0.0232  0.5415
  284MOL0     C38243   5.702   6.051   2.271 -0.1304  0.8922  0.6411
  284MOL0     C38244   5.563   6.051   2.322 -0.4068  0.5410  0.5473
  284MOL0     C38245   5.483   5.934   2.263  0.6219 -0.0690 -0.9583
  284MOL0     C38246   5.347   5.909   2.332  0.9034 -0.2111 -0.0723
  284MOL0     C38247   5.277   5.796   2.269  0.4844  1.0165 -0.1769
  284MOL0     C38248   5.132   5.775   2.326  0.1762 -1.3455  0.6049
  284MOL0     C38249   5.041   5.705   2.230 -0.7686 -0.2763  0.4938
  284MOL0    Cl38250   4.887   5.700   2.317  0.3081 -0.3160 -0.0384
  284MOL0     C38251   6.156   5.949   2.358  0.1734  0.5834  0.3937
  284MOL0     C38252   6.266   5.900   2.426  0.8351  1.1684 -0.9086
  284MOL0     O38253   6.406   5.652   2.488  0.2275  0.2577  0.1271
  284MOL0     C38254   6.516   5.524   2.715 -0.5656  0.7301 -0.7997
  284MOL0     C38255   6.586   5.474   2.819  0.0825  0.4983  0.5981
  284MOL0     N38256   7.211   5.399   3.175  0.9117  0.5071  0.0594
  284MOL0     N38257   7.282   5.440   3.068  0.3866  0.4133 -0.4724
  284MOL0     C38258   6.919   6.084   2.077  0.0849 -0.5204  0.0180
  284MOL0     C38259   6.960   6.083   1.947  0.7422 -0.4054 -1.0968
  284MOL0     C38260   7.180   6.083   1.528 -0.2963 -0.2977  0.1955
  284MOL0     C38261   7.118   6.083   1.398 -1.1555 -0.1378 -0.1818
  284MOL0     C38262   7.199   6.072   1.276  0.4605 -0.7687 -0.5832
  284MOL0     C38263   7.336   6.053   1.275  0.7226  0.3761 -0.2682
  284MOL0     O38264   7.389   6.063   1.153  0.1157 -0.1368 -0.4298
  284MOL0     C38265   7.535   6.086   1.151 -0.4510 -0.4900  0.1293
  284MOL0     C38266   7.561   6.243   1.169  0.4203 -0.3890  1.0317
  284MOL0     C38267   7.479   6.334   1.065 -0.3266 -0.2277  0.0694
  284MOL0     C38268   7.513   6.329   0.918 -0.1812  0.6305 -1.1208
  284MOL0     C38269   7.448   6.441   0.851  0.2612 -0.1588 -0.3352
  284MOL0     C38270   7.388   6.519   0.785 -0.1074  0.4355 -0.2280
  284MOL0     C38271   7.396   6.041   1.398 -0.2773 -0.4865  0.5359
  284MOL0     C38272   7.326   6.054   1.522  0.0191  0.6757  0.3314
  284MOL0     H38273   7.266   5.961   1.973  0.7000  0.9082 -3.1525
  284MOL0     H38274   7.183   5.948   2.211 -1.9021 -2.0138 -2.1146
  284MOL0     H38275   6.766   5.980   2.262 -0.1707  1.6093  0.8757
  284MOL0     H38276   6.875   5.845   2.288  3.1647 -0.2319  0.2841
  284MOL0     H38277   6.762   6.044   2.502 -2.6150 -1.2103 -0.4789
  284MOL0     H38278   6.724   5.881   2.494 -1.2001 -1.1968 -3.2807
  284MOL0     H38279   7.009   5.957   2.562 -0.5612  2.4966  3.1840
  284MOL0     H38280   6.877   5.940   2.678  1.6825  2.3081 -0.0436
  284MOL0     H38281   6.822   5.724   2.630 -0.0293  0.3041  0.2613
  284MOL0     H38282   6.887   5.724   2.470 -1.4134  1.8300 -0.0165
  284MOL0     H38283   7.041   5.586   2.585  1.0870  0.6839 -0.2931
  284MOL0     H38284   7.124   5.737   2.583  0.0593  0.8959  2.4175
  284MOL0     H38285   7.013   5.778   2.831  2.6404  0.6417  0.6394
  284MOL0     H38286   6.972   5.605   2.810  1.2363 -1.0011 -1.6144
  284MOL0     H38287   7.250   5.680   2.738  1.2978 -1.1531  1.4248
  284MOL0     H38288   7.202   5.706   2.917 -3.4696  1.7588 -0.5186
  284MOL0     H38289   7.323   5.462   2.823  0.0104  0.1858  1.8179
  284MOL0     H38290   7.153   5.445   2.756  0.1903 -1.3987 -0.4325
  284MOL0     H38291   6.966   5.440   2.955  1.4676  1.6057 -3.1701
  284MOL0     H38292   6.937   5.235   3.197  0.5886 -0.1343 -0.1709
  284MOL0     H38293   7.017   5.311   3.333 -2.3674 -2.0932  0.7329
  284MOL0     H38294   6.903   5.536   3.225 -1.7788 -0.3986 -1.6141
  284MOL0     H38295   6.854   5.445   3.371 -2.2737  2.3869 -0.1188
  284MOL0     H38296   6.667   5.468   3.245 -0.7233 -0.4468  1.2048
  284MOL0     H38297   6.697   5.293   3.246 -1.4973  0.4106 -2.4428
  284MOL0     H38298   6.612   5.355   3.052  0.0702 -0.7929  4.0982
  284MOL0     H38299   6.774   5.293   3.009 -1.5884 -1.9730 -0.6964
  284MOL0     H38300   6.717   5.761   2.960 -3.6616  1.2389  3.3052
  284MOL0     H38301   6.671   5.934   2.809 -0.2247  1.2224 -1.5419
  284MOL0     H38302   6.593   5.903   2.654  0.3411 -1.0025 -0.7736
  284MOL0     H38303   6.489   5.947   2.796  1.7765  3.8789  0.8977
  284MOL0     H38304   6.100   5.762   2.684 -1.3207 -0.1762 -0.5288
  284MOL0     H38305   5.898   5.862   2.561  0.0657  1.7061 -0.8832
  284MOL0     H38306   5.775   5.850   2.275 -0.7432 -0.5249  1.5068
  284MOL0     H38307   5.752   5.923   2.436  2.2777 -1.5867  0.8067
  284MOL0     H38308   5.755   6.146   2.285  0.7684  0.4019  0.5837
  284MOL0     H38309   5.700   6.030   2.164  0.8845 -0.4403  0.8668
  284MOL0     H38310   5.511   6.140   2.285 -1.2441  0.0683  0.5654
  284MOL0     H38311   5.561   6.054   2.431 -1.2757 -0.6664  0.5741
  284MOL0     H38312   5.465   5.946   2.156 -0.5625  4.1850 -0.4814
  284MOL0     H38313   5.544   5.844   2.278  4.7395  2.7614  1.5629
  284MOL0     H38314   5.288   6.001   2.322  2.3930  0.9888  1.4377
  284MOL0     H38315   5.354   5.896   2.440 -1.0713 -1.7459 -0.0805
  284MOL0     H38316   5.283   5.817   2.162 -2.0517  0.6548 -0.4744
  284MOL0     H38317   5.328   5.703   2.298  0.5064  0.2096 -2.5621
  284MOL0     H38318   5.094   5.877   2.339 -0.2406 -1.3799 -0.2751
  284MOL0     H38319   5.135   5.729   2.425 -2.2555  1.6105  2.2487
  284MOL0     H38320   5.069   5.599   2.224 -0.1786 -0.4470  4.0033
  284MOL0     H38321   5.031   5.757   2.135  3.1147  0.6550  0.4263
  284MOL0     H38322   6.163   6.013   2.270 -2.4605 -1.4493 -1.4756
  284MOL0     H38323   6.367   5.923   2.393  2.2978 -1.1568  1.5711
  284MOL0     H38324   6.478   5.453   2.641  0.7251 -0.6893 -0.1406
  284MOL0     H38325   6.582   5.366   2.829 -1.5573  0.4865  0.1684
  284MOL0     H38326   6.817   6.121   2.086  0.4125  0.3942  0.1122
  284MOL0     H38327   6.892   6.116   1.868  2.4203  2.1508 -1.6055
  284MOL0     H38328   7.011   6.087   1.381 -0.9148 -0.1029 -1.8451
  284MOL0     H38329   7.167   6.086   1.173  0.4121  0.2030 -0.4475
  284MOL0     H38330   7.588   6.010   1.209 -1.9401 -3.5983 -2.2365
  284MOL0     H38331   7.568   6.052   1.052  2.7087  0.8000  0.6077
  284MOL0     H38332   7.669   6.263   1.160  0.2276 -0.3627 -2.2299
  284MOL0     H38333   7.539   6.279   1.270 -2.5829  0.1876  0.2628
  284MOL0     H38334   7.498   6.427   1.119  0.9381  0.1749 -1.0015
  284MOL0     H38335   7.374   6.308   1.075 -0.9136  1.7884 -0.3785
  284MOL0     H38336   7.474   6.232   0.886  0.5615 -0.9435  2.3633
  284MOL0     H38337   7.621   6.337   0.903 -0.1316 -0.5096 -1.4623
  284MOL0     H38338   7.333   6.586   0.722  0.7049 -0.8299 -2.3807
  284MOL0     H38339   7.502   6.021   1.412 -0.4927 -0.9554  1.6351
  284MOL0     H38340   7.364   6.020   1.618 -0.1211  1.2471  0.5930
  285MOL0     O38341   8.343   3.761   9.809 -0.4452  0.8632  0.3783
  285MOL0     C38342   8.247   3.776   9.745 -0.3899 -0.2530 -0.3010
  285MOL0     O38343   8.140   3.696   9.742 -0.3150  0.2355 -0.2899
  285MOL0     C38344   8.125   3.583   9.829  0.1272  0.3980 -0.6519
  285MOL0     C38345   8.195   3.561   9.950 -0.3973 -0.1378  0.0786
  285MOL0     C38346   8.179   3.442  10.022  0.7948  0.3830 -1.4185
  285MOL0     C38347   8.084   3.347   9.970  0.2226  0.2864 -0.9178
  285MOL0     O38348   8.079   3.224  10.037 -0.0456 -0.4583 -0.0277
  285MOL0     C38349   8.052   3.106   9.960 -0.5532 -0.2844  0.5207
  285MOL0     C38350   8.097   2.980  10.033 -0.2976 -0.2904  0.0181
  285MOL0     C38351   8.043   2.970  10.174  0.1297 -0.2120  0.6371
  285MOL0     C38352   7.896   2.998  10.192  0.1205 -1.4275  0.2545
  285MOL0     C38353   7.799   2.913  10.117  0.0371  0.6246  0.0391
  285MOL0     C38354   7.758   2.782  10.195  0.9501  0.2224  0.8283
  285MOL0     C38355   7.647   2.702  10.128 -0.0351  0.1780 -0.2126
  285MOL0     C38356   7.604   2.582  10.212 -0.9343  0.9260  0.5444
  285MOL0     N38357   7.711   2.494  10.263  0.1443  0.0081 -0.6374
  285MOL0     C38358   7.745   2.370  10.218  0.2437  0.5746 -0.2908
  285MOL0     C38359   7.849   2.325  10.287 -0.7889  0.5218  0.6141
  285MOL0     C38360   7.922   2.193  10.261  0.5283 -1.3257 -0.0318
  285MOL0     C38361   7.977   2.184  10.111 -0.4409 -0.0454 -0.5363
  285MOL0     C38362   8.060   2.062  10.099  0.1943 -0.6346 -0.3010
  285MOL0     C38363   8.200   2.090  10.152 -0.7526  0.0657 -0.7379
  285MOL0     O38364   8.287   1.992  10.079 -0.2692  0.2626 -0.6615
  285MOL0     C38365   8.336   1.898  10.164 -0.1461  0.1128 -0.0523
  285MOL0     C38366   8.272   1.778  10.169  1.2698  0.1731  0.4160
  285MOL0     C38367   8.288   1.682  10.266  0.6406 -0.2611 -0.8097
  285MOL0     C38368   8.170   1.580  10.273  0.2570  0.1418 -0.5647
  285MOL0     C38369   8.389   1.703  10.370 -0.3468  0.7401  0.7843
  285MOL0     C38370   8.410   1.617  10.489  0.2348 -0.7346 -0.3232
  285MOL0     O38371   8.442   1.691  10.604  0.1330  0.0294 -0.8718
  285MOL0     C38372   8.494   1.627  10.714 -0.1256  0.7474  0.4095
  285MOL0     C38373   8.476   1.681  10.841 -1.1657  0.0545  0.9898
  285MOL0     C38374   8.547   1.635  10.954  0.0558 -0.0477 -0.2484
  285MOL0     C38375   8.630   1.525  10.947  0.8604 -0.0733  0.3176
  285MOL0     O38376   8.686   1.484  11.065  0.4527  0.0737  0.2921
  285MOL0     C38377   8.785   1.383  11.046 -0.6534 -0.5070 -0.3731
  285MOL0     C38378   8.867   1.370  11.180 -0.0635  0.6448 -0.1948
  285MOL0     C38379   8.801   1.299  11.305 -0.3972  0.5593 -0.5316
  285MOL0     C38380   8.692   1.386  11.375  0.0921 -0.6313  0.2541
  285MOL0     C38381   8.612   1.323  11.487  0.0062  0.3903  0.1021
  285MOL0     C38382   8.524   1.203  11.447 -0.7846 -0.1108  0.9875
  285MOL0     C38383   8.447   1.155  11.580 -0.9070 -0.0949 -0.3177
  285MOL0     C38384   8.376   1.026  11.580  0.9169  0.0248  0.0986
  285MOL0    Cl38385   8.243   1.062  11.453  0.0901  0.1488 -0.1145
  285MOL0     C38386   8.642   1.470  10.815  0.1219  0.1489  0.1981
  285MOL0     C38387   8.565   1.509  10.706  0.4229  0.0851  0.2425
  285MOL0     O38388   8.382   1.498  10.482 -0.2970 -0.4450  0.1627
  285MOL0     C38389   8.473   1.817  10.354 -0.6264 -0.3908  0.5821
  285MOL0     C38390   8.448   1.912  10.248 -1.0345  0.0815  0.1385
  285MOL0     N38391   7.875   2.424  10.384 -0.8360  0.2612  0.1662
  285MOL0     N38392   7.791   2.511  10.373 -0.1320 -0.2182 -0.1209
  285MOL0     C38393   8.013   3.364   9.853 -0.1864 -0.1219 -0.0452
  285MOL0     C38394   8.034   3.486   9.775  0.7405 -0.5459 -0.4026
  285MOL0     C38395   8.249   3.906   9.674  0.3844 -0.2342  0.4679
  285MOL0     C38396   8.360   3.956   9.608  0.3210 -0.2061  1.6535
  285MOL0     C38397   8.355   4.072   9.531  0.7357  0.9037  0.8454
  285MOL0     C38398   8.245   4.153   9.530 -0.0881  0.7753 -0.3032
  285MOL0     O38399   8.239   4.282   9.477  0.6955 -0.6878 -0.4147
  285MOL0     C38400   8.357   4.356   9.439  0.9581 -0.5382  0.7940
  285MOL0     C38401   8.370   4.341   9.284 -0.2108 -0.4328  0.1401
  285MOL0     C38402   8.504   4.382   9.226 -0.3577 -0.8902  0.6826
  285MOL0     C38403   8.504   4.533   9.188 -0.0718 -0.2161  0.5949
  285MOL0     C38404   8.625   4.578   9.115 -0.6486  0.8636  0.2853
  285MOL0     C38405   8.729   4.619   9.065 -0.4020 -0.1102  0.4427
  285MOL0     C38406   8.131   4.099   9.594  0.5416  0.7572  0.3627
  285MOL0     C38407   8.134   3.976   9.662  0.1036 -0.2814 -0.0137
  285MOL0     H38408   8.267   3.633   9.987 -0.3123 -0.9966  1.7165
  285MOL0     H38409   8.240   3.433  10.111  0.1338 -0.9475 -1.0807
  285MOL0     H38410   7.943   3.095   9.955 -0.3475 -4.6860  2.0045
  285MOL0     H38411   8.099   3.111   9.861 -1.8063  5.7355 -0.1694
  285MOL0     H38412   8.060   2.894   9.977  1.2963 -2.8704  2.6248
  285MOL0     H38413   8.205   2.979  10.013 -0.8775  0.4411 -3.9738
  285MOL0     H38414   8.059   2.871  10.216  0.2678 -0.2894  0.4046
  285MOL0     H38415   8.103   3.033  10.240  1.3733  1.5632 -2.0248
  285MOL0     H38416   7.871   2.992  10.298  0.8621 -0.3551  0.5076
  285MOL0     H38417   7.876   3.104  10.170  1.4998 -1.2988 -0.5071
  285MOL0     H38418   7.711   2.977  10.108 -0.7897 -0.5738 -0.8547
  285MOL0     H38419   7.831   2.896  10.013 -2.2949  1.9070 -0.9792
  285MOL0     H38420   7.851   2.724  10.204  0.6653 -0.0017  2.8166
  285MOL0     H38421   7.715   2.804  10.293 -0.7531  0.6541  0.0148
  285MOL0     H38422   7.558   2.761  10.103 -0.3575 -0.9291 -1.8242
  285MOL0     H38423   7.689   2.665  10.034  0.5518  0.8991 -0.2503
  285MOL0     H38424   7.542   2.516  10.151  1.9829 -1.7544  0.2034
  285MOL0     H38425   7.554   2.605  10.307 -0.8686 -1.0726  1.1033
  285MOL0     H38426   7.695   2.327  10.132  0.8913 -2.9285  0.9310
  285MOL0     H38427   8.006   2.188  10.331 -0.8185  2.1731  2.0947
  285MOL0     H38428   7.848   2.117  10.289 -1.1527  0.7895  1.6312
  285MOL0     H38429   8.036   2.275  10.100  1.9534 -1.1693  1.8603
  285MOL0     H38430   7.898   2.179  10.034 -0.9758  1.0779 -0.0842
  285MOL0     H38431   8.067   2.036   9.993  2.5861 -1.7843  0.0646
  285MOL0     H38432   8.019   1.968  10.137 -0.7172 -1.3119 -2.7724
  285MOL0     H38433   8.211   2.081  10.260  0.0908  1.1771 -0.7139
  285MOL0     H38434   8.229   2.192  10.125  0.2449  0.3122  1.1160
  285MOL0     H38435   8.185   1.762  10.106 -0.6823  1.3977  2.6286
  285MOL0     H38436   8.092   1.597  10.348  1.3753  2.5583  0.1192
  285MOL0     H38437   8.121   1.569  10.176  0.9229  0.0283 -0.8893
  285MOL0     H38438   8.214   1.482  10.293 -1.7160 -1.0318 -1.6085
  285MOL0     H38439   8.418   1.772  10.853  1.0311  2.0976 -2.3649
  285MOL0     H38440   8.527   1.680  11.051  0.1952  0.9038 -0.6410
  285MOL0     H38441   8.737   1.295  11.001  0.9033 -2.4738  1.6063
  285MOL0     H38442   8.857   1.428  10.978 -1.9660 -0.2685 -1.6660
  285MOL0     H38443   8.965   1.324  11.161  0.5268  0.9710  1.8788
  285MOL0     H38444   8.893   1.468  11.220 -0.0926  0.4038  0.4238
  285MOL0     H38445   8.884   1.286  11.376  1.0268  1.2029 -2.0302
  285MOL0     H38446   8.761   1.207  11.262  1.0078 -0.4854  0.3093
  285MOL0     H38447   8.736   1.480  11.411 -0.1579 -0.0291 -0.9657
  285MOL0     H38448   8.620   1.414  11.297  0.8162 -0.4617 -0.3659
  285MOL0     H38449   8.549   1.405  11.525 -1.1304 -0.1412 -0.5872
  285MOL0     H38450   8.685   1.287  11.561 -1.8607 -2.8770  0.5200
  285MOL0     H38451   8.458   1.248  11.372  0.7667  2.8323  1.2353
  285MOL0     H38452   8.581   1.119  11.407 -0.1197  1.1845 -0.9238
  285MOL0     H38453   8.376   1.236  11.599  0.7314  1.6077 -1.2518
  285MOL0     H38454   8.519   1.137  11.661 -2.1168  1.2014  1.1046
  285MOL0     H38455   8.330   1.003  11.677  0.5331 -1.5824 -0.4399
  285MOL0     H38456   8.434   0.936  11.561 -0.8855 -1.6162  1.8110
  285MOL0     H38457   8.716   1.391  10.818 -2.3181 -2.2711  1.9802
  285MOL0     H38458   8.576   1.441  10.622  0.5473 -0.4978  0.7205
  285MOL0     H38459   8.549   1.829  10.430 -1.7872  0.5405  1.6539
  285MOL0     H38460   8.507   1.999  10.220 -0.0951 -0.4031  0.5921
  285MOL0     H38461   7.950   3.281   9.822 -2.0264  0.6284  1.4731
  285MOL0     H38462   7.970   3.491   9.687 -0.7775 -4.9910  0.1715
  285MOL0     H38463   8.448   3.892   9.609  1.0756  0.3641 -3.2985
  285MOL0     H38464   8.444   4.090   9.472 -0.9583 -1.0558 -2.6948
  285MOL0     H38465   8.335   4.461   9.460 -1.2074 -0.6802 -0.4259
  285MOL0     H38466   8.439   4.309   9.493  0.4453 -3.0834 -0.4725
  285MOL0     H38467   8.285   4.390   9.236 -0.6897 -0.5834  0.8186
  285MOL0     H38468   8.364   4.232   9.272  4.7600 -1.0759  1.3398
  285MOL0     H38469   8.517   4.331   9.130 -0.1044  3.7016 -1.9970
  285MOL0     H38470   8.589   4.359   9.292  1.1592  4.0801  0.8864
  285MOL0     H38471   8.499   4.592   9.280 -0.4620 -0.3538  0.6628
  285MOL0     H38472   8.415   4.548   9.127 -0.7989  1.8311  2.0474
  285MOL0     H38473   8.822   4.662   9.032  0.0297 -0.6447  0.9272
  285MOL0     H38474   8.036   4.150   9.611 -0.9246 -1.8221  0.4188
  285MOL0     H38475   8.055   3.941   9.728  0.6928  0.3848  1.0882
  286MOL0     O38476   9.317   5.511   6.669 -0.2541  0.4249 -0.0689
  286MOL0     C38477   9.430   5.546   6.705  0.6160  0.5348 -0.8282
  286MOL0     O38478   9.460   5.596   6.831  0.2625  0.4644  0.4806
  286MOL0     C38479   9.365   5.639   6.922 -0.7804 -0.1767  0.4753
  286MOL0     C38480   9.321   5.554   7.019 -0.5000  0.2833  0.3306
  286MOL0     C38481   9.216   5.590   7.106 -0.3032  0.0147 -0.2470
  286MOL0     C38482   9.141   5.704   7.087 -0.4603 -0.7666 -0.1613
  286MOL0     O38483   9.030   5.746   7.167 -0.3890  0.6433  0.3145
  286MOL0     C38484   8.942   5.637   7.216  0.4173  0.0518 -0.5399
  286MOL0     C38485   8.809   5.675   7.286  0.1975 -0.1830  0.2235
  286MOL0     C38486   8.719   5.557   7.312  0.2293 -1.0923 -0.0996
  286MOL0     C38487   8.594   5.568   7.218  0.3348 -0.3225 -0.1077
  286MOL0     C38488   8.501   5.449   7.250 -0.3563  0.0868  0.1778
  286MOL0     C38489   8.399   5.439   7.146 -0.4767  0.7668  0.2177
  286MOL0     C38490   8.308   5.565   7.144  1.0019 -0.3248  0.0807
  286MOL0     C38491   8.175   5.560   7.060  0.3531  0.5905  1.0674
  286MOL0     N38492   8.084   5.668   7.099 -0.1517  0.1423 -0.4493
  286MOL0     C38493   7.992   5.669   7.205  0.1256 -0.2280 -0.3699
  286MOL0     C38494   7.937   5.791   7.198 -0.3250 -0.7410 -0.3390
  286MOL0     C38495   7.862   5.861   7.302  0.0659 -1.5835  0.8721
  286MOL0     C38496   7.936   5.976   7.368  0.7024  0.7443 -0.1234
  286MOL0     C38497   7.842   6.043   7.472 -0.7021 -1.0775 -0.5236
  286MOL0     C38498   7.878   6.183   7.504  0.1844 -0.5870 -0.0380
  286MOL0     O38499   7.774   6.246   7.584 -0.2357  0.4710  0.3052
  286MOL0     C38500   7.741   6.183   7.703  0.4164  0.1992  0.6262
  286MOL0     C38501   7.828   6.123   7.787  0.1788  0.3585 -0.3643
  286MOL0     C38502   7.793   6.061   7.914 -0.1247  1.0682  0.6536
  286MOL0     C38503   7.903   5.984   7.990 -0.7292 -0.3844  1.1589
  286MOL0     C38504   7.657   6.070   7.949  0.2714  0.3052 -0.6577
  286MOL0     C38505   7.616   6.013   8.078  0.4414  0.3121 -0.0754
  286MOL0     O38506   7.488   5.960   8.082  0.4823  0.3286 -0.0370
  286MOL0     C38507   7.438   5.912   8.201 -1.0171 -0.0859  0.6777
  286MOL0     C38508   7.312   5.958   8.244 -0.2240  0.8050  0.2512
  286MOL0     C38509   7.268   5.917   8.368  0.4564  0.0253  0.4289
  286MOL0     C38510   7.342   5.833   8.450 -0.8006  1.3275 -0.5655
  286MOL0     O38511   7.305   5.793   8.575  0.1686 -0.3541 -0.6424
  286MOL0     C38512   7.303   5.897   8.678 -0.5805  0.2434  0.5236
  286MOL0     C38513   7.379   5.860   8.802  0.1400 -0.2610 -0.0189
  286MOL0     C38514   7.338   5.947   8.924  0.3544  0.1986  0.9240
  286MOL0     C38515   7.436   5.929   9.035  0.1707  0.3635 -0.3124
  286MOL0     C38516   7.415   6.014   9.160  0.5843  0.5695  0.4615
  286MOL0     C38517   7.399   5.922   9.285 -0.1459  0.5825  1.0819
  286MOL0     C38518   7.384   6.002   9.424  0.5436  0.0985  0.5416
  286MOL0     C38519   7.373   5.924   9.550 -1.1427  1.5119  0.6076
  286MOL0    Cl38520   7.328   6.028   9.687  0.1829 -0.0458 -0.1674
  286MOL0     C38521   7.466   5.781   8.404  0.5297 -0.4422 -0.1880
  286MOL0     C38522   7.511   5.812   8.275  0.4225  0.6867  0.2273
  286MOL0     O38523   7.688   6.037   8.175 -0.2394 -0.0321  0.2399
  286MOL0     C38524   7.557   6.132   7.860 -0.2080 -0.1279  0.9615
  286MOL0     C38525   7.604   6.190   7.740 -0.3496  0.5383 -0.4977
  286MOL0     N38526   7.986   5.864   7.083  0.2165  0.3161  0.6038
  286MOL0     N38527   8.071   5.777   7.023  0.9754  0.8537 -0.1043
  286MOL0     C38528   9.176   5.797   6.981  0.0464  0.1700 -0.2386
  286MOL0     C38529   9.301   5.763   6.910  0.0048 -0.5801  0.4865
  286MOL0     C38530   9.550   5.518   6.620  0.1742  0.5031 -0.0630
  286MOL0     C38531   9.534   5.484   6.486  1.2892  0.2336  0.1100
  286MOL0     C38532   9.634   5.448   6.395  0.8879 -0.5560  0.1799
  286MOL0     C38533   9.769   5.432   6.438  0.9253  0.2214  0.5253
  286MOL0     O38534   9.873   5.369   6.363 -0.4708 -0.5410  0.1373
  286MOL0     C38535   9.848   5.352   6.230  0.8019 -0.1572 -0.0451
  286MOL0     C38536   9.955   5.243   6.202  0.3987 -1.1577  0.3533
  286MOL0     C38537   9.941   5.199   6.054  0.0656 -0.3113  0.4907
  286MOL0     C38538  10.066   5.115   6.022  0.7808 -0.2927  0.7353
  286MOL0     C38539  10.072   5.048   5.892  0.0926 -0.3773  0.3153
  286MOL0     C38540  10.084   5.002   5.782  0.5124  0.0100 -1.1107
  286MOL0     C38541   9.787   5.477   6.571 -0.2136 -0.2894  0.2589
  286MOL0     C38542   9.685   5.522   6.659 -0.2679  0.6707  0.7444
  286MOL0     H38543   9.370   5.457   7.024  1.4297  1.1704 -0.1992
  286MOL0     H38544   9.185   5.518   7.181  0.8881  1.8847  2.1732
  286MOL0     H38545   8.904   5.570   7.139 -1.2894 -0.2926  0.5592
  286MOL0     H38546   8.999   5.576   7.286 -1.1159  0.0441  0.7474
  286MOL0     H38547   8.830   5.722   7.382  0.6752  3.0685 -1.3495
  286MOL0     H38548   8.763   5.755   7.228  1.5671  1.1176  0.8658
  286MOL0     H38549   8.770   5.463   7.289 -1.3567 -1.7712 -1.0305
  286MOL0     H38550   8.688   5.561   7.416  0.5217  1.4002 -0.0319
  286MOL0     H38551   8.538   5.661   7.236  0.5116 -0.1389 -0.5036
  286MOL0     H38552   8.630   5.563   7.115 -0.2289  0.0526 -0.3320
  286MOL0     H38553   8.556   5.355   7.261 -0.4997  0.1649  1.8846
  286MOL0     H38554   8.460   5.459   7.351 -0.7010 -1.0504  0.1600
  286MOL0     H38555   8.444   5.439   7.047  0.9383 -4.1297  0.6121
  286MOL0     H38556   8.335   5.354   7.168  0.4402 -0.5277 -1.8774
  286MOL0     H38557   8.265   5.576   7.244 -1.0668 -1.9763 -0.5648
  286MOL0     H38558   8.360   5.661   7.133  3.7037 -1.7404 -0.2059
  286MOL0     H38559   8.127   5.466   7.088 -1.6852  2.1051  3.0745
  286MOL0     H38560   8.196   5.576   6.954 -1.0967 -2.5841  0.1910
  286MOL0     H38561   7.982   5.601   7.289 -1.9888  2.4343  1.7429
  286MOL0     H38562   7.763   5.887   7.262 -0.2601 -0.4523  2.3501
  286MOL0     H38563   7.835   5.790   7.380  0.6431  0.0308  2.6253
  286MOL0     H38564   7.970   6.049   7.294 -1.4222  2.3039  0.3463
  286MOL0     H38565   8.021   5.937   7.426  2.5211 -1.6004 -4.0166
  286MOL0     H38566   7.852   5.979   7.561  2.1122 -1.1137 -0.7687
  286MOL0     H38567   7.741   6.037   7.432 -0.4025  1.9217 -2.0072
  286MOL0     H38568   7.881   6.238   7.410  3.3110 -2.1412 -1.0054
  286MOL0     H38569   7.978   6.192   7.548  2.1975 -2.9900 -3.5874
  286MOL0     H38570   7.935   6.127   7.768 -0.1021 -0.2913 -2.2316
  286MOL0     H38571   7.941   6.062   8.057  1.5467  1.9166 -2.5113
  286MOL0     H38572   7.872   5.897   8.049 -1.2089 -0.8960  0.1826
  286MOL0     H38573   7.994   5.960   7.936 -0.0949  1.6261  1.2379
  286MOL0     H38574   7.268   6.036   8.183 -2.0894  0.5997  1.2754
  286MOL0     H38575   7.174   5.960   8.400  0.7986  2.3734 -1.3918
  286MOL0     H38576   7.339   5.992   8.637 -0.2976 -0.8522 -1.9700
  286MOL0     H38577   7.196   5.913   8.697 -0.8734 -2.2300  1.3672
  286MOL0     H38578   7.369   5.753   8.823 -1.5252 -0.3708 -1.1282
  286MOL0     H38579   7.481   5.886   8.772  0.3473 -1.0234  0.0188
  286MOL0     H38580   7.240   5.907   8.952 -1.9732  3.8780 -1.2153
  286MOL0     H38581   7.333   6.054   8.902  0.9019  0.0279 -0.0952
  286MOL0     H38582   7.442   5.829   9.080  1.0481  0.8635  0.7048
  286MOL0     H38583   7.533   5.949   8.989 -0.9227 -0.0161 -2.9710
  286MOL0     H38584   7.324   6.074   9.155  1.2432  1.6039  0.4892
  286MOL0     H38585   7.504   6.076   9.174  0.8490  0.1929  0.4686
  286MOL0     H38586   7.307   5.866   9.265 -1.1324  2.6320 -0.5914
  286MOL0     H38587   7.481   5.853   9.303 -0.8550 -1.4193 -2.3298
  286MOL0     H38588   7.296   6.067   9.418  1.6714  1.5687 -1.0160
  286MOL0     H38589   7.466   6.074   9.434 -1.9309  3.4072 -0.8171
  286MOL0     H38590   7.474   5.890   9.573 -0.5767  2.5356 -0.2574
  286MOL0     H38591   7.297   5.847   9.536  2.6577 -2.9166  1.6826
  286MOL0     H38592   7.529   5.710   8.457 -1.1042 -0.3572  2.0093
  286MOL0     H38593   7.610   5.787   8.239 -0.2217 -0.8039 -0.5883
  286MOL0     H38594   7.455   6.123   7.895  0.0549 -1.7452  1.3908
  286MOL0     H38595   7.540   6.248   7.675 -1.5313 -1.3960 -1.1614
  286MOL0     H38596   9.126   5.893   6.967 -0.6679 -0.5289 -3.3789
  286MOL0     H38597   9.342   5.829   6.835 -0.5063  0.6519  1.2700
  286MOL0     H38598   9.433   5.481   6.447  1.7287 -1.3679 -1.0332
  286MOL0     H38599   9.600   5.415   6.298  2.3141 -0.4848 -0.3647
  286MOL0     H38600   9.749   5.314   6.203  0.0212  3.0440 -2.2846
  286MOL0     H38601   9.867   5.449   6.184  1.3114 -0.9829 -1.6702
  286MOL0     H38602   9.943   5.154   6.265  1.2632 -0.2633  1.8472
  286MOL0     H38603  10.057   5.279   6.215  0.2891 -0.8515  0.3676
  286MOL0     H38604   9.932   5.293   5.999 -2.2512  2.2725  4.7436
  286MOL0     H38605   9.848   5.144   6.039  0.3522 -0.1038 -2.6523
  286MOL0     H38606  10.061   5.035   6.096 -0.8134 -1.1603 -0.2596
  286MOL0     H38607  10.161   5.167   6.037 -0.2421  1.5733  1.1455
  286MOL0     H38608  10.098   4.961   5.684  0.9675 -2.4133 -0.0943
  286MOL0     H38609   9.884   5.488   6.619 -0.3732 -0.2060  0.5651
  286MOL0     H38610   9.703   5.527   6.765 -1.2510  1.0661  0.9047
  287MOL0     O38611  11.101   3.570   7.349 -0.1056 -0.1021 -0.2150
  287MOL0     C38612  11.096   3.550   7.476 -1.0705 -0.3880  1.3416
  287MOL0     O38613  11.126   3.645   7.574  0.2001  0.1291 -0.1274
  287MOL0     C38614  11.204   3.753   7.547  0.0320 -0.4262  1.0855
  287MOL0     C38615  11.340   3.742   7.575 -0.4454 -0.0272 -0.0029
  287MOL0     C38616  11.427   3.827   7.511  0.3012 -0.1391 -0.0902
  287MOL0     C38617  11.379   3.928   7.417 -0.5142  1.6993  0.0795
  287MOL0     O38618  11.460   4.019   7.350  0.0815  0.1437 -0.5587
  287MOL0     C38619  11.600   4.033   7.369 -0.6393  0.0094  0.3181
  287MOL0     C38620  11.656   4.148   7.276  0.1633  0.8554 -0.2484
  287MOL0     C38621  11.592   4.281   7.308  0.0020 -0.4491 -0.3480
  287MOL0     C38622  11.568   4.330   7.461 -1.3137  0.0808  0.4191
  287MOL0     C38623  11.705   4.354   7.537  0.7781  0.2130  0.9300
  287MOL0     C38624  11.689   4.413   7.682  0.0135  0.1627 -0.6275
  287MOL0     C38625  11.818   4.444   7.751  0.3124  0.2389  0.2875
  287MOL0     C38626  11.793   4.465   7.901  0.2758 -0.0756 -1.1310
  287MOL0     N38627  11.924   4.472   7.981 -0.2092 -0.2635 -0.4868
  287MOL0     C38628  11.993   4.361   8.016 -0.4857 -0.6101 -0.1292
  287MOL0     C38629  12.094   4.404   8.088 -0.3097 -1.0445 -0.4141
  287MOL0     C38630  12.202   4.321   8.147 -0.2714 -0.0914 -0.1060
  287MOL0     C38631  12.180   4.277   8.294  0.2111 -0.9868 -0.4462
  287MOL0     C38632  12.271   4.165   8.329  0.8791  0.4356  1.3468
  287MOL0     C38633  12.249   4.106   8.472  0.2196 -0.2136 -0.1385
  287MOL0     O38634  12.124   4.030   8.468 -0.1089 -0.6428 -0.4973
  287MOL0     C38635  12.110   3.929   8.560 -0.1940  0.2871  0.4428
  287MOL0     C38636  12.007   3.835   8.545 -0.1092 -0.0095  0.1480
  287MOL0     C38637  11.982   3.737   8.652 -0.3946  0.1111  0.3137
  287MOL0     C38638  11.850   3.667   8.665  0.2379  0.4438 -1.1732
  287MOL0     C38639  12.083   3.720   8.754 -0.7464 -0.3936 -0.1538
  287MOL0     C38640  12.091   3.612   8.864  0.5701  0.1609  0.1241
  287MOL0     O38641  12.144   3.488   8.848  0.2669  0.8808 -0.1278
  287MOL0     C38642  12.195   3.451   8.727  0.5213  0.2992 -0.3507
  287MOL0     C38643  12.120   3.422   8.614  0.0448  0.0814 -0.1626
  287MOL0     C38644  12.185   3.390   8.493  0.2184  0.3746 -0.7521
  287MOL0     C38645  12.326   3.380   8.478  0.1171 -0.4042  0.8153
  287MOL0     O38646  12.370   3.328   8.365  0.2508 -0.7226  0.4030
  287MOL0     C38647  12.513   3.331   8.338  0.4304 -0.2588  0.5355
  287MOL0     C38648  12.542   3.290   8.191  0.6880  0.7776 -0.0265
  287MOL0     C38649  12.475   3.378   8.088 -0.3192  0.6709 -0.0702
  287MOL0     C38650  12.501   3.320   7.945  0.5753 -0.0014 -1.0693
  287MOL0     C38651  12.417   3.387   7.846  0.6364  0.1232 -0.5402
  287MOL0     C38652  12.415   3.309   7.714  0.3098  0.3611  0.1657
  287MOL0     C38653  12.337   3.179   7.704 -0.5898 -0.0739  0.2305
  287MOL0     C38654  12.292   3.167   7.561  0.8291  0.8113 -0.3380
  287MOL0    Cl38655  12.428   3.124   7.458 -0.1645  0.4903  0.0998
  287MOL0     C38656  12.400   3.389   8.600 -0.4918 -0.1269  0.6049
  287MOL0     C38657  12.335   3.432   8.715  0.2432 -0.2498 -0.6495
  287MOL0     O38658  12.048   3.656   8.970  0.4171 -0.8475 -0.7035
  287MOL0     C38659  12.198   3.806   8.746 -0.0233  0.0377 -1.1349
  287MOL0     C38660  12.205   3.911   8.663  0.8697  0.4589  0.1215
  287MOL0     N38661  12.057   4.534   8.127  0.5384  1.0444 -0.4264
  287MOL0     N38662  11.958   4.581   8.065  0.2748 -0.2607 -0.0708
  287MOL0     C38663  11.245   3.938   7.402  0.3618  0.6994 -1.2533
  287MOL0     C38664  11.159   3.858   7.466  0.5554 -1.4627 -0.9953
  287MOL0     C38665  11.026   3.433   7.527 -0.3485 -0.5775 -0.4431
  287MOL0     C38666  10.942   3.353   7.444  0.7695  0.0140  0.6950
  287MOL0     C38667  10.865   3.249   7.501 -0.6065  0.3062 -0.5284
  287MOL0     C38668  10.875   3.222   7.641 -0.6068 -0.0820  0.6208
  287MOL0     O38669  10.819   3.109   7.690 -0.0980  0.1557  0.0397
  287MOL0     C38670  10.677   3.103   7.669  0.8500 -0.1659  0.2349
  287MOL0     C38671  10.637   2.976   7.746 -0.4353 -0.1921 -0.2829
  287MOL0     C38672  10.480   2.963   7.736  0.7845  0.0596  0.4578
  287MOL0     C38673  10.430   2.926   7.598 -0.6930  0.6132 -1.1648
  287MOL0     C38674  10.310   2.839   7.605 -0.8520 -0.6376 -0.7910
  287MOL0     C38675  10.205   2.786   7.631  0.7204 -0.4401 -0.3438
  287MOL0     C38676  10.960   3.299   7.721  0.4371  0.5394 -1.0533
  287MOL0     C38677  11.030   3.408   7.661  0.0560  0.6488 -0.4273
  287MOL0     H38678  11.392   3.657   7.619 -0.2364 -0.3607 -0.8670
  287MOL0     H38679  11.533   3.804   7.511  0.4606  0.4654 -1.9015
  287MOL0     H38680  11.629   4.060   7.471  0.0122 -4.4466  1.5069
  287MOL0     H38681  11.652   3.938   7.357  3.0656  2.0901 -2.2759
  287MOL0     H38682  11.763   4.161   7.291  0.5653  1.2480 -3.0013
  287MOL0     H38683  11.626   4.121   7.174  0.3220 -2.3545  0.4633
  287MOL0     H38684  11.652   4.361   7.264 -1.6873 -0.0188 -2.0114
  287MOL0     H38685  11.491   4.286   7.265 -0.4861 -0.3027  0.7983
  287MOL0     H38686  11.502   4.418   7.461  0.6342  1.6384  2.0099
  287MOL0     H38687  11.523   4.253   7.524 -0.1492  0.7174  2.1054
  287MOL0     H38688  11.758   4.258   7.538  0.8072  0.2233  0.3310
  287MOL0     H38689  11.778   4.413   7.480 -0.0849  0.1554 -0.2665
  287MOL0     H38690  11.638   4.510   7.671 -1.7481 -0.7052 -0.4811
  287MOL0     H38691  11.629   4.344   7.742  0.0811 -0.9529 -1.7970
  287MOL0     H38692  11.889   4.361   7.745  0.4241  0.2573  1.2340
  287MOL0     H38693  11.864   4.535   7.711  2.8234 -1.6306 -1.3873
  287MOL0     H38694  11.739   4.379   7.941  4.5462 -1.8759  1.5226
  287MOL0     H38695  11.727   4.552   7.906 -2.2009 -1.9201  0.7237
  287MOL0     H38696  11.987   4.261   7.973 -0.2485 -0.7396  0.1336
  287MOL0     H38697  12.196   4.226   8.094  1.6759  0.8104 -2.1048
  287MOL0     H38698  12.306   4.353   8.131  0.9956 -2.9972  1.5727
  287MOL0     H38699  12.076   4.244   8.299 -0.5019  0.7623 -2.2099
  287MOL0     H38700  12.194   4.365   8.357 -1.1901 -1.4478  0.5562
  287MOL0     H38701  12.373   4.205   8.333  1.5558 -0.9893 -0.5033
  287MOL0     H38702  12.272   4.092   8.248 -0.9686 -0.1569  1.8140
  287MOL0     H38703  12.255   4.188   8.544 -2.5318  0.7449 -0.8793
  287MOL0     H38704  12.335   4.040   8.491  0.1244 -0.6744 -1.2380
  287MOL0     H38705  11.936   3.851   8.464  1.9591  2.6148 -1.2894
  287MOL0     H38706  11.807   3.637   8.569  2.9546 -2.8957 -1.5690
  287MOL0     H38707  11.853   3.578   8.730 -0.5725  0.3776 -1.2258
  287MOL0     H38708  11.775   3.731   8.712 -0.5188 -2.0433  1.2973
  287MOL0     H38709  12.013   3.431   8.624  0.2930  1.0552  2.1552
  287MOL0     H38710  12.108   3.369   8.420 -1.8897 -0.8363  1.6280
  287MOL0     H38711  12.541   3.435   8.358 -2.7486  0.9194 -0.4370
  287MOL0     H38712  12.581   3.265   8.392 -0.3931 -4.3432 -2.8413
  287MOL0     H38713  12.649   3.280   8.173  0.9324  1.2372  1.1250
  287MOL0     H38714  12.497   3.192   8.171  1.1465  0.7188 -0.8280
  287MOL0     H38715  12.491   3.485   8.105 -0.3506  0.5405  0.8349
  287MOL0     H38716  12.370   3.366   8.114  0.1878  2.9233  3.8322
  287MOL0     H38717  12.601   3.344   7.909  0.7376 -0.5022 -0.9567
  287MOL0     H38718  12.489   3.212   7.943  0.8862 -0.0875  0.4832
  287MOL0     H38719  12.435   3.495   7.847 -0.5643  0.3759  2.2838
  287MOL0     H38720  12.314   3.377   7.881 -0.9923  1.8745 -4.2442
  287MOL0     H38721  12.376   3.374   7.636 -2.1469 -1.7896 -0.5439
  287MOL0     H38722  12.519   3.289   7.687 -0.1982 -0.1917 -1.4835
  287MOL0     H38723  12.255   3.170   7.776 -1.0697 -0.6369 -0.3776
  287MOL0     H38724  12.409   3.102   7.733  1.9427  2.3426  0.8406
  287MOL0     H38725  12.253   3.261   7.522 -0.9492  0.8589  1.4315
  287MOL0     H38726  12.222   3.083   7.558  1.9380 -0.1635  0.2371
  287MOL0     H38727  12.506   3.370   8.595 -0.4455  0.0959  0.7113
  287MOL0     H38728  12.399   3.455   8.799 -1.9327 -2.7242  1.8788
  287MOL0     H38729  12.282   3.792   8.813 -2.2221 -0.7293  1.6236
  287MOL0     H38730  12.289   3.974   8.687  2.3004 -1.2214 -0.2589
  287MOL0     H38731  11.223   4.024   7.339  2.2006  3.4279  1.5613
  287MOL0     H38732  11.053   3.858   7.446  0.2210  1.2589  0.2729
  287MOL0     H38733  10.930   3.374   7.339 -2.4555  0.0221  0.9812
  287MOL0     H38734  10.792   3.194   7.442 -0.8963  1.7767 -1.6025
  287MOL0     H38735  10.634   3.200   7.696  1.9419  1.4288 -3.1339
  287MOL0     H38736  10.651   3.082   7.564 -2.5442 -0.0718  0.9612
  287MOL0     H38737  10.671   2.987   7.850 -1.0866  0.8775 -0.1587
  287MOL0     H38738  10.691   2.895   7.698 -0.6492 -0.2135 -0.4893
  287MOL0     H38739  10.433   3.055   7.773 -3.0225 -1.9043  0.8952
  287MOL0     H38740  10.457   2.880   7.803  0.3559  0.1185  0.3846
  287MOL0     H38741  10.502   2.857   7.552  0.3035  1.7647 -1.3790
  287MOL0     H38742  10.401   3.015   7.542 -1.8597  1.0496  0.0905
  287MOL0     H38743  10.111   2.745   7.659  0.7611 -2.1416 -2.4202
  287MOL0     H38744  10.981   3.272   7.824 -1.8800 -1.6615 -1.0707
  287MOL0     H38745  11.107   3.466   7.712  0.1187  0.4884 -0.3398
  288MOL0     O38746   0.745   2.959   6.428  0.3644  0.2684 -0.0604
  288MOL0     C38747   0.730   2.951   6.547 -0.2461 -0.1082  0.1925
  288MOL0     O38748   0.643   2.872   6.613  0.7016  0.7074  1.4260
  288MOL0     C38749   0.567   2.774   6.553 -0.4682  0.6411 -0.1591
  288MOL0     C38750   0.507   2.797   6.429  0.6130  0.0172 -0.6244
  288MOL0     C38751   0.416   2.700   6.379  0.4300  0.8682  0.0306
  288MOL0     C38752   0.409   2.567   6.426 -1.6301  0.2480 -0.7064
  288MOL0     O38753   0.330   2.468   6.371 -0.1568  0.8048 -0.4798
  288MOL0     C38754   0.236   2.501   6.260  1.7566  0.1693  0.3672
  288MOL0     C38755   0.146   2.385   6.224 -0.5122 -0.4307 -0.0920
  288MOL0     C38756   0.034   2.361   6.321  0.2138 -0.5430  0.1024
  288MOL0     C38757  -0.064   2.263   6.259 -0.7426  0.0140  1.0161
  288MOL0     C38758  -0.184   2.239   6.353  0.0027 -0.1724 -0.4787
  288MOL0     C38759  -0.302   2.185   6.280 -0.6415 -0.0793 -0.2702
  288MOL0     C38760  -0.366   2.265   6.166  0.2463 -0.1133 -0.5328
  288MOL0     C38761  -0.425   2.397   6.224  0.3510 -0.1469  0.2416
  288MOL0     N38762  -0.528   2.459   6.147 -0.3246  0.4616  0.1986
  288MOL0     C38763  -0.555   2.452   6.014  0.0322  0.5794  0.4544
  288MOL0     C38764  -0.643   2.554   5.991  1.1312 -0.4181  0.1927
  288MOL0     C38765  -0.682   2.594   5.852  0.4847 -0.5697 -0.0360
  288MOL0     C38766  -0.639   2.725   5.814 -0.9503  0.1068  0.4664
  288MOL0     C38767  -0.487   2.740   5.845  1.4872 -0.7464  0.5383
  288MOL0     C38768  -0.431   2.889   5.845 -0.7718 -0.4672  0.5298
  288MOL0     O38769  -0.288   2.880   5.828  0.0334 -0.6570  0.3471
  288MOL0     C38770  -0.202   2.986   5.874  0.1941  0.0729  1.1168
  288MOL0     C38771  -0.238   3.093   5.949 -0.5826  0.2242  0.3921
  288MOL0     C38772  -0.147   3.194   5.998  0.2509 -0.6648 -1.1171
  288MOL0     C38773  -0.197   3.304   6.082  0.0944  0.6922 -0.3581
  288MOL0     C38774  -0.021   3.194   5.944 -0.2784 -0.4660  0.4658
  288MOL0     C38775   0.061   3.311   5.961 -0.4562 -0.8973 -1.3147
  288MOL0     O38776   0.082   3.400   5.856  0.0374 -0.0818 -0.7859
  288MOL0     C38777   0.173   3.500   5.866  0.8401  0.3485 -0.0338
  288MOL0     C38778   0.122   3.622   5.808  0.4942  0.2158 -1.2208
  288MOL0     C38779   0.204   3.732   5.822  0.3282  0.0547  1.0741
  288MOL0     C38780   0.322   3.733   5.884 -0.2241 -0.7363  0.9417
  288MOL0     O38781   0.411   3.841   5.881  0.4971 -0.2531 -0.1218
  288MOL0     C38782   0.386   3.957   5.962  0.4570  0.5492 -0.7605
  288MOL0     C38783   0.515   4.024   5.987 -1.1388 -0.6996  0.3094
  288MOL0     C38784   0.610   4.021   5.862 -0.1417  0.2771  0.1164
  288MOL0     C38785   0.711   4.125   5.872  0.8168  0.2537  0.1266
  288MOL0     C38786   0.812   4.137   5.752 -0.1616 -0.0109  0.0897
  288MOL0     C38787   0.893   4.267   5.752 -0.7804 -0.1013 -0.0707
  288MOL0     C38788   0.983   4.301   5.878 -0.8771 -0.1948 -0.1111
  288MOL0     C38789   1.072   4.426   5.856  0.4521  0.4413  0.5932
  288MOL0    Cl38790   1.086   4.514   6.018 -0.2707 -0.7621 -0.0338
  288MOL0     C38791   0.371   3.620   5.935 -0.0907  0.4986 -0.6746
  288MOL0     C38792   0.297   3.499   5.929  0.5598 -0.5018  0.7991
  288MOL0     O38793   0.117   3.325   6.075 -0.2096  0.1036  0.0359
  288MOL0     C38794   0.026   3.083   5.869 -0.1472 -0.0338 -0.6893
  288MOL0     C38795  -0.061   2.979   5.836  0.7937 -0.6852 -0.2845
  288MOL0     N38796  -0.684   2.609   6.112  0.6701  0.4694 -0.1654
  288MOL0     N38797  -0.603   2.562   6.200  0.2390 -0.2287 -0.2595
  288MOL0     C38798   0.490   2.545   6.540 -0.0414 -0.6439  0.1416
  288MOL0     C38799   0.567   2.644   6.601 -0.0823 -0.1350  0.0630
  288MOL0     C38800   0.844   2.997   6.630  0.9752  0.3682  0.4813
  288MOL0     C38801   0.875   2.930   6.751 -1.2081 -0.0367  0.9261
  288MOL0     C38802   0.993   2.959   6.819  0.3386  0.8381 -0.9140
  288MOL0     C38803   1.077   3.065   6.784  0.1768 -0.6738 -0.1113
  288MOL0     O38804   1.200   3.089   6.840 -0.0490  0.7666  0.4227
  288MOL0     C38805   1.284   2.967   6.831  0.1147 -1.1902  0.3948
  288MOL0     C38806   1.303   2.916   6.973  0.5919  0.4854 -0.3461
  288MOL0     C38807   1.388   3.019   7.054 -0.9069 -0.2031 -0.0786
  288MOL0     C38808   1.367   3.008   7.204 -0.1085  0.0685 -0.0964
  288MOL0     C38809   1.445   3.121   7.255 -0.4421  0.3290 -0.4144
  288MOL0     C38810   1.488   3.229   7.303 -1.2052  0.0490  0.9078
  288MOL0     C38811   1.031   3.137   6.670  0.0319 -0.1236 -0.7215
  288MOL0     C38812   0.921   3.097   6.590  0.7271 -0.4212  0.7706
  288MOL0     H38813   0.523   2.885   6.368  1.2598  0.0604 -0.4038
  288MOL0     H38814   0.364   2.712   6.285  0.0793  2.5753  0.4075
  288MOL0     H38815   0.175   2.590   6.276 -3.2531 -1.8664 -4.3686
  288MOL0     H38816   0.302   2.516   6.174  2.8334  1.8444  1.4329
  288MOL0     H38817   0.096   2.405   6.129  1.1639 -1.4479 -1.2477
  288MOL0     H38818   0.205   2.293   6.209  1.4214  0.7288  0.0447
  288MOL0     H38819   0.072   2.325   6.416  0.3015 -0.9513 -0.0852
  288MOL0     H38820  -0.022   2.455   6.334 -0.8240 -1.1038 -0.1978
  288MOL0     H38821  -0.089   2.297   6.158  1.0468 -2.4501 -0.3597
  288MOL0     H38822  -0.017   2.165   6.249  1.8010  1.1321  1.2933
  288MOL0     H38823  -0.157   2.182   6.442  0.6281  0.0922 -0.4955
  288MOL0     H38824  -0.222   2.335   6.388 -1.0509  0.7020 -3.7071
  288MOL0     H38825  -0.272   2.092   6.230  3.8281  2.6427 -3.4894
  288MOL0     H38826  -0.380   2.164   6.353  0.6216  0.0551  1.1568
  288MOL0     H38827  -0.299   2.280   6.081  1.9054  0.5754  0.8236
  288MOL0     H38828  -0.446   2.199   6.133 -0.6603 -0.5036  2.1812
  288MOL0     H38829  -0.344   2.471   6.229 -0.6072  1.0524 -0.8746
  288MOL0     H38830  -0.463   2.383   6.325 -0.7585 -2.0665 -0.3822
  288MOL0     H38831  -0.508   2.390   5.938  1.0293 -0.2500  1.6919
  288MOL0     H38832  -0.648   2.513   5.786 -3.2351 -2.7365  0.3891
  288MOL0     H38833  -0.791   2.595   5.840 -0.0251 -4.2932  2.3039
  288MOL0     H38834  -0.699   2.792   5.876 -1.3299 -0.4896  0.7514
  288MOL0     H38835  -0.668   2.742   5.709 -0.7731  2.7683  0.7959
  288MOL0     H38836  -0.432   2.682   5.770 -0.9300  0.0185 -1.9823
  288MOL0     H38837  -0.463   2.700   5.944 -1.3365 -1.0710  1.1587
  288MOL0     H38838  -0.462   2.931   5.941 -2.3910  0.0575 -0.1777
  288MOL0     H38839  -0.472   2.945   5.760  0.6150 -0.1254  0.0691
  288MOL0     H38840  -0.338   3.088   5.990 -1.3012 -1.0138 -1.3653
  288MOL0     H38841  -0.301   3.328   6.055 -1.6426 -2.9560  2.2107
  288MOL0     H38842  -0.206   3.267   6.185 -1.9812  1.4983 -0.1821
  288MOL0     H38843  -0.129   3.390   6.085  3.5048 -1.8232  2.4013
  288MOL0     H38844   0.019   3.615   5.776  0.2652 -0.8580 -0.3020
  288MOL0     H38845   0.169   3.822   5.774  1.4694 -1.4946 -3.0374
  288MOL0     H38846   0.310   4.024   5.920 -1.0107 -0.6852 -0.1456
  288MOL0     H38847   0.355   3.932   6.063  0.4100 -0.6751 -1.0703
  288MOL0     H38848   0.504   4.125   6.028  1.8976  0.0114 -0.3956
  288MOL0     H38849   0.561   3.967   6.068 -0.8215  1.2300  1.5472
  288MOL0     H38850   0.547   4.047   5.777  0.1009  1.6378  0.3350
  288MOL0     H38851   0.656   3.924   5.839  1.1285  1.2826 -1.8472
  288MOL0     H38852   0.657   4.220   5.869 -0.0632 -0.2127  0.7316
  288MOL0     H38853   0.766   4.113   5.965 -0.2891 -2.1957  0.5488
  288MOL0     H38854   0.758   4.125   5.658  1.7623 -0.1149 -1.0707
  288MOL0     H38855   0.888   4.058   5.763 -1.3656 -1.4187 -1.3144
  288MOL0     H38856   0.961   4.265   5.667  0.9532  0.9894  1.2121
  288MOL0     H38857   0.823   4.350   5.745 -0.5979 -0.1177 -3.2641
  288MOL0     H38858   1.058   4.223   5.890  0.2712  0.8721 -0.1618
  288MOL0     H38859   0.928   4.300   5.973  1.5582  0.9879  1.3985
  288MOL0     H38860   1.034   4.501   5.786  3.5493  2.1456  0.5700
  288MOL0     H38861   1.162   4.388   5.808 -1.3789 -1.3573 -1.6656
  288MOL0     H38862   0.468   3.618   5.983 -0.8078  1.2849  0.8689
  288MOL0     H38863   0.328   3.408   5.978  0.7049 -2.1352 -2.1427
  288MOL0     H38864   0.129   3.071   5.836  0.1669 -1.4190  0.6551
  288MOL0     H38865  -0.046   2.896   5.767  1.2061 -0.9565  0.1187
  288MOL0     H38866   0.495   2.445   6.581 -2.7766 -0.4033  1.2341
  288MOL0     H38867   0.621   2.601   6.685  3.2799  3.2535 -0.0773
  288MOL0     H38868   0.817   2.849   6.794 -1.5633 -1.1785 -1.5621
  288MOL0     H38869   1.042   2.907   6.901  1.4187  3.1975  0.0314
  288MOL0     H38870   1.245   2.890   6.764 -1.5460 -0.8411  0.8939
  288MOL0     H38871   1.383   2.998   6.798 -0.1325 -1.7562 -0.9368
  288MOL0     H38872   1.349   2.818   6.960  1.2290  0.7824 -0.3218
  288MOL0     H38873   1.205   2.917   7.023  1.0479  0.3202  0.5702
  288MOL0     H38874   1.364   3.120   7.020 -1.0743 -0.0095  0.5886
  288MOL0     H38875   1.494   3.006   7.030 -1.0785 -1.0105 -0.4401
  288MOL0     H38876   1.403   2.910   7.234 -3.9314 -1.2547  0.7187
  288MOL0     H38877   1.262   3.020   7.233  0.6772  1.4928  2.4588
  288MOL0     H38878   1.539   3.322   7.320 -2.2514  1.3557 -2.3353
  288MOL0     H38879   1.080   3.229   6.641  1.8949 -0.6777  0.5071
  288MOL0     H38880   0.883   3.137   6.497 -0.1562  1.4446  1.8908
  289MOL0     O38881   7.146   3.976   9.705 -0.9172  0.4319 -0.0483
  289MOL0     C38882   7.095   3.942   9.605 -0.0060 -0.2404 -0.1632
  289MOL0     O38883   7.026   3.829   9.574  0.1777 -0.6697 -0.1756
  289MOL0     C38884   6.964   3.759   9.676  0.3667  0.5742  0.0145
  289MOL0     C38885   6.931   3.630   9.641  0.5493 -0.0172 -0.1736
  289MOL0     C38886   6.854   3.549   9.726  0.7433  0.1838  1.4176
  289MOL0     C38887   6.814   3.591   9.847 -0.9018 -0.8231 -1.1881
  289MOL0     O38888   6.748   3.499   9.919 -0.2658  0.6381 -0.8807
  289MOL0     C38889   6.698   3.533  10.056 -0.0103  0.5305  0.1087
  289MOL0     C38890   6.555   3.585  10.051 -0.8660 -0.5399 -0.9113
  289MOL0     C38891   6.458   3.514   9.955  0.2732 -0.5516 -0.6417
  289MOL0     C38892   6.316   3.549   9.985  0.6064  0.8499  0.4408
  289MOL0     C38893   6.216   3.541   9.857 -0.5566  0.7903 -0.1993
  289MOL0     C38894   6.077   3.579   9.898  0.4294  0.7049  1.0092
  289MOL0     C38895   5.992   3.556   9.772  0.5167  0.6416 -0.2873
  289MOL0     C38896   5.853   3.606   9.796 -0.0176  0.1065  0.2688
  289MOL0     N38897   5.766   3.512   9.872  0.0631  0.0991 -1.0907
  289MOL0     C38898   5.718   3.390   9.838  0.2444 -0.8339  0.0911
  289MOL0     C38899   5.624   3.365   9.925 -0.7737  0.6771  0.9091
  289MOL0     C38900   5.566   3.233   9.927  0.3459 -0.9654  0.1935
  289MOL0     C38901   5.609   3.141  10.032 -0.1465  0.6030 -1.0852
  289MOL0     C38902   5.554   3.185  10.169  0.0162 -0.2978 -0.0893
  289MOL0     C38903   5.653   3.221  10.274 -0.4432 -0.3105 -0.3295
  289MOL0     O38904   5.728   3.343  10.253  0.4862  0.0767  0.1892
  289MOL0     C38905   5.814   3.406  10.342 -0.3925 -0.7664  0.0679
  289MOL0     C38906   5.876   3.524  10.291 -0.1318 -0.8882 -0.5047
  289MOL0     C38907   5.972   3.597  10.364 -1.1338 -0.5490  0.1973
  289MOL0     C38908   6.041   3.710  10.299  0.0205  0.2777  1.0358
  289MOL0     C38909   5.985   3.570  10.498  0.4586  0.6704 -0.4754
  289MOL0     C38910   6.062   3.657  10.593  0.7949 -0.5545 -0.6961
  289MOL0     O38911   6.059   3.795  10.572  0.8036  0.3364  0.8413
  289MOL0     C38912   6.087   3.884  10.675 -0.6698 -0.2256 -0.1000
  289MOL0     C38913   5.999   3.940  10.764  0.1004  0.0083  0.2749
  289MOL0     C38914   6.046   4.027  10.867  0.5166  0.0434  0.2950
  289MOL0     C38915   6.173   4.051  10.891  0.6262 -0.5324 -0.1423
  289MOL0     O38916   6.205   4.148  10.987  0.8349 -0.5257  0.1180
  289MOL0     C38917   6.320   4.110  11.070 -0.0075 -0.2976  1.0990
  289MOL0     C38918   6.386   4.225  11.146 -0.6135  0.8142  0.1737
  289MOL0     C38919   6.476   4.309  11.057  0.2287 -0.5334 -1.0031
  289MOL0     C38920   6.543   4.410  11.148 -0.1296  0.8016  0.9381
  289MOL0     C38921   6.594   4.540  11.096 -0.2002  0.2018  0.4326
  289MOL0     C38922   6.733   4.513  11.033  0.6968 -0.2408 -0.2140
  289MOL0     C38923   6.701   4.482  10.890 -0.7032  0.4460  0.8394
  289MOL0     C38924   6.748   4.597  10.786 -0.9479  0.2853 -0.8478
  289MOL0    Cl38925   6.925   4.579  10.759 -0.2292  0.2636 -0.0956
  289MOL0     C38926   6.261   3.986  10.808 -0.4753 -0.5198 -0.4708
  289MOL0     C38927   6.224   3.903  10.703  0.1298 -0.8126 -0.2149
  289MOL0     O38928   6.091   3.609  10.702  0.2255  0.8188  0.5196
  289MOL0     C38929   5.928   3.445  10.545  0.7169  0.7786  0.1918
  289MOL0     C38930   5.847   3.361  10.468 -0.2368 -1.0091  0.0691
  289MOL0     N38931   5.602   3.473  10.007  0.2774  0.1624 -0.1105
  289MOL0     N38932   5.685   3.556   9.970 -0.6508 -0.3742 -0.6706
  289MOL0     C38933   6.840   3.725   9.886  0.0819 -0.1925  0.2444
  289MOL0     C38934   6.913   3.802   9.800  0.4675 -0.4431 -0.7644
  289MOL0     C38935   7.129   4.021   9.482  0.0006 -0.6975  0.1127
  289MOL0     C38936   7.161   4.158   9.492 -0.1062 -0.8625  0.8352
  289MOL0     C38937   7.184   4.223   9.368  0.0782  0.1389 -0.2577
  289MOL0     C38938   7.172   4.163   9.239  0.7343 -0.4049 -0.5336
  289MOL0     O38939   7.181   4.228   9.120  0.0680 -0.5466 -0.1128
  289MOL0     C38940   7.189   4.375   9.132  0.3578  1.3426  0.2827
  289MOL0     C38941   7.227   4.426   8.994  0.4006 -0.1744  0.0110
  289MOL0     C38942   7.110   4.407   8.892 -0.5120  0.5194 -0.1566
  289MOL0     C38943   7.133   4.481   8.757  1.1923  0.4660 -0.0089
  289MOL0     C38944   7.079   4.407   8.643  0.0957  0.4074 -0.0693
  289MOL0     C38945   7.015   4.342   8.566  0.0644  0.1906  0.1354
  289MOL0     C38946   7.149   4.027   9.233  0.9015  0.0181 -0.3641
  289MOL0     C38947   7.122   3.959   9.354  0.3222  0.7925 -0.5333
  289MOL0     H38948   6.963   3.590   9.545 -1.5143 -0.0453 -0.8817
  289MOL0     H38949   6.820   3.458   9.676 -1.5443  0.8606  1.6338
  289MOL0     H38950   6.691   3.439  10.112 -0.9053  2.3499  3.2904
  289MOL0     H38951   6.773   3.581  10.120  0.3320  0.2047 -0.0414
  289MOL0     H38952   6.504   3.576  10.147  0.3634 -1.5402 -0.3319
  289MOL0     H38953   6.543   3.691  10.026 -2.7975 -0.5776 -0.3345
  289MOL0     H38954   6.475   3.547   9.853 -1.6683  3.2269  0.0714
  289MOL0     H38955   6.479   3.407   9.967  1.1251 -0.2903  0.3594
  289MOL0     H38956   6.276   3.486  10.065 -2.6485 -1.8365 -2.9354
  289MOL0     H38957   6.320   3.650  10.027  1.9093 -0.1025  2.8007
  289MOL0     H38958   6.250   3.601   9.772  0.7067  1.3208  0.6451
  289MOL0     H38959   6.216   3.432   9.850 -0.1426  0.8057 -0.4098
  289MOL0     H38960   6.047   3.510   9.978  0.8598 -0.7558 -0.0521
  289MOL0     H38961   6.059   3.683   9.927 -1.5699  0.2018  1.7311
  289MOL0     H38962   6.031   3.617   9.689  2.1817 -1.8775 -1.4753
  289MOL0     H38963   5.982   3.451   9.745  0.2520  0.2352  1.3168
  289MOL0     H38964   5.811   3.607   9.695  1.2652  1.4893 -0.2820
  289MOL0     H38965   5.846   3.709   9.833 -1.6944  0.4871 -1.0166
  289MOL0     H38966   5.755   3.329   9.756 -0.1969  0.4456 -1.0979
  289MOL0     H38967   5.460   3.256   9.940  0.0607 -2.7224  1.2695
  289MOL0     H38968   5.576   3.182   9.830 -0.8690 -1.5291  0.3467
  289MOL0     H38969   5.718   3.126  10.029 -0.1596  0.5943 -3.3415
  289MOL0     H38970   5.567   3.044  10.005 -0.3133  0.4334 -0.2369
  289MOL0     H38971   5.500   3.096  10.202  0.1064  0.2215  1.4986
  289MOL0     H38972   5.487   3.272  10.159  1.6435  0.7918 -2.6368
  289MOL0     H38973   5.717   3.135  10.298 -2.4636 -2.1158 -1.0192
  289MOL0     H38974   5.596   3.244  10.364 -0.0945 -4.5092  1.2179
  289MOL0     H38975   5.845   3.556  10.192 -0.0854  0.3932 -0.1254
  289MOL0     H38976   6.006   3.810  10.329 -0.7176  0.4940 -0.4448
  289MOL0     H38977   6.149   3.706  10.314 -0.1341 -0.8227  1.9825
  289MOL0     H38978   6.032   3.712  10.190 -0.0218 -0.1400  1.0297
  289MOL0     H38979   5.894   3.912  10.766  0.0789 -0.1451 -1.6136
  289MOL0     H38980   5.964   4.066  10.927  2.0944  1.0189  1.8897
  289MOL0     H38981   6.298   4.034  11.146  1.3765  1.0661  2.9791
  289MOL0     H38982   6.396   4.072  11.001 -2.3782 -1.5896 -0.9726
  289MOL0     H38983   6.311   4.280  11.203 -0.7361 -0.6307  1.4865
  289MOL0     H38984   6.453   4.176  11.217 -0.5664  0.9919  0.2526
  289MOL0     H38985   6.409   4.362  10.990 -3.9233 -2.6566  1.0555
  289MOL0     H38986   6.547   4.242  11.006 -1.7931 -1.5868 -2.5695
  289MOL0     H38987   6.466   4.451  11.215 -1.2964 -1.3980  1.0307
  289MOL0     H38988   6.613   4.363  11.218 -1.1994 -1.7328  0.3905
  289MOL0     H38989   6.616   4.600  11.185 -2.0525  2.1661 -0.3190
  289MOL0     H38990   6.526   4.607  11.042  2.6455  4.1815  1.3237
  289MOL0     H38991   6.793   4.603  11.040 -0.1795  0.5183 -1.9532
  289MOL0     H38992   6.788   4.435  11.088 -0.4733 -2.9369 -2.5999
  289MOL0     H38993   6.595   4.473  10.865 -1.0803  2.0588  1.7431
  289MOL0     H38994   6.748   4.384  10.882  1.9698  1.6878  0.1389
  289MOL0     H38995   6.731   4.699  10.823  0.4317  1.2040 -2.6081
  289MOL0     H38996   6.694   4.585  10.692  1.7715 -1.3447 -2.3303
  289MOL0     H38997   6.367   3.993  10.829 -0.6153 -0.5889  0.2692
  289MOL0     H38998   6.290   3.830  10.656 -0.4613 -1.5338  0.0631
  289MOL0     H38999   5.949   3.416  10.648  1.9453 -3.2821 -0.9851
  289MOL0     H39000   5.808   3.264  10.498  0.1186 -0.7554  1.4553
  289MOL0     H39001   6.771   3.787   9.942  0.1266  0.5109 -0.4571
  289MOL0     H39002   6.933   3.905   9.830  2.3445 -0.9267 -0.2014
  289MOL0     H39003   7.171   4.210   9.587  0.6808 -0.7030  0.6658
  289MOL0     H39004   7.211   4.328   9.376 -1.2811  0.6877 -2.1488
  289MOL0     H39005   7.091   4.411   9.166 -0.0075  1.2929 -0.6737
  289MOL0     H39006   7.267   4.409   9.200  0.2273 -1.2937  1.8820
  289MOL0     H39007   7.314   4.367   8.965  1.3112 -0.1429  2.4805
  289MOL0     H39008   7.247   4.534   8.995  1.6372 -0.3863  1.1390
  289MOL0     H39009   7.022   4.444   8.947 -1.4713 -1.3234 -0.3894
  289MOL0     H39010   7.091   4.302   8.870  0.1759  0.0678  1.3196
  289MOL0     H39011   7.235   4.518   8.747  0.7054  2.9608  2.6496
  289MOL0     H39012   7.074   4.572   8.771  0.6587  0.0645  0.4380
  289MOL0     H39013   6.948   4.304   8.492 -2.5190  0.8911  1.9889
  289MOL0     H39014   7.149   3.982   9.134  0.6153  0.4864 -0.5793
  289MOL0     H39015   7.100   3.853   9.348  0.0958  0.6575  1.8275
  290MOL0     O39016   8.149   8.345   9.642 -0.3407  0.4099 -0.2213
  290MOL0     C39017   8.160   8.449   9.574  0.2797  0.0381  0.1350
  290MOL0     O39018   8.263   8.480   9.500 -0.0070  0.3020 -0.5060
  290MOL0     C39019   8.374   8.406   9.525 -0.2617  0.1108  0.6535
  290MOL0     C39020   8.392   8.279   9.470  0.5582 -0.6876  1.1141
  290MOL0     C39021   8.513   8.200   9.479  0.1417 -0.0817 -0.2022
  290MOL0     C39022   8.626   8.268   9.530 -0.3531 -0.0800  0.6621
  290MOL0     O39023   8.747   8.204   9.518 -0.1683 -0.3278 -0.9059
  290MOL0     C39024   8.861   8.249   9.593  0.4270  0.2614 -0.3293
  290MOL0     C39025   8.989   8.171   9.547  1.3031 -0.5750 -0.3666
  290MOL0     C39026   9.110   8.187   9.652  0.0023  0.8970 -0.4726
  290MOL0     C39027   9.081   8.144   9.795  0.4411 -0.2616  1.6152
  290MOL0     C39028   9.077   7.991   9.820  1.0465 -0.7429  0.1521
  290MOL0     C39029   8.971   7.949   9.928 -0.5076  0.0042  0.9790
  290MOL0     C39030   8.996   8.020  10.059 -0.9552 -0.6270 -0.2896
  290MOL0     C39031   8.860   8.037  10.133  0.9057 -0.9265 -1.3698
  290MOL0     N39032   8.881   8.115  10.255  0.3775  0.1471 -0.4263
  290MOL0     C39033   8.933   8.066  10.376  0.5747 -0.3904  0.2118
  290MOL0     C39034   8.944   8.172  10.453 -0.3449 -0.6577  0.5974
  290MOL0     C39035   8.991   8.173  10.598  0.1164 -0.1938 -0.3908
  290MOL0     C39036   9.093   8.285  10.633  0.4546 -0.2122  0.8012
  290MOL0     C39037   9.019   8.413  10.678  0.0519  0.5279 -0.1477
  290MOL0     C39038   9.112   8.522  10.703 -0.2067  0.2640  0.5258
  290MOL0     O39039   9.038   8.645  10.739  0.1718  0.8338  0.6406
  290MOL0     C39040   9.098   8.764  10.709  0.1248 -0.5096  0.3730
  290MOL0     C39041   9.066   8.825  10.582  0.3690 -0.0406 -0.2388
  290MOL0     C39042   9.107   8.957  10.558 -0.2580  0.4530 -0.3420
  290MOL0     C39043   9.052   9.028  10.438  0.4489 -0.0438 -0.6447
  290MOL0     C39044   9.192   9.025  10.645  0.0872  0.0961 -0.1859
  290MOL0     C39045   9.240   9.164  10.638 -0.2747 -1.0347 -0.4705
  290MOL0     O39046   9.266   9.230  10.755  0.4675 -0.0389  0.7129
  290MOL0     C39047   9.327   9.358  10.759 -0.9573 -0.0486  0.6356
  290MOL0     C39048   9.343   9.418  10.888  1.1562  0.1299  0.1567
  290MOL0     C39049   9.413   9.535  10.907 -0.3653  0.1242 -0.9792
  290MOL0     C39050   9.450   9.601  10.789  0.5011 -0.5377 -0.1880
  290MOL0     O39051   9.510   9.724  10.808 -0.8235  0.7778  0.0569
  290MOL0     C39052   9.631   9.725  10.890  0.3059  1.1888  0.1089
  290MOL0     C39053   9.708   9.852  10.865  0.3053 -0.1529  0.7750
  290MOL0     C39054   9.722   9.887  10.713  0.1945  0.5354  0.2936
  290MOL0     C39055   9.615   9.984  10.649  0.3511 -0.0092 -0.7454
  290MOL0     C39056   9.612   9.965  10.493  0.8453 -0.0763 -0.3697
  290MOL0     C39057   9.745  10.003  10.444 -0.5983  0.6732  0.0272
  290MOL0     C39058   9.751  10.065  10.305  0.8980 -0.2127 -0.4755
  290MOL0     C39059   9.682   9.979  10.202 -0.2975 -0.5539 -0.3193
  290MOL0    Cl39060   9.717  10.033  10.042  0.9512 -0.0359  0.1138
  290MOL0     C39061   9.436   9.550  10.662  0.0487 -0.0235  0.7140
  290MOL0     C39062   9.374   9.426  10.649  0.2434 -0.7933 -0.5720
  290MOL0     O39063   9.257   9.209  10.527 -0.2515  0.1695  0.8182
  290MOL0     C39064   9.222   8.957  10.767 -0.8633 -0.5078  0.3054
  290MOL0     C39065   9.183   8.822  10.800 -0.5018 -0.2724 -0.3515
  290MOL0     N39066   8.909   8.286  10.379  0.6372  0.0280  0.4379
  290MOL0     N39067   8.875   8.253  10.264 -0.4919 -0.1211  0.7301
  290MOL0     C39068   8.606   8.387   9.606  0.3934  0.1878  0.2675
  290MOL0     C39069   8.487   8.461   9.594 -0.0721 -0.1505  0.5233
  290MOL0     C39070   8.057   8.567   9.589  0.2576 -0.2890 -1.1492
  290MOL0     C39071   8.094   8.699   9.569 -0.6398  0.2456 -0.6923
  290MOL0     C39072   8.010   8.813   9.591  0.4949  0.5171  0.1864
  290MOL0     C39073   7.887   8.792   9.654  0.5981 -0.3556 -0.2398
  290MOL0     O39074   7.817   8.900   9.701  0.1323  0.0522  0.0250
  290MOL0     C39075   7.685   8.880   9.768  0.2794 -0.5923 -0.9872
  290MOL0     C39076   7.691   8.845   9.915 -0.3936 -0.1780  0.1125
  290MOL0     C39077   7.682   8.969  10.013 -0.9347  0.3989 -0.1549
  290MOL0     C39078   7.548   9.028  10.019 -0.1128 -0.6663 -1.0881
  290MOL0     C39079   7.448   8.942  10.096 -0.1514 -0.6485  0.4741
  290MOL0     C39080   7.367   8.868  10.157 -0.8826 -0.0074  0.2660
  290MOL0     C39081   7.849   8.660   9.674 -0.2348  0.6062  0.6019
  290MOL0     C39082   7.931   8.544   9.642 -0.1297 -0.6344 -0.0338
  290MOL0     H39083   8.308   8.240   9.413  0.0437  4.7882 -2.6580
  290MOL0     H39084   8.532   8.106   9.429  0.0679  0.1476 -0.6665
  290MOL0     H39085   8.873   8.356   9.576  1.5545 -0.1314 -2.2331
  290MOL0     H39086   8.835   8.233   9.698 -2.5975  2.3238 -0.6315
  290MOL0     H39087   8.964   8.065   9.533 -3.0494  0.2953 -0.5750
  290MOL0     H39088   9.008   8.220   9.451 -0.8617 -0.6022 -0.8518
  290MOL0     H39089   9.199   8.133   9.618  1.9993  0.5728  4.5276
  290MOL0     H39090   9.131   8.294   9.657 -0.6105  1.0467  4.9621
  290MOL0     H39091   9.165   8.188   9.850 -0.6775 -0.5377  3.6470
  290MOL0     H39092   8.989   8.197   9.821 -0.4045  1.3712 -3.5128
  290MOL0     H39093   9.063   7.950   9.719  1.2106  2.9279 -1.4916
  290MOL0     H39094   9.172   7.973   9.871  0.9367  2.2188  1.5912
  290MOL0     H39095   8.871   7.975   9.894  0.0218  1.5539  0.4920
  290MOL0     H39096   8.990   7.843   9.946  2.6566 -0.5549 -3.7283
  290MOL0     H39097   9.065   7.958  10.117  0.4096 -2.6339 -3.7122
  290MOL0     H39098   9.037   8.120  10.043  1.0105 -1.2837  0.3164
  290MOL0     H39099   8.819   7.941  10.165  1.0944 -1.2884 -2.1879
  290MOL0     H39100   8.779   8.080  10.073  1.2044 -0.1606 -1.2298
  290MOL0     H39101   8.955   7.960  10.389  1.0544 -0.2050  0.9708
  290MOL0     H39102   8.911   8.175  10.672 -0.5109  1.7629 -1.0567
  290MOL0     H39103   9.043   8.076  10.599 -1.3436 -1.0114  1.1203
  290MOL0     H39104   9.160   8.309  10.550 -0.0243  0.1648  0.5161
  290MOL0     H39105   9.142   8.237  10.718 -0.7333 -0.9990  1.0541
  290MOL0     H39106   8.966   8.388  10.771  4.1611 -3.5893  1.4902
  290MOL0     H39107   8.954   8.445  10.596  0.4220 -0.0494 -0.6737
  290MOL0     H39108   9.171   8.541  10.614 -0.5090  1.8763  0.6512
  290MOL0     H39109   9.179   8.492  10.785 -2.5439 -1.5095  1.9273
  290MOL0     H39110   9.001   8.771  10.513 -0.8755  2.7926 -1.4678
  290MOL0     H39111   9.121   9.021  10.353  0.4075 -0.9119 -0.6202
  290MOL0     H39112   8.964   8.972  10.404  0.3188 -0.0676 -0.2697
  290MOL0     H39113   9.029   9.132  10.464 -0.7128  0.5662 -3.6341
  290MOL0     H39114   9.294   9.368  10.971  0.6785  0.5871  0.1554
  290MOL0     H39115   9.429   9.569  11.009  0.7718  1.4270 -1.5637
  290MOL0     H39116   9.611   9.706  10.995  1.7016 -2.4270 -0.1580
  290MOL0     H39117   9.692   9.645  10.847 -2.4029 -0.5913 -0.6507
  290MOL0     H39118   9.668   9.941  10.915  0.5493  0.8662 -0.7525
  290MOL0     H39119   9.812   9.836  10.897 -0.0124 -2.6992  0.7064
  290MOL0     H39120   9.711   9.795  10.656  0.1580 -2.2147  4.3532
  290MOL0     H39121   9.821   9.932  10.703  0.2216  0.0970 -2.1101
  290MOL0     H39122   9.513   9.976  10.687  0.1667  1.5046 -0.8848
  290MOL0     H39123   9.641  10.084  10.685  2.2661 -0.7038 -0.0548
  290MOL0     H39124   9.534  10.030  10.450  0.0696 -1.0968 -0.5519
  290MOL0     H39125   9.594   9.859  10.470  1.2704 -0.2756  0.2137
  290MOL0     H39126   9.801  10.071  10.509 -2.4640  2.2069  0.1076
  290MOL0     H39127   9.800   9.908  10.447 -2.2994 -0.3528 -0.1193
  290MOL0     H39128   9.854  10.079  10.270  2.2764 -4.1027  1.4670
  290MOL0     H39129   9.699  10.160  10.310  1.3389  0.1192 -1.7727
  290MOL0     H39130   9.574   9.960  10.212 -0.1482 -3.6043 -3.2059
  290MOL0     H39131   9.726   9.882  10.224  1.3731  0.3425  0.5054
  290MOL0     H39132   9.458   9.616  10.578  1.1389  2.5931  2.9036
  290MOL0     H39133   9.386   9.399  10.545 -0.0091  2.2023 -1.4727
  290MOL0     H39134   9.276   9.004  10.849  0.5575  3.7073 -2.6780
  290MOL0     H39135   9.174   8.776  10.898 -3.1157 -0.9532 -0.8325
  290MOL0     H39136   8.683   8.412   9.678  0.7506  2.6735 -0.8897
  290MOL0     H39137   8.475   8.555   9.648 -0.0131 -0.1275  0.4955
  290MOL0     H39138   8.193   8.717   9.529 -1.6668  2.5749 -2.4346
  290MOL0     H39139   8.044   8.907   9.548 -0.5870  0.2516 -1.3320
  290MOL0     H39140   7.628   8.973   9.759  1.0551 -0.1427 -1.4322
  290MOL0     H39141   7.636   8.794   9.723 -1.7270  0.2300 -0.4830
  290MOL0     H39142   7.793   8.810   9.928 -0.3660 -1.2406 -2.4222
  290MOL0     H39143   7.624   8.761   9.936  1.8892 -2.6088 -1.7325
  290MOL0     H39144   7.755   9.047   9.993 -1.1231  0.5198 -0.3799
  290MOL0     H39145   7.719   8.941  10.112  2.4560  1.6163 -0.9377
  290MOL0     H39146   7.512   9.051   9.918 -1.0256  1.3039 -0.3590
  290MOL0     H39147   7.546   9.124  10.071 -1.0197  0.1935 -2.6396
  290MOL0     H39148   7.300   8.795  10.199 -1.0506  0.6585  1.2006
  290MOL0     H39149   7.748   8.640   9.709 -0.6977  1.6792 -0.0594
  290MOL0     H39150   7.885   8.447   9.652  1.1127 -0.9985  3.1917
  291MOL0     O39151  10.272  10.512   1.113  0.1509  0.3025  1.1310
  291MOL0     C39152  10.355  10.428   1.072 -0.2134 -1.0315  1.0220
  291MOL0     O39153  10.328  10.326   0.981  0.3793 -0.0172  0.5507
  291MOL0     C39154  10.217  10.338   0.905  0.2796  0.0523 -0.0507
  291MOL0     C39155  10.162  10.218   0.855  0.1072  0.2292 -0.0977
  291MOL0     C39156  10.048  10.216   0.773  0.7865 -0.0546  0.2506
  291MOL0     C39157   9.996  10.344   0.728  0.1130 -0.9304  0.2354
  291MOL0     O39158   9.881  10.341   0.646  0.5748 -0.3802 -0.3530
  291MOL0     C39159   9.878  10.440   0.542  0.5534 -0.2557  1.0037
  291MOL0     C39160   9.779  10.401   0.433  0.3798 -0.5611  1.2076
  291MOL0     C39161   9.837  10.274   0.368  0.2360 -0.8434 -0.2223
  291MOL0     C39162   9.739  10.210   0.275  0.3855 -0.0827  0.7230
  291MOL0     C39163   9.803  10.111   0.183  0.4042  1.3209  0.0328
  291MOL0     C39164   9.700  10.041   0.096  0.4448  0.1019  0.1717
  291MOL0     C39165   9.764  10.011  -0.037  0.1098  0.3938 -0.4170
  291MOL0     C39166   9.681   9.914  -0.117 -0.4553  0.1482  0.1881
  291MOL0     N39167   9.555   9.976  -0.162  0.4235 -0.2211 -0.4499
  291MOL0     C39168   9.538  10.075  -0.258  0.4894 -0.7219  0.0034
  291MOL0     C39169   9.399  10.090  -0.271 -0.3817 -0.0894 -1.4580
  291MOL0     C39170   9.311  10.174  -0.356 -0.1003 -0.0516 -0.1874
  291MOL0     C39171   9.296  10.135  -0.500  0.0719  0.1086  0.6240
  291MOL0     C39172   9.250   9.987  -0.515 -0.5990  0.0995 -0.3382
  291MOL0     C39173   9.218   9.941  -0.659  0.0396  0.2565 -0.5952
  291MOL0     O39174   9.085   9.968  -0.680 -0.2835 -0.2567 -0.4089
  291MOL0     C39175   9.039  10.012  -0.802  0.3712 -0.4093 -0.2519
  291MOL0     C39176   8.926  10.098  -0.806  0.5754 -0.9572  0.1623
  291MOL0     C39177   8.869  10.138  -0.930 -0.3357 -0.5886  0.1364
  291MOL0     C39178   8.731  10.208  -0.915 -0.6833 -0.8928  0.7360
  291MOL0     C39179   8.920  10.094  -1.051 -0.5278 -0.5411 -0.5215
  291MOL0     C39180   8.861  10.111  -1.183  0.1389  1.4207 -0.0549
  291MOL0     O39181   8.899  10.018  -1.287  0.5517 -0.1868  0.5331
  291MOL0     C39182   8.868  10.062  -1.414  0.6245  0.0306 -0.6604
  291MOL0     C39183   8.751  10.025  -1.471 -0.6622 -0.2703  0.0560
  291MOL0     C39184   8.714  10.066  -1.600  0.2729 -0.1354 -0.3779
  291MOL0     C39185   8.806  10.144  -1.673  0.9379  0.5524 -0.8375
  291MOL0     O39186   8.784  10.166  -1.806  0.3412 -0.2182 -0.9172
  291MOL0     C39187   8.823  10.294  -1.858  0.5783  0.6280 -0.9146
  291MOL0     C39188   8.744  10.329  -1.989 -0.3504 -0.1527 -0.1988
  291MOL0     C39189   8.829  10.316  -2.121 -0.0439  0.4111 -0.4710
  291MOL0     C39190   8.766  10.395  -2.243  0.4201  0.0734  0.9714
  291MOL0     C39191   8.842  10.379  -2.384  1.0634  0.7188 -0.8959
  291MOL0     C39192   8.862  10.230  -2.425 -0.2326  0.0118  0.2488
  291MOL0     C39193   8.924  10.234  -2.570 -0.1688 -0.6261  0.4255
  291MOL0     C39194   8.931  10.102  -2.638 -0.3178  0.5680  0.0872
  291MOL0    Cl39195   8.978  10.121  -2.805 -0.2371 -0.4083 -0.1044
  291MOL0     C39196   8.922  10.190  -1.610  0.1422 -0.3706 -0.1814
  291MOL0     C39197   8.947  10.151  -1.483 -0.2971 -0.5806  0.0991
  291MOL0     O39198   8.793  10.205  -1.192 -0.4585 -0.1274  0.8552
  291MOL0     C39199   9.039  10.016  -1.043 -0.0393 -0.5086 -0.2823
  291MOL0     C39200   9.099   9.994  -0.923 -0.3990  0.8479  0.4158
  291MOL0     N39201   9.340  10.008  -0.182 -0.0741  1.0499 -0.3396
  291MOL0     N39202   9.431   9.929  -0.131 -0.1243  0.1719  0.2924
  291MOL0     C39203  10.063  10.461   0.760  1.1993 -0.4053 -0.2947
  291MOL0     C39204  10.176  10.459   0.845  0.2881  0.3118  1.3484
  291MOL0     C39205  10.498  10.444   1.120 -0.2237 -0.4921  0.3092
  291MOL0     C39206  10.561  10.565   1.154  0.4526  0.3153 -0.6412
  291MOL0     C39207  10.695  10.555   1.196  0.4198 -0.8966  0.0861
  291MOL0     C39208  10.766  10.438   1.192 -0.5266 -0.7341  0.4309
  291MOL0     O39209  10.903  10.451   1.222 -0.0024 -0.3793  0.0813
  291MOL0     C39210  10.997  10.353   1.171  0.3762 -0.7119 -0.1103
  291MOL0     C39211  11.124  10.384   1.244  0.0127 -0.3065  0.0341
  291MOL0     C39212  11.173  10.518   1.190 -0.2103 -0.0817 -0.5596
  291MOL0     C39213  11.317  10.548   1.245  0.0208  0.7850 -1.0141
  291MOL0     C39214  11.347  10.693   1.222  0.1737 -0.7073 -0.2685
  291MOL0     C39215  11.368  10.808   1.186  0.7592 -0.2226 -0.5790
  291MOL0     C39216  10.707  10.319   1.151  0.9498  0.0433 -0.5827
  291MOL0     C39217  10.577  10.328   1.114 -0.5299 -0.0498 -0.0050
  291MOL0     H39218  10.220  10.131   0.884  0.0720 -0.1413 -1.1190
  291MOL0     H39219  10.003  10.125   0.735 -1.6747  1.0325  0.3813
  291MOL0     H39220   9.847  10.537   0.582 -1.9503  0.6711 -2.6631
  291MOL0     H39221   9.977  10.472   0.509  0.8700 -0.1516  2.0194
  291MOL0     H39222   9.679  10.389   0.476 -1.0443  3.0245 -0.6473
  291MOL0     H39223   9.761  10.479   0.358  0.3242 -0.7185  1.0586
  291MOL0     H39224   9.923  10.316   0.315 -1.1500  3.9842  0.8380
  291MOL0     H39225   9.863  10.207   0.451  0.8070  2.0843  2.1372
  291MOL0     H39226   9.662  10.153   0.328  1.6280 -1.8037  0.7820
  291MOL0     H39227   9.684  10.280   0.211  1.1380 -2.1815 -2.5183
  291MOL0     H39228   9.874  10.169   0.122  2.0269  0.8195  1.3488
  291MOL0     H39229   9.862  10.040   0.243 -0.2111 -0.1364 -1.0448
  291MOL0     H39230   9.669   9.947   0.143 -2.3522  1.1479  0.6088
  291MOL0     H39231   9.605  10.087   0.067  0.8600  0.9301  0.0971
  291MOL0     H39232   9.786  10.101  -0.095  1.9174  1.5208  1.8776
  291MOL0     H39233   9.853   9.953  -0.013  1.7929  1.8028 -2.7961
  291MOL0     H39234   9.657   9.826  -0.056  0.6326  0.4831  1.1409
  291MOL0     H39235   9.734   9.876  -0.204 -2.6317 -1.6916 -0.4106
  291MOL0     H39236   9.604  10.123  -0.330  0.8922  0.4069  1.0945
  291MOL0     H39237   9.206  10.173  -0.324 -0.5729  0.2235 -1.6468
  291MOL0     H39238   9.352  10.275  -0.363 -0.0353 -0.0437  0.2926
  291MOL0     H39239   9.382  10.150  -0.566 -1.7039 -1.8125 -2.3585
  291MOL0     H39240   9.217  10.198  -0.542  0.8715  1.4787  1.0866
  291MOL0     H39241   9.169   9.971  -0.444 -0.9685  0.1118 -0.7473
  291MOL0     H39242   9.323   9.912  -0.481 -2.9373 -2.3638 -0.3963
  291MOL0     H39243   9.243   9.834  -0.663 -0.2721  0.1967 -0.9591
  291MOL0     H39244   9.290   9.990  -0.726  0.5764  2.4198  1.4193
  291MOL0     H39245   8.887  10.149  -0.718 -0.0413  2.3741 -1.8882
  291MOL0     H39246   8.708  10.240  -0.813 -1.7788  0.7425  0.0367
  291MOL0     H39247   8.723  10.293  -0.984  0.8594 -2.3473 -1.3298
  291MOL0     H39248   8.648  10.145  -0.950 -0.3296 -2.0311  1.8561
  291MOL0     H39249   8.687   9.964  -1.407 -0.4237  0.3701  0.9342
  291MOL0     H39250   8.617  10.048  -1.644 -0.7046 -1.4225  2.1088
  291MOL0     H39251   8.789  10.368  -1.785 -4.0282 -3.2042  1.4324
  291MOL0     H39252   8.929  10.312  -1.876  0.8700 -0.6625 -0.5691
  291MOL0     H39253   8.658  10.261  -1.992  1.2780 -3.0338  4.9898
  291MOL0     H39254   8.713  10.433  -1.977 -1.3945 -0.5449  0.6601
  291MOL0     H39255   8.847  10.211  -2.145 -0.7937 -0.8219  3.5751
  291MOL0     H39256   8.927  10.363  -2.106  0.1818  0.4657 -2.0163
  291MOL0     H39257   8.665  10.354  -2.250 -0.1316  0.7122  3.9851
  291MOL0     H39258   8.767  10.500  -2.212  2.3681 -0.1940  1.9321
  291MOL0     H39259   8.934  10.437  -2.371 -0.0868  2.3044  0.7581
  291MOL0     H39260   8.785  10.443  -2.452  0.7669  2.3225  0.7696
  291MOL0     H39261   8.935  10.184  -2.358 -0.1514  0.3421  0.3906
  291MOL0     H39262   8.772  10.169  -2.427  0.5542 -1.2783  1.7629
  291MOL0     H39263   9.029  10.261  -2.582 -0.2257 -0.0950  1.0846
  291MOL0     H39264   8.866  10.305  -2.631  4.3288  1.4510 -1.9560
  291MOL0     H39265   8.832  10.056  -2.633 -0.4867  0.7126  6.2465
  291MOL0     H39266   8.996  10.029  -2.590  0.3579  0.1566 -1.4199
  291MOL0     H39267   8.968  10.270  -1.667 -0.9061  1.2405  1.1095
  291MOL0     H39268   9.040  10.187  -1.441 -1.0566  1.5367  0.0934
  291MOL0     H39269   9.077   9.962  -1.129  0.4573  3.2506 -2.6303
  291MOL0     H39270   9.192   9.938  -0.936 -2.3453 -2.2601 -1.2973
  291MOL0     H39271  10.031  10.546   0.700 -0.9296 -1.5953 -0.9641
  291MOL0     H39272  10.219  10.558   0.861 -0.2983  0.8293 -0.0863
  291MOL0     H39273  10.508  10.658   1.171  0.1175 -0.3031  2.2206
  291MOL0     H39274  10.735  10.645   1.239  0.6493 -0.6590 -0.6095
  291MOL0     H39275  10.977  10.247   1.187 -0.3444 -0.6680 -0.6757
  291MOL0     H39276  10.989  10.359   1.062 -1.8975  2.0607  0.0799
  291MOL0     H39277  11.199  10.309   1.217  1.3248  0.9517  0.0600
  291MOL0     H39278  11.115  10.380   1.353  0.7893 -3.0626  0.0683
  291MOL0     H39279  11.103  10.595   1.223 -0.4192  0.9401 -3.1190
  291MOL0     H39280  11.186  10.503   1.082  0.3265 -3.1531 -0.1737
  291MOL0     H39281  11.388  10.480   1.198  1.1517  1.8909 -0.9495
  291MOL0     H39282  11.312  10.525   1.351 -4.2159 -3.2358 -1.7266
  291MOL0     H39283  11.373  10.909   1.150  3.9482 -0.0824 -0.0660
  291MOL0     H39284  10.762  10.225   1.157  0.8674  0.0224 -0.0779
  291MOL0     H39285  10.522  10.235   1.097 -1.5753  0.7648 -1.2740
  292MOL0     O39286   0.734   8.222   2.815  0.6783  0.3189 -0.1834
  292MOL0     C39287   0.703   8.209   2.928 -0.2825 -0.4326 -0.0482
  292MOL0     O39288   0.753   8.289   3.036  0.7577 -0.3051 -0.0571
  292MOL0     C39289   0.845   8.381   3.037  0.3872 -0.2807  1.0434
  292MOL0     C39290   0.826   8.499   3.115 -0.2513 -0.2369  0.4845
  292MOL0     C39291   0.926   8.603   3.104  0.0770 -0.1344  1.0196
  292MOL0     C39292   1.039   8.587   3.026  0.4443 -0.1826  0.4626
  292MOL0     O39293   1.134   8.684   3.023  0.8374  0.4681 -0.0873
  292MOL0     C39294   1.268   8.658   3.036  0.2426  1.1267  0.2959
  292MOL0     C39295   1.366   8.762   2.978  0.0178 -0.2980 -0.1127
  292MOL0     C39296   1.507   8.730   2.999  0.1215 -1.2020  0.3533
  292MOL0     C39297   1.591   8.851   2.944 -1.4834 -0.7449  0.4638
  292MOL0     C39298   1.607   8.839   2.788 -0.8335  1.0988  0.7950
  292MOL0     C39299   1.667   8.968   2.724 -0.7649  0.5423 -1.0185
  292MOL0     C39300   1.821   8.977   2.726  0.0543 -0.0613 -0.7256
  292MOL0     C39301   1.876   9.085   2.627 -0.5613  0.8872 -0.5684
  292MOL0     N39302   2.020   9.047   2.599  0.0636 -0.9928 -0.0234
  292MOL0     C39303   2.131   9.118   2.637  0.0790 -0.2946  0.5451
  292MOL0     C39304   2.228   9.051   2.579 -0.5457 -0.2562  0.0535
  292MOL0     C39305   2.372   9.093   2.575 -0.1020  0.4204 -0.0096
  292MOL0     C39306   2.435   9.118   2.715 -0.2888 -0.0741 -1.3944
  292MOL0     C39307   2.463   9.271   2.744  0.4284  0.0023  1.0779
  292MOL0     C39308   2.576   9.332   2.654  0.4619  0.1312 -0.6518
  292MOL0     O39309   2.608   9.471   2.681  0.0666 -0.3496 -0.0607
  292MOL0     C39310   2.518   9.571   2.663  0.0805 -0.1916  0.1788
  292MOL0     C39311   2.516   9.648   2.550 -0.1087 -0.5484 -0.7031
  292MOL0     C39312   2.433   9.757   2.531 -0.0191 -0.4438  0.6094
  292MOL0     C39313   2.463   9.829   2.401 -0.2090 -0.5562 -0.0586
  292MOL0     C39314   2.355   9.794   2.639  1.0211 -0.4538  0.2422
  292MOL0     C39315   2.254   9.901   2.646 -0.2022 -0.5913 -0.8107
  292MOL0     O39316   2.195   9.934   2.770  0.1376 -0.4639  0.5772
  292MOL0     C39317   2.072   9.999   2.764 -0.2976 -0.1036  0.7330
  292MOL0     C39318   1.964   9.963   2.687 -0.6429  0.3431 -0.3507
  292MOL0     C39319   1.839  10.020   2.696  0.1527 -0.4656  0.1365
  292MOL0     C39320   1.816  10.127   2.779  0.1014 -0.4766  0.1474
  292MOL0     O39321   1.692  10.196   2.780 -0.4400  0.8895  0.7366
  292MOL0     C39322   1.649  10.259   2.659 -0.2305 -0.4560  0.5142
  292MOL0     C39323   1.668  10.406   2.678 -0.1983 -0.4698  0.6873
  292MOL0     C39324   1.814  10.451   2.632 -0.0499  0.4002 -0.5108
  292MOL0     C39325   1.819  10.605   2.644 -0.2585 -0.3573  0.2137
  292MOL0     C39326   1.873  10.649   2.784  0.0490  0.0611 -0.5281
  292MOL0     C39327   1.850  10.808   2.808  0.3257 -0.0632  0.8852
  292MOL0     C39328   1.969  10.892   2.743  0.1379 -0.1975  0.1361
  292MOL0     C39329   2.087  10.899   2.843  0.5437  0.3885 -1.0254
  292MOL0    Cl39330   2.236  10.946   2.750  0.2005  0.5037  0.2208
  292MOL0     C39331   1.924  10.173   2.858 -0.2698 -0.4361 -0.1606
  292MOL0     C39332   2.049  10.108   2.848  0.7032 -0.3655  0.5671
  292MOL0     O39333   2.239   9.972   2.546  0.1973 -0.5764  0.1638
  292MOL0     C39334   2.362   9.716   2.759  0.9815 -1.1091 -0.3637
  292MOL0     C39335   2.435   9.600   2.765  0.2363 -0.9034 -0.2517
  292MOL0     N39336   2.189   8.946   2.497 -0.7302 -0.3520  0.6288
  292MOL0     N39337   2.060   8.954   2.508 -0.4657 -0.2939  0.3774
  292MOL0     C39338   1.046   8.474   2.943 -0.2697  0.6937 -0.1431
  292MOL0     C39339   0.952   8.369   2.948 -0.3774  0.3992 -0.6055
  292MOL0     C39340   0.581   8.128   2.961 -0.5533  0.1419 -0.0051
  292MOL0     C39341   0.506   8.065   2.859  0.7150 -0.4718  0.0758
  292MOL0     C39342   0.382   8.017   2.907 -0.5445 -0.1009 -0.1291
  292MOL0     C39343   0.325   8.023   3.033  0.4190  0.0571  0.2283
  292MOL0     O39344   0.205   7.968   3.068 -0.0648 -1.0748 -0.5139
  292MOL0     C39345   0.115   7.914   2.965 -0.9320  0.0940 -0.0811
  292MOL0     C39346  -0.001   7.846   3.041  0.1608 -0.2914 -0.5993
  292MOL0     C39347  -0.085   7.945   3.124 -0.5127 -0.5318 -0.9257
  292MOL0     C39348  -0.211   7.871   3.187  0.0800  0.4109 -0.1817
  292MOL0     C39349  -0.174   7.779   3.299  0.1965  0.0355 -0.4013
  292MOL0     C39350  -0.171   7.706   3.402 -0.5861  0.5962 -0.0881
  292MOL0     C39351   0.409   8.080   3.136 -0.3066  0.4629 -0.2922
  292MOL0     C39352   0.533   8.128   3.096  0.1977  0.2450  0.2527
  292MOL0     H39353   0.736   8.504   3.176  0.1105 -2.4368  1.2972
  292MOL0     H39354   0.911   8.684   3.174 -0.4237  3.7385 -3.1028
  292MOL0     H39355   1.307   8.649   3.138  3.2203 -0.2606 -0.8411
  292MOL0     H39356   1.289   8.560   2.991  0.0559  0.0804  2.3282
  292MOL0     H39357   1.341   8.807   2.882 -0.8196  0.8986  0.6374
  292MOL0     H39358   1.351   8.846   3.047 -2.4647 -1.2167  0.6002
  292MOL0     H39359   1.535   8.714   3.104 -1.3162  0.3971  1.0402
  292MOL0     H39360   1.539   8.635   2.957 -0.3744 -1.4014  0.4141
  292MOL0     H39361   1.546   8.947   2.972 -1.4177 -1.1092  1.8973
  292MOL0     H39362   1.694   8.853   2.982 -1.2083 -3.7345  0.1058
  292MOL0     H39363   1.667   8.748   2.776 -1.4958  0.6466  0.8682
  292MOL0     H39364   1.509   8.822   2.743  1.7979  0.9049 -5.9905
  292MOL0     H39365   1.645   8.963   2.617  1.5855 -0.3936 -1.5185
  292MOL0     H39366   1.623   9.064   2.752 -2.4188  0.1828 -2.2320
  292MOL0     H39367   1.851   9.003   2.828 -0.4859 -1.5427 -0.1723
  292MOL0     H39368   1.871   8.882   2.707  0.7786 -0.3813  2.3286
  292MOL0     H39369   1.890   9.182   2.675  3.7471 -0.2425  0.8848
  292MOL0     H39370   1.800   9.091   2.549 -2.8906 -2.7875  1.1121
  292MOL0     H39371   2.136   9.209   2.697  0.0520  0.0989 -0.0389
  292MOL0     H39372   2.430   9.012   2.532 -2.2199 -1.2660  0.1550
  292MOL0     H39373   2.367   9.185   2.516 -1.5146  1.6469  1.8979
  292MOL0     H39374   2.520   9.052   2.734 -0.3444  0.2110 -0.0792
  292MOL0     H39375   2.355   9.090   2.783 -1.2814  0.8690 -2.1299
  292MOL0     H39376   2.494   9.278   2.848  1.0621 -1.3915  1.0046
  292MOL0     H39377   2.364   9.316   2.731 -0.5624 -2.4380 -0.5642
  292MOL0     H39378   2.549   9.317   2.549  3.2678  0.9684 -1.5754
  292MOL0     H39379   2.661   9.265   2.670 -1.8360 -2.6551  0.8176
  292MOL0     H39380   2.586   9.629   2.469  1.9149 -1.7881  1.2353
  292MOL0     H39381   2.564   9.870   2.408 -0.4345  1.0814 -3.8677
  292MOL0     H39382   2.438   9.756   2.323 -1.9072 -0.3061  0.1980
  292MOL0     H39383   2.388   9.908   2.383 -0.6337 -0.2631  2.6135
  292MOL0     H39384   1.967   9.871   2.629 -2.4675  0.1781 -0.2341
  292MOL0     H39385   1.760   9.980   2.633  0.2635  2.4729 -2.1077
  292MOL0     H39386   1.687  10.219   2.565 -2.0518  1.5160 -1.1655
  292MOL0     H39387   1.544  10.230   2.647 -1.1705  1.5068  2.9308
  292MOL0     H39388   1.588  10.441   2.612 -1.5324 -1.5374  1.6733
  292MOL0     H39389   1.642  10.444   2.777 -1.6023  4.1799 -1.1892
  292MOL0     H39390   1.840  10.415   2.533  1.7840 -1.8372  0.6865
  292MOL0     H39391   1.878  10.402   2.706 -1.4223 -0.2919  0.2783
  292MOL0     H39392   1.883  10.647   2.567  0.9471 -2.7229 -0.1678
  292MOL0     H39393   1.718  10.643   2.628  0.0954 -0.0919 -1.5593
  292MOL0     H39394   1.976  10.613   2.783  0.0543  0.0680 -1.9063
  292MOL0     H39395   1.812  10.593   2.856 -1.5610  0.7154 -1.3370
  292MOL0     H39396   1.753  10.821   2.758  0.8543 -4.0484 -1.6883
  292MOL0     H39397   1.843  10.844   2.911  2.0305  1.5111  0.4924
  292MOL0     H39398   1.941  10.993   2.711  1.9078 -0.1834 -1.5686
  292MOL0     H39399   2.008  10.839   2.655  1.4930  1.1992 -0.1481
  292MOL0     H39400   2.110  10.799   2.882  3.0752  0.7282 -1.4381
  292MOL0     H39401   2.067  10.966   2.927 -1.1412 -1.0079 -0.2504
  292MOL0     H39402   1.906  10.255   2.926 -0.7772 -1.4482  0.9702
  292MOL0     H39403   2.121  10.154   2.915 -0.9321 -0.5182  2.5032
  292MOL0     H39404   2.299   9.743   2.843 -0.6497 -0.3293 -1.7829
  292MOL0     H39405   2.435   9.533   2.850  0.1394  0.1138  0.5689
  292MOL0     H39406   1.133   8.459   2.880 -2.2156  1.0501 -3.0994
  292MOL0     H39407   0.953   8.289   2.875 -1.0146  1.9129 -2.3760
  292MOL0     H39408   0.541   8.059   2.756  0.7291 -1.0517  0.1107
  292MOL0     H39409   0.323   7.981   2.823  1.3219 -0.0688 -1.5266
  292MOL0     H39410   0.089   7.990   2.890 -1.8534 -1.2256 -1.1520
  292MOL0     H39411   0.169   7.831   2.920 -0.3967  0.0840  0.5651
  292MOL0     H39412   0.042   7.785   3.121  1.9881  1.6672  0.0074
  292MOL0     H39413  -0.069   7.788   2.979  0.4528 -2.3588  0.9024
  292MOL0     H39414  -0.121   8.031   3.066 -0.5758  0.0845  0.0009
  292MOL0     H39415  -0.028   7.995   3.203 -0.9659 -1.8149  0.2613
  292MOL0     H39416  -0.262   7.819   3.106 -1.7445 -0.5515  1.4893
  292MOL0     H39417  -0.278   7.951   3.219 -0.1798 -0.6892  2.2836
  292MOL0     H39418  -0.172   7.641   3.486  3.0396  1.2317  0.6122
  292MOL0     H39419   0.366   8.076   3.236  0.3876 -1.2563 -0.0351
  292MOL0     H39420   0.581   8.189   3.171 -1.3681  2.0452 -0.1471
  293MOL0     O39421   8.664   2.687   2.745 -0.8411 -1.0280 -0.2354
  293MOL0     C39422   8.618   2.576   2.734  0.7014 -0.6017 -0.6192
  293MOL0     O39423   8.636   2.492   2.631 -0.0001 -0.9401  0.2846
  293MOL0     C39424   8.703   2.522   2.513 -0.9437  0.0052  0.7165
  293MOL0     C39425   8.660   2.459   2.405  0.0029 -0.2157 -0.1434
  293MOL0     C39426   8.720   2.468   2.272 -0.0537  0.1602  1.0405
  293MOL0     C39427   8.832   2.549   2.256  0.1147 -0.6613  0.1997
  293MOL0     O39428   8.883   2.552   2.127 -0.6995 -0.3287  0.4369
  293MOL0     C39429   9.008   2.626   2.107 -0.3619  0.0669  1.4377
  293MOL0     C39430   9.132   2.559   2.166  0.0849  0.0561  0.7364
  293MOL0     C39431   9.184   2.444   2.072  0.4649 -0.0193  0.1360
  293MOL0     C39432   9.145   2.311   2.113  0.0855 -0.1672 -0.6503
  293MOL0     C39433   9.158   2.188   2.019 -0.1122 -0.7045  0.0579
  293MOL0     C39434   9.071   2.071   2.066  0.0047 -0.5981  0.1576
  293MOL0     C39435   8.925   2.093   2.032  0.0190 -0.1325  1.1701
  293MOL0     C39436   8.826   2.003   2.113 -1.2346 -1.4817 -0.1819
  293MOL0     N39437   8.865   2.001   2.254 -1.0821  0.7736  1.2078
  293MOL0     C39438   8.875   2.106   2.338 -0.0436  0.1490  0.8066
  293MOL0     C39439   8.926   2.069   2.451 -0.5306  0.0662 -1.3455
  293MOL0     C39440   8.959   2.145   2.584  0.5947 -0.1340  0.5030
  293MOL0     C39441   8.858   2.102   2.690  0.2166 -0.6522 -0.6557
  293MOL0     C39442   8.881   2.194   2.815 -0.2111 -0.5547  1.0335
  293MOL0     C39443   8.830   2.131   2.941  0.0579 -0.2900  0.0482
  293MOL0     O39444   8.684   2.116   2.925  0.0834  0.5102  0.3685
  293MOL0     C39445   8.618   2.039   3.025 -0.3559  0.1101  1.3700
  293MOL0     C39446   8.512   1.963   2.977  0.0532  0.5529 -0.0358
  293MOL0     C39447   8.444   1.867   3.060  0.5590 -0.2356  0.0268
  293MOL0     C39448   8.327   1.782   2.999 -0.3068  0.6917 -0.2898
  293MOL0     C39449   8.480   1.859   3.198  0.1675  0.3756 -0.4565
  293MOL0     C39450   8.409   1.772   3.292 -0.2592 -0.1428 -0.8006
  293MOL0     O39451   8.278   1.766   3.280  0.2572  0.1720 -0.0740
  293MOL0     C39452   8.221   1.665   3.352  0.4671 -0.2547  0.2748
  293MOL0     C39453   8.279   1.535   3.367  0.5794 -1.2943  0.2221
  293MOL0     C39454   8.212   1.429   3.404  0.2666  0.4355 -0.3266
  293MOL0     C39455   8.080   1.439   3.455  0.5570  0.6153 -0.5221
  293MOL0     O39456   8.012   1.323   3.500  0.1179 -0.4132 -0.2291
  293MOL0     C39457   7.887   1.329   3.551  0.1772 -0.2876 -0.3655
  293MOL0     C39458   7.823   1.204   3.611 -0.2434  0.0637 -0.0725
  293MOL0     C39459   7.760   1.133   3.495  0.2765 -0.2937 -0.4142
  293MOL0     C39460   7.800   0.989   3.495 -0.4033  0.0339 -0.9289
  293MOL0     C39461   7.754   0.904   3.379  0.2304  0.2549  0.3177
  293MOL0     C39462   7.601   0.899   3.363 -0.9180 -0.7093  0.2445
  293MOL0     C39463   7.571   0.796   3.254  0.4006  0.4513  0.3853
  293MOL0     C39464   7.478   0.865   3.161 -0.2902  0.4241  0.0457
  293MOL0    Cl39465   7.330   0.930   3.242 -0.2319 -0.0249  0.6239
  293MOL0     C39466   8.019   1.559   3.444  0.4967  0.4081  0.6711
  293MOL0     C39467   8.090   1.677   3.390  0.3495 -0.2533  0.0761
  293MOL0     O39468   8.476   1.729   3.388 -0.3209 -0.0736 -0.8125
  293MOL0     C39469   8.600   1.921   3.236  0.3291 -0.1705 -0.4178
  293MOL0     C39470   8.667   2.005   3.151  0.5581 -0.1104  0.3066
  293MOL0     N39471   8.953   1.929   2.441  0.8857 -0.5947  0.4012
  293MOL0     N39472   8.930   1.899   2.315  0.4479 -0.3520  0.0927
  293MOL0     C39473   8.872   2.630   2.367  0.1030 -0.5455 -0.2806
  293MOL0     C39474   8.816   2.603   2.496  0.2746 -0.8793  0.1066
  293MOL0     C39475   8.528   2.530   2.848 -0.9889  0.3379 -0.0461
  293MOL0     C39476   8.507   2.395   2.865  1.1123  0.1387  1.7761
  293MOL0     C39477   8.426   2.340   2.960  0.7259  1.0122  0.2463
  293MOL0     C39478   8.370   2.415   3.062 -0.4683  0.9344 -0.0674
  293MOL0     O39479   8.293   2.343   3.149  0.3334  0.8353 -0.3225
  293MOL0     C39480   8.265   2.390   3.276 -0.5454  0.6805 -0.7670
  293MOL0     C39481   8.184   2.285   3.347 -0.5557  0.5291  0.1367
  293MOL0     C39482   8.215   2.146   3.329 -0.3923 -0.8093 -0.1213
  293MOL0     C39483   8.103   2.062   3.395  0.2351 -0.2260  0.1331
  293MOL0     C39484   8.080   2.055   3.546  0.1206 -0.5368 -0.1091
  293MOL0     C39485   8.049   2.048   3.666  0.7756 -0.3798 -0.2979
  293MOL0     C39486   8.402   2.547   3.059 -0.1733 -0.3272 -0.7588
  293MOL0     C39487   8.468   2.608   2.952  0.2111  0.2189 -0.1336
  293MOL0     H39488   8.572   2.396   2.418 -0.9707  0.9208 -0.9398
  293MOL0     H39489   8.691   2.395   2.196  3.6456 -0.0135 -0.4207
  293MOL0     H39490   9.016   2.641   1.999  1.2549 -0.9669  1.3840
  293MOL0     H39491   9.004   2.725   2.152  3.1214  0.0242  2.1216
  293MOL0     H39492   9.208   2.637   2.160  0.3630 -0.1725  1.2561
  293MOL0     H39493   9.138   2.528   2.270  0.6927 -2.0974  0.1232
  293MOL0     H39494   9.144   2.465   1.972 -0.7815 -1.2326  0.3504
  293MOL0     H39495   9.291   2.457   2.051  0.2747  0.1206 -0.8285
  293MOL0     H39496   9.200   2.290   2.205  0.1176 -1.3866 -0.9360
  293MOL0     H39497   9.046   2.317   2.158  0.0130 -1.9221 -0.5035
  293MOL0     H39498   9.136   2.214   1.915 -1.7523  0.7721  0.7190
  293MOL0     H39499   9.262   2.156   2.031  0.2094 -0.0259 -0.8313
  293MOL0     H39500   9.099   1.976   2.020  1.2463  0.7578 -2.0583
  293MOL0     H39501   9.097   2.074   2.172 -2.2619  3.7141  0.7931
  293MOL0     H39502   8.892   2.197   2.032  2.8221  0.8634 -0.4255
  293MOL0     H39503   8.911   2.077   1.925  0.9135  2.7432  0.5302
  293MOL0     H39504   8.843   1.900   2.080 -0.8692 -2.5295  2.9489
  293MOL0     H39505   8.726   2.038   2.088 -1.1715 -0.2830  1.1152
  293MOL0     H39506   8.842   2.208   2.321  0.3883  0.4641  1.7730
  293MOL0     H39507   9.060   2.114   2.613  1.5737  1.4051 -1.0708
  293MOL0     H39508   8.961   2.251   2.557 -2.4355 -0.0223  0.3742
  293MOL0     H39509   8.864   1.998   2.723  0.3104  0.1199  1.9605
  293MOL0     H39510   8.757   2.125   2.654  0.0530 -0.7466 -0.2553
  293MOL0     H39511   8.816   2.281   2.797  0.1313 -0.4054  0.5021
  293MOL0     H39512   8.985   2.223   2.830 -0.7489  1.4448  1.1954
  293MOL0     H39513   8.844   2.189   3.033  1.5824 -0.7926  0.1706
  293MOL0     H39514   8.869   2.029   2.954  0.1477 -0.5121 -1.7402
  293MOL0     H39515   8.504   1.977   2.869 -0.4858 -1.1832 -0.2385
  293MOL0     H39516   8.230   1.798   3.049 -0.2478  4.4168 -1.0614
  293MOL0     H39517   8.330   1.812   2.894  3.0042 -0.3136 -0.5943
  293MOL0     H39518   8.347   1.675   2.995  0.4251  0.8335 -0.4931
  293MOL0     H39519   8.382   1.519   3.336  0.2074 -0.4799 -1.6038
  293MOL0     H39520   8.266   1.336   3.410 -2.5774 -1.3578 -0.6574
  293MOL0     H39521   7.888   1.396   3.638 -4.2982  0.6556 -0.8091
  293MOL0     H39522   7.814   1.382   3.488  3.0629  4.6147 -0.1521
  293MOL0     H39523   7.907   1.157   3.663  0.7547  0.8443 -0.9361
  293MOL0     H39524   7.743   1.212   3.685 -1.8229  0.0699 -1.7222
  293MOL0     H39525   7.788   1.184   3.402 -1.1986  1.2094 -0.0737
  293MOL0     H39526   7.653   1.128   3.516  0.1139 -0.0827 -1.1397
  293MOL0     H39527   7.907   0.979   3.512 -0.5383 -1.9939 -1.0660
  293MOL0     H39528   7.769   0.955   3.594 -0.8920  1.8654 -0.4059
  293MOL0     H39529   7.793   0.802   3.378  0.2234  0.1913 -2.6600
  293MOL0     H39530   7.798   0.958   3.294 -1.0623  3.0322  1.3022
  293MOL0     H39531   7.553   0.861   3.454 -1.0525  0.3714  0.6344
  293MOL0     H39532   7.564   1.001   3.351 -2.0915 -0.9979  1.2346
  293MOL0     H39533   7.532   0.701   3.292  2.8621 -0.1759  1.5630
  293MOL0     H39534   7.662   0.762   3.203 -0.1039  0.4870 -0.5532
  293MOL0     H39535   7.455   0.792   3.082 -0.9283 -0.4131  0.9833
  293MOL0     H39536   7.528   0.952   3.118  0.6983  0.0552  0.4280
  293MOL0     H39537   7.915   1.566   3.472  1.1853  1.1436  3.4301
  293MOL0     H39538   8.028   1.766   3.381 -0.9547 -1.1107  0.1984
  293MOL0     H39539   8.641   1.904   3.335 -2.9887  0.2366  1.1576
  293MOL0     H39540   8.759   2.047   3.193 -1.0559 -0.2730  4.5226
  293MOL0     H39541   8.940   2.714   2.370 -1.7278  1.0348 -1.1990
  293MOL0     H39542   8.864   2.643   2.585  1.4329 -1.6097 -0.1717
  293MOL0     H39543   8.559   2.329   2.796  1.1200  1.9618 -0.0235
  293MOL0     H39544   8.421   2.231   2.963 -2.3449  1.0738  0.3965
  293MOL0     H39545   8.362   2.404   3.324  0.5729  0.5406 -2.8368
  293MOL0     H39546   8.213   2.486   3.269 -1.1478  0.6819  2.5349
  293MOL0     H39547   8.083   2.299   3.307 -0.2792  0.9514 -0.4335
  293MOL0     H39548   8.167   2.316   3.451 -2.0026  1.9512 -0.4722
  293MOL0     H39549   8.313   2.120   3.371 -0.4590 -1.1436 -0.1656
  293MOL0     H39550   8.228   2.119   3.223  0.3250 -2.3370  0.3283
  293MOL0     H39551   8.105   1.961   3.354 -1.3344  0.1906 -1.0539
  293MOL0     H39552   8.004   2.089   3.358  0.7045 -0.9346 -1.7423
  293MOL0     H39553   8.034   2.059   3.771 -1.0956  2.2065 -0.7285
  293MOL0     H39554   8.363   2.609   3.139  1.6938 -0.4441  0.2759
  293MOL0     H39555   8.488   2.715   2.952 -0.4475  0.3488  0.3045
  294MOL0     O39556  11.371   4.465   6.453 -0.0299  0.0515  0.1326
  294MOL0     C39557  11.310   4.551   6.386  0.3402  0.7381  0.1166
  294MOL0     O39558  11.226   4.520   6.281 -0.1598 -0.1146  0.0242
  294MOL0     C39559  11.231   4.389   6.243  0.1013  0.0157  0.0245
  294MOL0     C39560  11.126   4.299   6.279 -0.1106  0.1445  0.2500
  294MOL0     C39561  11.128   4.168   6.241  0.4322  0.0194 -0.0773
  294MOL0     C39562  11.246   4.119   6.185  0.3036  0.0127 -0.0508
  294MOL0     O39563  11.262   3.982   6.171  0.1631 -0.8390 -0.2274
  294MOL0     C39564  11.288   3.946   6.041  0.1692  0.3419  0.7036
  294MOL0     C39565  11.222   3.816   5.978 -0.3131 -0.1989 -0.1609
  294MOL0     C39566  11.247   3.810   5.826  0.7427 -0.1793 -0.4204
  294MOL0     C39567  11.206   3.665   5.781  0.1046  0.1773 -0.4963
  294MOL0     C39568  11.251   3.631   5.640 -0.5618  0.6138  0.4205
  294MOL0     C39569  11.186   3.511   5.573 -1.5930 -0.0947 -0.4011
  294MOL0     C39570  11.225   3.377   5.646  0.8087 -0.0241  0.2724
  294MOL0     C39571  11.186   3.249   5.555  0.2105  0.2127 -0.1111
  294MOL0     N39572  11.073   3.261   5.465  1.3622  0.4814 -0.0101
  294MOL0     C39573  11.067   3.227   5.330 -0.9745  0.1056  0.2934
  294MOL0     C39574  10.936   3.258   5.298  0.5640 -1.0418  0.3016
  294MOL0     C39575  10.877   3.230   5.161 -0.1867  0.0068  1.1046
  294MOL0     C39576  10.792   3.108   5.160  1.0089 -0.3880 -0.3894
  294MOL0     C39577  10.655   3.122   5.230 -0.1016 -0.7157  0.0373
  294MOL0     C39578  10.572   3.248   5.214 -0.1964 -0.1967  0.2860
  294MOL0     O39579  10.437   3.225   5.263 -0.4812 -0.9686 -0.7834
  294MOL0     C39580  10.407   3.259   5.396  0.1507 -0.9147 -0.4441
  294MOL0     C39581  10.274   3.240   5.450 -0.1328  0.0498  1.2546
  294MOL0     C39582  10.236   3.259   5.588 -1.4482  0.1218  0.0337
  294MOL0     C39583  10.084   3.250   5.614  0.4641  0.0789 -0.4932
  294MOL0     C39584  10.330   3.306   5.680 -0.2233  0.2640  0.6973
  294MOL0     C39585  10.304   3.348   5.823 -0.7809 -0.3072  0.2331
  294MOL0     O39586  10.415   3.371   5.908 -0.9706  0.8711 -0.1802
  294MOL0     C39587  10.403   3.411   6.037  0.4431  0.1602 -0.1834
  294MOL0     C39588  10.303   3.503   6.078  0.4934 -0.0695  0.5037
  294MOL0     C39589  10.272   3.541   6.209  0.0290  0.4845  0.8873
  294MOL0     C39590  10.336   3.473   6.305  0.1043  0.4707 -0.3190
  294MOL0     O39591  10.310   3.478   6.441 -0.0500  0.3482 -0.2373
  294MOL0     C39592  10.202   3.548   6.489  0.6091 -0.2286 -0.2376
  294MOL0     C39593  10.058   3.493   6.450  0.5467 -0.5812  0.0024
  294MOL0     C39594   9.949   3.559   6.529 -0.4590 -0.3463 -0.2655
  294MOL0     C39595   9.816   3.524   6.471 -0.2146 -0.0039  0.2534
  294MOL0     C39596   9.705   3.619   6.515  0.9300 -0.8781 -0.8276
  294MOL0     C39597   9.700   3.626   6.666 -1.3751 -0.2157  0.5592
  294MOL0     C39598   9.570   3.678   6.721  0.2789 -0.6494 -0.0385
  294MOL0     C39599   9.555   3.670   6.874  1.1087 -0.7241  0.1229
  294MOL0    Cl39600   9.683   3.773   6.950 -0.0058 -0.2240  0.1692
  294MOL0     C39601  10.433   3.378   6.274 -0.7077  0.3719 -0.5090
  294MOL0     C39602  10.464   3.342   6.139  0.3808  0.8580  0.3247
  294MOL0     O39603  10.187   3.352   5.854 -0.6125  0.5259 -0.0973
  294MOL0     C39604  10.462   3.325   5.629 -0.4493  1.4460 -0.4298
  294MOL0     C39605  10.497   3.307   5.490 -0.4821  0.4293  1.8706
  294MOL0     N39606  10.866   3.307   5.401  0.2747  0.2257  0.4098
  294MOL0     N39607  10.950   3.312   5.497 -0.4919 -0.6290  0.1650
  294MOL0     C39608  11.350   4.212   6.154  0.1770  0.8544  0.2603
  294MOL0     C39609  11.342   4.339   6.177  0.4219 -0.1023 -0.1851
  294MOL0     C39610  11.343   4.689   6.413  0.6469 -0.4918 -0.3803
  294MOL0     C39611  11.237   4.784   6.416  0.4575  0.7221 -0.4043
  294MOL0     C39612  11.263   4.908   6.463  1.1135 -0.9597  0.4107
  294MOL0     C39613  11.388   4.949   6.506  0.0562 -0.2554  0.6383
  294MOL0     O39614  11.391   5.078   6.561  0.0397 -0.0586  0.4899
  294MOL0     C39615  11.499   5.109   6.649  0.8412  0.5010  0.0352
  294MOL0     C39616  11.600   5.173   6.555 -0.2759  0.8127 -0.8166
  294MOL0     C39617  11.559   5.316   6.502 -0.8147 -0.6808 -0.6568
  294MOL0     C39618  11.628   5.351   6.373  0.3784  0.2364  0.1824
  294MOL0     C39619  11.643   5.498   6.374 -0.4776  0.0913 -0.6047
  294MOL0     C39620  11.652   5.618   6.392  0.6606  0.4704  0.0240
  294MOL0     C39621  11.496   4.854   6.492 -0.1553 -0.6469 -0.3708
  294MOL0     C39622  11.473   4.725   6.453  0.1034 -0.1950  0.6115
  294MOL0     H39623  11.051   4.357   6.331 -1.6475  0.3915 -2.0804
  294MOL0     H39624  11.050   4.095   6.256 -1.7550  1.7319 -2.2876
  294MOL0     H39625  11.238   4.023   5.981 -2.3880 -2.4706 -0.9969
  294MOL0     H39626  11.396   3.937   6.026  0.2029  1.1713  0.3704
  294MOL0     H39627  11.252   3.722   6.025  0.5878  0.8126  1.3556
  294MOL0     H39628  11.114   3.829   5.988 -0.4932 -0.6164 -1.3317
  294MOL0     H39629  11.173   3.877   5.780  0.0392 -0.6598 -0.0009
  294MOL0     H39630  11.354   3.825   5.806  1.1295 -0.6598  1.1660
  294MOL0     H39631  11.237   3.580   5.843  2.0099  1.3540  0.2643
  294MOL0     H39632  11.098   3.652   5.777  0.2767 -1.0568 -3.6579
  294MOL0     H39633  11.227   3.717   5.577 -0.0040  0.4446 -0.0264
  294MOL0     H39634  11.361   3.630   5.643 -0.5814 -0.5510  1.8733
  294MOL0     H39635  11.077   3.524   5.572 -1.4792  0.9070 -0.9445
  294MOL0     H39636  11.228   3.516   5.472 -0.4914  1.1648  0.0770
  294MOL0     H39637  11.333   3.366   5.663  1.0606  1.9204  0.1760
  294MOL0     H39638  11.172   3.361   5.740 -0.6333 -0.1407 -0.5454
  294MOL0     H39639  11.160   3.165   5.620 -1.8131 -1.5392 -2.9932
  294MOL0     H39640  11.276   3.224   5.498  0.0075  2.3209 -1.4261
  294MOL0     H39641  11.143   3.187   5.264  0.7965  3.4292  0.0820
  294MOL0     H39642  10.812   3.313   5.131 -1.9185 -1.8568 -0.6219
  294MOL0     H39643  10.953   3.235   5.082 -1.1131  4.7454  0.1796
  294MOL0     H39644  10.847   3.033   5.219  2.5612 -1.3407 -2.9078
  294MOL0     H39645  10.773   3.069   5.060  1.3021 -2.9789  0.4847
  294MOL0     H39646  10.664   3.117   5.339 -2.0737 -1.1254  0.2195
  294MOL0     H39647  10.590   3.039   5.202 -2.3587 -0.1025  2.9488
  294MOL0     H39648  10.561   3.268   5.107  0.9312 -1.0432 -0.0196
  294MOL0     H39649  10.626   3.330   5.261  0.4891  0.0762 -0.9294
  294MOL0     H39650  10.210   3.195   5.374  3.7239 -0.0867 -2.2904
  294MOL0     H39651  10.038   3.175   5.549  1.7498  0.5165 -1.9788
  294MOL0     H39652  10.055   3.207   5.710 -1.4787  1.9173 -0.1736
  294MOL0     H39653  10.029   3.344   5.607 -0.7795 -0.6825 -1.4443
  294MOL0     H39654  10.236   3.547   6.005  1.9813  1.7122  0.1503
  294MOL0     H39655  10.196   3.617   6.221 -0.8631 -0.0269 -1.1737
  294MOL0     H39656  10.208   3.531   6.597 -0.1747  1.3948  0.0993
  294MOL0     H39657  10.207   3.657   6.478 -0.9275  0.2291  2.5386
  294MOL0     H39658  10.043   3.505   6.342  1.2046 -0.0822 -0.0419
  294MOL0     H39659  10.059   3.387   6.477  1.7043 -0.1416  1.8237
  294MOL0     H39660   9.972   3.665   6.510  0.1322 -0.2327  0.9749
  294MOL0     H39661   9.957   3.530   6.634  2.4852  3.1843  0.7002
  294MOL0     H39662   9.832   3.515   6.363  2.8525 -2.9144  0.7519
  294MOL0     H39663   9.791   3.422   6.501  0.4431 -0.4757 -0.7625
  294MOL0     H39664   9.608   3.599   6.467 -0.8334  1.2738  1.5225
  294MOL0     H39665   9.731   3.716   6.471 -0.9385 -0.9111 -2.1411
  294MOL0     H39666   9.711   3.526   6.708  2.4035 -0.2232 -0.0583
  294MOL0     H39667   9.786   3.681   6.705 -3.3197  2.6511  1.1254
  294MOL0     H39668   9.491   3.614   6.682 -0.0209 -2.6226  3.3995
  294MOL0     H39669   9.556   3.782   6.689  1.1321 -0.6716 -0.5196
  294MOL0     H39670   9.563   3.571   6.920 -0.6996  0.9211  4.6007
  294MOL0     H39671   9.457   3.702   6.909  1.3578  0.3406 -0.0989
  294MOL0     H39672  10.480   3.320   6.353 -0.2702 -1.5517 -2.0936
  294MOL0     H39673  10.540   3.271   6.108 -3.3912 -3.9491  0.9068
  294MOL0     H39674  10.537   3.360   5.699  3.1225 -4.1945 -0.8477
  294MOL0     H39675  10.605   3.323   5.491 -0.3752  0.0320  0.1944
  294MOL0     H39676  11.440   4.174   6.107 -1.3768 -1.8408 -0.8245
  294MOL0     H39677  11.429   4.402   6.157  1.7125 -1.4031  1.0974
  294MOL0     H39678  11.139   4.745   6.391  0.4191 -1.5551  2.7565
  294MOL0     H39679  11.178   4.974   6.455 -0.2107 -2.8035 -3.3501
  294MOL0     H39680  11.456   5.163   6.734 -1.5730 -1.8223  0.4189
  294MOL0     H39681  11.539   5.016   6.691  1.5842 -0.3400 -2.4033
  294MOL0     H39682  11.611   5.111   6.466  2.1385  0.8317 -0.5979
  294MOL0     H39683  11.692   5.198   6.609  0.3302  1.5087 -2.1265
  294MOL0     H39684  11.605   5.379   6.579 -1.3848 -0.9866 -0.0691
  294MOL0     H39685  11.451   5.330   6.493 -1.1550 -1.1809  1.8838
  294MOL0     H39686  11.566   5.308   6.294 -1.6954  1.3992  1.0895
  294MOL0     H39687  11.725   5.300   6.366  1.0533  1.6116 -1.2413
  294MOL0     H39688  11.647   5.724   6.406 -3.0530  0.3805  0.3642
  294MOL0     H39689  11.595   4.890   6.516 -0.6913  0.4854  0.1840
  294MOL0     H39690  11.545   4.643   6.451  0.1690 -0.1586  1.3211
  295MOL0     O39691   6.483   1.753   6.102  0.0259  0.1579 -0.7749
  295MOL0     C39692   6.498   1.738   5.985  0.2975 -0.3715  0.4272
  295MOL0     O39693   6.396   1.771   5.895 -0.1953  0.1298 -0.6474
  295MOL0     C39694   6.272   1.792   5.946 -1.4144 -0.2433 -0.7555
  295MOL0     C39695   6.201   1.690   6.005  1.3996 -0.1267  0.0119
  295MOL0     C39696   6.063   1.712   6.042 -0.7458  0.6070 -0.2566
  295MOL0     C39697   5.999   1.833   6.003  0.5237 -0.3100 -0.5056
  295MOL0     O39698   5.862   1.869   6.021  0.7225 -0.3500 -0.7806
  295MOL0     C39699   5.795   1.818   6.134  0.5626  0.6970 -0.5144
  295MOL0     C39700   5.650   1.869   6.126 -0.0142 -0.5732 -0.1791
  295MOL0     C39701   5.578   1.870   6.262  0.1973 -0.4597 -0.1400
  295MOL0     C39702   5.611   1.993   6.349  0.3950  0.1656 -0.1185
  295MOL0     C39703   5.556   1.972   6.489  0.3903  0.4391 -0.0362
  295MOL0     C39704   5.582   2.084   6.586 -0.5144 -0.5931  0.8907
  295MOL0     C39705   5.533   2.078   6.731  0.4595  0.7364 -0.8744
  295MOL0     C39706   5.531   2.225   6.786 -0.0685 -0.3014 -0.1741
  295MOL0     N39707   5.638   2.228   6.885  0.0327 -0.1227 -1.2476
  295MOL0     C39708   5.639   2.161   7.007  0.1091 -0.6847 -0.8521
  295MOL0     C39709   5.745   2.198   7.069 -0.9718 -0.0092 -1.1259
  295MOL0     C39710   5.790   2.129   7.189  0.6047 -0.3383  1.0302
  295MOL0     C39711   5.706   2.164   7.313  0.4423 -0.1998  0.2735
  295MOL0     C39712   5.774   2.122   7.444  0.0289 -0.8822 -0.8537
  295MOL0     C39713   5.800   1.974   7.478 -0.0389  0.4565  0.0791
  295MOL0     O39714   5.729   1.932   7.592 -0.7891 -0.2522  0.0076
  295MOL0     C39715   5.799   1.933   7.710 -0.9237  0.3977 -0.6763
  295MOL0     C39716   5.758   1.863   7.826  0.1740  0.0890 -0.8705
  295MOL0     C39717   5.826   1.850   7.948  0.2266 -0.6378  0.2918
  295MOL0     C39718   5.759   1.769   8.058 -1.1780 -0.4300 -0.1706
  295MOL0     C39719   5.942   1.934   7.961  0.3511 -0.2064  0.5390
  295MOL0     C39720   6.021   1.928   8.085  0.1590 -0.3084 -0.4180
  295MOL0     O39721   6.036   1.809   8.146 -0.7603  0.2355 -0.3554
  295MOL0     C39722   6.083   1.819   8.272  0.1962  0.7847 -0.2620
  295MOL0     C39723   6.042   1.901   8.382  0.1380  0.3021  0.1813
  295MOL0     C39724   6.094   1.884   8.509  0.4472 -0.2300  0.1976
  295MOL0     C39725   6.171   1.777   8.533 -0.0890  1.0727 -0.0687
  295MOL0     O39726   6.192   1.731   8.663 -0.4457 -0.8372  0.2961
  295MOL0     C39727   6.317   1.791   8.713 -0.8276 -0.1005  0.0622
  295MOL0     C39728   6.436   1.709   8.664 -0.1855  0.1998  0.5851
  295MOL0     C39729   6.435   1.576   8.724  0.0724  0.4588  0.3908
  295MOL0     C39730   6.499   1.470   8.638  0.0686 -1.3480 -0.3317
  295MOL0     C39731   6.459   1.340   8.722 -0.6358  0.3223  0.3926
  295MOL0     C39732   6.534   1.218   8.666  0.5356  0.9070 -0.1379
  295MOL0     C39733   6.492   1.080   8.711 -0.1869  0.1209 -0.3856
  295MOL0     C39734   6.589   0.972   8.673 -0.1917 -0.0327  0.0649
  295MOL0    Cl39735   6.548   0.809   8.742  0.1385  0.4343 -0.1472
  295MOL0     C39736   6.205   1.680   8.427 -0.4488 -0.8136 -0.0576
  295MOL0     C39737   6.163   1.703   8.302  0.4418  0.2047 -0.2879
  295MOL0     O39738   6.073   2.034   8.123  0.2626  0.2331 -0.0997
  295MOL0     C39739   5.972   2.020   7.851  0.3307 -0.8406  0.3669
  295MOL0     C39740   5.906   2.027   7.730 -0.3278  0.6496  0.5279
  295MOL0     N39741   5.811   2.298   6.990 -0.6423  0.4790 -0.3255
  295MOL0     N39742   5.733   2.327   6.894  0.0534  0.3324 -0.6413
  295MOL0     C39743   6.072   1.933   5.951  0.2986  0.2988 -0.6902
  295MOL0     C39744   6.211   1.917   5.916  0.5544 -0.0153 -0.1004
  295MOL0     C39745   6.632   1.734   5.932 -0.8126  1.0383  0.6974
  295MOL0     C39746   6.654   1.680   5.804  0.2548  1.1521  0.0982
  295MOL0     C39747   6.783   1.650   5.749 -0.0978 -0.0750 -0.8201
  295MOL0     C39748   6.897   1.675   5.831 -0.4169 -0.1086  0.0606
  295MOL0     O39749   7.024   1.631   5.816  0.4170  0.4230  0.0622
  295MOL0     C39750   7.058   1.588   5.681  0.4713  0.9389 -0.2343
  295MOL0     C39751   7.211   1.581   5.674  0.2602  0.0065 -0.1792
  295MOL0     C39752   7.265   1.522   5.545 -0.1519 -1.2923  0.0348
  295MOL0     C39753   7.409   1.465   5.563 -0.0967  0.8428  0.7344
  295MOL0     C39754   7.506   1.570   5.531 -1.0940 -0.4845 -0.0215
  295MOL0     C39755   7.587   1.664   5.509  1.0199  0.2472  0.4653
  295MOL0     C39756   6.874   1.735   5.956  0.6478  0.5137  0.7699
  295MOL0     C39757   6.745   1.756   6.009 -0.0316  0.2442  0.5796
  295MOL0     H39758   6.251   1.596   6.026  1.6021 -0.0509 -0.1354
  295MOL0     H39759   6.004   1.635   6.091  2.5454 -2.6384 -0.9684
  295MOL0     H39760   5.798   1.709   6.122  0.6177  0.9054 -2.6484
  295MOL0     H39761   5.841   1.835   6.232  0.4355 -1.8231  0.0569
  295MOL0     H39762   5.653   1.973   6.094  0.6428 -0.2108  0.9989
  295MOL0     H39763   5.580   1.819   6.058 -2.7743  0.3836  1.7529
  295MOL0     H39764   5.470   1.861   6.249  0.1716  0.7659 -0.9627
  295MOL0     H39765   5.614   1.784   6.318 -0.7393 -0.6620  0.1657
  295MOL0     H39766   5.719   2.007   6.343  0.7460 -1.1508  1.9228
  295MOL0     H39767   5.567   2.078   6.297  1.4515 -0.2412 -1.7363
  295MOL0     H39768   5.449   1.950   6.482 -0.1199  3.1640 -2.9767
  295MOL0     H39769   5.597   1.878   6.527 -2.1654 -0.7392  0.0604
  295MOL0     H39770   5.687   2.105   6.604 -0.1658 -1.5952  0.1205
  295MOL0     H39771   5.542   2.173   6.537  1.5702 -0.4661 -0.7005
  295MOL0     H39772   5.432   2.035   6.731  1.6803 -2.4588 -0.4299
  295MOL0     H39773   5.588   2.005   6.791  1.1740  2.8679  1.2190
  295MOL0     H39774   5.439   2.260   6.833 -0.9805 -0.7251 -1.5866
  295MOL0     H39775   5.554   2.290   6.701 -0.1696 -1.5672 -1.1989
  295MOL0     H39776   5.578   2.076   7.037 -1.3267  0.1319 -1.3539
  295MOL0     H39777   5.786   2.021   7.171  2.7449 -0.7061  2.3937
  295MOL0     H39778   5.891   2.168   7.200  0.2001  0.8208  0.8247
  295MOL0     H39779   5.603   2.127   7.318 -0.0814  0.8723 -1.6224
  295MOL0     H39780   5.687   2.271   7.317 -4.4270 -0.8330  0.2031
  295MOL0     H39781   5.707   2.163   7.520  2.8925  5.2286 -1.0617
  295MOL0     H39782   5.871   2.172   7.446 -0.6906  1.0153 -4.7987
  295MOL0     H39783   5.909   1.962   7.487 -0.2537 -0.7388  1.5175
  295MOL0     H39784   5.765   1.909   7.397 -2.1481  1.5748  0.0438
  295MOL0     H39785   5.678   1.792   7.808  0.2952  0.2296 -2.0417
  295MOL0     H39786   5.825   1.682   8.069  2.0193  1.9309  0.7215
  295MOL0     H39787   5.755   1.812   8.158 -1.7434  3.3497 -1.6365
  295MOL0     H39788   5.656   1.743   8.034 -1.2337  0.6712 -1.2520
  295MOL0     H39789   5.976   1.982   8.352  1.5795  1.4682  0.0321
  295MOL0     H39790   6.062   1.948   8.591  1.0744  0.9295 -0.4270
  295MOL0     H39791   6.332   1.896   8.687  2.8666 -0.2841  0.8701
  295MOL0     H39792   6.312   1.787   8.822  2.3424  0.1631  0.3106
  295MOL0     H39793   6.443   1.704   8.554 -0.3331 -1.0762  0.6241
  295MOL0     H39794   6.528   1.764   8.686 -0.8810  1.6598  0.0381
  295MOL0     H39795   6.330   1.549   8.738 -0.7034  3.9179  2.6055
  295MOL0     H39796   6.478   1.564   8.824  1.3569  0.5514 -0.1299
  295MOL0     H39797   6.455   1.468   8.538  0.9924 -0.1120 -0.8006
  295MOL0     H39798   6.608   1.478   8.628  0.2702 -2.3249  0.8797
  295MOL0     H39799   6.351   1.322   8.716 -0.3041 -2.0846  0.7525
  295MOL0     H39800   6.479   1.342   8.830  1.0586  0.0692  0.1083
  295MOL0     H39801   6.531   1.219   8.557  0.0647  1.4272 -0.1259
  295MOL0     H39802   6.638   1.226   8.700  0.0877  0.8574  1.3242
  295MOL0     H39803   6.390   1.059   8.680 -1.2649 -0.6635  3.2197
  295MOL0     H39804   6.489   1.091   8.820  0.1879  0.8525 -0.4414
  295MOL0     H39805   6.691   1.002   8.700 -0.0599 -1.0791  0.7878
  295MOL0     H39806   6.594   0.967   8.563  0.0643  1.3536 -0.0013
  295MOL0     H39807   6.244   1.583   8.454  0.9273 -0.4835 -0.8079
  295MOL0     H39808   6.170   1.617   8.235 -1.8484  0.6598 -1.2317
  295MOL0     H39809   6.053   2.092   7.851 -0.6901  0.5274 -2.9108
  295MOL0     H39810   5.958   2.096   7.664  2.8549  1.3352  3.4425
  295MOL0     H39811   6.034   2.032   5.931 -0.8477 -0.3396 -1.8695
  295MOL0     H39812   6.264   2.001   5.874  1.3770  1.0663  2.8615
  295MOL0     H39813   6.569   1.657   5.741  0.7114  3.5897 -1.5299
  295MOL0     H39814   6.797   1.589   5.660 -0.4668 -0.0823 -0.8745
  295MOL0     H39815   7.021   1.490   5.650 -1.8618  2.4348 -2.5572
  295MOL0     H39816   7.019   1.667   5.616 -0.8365  0.8690  0.4473
  295MOL0     H39817   7.249   1.523   5.758  0.7275  1.8808  0.9727
  295MOL0     H39818   7.255   1.678   5.700 -0.8415  0.4288  0.1722
  295MOL0     H39819   7.273   1.599   5.467  4.6226  1.7074  2.9678
  295MOL0     H39820   7.197   1.440   5.518  2.0096 -2.0832 -3.7829
  295MOL0     H39821   7.424   1.383   5.492 -2.7603  0.0095  1.0099
  295MOL0     H39822   7.431   1.420   5.660 -0.3900  2.0442  1.3752
  295MOL0     H39823   7.665   1.735   5.490  0.7527  0.0048 -1.7590
  295MOL0     H39824   6.959   1.747   6.022  2.2160 -1.6890 -0.7182
  295MOL0     H39825   6.730   1.800   6.107 -0.2371  2.2445 -0.3059
  296MOL0     O39826   1.192   9.003  10.513  0.5137 -0.5241 -0.1273
  296MOL0     C39827   1.268   8.934  10.583 -0.2578 -0.1525 -0.1878
  296MOL0     O39828   1.312   8.970  10.705 -0.5151 -0.1121  0.1150
  296MOL0     C39829   1.236   9.053  10.791 -0.1995 -0.0480 -0.3714
  296MOL0     C39830   1.155   9.164  10.750 -0.1283  0.0058  0.0053
  296MOL0     C39831   1.067   9.233  10.841 -0.4392  0.4754 -1.1255
  296MOL0     C39832   1.049   9.182  10.976 -0.6073  0.9875 -0.5717
  296MOL0     O39833   0.963   9.257  11.059 -0.1199  0.3346  0.2780
  296MOL0     C39834   0.917   9.188  11.177  0.3508 -0.8722  0.2396
  296MOL0     C39835   0.787   9.100  11.155 -0.3610  0.2342 -0.3234
  296MOL0     C39836   0.823   8.961  11.088  0.0008  0.4496 -0.1786
  296MOL0     C39837   0.702   8.870  11.053  0.3964 -0.0696  0.3286
  296MOL0     C39838   0.765   8.750  10.973  0.6480  0.3672  0.7594
  296MOL0     C39839   0.666   8.641  10.935  0.0145  0.6940 -0.8736
  296MOL0     C39840   0.745   8.512  10.899 -0.4538 -0.6942  0.1354
  296MOL0     C39841   0.791   8.427  11.021  0.6536 -0.8971 -0.1156
  296MOL0     N39842   0.814   8.289  10.976 -0.5835 -0.7285 -0.0111
  296MOL0     C39843   0.730   8.191  10.961  0.4627 -0.8717  0.7431
  296MOL0     C39844   0.811   8.094  10.913  0.6157  0.3080  0.0547
  296MOL0     C39845   0.772   7.957  10.852  1.1068 -0.7470  0.3996
  296MOL0     C39846   0.621   7.915  10.882  0.5356  0.2260  0.3634
  296MOL0     C39847   0.584   7.789  10.805  0.0170 -0.4350 -0.2876
  296MOL0     C39848   0.659   7.659  10.852  0.2102 -0.0216  0.6691
  296MOL0     O39849   0.601   7.539  10.790 -0.3217  0.0661  0.5468
  296MOL0     C39850   0.672   7.430  10.792  0.1971 -0.1580 -0.0221
  296MOL0     C39851   0.802   7.418  10.859  0.7328 -0.0637 -0.7610
  296MOL0     C39852   0.875   7.298  10.851 -0.0466  0.0726 -0.0120
  296MOL0     C39853   1.005   7.282  10.930  0.2015  0.7392  0.1155
  296MOL0     C39854   0.814   7.185  10.783 -0.1681 -0.8003  0.0622
  296MOL0     C39855   0.864   7.051  10.772  0.2475  0.0068  0.1541
  296MOL0     O39856   0.806   6.975  10.670  0.6685  0.3115 -0.2075
  296MOL0     C39857   0.841   6.846  10.657 -0.5426 -0.2053  0.0626
  296MOL0     C39858   0.876   6.755  10.762 -1.3188 -0.1997 -0.5425
  296MOL0     C39859   0.921   6.625  10.718 -0.5878  0.4671 -0.7431
  296MOL0     C39860   0.921   6.585  10.577  0.1600  0.7529 -0.7286
  296MOL0     O39861   0.951   6.445  10.550 -0.2858 -0.6512 -0.1406
  296MOL0     C39862   1.089   6.425  10.525  0.6471 -0.7157 -0.5529
  296MOL0     C39863   1.110   6.387  10.379  0.3486  0.3111  0.4733
  296MOL0     C39864   1.239   6.302  10.349  0.4039  0.8132  1.2883
  296MOL0     C39865   1.258   6.271  10.195 -1.0084 -0.2618  0.0064
  296MOL0     C39866   1.405   6.237  10.154  0.2681 -0.2261  0.1322
  296MOL0     C39867   1.429   6.259  10.010  0.2546  0.1566 -0.3469
  296MOL0     C39868   1.581   6.239   9.981 -0.1051 -0.1350 -0.1993
  296MOL0     C39869   1.603   6.192   9.834 -0.1537  0.6159 -0.7324
  296MOL0    Cl39870   1.782   6.167   9.785  0.5443 -0.0782 -0.4133
  296MOL0     C39871   0.891   6.680  10.481 -0.5985  0.4602 -1.0057
  296MOL0     C39872   0.849   6.805  10.527 -1.0416  0.0708 -0.7015
  296MOL0     O39873   0.948   7.018  10.850 -0.9077  0.6896 -0.2550
  296MOL0     C39874   0.688   7.211  10.719  0.4649 -0.5701  0.1649
  296MOL0     C39875   0.623   7.327  10.724 -0.1772 -0.0496 -0.0594
  296MOL0     N39876   0.945   8.138  10.903  0.1540 -0.0943  0.0505
  296MOL0     N39877   0.940   8.266  10.930 -0.3253 -0.1408 -0.4697
  296MOL0     C39878   1.129   9.071  11.018 -0.5491 -0.8258 -0.0009
  296MOL0     C39879   1.216   9.008  10.924 -1.2684 -0.3880  1.0640
  296MOL0     C39880   1.332   8.813  10.523 -0.1982  1.0474 -0.2819
  296MOL0     C39881   1.293   8.762  10.394  0.3972  0.3324 -0.7784
  296MOL0     C39882   1.360   8.650  10.343 -0.0931 -0.3434  0.9017
  296MOL0     C39883   1.456   8.581  10.406 -0.9409  0.3518 -0.4993
  296MOL0     O39884   1.507   8.473  10.344 -0.5389 -0.0518 -0.1176
  296MOL0     C39885   1.571   8.363  10.415  0.3637  0.7067  0.3122
  296MOL0     C39886   1.459   8.265  10.472  0.1180  0.2371 -0.1944
  296MOL0     C39887   1.519   8.151  10.552 -0.1604  0.0538  0.1476
  296MOL0     C39888   1.406   8.056  10.606  0.0074  0.3144 -0.8915
  296MOL0     C39889   1.336   8.126  10.714  0.5057  0.7862  0.3081
  296MOL0     C39890   1.269   8.173  10.808  0.1553  0.2915  0.1950
  296MOL0     C39891   1.464   8.615  10.545  0.4576  0.8148 -0.8046
  296MOL0     C39892   1.407   8.725  10.607  0.0495  0.7562 -0.4614
  296MOL0     H39893   1.147   9.198  10.647  0.1879 -2.2349 -0.8259
  296MOL0     H39894   1.019   9.322  10.802 -0.4955 -0.0186 -2.2439
  296MOL0     H39895   0.991   9.144  11.244 -1.9599 -3.2232  1.4390
  296MOL0     H39896   0.876   9.270  11.236  1.6426  0.3293 -0.4685
  296MOL0     H39897   0.736   9.086  11.250 -0.0108 -2.7811 -0.4817
  296MOL0     H39898   0.725   9.160  11.087  1.5762  2.1921 -0.4822
  296MOL0     H39899   0.888   8.986  11.004 -0.0972  1.7513  0.1061
  296MOL0     H39900   0.894   8.907  11.151  1.6607 -0.0083 -2.3240
  296MOL0     H39901   0.648   8.838  11.143  2.4905  1.2096  2.1621
  296MOL0     H39902   0.630   8.927  10.995 -0.5733 -1.9792 -0.4290
  296MOL0     H39903   0.801   8.789  10.877  0.9359  1.3155  1.2465
  296MOL0     H39904   0.843   8.711  11.040  0.1988 -1.8492  0.0722
  296MOL0     H39905   0.594   8.620  11.015 -0.1551  1.4765 -0.8120
  296MOL0     H39906   0.609   8.667  10.846 -1.4473 -2.5802 -1.0269
  296MOL0     H39907   0.671   8.450  10.848 -0.1259  0.3127 -1.6568
  296MOL0     H39908   0.823   8.530  10.824 -0.0166 -1.5217  0.3767
  296MOL0     H39909   0.708   8.424  11.093 -0.8398  0.5227 -1.7022
  296MOL0     H39910   0.871   8.485  11.068 -1.1416  2.2971 -0.7227
  296MOL0     H39911   0.624   8.184  10.983 -0.0471  2.6058 -0.0993
  296MOL0     H39912   0.797   7.965  10.746  0.7593  0.8954  0.4049
  296MOL0     H39913   0.850   7.889  10.888 -0.6315 -2.1005  1.7453
  296MOL0     H39914   0.562   8.000  10.846 -1.5419  1.4303  5.7008
  296MOL0     H39915   0.594   7.916  10.988  1.9507  1.3144  0.7551
  296MOL0     H39916   0.597   7.798  10.696  0.0695 -0.9653 -0.3285
  296MOL0     H39917   0.477   7.778  10.826  0.3375 -0.5978  1.3438
  296MOL0     H39918   0.657   7.646  10.961  0.6030 -0.2547  0.6491
  296MOL0     H39919   0.758   7.662  10.806 -0.1671  0.4174 -0.1429
  296MOL0     H39920   0.837   7.498  10.922  0.6481 -0.3484 -0.3521
  296MOL0     H39921   0.984   7.207  11.006  0.5272  2.0174  1.5090
  296MOL0     H39922   1.082   7.243  10.862 -0.4010  0.7519 -0.5845
  296MOL0     H39923   1.040   7.371  10.984  2.9956 -0.8953  1.2064
  296MOL0     H39924   0.879   6.774  10.868 -3.4588 -2.6894  0.0849
  296MOL0     H39925   0.947   6.557  10.798 -0.4506  2.7653  1.2917
  296MOL0     H39926   1.146   6.513  10.557  0.9558  0.3116 -3.5746
  296MOL0     H39927   1.120   6.345  10.592  2.8677  1.5393  1.2909
  296MOL0     H39928   1.027   6.323  10.347 -0.0814  0.4584  1.2461
  296MOL0     H39929   1.098   6.486  10.334 -1.3621  0.2317  0.6785
  296MOL0     H39930   1.232   6.208  10.403  0.7549  0.9201  1.5233
  296MOL0     H39931   1.330   6.352  10.382  2.1157 -1.5893  0.4759
  296MOL0     H39932   1.184   6.199  10.158 -0.6561 -0.1594 -0.9177
  296MOL0     H39933   1.235   6.364  10.142 -2.1333  0.3589  1.5141
  296MOL0     H39934   1.429   6.136  10.186 -1.3165 -1.0926 -1.2097
  296MOL0     H39935   1.463   6.307  10.214  0.5261  1.7798 -2.2537
  296MOL0     H39936   1.375   6.181   9.955  1.3350 -1.2104  0.4599
  296MOL0     H39937   1.396   6.356   9.972 -0.8389 -0.0797 -0.0330
  296MOL0     H39938   1.611   6.158  10.048  0.3818  0.4235  0.2689
  296MOL0     H39939   1.639   6.327  10.012  0.1589  0.1207 -1.3861
  296MOL0     H39940   1.563   6.270   9.769  0.4500  2.8847  1.4694
  296MOL0     H39941   1.545   6.099   9.827 -0.0861  0.3389  1.6700
  296MOL0     H39942   0.893   6.645  10.378 -1.1658 -1.1340 -0.4954
  296MOL0     H39943   0.824   6.880  10.453 -1.1802  1.8422  1.0444
  296MOL0     H39944   0.648   7.143  10.645 -1.2639  0.0761  0.4638
  296MOL0     H39945   0.534   7.335  10.663 -2.1700 -3.0449  2.1412
  296MOL0     H39946   1.124   9.027  11.117 -2.8987  1.9008  1.2210
  296MOL0     H39947   1.267   8.920  10.963  0.4280  0.3992  0.7537
  296MOL0     H39948   1.230   8.831  10.337 -1.7693 -0.7427  0.2037
  296MOL0     H39949   1.345   8.629  10.238 -1.0626 -1.3445  1.2187
  296MOL0     H39950   1.617   8.302  10.337 -1.7776  0.4398 -0.8052
  296MOL0     H39951   1.646   8.400  10.486 -0.8379 -0.3121  2.2104
  296MOL0     H39952   1.400   8.234  10.386 -1.6934 -0.2873  1.1924
  296MOL0     H39953   1.389   8.320  10.536  3.9834  2.1475  2.8355
  296MOL0     H39954   1.581   8.185  10.635  0.4599 -1.2798  0.2632
  296MOL0     H39955   1.585   8.083  10.496 -0.3149 -2.0774  2.3571
  296MOL0     H39956   1.436   7.955  10.636  0.7117  0.7520 -0.1003
  296MOL0     H39957   1.322   8.043  10.537 -1.5522  0.1672  0.9393
  296MOL0     H39958   1.202   8.195  10.889  0.7652  0.8449  0.5566
  296MOL0     H39959   1.525   8.545  10.602 -1.2549 -0.3885 -0.3701
  296MOL0     H39960   1.427   8.736  10.713  1.8701 -0.6451 -0.6163
  297MOL0     O39961   6.528   7.055   4.363 -0.6117 -0.1663 -0.6503
  297MOL0     C39962   6.422   7.100   4.316 -0.3989  0.1086 -0.8927
  297MOL0     O39963   6.338   7.034   4.234 -0.1781  0.3597 -0.2765
  297MOL0     C39964   6.369   6.908   4.204 -0.6663 -0.8941 -0.3464
  297MOL0     C39965   6.417   6.870   4.073 -0.6574 -0.6448 -0.5448
  297MOL0     C39966   6.440   6.738   4.049 -0.3832  0.1988  0.7557
  297MOL0     C39967   6.409   6.638   4.148  0.4300 -0.0971 -0.2774
  297MOL0     O39968   6.436   6.503   4.128  1.5452 -0.0257 -0.2526
  297MOL0     C39969   6.456   6.461   3.982  0.2109 -0.0570 -0.1303
  297MOL0     C39970   6.421   6.315   3.955 -0.0874 -0.1541  0.3208
  297MOL0     C39971   6.513   6.219   4.045  0.2803  0.3224 -0.4591
  297MOL0     C39972   6.444   6.193   4.182 -0.8030 -0.5343 -0.5483
  297MOL0     C39973   6.509   6.077   4.266 -0.1854  0.2743  0.0189
  297MOL0     C39974   6.423   6.023   4.387 -0.3799 -1.2225 -0.2684
  297MOL0     C39975   6.355   6.142   4.455  0.5055  0.7515 -0.3806
  297MOL0     C39976   6.321   6.135   4.604  0.2824  1.2477  0.2891
  297MOL0     N39977   6.277   6.264   4.673  0.8276  0.0399  0.1758
  297MOL0     C39978   6.345   6.378   4.702 -0.6400  0.7283  0.3432
  297MOL0     C39979   6.273   6.442   4.792  0.2923 -1.3316 -0.8785
  297MOL0     C39980   6.309   6.579   4.852 -1.0672  0.5069  0.8808
  297MOL0     C39981   6.347   6.574   5.002 -0.6617 -1.0197  0.0079
  297MOL0     C39982   6.361   6.718   5.069  0.7914  0.3835 -1.3612
  297MOL0     C39983   6.410   6.711   5.218  0.0203  0.0371 -0.6531
  297MOL0     O39984   6.506   6.607   5.226 -0.2866 -0.4107  0.5415
  297MOL0     C39985   6.571   6.579   5.343  0.9183  0.7318 -0.4858
  297MOL0     C39986   6.548   6.647   5.468  0.4324 -0.5426 -0.4945
  297MOL0     C39987   6.616   6.616   5.596  0.0123  0.6254  1.3573
  297MOL0     C39988   6.586   6.696   5.721  0.0415 -0.3480  0.5874
  297MOL0     C39989   6.714   6.505   5.587 -0.2850 -0.0526  0.0280
  297MOL0     C39990   6.787   6.456   5.700 -0.1053 -0.1348 -0.0686
  297MOL0     O39991   6.745   6.496   5.827  0.2249  0.1553 -1.4264
  297MOL0     C39992   6.810   6.450   5.938  0.8013  0.0610  0.2226
  297MOL0     C39993   6.731   6.401   6.045 -0.2160 -0.7139  0.0588
  297MOL0     C39994   6.790   6.330   6.157  0.6889 -0.0925  0.4696
  297MOL0     C39995   6.928   6.324   6.165  0.4960  0.8737 -0.5960
  297MOL0     O39996   6.977   6.249   6.268  0.0862 -0.1535 -0.4321
  297MOL0     C39997   7.108   6.183   6.256 -1.3829 -0.5122  1.0642
  297MOL0     C39998   7.124   6.089   6.133  0.2507 -0.0557  0.1628
  297MOL0     C39999   7.200   6.156   6.006 -0.6123 -0.4938  0.0934
  297MOL0     C40000   7.271   6.046   5.915  0.3971 -0.4233  0.3672
  297MOL0     C40001   7.254   6.072   5.765 -0.0411 -0.1377  0.2736
  297MOL0     C40002   7.367   5.987   5.693 -0.4889  0.3072  0.3115
  297MOL0     C40003   7.517   6.025   5.723  0.7126  0.8697 -1.0343
  297MOL0     C40004   7.538   6.175   5.732  0.5056 -0.7806 -0.0522
  297MOL0    Cl40005   7.473   6.271   5.589 -0.4448 -0.1244  0.3265
  297MOL0     C40006   7.010   6.398   6.073  0.6119  0.4811  0.5716
  297MOL0     C40007   6.946   6.461   5.962 -0.6534  0.2177  0.2677
  297MOL0     O40008   6.871   6.368   5.678  0.7783 -0.0224 -0.6545
  297MOL0     C40009   6.735   6.442   5.463  0.3806 -0.5753  0.7336
  297MOL0     C40010   6.661   6.473   5.342  0.1367 -0.7093 -0.3282
  297MOL0     N40011   6.160   6.367   4.825 -0.2585 -0.1904 -0.7843
  297MOL0     N40012   6.152   6.280   4.735  0.1133  0.7628 -0.5667
  297MOL0     C40013   6.362   6.680   4.277 -0.1042 -0.9396  0.4010
  297MOL0     C40014   6.339   6.818   4.305  0.6923  0.9862 -1.1156
  297MOL0     C40015   6.371   7.234   4.352 -0.6095  0.5394 -0.0300
  297MOL0     C40016   6.247   7.280   4.293  0.6781 -0.3477 -0.3139
  297MOL0     C40017   6.204   7.408   4.318  0.0830  0.4434 -0.2342
  297MOL0     C40018   6.277   7.500   4.391  1.1007  0.3141  0.5607
  297MOL0     O40019   6.227   7.624   4.403  0.5661 -0.4217 -0.2798
  297MOL0     C40020   6.290   7.721   4.486  0.3662  0.1047  0.7382
  297MOL0     C40021   6.266   7.852   4.413  0.0511  0.1396  1.0193
  297MOL0     C40022   6.380   7.965   4.440 -0.1718  0.2727  0.0899
  297MOL0     C40023   6.351   8.101   4.378 -0.2315 -0.2001 -0.3766
  297MOL0     C40024   6.216   8.139   4.406  1.5481 -0.1641 -0.0269
  297MOL0     C40025   6.110   8.175   4.457 -0.2400 -0.6748 -0.6853
  297MOL0     C40026   6.397   7.451   4.449  0.0587 -0.6600 -0.3066
  297MOL0     C40027   6.438   7.320   4.441  0.1020  0.4746  0.5681
  297MOL0     H40028   6.450   6.946   4.003  0.6562 -1.1103 -0.4381
  297MOL0     H40029   6.466   6.719   3.946 -0.4784  2.6724  0.2093
  297MOL0     H40030   6.381   6.513   3.920 -0.1865  1.9471  1.8877
  297MOL0     H40031   6.559   6.474   3.946  0.3035 -0.3479  0.0331
  297MOL0     H40032   6.313   6.302   3.969 -0.5302  2.0377 -0.5832
  297MOL0     H40033   6.442   6.293   3.850 -0.9058  2.4644 -0.4878
  297MOL0     H40034   6.506   6.122   3.995 -0.8858 -1.4470  2.8387
  297MOL0     H40035   6.613   6.261   4.058  0.3796  0.5830 -1.9164
  297MOL0     H40036   6.449   6.288   4.236  4.6451 -2.7499  3.8473
  297MOL0     H40037   6.336   6.179   4.173 -1.6551  2.4254  2.7145
  297MOL0     H40038   6.521   5.986   4.207  5.3186  0.8135 -0.2060
  297MOL0     H40039   6.612   6.102   4.293  0.8374 -2.3208 -1.1048
  297MOL0     H40040   6.342   5.963   4.345  0.3739 -0.4667 -3.0492
  297MOL0     H40041   6.481   5.968   4.462  0.6125  0.2237  0.0726
  297MOL0     H40042   6.422   6.229   4.452  0.8958  0.6197  2.2838
  297MOL0     H40043   6.268   6.157   4.390  0.7210 -2.4416 -1.6052
  297MOL0     H40044   6.406   6.096   4.660  1.2036 -1.2241 -2.5517
  297MOL0     H40045   6.249   6.055   4.620  1.0384  0.3345 -0.7791
  297MOL0     H40046   6.442   6.408   4.662 -0.8945  0.2984 -0.6279
  297MOL0     H40047   6.407   6.608   4.812 -1.0849  0.9095  1.1276
  297MOL0     H40048   6.228   6.647   4.826 -0.2689 -0.0296 -3.8214
  297MOL0     H40049   6.441   6.518   5.003 -0.9580 -1.5956 -1.4352
  297MOL0     H40050   6.272   6.520   5.060 -2.3383 -0.9244 -1.9728
  297MOL0     H40051   6.265   6.769   5.065  0.7718  0.4992  0.2145
  297MOL0     H40052   6.432   6.771   5.005  1.5495 -0.3130 -1.1255
  297MOL0     H40053   6.321   6.687   5.277 -1.1045  2.9283 -1.0221
  297MOL0     H40054   6.448   6.811   5.240  0.7990 -0.5600  0.8725
  297MOL0     H40055   6.473   6.725   5.476  0.0548 -1.0639  2.6738
  297MOL0     H40056   6.559   6.637   5.810  0.6955 -0.9544  0.3937
  297MOL0     H40057   6.677   6.751   5.747  2.2595 -3.5210  0.1300
  297MOL0     H40058   6.496   6.750   5.689  0.3587 -1.3941 -2.3767
  297MOL0     H40059   6.625   6.391   6.023  0.0379 -1.7709 -0.7518
  297MOL0     H40060   6.742   6.283   6.242  2.3369  0.2780  1.6463
  297MOL0     H40061   7.197   6.247   6.253 -1.7231 -0.0570  0.3576
  297MOL0     H40062   7.135   6.121   6.342 -2.0831 -0.0935  1.5974
  297MOL0     H40063   7.163   5.989   6.155  0.2489 -0.0181  0.3392
  297MOL0     H40064   7.023   6.057   6.103  0.3917 -1.2995  0.9538
  297MOL0     H40065   7.281   6.222   6.038 -0.8357 -0.0314 -0.2784
  297MOL0     H40066   7.136   6.213   5.937 -0.0069 -1.6442 -1.4815
  297MOL0     H40067   7.376   6.050   5.946  0.4877  2.0515 -0.0626
  297MOL0     H40068   7.217   5.954   5.936  0.4063 -0.2173  1.3426
  297MOL0     H40069   7.277   6.176   5.740  0.9697  0.0013  1.6366
  297MOL0     H40070   7.157   6.047   5.721  1.4681 -2.2520 -2.2052
  297MOL0     H40071   7.347   5.881   5.711  0.2790 -0.3374 -2.2278
  297MOL0     H40072   7.349   5.995   5.586 -1.8349 -1.4669  0.3473
  297MOL0     H40073   7.582   5.980   5.647  0.8778 -4.1872  1.6102
  297MOL0     H40074   7.534   5.981   5.822  2.5448  4.0587  0.2011
  297MOL0     H40075   7.642   6.205   5.748  0.9488 -2.5809  0.6395
  297MOL0     H40076   7.474   6.211   5.814  1.6578 -0.6603  0.8201
  297MOL0     H40077   7.118   6.399   6.081  0.7639  4.8715  0.6447
  297MOL0     H40078   7.000   6.511   5.882 -0.7816 -0.9937 -0.6021
  297MOL0     H40079   6.800   6.356   5.451 -0.2513 -0.7812 -1.8094
  297MOL0     H40080   6.685   6.412   5.256  3.7013  0.0030  0.0075
  297MOL0     H40081   6.342   6.604   4.352 -0.9290  0.0219  1.2034
  297MOL0     H40082   6.319   6.854   4.405  2.1004 -3.1141  0.8639
  297MOL0     H40083   6.181   7.216   4.235 -0.1317 -0.2728  0.4892
  297MOL0     H40084   6.102   7.436   4.291 -0.5497 -0.9869  0.5622
  297MOL0     H40085   6.249   7.716   4.587  3.0656  2.4468  2.1195
  297MOL0     H40086   6.399   7.712   4.497  0.1009 -1.6442  2.2917
  297MOL0     H40087   6.163   7.876   4.441 -0.4364 -1.0660  0.3552
  297MOL0     H40088   6.264   7.845   4.303 -1.5625  3.3417  0.7107
  297MOL0     H40089   6.476   7.931   4.400  0.4423  1.8811  0.1311
  297MOL0     H40090   6.388   7.968   4.549  2.0281  0.2563 -0.0181
  297MOL0     H40091   6.378   8.109   4.272  0.2797  0.6701 -0.1896
  297MOL0     H40092   6.411   8.179   4.427  0.8028 -1.9139  1.2200
  297MOL0     H40093   6.030   8.222   4.511 -0.0389 -0.5455 -0.4972
  297MOL0     H40094   6.457   7.516   4.512 -1.8059  1.1257 -0.2501
  297MOL0     H40095   6.532   7.297   4.490  1.4177  3.5022 -0.2761
  298MOL0     O40096   6.378   9.048   8.522  0.0369  1.1357 -0.1794
  298MOL0     C40097   6.322   8.956   8.589 -0.5987 -0.4740  0.2426
  298MOL0     O40098   6.377   8.832   8.608  1.0247  0.5999 -0.6420
  298MOL0     C40099   6.476   8.794   8.528 -1.0503 -0.2495  0.2356
  298MOL0     C40100   6.459   8.798   8.387  0.2752  0.1450 -0.0690
  298MOL0     C40101   6.561   8.737   8.318 -0.3248 -0.1534  0.9758
  298MOL0     C40102   6.684   8.685   8.359  0.5331 -0.1365 -0.1138
  298MOL0     O40103   6.765   8.637   8.263 -0.0185 -0.3758  0.1480
  298MOL0     C40104   6.909   8.674   8.297 -0.1492  1.4700  0.4404
  298MOL0     C40105   6.978   8.680   8.157  0.1181 -0.4192 -1.0246
  298MOL0     C40106   6.903   8.768   8.066  0.0343 -0.5945 -0.9092
  298MOL0     C40107   6.973   8.813   7.933 -0.9322 -0.4004  0.1487
  298MOL0     C40108   6.911   8.929   7.847 -0.3713 -0.4850  0.0070
  298MOL0     C40109   6.766   8.910   7.803 -0.0160 -0.9976  0.2136
  298MOL0     C40110   6.735   9.031   7.713  0.2042 -0.4919 -0.1498
  298MOL0     C40111   6.584   9.043   7.710  0.1696  0.6245  0.1627
  298MOL0     N40112   6.540   9.150   7.628  0.5974  0.0385 -0.1815
  298MOL0     C40113   6.465   9.134   7.517  0.4310 -0.3382  0.5508
  298MOL0     C40114   6.403   9.259   7.500  0.4895 -0.1300  0.1109
  298MOL0     C40115   6.293   9.291   7.396  0.2204 -0.2627 -0.1639
  298MOL0     C40116   6.183   9.185   7.388 -0.1810  0.1178  1.0443
  298MOL0     C40117   6.083   9.186   7.504 -0.5233 -0.3904 -0.2371
  298MOL0     C40118   6.001   9.059   7.514  0.6878 -0.5572 -0.5329
  298MOL0     O40119   5.926   9.059   7.631 -0.2892 -0.0444  0.0841
  298MOL0     C40120   5.972   9.005   7.743 -0.5240  0.5819  0.8638
  298MOL0     C40121   6.102   8.945   7.771  0.7034  0.8593  0.4948
  298MOL0     C40122   6.134   8.883   7.888  0.5576  1.1414 -0.7670
  298MOL0     C40123   6.281   8.841   7.914  0.3163  0.1190 -0.2233
  298MOL0     C40124   6.034   8.876   7.990 -0.3482  0.7263  0.2749
  298MOL0     C40125   6.057   8.790   8.116  0.2322 -0.1432  0.4927
  298MOL0     O40126   5.969   8.823   8.219  0.3055  0.0486 -0.4155
  298MOL0     C40127   5.951   8.739   8.325 -0.0610 -0.2909 -0.4072
  298MOL0     C40128   6.047   8.694   8.414  0.0399 -0.8646  0.5181
  298MOL0     C40129   6.013   8.605   8.526 -0.7645 -0.0078  1.1476
  298MOL0     C40130   5.888   8.566   8.537  0.7290  0.1553 -0.1321
  298MOL0     O40131   5.838   8.491   8.646 -0.0434 -0.4018 -0.1190
  298MOL0     C40132   5.912   8.502   8.769  0.4392  0.5078  0.0733
  298MOL0     C40133   5.811   8.510   8.880  1.1339 -0.5986  0.3936
  298MOL0     C40134   5.782   8.657   8.935 -0.1714 -0.1988  0.2041
  298MOL0     C40135   5.670   8.658   9.044 -0.3141  0.3418  0.3115
  298MOL0     C40136   5.527   8.650   8.988  0.8231  0.0459 -0.7695
  298MOL0     C40137   5.411   8.642   9.094  0.8070  0.2303  0.6270
  298MOL0     C40138   5.429   8.554   9.226 -0.6260 -0.8173  0.7452
  298MOL0     C40139   5.444   8.403   9.204  0.3390  0.0536 -0.1393
  298MOL0    Cl40140   5.286   8.325   9.183 -0.1063  0.0793 -0.0915
  298MOL0     C40141   5.790   8.609   8.448 -0.1059 -0.5026 -0.5778
  298MOL0     C40142   5.821   8.700   8.348  0.5520  0.5241 -0.0914
  298MOL0     O40143   6.135   8.693   8.121  0.0097 -0.1562 -0.0683
  298MOL0     C40144   5.917   8.940   7.966  0.2091  0.0330  0.0213
  298MOL0     C40145   5.880   9.001   7.847  0.5347 -0.9176  0.4320
  298MOL0     N40146   6.458   9.347   7.588  1.0390  0.1064 -0.5210
  298MOL0     N40147   6.529   9.279   7.669 -0.5711 -0.5162 -0.3718
  298MOL0     C40148   6.706   8.698   8.501  0.0875 -0.0225 -0.1822
  298MOL0     C40149   6.597   8.742   8.581 -0.3282 -0.6809  0.2165
  298MOL0     C40150   6.204   8.999   8.671 -0.2475 -0.8563  0.0987
  298MOL0     C40151   6.117   8.901   8.710  0.4645  0.8857 -0.2581
  298MOL0     C40152   5.997   8.937   8.780 -0.4234 -0.2279  0.2939
  298MOL0     C40153   5.969   9.078   8.808 -1.4488 -0.2176  0.6518
  298MOL0     O40154   5.861   9.131   8.880 -0.3665 -0.1085 -0.6748
  298MOL0     C40155   5.767   9.030   8.919 -0.0688  0.5763  0.6291
  298MOL0     C40156   5.638   9.106   8.938 -0.0875 -0.3550 -0.3253
  298MOL0     C40157   5.519   9.027   8.982 -0.6122  0.1064 -0.0205
  298MOL0     C40158   5.395   9.113   8.984 -0.0630  0.4176 -0.2472
  298MOL0     C40159   5.409   9.210   9.097  0.0812  0.0315 -0.3867
  298MOL0     C40160   5.438   9.263   9.204  0.0103  0.1914 -0.0634
  298MOL0     C40161   6.075   9.162   8.770  0.3463  1.1276 -1.5244
  298MOL0     C40162   6.188   9.135   8.703  0.9445  0.7664  0.2454
  298MOL0     H40163   6.370   8.831   8.336  0.3416 -0.0810 -0.3311
  298MOL0     H40164   6.533   8.720   8.214  0.0688 -0.7440  0.9621
  298MOL0     H40165   6.923   8.775   8.336  1.5645  0.4006  2.8417
  298MOL0     H40166   6.953   8.603   8.369 -1.1523  2.4058  2.0472
  298MOL0     H40167   7.085   8.702   8.162  0.3973 -1.9732  1.6659
  298MOL0     H40168   6.972   8.578   8.118 -0.3793 -0.8706  0.1732
  298MOL0     H40169   6.817   8.710   8.031 -0.3535 -2.3395  2.5515
  298MOL0     H40170   6.861   8.862   8.103 -0.2472 -0.2282 -2.1145
  298MOL0     H40171   7.065   8.856   7.974 -2.3650  1.5164  1.5579
  298MOL0     H40172   7.002   8.725   7.875 -0.0875 -1.6246  2.3207
  298MOL0     H40173   6.910   9.017   7.912 -2.0803  1.9307 -3.0061
  298MOL0     H40174   6.968   8.955   7.757 -0.0097  2.5647  0.9986
  298MOL0     H40175   6.762   8.817   7.745  0.9460 -0.6948 -0.3618
  298MOL0     H40176   6.703   8.902   7.892 -0.2916 -1.6636 -0.0353
  298MOL0     H40177   6.769   9.114   7.776  2.1351 -2.3627  1.4568
  298MOL0     H40178   6.771   9.023   7.610  2.7618 -2.4322  0.7841
  298MOL0     H40179   6.545   9.046   7.812 -1.3130  0.1740 -0.3636
  298MOL0     H40180   6.546   8.948   7.669  3.9276 -1.8495  1.9145
  298MOL0     H40181   6.455   9.043   7.459  2.6919 -0.2942  0.0270
  298MOL0     H40182   6.244   9.387   7.418  0.1679 -1.1502  4.8093
  298MOL0     H40183   6.355   9.292   7.306 -0.8651  0.7066 -0.9454
  298MOL0     H40184   6.226   9.085   7.390  0.2373  0.2831  0.4343
  298MOL0     H40185   6.131   9.188   7.292 -0.1611 -1.5276  0.9512
  298MOL0     H40186   6.018   9.274   7.502  0.2811  0.2203 -0.2672
  298MOL0     H40187   6.142   9.196   7.596 -1.5570 -0.7010  0.4787
  298MOL0     H40188   6.063   8.969   7.512  0.4333 -0.7673  0.3965
  298MOL0     H40189   5.929   9.060   7.432  1.4755  0.9371 -1.2545
  298MOL0     H40190   6.182   8.955   7.698  3.0736 -0.1873  2.7845
  298MOL0     H40191   6.289   8.733   7.901 -4.1645 -0.1496 -2.8000
  298MOL0     H40192   6.342   8.894   7.840  0.4366  0.7093  0.2889
  298MOL0     H40193   6.313   8.870   8.014  1.0426  2.3840 -1.0349
  298MOL0     H40194   6.149   8.710   8.379 -0.5236 -1.6115 -1.6375
  298MOL0     H40195   6.100   8.561   8.574  0.2947 -2.0162 -2.2138
  298MOL0     H40196   5.975   8.414   8.779  0.4030  0.4838  0.0869
  298MOL0     H40197   5.973   8.593   8.772  2.5738 -0.8132 -0.9760
  298MOL0     H40198   5.718   8.469   8.839  2.7427 -1.9916 -2.0845
  298MOL0     H40199   5.831   8.443   8.964 -0.1200 -2.7180 -0.8991
  298MOL0     H40200   5.762   8.719   8.847  0.7402  0.1931  0.2649
  298MOL0     H40201   5.873   8.698   8.979  3.1960 -4.7179 -1.8109
  298MOL0     H40202   5.689   8.569   9.105 -0.0749 -1.2668 -1.9734
  298MOL0     H40203   5.677   8.745   9.110 -2.4307  0.7819  0.0220
  298MOL0     H40204   5.530   8.553   8.936  1.3840 -0.2923 -0.1274
  298MOL0     H40205   5.506   8.734   8.922  3.1289 -0.1132 -1.8110
  298MOL0     H40206   5.389   8.746   9.116  0.3129 -0.0703  1.6031
  298MOL0     H40207   5.318   8.606   9.050 -0.4112 -1.2351  4.0226
  298MOL0     H40208   5.345   8.570   9.295 -1.8108  1.4345 -1.0747
  298MOL0     H40209   5.521   8.594   9.270  1.7838 -2.8016 -2.1681
  298MOL0     H40210   5.486   8.355   9.293 -2.2102  1.2309  1.8463
  298MOL0     H40211   5.510   8.381   9.120  0.4345 -1.8103  0.3758
  298MOL0     H40212   5.688   8.580   8.471 -0.9724  1.8163 -1.1698
  298MOL0     H40213   5.745   8.732   8.278  1.9467 -1.5367 -2.7205
  298MOL0     H40214   5.853   8.957   8.052 -0.6424  0.8233 -0.7447
  298MOL0     H40215   5.780   9.041   7.837  0.5286 -1.1112 -0.4059
  298MOL0     H40216   6.794   8.661   8.553 -0.7933 -2.1536 -0.1268
  298MOL0     H40217   6.604   8.727   8.688  0.1944  3.3720  0.9111
  298MOL0     H40218   6.125   8.798   8.678  2.1847  0.5757  1.0425
  298MOL0     H40219   5.929   8.861   8.817  0.4072 -0.3404  1.6430
  298MOL0     H40220   5.741   8.950   8.849  2.3667 -0.1149  0.3936
  298MOL0     H40221   5.803   8.987   9.013 -3.6209 -1.6217  1.1493
  298MOL0     H40222   5.611   9.165   8.850 -1.4021 -1.1795 -0.5041
  298MOL0     H40223   5.662   9.191   9.003 -2.2198 -0.8173  1.1984
  298MOL0     H40224   5.544   8.985   9.080 -2.3246 -1.2795 -0.1130
  298MOL0     H40225   5.502   8.940   8.917  2.5603 -0.2078 -0.6018
  298MOL0     H40226   5.317   9.037   8.996 -0.3957 -0.1787 -4.5669
  298MOL0     H40227   5.382   9.167   8.890 -0.0190 -1.2995 -1.2987
  298MOL0     H40228   5.444   9.309   9.301  1.6770  1.3674 -0.6561
  298MOL0     H40229   6.075   9.265   8.804  0.1212  0.9146 -0.8617
  298MOL0     H40230   6.254   9.218   8.678  1.3002 -0.1024 -1.8637
  299MOL0     O40231   1.743   3.079   5.748 -0.0111 -0.4139 -0.6647
  299MOL0     C40232   1.668   3.169   5.795  0.2243 -0.4910 -0.7180
  299MOL0     O40233   1.577   3.158   5.897 -0.0995 -0.1474 -0.6386
  299MOL0     C40234   1.611   3.066   5.998 -0.1902 -0.2489 -0.2335
  299MOL0     C40235   1.501   2.996   6.050  0.3956  0.2620 -0.3556
  299MOL0     C40236   1.521   2.897   6.144 -0.5617  0.4742 -0.3224
  299MOL0     C40237   1.651   2.868   6.187  0.4935  0.2656 -1.1847
  299MOL0     O40238   1.674   2.789   6.303 -0.5821  0.8057 -0.4283
  299MOL0     C40239   1.800   2.732   6.336  0.6765 -0.4039 -0.4531
  299MOL0     C40240   1.786   2.623   6.445 -0.1985 -0.1085  0.1188
  299MOL0     C40241   1.902   2.527   6.440 -0.4475  0.0903 -0.1945
  299MOL0     C40242   1.899   2.403   6.537 -0.4963 -0.5153 -0.6208
  299MOL0     C40243   1.767   2.341   6.566 -0.2901 -0.2772 -0.3981
  299MOL0     C40244   1.785   2.203   6.639 -0.3674  0.7766 -0.0322
  299MOL0     C40245   1.666   2.119   6.646  0.2765  0.5652  1.1486
  299MOL0     C40246   1.675   2.012   6.759 -0.2055 -0.5446 -0.0525
  299MOL0     N40247   1.790   1.923   6.759 -0.7562  0.3001 -0.4932
  299MOL0     C40248   1.845   1.849   6.659 -0.5364  0.7272 -0.6774
  299MOL0     C40249   1.939   1.777   6.722  1.1586 -0.0801  0.4907
  299MOL0     C40250   2.026   1.671   6.650  0.1441  0.3469 -1.0479
  299MOL0     C40251   1.925   1.569   6.589 -0.3492 -0.0826  0.2936
  299MOL0     C40252   1.995   1.439   6.566  0.1180 -0.4047  0.6532
  299MOL0     C40253   2.110   1.445   6.468  0.0075  0.1639 -0.7277
  299MOL0     O40254   2.120   1.327   6.393  0.1847  0.7057 -0.7029
  299MOL0     C40255   2.167   1.211   6.450 -0.7730  0.4903 -0.1255
  299MOL0     C40256   2.217   1.182   6.570 -0.1207 -0.2467  0.0590
  299MOL0     C40257   2.275   1.056   6.609  0.8335  0.1455 -1.0264
  299MOL0     C40258   2.305   1.034   6.765  0.2215  1.0326  0.1901
  299MOL0     C40259   2.262   0.946   6.520  0.2222 -0.1057  1.7387
  299MOL0     C40260   2.282   0.806   6.574  0.2417  0.3450 -0.3582
  299MOL0     O40261   2.345   0.722   6.486  0.3084  0.4983  0.9932
  299MOL0     C40262   2.376   0.593   6.518  0.1624 -0.4154 -0.4236
  299MOL0     C40263   2.295   0.488   6.517  0.4663 -0.1594  0.3588
  299MOL0     C40264   2.343   0.358   6.523 -0.4433 -0.3710  0.5064
  299MOL0     C40265   2.478   0.335   6.541  0.0191  0.2525  0.2519
  299MOL0     O40266   2.524   0.202   6.564  0.2981 -1.2138  0.8956
  299MOL0     C40267   2.634   0.196   6.659 -0.1086  0.8247  0.6617
  299MOL0     C40268   2.752   0.165   6.566 -0.3981 -0.4248 -0.1324
  299MOL0     C40269   2.859   0.091   6.648 -0.7975  0.2874  1.0343
  299MOL0     C40270   2.989   0.065   6.560  0.1332 -0.3871 -0.9740
  299MOL0     C40271   3.092  -0.004   6.654 -0.1837 -0.3366  0.4468
  299MOL0     C40272   3.207  -0.055   6.558  0.6452  0.6687 -0.0377
  299MOL0     C40273   3.299  -0.148   6.643  0.1816 -0.5410  0.0474
  299MOL0     C40274   3.395  -0.068   6.737 -0.2155 -0.4925 -0.2222
  299MOL0    Cl40275   3.523   0.012   6.644 -0.1087 -0.1504  0.5880
  299MOL0     C40276   2.564   0.450   6.530 -1.0595  0.8096  0.8155
  299MOL0     C40277   2.509   0.578   6.523 -0.4318  0.1700  0.5440
  299MOL0     O40278   2.256   0.775   6.691 -1.5313  0.4269 -0.3039
  299MOL0     C40279   2.209   0.968   6.390 -0.4210 -0.5530 -1.1832
  299MOL0     C40280   2.164   1.101   6.356 -0.8786  0.0893 -0.0762
  299MOL0     N40281   1.947   1.825   6.854 -0.3187 -0.2901  0.2973
  299MOL0     N40282   1.860   1.910   6.877 -0.3626 -0.5359  0.6242
  299MOL0     C40283   1.764   2.920   6.121 -0.8393  0.6661 -0.7325
  299MOL0     C40284   1.739   3.016   6.023  0.0855  0.7501  0.0442
  299MOL0     C40285   1.679   3.305   5.731 -0.0685  0.0322 -0.3905
  299MOL0     C40286   1.577   3.404   5.733  0.2110  0.4828  0.5336
  299MOL0     C40287   1.588   3.514   5.654 -0.6014 -0.2929 -0.1097
  299MOL0     C40288   1.698   3.537   5.568  0.0992  0.5931  0.4478
  299MOL0     O40289   1.704   3.641   5.481  0.6623 -0.0429  0.0639
  299MOL0     C40290   1.588   3.677   5.392 -0.1697  0.7845 -1.3904
  299MOL0     C40291   1.619   3.797   5.306  0.0928  0.5408  0.4034
  299MOL0     C40292   1.480   3.851   5.257  0.1485 -0.1159 -0.4419
  299MOL0     C40293   1.492   3.931   5.129  0.2566 -0.3113  0.4418
  299MOL0     C40294   1.370   4.011   5.103 -0.2904  0.0686  0.1009
  299MOL0     C40295   1.281   4.091   5.086  0.3923  0.9013  0.2600
  299MOL0     C40296   1.803   3.445   5.585  0.6925  0.4314  0.0786
  299MOL0     C40297   1.798   3.340   5.668  0.3788  0.0849 -0.2757
  299MOL0     H40298   1.399   3.028   6.037  0.5994  1.3904  0.6290
  299MOL0     H40299   1.444   2.849   6.203 -0.5176  0.6061 -0.1578
  299MOL0     H40300   1.835   2.684   6.244 -1.0730 -1.3363 -0.6762
  299MOL0     H40301   1.858   2.820   6.367  1.4482 -0.4127 -1.7939
  299MOL0     H40302   1.785   2.659   6.548  4.1219 -1.0707  0.6801
  299MOL0     H40303   1.695   2.569   6.420  0.0306 -0.1567 -0.6258
  299MOL0     H40304   1.910   2.486   6.339  0.0020  1.2620 -0.6509
  299MOL0     H40305   1.997   2.582   6.448  0.5511 -1.5452 -0.2512
  299MOL0     H40306   1.964   2.321   6.506  1.4868  0.4755  0.7725
  299MOL0     H40307   1.946   2.439   6.629 -0.3102 -1.0865 -0.4882
  299MOL0     H40308   1.702   2.416   6.612 -1.1477  0.0572 -2.0433
  299MOL0     H40309   1.716   2.307   6.475 -1.2659  1.7656 -0.6800
  299MOL0     H40310   1.859   2.140   6.589 -2.3410 -1.4170 -0.3705
  299MOL0     H40311   1.811   2.216   6.745  1.8448 -3.4386  0.1831
  299MOL0     H40312   1.578   2.183   6.650  1.0443  1.7454 -0.1136
  299MOL0     H40313   1.652   2.077   6.546  0.8809  1.9775  0.4519
  299MOL0     H40314   1.584   1.952   6.747 -0.9925  0.6990 -0.4308
  299MOL0     H40315   1.657   2.050   6.860 -1.3332 -1.6916  0.2153
  299MOL0     H40316   1.812   1.839   6.556  0.1328 -2.3820 -0.6943
  299MOL0     H40317   2.094   1.713   6.575 -1.5048  0.7736 -2.3909
  299MOL0     H40318   2.081   1.634   6.736  0.7324  1.4639 -0.9317
  299MOL0     H40319   1.885   1.613   6.497  0.0633 -0.0614  0.1247
  299MOL0     H40320   1.839   1.561   6.657  0.9080 -4.4992  1.7129
  299MOL0     H40321   1.919   1.365   6.537  0.3501 -0.3714 -0.0507
  299MOL0     H40322   2.018   1.418   6.671 -0.8211 -0.5946  0.8367
  299MOL0     H40323   2.208   1.459   6.513  0.8582 -1.8664 -1.7956
  299MOL0     H40324   2.082   1.523   6.396 -4.2215 -0.1713  0.2519
  299MOL0     H40325   2.216   1.259   6.646 -1.2339  0.4188 -0.6055
  299MOL0     H40326   2.336   1.125   6.817 -2.3028  2.4077 -0.5866
  299MOL0     H40327   2.221   0.983   6.812  1.7915 -2.6377 -0.5827
  299MOL0     H40328   2.378   0.953   6.772  0.2770  0.6563 -3.1232
  299MOL0     H40329   2.192   0.520   6.502  1.4733  2.5021 -1.7627
  299MOL0     H40330   2.277   0.272   6.523 -0.8760 -0.0494 -0.2646
  299MOL0     H40331   2.651   0.289   6.714 -2.3727  2.0319 -0.5092
  299MOL0     H40332   2.623   0.115   6.732  2.5407 -1.0130 -0.7952
  299MOL0     H40333   2.711   0.109   6.482 -2.0791 -0.5733  0.7512
  299MOL0     H40334   2.796   0.259   6.533 -2.1901 -0.0541 -1.5815
  299MOL0     H40335   2.812  -0.005   6.671  0.5220 -0.7608 -0.3884
  299MOL0     H40336   2.896   0.134   6.742  3.3158  0.6201 -0.5262
  299MOL0     H40337   2.969  -0.020   6.494  0.4018 -0.0808 -1.4538
  299MOL0     H40338   3.027   0.157   6.516  1.8885  0.1175  1.4271
  299MOL0     H40339   3.045  -0.087   6.708 -0.3333 -1.9333 -1.9858
  299MOL0     H40340   3.130   0.060   6.734 -3.7177 -0.4653  2.4741
  299MOL0     H40341   3.176  -0.116   6.473  0.4808 -0.5602  0.8743
  299MOL0     H40342   3.265   0.031   6.524  0.5419 -0.5724 -3.7940
  299MOL0     H40343   3.357  -0.217   6.582  1.2066 -3.3917  3.9088
  299MOL0     H40344   3.241  -0.219   6.703 -1.2103  0.6175  0.1424
  299MOL0     H40345   3.442  -0.134   6.812  0.5296  1.2102  0.8742
  299MOL0     H40346   3.328  -0.001   6.790  0.1286 -0.7248  0.5353
  299MOL0     H40347   2.672   0.442   6.528 -0.8093  3.3376 -0.0316
  299MOL0     H40348   2.566   0.670   6.530  1.6706 -0.8401 -1.7228
  299MOL0     H40349   2.208   0.885   6.320  0.9911  1.8545 -4.3122
  299MOL0     H40350   2.126   1.113   6.255 -0.5978 -2.2566 -0.5138
  299MOL0     H40351   1.865   2.890   6.146 -0.2679  2.5098 -0.6397
  299MOL0     H40352   1.823   3.078   5.996  2.4416 -2.1251  0.2905
  299MOL0     H40353   1.491   3.382   5.797  2.4071 -0.5551  3.3328
  299MOL0     H40354   1.497   3.574   5.650 -0.9275 -0.3329  3.2213
  299MOL0     H40355   1.566   3.602   5.316  0.4889  0.9542 -1.7588
  299MOL0     H40356   1.502   3.712   5.451  0.0277 -1.7769  0.6227
  299MOL0     H40357   1.682   3.773   5.219 -0.2177  1.9601 -0.2489
  299MOL0     H40358   1.664   3.875   5.368 -0.4796  1.9803 -0.9224
  299MOL0     H40359   1.429   3.917   5.328 -2.0709  1.6523 -3.4563
  299MOL0     H40360   1.429   3.759   5.228  1.4053 -0.5451 -1.3542
  299MOL0     H40361   1.508   3.861   5.046  0.6629  0.8276 -0.4701
  299MOL0     H40362   1.581   3.994   5.136  1.5869 -1.8456 -1.4739
  299MOL0     H40363   1.194   4.154   5.080  0.6713  2.2889  5.7176
  299MOL0     H40364   1.899   3.455   5.535 -0.4829  3.5909 -1.7973
  299MOL0     H40365   1.881   3.271   5.681 -0.9840 -1.5686  0.1359
  300MOL0     O40366  10.535   4.982   7.868  0.2369 -0.2907 -0.1918
  300MOL0     C40367  10.633   5.058   7.832  0.0771  0.0369 -0.8388
  300MOL0     O40368  10.635   5.193   7.830 -0.9395 -0.1567  0.2332
  300MOL0     C40369  10.519   5.268   7.827  0.1434 -0.5469  0.1387
  300MOL0     C40370  10.506   5.362   7.720 -0.2917  0.0660  1.4980
  300MOL0     C40371  10.394   5.436   7.713  0.6099 -0.0632 -0.5031
  300MOL0     C40372  10.293   5.426   7.809  0.5379 -1.0850 -0.0793
  300MOL0     O40373  10.186   5.519   7.816 -0.5299  1.0292  0.4322
  300MOL0     C40374  10.184   5.647   7.745 -0.4992 -0.0885  0.1372
  300MOL0     C40375  10.044   5.715   7.734 -1.1885  0.5090 -1.0177
  300MOL0     C40376   9.947   5.640   7.647 -0.0687 -0.9883  0.2257
  300MOL0     C40377   9.880   5.529   7.718  0.6124  0.1434  0.3662
  300MOL0     C40378   9.763   5.471   7.640  0.3459 -0.4184  0.8358
  300MOL0     C40379   9.709   5.351   7.698  0.7001  0.4571  0.7294
  300MOL0     C40380   9.582   5.301   7.639  0.5390  0.0233  0.3389
  300MOL0     C40381   9.453   5.389   7.635  0.0409 -0.0086  0.1089
  300MOL0     N40382   9.392   5.394   7.769 -0.4728 -0.3025  0.2230
  300MOL0     C40383   9.283   5.313   7.806  0.6875  0.5107  0.4396
  300MOL0     C40384   9.246   5.347   7.936  0.4719  0.3279  0.5716
  300MOL0     C40385   9.122   5.287   8.015 -0.8696 -0.4101  0.5048
  300MOL0     C40386   9.154   5.201   8.138 -0.6095  0.2303 -0.4252
  300MOL0     C40387   9.243   5.079   8.104  0.4690  0.0308  0.5569
  300MOL0     C40388   9.226   4.978   8.212 -0.3031 -0.0741 -0.6740
  300MOL0     O40389   9.299   5.024   8.325 -1.3820 -0.6744 -0.2194
  300MOL0     C40390   9.285   4.956   8.442 -0.1870 -0.6419  1.1315
  300MOL0     C40391   9.162   4.912   8.486  0.0925  0.1757 -0.4619
  300MOL0     C40392   9.145   4.831   8.600 -0.0590  0.7161 -0.0612
  300MOL0     C40393   9.004   4.786   8.645  0.0377  0.4247 -0.2265
  300MOL0     C40394   9.258   4.789   8.678 -0.5739 -0.1590 -0.1934
  300MOL0     C40395   9.260   4.688   8.777  0.4294  0.5699 -0.1868
  300MOL0     O40396   9.367   4.689   8.863  0.5628 -0.3396 -0.0209
  300MOL0     C40397   9.370   4.631   8.988 -0.4969 -0.5690 -0.1535
  300MOL0     C40398   9.254   4.617   9.063 -0.4511 -1.6943 -0.1412
  300MOL0     C40399   9.266   4.567   9.190 -0.2005  0.6905  0.2053
  300MOL0     C40400   9.392   4.522   9.245 -0.3600 -0.0301  0.6445
  300MOL0     O40401   9.388   4.464   9.364 -0.1316 -0.0377 -1.0529
  300MOL0     C40402   9.520   4.416   9.414  0.6742 -0.5606 -0.3326
  300MOL0     C40403   9.500   4.296   9.517 -0.1430  0.6708  0.0125
  300MOL0     C40404   9.427   4.350   9.644  0.3201 -0.7021  0.9737
  300MOL0     C40405   9.349   4.258   9.742 -0.3257  0.2727  0.4565
  300MOL0     C40406   9.448   4.162   9.809 -0.4126  0.8113  0.0578
  300MOL0     C40407   9.367   4.071   9.899 -0.0105  0.3472 -0.4262
  300MOL0     C40408   9.454   3.992   9.993  0.4048  0.9545  0.2468
  300MOL0     C40409   9.362   3.888  10.064 -1.1110 -0.1934  0.2396
  300MOL0    Cl40410   9.263   3.967  10.188  0.4123 -0.1789 -0.4548
  300MOL0     C40411   9.503   4.557   9.169 -0.0034 -0.0574 -0.4031
  300MOL0     C40412   9.492   4.606   9.046 -0.2669 -0.2955  0.9667
  300MOL0     O40413   9.174   4.605   8.765  0.2060  0.2942  0.7156
  300MOL0     C40414   9.386   4.842   8.632 -1.4537  0.1863 -1.0277
  300MOL0     C40415   9.397   4.933   8.522 -0.4074  0.6418 -0.4935
  300MOL0     N40416   9.330   5.454   7.976 -0.1525  0.3337 -0.8135
  300MOL0     N40417   9.418   5.474   7.881 -0.5199  0.0021 -0.8873
  300MOL0     C40418  10.301   5.337   7.914  0.2674 -0.2449 -0.2330
  300MOL0     C40419  10.413   5.256   7.920  0.3603 -1.2748 -0.3945
  300MOL0     C40420  10.763   4.995   7.814 -0.4685 -0.1933 -0.8084
  300MOL0     C40421  10.868   5.064   7.743  0.3967  0.4773 -0.2559
  300MOL0     C40422  10.983   5.005   7.711  0.4945  0.1109 -0.1896
  300MOL0     C40423  11.011   4.874   7.735  0.0146  0.0153  0.1169
  300MOL0     O40424  11.124   4.809   7.701  0.7936  0.2251 -0.1054
  300MOL0     C40425  11.129   4.800   7.557 -0.6731  0.3672 -0.2559
  300MOL0     C40426  11.248   4.712   7.509  0.1066 -0.6376  0.3440
  300MOL0     C40427  11.283   4.752   7.368 -0.6955  0.2631  0.1567
  300MOL0     C40428  11.409   4.676   7.330  0.8083  0.0247 -0.1030
  300MOL0     C40429  11.408   4.638   7.189 -0.0110 -0.7256  0.9443
  300MOL0     C40430  11.427   4.607   7.069 -0.3823 -0.5174 -0.1014
  300MOL0     C40431  10.908   4.804   7.802  0.7947  0.2679  0.0066
  300MOL0     C40432  10.780   4.862   7.841 -0.3561 -0.9898  0.0941
  300MOL0     H40433  10.588   5.369   7.650 -1.0476 -1.9856  0.3056
  300MOL0     H40434  10.388   5.490   7.619 -2.2120  0.2400 -0.2303
  300MOL0     H40435  10.239   5.724   7.799  0.5841 -0.4270 -0.4597
  300MOL0     H40436  10.227   5.652   7.645 -2.6667  1.6219 -0.8017
  300MOL0     H40437  10.007   5.753   7.830  0.4027  1.8889 -0.9145
  300MOL0     H40438  10.068   5.817   7.704 -0.9136  0.2099 -1.8750
  300MOL0     H40439   9.881   5.722   7.615  1.8982  1.1624  1.3444
  300MOL0     H40440  10.002   5.598   7.562  1.8266 -0.2347  1.0219
  300MOL0     H40441   9.950   5.448   7.741  1.1346  0.1053 -1.1978
  300MOL0     H40442   9.847   5.565   7.815 -4.0967 -0.5171 -0.7415
  300MOL0     H40443   9.685   5.547   7.629  0.4032 -0.4913 -0.1464
  300MOL0     H40444   9.790   5.440   7.538  2.8699  1.0091  0.9771
  300MOL0     H40445   9.783   5.272   7.686  0.0702 -0.2148  1.2346
  300MOL0     H40446   9.697   5.348   7.806 -0.6696 -3.9363  0.6326
  300MOL0     H40447   9.608   5.271   7.537  1.9856  2.0619  0.0450
  300MOL0     H40448   9.559   5.216   7.704 -1.0174  3.6707  5.1900
  300MOL0     H40449   9.386   5.332   7.571 -1.3672 -1.3720  2.6284
  300MOL0     H40450   9.474   5.487   7.591  0.5480 -0.1673 -0.0060
  300MOL0     H40451   9.234   5.250   7.733 -2.7209 -0.3585  3.2202
  300MOL0     H40452   9.059   5.373   8.038 -0.5894  0.7491 -2.6258
  300MOL0     H40453   9.058   5.225   7.952  0.8100 -0.4723 -1.2286
  300MOL0     H40454   9.066   5.185   8.201  0.2423  2.4168  1.4697
  300MOL0     H40455   9.215   5.270   8.197  1.0944  0.8287 -2.7826
  300MOL0     H40456   9.347   5.107   8.089  0.1705 -0.1605 -2.3117
  300MOL0     H40457   9.208   5.030   8.013 -2.9269  1.8405  0.7190
  300MOL0     H40458   9.267   4.888   8.166 -2.8168 -1.6453  0.0013
  300MOL0     H40459   9.121   4.961   8.239  0.6526 -0.4419  3.5025
  300MOL0     H40460   9.071   4.950   8.442 -0.3568  0.0541  0.3434
  300MOL0     H40461   9.004   4.677   8.632  2.4336  0.1074  1.7332
  300MOL0     H40462   8.981   4.805   8.750 -1.5422 -3.8380  0.3847
  300MOL0     H40463   8.929   4.833   8.581 -1.0955  1.0402  1.4773
  300MOL0     H40464   9.156   4.623   9.016  0.3687  2.8388 -1.7336
  300MOL0     H40465   9.178   4.561   9.252  2.0165 -2.5012  3.4386
  300MOL0     H40466   9.582   4.376   9.333  1.0536 -1.1842  0.2596
  300MOL0     H40467   9.572   4.503   9.456  1.9459 -1.9014  1.0065
  300MOL0     H40468   9.435   4.224   9.466 -0.5094  0.8705  0.1945
  300MOL0     H40469   9.600   4.255   9.532 -0.2335  1.0575  1.8275
  300MOL0     H40470   9.365   4.429   9.602 -1.5367 -1.4148  2.2697
  300MOL0     H40471   9.502   4.409   9.697 -1.1560  0.9195  1.3402
  300MOL0     H40472   9.299   4.319   9.818 -1.7246 -0.5910  0.2719
  300MOL0     H40473   9.272   4.203   9.688 -1.2405  1.5808  0.3675
  300MOL0     H40474   9.512   4.219   9.877 -1.9318 -1.4401  3.6736
  300MOL0     H40475   9.512   4.103   9.744  1.1039  0.7351  1.5430
  300MOL0     H40476   9.298   4.121   9.967  0.2154 -1.7205  1.4354
  300MOL0     H40477   9.308   3.996   9.845 -2.0304 -0.8628  3.0885
  300MOL0     H40478   9.521   4.043  10.063  1.5110  2.3901 -1.7522
  300MOL0     H40479   9.522   3.927   9.938 -0.9928  1.0799 -1.7507
  300MOL0     H40480   9.429   3.816  10.112 -0.1365  2.5091  3.3190
  300MOL0     H40481   9.299   3.847   9.985 -0.4777  4.2716 -2.9779
  300MOL0     H40482   9.602   4.548   9.214 -0.5744 -1.5835  0.6239
  300MOL0     H40483   9.584   4.610   8.988 -2.2105 -2.9942 -2.6442
  300MOL0     H40484   9.481   4.828   8.683 -1.8182  2.3350  0.3514
  300MOL0     H40485   9.495   4.968   8.490 -0.1854  1.0707  0.6249
  300MOL0     H40486  10.227   5.322   7.992 -1.0629  2.1245 -0.9570
  300MOL0     H40487  10.433   5.190   8.004  0.8496 -2.4650 -1.4077
  300MOL0     H40488  10.865   5.170   7.722 -1.3083  0.7836  1.3240
  300MOL0     H40489  11.074   5.053   7.674  0.7257 -2.3609 -3.2032
  300MOL0     H40490  11.033   4.757   7.526 -0.6055 -0.2944  0.4130
  300MOL0     H40491  11.151   4.903   7.526 -1.6012  0.7203  0.1929
  300MOL0     H40492  11.231   4.604   7.512 -1.1280 -0.6297 -2.6858
  300MOL0     H40493  11.331   4.731   7.578 -0.6326  0.0077  1.0870
  300MOL0     H40494  11.292   4.860   7.350 -0.0095  0.2023  0.1008
  300MOL0     H40495  11.205   4.697   7.314 -1.1529 -0.9033  1.9250
  300MOL0     H40496  11.406   4.581   7.385  1.7502  1.0957  1.9123
  300MOL0     H40497  11.501   4.728   7.355  2.4141 -3.3725  1.8358
  300MOL0     H40498  11.424   4.575   6.967  0.0519 -2.3858  0.4328
  300MOL0     H40499  10.913   4.699   7.828  1.3077  0.8421  2.5068
  300MOL0     H40500  10.695   4.807   7.881 -0.8099 -1.5351 -1.5538
  301MOL0     O40501   3.200   1.733  10.673 -0.1554 -0.0842  0.5464
  301MOL0     C40502   3.244   1.651  10.597 -0.7338 -0.0979 -0.5948
  301MOL0     O40503   3.171   1.571  10.518 -0.1693 -0.6274  0.6019
  301MOL0     C40504   3.044   1.601  10.481 -0.4685  0.3589  0.3576
  301MOL0     C40505   3.014   1.674  10.362 -0.6997  0.0855 -0.7530
  301MOL0     C40506   2.885   1.704  10.332 -0.2938 -0.6800 -0.1871
  301MOL0     C40507   2.775   1.675  10.423  0.3949  0.0932 -0.0361
  301MOL0     O40508   2.655   1.729  10.382  0.3796  0.2087 -0.3048
  301MOL0     C40509   2.533   1.646  10.400 -0.4841 -0.4468 -0.5674
  301MOL0     C40510   2.415   1.739  10.354  0.4603 -0.4364  0.0329
  301MOL0     C40511   2.277   1.671  10.373  0.5722 -0.3130 -0.2939
  301MOL0     C40512   2.165   1.752  10.297  0.3243 -0.1983 -0.0725
  301MOL0     C40513   2.031   1.677  10.304 -0.0173  0.3915 -0.6914
  301MOL0     C40514   1.905   1.751  10.253 -1.2923  0.3814 -0.6725
  301MOL0     C40515   1.916   1.798  10.115 -0.1511 -0.5959  0.2450
  301MOL0     C40516   1.798   1.874  10.053 -0.4657 -0.7175  0.7262
  301MOL0     N40517   1.812   1.883   9.909 -0.1833  0.4936 -1.2754
  301MOL0     C40518   1.924   1.912   9.839 -0.0901 -0.8208  0.0917
  301MOL0     C40519   1.884   1.921   9.708  0.4203  0.6353 -0.7921
  301MOL0     C40520   1.970   1.965   9.587  0.0691 -0.2308 -0.2022
  301MOL0     C40521   1.938   2.114   9.567  0.1230  0.8152 -0.4721
  301MOL0     C40522   2.060   2.196   9.520  0.2482  0.1472  0.0268
  301MOL0     C40523   2.023   2.343   9.518 -0.1356 -0.0415  0.6204
  301MOL0     O40524   1.985   2.385   9.650 -0.6078  0.3904 -0.2901
  301MOL0     C40525   1.854   2.416   9.672  1.1431  0.7024 -0.4705
  301MOL0     C40526   1.747   2.439   9.583 -0.0652 -0.0072  0.2965
  301MOL0     C40527   1.627   2.502   9.619 -0.2135 -0.1732 -0.2147
  301MOL0     C40528   1.525   2.537   9.507 -1.3859  0.2599 -0.9743
  301MOL0     C40529   1.604   2.556   9.751 -0.7897 -0.1214  0.7815
  301MOL0     C40530   1.492   2.648   9.784 -1.7356 -0.2877 -0.0921
  301MOL0     O40531   1.368   2.615   9.748  1.1846 -0.6196 -0.5129
  301MOL0     C40532   1.270   2.690   9.803  0.1798 -0.4051  1.6956
  301MOL0     C40533   1.174   2.640   9.887 -0.0456  0.5295 -0.0278
  301MOL0     C40534   1.064   2.710   9.931  0.7609 -0.8001  0.3026
  301MOL0     C40535   1.047   2.840   9.882  0.7348 -0.4773  0.0460
  301MOL0     O40536   0.946   2.923   9.916  0.0520  0.1339  0.2419
  301MOL0     C40537   0.808   2.873   9.892  0.0662  0.2636 -0.3200
  301MOL0     C40538   0.725   2.895  10.017 -0.1078 -0.9240 -0.7260
  301MOL0     C40539   0.783   2.808  10.134 -0.7662 -0.5221  0.3152
  301MOL0     C40540   0.710   2.821  10.265 -0.3342 -1.5539 -0.3789
  301MOL0     C40541   0.743   2.714  10.360 -0.3750  0.1942 -0.5095
  301MOL0     C40542   0.670   2.720  10.497  0.4429 -0.0097 -0.3203
  301MOL0     C40543   0.694   2.586  10.572  0.2418  0.9278 -0.2872
  301MOL0     C40544   0.607   2.581  10.693 -0.2552 -0.5964 -0.2307
  301MOL0    Cl40545   0.625   2.421  10.771  0.0424 -0.5665  0.0912
  301MOL0     C40546   1.140   2.888   9.786 -0.8909 -0.5767 -0.6760
  301MOL0     C40547   1.253   2.813   9.747  0.4147  0.5250  0.2966
  301MOL0     O40548   1.531   2.750   9.848 -0.0447 -0.8728 -0.2800
  301MOL0     C40549   1.711   2.523   9.842  0.5380 -0.0987  0.7556
  301MOL0     C40550   1.830   2.462   9.798  0.7357 -0.3214 -1.4454
  301MOL0     N40551   1.745   1.910   9.704 -0.2135  0.6878 -0.9179
  301MOL0     N40552   1.703   1.880   9.824 -0.5545 -0.6067  0.7225
  301MOL0     C40553   2.804   1.602  10.542  0.8366  0.7384  0.4598
  301MOL0     C40554   2.939   1.573  10.574 -0.6270 -0.7623  1.0176
  301MOL0     C40555   3.393   1.641  10.571 -0.0466 -0.6183  0.4044
  301MOL0     C40556   3.443   1.544  10.478 -0.0120 -0.0942  0.1567
  301MOL0     C40557   3.577   1.524  10.458 -0.2612  0.4049 -0.5672
  301MOL0     C40558   3.673   1.603  10.517  0.1325 -1.0404  0.4099
  301MOL0     O40559   3.801   1.551  10.504  0.2592 -1.2423 -0.2465
  301MOL0     C40560   3.910   1.607  10.584 -0.4777  1.1426 -1.0277
  301MOL0     C40561   4.044   1.549  10.551  0.3503  0.7516 -0.0188
  301MOL0     C40562   4.102   1.610  10.425 -0.3985  0.2753  0.4565
  301MOL0     C40563   4.241   1.549  10.394 -0.3231 -0.3909 -0.2221
  301MOL0     C40564   4.344   1.578  10.497  0.2075 -1.0682 -1.3473
  301MOL0     C40565   4.440   1.607  10.567 -0.4772  0.2866 -0.7499
  301MOL0     C40566   3.634   1.708  10.611 -0.1402  0.5736  1.2695
  301MOL0     C40567   3.496   1.713  10.637 -0.5252 -0.3747 -0.5158
  301MOL0     H40568   3.098   1.706  10.301 -0.1265 -0.0776 -0.0669
  301MOL0     H40569   2.859   1.771  10.251 -0.1618 -0.4386 -0.0321
  301MOL0     H40570   2.545   1.558  10.337  4.0071  1.8211 -3.4407
  301MOL0     H40571   2.516   1.617  10.504  1.1262 -0.0027 -0.1444
  301MOL0     H40572   2.416   1.827  10.419 -1.1890 -1.2766  1.3069
  301MOL0     H40573   2.430   1.763  10.249 -0.6209 -3.9911 -1.0989
  301MOL0     H40574   2.286   1.570  10.332  0.5320 -1.2829  1.9382
  301MOL0     H40575   2.245   1.662  10.478 -1.7747  1.3633 -0.7767
  301MOL0     H40576   2.147   1.845  10.353 -2.1333 -1.4641  1.4162
  301MOL0     H40577   2.192   1.772  10.193 -2.8996  0.8528 -0.8221
  301MOL0     H40578   2.053   1.590  10.243 -0.3152  0.2591 -0.6124
  301MOL0     H40579   2.007   1.636  10.402  1.9468 -1.0251 -0.7482
  301MOL0     H40580   1.820   1.682  10.258 -0.5478 -0.6625 -1.8982
  301MOL0     H40581   1.890   1.833  10.323 -2.3693 -1.1657  1.0161
  301MOL0     H40582   2.008   1.855  10.103 -1.8453  1.8796 -2.1508
  301MOL0     H40583   1.939   1.708  10.056  1.8208  0.4798 -0.7286
  301MOL0     H40584   1.776   1.973  10.096  0.8958 -0.1604  0.1932
  301MOL0     H40585   1.705   1.818  10.067 -2.0937  1.1520 -1.8604
  301MOL0     H40586   2.023   1.922   9.881  0.1038  0.1529 -0.5715
  301MOL0     H40587   2.075   1.945   9.611  0.4335  0.8053 -0.8914
  301MOL0     H40588   1.954   1.903   9.499  3.5037 -0.9195 -0.4730
  301MOL0     H40589   1.929   2.139   9.673  4.0371  0.8790 -0.0424
  301MOL0     H40590   1.847   2.133   9.509  1.4309  3.7343 -1.7365
  301MOL0     H40591   2.086   2.165   9.418  0.8967 -1.2722  0.5964
  301MOL0     H40592   2.149   2.181   9.581 -0.6245 -3.1265  0.6947
  301MOL0     H40593   1.954   2.363   9.436  0.4768  1.3584  0.4185
  301MOL0     H40594   2.103   2.407   9.480  0.3688  0.3482  2.2566
  301MOL0     H40595   1.744   2.409   9.479  2.5700  1.9271 -0.4398
  301MOL0     H40596   1.540   2.480   9.415  0.3344 -1.4236  0.2648
  301MOL0     H40597   1.423   2.521   9.543 -0.4193  1.5145  2.8174
  301MOL0     H40598   1.540   2.640   9.474  0.4842  1.4469  2.9221
  301MOL0     H40599   1.184   2.536   9.918 -0.3992  0.1260 -1.2405
  301MOL0     H40600   0.998   2.659  10.001 -0.0444  0.1221  0.2290
  301MOL0     H40601   0.749   2.932   9.822 -1.2714 -2.0670 -1.3141
  301MOL0     H40602   0.810   2.771   9.852 -0.4231  0.5005 -0.9560
  301MOL0     H40603   0.717   3.001  10.043  2.7202 -0.5254 -1.1928
  301MOL0     H40604   0.627   2.853   9.991 -0.3336 -1.3741  0.7444
  301MOL0     H40605   0.887   2.836  10.154 -1.1645  0.2372  1.4633
  301MOL0     H40606   0.785   2.706  10.095 -0.7102  0.1217 -1.4243
  301MOL0     H40607   0.728   2.918  10.312 -0.1871 -1.1152 -1.3136
  301MOL0     H40608   0.604   2.828  10.236 -0.0834 -0.4929 -1.1000
  301MOL0     H40609   0.852   2.722  10.363 -0.0807 -1.4876 -3.0157
  301MOL0     H40610   0.732   2.618  10.308  2.5430  1.4306 -3.8236
  301MOL0     H40611   0.709   2.802  10.559  1.5940 -0.5968 -0.2398
  301MOL0     H40612   0.563   2.740  10.489  0.2840  1.8959  3.9263
  301MOL0     H40613   0.799   2.574  10.600  0.1238  2.4060  0.9198
  301MOL0     H40614   0.659   2.507  10.505 -1.2707  2.6209 -1.5845
  301MOL0     H40615   0.500   2.582  10.671 -0.0489 -0.5173 -1.2443
  301MOL0     H40616   0.637   2.667  10.753 -0.5249  0.3303 -1.4079
  301MOL0     H40617   1.133   2.988   9.743  1.6477 -0.0103  0.0841
  301MOL0     H40618   1.326   2.856   9.679 -0.0909 -1.7048 -1.7936
  301MOL0     H40619   1.710   2.556   9.946 -0.1976  2.1366  0.0806
  301MOL0     H40620   1.902   2.446   9.878 -1.6054 -1.8334  0.4968
  301MOL0     H40621   2.730   1.563  10.611 -0.6661  1.8046 -0.4982
  301MOL0     H40622   2.960   1.530  10.671  0.8677  3.8820  3.0797
  301MOL0     H40623   3.374   1.474  10.431  0.7582 -0.5231 -0.3443
  301MOL0     H40624   3.610   1.437  10.400 -0.3421  0.9109 -1.3889
  301MOL0     H40625   3.916   1.716  10.577  1.3921  1.0146 -2.4529
  301MOL0     H40626   3.905   1.583  10.690 -1.3584  0.4285 -1.2179
  301MOL0     H40627   4.031   1.442  10.533  1.2766  0.6345 -0.0279
  301MOL0     H40628   4.107   1.577  10.635 -0.7535  1.3309  0.6489
  301MOL0     H40629   4.114   1.719  10.434 -2.7153  0.5265  1.1695
  301MOL0     H40630   4.041   1.580  10.340  0.3202 -2.1071  0.7113
  301MOL0     H40631   4.287   1.570  10.297 -0.5560  0.6628 -0.1255
  301MOL0     H40632   4.222   1.443  10.380  0.0680 -0.9136  2.6381
  301MOL0     H40633   4.521   1.639  10.630  0.2900 -0.5348 -1.2940
  301MOL0     H40634   3.698   1.775  10.667 -0.9134  0.9936  1.6639
  301MOL0     H40635   3.468   1.789  10.709 -2.0172 -1.7657  0.4500
  302MOL0     O40636   6.135   2.055   0.019 -0.2141 -0.5502  0.1244
  302MOL0     C40637   6.090   2.160   0.053 -0.7075 -0.6257 -0.1437
  302MOL0     O40638   5.966   2.203   0.035 -1.1134  0.5541  0.7332
  302MOL0     C40639   5.869   2.127  -0.022 -0.3977  0.3711  0.0927
  302MOL0     C40640   5.878   2.048  -0.134 -0.7634  0.3077 -0.0598
  302MOL0     C40641   5.772   1.974  -0.184 -1.1266  0.0968  0.0831
  302MOL0     C40642   5.638   1.988  -0.136  0.3714 -0.0760  0.0858
  302MOL0     O40643   5.528   1.917  -0.176 -0.2474  0.6166 -0.2610
  302MOL0     C40644   5.540   1.806  -0.263 -0.5415 -0.5422 -0.2521
  302MOL0     C40645   5.408   1.729  -0.274  0.3402 -0.2415 -0.0876
  302MOL0     C40646   5.371   1.627  -0.163  0.6171 -0.4949 -0.4247
  302MOL0     C40647   5.225   1.637  -0.135 -0.7987  0.6269  0.4490
  302MOL0     C40648   5.144   1.578  -0.261  0.0443 -0.5234  0.0356
  302MOL0     C40649   5.005   1.636  -0.280 -0.0974  0.2850 -0.8087
  302MOL0     C40650   4.920   1.553  -0.378  0.3971 -0.9053  0.3008
  302MOL0     C40651   4.936   1.597  -0.525 -0.5458  0.5873 -0.7023
  302MOL0     N40652   4.868   1.721  -0.547 -0.8079  0.6581 -0.1007
  302MOL0     C40653   4.733   1.746  -0.533 -0.2200  1.6303 -0.0335
  302MOL0     C40654   4.733   1.876  -0.533  0.8218  0.4672  0.1730
  302MOL0     C40655   4.606   1.959  -0.521  0.3232  0.0903  0.2948
  302MOL0     C40656   4.500   1.922  -0.632  0.1246 -0.8088  0.7445
  302MOL0     C40657   4.360   1.979  -0.608  0.1743  0.2541 -0.0515
  302MOL0     C40658   4.276   1.985  -0.727  0.1317  0.7672 -0.1156
  302MOL0     O40659   4.145   2.015  -0.674 -0.4431 -0.1824  0.3065
  302MOL0     C40660   4.033   2.020  -0.761  0.5757 -1.0234 -0.8422
  302MOL0     C40661   4.026   1.992  -0.898  0.8463 -0.5100 -0.6633
  302MOL0     C40662   3.903   2.006  -0.965  0.1603  0.1829 -0.5080
  302MOL0     C40663   3.900   1.965  -1.108 -0.0836  0.2088  0.6370
  302MOL0     C40664   3.786   2.059  -0.899  1.1605 -0.5806 -0.1501
  302MOL0     C40665   3.656   2.097  -0.961 -1.0284  0.7401  0.5277
  302MOL0     O40666   3.568   2.167  -0.883 -0.8985 -0.2281  1.0992
  302MOL0     C40667   3.434   2.168  -0.919  0.1316 -0.6307  0.2790
  302MOL0     C40668   3.373   2.293  -0.901  0.5250  0.4928 -0.0952
  302MOL0     C40669   3.235   2.299  -0.931 -0.3866  0.7712  0.7016
  302MOL0     C40670   3.163   2.194  -0.984 -0.6394  1.0535 -0.6634
  302MOL0     O40671   3.031   2.226  -1.012 -0.1363 -0.6160  0.1501
  302MOL0     C40672   2.936   2.148  -1.086  0.0154 -0.9039 -0.3267
  302MOL0     C40673   2.988   2.144  -1.223  0.3197  0.0145  0.1759
  302MOL0     C40674   2.858   2.116  -1.306 -0.8538  0.3083 -1.0341
  302MOL0     C40675   2.888   2.108  -1.449  0.3739 -0.4632  0.1061
  302MOL0     C40676   2.779   2.060  -1.543 -0.2313 -0.3300  0.7593
  302MOL0     C40677   2.647   2.147  -1.537 -0.2775 -0.3497 -0.1098
  302MOL0     C40678   2.570   2.145  -1.673  0.4422 -0.3537 -0.1581
  302MOL0     C40679   2.480   2.023  -1.679  0.1067 -0.4725  0.1621
  302MOL0    Cl40680   2.324   2.087  -1.627  0.3932 -0.0411  0.1992
  302MOL0     C40681   3.230   2.071  -1.003 -0.4344  0.1974  0.2423
  302MOL0     C40682   3.365   2.053  -0.957 -1.0930  0.5996 -0.7205
  302MOL0     O40683   3.629   2.047  -1.067  0.1146  0.5553 -0.4692
  302MOL0     C40684   3.803   2.086  -0.752 -0.0784  0.8679  0.9305
  302MOL0     C40685   3.924   2.066  -0.689 -0.7161 -0.0084  0.4806
  302MOL0     N40686   4.858   1.930  -0.533  0.3989  0.3564  0.4010
  302MOL0     N40687   4.941   1.834  -0.557 -0.5036  0.4003 -0.3796
  302MOL0     C40688   5.630   2.076  -0.031  0.8391 -0.3750 -0.6884
  302MOL0     C40689   5.740   2.141   0.024  0.5003 -0.0070  1.2557
  302MOL0     C40690   6.184   2.242   0.138  0.8512 -0.7417 -0.8723
  302MOL0     C40691   6.314   2.200   0.182  1.1943 -0.0948  0.7586
  302MOL0     C40692   6.395   2.272   0.269  0.9986  0.2140  0.3723
  302MOL0     C40693   6.349   2.382   0.326 -0.3868  0.2886 -1.0424
  302MOL0     O40694   6.432   2.443   0.412  0.4857  0.2052 -0.8591
  302MOL0     C40695   6.388   2.569   0.476  0.6810 -0.4820  0.6578
  302MOL0     C40696   6.504   2.619   0.558  0.4109  0.0180 -0.1148
  302MOL0     C40697   6.549   2.518   0.663 -0.1446 -0.6401 -0.1130
  302MOL0     C40698   6.677   2.438   0.628 -0.2969 -1.0916 -0.7086
  302MOL0     C40699   6.786   2.479   0.722  0.0654 -0.4884 -0.2206
  302MOL0     C40700   6.881   2.521   0.788  1.0491 -0.0724 -1.1097
  302MOL0     C40701   6.217   2.429   0.293  1.3790  1.0320 -0.0670
  302MOL0     C40702   6.139   2.354   0.204 -0.5902 -0.4994 -0.5968
  302MOL0     H40703   5.971   2.016  -0.180 -0.3955 -0.9236  1.4523
  302MOL0     H40704   5.795   1.900  -0.261  1.6853  3.9444 -3.2052
  302MOL0     H40705   5.588   1.834  -0.358 -0.8094  0.1704 -0.1882
  302MOL0     H40706   5.619   1.745  -0.219  0.2961  0.3562 -0.4678
  302MOL0     H40707   5.331   1.806  -0.290  2.0802  1.9329  1.3247
  302MOL0     H40708   5.429   1.675  -0.367 -0.8938  0.3028 -0.7097
  302MOL0     H40709   5.388   1.522  -0.187  1.2899 -1.0617  2.1764
  302MOL0     H40710   5.412   1.643  -0.063  0.2221 -3.0212  0.2065
  302MOL0     H40711   5.198   1.581  -0.045 -1.1835 -2.1615 -1.2692
  302MOL0     H40712   5.209   1.745  -0.122  0.8774  0.8954  0.4189
  302MOL0     H40713   5.203   1.583  -0.352  1.8492  2.2587  1.2107
  302MOL0     H40714   5.133   1.470  -0.247  4.3091 -1.2723 -1.1644
  302MOL0     H40715   4.954   1.632  -0.183  0.4977 -0.3712 -0.5213
  302MOL0     H40716   5.008   1.740  -0.313  0.8262  1.6289  2.9655
  302MOL0     H40717   4.953   1.449  -0.366  0.9688 -0.7742 -0.1047
  302MOL0     H40718   4.814   1.562  -0.354 -0.2044 -2.9842 -1.3185
  302MOL0     H40719   4.905   1.516  -0.591 -0.7289 -0.0449  0.1352
  302MOL0     H40720   5.042   1.593  -0.553 -1.2712 -3.6441 -3.8818
  302MOL0     H40721   4.645   1.690  -0.505  0.9166  0.9984  2.5526
  302MOL0     H40722   4.556   1.936  -0.427 -4.5026 -0.2682 -2.0335
  302MOL0     H40723   4.634   2.065  -0.530 -2.3654  0.7943 -0.7855
  302MOL0     H40724   4.487   1.814  -0.640 -2.9524 -0.5567  1.3247
  302MOL0     H40725   4.530   1.957  -0.732 -0.6443 -4.3935 -0.8980
  302MOL0     H40726   4.372   2.075  -0.555 -0.2411 -0.4533  1.3919
  302MOL0     H40727   4.312   1.906  -0.541 -0.0835  1.5157  1.2023
  302MOL0     H40728   4.284   1.896  -0.789  1.4078  1.6354 -1.2553
  302MOL0     H40729   4.313   2.062  -0.795 -0.2942 -0.0388 -1.2799
  302MOL0     H40730   4.117   1.958  -0.947  2.1605 -1.8993  2.4509
  302MOL0     H40731   3.814   1.900  -1.128 -0.6011  1.1649 -0.3166
  302MOL0     H40732   3.883   2.037  -1.188  5.1145 -0.4599 -1.4275
  302MOL0     H40733   3.990   1.908  -1.133 -0.8000 -1.9305  2.5136
  302MOL0     H40734   3.422   2.376  -0.851 -0.0746  0.2433  0.9400
  302MOL0     H40735   3.185   2.390  -0.899 -3.2016 -1.3099  2.8307
  302MOL0     H40736   2.924   2.045  -1.053 -1.5902 -0.4162  0.7041
  302MOL0     H40737   2.843   2.205  -1.082  0.0541 -0.9151  0.9429
  302MOL0     H40738   3.029   2.241  -1.254  0.0448  0.0297 -0.1552
  302MOL0     H40739   3.058   2.060  -1.230  0.1498 -0.5309  3.4913
  302MOL0     H40740   2.782   2.193  -1.291 -1.5030  0.1523 -3.1884
  302MOL0     H40741   2.814   2.021  -1.275 -1.2537  1.0490  0.7875
  302MOL0     H40742   2.928   2.204  -1.483  1.0772 -0.6944  0.2625
  302MOL0     H40743   2.969   2.036  -1.466 -0.2594 -0.7944 -1.8065
  302MOL0     H40744   2.758   1.953  -1.545 -2.5205 -0.0352  3.3366
  302MOL0     H40745   2.808   2.068  -1.648  0.3040  0.8131  0.9721
  302MOL0     H40746   2.578   2.104  -1.463 -0.8663 -0.6839 -0.8453
  302MOL0     H40747   2.678   2.247  -1.506  3.8719 -1.6561  0.6572
  302MOL0     H40748   2.643   2.135  -1.754  1.1368 -0.7037  0.5009
  302MOL0     H40749   2.501   2.229  -1.683  1.9972  0.7324 -2.9609
  302MOL0     H40750   2.514   1.935  -1.622  0.0506  0.5587  1.8633
  302MOL0     H40751   2.462   1.980  -1.778 -3.3670  0.1515  0.4060
  302MOL0     H40752   3.176   1.988  -1.046 -2.6584  3.3655 -3.9008
  302MOL0     H40753   3.415   1.957  -0.965  0.1620  1.0045  1.4229
  302MOL0     H40754   3.709   2.113  -0.703 -0.9483  1.1514 -0.8210
  302MOL0     H40755   3.938   2.084  -0.583  0.4166  0.2254  0.3040
  302MOL0     H40756   5.535   2.098   0.017 -0.5260 -3.1023 -1.9100
  302MOL0     H40757   5.712   2.212   0.100  0.6666  0.1345  1.1859
  302MOL0     H40758   6.343   2.121   0.113 -2.9853  1.3245 -3.1313
  302MOL0     H40759   6.492   2.231   0.294  2.4458  2.3323 -1.3692
  302MOL0     H40760   6.355   2.637   0.397 -0.7796 -0.2763  1.4143
  302MOL0     H40761   6.301   2.539   0.535  0.3328  0.9384  0.8998
  302MOL0     H40762   6.458   2.702   0.613  2.2254  0.7523  0.3734
  302MOL0     H40763   6.583   2.667   0.500 -0.0018  0.0014 -0.7126
  302MOL0     H40764   6.467   2.446   0.675 -1.6803  0.7182 -1.9220
  302MOL0     H40765   6.570   2.572   0.756  1.0968  1.7792 -1.6861
  302MOL0     H40766   6.692   2.447   0.520  0.0090  0.5220 -0.5551
  302MOL0     H40767   6.653   2.333   0.646 -1.7546 -0.8246 -0.9238
  302MOL0     H40768   6.962   2.547   0.853  1.0754 -2.3161 -0.1563
  302MOL0     H40769   6.177   2.504   0.360  1.7895 -0.2940  1.7467
  302MOL0     H40770   6.036   2.387   0.200 -0.1330  1.2942  0.7833
  303MOL0     O40771   0.091   8.780   9.703 -0.4129 -0.6663  0.8195
  303MOL0     C40772   0.164   8.827   9.613  0.3657 -0.7030  0.0267
  303MOL0     O40773   0.139   8.814   9.481  0.0333  0.3546  0.4036
  303MOL0     C40774   0.041   8.745   9.425  0.1892  0.3650  0.0894
  303MOL0     C40775  -0.075   8.680   9.483  0.4260 -0.0154 -1.0467
  303MOL0     C40776  -0.170   8.613   9.414 -0.1793 -0.4580  0.3866
  303MOL0     C40777  -0.159   8.598   9.275  0.7272 -0.0450  0.2891
  303MOL0     O40778  -0.246   8.522   9.198 -0.9264  0.4821  0.4205
  303MOL0     C40779  -0.305   8.600   9.093  0.1934 -0.1056 -0.1490
  303MOL0     C40780  -0.423   8.519   9.035  0.2724 -0.4412 -0.7913
  303MOL0     C40781  -0.496   8.604   8.934 -0.4606 -0.0851 -0.3798
  303MOL0     C40782  -0.634   8.541   8.916  0.4128  0.8659  0.8229
  303MOL0     C40783  -0.702   8.619   8.816  0.1921  0.9353 -0.2536
  303MOL0     C40784  -0.857   8.623   8.825  0.8407  0.7691  0.9208
  303MOL0     C40785  -0.916   8.706   8.721  0.6158 -0.5949  0.3941
  303MOL0     C40786  -1.064   8.668   8.691  0.5835  1.4380  0.0113
  303MOL0     N40787  -1.133   8.768   8.610 -0.4964 -1.2413 -0.5979
  303MOL0     C40788  -1.119   8.781   8.476 -1.2612 -0.2984 -0.3839
  303MOL0     C40789  -1.202   8.883   8.447 -0.9699 -0.4327  0.1631
  303MOL0     C40790  -1.231   8.950   8.315  0.2767  0.0088 -0.1522
  303MOL0     C40791  -1.325   8.848   8.241  0.0568 -0.3753  0.1549
  303MOL0     C40792  -1.385   8.897   8.106  0.6310  0.5319  0.2644
  303MOL0     C40793  -1.462   8.787   8.035 -0.4664 -0.2612  0.7144
  303MOL0     O40794  -1.546   8.857   7.942 -0.7775 -0.0642 -0.1061
  303MOL0     C40795  -1.652   8.775   7.897  0.2071  0.3786 -0.7403
  303MOL0     C40796  -1.627   8.660   7.825 -0.4800 -0.1776  0.8158
  303MOL0     C40797  -1.738   8.580   7.789  0.0584  0.4820 -0.6371
  303MOL0     C40798  -1.704   8.451   7.718  0.3326  1.3070 -0.0696
  303MOL0     C40799  -1.867   8.617   7.824  1.0789  0.5992  0.3217
  303MOL0     C40800  -1.994   8.546   7.783  0.4150 -1.2984  0.0651
  303MOL0     O40801  -2.108   8.612   7.811 -0.0848 -0.2366 -0.9205
  303MOL0     C40802  -2.234   8.549   7.789 -0.5482  0.1192 -0.5750
  303MOL0     C40803  -2.328   8.636   7.744 -0.2292 -0.0769 -0.3904
  303MOL0     C40804  -2.457   8.593   7.705 -0.3445  0.2585 -0.3657
  303MOL0     C40805  -2.495   8.458   7.737  0.4786  0.0964  0.3359
  303MOL0     O40806  -2.632   8.431   7.724 -0.0401  0.5642 -0.0977
  303MOL0     C40807  -2.699   8.339   7.822 -0.8719  0.1408 -0.0859
  303MOL0     C40808  -2.730   8.203   7.755  0.6684  0.6542  0.6940
  303MOL0     C40809  -2.878   8.200   7.724  0.2462 -0.3626 -0.1331
  303MOL0     C40810  -2.919   8.055   7.690  0.6004 -0.5517  0.1961
  303MOL0     C40811  -3.080   8.056   7.690 -0.4058  0.9544 -0.9614
  303MOL0     C40812  -3.140   7.928   7.617 -0.1182  1.0627 -0.4220
  303MOL0     C40813  -3.287   7.947   7.611 -0.2446  1.4842  0.1322
  303MOL0     C40814  -3.360   7.851   7.505 -0.0682 -0.1809  0.2018
  303MOL0    Cl40815  -3.549   7.870   7.514 -0.0146 -0.4233 -0.0613
  303MOL0     C40816  -2.409   8.371   7.796 -0.4561  0.1373  0.0301
  303MOL0     C40817  -2.274   8.418   7.819  0.8732  0.6892 -0.2658
  303MOL0     O40818  -1.990   8.450   7.707 -0.3267 -0.0010  0.7449
  303MOL0     C40819  -1.883   8.733   7.906 -0.2797  0.8297 -0.2733
  303MOL0     C40820  -1.771   8.808   7.945  0.2030  0.4204  0.1668
  303MOL0     N40821  -1.271   8.926   8.557 -0.3077  1.0913  0.0736
  303MOL0     N40822  -1.232   8.852   8.656 -0.0824 -0.7068  0.0889
  303MOL0     C40823  -0.038   8.646   9.216 -0.2549 -0.5360 -0.1046
  303MOL0     C40824   0.063   8.719   9.285 -0.3588 -0.4000 -0.2436
  303MOL0     C40825   0.286   8.913   9.644 -0.1713 -0.6239  0.6099
  303MOL0     C40826   0.320   8.951   9.772  0.1770 -0.7982 -0.2124
  303MOL0     C40827   0.425   9.037   9.809 -0.1991  0.4722 -0.1176
  303MOL0     C40828   0.510   9.091   9.712 -0.2114  0.3215  0.1350
  303MOL0     O40829   0.620   9.154   9.760 -0.8692  0.2212 -0.5089
  303MOL0     C40830   0.690   9.239   9.673 -0.3535 -0.4316 -0.1959
  303MOL0     C40831   0.800   9.331   9.738  1.3707  1.3260 -0.6771
  303MOL0     C40832   0.746   9.454   9.810  0.8715 -0.9588 -0.2525
  303MOL0     C40833   0.676   9.412   9.941  0.6304 -0.2762  0.4355
  303MOL0     C40834   0.625   9.535  10.001  0.8934  0.1528  0.2365
  303MOL0     C40835   0.595   9.634  10.068  0.0604 -0.3119 -0.1019
  303MOL0     C40836   0.489   9.041   9.580  0.1256 -0.2916  0.0465
  303MOL0     C40837   0.379   8.951   9.550  0.1177  0.7458 -0.1548
  303MOL0     H40838  -0.097   8.693   9.589  0.9517 -3.8889 -0.3106
  303MOL0     H40839  -0.253   8.579   9.476 -1.3521  3.5362  1.3130
  303MOL0     H40840  -0.342   8.693   9.138 -2.5096 -1.7751  1.3365
  303MOL0     H40841  -0.228   8.618   9.017  0.8623 -1.7418  0.1135
  303MOL0     H40842  -0.395   8.416   9.008 -0.5034 -0.2353 -2.5401
  303MOL0     H40843  -0.493   8.505   9.118  0.4442 -0.9077 -0.7229
  303MOL0     H40844  -0.496   8.707   8.968  5.4628 -0.3014  1.4717
  303MOL0     H40845  -0.439   8.604   8.840 -0.5880 -0.2676 -0.4573
  303MOL0     H40846  -0.624   8.441   8.873  2.4508  0.9570  0.9642
  303MOL0     H40847  -0.693   8.541   9.008 -0.4067 -2.9700  0.4372
  303MOL0     H40848  -0.666   8.722   8.821  2.9718 -0.0141  2.6850
  303MOL0     H40849  -0.674   8.584   8.716 -0.8493 -1.7344  0.3084
  303MOL0     H40850  -0.895   8.521   8.812 -0.2203  1.1743  0.6973
  303MOL0     H40851  -0.896   8.648   8.924 -0.1345 -0.2897  0.8306
  303MOL0     H40852  -0.922   8.808   8.761 -2.0012  0.3606 -2.1187
  303MOL0     H40853  -0.857   8.698   8.628  1.2449 -2.2620  0.8947
  303MOL0     H40854  -1.110   8.653   8.789  0.4140 -0.0573 -0.2719
  303MOL0     H40855  -1.068   8.571   8.641  0.1230  2.6491 -2.4314
  303MOL0     H40856  -1.059   8.726   8.404  0.0907 -0.0127  0.4986
  303MOL0     H40857  -1.279   9.044   8.345  0.3981 -0.4171  1.5202
  303MOL0     H40858  -1.148   8.974   8.249 -1.3024  0.6881 -1.9789
  303MOL0     H40859  -1.409   8.826   8.309  0.2384 -0.4268  0.3654
  303MOL0     H40860  -1.264   8.758   8.230  0.9042  0.2214 -0.1301
  303MOL0     H40861  -1.309   8.942   8.042  1.9496  0.7521  1.9306
  303MOL0     H40862  -1.463   8.968   8.134 -0.5133 -0.1969 -0.9368
  303MOL0     H40863  -1.518   8.724   8.105  1.0341  0.5266  2.7391
  303MOL0     H40864  -1.394   8.718   7.985  1.8657 -0.7317  4.1584
  303MOL0     H40865  -1.527   8.637   7.791  0.0188  0.6165  1.6868
  303MOL0     H40866  -1.596   8.438   7.732  0.2305  2.3161  2.0350
  303MOL0     H40867  -1.759   8.371   7.769 -0.4056  2.1501  0.4856
  303MOL0     H40868  -1.730   8.461   7.612 -0.0542 -1.6736 -0.3636
  303MOL0     H40869  -2.306   8.742   7.737  1.7651 -0.5440 -4.4072
  303MOL0     H40870  -2.527   8.674   7.685 -0.6138  0.5143  1.4176
  303MOL0     H40871  -2.634   8.333   7.909 -0.8226  1.5862  0.0128
  303MOL0     H40872  -2.785   8.397   7.858 -2.5476 -1.8291 -0.6947
  303MOL0     H40873  -2.684   8.180   7.658 -1.2172  0.5508 -0.2091
  303MOL0     H40874  -2.705   8.118   7.818 -1.1048 -0.4688 -0.0460
  303MOL0     H40875  -2.907   8.264   7.640 -1.0717 -1.5184 -0.6065
  303MOL0     H40876  -2.936   8.243   7.806  1.1068 -1.7961  1.2863
  303MOL0     H40877  -2.876   8.025   7.594  3.1303 -0.1616  1.1403
  303MOL0     H40878  -2.888   7.976   7.759 -1.6814  0.0511  2.0297
  303MOL0     H40879  -3.118   8.152   7.654  1.4100  2.3354  0.6097
  303MOL0     H40880  -3.111   8.037   7.792 -2.0915 -1.2183 -1.7997
  303MOL0     H40881  -3.101   7.926   7.515 -1.1841  0.8664 -0.8468
  303MOL0     H40882  -3.123   7.836   7.672  1.7865  1.4335 -0.3367
  303MOL0     H40883  -3.303   8.055   7.606  3.7955  2.2467  0.7713
  303MOL0     H40884  -3.332   7.915   7.706 -1.1476 -0.8016 -0.9757
  303MOL0     H40885  -3.335   7.745   7.516  1.1944  0.2866  2.5198
  303MOL0     H40886  -3.330   7.870   7.402  2.2591 -0.9642  0.6554
  303MOL0     H40887  -2.435   8.270   7.826  3.3899 -0.3363  2.4327
  303MOL0     H40888  -2.197   8.356   7.865 -0.2007  1.1791  2.3343
  303MOL0     H40889  -1.982   8.766   7.938 -0.9276 -0.3985 -0.9177
  303MOL0     H40890  -1.775   8.902   7.999 -0.7846  0.5367 -0.1008
  303MOL0     H40891  -0.020   8.603   9.118 -1.1935 -2.2352  0.4208
  303MOL0     H40892   0.140   8.770   9.228 -2.0849  2.5308 -0.1792
  303MOL0     H40893   0.256   8.916   9.852  0.4324 -1.0981 -0.1348
  303MOL0     H40894   0.438   9.059   9.914 -2.4556  1.8569 -0.0612
  303MOL0     H40895   0.750   9.174   9.608  0.2741  0.2505 -0.3067
  303MOL0     H40896   0.620   9.297   9.613 -0.5354  1.0396  1.3671
  303MOL0     H40897   0.854   9.372   9.652  1.3976  1.9210 -0.3860
  303MOL0     H40898   0.863   9.268   9.801 -1.4140 -1.9069 -0.8732
  303MOL0     H40899   0.671   9.500   9.746  1.9373  2.3304  0.6861
  303MOL0     H40900   0.819   9.532   9.832  0.2805 -0.5458  0.2805
  303MOL0     H40901   0.745   9.376  10.018  0.6734  1.2856  1.1466
  303MOL0     H40902   0.588   9.347   9.935  1.7928 -1.7523 -1.9714
  303MOL0     H40903   0.582   9.723  10.126  2.4739  0.6064 -0.8119
  303MOL0     H40904   0.559   9.069   9.502  1.2515 -2.1370  0.3422
  303MOL0     H40905   0.375   8.918   9.447 -1.4523 -1.9278  0.6875
  304MOL0     O40906   1.110   2.443   3.408 -0.2396 -0.7941 -0.5479
  304MOL0     C40907   1.082   2.549   3.458 -0.3945  0.5777 -0.7302
  304MOL0     O40908   0.961   2.581   3.499 -0.1646  0.5550  0.1434
  304MOL0     C40909   0.857   2.494   3.475 -0.2067 -0.5304 -1.1522
  304MOL0     C40910   0.739   2.555   3.434 -0.4357  0.0206  0.3800
  304MOL0     C40911   0.629   2.487   3.413 -0.1468  0.4697 -0.6878
  304MOL0     C40912   0.616   2.347   3.449  0.1403 -0.0038 -0.4098
  304MOL0     O40913   0.498   2.279   3.427 -0.3833  0.0229 -0.2992
  304MOL0     C40914   0.503   2.140   3.417  0.6863  0.1131  0.2409
  304MOL0     C40915   0.353   2.101   3.434  0.3687 -0.0566 -0.4933
  304MOL0     C40916   0.323   1.957   3.391 -0.5724 -1.2754 -1.3739
  304MOL0     C40917   0.182   1.926   3.378  0.4744 -0.7371  0.1879
  304MOL0     C40918   0.158   1.781   3.370 -0.8107 -0.8368 -0.1955
  304MOL0     C40919   0.200   1.702   3.252 -0.2252  0.4766  0.2958
  304MOL0     C40920   0.134   1.570   3.253  0.0398  0.1911  0.5839
  304MOL0     C40921   0.195   1.459   3.155  0.7037  0.5055 -0.3828
  304MOL0     N40922   0.080   1.369   3.115 -0.2815  0.1878  0.0253
  304MOL0     C40923  -0.030   1.332   3.199 -0.5621 -0.1023 -0.2328
  304MOL0     C40924  -0.115   1.267   3.119  0.5904  0.5187  0.5088
  304MOL0     C40925  -0.252   1.201   3.155 -0.4152  0.1967  0.7000
  304MOL0     C40926  -0.279   1.089   3.066  1.1399  0.1016 -0.3146
  304MOL0     C40927  -0.421   1.028   3.078  0.0260 -0.8250 -0.8910
  304MOL0     C40928  -0.460   0.965   3.208 -0.1137 -0.5935  0.6775
  304MOL0     O40929  -0.369   0.870   3.248 -0.3080  0.1041 -0.3368
  304MOL0     C40930  -0.413   0.794   3.357 -0.0998  0.4001  0.1552
  304MOL0     C40931  -0.314   0.719   3.426  0.6638  1.1630 -0.3612
  304MOL0     C40932  -0.349   0.625   3.531  0.6811 -0.2577  0.3636
  304MOL0     C40933  -0.219   0.554   3.590  0.1482 -0.0820 -0.4191
  304MOL0     C40934  -0.474   0.618   3.569  1.4072  0.2532 -0.4303
  304MOL0     C40935  -0.531   0.524   3.678 -0.1605  0.0191 -0.6927
  304MOL0     O40936  -0.656   0.549   3.717 -0.2552  0.8145 -0.2044
  304MOL0     C40937  -0.720   0.459   3.809 -0.8556  0.4525  0.9316
  304MOL0     C40938  -0.779   0.346   3.752 -0.9954 -0.2356 -0.0033
  304MOL0     C40939  -0.828   0.256   3.845  0.3235 -0.2252 -1.2865
  304MOL0     C40940  -0.834   0.285   3.978 -0.3207 -0.0721 -0.5507
  304MOL0     O40941  -0.891   0.186   4.064 -0.0671  0.3271 -0.1744
  304MOL0     C40942  -0.924   0.220   4.200 -0.0106  0.4106  0.3335
  304MOL0     C40943  -1.062   0.294   4.226  0.2795 -0.0886 -0.2171
  304MOL0     C40944  -1.177   0.249   4.146  0.2185  0.0718  0.0929
  304MOL0     C40945  -1.244   0.368   4.071 -0.4707 -0.3440  0.8546
  304MOL0     C40946  -1.370   0.335   3.987  1.0315  0.5403 -0.1216
  304MOL0     C40947  -1.433   0.457   3.928 -0.1285 -0.0149  0.1842
  304MOL0     C40948  -1.529   0.421   3.816 -0.5811 -0.3278 -0.2603
  304MOL0     C40949  -1.595   0.540   3.752  0.3973 -0.0564  0.3726
  304MOL0    Cl40950  -1.698   0.512   3.615 -0.1278 -0.1290 -0.0386
  304MOL0     C40951  -0.778   0.397   4.031  0.2250 -0.0302  0.5885
  304MOL0     C40952  -0.733   0.497   3.941 -0.3504  0.2778 -0.8657
  304MOL0     O40953  -0.462   0.434   3.724 -0.7905 -0.4628 -0.1636
  304MOL0     C40954  -0.576   0.680   3.495  0.0639 -0.2590  0.4585
  304MOL0     C40955  -0.551   0.762   3.389  0.9101 -0.6879 -0.6486
  304MOL0     N40956  -0.061   1.261   2.995 -0.8691  0.4920 -0.0207
  304MOL0     N40957   0.048   1.336   2.992 -0.2432 -0.5478  0.1431
  304MOL0     C40958   0.732   2.287   3.495 -0.2399 -0.6712 -0.1905
  304MOL0     C40959   0.857   2.357   3.500 -0.0301  0.4708 -0.2254
  304MOL0     C40960   1.193   2.639   3.490 -0.0545 -0.3224  0.5167
  304MOL0     C40961   1.324   2.596   3.471  0.5912  0.3235 -0.4159
  304MOL0     C40962   1.428   2.687   3.478 -1.1348  0.1123  0.3302
  304MOL0     C40963   1.412   2.813   3.528 -0.4618  0.2272 -0.2647
  304MOL0     O40964   1.525   2.898   3.527  0.5201  0.0189  0.0852
  304MOL0     C40965   1.538   3.033   3.575  0.5532 -0.6696  0.4794
  304MOL0     C40966   1.540   3.032   3.728  0.0687  0.3855  0.6657
  304MOL0     C40967   1.558   3.175   3.787 -0.4442 -0.5820  0.0326
  304MOL0     C40968   1.506   3.177   3.939  0.4587  0.4088  0.0771
  304MOL0     C40969   1.590   3.105   4.028 -0.1246  0.0583 -0.3499
  304MOL0     C40970   1.673   3.046   4.095 -0.0416 -0.3682 -0.2060
  304MOL0     C40971   1.282   2.861   3.550  0.7169 -0.3111 -1.6147
  304MOL0     C40972   1.171   2.771   3.529 -0.2825 -0.5216 -0.3967
  304MOL0     H40973   0.751   2.654   3.392  0.1203 -0.7634 -1.4229
  304MOL0     H40974   0.542   2.539   3.372  1.1556  2.3240 -1.1989
  304MOL0     H40975   0.565   2.106   3.333 -1.3379  0.5576 -1.5155
  304MOL0     H40976   0.545   2.093   3.507 -2.4236 -4.4117 -0.3105
  304MOL0     H40977   0.310   2.113   3.534 -0.3920 -0.1135 -0.8050
  304MOL0     H40978   0.293   2.162   3.366 -0.3720  1.8057  1.7298
  304MOL0     H40979   0.372   1.938   3.295  1.9482 -1.3124 -0.1779
  304MOL0     H40980   0.363   1.891   3.469 -1.5537  2.2502  2.5191
  304MOL0     H40981   0.126   1.953   3.468 -2.7115  0.5991 -1.9825
  304MOL0     H40982   0.140   1.982   3.294  1.1446 -1.0427 -0.3630
  304MOL0     H40983   0.191   1.724   3.458  1.2506 -0.2033 -0.5161
  304MOL0     H40984   0.050   1.765   3.381 -0.7639 -0.1373  1.5018
  304MOL0     H40985   0.171   1.757   3.162 -1.3752 -1.9227 -0.8987
  304MOL0     H40986   0.307   1.685   3.240 -0.6764 -0.9745 -2.2253
  304MOL0     H40987   0.149   1.524   3.351  0.4493 -0.8640  0.0580
  304MOL0     H40988   0.027   1.583   3.235  0.1281  2.1634  1.2522
  304MOL0     H40989   0.271   1.390   3.190  1.6411 -0.6739 -4.2333
  304MOL0     H40990   0.235   1.504   3.063  1.7437  1.1345  0.3714
  304MOL0     H40991  -0.043   1.353   3.305 -0.8545 -1.1476 -0.0550
  304MOL0     H40992  -0.233   1.169   3.258  0.1258  1.5923  1.0558
  304MOL0     H40993  -0.333   1.274   3.162  2.2783  3.3009  2.0181
  304MOL0     H40994  -0.200   1.013   3.060  1.1855  0.2031 -1.1020
  304MOL0     H40995  -0.281   1.128   2.964 -1.4475  0.8809 -0.0291
  304MOL0     H40996  -0.429   0.949   3.003 -0.7896 -1.8390  0.2352
  304MOL0     H40997  -0.493   1.110   3.070 -0.5836 -0.9733  1.9756
  304MOL0     H40998  -0.563   0.928   3.206  0.5508 -2.5363 -1.4102
  304MOL0     H40999  -0.447   1.037   3.289 -1.6976  0.9109 -0.3325
  304MOL0     H41000  -0.210   0.719   3.398  1.0280 -0.5138  0.8112
  304MOL0     H41001  -0.174   0.472   3.534  1.1441 -0.2606  0.6193
  304MOL0     H41002  -0.145   0.633   3.607 -1.6380  1.4769  0.5023
  304MOL0     H41003  -0.233   0.526   3.695 -0.6400 -2.9797 -1.2143
  304MOL0     H41004  -0.775   0.332   3.645 -1.3854  0.3797 -0.1013
  304MOL0     H41005  -0.874   0.160   3.822 -0.6118 -0.3997  1.0383
  304MOL0     H41006  -0.936   0.120   4.244  2.0326 -0.0321 -0.0262
  304MOL0     H41007  -0.847   0.278   4.251 -1.4988  1.2891  1.6454
  304MOL0     H41008  -1.079   0.286   4.334 -0.3134 -0.0965 -0.3051
  304MOL0     H41009  -1.042   0.398   4.200 -0.1357  0.2187  0.6514
  304MOL0     H41010  -1.247   0.209   4.219  2.3400 -0.0877  2.1591
  304MOL0     H41011  -1.155   0.171   4.073  3.2115 -0.2926  1.2718
  304MOL0     H41012  -1.272   0.440   4.148 -0.3616  0.5223  0.1072
  304MOL0     H41013  -1.169   0.401   3.999 -0.5333 -1.2821  0.3457
  304MOL0     H41014  -1.440   0.282   4.053 -0.3501  0.5879 -1.5064
  304MOL0     H41015  -1.349   0.281   3.894 -1.7555  2.1885 -1.8607
  304MOL0     H41016  -1.504   0.502   3.998 -1.9300 -1.5238 -0.5825
  304MOL0     H41017  -1.355   0.524   3.890  0.3688  0.7672  2.4447
  304MOL0     H41018  -1.604   0.345   3.839 -1.9725  1.3749  1.1260
  304MOL0     H41019  -1.464   0.396   3.732  2.1032  4.1539  0.1832
  304MOL0     H41020  -1.511   0.603   3.719  1.6852 -1.3097  1.1277
  304MOL0     H41021  -1.659   0.591   3.824  0.5375  0.7939 -0.0919
  304MOL0     H41022  -0.783   0.424   4.136 -1.4215 -1.3077  0.8783
  304MOL0     H41023  -0.690   0.593   3.968  0.9051 -0.6036  0.4187
  304MOL0     H41024  -0.682   0.667   3.517  0.2877  1.3075  2.8504
  304MOL0     H41025  -0.636   0.791   3.328 -1.5502 -2.9186  1.4631
  304MOL0     H41026   0.735   2.182   3.520  1.4840 -0.3367  1.2338
  304MOL0     H41027   0.951   2.326   3.545 -1.2997 -3.6417 -0.0455
  304MOL0     H41028   1.341   2.493   3.440  1.9653 -0.1570  1.7359
  304MOL0     H41029   1.527   2.652   3.450 -1.3999 -0.7191  0.3940
  304MOL0     H41030   1.626   3.085   3.536 -0.2221 -0.1631 -0.6367
  304MOL0     H41031   1.451   3.088   3.537  0.2817 -1.6738 -0.4170
  304MOL0     H41032   1.620   2.960   3.749  0.7339  0.8534 -0.2055
  304MOL0     H41033   1.450   2.985   3.768 -0.4851 -0.2935 -1.2417
  304MOL0     H41034   1.493   3.248   3.738 -0.8480 -1.3258 -0.5572
  304MOL0     H41035   1.664   3.196   3.770 -0.9379  0.4460 -2.1323
  304MOL0     H41036   1.400   3.148   3.934  0.3171  1.1453 -3.1571
  304MOL0     H41037   1.515   3.278   3.980 -3.0127  1.0530 -0.4329
  304MOL0     H41038   1.725   2.975   4.156 -1.0819 -1.9978 -1.1372
  304MOL0     H41039   1.267   2.963   3.581  1.2564 -0.9534  0.9488
  304MOL0     H41040   1.071   2.808   3.552 -0.0326 -0.6564  1.0208
  305MOL0     O41041   6.262  10.549   3.840 -0.2847 -0.1976  0.5661
  305MOL0     C41042   6.290  10.660   3.799 -0.4904 -1.0974  0.3192
  305MOL0     O41043   6.202  10.767   3.788 -0.5825  0.4504  0.2284
  305MOL0     C41044   6.074  10.751   3.783  0.8279 -0.0693 -0.6150
  305MOL0     C41045   6.003  10.629   3.750  0.0214 -0.2775 -0.4468
  305MOL0     C41046   5.860  10.635   3.748  0.1032  0.1799  0.0138
  305MOL0     C41047   5.790  10.750   3.788 -0.2850 -0.8162  0.6922
  305MOL0     O41048   5.652  10.754   3.785 -0.6711  1.0078 -0.9270
  305MOL0     C41049   5.586  10.823   3.677 -0.0938 -0.1192 -0.0211
  305MOL0     C41050   5.433  10.810   3.709  0.4846  0.2436 -0.1613
  305MOL0     C41051   5.352  10.904   3.612 -1.2829 -0.4988 -0.0083
  305MOL0     C41052   5.204  10.936   3.656 -0.4794  0.4287  0.8838
  305MOL0     C41053   5.143  11.045   3.560 -1.0828  0.4780 -0.9154
  305MOL0     C41054   5.002  11.074   3.599  0.7581 -0.0864 -0.8758
  305MOL0     C41055   4.909  10.959   3.626 -0.3025  0.0636  0.3527
  305MOL0     C41056   4.899  10.866   3.500  0.1420  0.5884  0.3627
  305MOL0     N41057   4.779  10.782   3.475  0.3393 -0.6088  0.1666
  305MOL0     C41058   4.762  10.645   3.490  0.8970 -0.3707 -1.1836
  305MOL0     C41059   4.627  10.614   3.467 -0.3165  0.5600 -0.7633
  305MOL0     C41060   4.571  10.476   3.436 -0.7579 -0.1793 -0.4912
  305MOL0     C41061   4.597  10.443   3.290 -0.0235  0.5377  0.1264
  305MOL0     C41062   4.534  10.308   3.247 -0.6819  0.5623  0.0950
  305MOL0     C41063   4.576  10.268   3.108 -0.1726  0.1414  0.4805
  305MOL0     O41064   4.523  10.359   3.011  0.1386 -0.0917 -0.2675
  305MOL0     C41065   4.523  10.315   2.882 -0.4498 -0.2054  1.0209
  305MOL0     C41066   4.423  10.219   2.839  0.5359 -0.9336 -0.5698
  305MOL0     C41067   4.420  10.159   2.708 -0.3681 -0.3584  0.2886
  305MOL0     C41068   4.319  10.044   2.678 -0.0697  0.1689 -0.0614
  305MOL0     C41069   4.529  10.199   2.623  0.8294  0.6479 -0.6223
  305MOL0     C41070   4.555  10.138   2.487  0.0284 -0.3320 -0.1942
  305MOL0     O41071   4.669  10.168   2.420  0.1503 -0.0674  0.6549
  305MOL0     C41072   4.694  10.065   2.330  0.2852  0.4803  0.4575
  305MOL0     C41073   4.737  10.103   2.200  0.6985  0.5144  0.7123
  305MOL0     C41074   4.765  10.003   2.105  0.2490  0.1750  0.3430
  305MOL0     C41075   4.773   9.870   2.147 -0.3862  0.3258  1.0652
  305MOL0     O41076   4.820   9.775   2.060 -0.3065 -0.5364  0.0542
  305MOL0     C41077   4.783   9.754   1.922  0.1689 -0.7494 -0.0311
  305MOL0     C41078   4.906   9.699   1.831  0.4371 -0.6952 -0.9166
  305MOL0     C41079   4.871   9.666   1.693  0.2752  0.0896  0.8247
  305MOL0     C41080   4.985   9.577   1.618 -0.2382 -0.1702 -0.7015
  305MOL0     C41081   4.980   9.603   1.473  0.6228 -0.8221  0.0829
  305MOL0     C41082   5.104   9.556   1.407 -0.8159 -0.6642  0.0199
  305MOL0     C41083   5.102   9.606   1.261  0.1153  0.5674  0.1757
  305MOL0     C41084   5.223   9.563   1.175  0.4070  0.1297  0.0775
  305MOL0    Cl41085   5.235   9.377   1.145 -0.1491 -0.5067 -0.5925
  305MOL0     C41086   4.727   9.829   2.267 -0.6546 -1.3676 -0.8654
  305MOL0     C41087   4.683   9.921   2.357 -0.7537 -0.4059 -0.0533
  305MOL0     O41088   4.455  10.093   2.430 -0.2712 -0.0590 -0.1901
  305MOL0     C41089   4.619  10.301   2.662  0.3813 -0.5767  0.1687
  305MOL0     C41090   4.620  10.350   2.792 -0.3297 -0.3384 -0.0907
  305MOL0     N41091   4.576  10.739   3.437 -0.8562  0.5812  0.4218
  305MOL0     N41092   4.658  10.834   3.445 -0.3348 -0.0341 -0.3233
  305MOL0     C41093   5.860  10.864   3.824  0.0353  0.0415  0.1379
  305MOL0     C41094   5.999  10.862   3.835 -0.8391  0.2010  0.7496
  305MOL0     C41095   6.430  10.685   3.753  0.6008 -0.2657 -0.5757
  305MOL0     C41096   6.473  10.814   3.747 -0.2242 -0.4212 -0.2887
  305MOL0     C41097   6.603  10.838   3.707  0.2115  1.0989 -0.7608
  305MOL0     C41098   6.682  10.737   3.648 -0.2750 -0.8304 -1.1012
  305MOL0     O41099   6.784  10.753   3.557  0.3901 -0.8441  0.2968
  305MOL0     C41100   6.830  10.877   3.540  0.3502 -0.3532  0.3882
  305MOL0     C41101   6.943  10.866   3.424 -0.3899  0.1008  0.0097
  305MOL0     C41102   6.882  10.823   3.294 -0.2885  0.7829  0.6589
  305MOL0     C41103   6.760  10.906   3.255  0.2381  0.7413 -0.0894
  305MOL0     C41104   6.737  10.908   3.108  0.3580 -0.6007  0.6678
  305MOL0     C41105   6.715  10.901   2.990 -0.5154  0.3901  0.2761
  305MOL0     C41106   6.645  10.604   3.673  1.1238  0.3390  0.3827
  305MOL0     C41107   6.520  10.576   3.727 -0.8645  0.4129 -1.2797
  305MOL0     H41108   6.059  10.540   3.724  2.3270  1.0399 -0.3128
  305MOL0     H41109   5.803  10.548   3.717 -1.8558  0.9854  1.1980
  305MOL0     H41110   5.606  10.930   3.670 -1.1558 -0.0130 -1.9511
  305MOL0     H41111   5.612  10.768   3.586 -0.8606 -2.5682  1.1652
  305MOL0     H41112   5.400  10.705   3.704 -1.2052  0.5044  2.7611
  305MOL0     H41113   5.409  10.834   3.813 -2.1611  0.2087 -0.7008
  305MOL0     H41114   5.401  11.000   3.592 -0.5572 -1.1025 -1.2346
  305MOL0     H41115   5.337  10.861   3.512 -1.2353  3.6895 -2.0398
  305MOL0     H41116   5.141  10.848   3.648 -1.4115  0.5445  4.8067
  305MOL0     H41117   5.198  10.965   3.762  2.4321 -1.6166  1.7322
  305MOL0     H41118   5.201  11.138   3.554 -1.2351  0.6649  0.3396
  305MOL0     H41119   5.150  10.994   3.463 -0.6530 -1.2823  0.0040
  305MOL0     H41120   5.013  11.143   3.684  0.5805 -0.5874 -0.4397
  305MOL0     H41121   4.944  11.132   3.527 -0.5628  0.3703  0.4968
  305MOL0     H41122   4.946  10.905   3.714 -0.9812 -1.2808 -0.1593
  305MOL0     H41123   4.809  10.985   3.662 -1.4059  0.3814 -2.6505
  305MOL0     H41124   4.981  10.795   3.492 -1.1108 -1.0949  1.5849
  305MOL0     H41125   4.895  10.926   3.408 -0.0235 -1.5084 -1.0683
  305MOL0     H41126   4.844  10.578   3.513  0.8939  0.4914  1.6286
  305MOL0     H41127   4.610  10.402   3.506 -2.7599 -1.4760 -0.6440
  305MOL0     H41128   4.464  10.476   3.458 -0.5004 -1.0539  0.8816
  305MOL0     H41129   4.705  10.433   3.281  0.4000  1.4151  3.0593
  305MOL0     H41130   4.551  10.512   3.219  0.3392 -0.7249 -1.3710
  305MOL0     H41131   4.426  10.322   3.256 -0.2536  2.7037  3.6250
  305MOL0     H41132   4.555  10.231   3.322  1.7566  2.5501  1.6288
  305MOL0     H41133   4.531  10.169   3.101 -2.6843  1.3125 -2.6974
  305MOL0     H41134   4.684  10.255   3.097 -0.3926 -0.6479 -0.9605
  305MOL0     H41135   4.347  10.190   2.911 -0.0207 -0.4602 -0.9680
  305MOL0     H41136   4.275  10.000   2.768 -3.3988  0.4325 -1.3987
  305MOL0     H41137   4.233  10.088   2.625  0.8224  0.6210 -1.1717
  305MOL0     H41138   4.365   9.969   2.613  0.0924  1.8583 -2.0002
  305MOL0     H41139   4.755  10.206   2.170 -0.1740  0.4633 -0.0375
  305MOL0     H41140   4.792  10.031   2.003 -1.1686  0.8203  0.1094
  305MOL0     H41141   4.700   9.683   1.925 -0.2395 -0.2568  0.4932
  305MOL0     H41142   4.754   9.849   1.878  0.1168 -0.8584 -0.2357
  305MOL0     H41143   4.972   9.787   1.830 -3.8077  2.9524  1.3147
  305MOL0     H41144   4.954   9.622   1.893  0.5829  1.0644  1.3157
  305MOL0     H41145   4.849   9.761   1.643 -0.7715  1.0870  3.0758
  305MOL0     H41146   4.789   9.594   1.699  0.3287  0.1202  2.2038
  305MOL0     H41147   5.080   9.607   1.663 -0.5935 -3.4432  2.7330
  305MOL0     H41148   4.968   9.470   1.634 -1.9045  0.1704  0.0301
  305MOL0     H41149   4.959   9.707   1.445 -0.3080 -1.7156 -2.9252
  305MOL0     H41150   4.893   9.545   1.442 -0.4892  0.4050  0.7980
  305MOL0     H41151   5.192   9.592   1.461 -0.9340 -1.5768  0.8450
  305MOL0     H41152   5.104   9.447   1.417 -2.2033 -0.4622  3.3146
  305MOL0     H41153   5.099   9.715   1.250 -1.0326  0.4047 -1.6173
  305MOL0     H41154   5.014   9.559   1.215 -0.4376  0.4081  1.3803
  305MOL0     H41155   5.310   9.599   1.230 -2.2806  1.2069  4.0154
  305MOL0     H41156   5.219   9.625   1.085 -1.4489  1.1484  0.8139
  305MOL0     H41157   4.729   9.723   2.290  2.5911 -1.2136  0.0766
  305MOL0     H41158   4.653   9.882   2.454 -0.4225  1.1332  0.7053
  305MOL0     H41159   4.696  10.343   2.598 -0.8755  0.1321 -0.9216
  305MOL0     H41160   4.695  10.420   2.827  1.5047 -2.1683 -0.1119
  305MOL0     H41161   5.801  10.952   3.843 -0.5602  0.0337 -1.5404
  305MOL0     H41162   6.055  10.946   3.875 -2.3302  2.7056 -2.0869
  305MOL0     H41163   6.410  10.901   3.756  0.1284  0.2404 -3.2201
  305MOL0     H41164   6.640  10.940   3.707  1.1348  0.9663  3.5406
  305MOL0     H41165   6.754  10.952   3.522 -0.3645 -1.5416 -1.9354
  305MOL0     H41166   6.889  10.911   3.626  2.4144  1.3311 -1.5598
  305MOL0     H41167   7.024  10.799   3.455 -0.9641  0.3294  2.1291
  305MOL0     H41168   6.988  10.966   3.425  0.8856 -0.3748  3.6324
  305MOL0     H41169   6.851  10.718   3.300  1.0984  0.3755  0.9541
  305MOL0     H41170   6.958  10.817   3.216 -0.2119 -0.7020  0.8119
  305MOL0     H41171   6.773  11.009   3.291  2.7009 -0.2240  2.1372
  305MOL0     H41172   6.688  10.856   3.319  1.9744 -0.1727  1.2451
  305MOL0     H41173   6.686  10.885   2.889 -2.8076 -2.7856  1.2734
  305MOL0     H41174   6.708  10.524   3.635  2.2714  0.9902  0.8430
  305MOL0     H41175   6.493  10.472   3.739 -4.0811  1.3719  1.4076
  306MOL0     O41176   0.064   0.383   0.489  0.2527 -0.7145 -0.2076
  306MOL0     C41177   0.111   0.413   0.595 -0.0173 -1.0016  0.0088
  306MOL0     O41178   0.236   0.482   0.609  0.5782 -0.4299  0.4789
  306MOL0     C41179   0.302   0.519   0.500 -0.6547  0.0734 -0.0035
  306MOL0     C41180   0.440   0.516   0.506  0.0484  0.0191  0.5200
  306MOL0     C41181   0.517   0.559   0.396  0.7992  0.2051 -1.7190
  306MOL0     C41182   0.453   0.600   0.283  0.4971 -1.0762 -0.4908
  306MOL0     O41183   0.533   0.644   0.174  0.2661 -0.1131  0.0622
  306MOL0     C41184   0.663   0.694   0.206  0.3680 -0.2413  0.7393
  306MOL0     C41185   0.707   0.801   0.101  0.8310  1.1381  0.2133
  306MOL0     C41186   0.753   0.747  -0.039 -0.3349  0.2829 -0.4065
  306MOL0     C41187   0.775   0.860  -0.145  0.3561  0.4128 -0.4075
  306MOL0     C41188   0.775   0.805  -0.293 -0.6965 -0.0406 -0.1820
  306MOL0     C41189   0.907   0.749  -0.337  0.6701  0.2631 -0.9211
  306MOL0     C41190   0.914   0.725  -0.480 -1.0287  0.5377 -0.2633
  306MOL0     C41191   0.827   0.604  -0.537  0.0733  0.2931 -0.2623
  306MOL0     N41192   0.684   0.635  -0.543 -0.2238 -0.5455  0.3142
  306MOL0     C41193   0.627   0.737  -0.620  0.0846  0.8160  0.6855
  306MOL0     C41194   0.498   0.714  -0.597  0.0672  0.0600 -0.2212
  306MOL0     C41195   0.382   0.796  -0.652  0.0947 -0.9490  0.7733
  306MOL0     C41196   0.377   0.938  -0.583  0.1239 -0.3622 -0.0575
  306MOL0     C41197   0.252   1.026  -0.607 -0.6828 -0.3289  0.1688
  306MOL0     C41198   0.132   0.975  -0.550  0.0554  0.7833 -0.1310
  306MOL0     O41199   0.030   1.076  -0.572  0.9651 -0.9669  0.3404
  306MOL0     C41200   0.003   1.166  -0.481  0.2083 -0.7142  0.3130
  306MOL0     C41201   0.029   1.150  -0.338 -0.5652  0.1784  0.5623
  306MOL0     C41202  -0.014   1.245  -0.251 -1.4281 -0.0807  0.1603
  306MOL0     C41203   0.010   1.214  -0.107 -0.2505 -0.5600  0.2524
  306MOL0     C41204  -0.076   1.362  -0.307  0.1532 -0.2772 -0.0724
  306MOL0     C41205  -0.139   1.463  -0.219 -0.0682 -0.0385  0.3215
  306MOL0     O41206  -0.208   1.565  -0.290 -0.0167  0.8307  0.0828
  306MOL0     C41207  -0.297   1.642  -0.213 -0.3512 -0.0320  0.0736
  306MOL0     C41208  -0.261   1.771  -0.177  1.0148  0.1859  0.0645
  306MOL0     C41209  -0.356   1.840  -0.096 -0.5391 -0.4321  0.5705
  306MOL0     C41210  -0.476   1.801  -0.055 -0.8522 -0.0695 -0.2107
  306MOL0     O41211  -0.564   1.897   0.002  0.1580 -0.5528  0.8566
  306MOL0     C41212  -0.673   1.842   0.068  1.0165  0.2606  0.1504
  306MOL0     C41213  -0.743   1.954   0.131 -0.4677 -0.1615 -0.4751
  306MOL0     C41214  -0.863   1.904   0.214 -0.7974  0.1223  1.4608
  306MOL0     C41215  -0.943   2.015   0.263 -0.2924 -0.6097 -0.2432
  306MOL0     C41216  -1.074   1.958   0.313 -0.1525 -0.3350  0.3302
  306MOL0     C41217  -1.137   2.083   0.392  0.6678  0.4925  0.8784
  306MOL0     C41218  -1.267   2.051   0.471 -0.2822  0.5580  0.1241
  306MOL0     C41219  -1.339   2.177   0.525 -0.1515 -0.7948 -0.8222
  306MOL0    Cl41220  -1.503   2.130   0.593  0.1703  0.1373 -0.0865
  306MOL0     C41221  -0.505   1.669  -0.093  0.9599 -0.5111 -0.1316
  306MOL0     C41222  -0.416   1.591  -0.174  0.0301  0.1817 -1.4683
  306MOL0     O41223  -0.129   1.452  -0.098 -0.5875  0.1102 -0.1557
  306MOL0     C41224  -0.102   1.377  -0.443  0.4430  0.3059 -0.8410
  306MOL0     C41225  -0.055   1.282  -0.529  0.0877 -0.2941  0.2073
  306MOL0     N41226   0.485   0.597  -0.514 -0.3248 -0.4845  0.1589
  306MOL0     N41227   0.596   0.551  -0.490 -0.2441 -0.3441 -0.3784
  306MOL0     C41228   0.312   0.607   0.273  0.0774  0.0365 -0.2661
  306MOL0     C41229   0.236   0.569   0.382  0.3906  0.9612 -0.2877
  306MOL0     C41230   0.067   0.353   0.726  1.1829  1.2327  0.7003
  306MOL0     C41231  -0.031   0.251   0.727 -0.6640 -0.3361  0.0528
  306MOL0     C41232  -0.065   0.191   0.845 -0.7096  0.1514  0.7850
  306MOL0     C41233  -0.019   0.225   0.970 -0.2947 -0.2098  0.0792
  306MOL0     O41234  -0.036   0.162   1.092 -0.2418  0.6714  0.0148
  306MOL0     C41235  -0.144   0.072   1.111  1.1216 -0.0546 -0.2649
  306MOL0     C41236  -0.166   0.025   1.257 -0.6488  0.1843 -0.0183
  306MOL0     C41237  -0.269  -0.088   1.278 -0.6449  0.1908 -0.5430
  306MOL0     C41238  -0.289  -0.138   1.419 -0.4389 -0.1649 -0.6303
  306MOL0     C41239  -0.393  -0.241   1.423  0.6045 -0.4496  0.8888
  306MOL0     C41240  -0.473  -0.326   1.413  0.3792  0.2549 -0.7454
  306MOL0     C41241   0.067   0.331   0.974 -0.1096 -0.3156  0.4709
  306MOL0     C41242   0.116   0.391   0.853 -0.3707 -0.0364 -0.3192
  306MOL0     H41243   0.490   0.484   0.596 -0.5633  3.5976  2.2780
  306MOL0     H41244   0.625   0.554   0.402  1.0578  1.4764 -4.2430
  306MOL0     H41245   0.664   0.736   0.307 -0.7554  0.6107  0.4180
  306MOL0     H41246   0.742   0.618   0.201 -1.1509 -1.8785  0.0654
  306MOL0     H41247   0.620   0.864   0.082 -1.6680 -1.6871  1.4152
  306MOL0     H41248   0.789   0.846   0.158  1.1883 -0.4850  1.0366
  306MOL0     H41249   0.850   0.702  -0.018 -0.8448 -1.1025 -0.9121
  306MOL0     H41250   0.678   0.674  -0.071  0.3683 -0.5430 -0.1758
  306MOL0     H41251   0.693   0.929  -0.127 -0.5584 -1.2439  2.4248
  306MOL0     H41252   0.866   0.920  -0.128 -0.5416  0.7638  4.8484
  306MOL0     H41253   0.701   0.725  -0.304 -3.5970  2.2192  1.4300
  306MOL0     H41254   0.750   0.882  -0.366 -0.5767  0.1830  0.0121
  306MOL0     H41255   0.985   0.823  -0.315 -0.5064  1.1623  0.4156
  306MOL0     H41256   0.927   0.657  -0.281 -0.3561  1.7788  2.1639
  306MOL0     H41257   0.884   0.819  -0.526  0.7652  2.3144  2.0023
  306MOL0     H41258   1.016   0.703  -0.515 -2.5760 -0.9141 -4.5326
  306MOL0     H41259   0.843   0.517  -0.473 -1.0120 -0.5717 -1.1340
  306MOL0     H41260   0.864   0.578  -0.636  4.1181 -0.1588  1.1814
  306MOL0     H41261   0.675   0.818  -0.673  1.0312  0.8294  1.5414
  306MOL0     H41262   0.403   0.796  -0.760 -0.9256  0.0714  0.5609
  306MOL0     H41263   0.293   0.736  -0.628  0.0092 -1.2393 -0.1842
  306MOL0     H41264   0.452   1.004  -0.627 -1.8454  2.1971  0.2090
  306MOL0     H41265   0.399   0.912  -0.479 -1.9948 -1.0601  0.2734
  306MOL0     H41266   0.236   1.044  -0.713  1.5053  0.3045 -0.1033
  306MOL0     H41267   0.283   1.124  -0.568  2.5348 -0.9351 -0.6012
  306MOL0     H41268   0.159   0.935  -0.452  3.5426  0.9477 -0.9023
  306MOL0     H41269   0.098   0.895  -0.617  3.4072 -2.6051  1.8623
  306MOL0     H41270   0.094   1.070  -0.305  2.1532  3.1041  2.8900
  306MOL0     H41271   0.042   1.111  -0.090 -2.1529 -0.9743  1.7230
  306MOL0     H41272   0.094   1.268  -0.063  0.1109 -2.3534  1.9105
  306MOL0     H41273  -0.077   1.236  -0.043 -1.6699  1.9147 -2.3017
  306MOL0     H41274  -0.165   1.820  -0.187  0.5067  2.4381  3.8343
  306MOL0     H41275  -0.317   1.935  -0.062  1.4515 -0.5202 -1.2368
  306MOL0     H41276  -0.741   1.793  -0.002 -0.3958 -0.2729  1.8152
  306MOL0     H41277  -0.635   1.774   0.145  3.3146  0.3461 -0.8266
  306MOL0     H41278  -0.666   1.999   0.195  1.2911 -1.8039 -1.3310
  306MOL0     H41279  -0.775   2.025   0.054 -0.2066 -0.1455 -0.5697
  306MOL0     H41280  -0.837   1.853   0.307 -0.8508 -2.8456 -0.0411
  306MOL0     H41281  -0.910   1.832   0.147  1.2929 -0.1641  0.1978
  306MOL0     H41282  -0.887   2.053   0.348 -1.5488  2.9870 -0.8469
  306MOL0     H41283  -0.963   2.099   0.196 -3.1601  0.6249  1.9295
  306MOL0     H41284  -1.063   1.874   0.382 -4.3979  1.9470  4.3541
  306MOL0     H41285  -1.133   1.927   0.226  0.7370  1.2805 -0.9142
  306MOL0     H41286  -1.068   2.116   0.470 -0.9962  3.1391  1.3737
  306MOL0     H41287  -1.163   2.159   0.317 -1.4139 -2.5943 -1.7627
  306MOL0     H41288  -1.246   1.979   0.551  0.9815  0.4067 -0.3297
  306MOL0     H41289  -1.333   2.007   0.395  0.4768  2.5495 -1.7685
  306MOL0     H41290  -1.355   2.251   0.446  0.8876 -0.0674 -0.3865
  306MOL0     H41291  -1.275   2.220   0.604 -0.8829  0.1599 -0.7371
  306MOL0     H41292  -0.600   1.626  -0.063  2.0840 -2.7806  0.4153
  306MOL0     H41293  -0.457   1.493  -0.198  1.2482 -0.1549 -2.2981
  306MOL0     H41294  -0.151   1.463  -0.489 -0.8541 -0.1275 -0.3166
  306MOL0     H41295  -0.059   1.294  -0.637  3.4300  0.0861  0.0244
  306MOL0     H41296   0.269   0.660   0.188 -0.3709  1.6785  0.9248
  306MOL0     H41297   0.132   0.594   0.398  0.8594  1.0919  3.3961
  306MOL0     H41298  -0.076   0.207   0.639 -1.1665 -1.4070  0.8116
  306MOL0     H41299  -0.123   0.101   0.825  1.2144 -0.6812 -1.4964
  306MOL0     H41300  -0.244   0.109   1.085  1.5188  2.0842  1.0631
  306MOL0     H41301  -0.137  -0.021   1.053  0.6994 -0.3986  0.2228
  306MOL0     H41302  -0.194   0.114   1.315 -2.1440 -1.9238  2.7628
  306MOL0     H41303  -0.067  -0.003   1.293 -0.6234 -1.9070 -1.5619
  306MOL0     H41304  -0.232  -0.172   1.217 -1.7519 -1.5150  1.0349
  306MOL0     H41305  -0.367  -0.058   1.239 -1.1711  0.5018  0.9557
  306MOL0     H41306  -0.304  -0.061   1.495  0.4113 -1.8191  1.3265
  306MOL0     H41307  -0.198  -0.195   1.441 -1.1471 -1.4734 -1.0255
  306MOL0     H41308  -0.539  -0.411   1.417  2.8483 -1.8270 -1.7489
  306MOL0     H41309   0.100   0.374   1.068 -2.8339 -0.7740  1.7445
  306MOL0     H41310   0.183   0.475   0.866 -1.8722  0.8507  2.4344
  307MOL0     O41311   1.226   7.092   5.377 -0.3403  0.3462  0.4270
  307MOL0     C41312   1.155   7.093   5.281  0.2063 -0.4957  1.2957
  307MOL0     O41313   1.182   7.057   5.154  0.0977 -0.4410 -0.6392
  307MOL0     C41314   1.313   7.056   5.116 -0.3596 -0.1826  0.2887
  307MOL0     C41315   1.358   6.939   5.062 -0.1084 -0.1822 -0.9058
  307MOL0     C41316   1.494   6.927   5.042 -0.3952  0.8068 -0.4117
  307MOL0     C41317   1.577   7.035   5.073 -0.4035  1.0360 -0.0846
  307MOL0     O41318   1.709   7.036   5.039  0.0604 -0.2618  1.0287
  307MOL0     C41319   1.790   6.935   5.100  0.2854  0.2364 -0.5551
  307MOL0     C41320   1.929   6.955   5.062 -0.5418 -0.2198 -0.5825
  307MOL0     C41321   1.974   6.862   4.950  0.0553 -0.3372 -0.5075
  307MOL0     C41322   2.124   6.865   4.931  0.5781  0.0371  0.3841
  307MOL0     C41323   2.170   6.775   4.829 -0.1819  0.1404  0.3960
  307MOL0     C41324   2.325   6.766   4.806  0.3738 -0.5885  0.2740
  307MOL0     C41325   2.356   6.653   4.709  0.4756 -0.2016  0.1528
  307MOL0     C41326   2.379   6.705   4.562 -0.0797 -0.7162  0.2984
  307MOL0     N41327   2.266   6.781   4.507  0.6193 -0.5486 -0.7028
  307MOL0     C41328   2.257   6.918   4.490  0.7861 -0.5395  0.5588
  307MOL0     C41329   2.125   6.944   4.478  0.7499 -0.1048  0.3186
  307MOL0     C41330   2.063   7.077   4.466  0.1007 -0.0884  0.2394
  307MOL0     C41331   1.952   7.107   4.568 -0.3761  0.1844  0.3520
  307MOL0     C41332   1.893   7.236   4.534  0.6434  0.3569  0.0002
  307MOL0     C41333   1.794   7.228   4.425 -1.2500  0.3628 -0.7432
  307MOL0     O41334   1.747   7.361   4.395  0.8693 -0.1098  0.4970
  307MOL0     C41335   1.654   7.350   4.292  0.8506  0.9429  0.1826
  307MOL0     C41336   1.623   7.462   4.220  0.7408 -0.3797 -0.1180
  307MOL0     C41337   1.536   7.470   4.100  0.7129 -0.4208 -0.4406
  307MOL0     C41338   1.506   7.613   4.049  0.0460  0.4593 -0.5599
  307MOL0     C41339   1.467   7.346   4.054 -1.5260 -0.0689 -0.1583
  307MOL0     C41340   1.383   7.334   3.931  0.2046 -0.3258  0.2862
  307MOL0     O41341   1.335   7.211   3.898  0.5170 -0.5888  1.6620
  307MOL0     C41342   1.251   7.206   3.799 -0.0733  0.9610  0.1430
  307MOL0     C41343   1.116   7.227   3.824 -0.4162 -0.8697 -1.2406
  307MOL0     C41344   1.019   7.205   3.727 -0.8190 -0.6373  0.1154
  307MOL0     C41345   1.059   7.168   3.594  0.0616 -0.0395 -1.4447
  307MOL0     O41346   0.966   7.151   3.501  0.5733 -0.5747 -0.2951
  307MOL0     C41347   0.851   7.245   3.509 -0.0264 -0.8450  0.0767
  307MOL0     C41348   0.757   7.240   3.381  1.0752  1.3244  0.6652
  307MOL0     C41349   0.836   7.253   3.243  0.4026 -0.5946 -0.0773
  307MOL0     C41350   0.743   7.261   3.127 -0.1384  0.5096  0.2383
  307MOL0     C41351   0.792   7.235   2.983 -0.4484  0.2843 -0.0795
  307MOL0     C41352   0.696   7.264   2.869  0.3997 -0.3689  0.0252
  307MOL0     C41353   0.676   7.413   2.852  0.1102 -0.3405  0.2432
  307MOL0     C41354   0.742   7.473   2.726 -0.3859  0.3465 -0.0978
  307MOL0    Cl41355   0.887   7.576   2.764 -0.7279  0.7541 -0.1257
  307MOL0     C41356   1.194   7.146   3.566  0.5525  0.6392  1.0799
  307MOL0     C41357   1.285   7.155   3.671 -1.1287 -0.5336 -0.0798
  307MOL0     O41358   1.368   7.437   3.859 -0.2957  0.3230  0.3434
  307MOL0     C41359   1.499   7.233   4.135 -0.0824 -0.1450 -0.2355
  307MOL0     C41360   1.590   7.239   4.243  0.2280  0.1760 -0.3189
  307MOL0     N41361   2.063   6.824   4.466  1.1973  0.1679  0.7041
  307MOL0     N41362   2.148   6.729   4.462  0.3031 -0.8951 -0.4788
  307MOL0     C41363   1.532   7.154   5.124  0.6848 -0.4116 -1.0170
  307MOL0     C41364   1.399   7.164   5.145 -0.0368  0.2707 -0.4780
  307MOL0     C41365   1.029   7.147   5.298 -0.4395 -0.2529  0.2374
  307MOL0     C41366   0.934   7.070   5.366 -0.7049 -0.0648  0.6682
  307MOL0     C41367   0.806   7.123   5.380  0.6629  0.1939  0.1023
  307MOL0     C41368   0.778   7.256   5.329 -1.2719 -0.9743 -0.8548
  307MOL0     O41369   0.653   7.315   5.332  0.2730  0.4697 -0.4963
  307MOL0     C41370   0.588   7.288   5.454 -0.1110 -0.0259  0.0885
  307MOL0     C41371   0.509   7.411   5.500  0.5799 -0.2197  1.0959
  307MOL0     C41372   0.599   7.510   5.574  0.0679  0.2995 -0.1000
  307MOL0     C41373   0.570   7.505   5.724  0.6434 -0.1980 -0.6500
  307MOL0     C41374   0.683   7.549   5.798 -0.1977  0.5926 -0.5843
  307MOL0     C41375   0.768   7.593   5.872 -0.2234 -0.2211  0.7383
  307MOL0     C41376   0.879   7.336   5.265  0.5680  0.2413 -0.1056
  307MOL0     C41377   0.996   7.280   5.260 -0.0814  0.4582  0.0848
  307MOL0     H41378   1.295   6.853   5.042 -1.2492 -0.1249  1.8865
  307MOL0     H41379   1.542   6.838   5.002 -1.0850  0.8781 -1.4351
  307MOL0     H41380   1.784   6.926   5.209 -1.0585 -2.5438 -0.7773
  307MOL0     H41381   1.753   6.837   5.068  0.4160  0.8405 -2.7004
  307MOL0     H41382   1.941   7.061   5.039 -0.9099  0.2903  1.3255
  307MOL0     H41383   1.986   6.937   5.154 -0.1435  1.5829 -0.4224
  307MOL0     H41384   1.948   6.760   4.978 -0.0783 -0.4981 -1.2041
  307MOL0     H41385   1.926   6.889   4.855  0.5800 -0.0830 -0.7064
  307MOL0     H41386   2.154   6.968   4.910  1.7838 -0.1846  0.8936
  307MOL0     H41387   2.163   6.824   5.025  0.6284 -1.5190 -0.2957
  307MOL0     H41388   2.133   6.675   4.850 -0.6688  0.0740 -0.7149
  307MOL0     H41389   2.131   6.810   4.733  2.3155  0.7537 -0.4836
  307MOL0     H41390   2.356   6.863   4.766  0.5848 -1.1188 -0.8676
  307MOL0     H41391   2.383   6.754   4.898 -1.5624 -3.3030  1.2723
  307MOL0     H41392   2.449   6.603   4.738  0.4656  0.0579  0.6399
  307MOL0     H41393   2.281   6.574   4.709 -0.4418  0.6127  1.3794
  307MOL0     H41394   2.392   6.615   4.501  1.7764 -0.3298  0.0701
  307MOL0     H41395   2.470   6.765   4.554 -1.2667  0.9534 -1.2898
  307MOL0     H41396   2.331   6.997   4.488 -0.7574  0.9762  1.2724
  307MOL0     H41397   2.145   7.149   4.474 -1.1540  1.5109 -0.6080
  307MOL0     H41398   2.027   7.093   4.364  1.9633 -3.9347 -1.2339
  307MOL0     H41399   2.002   7.098   4.664  0.5865  3.1304  0.2119
  307MOL0     H41400   1.881   7.024   4.570 -1.0792  0.6942 -1.3106
  307MOL0     H41401   1.971   7.304   4.497  1.0574 -1.5933 -3.0269
  307MOL0     H41402   1.847   7.282   4.622 -2.3471  0.7274 -1.6176
  307MOL0     H41403   1.714   7.157   4.451 -0.3130 -0.4498  0.0058
  307MOL0     H41404   1.844   7.184   4.339 -0.2407  1.2699 -0.6351
  307MOL0     H41405   1.675   7.545   4.267  1.5897 -1.8836  1.7460
  307MOL0     H41406   1.549   7.690   4.114  0.2446 -1.1084  1.2315
  307MOL0     H41407   1.546   7.619   3.947 -0.6867 -1.6296 -1.0120
  307MOL0     H41408   1.399   7.635   4.037 -0.1894 -1.7150 -3.5971
  307MOL0     H41409   1.087   7.262   3.923  1.0284 -3.0924  0.0492
  307MOL0     H41410   0.919   7.225   3.762 -0.2792  1.4741  0.5574
  307MOL0     H41411   0.785   7.207   3.589 -2.2437  0.2693 -1.1209
  307MOL0     H41412   0.872   7.351   3.522  1.9982 -1.0631 -1.0193
  307MOL0     H41413   0.711   7.141   3.388  0.9971  1.3888  1.0504
  307MOL0     H41414   0.689   7.325   3.390  0.4449  0.9981 -0.7193
  307MOL0     H41415   0.884   7.155   3.230  2.1072 -0.1275  2.0862
  307MOL0     H41416   0.914   7.329   3.232 -1.7256  1.7410  0.1964
  307MOL0     H41417   0.666   7.189   3.155 -0.7240  1.3525  0.8099
  307MOL0     H41418   0.703   7.362   3.124  1.2642  1.1104  0.8489
  307MOL0     H41419   0.827   7.132   2.972 -0.5836  0.4295 -2.5473
  307MOL0     H41420   0.884   7.291   2.966 -1.3366  1.9274  0.2951
  307MOL0     H41421   0.727   7.215   2.776 -1.1216  0.5288 -0.9932
  307MOL0     H41422   0.597   7.224   2.893  0.8873 -0.6974  1.6038
  307MOL0     H41423   0.701   7.483   2.932  0.1106  1.2123 -1.0603
  307MOL0     H41424   0.574   7.441   2.824  0.4718  3.5582  2.2053
  307MOL0     H41425   0.665   7.523   2.667  0.7942  1.3562 -0.8073
  307MOL0     H41426   0.787   7.395   2.664 -0.1514 -0.9946  1.6690
  307MOL0     H41427   1.216   7.114   3.465 -3.1769  0.7971  0.0967
  307MOL0     H41428   1.390   7.130   3.660 -0.1609  2.1597  1.8100
  307MOL0     H41429   1.450   7.144   4.095 -0.7549  0.9235 -1.8944
  307MOL0     H41430   1.602   7.145   4.297  1.9727  2.2390  3.2088
  307MOL0     H41431   1.597   7.237   5.151 -1.1811  0.4746  1.1639
  307MOL0     H41432   1.357   7.253   5.190  1.5534  1.8947 -2.0170
  307MOL0     H41433   0.970   6.975   5.404 -0.6481  0.0384  0.8760
  307MOL0     H41434   0.733   7.063   5.434  0.2296 -1.5465 -2.2349
  307MOL0     H41435   0.526   7.199   5.440 -0.9323  0.5954 -0.3290
  307MOL0     H41436   0.660   7.261   5.532 -0.2461  1.4134  0.7515
  307MOL0     H41437   0.430   7.371   5.564  2.1178 -0.2235  3.0842
  307MOL0     H41438   0.458   7.463   5.419 -0.5336 -2.6067  0.1498
  307MOL0     H41439   0.589   7.613   5.541 -1.1820  1.0730  2.4106
  307MOL0     H41440   0.707   7.497   5.565 -0.3436 -2.9880 -1.8010
  307MOL0     H41441   0.541   7.401   5.742 -2.2778  0.3241 -1.8162
  307MOL0     H41442   0.486   7.570   5.748 -0.0776 -1.5141  0.5056
  307MOL0     H41443   0.858   7.627   5.919 -1.1623  2.1470  0.9472
  307MOL0     H41444   0.855   7.438   5.236 -4.7392 -0.1903  1.6501
  307MOL0     H41445   1.076   7.333   5.208  1.0843 -1.8626 -0.6158
  308MOL0     O41446  10.152  11.268   8.564  0.1102 -0.1697  0.6052
  308MOL0     C41447  10.196  11.385   8.551 -0.2865 -0.7537 -0.0907
  308MOL0     O41448  10.150  11.476   8.462 -0.4263 -0.7977  0.3099
  308MOL0     C41449  10.057  11.430   8.369 -1.1838  0.5639 -0.0475
  308MOL0     C41450   9.924  11.474   8.359  0.4230  0.9937 -0.2029
  308MOL0     C41451   9.844  11.431   8.249 -0.3048  0.1885 -0.2965
  308MOL0     C41452   9.902  11.349   8.148  0.5546  0.1859 -0.9938
  308MOL0     O41453   9.830  11.341   8.030  0.1564  0.0712 -0.7506
  308MOL0     C41454   9.887  11.285   7.914 -0.1538  0.1720  0.4181
  308MOL0     C41455   9.786  11.312   7.801  0.0361  0.1255 -0.0173
  308MOL0     C41456   9.807  11.448   7.748 -0.2492 -0.6944 -0.3245
  308MOL0     C41457   9.715  11.490   7.631  0.5963 -0.6677 -0.1326
  308MOL0     C41458   9.574  11.537   7.659 -0.0420 -0.1753 -1.2285
  308MOL0     C41459   9.485  11.557   7.531 -0.6258  0.6019 -0.9188
  308MOL0     C41460   9.520  11.690   7.464 -0.0820  0.1114 -0.3369
  308MOL0     C41461   9.423  11.707   7.338  0.2924  0.0942 -0.7440
  308MOL0     N41462   9.453  11.837   7.285  0.0275  0.2154 -0.0589
  308MOL0     C41463   9.573  11.889   7.238  0.2145  1.4270  0.6841
  308MOL0     C41464   9.550  12.027   7.220  0.1289 -1.0394 -0.3099
  308MOL0     C41465   9.642  12.146   7.173  0.3723  0.3932 -0.3407
  308MOL0     C41466   9.691  12.225   7.293 -0.0912 -0.2141  0.2514
  308MOL0     C41467   9.755  12.355   7.239  0.9125 -0.0984 -0.4623
  308MOL0     C41468   9.799  12.459   7.348 -0.1953  0.8005 -0.5863
  308MOL0     O41469   9.679  12.534   7.387  0.4048  0.0146  0.2659
  308MOL0     C41470   9.661  12.650   7.326 -0.0139  0.6728 -0.1713
  308MOL0     C41471   9.720  12.688   7.212  0.2036  0.0620  0.1913
  308MOL0     C41472   9.693  12.814   7.150 -0.7714 -0.3496  1.0908
  308MOL0     C41473   9.769  12.849   7.028 -0.3947 -0.5349  1.0714
  308MOL0     C41474   9.600  12.907   7.215 -0.4057 -0.1706 -0.1426
  308MOL0     C41475   9.566  13.044   7.166 -0.5554 -0.2477 -0.7912
  308MOL0     O41476   9.513  13.127   7.261  0.1621 -0.4552  0.2710
  308MOL0     C41477   9.430  13.235   7.238 -0.0701 -0.6059  0.1279
  308MOL0     C41478   9.349  13.242   7.125 -0.0537 -0.4994  0.3235
  308MOL0     C41479   9.267  13.356   7.099 -0.3280  0.0492 -0.4292
  308MOL0     C41480   9.257  13.451   7.197  0.1613 -0.6978  0.2041
  308MOL0     O41481   9.183  13.566   7.193 -1.0444 -0.0140  0.7472
  308MOL0     C41482   9.047  13.548   7.141 -0.1831  1.1705  0.5687
  308MOL0     C41483   8.967  13.654   7.218 -0.7638  0.4847  0.0856
  308MOL0     C41484   8.824  13.647   7.204  0.8248 -0.1909 -0.1797
  308MOL0     C41485   8.749  13.655   7.334 -0.1875  0.5951  0.5907
  308MOL0     C41486   8.596  13.639   7.301  0.2128  0.6439 -0.8431
  308MOL0     C41487   8.507  13.664   7.426  0.4046 -0.8288 -0.4324
  308MOL0     C41488   8.363  13.673   7.392 -0.2465 -0.2100  0.3681
  308MOL0     C41489   8.275  13.727   7.507  0.2852  0.3543  0.4724
  308MOL0    Cl41490   8.311  13.903   7.541 -0.1915  0.3363  0.4527
  308MOL0     C41491   9.330  13.433   7.315  0.4588 -0.6725 -1.0153
  308MOL0     C41492   9.418  13.332   7.340 -0.8375 -1.3807 -0.5705
  308MOL0     O41493   9.580  13.072   7.044 -0.6498  0.3731 -0.0344
  308MOL0     C41494   9.543  12.863   7.334  1.2508 -0.8552 -0.6099
  308MOL0     C41495   9.569  12.736   7.386  0.2529  0.9063 -0.1698
  308MOL0     N41496   9.417  12.056   7.272  0.7225 -0.0979  0.2244
  308MOL0     N41497   9.368  11.938   7.315 -0.1486  0.1934 -0.1613
  308MOL0     C41498  10.036  11.312   8.154  0.4267  0.4121  0.6921
  308MOL0     C41499  10.105  11.354   8.265 -0.5292 -0.3066 -0.4556
  308MOL0     C41500  10.313  11.430   8.632 -0.4479  0.0008 -0.7259
  308MOL0     C41501  10.355  11.565   8.631 -0.1606 -0.0780 -0.2739
  308MOL0     C41502  10.469  11.606   8.695  2.0715 -0.2392 -0.3607
  308MOL0     C41503  10.535  11.519   8.783 -0.2572 -0.2703 -0.0676
  308MOL0     O41504  10.643  11.548   8.849  0.1611  0.1679 -0.0088
  308MOL0     C41505  10.669  11.675   8.905  0.1452 -1.5491 -0.5181
  308MOL0     C41506  10.748  11.763   8.808  0.1311 -1.8687  0.3054
  308MOL0     C41507  10.894  11.731   8.787 -0.4010  0.8231 -0.3799
  308MOL0     C41508  10.994  11.757   8.901  0.4393  0.4625  0.5126
  308MOL0     C41509  10.995  11.893   8.947  0.6862 -0.5128  0.3198
  308MOL0     C41510  11.001  12.009   8.978 -0.3408 -1.4744 -0.1256
  308MOL0     C41511  10.481  11.391   8.796 -0.3170 -0.3805  0.7220
  308MOL0     C41512  10.376  11.348   8.717 -1.4806  0.3875 -0.4884
  308MOL0     H41513   9.878  11.547   8.424 -2.3611 -1.0946  0.3542
  308MOL0     H41514   9.744  11.471   8.234 -1.2551 -1.5687  0.9580
  308MOL0     H41515   9.985  11.329   7.894 -0.1095 -1.2780 -3.1908
  308MOL0     H41516   9.897  11.179   7.938 -3.2929 -0.0020  1.4277
  308MOL0     H41517   9.808  11.246   7.717  3.3567  0.1650  0.6806
  308MOL0     H41518   9.685  11.291   7.838  0.0433 -1.8981 -1.0124
  308MOL0     H41519   9.797  11.523   7.827 -0.8223  0.4669 -1.4554
  308MOL0     H41520   9.911  11.452   7.715 -0.1409 -0.9229 -0.0154
  308MOL0     H41521   9.771  11.563   7.572  0.6206 -0.8759 -0.3716
  308MOL0     H41522   9.693  11.404   7.566 -3.2666 -1.7313  2.2927
  308MOL0     H41523   9.536  11.455   7.720 -0.4350  1.4307  0.8051
  308MOL0     H41524   9.590  11.626   7.721  0.8539 -3.5939  4.1043
  308MOL0     H41525   9.484  11.468   7.467 -2.0315  0.5204 -0.8261
  308MOL0     H41526   9.387  11.562   7.581 -0.7764 -0.2010 -1.1173
  308MOL0     H41527   9.506  11.774   7.532  0.8381  1.9039 -2.2402
  308MOL0     H41528   9.626  11.702   7.438 -0.4644  1.7677 -1.2117
  308MOL0     H41529   9.318  11.703   7.369  0.2043 -0.6805 -1.1261
  308MOL0     H41530   9.424  11.639   7.253 -1.3752  0.0225 -0.7279
  308MOL0     H41531   9.665  11.839   7.207  0.1720  3.0123 -2.4062
  308MOL0     H41532   9.709  12.100   7.100  0.0237 -0.5366 -0.0840
  308MOL0     H41533   9.585  12.212   7.105 -1.2246 -0.4579  0.1112
  308MOL0     H41534   9.750  12.167   7.364 -0.3286  2.1068  2.5180
  308MOL0     H41535   9.599  12.253   7.346  0.1491  0.1326  0.4901
  308MOL0     H41536   9.691  12.406   7.166  2.9100  2.6527 -0.4560
  308MOL0     H41537   9.844  12.324   7.183 -0.6947  0.7902 -3.7738
  308MOL0     H41538   9.879  12.521   7.306  0.1699  1.6561  1.2549
  308MOL0     H41539   9.840  12.403   7.433 -1.6487 -2.0360 -1.6309
  308MOL0     H41540   9.795  12.631   7.159 -0.1233 -0.9174  0.7588
  308MOL0     H41541   9.708  12.883   6.944  1.1119  0.6092  0.3951
  308MOL0     H41542   9.833  12.933   7.053 -0.1565 -1.4656  3.9410
  308MOL0     H41543   9.823  12.763   6.987 -1.3941  0.3731 -2.4918
  308MOL0     H41544   9.373  13.168   7.049  3.4811  2.0728 -1.3797
  308MOL0     H41545   9.208  13.355   7.007 -2.1862  0.4123  0.7156
  308MOL0     H41546   9.035  13.564   7.034  3.4420 -1.0585 -0.3283
  308MOL0     H41547   9.016  13.446   7.166 -1.2863  1.6195  1.1152
  308MOL0     H41548   8.989  13.663   7.325  0.4121  1.5648 -0.2248
  308MOL0     H41549   8.998  13.754   7.186 -0.0515  1.5463  3.6536
  308MOL0     H41550   8.791  13.552   7.160 -1.3539  0.8531 -0.9656
  308MOL0     H41551   8.785  13.727   7.140 -0.0830 -2.1997 -2.3040
  308MOL0     H41552   8.786  13.592   7.416 -0.2406  1.2930  1.1658
  308MOL0     H41553   8.753  13.757   7.372  0.9714  0.5483  0.6350
  308MOL0     H41554   8.572  13.537   7.268 -1.2648  0.5504  0.4053
  308MOL0     H41555   8.567  13.699   7.215  0.9745 -1.3180 -2.5415
  308MOL0     H41556   8.517  13.588   7.504 -2.7695 -1.9428 -0.9239
  308MOL0     H41557   8.528  13.755   7.482 -0.6650 -0.5427 -0.4657
  308MOL0     H41558   8.330  13.574   7.362 -1.7460  0.1017  0.8880
  308MOL0     H41559   8.347  13.735   7.304  0.5238  0.0646  0.4097
  308MOL0     H41560   8.274  13.671   7.601 -2.2702 -1.7788 -0.6864
  308MOL0     H41561   8.169  13.717   7.482  0.4993 -2.5907  0.3145
  308MOL0     H41562   9.299  13.507   7.388  0.9868 -2.6440  1.3116
  308MOL0     H41563   9.473  13.320   7.433  2.7325  2.6544 -1.8163
  308MOL0     H41564   9.452  12.908   7.371 -0.3917 -2.7462 -2.1159
  308MOL0     H41565   9.508  12.700   7.468 -0.8747  2.7123 -0.1673
  308MOL0     H41566  10.088  11.247   8.085  1.0378  0.9013  0.6818
  308MOL0     H41567  10.213  11.349   8.262 -0.3323  2.6690 -1.9644
  308MOL0     H41568  10.309  11.634   8.561  1.5523  1.6953  0.2731
  308MOL0     H41569  10.497  11.711   8.683  0.4467  0.2160 -0.4541
  308MOL0     H41570  10.579  11.725   8.942  2.6002  2.9257  0.0744
  308MOL0     H41571  10.732  11.670   8.994  0.3363  0.0272 -0.5386
  308MOL0     H41572  10.740  11.869   8.833 -0.2729 -1.2372 -2.2005
  308MOL0     H41573  10.695  11.761   8.712 -0.9474  0.5122  0.7575
  308MOL0     H41574  10.946  11.780   8.705  1.1743  1.8626  1.1596
  308MOL0     H41575  10.891  11.622   8.777 -1.6762  0.1608  4.4468
  308MOL0     H41576  11.099  11.738   8.878  0.7323  1.2263  1.1680
  308MOL0     H41577  10.973  11.696   8.989  1.6087 -0.3212  0.2799
  308MOL0     H41578  11.002  12.111   9.011  0.5588 -1.3490 -0.5096
  308MOL0     H41579  10.520  11.318   8.866  1.7573  0.2757  0.3460
  308MOL0     H41580  10.364  11.240   8.723  1.8036 -0.0988 -0.9126
  309MOL0     O41581   4.156   2.166   3.903 -0.0493  0.0355 -0.1182
  309MOL0     C41582   4.234   2.251   3.935 -0.5321  0.5605  0.4490
  309MOL0     O41583   4.210   2.367   3.998  0.1206 -0.2518  0.7173
  309MOL0     C41584   4.083   2.426   3.989 -0.2856  0.6785  0.1257
  309MOL0     C41585   4.049   2.520   4.086  0.8637 -0.3023  0.3600
  309MOL0     C41586   3.915   2.569   4.094 -0.7584  0.5263  1.0191
  309MOL0     C41587   3.831   2.549   3.990  0.3472 -0.1749 -0.8162
  309MOL0     O41588   3.716   2.622   4.002  0.0108  0.0392 -0.6942
  309MOL0     C41589   3.597   2.553   3.946 -0.5514 -1.1384 -0.3440
  309MOL0     C41590   3.487   2.657   3.941  0.2016  0.5876  0.2882
  309MOL0     C41591   3.350   2.594   3.917  1.0915 -0.9727  0.7831
  309MOL0     C41592   3.252   2.703   3.868 -0.2474  0.9400  0.1152
  309MOL0     C41593   3.112   2.643   3.848  0.5889 -0.2125  0.9685
  309MOL0     C41594   3.021   2.738   3.769  0.4992  0.1427  0.6112
  309MOL0     C41595   2.889   2.670   3.754  0.5775 -0.2345 -0.4189
  309MOL0     C41596   2.784   2.746   3.669  0.5453 -0.2545  0.0982
  309MOL0     N41597   2.802   2.760   3.524  0.2592 -0.9805  0.4748
  309MOL0     C41598   2.865   2.861   3.454 -0.5408  0.3477  0.5152
  309MOL0     C41599   2.875   2.821   3.324 -0.5680 -0.0308  0.0796
  309MOL0     C41600   2.950   2.904   3.222  0.6678 -0.3261  0.2677
  309MOL0     C41601   3.099   2.906   3.232  0.5067  0.1749  0.4120
  309MOL0     C41602   3.178   2.783   3.243  0.5824  0.0231 -0.8995
  309MOL0     C41603   3.195   2.700   3.114 -0.0209 -0.0155  0.4559
  309MOL0     O41604   3.076   2.645   3.074 -0.4211 -0.4709 -0.0381
  309MOL0     C41605   3.055   2.632   2.945 -0.5320  0.1795  1.0363
  309MOL0     C41606   2.923   2.654   2.903  0.0620 -0.8988 -0.9936
  309MOL0     C41607   2.883   2.649   2.775  0.0004  0.4756  0.5162
  309MOL0     C41608   2.728   2.694   2.754 -0.4636 -0.4308 -0.1761
  309MOL0     C41609   2.979   2.611   2.674 -0.2998  0.9315 -0.5576
  309MOL0     C41610   2.950   2.622   2.533 -0.2505 -0.2232 -0.1183
  309MOL0     O41611   2.867   2.537   2.468  0.4586  0.3046  0.2535
  309MOL0     C41612   2.888   2.527   2.334 -0.6331  0.6890 -0.1907
  309MOL0     C41613   2.790   2.557   2.247  0.3663 -0.8977  0.0480
  309MOL0     C41614   2.813   2.558   2.112  0.4603 -0.3888  0.7043
  309MOL0     C41615   2.933   2.508   2.055 -0.0759  0.4997  1.0808
  309MOL0     O41616   2.947   2.497   1.917  0.2433 -0.0809 -0.4075
  309MOL0     C41617   3.072   2.463   1.848  0.5405  0.2621  0.5874
  309MOL0     C41618   3.036   2.478   1.695 -0.3907 -0.9230 -0.6435
  309MOL0     C41619   2.996   2.618   1.645 -0.2386  0.8827 -0.3047
  309MOL0     C41620   2.983   2.640   1.499 -0.4854  0.9911 -0.4830
  309MOL0     C41621   2.987   2.784   1.447  0.2244  0.1488  0.0632
  309MOL0     C41622   2.969   2.771   1.299 -0.0713  0.6883 -0.2067
  309MOL0     C41623   2.818   2.768   1.258  0.1159 -0.1436 -0.1760
  309MOL0     C41624   2.758   2.903   1.233  0.4725  0.3794 -0.2128
  309MOL0    Cl41625   2.579   2.900   1.183  0.0586  0.1227 -0.6586
  309MOL0     C41626   3.032   2.472   2.145 -0.3627 -1.1596  0.2692
  309MOL0     C41627   3.012   2.485   2.278 -0.4747  0.3283 -0.1520
  309MOL0     O41628   3.010   2.715   2.479 -0.1642 -0.5159  0.3403
  309MOL0     C41629   3.110   2.578   2.714 -0.7818  0.0007  0.1891
  309MOL0     C41630   3.147   2.585   2.845  0.0870  0.1915  0.2348
  309MOL0     N41631   2.815   2.693   3.314 -0.0162 -0.3835  0.4178
  309MOL0     N41632   2.763   2.663   3.435  0.1375  1.2111  0.5410
  309MOL0     C41633   3.870   2.475   3.883  0.1269 -0.6627 -0.2693
  309MOL0     C41634   3.993   2.415   3.876  0.0871  0.8145  0.2355
  309MOL0     C41635   4.370   2.242   3.869  1.0361  0.1852  0.4896
  309MOL0     C41636   4.432   2.344   3.812 -0.3211  0.3895  0.1487
  309MOL0     C41637   4.560   2.324   3.755  0.5158 -1.4414  0.3366
  309MOL0     C41638   4.629   2.202   3.755 -0.0854  0.4908  0.2930
  309MOL0     O41639   4.765   2.210   3.713 -0.1257  0.2347 -0.3630
  309MOL0     C41640   4.838   2.087   3.710  0.1238  0.1591 -1.1411
  309MOL0     C41641   4.809   2.000   3.586  0.1284  1.4888  0.1497
  309MOL0     C41642   4.855   1.856   3.610  0.4209  0.0327 -0.7342
  309MOL0     C41643   4.838   1.771   3.484  0.5560 -0.7807 -0.6553
  309MOL0     C41644   4.930   1.660   3.492  0.0020  0.6993 -0.8268
  309MOL0     C41645   5.004   1.560   3.482  0.0796  0.2951  0.8668
  309MOL0     C41646   4.563   2.092   3.815  0.2447 -0.5879  0.3948
  309MOL0     C41647   4.440   2.121   3.870  0.1402  0.1595  0.1960
  309MOL0     H41648   4.128   2.529   4.160  0.4928 -0.2718  0.7602
  309MOL0     H41649   3.899   2.634   4.180 -1.8964  2.0721 -0.3080
  309MOL0     H41650   3.619   2.508   3.848  3.3265 -1.0823  0.3647
  309MOL0     H41651   3.566   2.477   4.018 -0.4085 -2.9725 -2.1060
  309MOL0     H41652   3.476   2.726   4.025 -2.8279 -0.7183  1.1200
  309MOL0     H41653   3.510   2.720   3.854 -0.0617 -0.8849 -0.8928
  309MOL0     H41654   3.350   2.509   3.849  1.2754 -0.9606  0.7670
  309MOL0     H41655   3.315   2.551   4.011 -3.5414  1.2637  0.3703
  309MOL0     H41656   3.240   2.773   3.952 -2.9323  0.5873  0.1318
  309MOL0     H41657   3.287   2.745   3.773  3.3822 -0.5567  0.6311
  309MOL0     H41658   3.125   2.544   3.804  0.7167 -1.0051  2.7161
  309MOL0     H41659   3.059   2.626   3.942 -0.0372  1.3239  0.9400
  309MOL0     H41660   3.017   2.840   3.807  2.3674 -0.2326  1.9671
  309MOL0     H41661   3.065   2.739   3.668  0.6727  2.5129  0.6611
  309MOL0     H41662   2.896   2.578   3.696  1.6819  0.1957 -1.0008
  309MOL0     H41663   2.852   2.643   3.853  1.5123 -0.1169 -0.0231
  309MOL0     H41664   2.795   2.847   3.710 -0.7089  0.0163 -0.1945
  309MOL0     H41665   2.690   2.697   3.698  0.1912  0.9698  1.1114
  309MOL0     H41666   2.902   2.955   3.493 -0.9221  0.8853 -0.3847
  309MOL0     H41667   2.931   2.871   3.120 -2.1874 -0.6442  0.8272
  309MOL0     H41668   2.919   3.008   3.230  2.1595  0.2400 -0.8112
  309MOL0     H41669   3.134   2.972   3.312  0.0832 -0.0214  0.7607
  309MOL0     H41670   3.131   2.957   3.141  1.7141 -0.7285  0.3075
  309MOL0     H41671   3.132   2.722   3.321  1.2993 -0.2592 -0.6908
  309MOL0     H41672   3.273   2.833   3.267 -1.8748  4.0337  1.5488
  309MOL0     H41673   3.258   2.612   3.130  0.0424 -0.7779 -3.1658
  309MOL0     H41674   3.232   2.771   3.040  2.9867 -0.0529  1.7942
  309MOL0     H41675   2.863   2.692   2.986 -1.4584 -3.5373 -0.7780
  309MOL0     H41676   2.671   2.624   2.816  0.7093 -2.2544 -1.0686
  309MOL0     H41677   2.704   2.798   2.780 -1.7457  0.1281 -3.1574
  309MOL0     H41678   2.712   2.685   2.646  0.5419  2.5440 -0.6977
  309MOL0     H41679   2.704   2.591   2.305  2.5776  1.0870  2.4124
  309MOL0     H41680   2.750   2.589   2.030 -0.0254 -2.3405  0.2898
  309MOL0     H41681   3.151   2.534   1.874  2.0883 -1.4182  0.6679
  309MOL0     H41682   3.104   2.360   1.864  3.2020  0.7226 -1.1079
  309MOL0     H41683   3.133   2.448   1.654 -0.0326 -1.1984  0.3733
  309MOL0     H41684   2.967   2.404   1.654 -0.4571 -1.3535  0.2233
  309MOL0     H41685   3.066   2.697   1.675  2.4843 -1.4472 -0.0934
  309MOL0     H41686   2.899   2.643   1.689  0.6820  4.7969 -0.0621
  309MOL0     H41687   3.057   2.583   1.442 -1.1040  2.3479 -2.8134
  309MOL0     H41688   2.887   2.591   1.481 -0.3674  0.7702 -0.5127
  309MOL0     H41689   3.077   2.836   1.481 -1.1932  0.9441  2.9345
  309MOL0     H41690   2.895   2.821   1.493 -0.0440 -2.3939  1.7373
  309MOL0     H41691   3.011   2.859   1.249  0.5930 -1.1311 -3.0725
  309MOL0     H41692   3.019   2.684   1.255  1.5708  0.2293  2.3657
  309MOL0     H41693   2.758   2.721   1.336 -0.1295  0.5065  0.0386
  309MOL0     H41694   2.799   2.715   1.164  1.1361  1.2739 -1.2268
  309MOL0     H41695   2.817   2.955   1.156  4.7004 -1.5931  1.4204
  309MOL0     H41696   2.748   2.969   1.319  1.1454  0.9962 -0.5946
  309MOL0     H41697   3.131   2.446   2.111 -0.1004 -0.1556  0.2419
  309MOL0     H41698   3.086   2.459   2.354 -0.0048  1.4045 -0.2319
  309MOL0     H41699   3.188   2.555   2.642  0.8554  1.6161  1.3237
  309MOL0     H41700   3.251   2.568   2.873 -0.1295  0.1765  1.0470
  309MOL0     H41701   3.797   2.458   3.804  0.0093  1.9882 -0.8409
  309MOL0     H41702   4.021   2.345   3.798 -0.9332  0.5797  0.0711
  309MOL0     H41703   4.379   2.439   3.813 -0.5287  0.2712  0.5430
  309MOL0     H41704   4.608   2.415   3.719 -2.8649  0.5396  0.4824
  309MOL0     H41705   4.945   2.106   3.726 -0.4245  0.3069  3.9780
  309MOL0     H41706   4.818   2.039   3.806  2.7248  1.2542  0.0622
  309MOL0     H41707   4.852   2.043   3.495  0.6769 -0.9638 -0.8258
  309MOL0     H41708   4.700   1.997   3.571  0.1645 -1.9295 -0.1004
  309MOL0     H41709   4.786   1.814   3.685 -1.8611 -0.2045 -2.8355
  309MOL0     H41710   4.961   1.843   3.633  0.5694 -0.0654 -1.4393
  309MOL0     H41711   4.867   1.835   3.400  1.2584 -1.6074 -1.0519
  309MOL0     H41712   4.737   1.736   3.460  1.0399 -2.0374 -0.9652
  309MOL0     H41713   5.073   1.479   3.468  0.0086  0.7390 -3.0922
  309MOL0     H41714   4.611   1.996   3.827 -0.0941 -0.6553  1.2466
  309MOL0     H41715   4.389   2.037   3.914  0.3273  0.5333  1.1694
  310MOL0     O41716   2.265  10.766   3.634 -0.2641 -0.3147 -0.5797
  310MOL0     C41717   2.266  10.664   3.686 -0.5026 -0.3538  0.7663
  310MOL0     O41718   2.364  10.620   3.765  0.2124  0.3064  0.5300
  310MOL0     C41719   2.468  10.700   3.815  0.6785 -0.1361 -0.2823
  310MOL0     C41720   2.488  10.840   3.823 -0.2348  0.1314  0.5856
  310MOL0     C41721   2.598  10.903   3.876  0.1525 -0.2891  0.5361
  310MOL0     C41722   2.706  10.821   3.910  0.6748  0.0368 -0.7645
  310MOL0     O41723   2.830  10.884   3.941  0.9109  0.4169  0.9471
  310MOL0     C41724   2.923  10.825   4.021 -0.1382  0.6477 -0.3993
  310MOL0     C41725   2.996  10.926   4.100  0.2419  0.0977 -0.3043
  310MOL0     C41726   3.065  10.876   4.223 -0.7167  0.1190  0.8588
  310MOL0     C41727   3.203  10.805   4.180  0.5366  0.0982  0.0376
  310MOL0     C41728   3.273  10.721   4.286  0.1640 -0.1747 -0.0626
  310MOL0     C41729   3.386  10.623   4.235  0.2690  0.7222  0.0571
  310MOL0     C41730   3.491  10.702   4.163  0.6602 -0.9363 -0.9790
  310MOL0     C41731   3.627  10.641   4.180 -0.4073  0.0112 -0.7498
  310MOL0     N41732   3.662  10.646   4.319  0.0046 -0.3775 -0.0176
  310MOL0     C41733   3.682  10.759   4.398  0.1282  0.4883 -0.0391
  310MOL0     C41734   3.741  10.718   4.513 -0.3829  0.1668 -0.5453
  310MOL0     C41735   3.788  10.806   4.632  1.2730  0.1690 -0.2662
  310MOL0     C41736   3.933  10.783   4.668 -0.1533 -0.1189 -0.1323
  310MOL0     C41737   4.024  10.869   4.578 -0.2111  0.3685 -0.3273
  310MOL0     C41738   4.171  10.815   4.580 -0.4789 -0.2772 -0.6231
  310MOL0     O41739   4.219  10.861   4.450  0.5760  0.6176 -0.1751
  310MOL0     C41740   4.345  10.815   4.426 -0.8303  0.8050  0.3266
  310MOL0     C41741   4.365  10.680   4.386  0.3279 -0.6932  0.9829
  310MOL0     C41742   4.496  10.641   4.343  0.7309  0.7297 -0.3893
  310MOL0     C41743   4.509  10.502   4.296  0.4640 -0.4658 -0.0602
  310MOL0     C41744   4.608  10.730   4.364 -0.0164 -0.0219  0.4306
  310MOL0     C41745   4.748  10.698   4.343 -0.0657 -0.4810 -1.5018
  310MOL0     O41746   4.835  10.704   4.446  0.3487 -0.3789 -0.2023
  310MOL0     C41747   4.952  10.636   4.448  1.2788  0.1123 -0.5954
  310MOL0     C41748   5.051  10.680   4.551  0.4046 -0.1670  0.6533
  310MOL0     C41749   5.178  10.627   4.573  0.5747  0.2678 -0.1884
  310MOL0     C41750   5.218  10.526   4.487 -0.9984  1.0188 -0.8787
  310MOL0     O41751   5.350  10.484   4.508 -0.0624 -0.2848  0.8932
  310MOL0     C41752   5.435  10.479   4.395  0.0824  0.2533  0.9087
  310MOL0     C41753   5.555  10.388   4.429 -0.4651 -0.4204  0.1219
  310MOL0     C41754   5.617  10.326   4.306 -0.2181  0.6379 -0.3184
  310MOL0     C41755   5.754  10.384   4.279 -0.7329  0.0676  0.6018
  310MOL0     C41756   5.836  10.312   4.172  0.9680 -0.4634 -0.4691
  310MOL0     C41757   5.934  10.413   4.106  0.4355 -0.5368 -0.6108
  310MOL0     C41758   6.033  10.353   4.003 -0.5539 -0.2108  0.4533
  310MOL0     C41759   6.165  10.288   4.055 -0.2416  0.6247  0.7237
  310MOL0    Cl41760   6.125  10.129   4.118 -0.1556  0.1029 -0.1104
  310MOL0     C41761   5.130  10.475   4.391 -0.5920 -0.6428  0.2582
  310MOL0     C41762   5.007  10.534   4.365 -0.0491 -0.9336 -0.6951
  310MOL0     O41763   4.777  10.664   4.232  0.1558  0.0165 -0.0026
  310MOL0     C41764   4.586  10.866   4.409  0.7031  0.9945  0.0861
  310MOL0     C41765   4.455  10.904   4.430  0.3209 -0.4130 -0.7129
  310MOL0     N41766   3.745  10.581   4.499  0.0645 -0.4947  0.8197
  310MOL0     N41767   3.693  10.543   4.391 -0.1206 -0.0126 -0.0986
  310MOL0     C41768   2.684  10.685   3.921  0.7130 -0.4668 -0.6415
  310MOL0     C41769   2.570  10.628   3.863 -0.6790  0.4109 -0.0626
  310MOL0     C41770   2.150  10.571   3.662 -0.0110  0.1433 -0.0593
  310MOL0     C41771   2.152  10.439   3.713 -0.2698 -0.7479 -0.2888
  310MOL0     C41772   2.042  10.358   3.696  0.2460  1.1998  0.1930
  310MOL0     C41773   1.929  10.388   3.619 -0.0267  0.2530 -0.2673
  310MOL0     O41774   1.827  10.293   3.615  0.6388 -0.8149 -0.2833
  310MOL0     C41775   1.689  10.345   3.622  1.0770  0.2888  0.7402
  310MOL0     C41776   1.600  10.218   3.624 -0.5007 -1.3856  0.0783
  310MOL0     C41777   1.451  10.264   3.645 -0.3155 -0.0924 -0.1471
  310MOL0     C41778   1.348  10.153   3.614 -0.4068  0.1762 -0.0700
  310MOL0     C41779   1.207  10.206   3.635 -0.2948  0.9664  0.5927
  310MOL0     C41780   1.102  10.259   3.645 -0.4394 -1.6126 -0.0773
  310MOL0     C41781   1.932  10.511   3.549  0.0994 -0.2991 -0.9218
  310MOL0     C41782   2.041  10.600   3.577  0.1683 -0.1713 -0.6801
  310MOL0     H41783   2.413  10.903   3.777  1.7641  1.1359 -1.5141
  310MOL0     H41784   2.614  11.011   3.880 -0.1519 -0.1434 -1.3396
  310MOL0     H41785   2.866  10.777   4.102  2.4123 -1.5434  0.2338
  310MOL0     H41786   2.991  10.756   3.970 -0.8651 -1.5712  1.4282
  310MOL0     H41787   3.068  10.987   4.045  2.0515  0.7824  2.6257
  310MOL0     H41788   2.923  10.994   4.145  1.2741  1.4970 -0.6757
  310MOL0     H41789   3.087  10.954   4.297  2.5033 -0.9781  1.2175
  310MOL0     H41790   3.002  10.795   4.262 -0.8296  1.0657  2.7718
  310MOL0     H41791   3.186  10.752   4.085 -1.2906 -0.9316  0.8891
  310MOL0     H41792   3.266  10.889   4.147  3.6749 -2.8266 -2.1456
  310MOL0     H41793   3.324  10.790   4.354 -1.4231 -0.0123  0.9836
  310MOL0     H41794   3.189  10.666   4.328  1.1440 -0.8684  1.0582
  310MOL0     H41795   3.424  10.572   4.324 -1.6189 -1.9273 -0.5148
  310MOL0     H41796   3.341  10.544   4.173  0.3922  0.5187  0.2263
  310MOL0     H41797   3.457  10.705   4.059 -0.6738  1.1537 -0.5523
  310MOL0     H41798   3.492  10.807   4.193 -1.1402 -1.2229  0.2641
  310MOL0     H41799   3.702  10.694   4.120 -0.2328  1.5071  0.7169
  310MOL0     H41800   3.615  10.541   4.137 -2.1612  0.9950 -2.7680
  310MOL0     H41801   3.657  10.861   4.371  1.8220  1.2366  1.0519
  310MOL0     H41802   3.775  10.909   4.598 -1.4148  0.7745  2.1630
  310MOL0     H41803   3.720  10.802   4.718 -0.5504 -1.7461 -1.6985
  310MOL0     H41804   3.942  10.675   4.652 -0.3410 -0.1574  0.0172
  310MOL0     H41805   3.932  10.805   4.775 -1.4397  3.0924 -0.6883
  310MOL0     H41806   4.005  10.973   4.608 -2.0256  0.0815 -0.3807
  310MOL0     H41807   3.980  10.857   4.478  0.1786  2.1164 -0.7529
  310MOL0     H41808   4.167  10.705   4.582  0.6505 -0.3356  1.2393
  310MOL0     H41809   4.222  10.857   4.668 -1.2428  0.7681 -0.6631
  310MOL0     H41810   4.282  10.614   4.364  0.9121 -0.5371 -2.0796
  310MOL0     H41811   4.613  10.473   4.279  1.1093  1.2370  0.8328
  310MOL0     H41812   4.482  10.430   4.374 -0.7184 -3.8313 -3.2261
  310MOL0     H41813   4.442  10.479   4.212 -0.1735 -0.5974  0.4832
  310MOL0     H41814   5.018  10.762   4.613 -2.4469 -0.6231 -0.1320
  310MOL0     H41815   5.242  10.679   4.644  2.3268 -0.2431 -1.3281
  310MOL0     H41816   5.378  10.443   4.309  3.0946  0.0081 -1.1493
  310MOL0     H41817   5.478  10.573   4.360  0.2750  0.0495  0.5963
  310MOL0     H41818   5.622  10.449   4.491 -1.5577 -0.3792  1.3099
  310MOL0     H41819   5.525  10.303   4.491 -0.5628  1.2505  2.5324
  310MOL0     H41820   5.556  10.338   4.216  1.3074 -1.2242 -1.6688
  310MOL0     H41821   5.628  10.218   4.318  0.3969  0.7175 -0.1574
  310MOL0     H41822   5.727  10.478   4.230  0.0051 -0.6727 -1.3057
  310MOL0     H41823   5.813  10.397   4.370  2.1597 -1.7164 -0.8877
  310MOL0     H41824   5.776  10.286   4.084  1.5217  2.5581 -1.8527
  310MOL0     H41825   5.893  10.226   4.210 -1.9263 -1.7768  1.1803
  310MOL0     H41826   5.880  10.495   4.058  0.0525 -1.1055 -1.1786
  310MOL0     H41827   5.999  10.454   4.184  1.7919 -1.7035 -1.0953
  310MOL0     H41828   6.061  10.438   3.939 -1.2033 -0.3794 -0.0660
  310MOL0     H41829   5.976  10.279   3.946 -1.1206 -1.9248  3.0791
  310MOL0     H41830   6.222  10.345   4.128  0.8139 -0.4851  0.7864
  310MOL0     H41831   6.234  10.273   3.972 -0.8662 -1.0773  0.4667
  310MOL0     H41832   5.175  10.405   4.322  0.7104  2.7426 -2.6679
  310MOL0     H41833   4.961  10.515   4.269  1.3301  0.9178 -1.7913
  310MOL0     H41834   4.673  10.930   4.411  1.8289 -0.4670 -0.8708
  310MOL0     H41835   4.421  11.001   4.464 -1.6547 -1.0288 -0.7878
  310MOL0     H41836   2.760  10.616   3.959  0.2879  1.6130  4.9185
  310MOL0     H41837   2.557  10.521   3.870  0.4313  0.3556  1.7019
  310MOL0     H41838   2.233  10.406   3.776  0.6474  0.3595 -0.8518
  310MOL0     H41839   2.051  10.257   3.736 -2.0799  0.4669 -0.9869
  310MOL0     H41840   1.656  10.398   3.712 -0.0272 -4.2657  3.3161
  310MOL0     H41841   1.665  10.405   3.533  2.4843 -0.4242 -0.1607
  310MOL0     H41842   1.630  10.166   3.716  1.9301 -1.3918 -0.6375
  310MOL0     H41843   1.615  10.159   3.533  0.5547 -1.8284  0.5249
  310MOL0     H41844   1.437  10.354   3.585  0.3823 -0.8630 -1.5029
  310MOL0     H41845   1.433  10.292   3.750  0.1725  3.5080 -0.8883
  310MOL0     H41846   1.364  10.082   3.695 -2.1831  0.6999  0.8005
  310MOL0     H41847   1.365  10.107   3.516  0.8129  2.6120 -1.0915
  310MOL0     H41848   1.009  10.305   3.671  0.1828  1.1138 -2.2743
  310MOL0     H41849   1.855  10.529   3.474 -2.7547 -1.9337  1.4070
  310MOL0     H41850   2.027  10.691   3.519 -1.0832 -0.9504 -1.6471
  311MOL0     O41851   9.789   5.604   0.558 -0.8190 -0.4695 -0.0870
  311MOL0     C41852   9.871   5.698   0.551  0.9005 -0.1807  0.4708
  311MOL0     O41853   9.996   5.689   0.504  0.2986  0.4392 -0.5527
  311MOL0     C41854  10.034   5.575   0.441 -0.8354 -0.1084  0.4071
  311MOL0     C41855   9.964   5.521   0.332 -0.7535 -0.5876  0.7651
  311MOL0     C41856  10.031   5.413   0.261  0.4907  0.4432 -0.1548
  311MOL0     C41857  10.158   5.371   0.297  0.6344  0.3252  0.0211
  311MOL0     O41858  10.227   5.280   0.226  0.6634  0.5167  0.3249
  311MOL0     C41859  10.169   5.214   0.110 -0.2190  0.3755 -0.3957
  311MOL0     C41860  10.281   5.126   0.049  0.4763  0.2480 -0.1013
  311MOL0     C41861  10.238   5.043  -0.072  0.0935  0.7817  0.3156
  311MOL0     C41862  10.181   5.144  -0.175  0.0898  0.1415 -0.2615
  311MOL0     C41863  10.165   5.051  -0.299  1.0716 -1.2055 -0.0130
  311MOL0     C41864  10.099   5.149  -0.401 -0.0738 -0.1807 -0.8963
  311MOL0     C41865  10.129   5.096  -0.541  0.2242  0.5183 -0.4677
  311MOL0     C41866  10.042   5.147  -0.651 -0.2720  1.1910  0.9761
  311MOL0     N41867   9.895   5.138  -0.627  0.6627  0.1966  0.1533
  311MOL0     C41868   9.819   5.020  -0.624  0.1006  0.2157 -0.6667
  311MOL0     C41869   9.718   5.052  -0.540 -0.7188  1.0274  0.9696
  311MOL0     C41870   9.610   4.961  -0.496 -0.2643 -0.3774  0.7822
  311MOL0     C41871   9.667   4.905  -0.361  0.6416  0.3996 -1.2376
  311MOL0     C41872   9.787   4.804  -0.362 -1.3278  0.3760  0.3077
  311MOL0     C41873   9.749   4.658  -0.381  0.6315 -1.2226  0.4874
  311MOL0     O41874   9.656   4.659  -0.488  0.3793  0.3843  0.1463
  311MOL0     C41875   9.647   4.545  -0.562  0.4897  0.1398  0.5785
  311MOL0     C41876   9.569   4.545  -0.678  0.1141 -0.2390 -0.2771
  311MOL0     C41877   9.545   4.436  -0.759  0.3099  0.0483 -0.3577
  311MOL0     C41878   9.466   4.458  -0.886  0.4937  0.1040  0.6777
  311MOL0     C41879   9.580   4.311  -0.718  0.7358 -0.4129  0.0644
  311MOL0     C41880   9.559   4.181  -0.800 -0.0638  0.4233 -1.0508
  311MOL0     O41881   9.435   4.143  -0.856 -0.5796 -0.7454 -0.1127
  311MOL0     C41882   9.430   4.020  -0.912  0.1048 -1.1486 -0.3815
  311MOL0     C41883   9.512   3.985  -1.022 -0.3429  0.7785 -0.3104
  311MOL0     C41884   9.497   3.855  -1.079 -0.1194 -0.0114  0.5036
  311MOL0     C41885   9.395   3.767  -1.043 -0.1671  0.6318  0.2222
  311MOL0     O41886   9.368   3.637  -1.101  0.1463 -0.4163 -0.1694
  311MOL0     C41887   9.233   3.596  -1.142 -0.0930 -0.7659  0.7031
  311MOL0     C41888   9.231   3.465  -1.223  0.0906 -0.1306  0.2882
  311MOL0     C41889   9.328   3.461  -1.339  0.7196 -0.3966 -0.0895
  311MOL0     C41890   9.267   3.537  -1.457  0.3013 -0.5033 -0.5134
  311MOL0     C41891   9.358   3.535  -1.585  0.2003  0.1065  0.6208
  311MOL0     C41892   9.370   3.394  -1.656  0.4249 -0.7026 -0.0398
  311MOL0     C41893   9.240   3.322  -1.699 -0.1520 -0.5387  0.1052
  311MOL0     C41894   9.252   3.175  -1.748 -0.6833  0.0116 -0.7410
  311MOL0    Cl41895   9.370   3.176  -1.888  0.0986 -0.1659  0.0571
  311MOL0     C41896   9.316   3.811  -0.948  0.9472  0.3914 -0.6805
  311MOL0     C41897   9.333   3.930  -0.877  0.7916 -0.1239 -0.8656
  311MOL0     O41898   9.664   4.110  -0.787  0.7622  0.0278  0.3982
  311MOL0     C41899   9.650   4.302  -0.596 -0.4199  0.3767 -0.1481
  311MOL0     C41900   9.679   4.417  -0.519 -0.1221 -0.0565 -0.6954
  311MOL0     N41901   9.720   5.179  -0.499  0.2825 -0.8003  0.0728
  311MOL0     N41902   9.818   5.227  -0.560 -0.0369  0.6639 -0.5460
  311MOL0     C41903  10.229   5.428   0.399  0.3771 -0.3480 -0.4621
  311MOL0     C41904  10.165   5.527   0.467 -0.6646 -0.2867  0.8928
  311MOL0     C41905   9.822   5.834   0.604 -0.6943 -0.3981 -0.3686
  311MOL0     C41906   9.690   5.873   0.595 -0.0615  0.9196 -0.5904
  311MOL0     C41907   9.650   6.001   0.616 -1.0104  1.1204  0.8136
  311MOL0     C41908   9.751   6.100   0.659 -0.6304  0.9859  0.0937
  311MOL0     O41909   9.727   6.224   0.696  0.1862 -0.1106 -0.2806
  311MOL0     C41910   9.622   6.294   0.631  0.0968 -0.1616  0.2103
  311MOL0     C41911   9.580   6.431   0.705  0.2434 -0.5779  0.8546
  311MOL0     C41912   9.676   6.553   0.706 -0.9437  0.5058  0.3303
  311MOL0     C41913   9.803   6.523   0.778 -0.0608 -0.9446  0.5973
  311MOL0     C41914   9.903   6.627   0.782 -1.0836 -0.0300  0.5357
  311MOL0     C41915  10.009   6.691   0.783  0.2356 -0.6167 -0.2560
  311MOL0     C41916   9.879   6.052   0.670 -0.0203  0.0707  0.1523
  311MOL0     C41917   9.922   5.923   0.646  0.1377 -0.5920  0.5767
  311MOL0     H41918   9.866   5.544   0.293 -0.8129 -0.4213  1.0113
  311MOL0     H41919   9.978   5.375   0.174 -1.4377  0.4294  0.9648
  311MOL0     H41920  10.099   5.141   0.152 -1.1556  0.3035 -1.9948
  311MOL0     H41921  10.123   5.285   0.041  1.0116  1.1152 -0.4777
  311MOL0     H41922  10.367   5.191   0.034 -0.4911  1.3872 -0.9204
  311MOL0     H41923  10.304   5.059   0.133 -0.9999  1.4305  1.3184
  311MOL0     H41924  10.324   4.984  -0.105 -1.5878  0.1351 -3.4941
  311MOL0     H41925  10.168   4.967  -0.036  2.1310 -0.8341  1.0625
  311MOL0     H41926  10.083   5.169  -0.134 -0.0504  0.8495 -1.0049
  311MOL0     H41927  10.248   5.228  -0.194  1.6418 -0.5999  1.6116
  311MOL0     H41928  10.266   5.026  -0.334  0.8216 -1.2315 -0.7348
  311MOL0     H41929  10.110   4.956  -0.297  2.3786 -1.9862 -0.0037
  311MOL0     H41930   9.992   5.149  -0.377  0.3009  0.9975  1.1168
  311MOL0     H41931  10.147   5.247  -0.394 -3.8901  1.8067  0.9363
  311MOL0     H41932  10.231   5.128  -0.567 -0.1779 -0.5064 -3.7930
  311MOL0     H41933  10.127   4.987  -0.530 -0.3143  0.7904  3.2597
  311MOL0     H41934  10.058   5.098  -0.747 -1.5416  0.6383  1.0327
  311MOL0     H41935  10.068   5.253  -0.666 -2.1162  1.6371  0.6590
  311MOL0     H41936   9.838   4.920  -0.661 -1.7684 -0.2104 -0.5168
  311MOL0     H41937   9.522   5.023  -0.476  1.3442  1.1440  3.9392
  311MOL0     H41938   9.584   4.881  -0.566 -1.2456  0.3574  0.2783
  311MOL0     H41939   9.586   4.856  -0.305  0.9988  0.8051 -0.3344
  311MOL0     H41940   9.694   4.991  -0.298  1.7057 -1.7039  1.3639
  311MOL0     H41941   9.835   4.802  -0.263  2.6652  0.3583 -1.4384
  311MOL0     H41942   9.861   4.824  -0.440 -0.1911  3.0679  1.9324
  311MOL0     H41943   9.700   4.614  -0.294 -2.5882  0.1078 -0.5079
  311MOL0     H41944   9.840   4.600  -0.397  0.0094 -2.3604  0.9727
  311MOL0     H41945   9.548   4.648  -0.706  0.8604 -0.2053 -0.7422
  311MOL0     H41946   9.532   4.458  -0.973  0.3922 -3.5599  0.4048
  311MOL0     H41947   9.383   4.388  -0.904  1.2226 -0.7862  0.7160
  311MOL0     H41948   9.413   4.553  -0.882  0.8239  0.2426  2.7912
  311MOL0     H41949   9.588   4.052  -1.062 -0.0277  2.6694  3.0660
  311MOL0     H41950   9.561   3.824  -1.162 -1.1542 -0.1831 -0.2609
  311MOL0     H41951   9.160   3.588  -1.060 -2.7068 -0.3229 -1.4497
  311MOL0     H41952   9.194   3.676  -1.205  1.1147  1.8565  3.0531
  311MOL0     H41953   9.252   3.379  -1.158  0.1613 -0.5175 -0.2402
  311MOL0     H41954   9.125   3.455  -1.249  0.3203  0.0412 -0.7655
  311MOL0     H41955   9.350   3.357  -1.368 -0.1266 -0.9086  1.0455
  311MOL0     H41956   9.424   3.508  -1.317  1.4387 -1.5593 -0.6310
  311MOL0     H41957   9.163   3.506  -1.473 -0.6141  0.9600  2.0394
  311MOL0     H41958   9.255   3.640  -1.422 -2.2198  0.1333 -2.8705
  311MOL0     H41959   9.459   3.572  -1.566  1.3152 -2.7290  0.7231
  311MOL0     H41960   9.318   3.611  -1.652  0.5827  0.5003  0.8350
  311MOL0     H41961   9.426   3.411  -1.749  0.4219 -1.7622 -0.2509
  311MOL0     H41962   9.432   3.327  -1.596  3.2468 -0.2764 -2.2554
  311MOL0     H41963   9.189   3.385  -1.773 -1.0484  0.3077  1.4057
  311MOL0     H41964   9.163   3.335  -1.623 -0.3718  1.6669 -0.4214
  311MOL0     H41965   9.151   3.138  -1.768 -1.6667  0.8821  2.1243
  311MOL0     H41966   9.290   3.108  -1.670  2.3857 -0.1910 -2.2503
  311MOL0     H41967   9.229   3.758  -0.912  1.2935 -1.0759 -1.9250
  311MOL0     H41968   9.255   3.963  -0.810 -0.9472  0.2074 -2.9432
  311MOL0     H41969   9.682   4.206  -0.556 -0.0477  1.3502  2.0196
  311MOL0     H41970   9.743   4.407  -0.432  1.3128 -0.0219 -1.7067
  311MOL0     H41971  10.334   5.405   0.416  1.3669  3.4400 -0.5430
  311MOL0     H41972  10.224   5.560   0.553  1.0382 -2.1091  0.4987
  311MOL0     H41973   9.613   5.803   0.565 -1.7442  2.6901 -0.6017
  311MOL0     H41974   9.543   6.022   0.618 -1.8180 -2.0155 -1.6117
  311MOL0     H41975   9.661   6.304   0.530  2.6738  1.9474  1.2766
  311MOL0     H41976   9.528   6.239   0.625  0.1626 -0.1459 -1.3588
  311MOL0     H41977   9.540   6.409   0.804 -1.3826  0.6236  0.4914
  311MOL0     H41978   9.493   6.464   0.648  0.9257  1.0963  0.7079
  311MOL0     H41979   9.635   6.647   0.743 -0.8899  0.0656  1.5696
  311MOL0     H41980   9.711   6.557   0.602  0.6337  3.5257  0.8700
  311MOL0     H41981   9.857   6.434   0.744  1.3853 -0.8000  2.3521
  311MOL0     H41982   9.774   6.510   0.883 -0.4436  1.2634  0.8075
  311MOL0     H41983  10.087   6.764   0.785  1.1903 -1.5375 -1.7002
  311MOL0     H41984   9.952   6.128   0.697 -2.1046  1.5512  2.0551
  311MOL0     H41985  10.024   5.895   0.624 -0.0260 -2.2102  1.7235
  312MOL0     O41986   9.689   6.821   7.560  0.0024 -0.5883  0.5408
  312MOL0     C41987   9.780   6.826   7.641 -0.8444 -0.7758 -0.5539
  312MOL0     O41988   9.773   6.891   7.764  0.7720  0.1174 -0.3483
  312MOL0     C41989   9.651   6.943   7.808 -0.6792  0.2016  0.8015
  312MOL0     C41990   9.659   7.045   7.897 -0.5282 -0.2904  0.0018
  312MOL0     C41991   9.550   7.108   7.951  0.6248 -0.2217 -0.3471
  312MOL0     C41992   9.424   7.063   7.932  1.1823 -0.1122  0.7554
  312MOL0     O41993   9.315   7.125   7.990  0.0471  0.4743  0.9072
  312MOL0     C41994   9.218   7.043   8.046  0.4650  0.9593 -0.3088
  312MOL0     C41995   9.113   7.132   8.110  0.0078 -0.0007 -0.1258
  312MOL0     C41996   9.176   7.214   8.226  0.5224 -0.5365 -0.3590
  312MOL0     C41997   9.169   7.130   8.356  0.7065 -0.0159  0.1191
  312MOL0     C41998   9.246   7.189   8.469  0.1691 -0.4064 -0.3393
  312MOL0     C41999   9.270   7.078   8.570  0.1313  0.9072  0.7328
  312MOL0     C42000   9.326   7.130   8.700 -0.1112 -1.2765 -1.1001
  312MOL0     C42001   9.476   7.132   8.686  0.9270 -1.1331  0.1042
  312MOL0     N42002   9.525   7.184   8.812  0.3002 -0.2044  0.2419
  312MOL0     C42003   9.578   7.303   8.840  0.5399  0.3333 -0.7546
  312MOL0     C42004   9.622   7.292   8.966  0.1288  0.8587 -0.4161
  312MOL0     C42005   9.691   7.397   9.056  0.2513  0.5173 -0.3849
  312MOL0     C42006   9.851   7.385   9.047  0.4731  0.1379 -1.1258
  312MOL0     C42007   9.907   7.505   9.125 -0.4128 -0.4731 -0.0215
  312MOL0     C42008   9.943   7.488   9.273  0.1922  0.6713  0.4854
  312MOL0     O42009   9.996   7.613   9.326 -0.8556  0.1498  0.4084
  312MOL0     C42010   9.965   7.643   9.455  0.2952  0.1810  0.0269
  312MOL0     C42011   9.928   7.772   9.477 -0.4018 -0.4710 -0.0932
  312MOL0     C42012   9.886   7.817   9.600  0.2332 -0.1568 -1.3520
  312MOL0     C42013   9.844   7.969   9.603  0.0688  0.0312 -0.5666
  312MOL0     C42014   9.878   7.737   9.717  0.7514  0.5321  0.0381
  312MOL0     C42015   9.831   7.778   9.853 -0.3523  0.3489 -0.0970
  312MOL0     O42016   9.814   7.905   9.886  1.0636  0.2079  0.1436
  312MOL0     C42017   9.741   7.939   9.999 -0.1671  0.5120 -0.4348
  312MOL0     C42018   9.807   7.994  10.113 -0.3478  0.4937  0.3598
  312MOL0     C42019   9.730   8.021  10.222  0.0285  0.8014 -0.5764
  312MOL0     C42020   9.592   8.023  10.215  0.5098 -0.1423  0.7924
  312MOL0     O42021   9.520   8.059  10.324  0.5918 -0.0665  0.6240
  312MOL0     C42022   9.416   8.160  10.305  0.1931 -0.5381 -0.1949
  312MOL0     C42023   9.401   8.253  10.428  0.4955 -0.2684  0.7987
  312MOL0     C42024   9.529   8.319  10.471 -0.4959 -0.7909  0.2844
  312MOL0     C42025   9.577   8.275  10.605 -0.1739  0.3997  0.7483
  312MOL0     C42026   9.716   8.304  10.649 -0.7092  0.8426  0.3066
  312MOL0     C42027   9.832   8.233  10.573  0.0901  0.7071 -0.3276
  312MOL0     C42028   9.975   8.288  10.627 -0.2416 -0.8587  0.8579
  312MOL0     C42029  10.093   8.226  10.555 -0.2218  0.8829  0.3887
  312MOL0    Cl42030  10.092   8.270  10.391  0.3117  0.2116  0.2673
  312MOL0     C42031   9.528   7.985  10.100  0.3806  0.4880 -0.3079
  312MOL0     C42032   9.602   7.934   9.992 -0.5809  0.5577  0.8987
  312MOL0     O42033   9.792   7.683   9.916 -0.3270 -0.0879  0.1206
  312MOL0     C42034   9.920   7.595   9.692  0.4515 -0.3336 -0.1546
  312MOL0     C42035   9.963   7.559   9.563 -0.2498  0.2944  0.0714
  312MOL0     N42036   9.589   7.160   9.010  0.1344 -0.4226 -0.9764
  312MOL0     N42037   9.537   7.099   8.922 -0.5799  0.7779  0.1133
  312MOL0     C42038   9.415   6.940   7.860  0.9187 -0.2582 -0.4924
  312MOL0     C42039   9.527   6.886   7.789 -0.5708 -0.1404 -0.1965
  312MOL0     C42040   9.904   6.755   7.609  0.1112 -0.4473  0.9725
  312MOL0     C42041  10.033   6.762   7.670  0.2281  0.6895  0.6783
  312MOL0     C42042  10.142   6.686   7.617  0.1666 -0.3262 -0.4698
  312MOL0     C42043  10.126   6.592   7.516 -0.2314  0.2445 -0.0900
  312MOL0     O42044  10.237   6.526   7.463  0.0721  0.7157 -0.0045
  312MOL0     C42045  10.232   6.433   7.353 -0.0615 -0.9615 -0.0180
  312MOL0     C42046  10.361   6.349   7.385  0.1825 -0.3039  0.7589
  312MOL0     C42047  10.496   6.425   7.346  0.0177  0.0751 -0.1175
  312MOL0     C42048  10.560   6.515   7.455 -0.7664  0.3128 -0.1122
  312MOL0     C42049  10.649   6.617   7.400  0.7072 -0.7845  0.2732
  312MOL0     C42050  10.718   6.710   7.350  1.1829 -0.5411  0.4732
  312MOL0     C42051  10.003   6.586   7.456  0.0235  0.8061  0.5159
  312MOL0     C42052   9.894   6.659   7.503 -0.2126  0.2221  0.1527
  312MOL0     H42053   9.755   7.092   7.920 -0.8328  0.2490  0.1934
  312MOL0     H42054   9.552   7.199   8.011  1.7742 -0.2786 -0.2813
  312MOL0     H42055   9.175   6.990   7.960  0.5206 -0.6308  0.6065
  312MOL0     H42056   9.253   6.972   8.121  2.6675  1.3725 -0.8799
  312MOL0     H42057   9.059   7.204   8.048 -0.2584  1.6666  1.9470
  312MOL0     H42058   9.035   7.066   8.149  1.6482 -2.2912 -0.5534
  312MOL0     H42059   9.283   7.235   8.214  0.5721  0.0620  0.9392
  312MOL0     H42060   9.125   7.309   8.244  3.1955  1.1451 -1.1060
  312MOL0     H42061   9.071   7.091   8.382  0.6241  0.5765  0.7314
  312MOL0     H42062   9.234   7.047   8.327  1.1857  0.5352 -0.4237
  312MOL0     H42063   9.343   7.229   8.437 -0.2278  1.2272  0.3501
  312MOL0     H42064   9.189   7.269   8.517 -1.4793 -1.6699 -0.1206
  312MOL0     H42065   9.181   7.018   8.590  1.1927 -0.2316  2.2252
  312MOL0     H42066   9.339   7.012   8.516 -1.1805  0.6171 -0.6386
  312MOL0     H42067   9.294   7.234   8.716 -1.6728 -1.9188  0.0959
  312MOL0     H42068   9.280   7.073   8.780 -1.2919  1.3075  0.1731
  312MOL0     H42069   9.495   7.206   8.608  0.2151 -2.5231 -1.4533
  312MOL0     H42070   9.518   7.040   8.645 -2.9933 -1.7535 -3.0712
  312MOL0     H42071   9.590   7.389   8.776 -2.1727 -0.5129 -2.5454
  312MOL0     H42072   9.658   7.493   9.016  0.0669  0.1409 -1.1479
  312MOL0     H42073   9.654   7.379   9.157 -2.6418  3.2039 -0.8297
  312MOL0     H42074   9.894   7.388   8.946  1.3892 -0.9474 -0.7883
  312MOL0     H42075   9.890   7.299   9.102 -2.0893 -0.5881 -0.2758
  312MOL0     H42076   9.845   7.594   9.111  2.3181  1.1886 -2.7352
  312MOL0     H42077  10.003   7.527   9.078  0.1109  1.6806  1.8872
  312MOL0     H42078  10.023   7.414   9.284 -0.5709 -0.1058  0.9593
  312MOL0     H42079   9.859   7.451   9.332 -0.7481  3.4126  1.0001
  312MOL0     H42080   9.928   7.846   9.397  1.2592  0.9613  1.1563
  312MOL0     H42081   9.845   8.012   9.502 -4.2491  0.7534 -0.5093
  312MOL0     H42082   9.745   8.008   9.627  1.2153  2.5880  0.2919
  312MOL0     H42083   9.911   8.024   9.669 -1.3454  0.9080  0.1686
  312MOL0     H42084   9.914   8.008  10.095 -0.3308 -0.7460 -0.6738
  312MOL0     H42085   9.766   8.038  10.323 -2.9356 -1.8788  1.1400
  312MOL0     H42086   9.458   8.222  10.225  1.3097 -1.8630 -0.6639
  312MOL0     H42087   9.322   8.117  10.268  0.8698 -0.3455 -2.2884
  312MOL0     H42088   9.331   8.328  10.389 -0.9167 -0.6571  2.4382
  312MOL0     H42089   9.335   8.210  10.505 -2.0727  0.9081 -0.5935
  312MOL0     H42090   9.518   8.427  10.453  1.7169 -0.4545  0.6629
  312MOL0     H42091   9.614   8.291  10.409  1.6478  4.9543  0.0219
  312MOL0     H42092   9.511   8.332  10.672 -0.3731  2.6697 -1.2539
  312MOL0     H42093   9.573   8.166  10.608  3.8694 -0.0930 -2.9986
  312MOL0     H42094   9.725   8.270  10.753  2.1646 -4.1858 -1.2048
  312MOL0     H42095   9.730   8.410  10.627  0.8354  0.2696 -1.9463
  312MOL0     H42096   9.835   8.125  10.591  1.0767  0.0393 -3.7912
  312MOL0     H42097   9.813   8.236  10.465 -0.5012  3.1047 -0.1995
  312MOL0     H42098   9.986   8.253  10.729 -0.4225 -3.5772  0.0079
  312MOL0     H42099   9.990   8.397  10.625  2.0912 -1.1456  0.4011
  312MOL0     H42100  10.096   8.117  10.545  4.8852  0.9977 -3.1343
  312MOL0     H42101  10.183   8.257  10.608 -1.7386  0.7271  3.2697
  312MOL0     H42102   9.420   7.979  10.101  0.4165 -0.3054  0.5175
  312MOL0     H42103   9.574   7.898   9.894  0.2411  1.4257  0.3289
  312MOL0     H42104   9.949   7.515   9.760  5.1327 -1.1097 -2.5777
  312MOL0     H42105  10.017   7.471   9.529  1.6975  2.0838 -1.8404
  312MOL0     H42106   9.313   6.906   7.843 -0.8385  3.1064  1.9960
  312MOL0     H42107   9.516   6.798   7.726  1.9010 -0.7534  0.1163
  312MOL0     H42108  10.067   6.816   7.758  0.8714  0.2834  0.6918
  312MOL0     H42109  10.241   6.696   7.661 -0.3583  1.8143  0.3513
  312MOL0     H42110  10.147   6.365   7.362 -2.0258  1.2805 -0.4399
  312MOL0     H42111  10.243   6.488   7.259 -1.8461 -1.5853 -0.6299
  312MOL0     H42112  10.364   6.259   7.323  0.0725 -2.1562  3.2617
  312MOL0     H42113  10.363   6.311   7.488  0.1666 -1.1935  0.4366
  312MOL0     H42114  10.483   6.476   7.250  1.3783  0.9305  0.1165
  312MOL0     H42115  10.568   6.348   7.314  0.2614 -0.0924  0.7984
  312MOL0     H42116  10.626   6.449   7.512  3.7116  2.4571 -2.2720
  312MOL0     H42117  10.480   6.549   7.521 -0.4568 -0.9741  0.9577
  312MOL0     H42118  10.782   6.781   7.304 -1.8849  1.6435 -0.7567
  312MOL0     H42119   9.998   6.527   7.365  0.6981 -0.4108  1.2322
  312MOL0     H42120   9.812   6.623   7.442  2.5740 -3.4580 -1.8646
  313MOL0     O42121   2.045   5.481   5.482  0.1696 -0.2389 -0.1429
  313MOL0     C42122   2.085   5.527   5.376 -0.4376 -0.2799 -0.4920
  313MOL0     O42123   2.012   5.534   5.263  0.0114  0.3856 -0.8126
  313MOL0     C42124   1.893   5.457   5.260 -0.3982  0.4496 -0.1019
  313MOL0     C42125   1.781   5.523   5.223 -0.7803 -0.6826  1.1979
  313MOL0     C42126   1.657   5.457   5.225 -0.1930  0.0192  0.1541
  313MOL0     C42127   1.647   5.320   5.257 -0.1286  0.1580  0.5333
  313MOL0     O42128   1.524   5.259   5.241  0.4784 -0.2841  0.1273
  313MOL0     C42129   1.464   5.196   5.350  0.2893 -0.2455 -1.0124
  313MOL0     C42130   1.309   5.225   5.348  0.0728 -0.5136  0.0235
  313MOL0     C42131   1.227   5.195   5.471 -0.5247 -0.6528 -0.4730
  313MOL0     C42132   1.253   5.048   5.510 -1.3752  0.6089  0.1029
  313MOL0     C42133   1.180   4.988   5.639  0.1835  0.9650 -0.4291
  313MOL0     C42134   1.045   4.925   5.600 -0.3954 -0.1680  0.1655
  313MOL0     C42135   0.955   4.904   5.729  0.1320  0.2877  0.7655
  313MOL0     C42136   0.978   4.774   5.806 -0.8532  0.0143 -0.3364
  313MOL0     N42137   0.924   4.776   5.942 -0.1299  0.8501 -0.8004
  313MOL0     C42138   0.960   4.847   6.054  0.0332  0.4012  0.8680
  313MOL0     C42139   0.844   4.863   6.124 -0.8434  0.7733 -0.1618
  313MOL0     C42140   0.836   4.936   6.253  0.1051  0.4096 -0.3104
  313MOL0     C42141   0.782   5.069   6.241 -0.0730 -0.8900 -0.1163
  313MOL0     C42142   0.794   5.134   6.376  0.4231 -0.9617 -0.2531
  313MOL0     C42143   0.804   5.291   6.373 -0.0254 -0.0998 -0.0497
  313MOL0     O42144   0.813   5.339   6.505 -0.0717 -0.3922  0.2200
  313MOL0     C42145   0.709   5.355   6.587 -0.1177  0.6543 -0.6545
  313MOL0     C42146   0.733   5.341   6.729 -0.3414 -0.5720  0.6712
  313MOL0     C42147   0.632   5.358   6.820  1.0941 -1.0320  0.6470
  313MOL0     C42148   0.667   5.379   6.964  0.0618  0.0517  0.0280
  313MOL0     C42149   0.496   5.363   6.773 -0.5836 -0.0083 -0.0456
  313MOL0     C42150   0.371   5.403   6.844 -1.1745  1.2546 -0.5807
  313MOL0     O42151   0.267   5.450   6.774 -0.0903  0.3512  0.6824
  313MOL0     C42152   0.136   5.471   6.826  0.0437  0.1065  0.4355
  313MOL0     C42153   0.087   5.597   6.780  0.2763 -0.1158 -0.0626
  313MOL0     C42154  -0.028   5.649   6.834 -0.1899  0.0719  0.3555
  313MOL0     C42155  -0.093   5.583   6.936 -0.1553 -0.3358 -0.2076
  313MOL0     O42156  -0.203   5.650   6.972  0.6526  0.2319  0.0021
  313MOL0     C42157  -0.308   5.568   7.034  0.2272 -0.0043  0.1192
  313MOL0     C42158  -0.429   5.656   7.070 -0.3338  0.7133 -1.0143
  313MOL0     C42159  -0.488   5.736   6.948 -0.3867 -0.1730  0.7581
  313MOL0     C42160  -0.617   5.804   6.994  0.3323 -0.1837 -0.2587
  313MOL0     C42161  -0.743   5.714   6.972 -0.2761  0.4426 -0.7571
  313MOL0     C42162  -0.863   5.777   7.034 -0.2358 -0.1963  0.2151
  313MOL0     C42163  -0.899   5.924   6.984 -0.1004 -0.3691  0.2779
  313MOL0     C42164  -0.905   5.951   6.832 -0.6627 -0.4710  1.1123
  313MOL0    Cl42165  -0.966   5.810   6.743 -0.0302 -0.0952 -0.0130
  313MOL0     C42166  -0.044   5.456   6.972  0.6779 -0.2494 -0.0988
  313MOL0     C42167   0.074   5.398   6.923  0.2525  0.7975 -0.1068
  313MOL0     O42168   0.371   5.391   6.962  0.2923 -0.0107 -0.7376
  313MOL0     C42169   0.477   5.342   6.635 -0.7091 -0.6745 -0.4184
  313MOL0     C42170   0.583   5.347   6.546  0.6633 -0.0618 -0.5459
  313MOL0     N42171   0.739   4.793   6.055 -0.8876 -0.2593 -0.7144
  313MOL0     N42172   0.790   4.751   5.954 -0.1594  0.1231  0.9423
  313MOL0     C42173   1.753   5.258   5.310  0.7393 -0.2491 -1.0428
  313MOL0     C42174   1.880   5.325   5.307  0.6586  0.1296 -0.5008
  313MOL0     C42175   2.227   5.558   5.359  0.2558 -0.6090 -0.1962
  313MOL0     C42176   2.320   5.558   5.465  0.0359 -0.2509  0.3132
  313MOL0     C42177   2.457   5.578   5.435 -0.3886 -0.1027  0.1460
  313MOL0     C42178   2.503   5.581   5.302  0.6025 -0.4009  0.1598
  313MOL0     O42179   2.635   5.589   5.283 -0.3654 -0.3696 -0.5683
  313MOL0     C42180   2.688   5.515   5.166  0.6745  0.0580 -0.5226
  313MOL0     C42181   2.845   5.509   5.173 -0.2455 -0.1765 -0.1711
  313MOL0     C42182   2.907   5.644   5.218 -0.0923 -0.0070 -0.1630
  313MOL0     C42183   3.056   5.637   5.178 -0.8419  0.2238 -0.3441
  313MOL0     C42184   3.121   5.536   5.263  0.2973 -0.7109  0.1070
  313MOL0     C42185   3.156   5.456   5.348 -0.4212  0.1647 -0.3805
  313MOL0     C42186   2.407   5.577   5.203  0.3368 -0.0805  0.0007
  313MOL0     C42187   2.273   5.564   5.234 -0.0188 -0.5381  0.2480
  313MOL0     H42188   1.777   5.630   5.207 -3.6127 -0.6738  1.4506
  313MOL0     H42189   1.565   5.508   5.196  0.4068  0.3238 -1.2857
  313MOL0     H42190   1.484   5.090   5.334  1.1842 -0.2971  0.3277
  313MOL0     H42191   1.508   5.217   5.448 -0.0795  0.0297 -0.9030
  313MOL0     H42192   1.291   5.331   5.331  1.3352 -0.2070  0.5452
  313MOL0     H42193   1.266   5.162   5.269  2.0403 -1.5675 -0.2614
  313MOL0     H42194   1.262   5.255   5.556  0.3221  0.9730 -1.9108
  313MOL0     H42195   1.120   5.215   5.467 -0.3994 -0.1044 -1.5660
  313MOL0     H42196   1.236   4.991   5.419  1.3506 -0.0463 -0.0863
  313MOL0     H42197   1.360   5.046   5.532 -1.3157  1.5970 -0.0465
  313MOL0     H42198   1.243   4.915   5.690 -2.9912  0.1346  2.6759
  313MOL0     H42199   1.173   5.068   5.713 -0.9219 -0.1920  0.7716
  313MOL0     H42200   0.997   4.986   5.523 -0.0756 -0.4763 -0.2813
  313MOL0     H42201   1.054   4.829   5.548 -1.3290  0.8404 -1.9604
  313MOL0     H42202   0.961   4.988   5.800 -3.0873 -0.1042  1.6279
  313MOL0     H42203   0.848   4.896   5.709  0.4675  0.9774 -1.5948
  313MOL0     H42204   1.080   4.735   5.810 -1.2930 -1.0140  2.0076
  313MOL0     H42205   0.945   4.689   5.746  2.1777 -0.7805 -1.0301
  313MOL0     H42206   1.055   4.894   6.074  0.5612 -0.4139  0.3279
  313MOL0     H42207   0.765   4.889   6.321  2.8628 -0.6501  2.0197
  313MOL0     H42208   0.936   4.953   6.295  1.5113 -1.2259 -2.7257
  313MOL0     H42209   0.678   5.082   6.213 -0.6642  0.1291  2.2941
  313MOL0     H42210   0.847   5.125   6.172  0.2912  0.2482  1.0996
  313MOL0     H42211   0.886   5.112   6.430 -0.2366  2.3689  2.5528
  313MOL0     H42212   0.711   5.109   6.444  0.5661  0.7305  0.5841
  313MOL0     H42213   0.725   5.343   6.319  0.5239  0.4200 -0.3628
  313MOL0     H42214   0.895   5.317   6.318  1.3888 -1.0475  1.6896
  313MOL0     H42215   0.832   5.312   6.764 -0.2949  0.2918  1.2877
  313MOL0     H42216   0.645   5.284   7.014  2.6857  0.0968  1.4502
  313MOL0     H42217   0.776   5.383   6.972  0.5827 -2.4400 -3.5502
  313MOL0     H42218   0.615   5.469   6.998 -3.2517 -1.6136 -0.2215
  313MOL0     H42219   0.152   5.656   6.716  1.9807 -1.2974  0.5212
  313MOL0     H42220  -0.061   5.745   6.795  2.0616  0.5331 -0.5448
  313MOL0     H42221  -0.334   5.492   6.959  3.1227 -2.2203  1.1743
  313MOL0     H42222  -0.259   5.514   7.115  0.3411  0.9068  0.6604
  313MOL0     H42223  -0.503   5.587   7.112 -0.3137  1.9464  1.1584
  313MOL0     H42224  -0.412   5.729   7.149 -0.3301  0.8316 -1.1247
  313MOL0     H42225  -0.505   5.672   6.861 -1.9227 -0.2904  1.1321
  313MOL0     H42226  -0.415   5.815   6.924 -1.0429 -0.0014 -0.8588
  313MOL0     H42227  -0.619   5.824   7.102 -2.9464 -0.0878 -0.2261
  313MOL0     H42228  -0.634   5.891   6.929 -1.2563  0.4779  0.9648
  313MOL0     H42229  -0.722   5.617   7.019 -2.9200  0.4662  0.6259
  313MOL0     H42230  -0.769   5.703   6.867 -4.4618 -0.4480  0.2284
  313MOL0     H42231  -0.941   5.705   7.007 -0.2955 -0.6106  1.4278
  313MOL0     H42232  -0.850   5.777   7.143 -0.7868 -0.1899  0.2818
  313MOL0     H42233  -0.826   5.991   7.031  0.6009 -1.3958  0.6788
  313MOL0     H42234  -0.992   5.958   7.031 -0.0060 -0.7126  0.7263
  313MOL0     H42235  -0.805   5.973   6.795 -0.5449 -1.2541  0.9466
  313MOL0     H42236  -0.954   6.048   6.823  1.8673  1.0981  2.8796
  313MOL0     H42237  -0.102   5.404   7.047 -0.3387  2.6036  1.2142
  313MOL0     H42238   0.117   5.302   6.949  3.5428  1.0914 -3.5421
  313MOL0     H42239   0.379   5.339   6.588 -1.3305 -2.3432  0.8422
  313MOL0     H42240   0.566   5.321   6.442 -2.2413 -1.5849  0.1926
  313MOL0     H42241   1.763   5.156   5.345  1.8830  0.8538  2.1592
  313MOL0     H42242   1.967   5.275   5.348  2.7059 -1.1197 -5.6618
  313MOL0     H42243   2.296   5.547   5.571 -1.3391  0.8207  0.1404
  313MOL0     H42244   2.530   5.568   5.515  1.8303  0.1825 -1.7445
  313MOL0     H42245   2.641   5.417   5.157  3.1377 -1.2905  0.3975
  313MOL0     H42246   2.660   5.570   5.076  1.4179  0.0994 -0.7335
  313MOL0     H42247   2.869   5.472   5.073  0.1064 -2.2614  0.6499
  313MOL0     H42248   2.870   5.433   5.247  1.0251  0.9120  0.5546
  313MOL0     H42249   2.889   5.650   5.326  2.0369 -2.4581  0.4228
  313MOL0     H42250   2.858   5.727   5.167 -1.7377 -0.4806  0.5872
  313MOL0     H42251   3.107   5.731   5.202 -2.4063  0.6784  1.4159
  313MOL0     H42252   3.066   5.617   5.071 -0.7367  0.7927 -0.4452
  313MOL0     H42253   3.195   5.391   5.424 -1.9613  0.3069  0.5565
  313MOL0     H42254   2.417   5.591   5.096  0.5042  0.3978  0.0775
  313MOL0     H42255   2.200   5.549   5.155 -1.8621 -1.0786  1.9747
  314MOL0     O42256   0.291  10.272   6.142  0.6055  0.5432 -0.3330
  314MOL0     C42257   0.339  10.159   6.118  0.0675 -1.0749  0.0152
  314MOL0     O42258   0.308  10.044   6.180 -0.1903 -0.4438 -0.1215
  314MOL0     C42259   0.218  10.039   6.278  0.5018 -0.3212 -0.4123
  314MOL0     C42260   0.105   9.969   6.262 -0.3206 -1.3779  0.3180
  314MOL0     C42261   0.008   9.956   6.357  0.2140 -0.3318 -1.6273
  314MOL0     C42262   0.032  10.005   6.482 -0.2865 -0.0581  0.6512
  314MOL0     O42263  -0.071   9.987   6.574  0.4114 -0.0217  0.5722
  314MOL0     C42264  -0.152  10.102   6.589  0.2075 -0.9522  0.7545
  314MOL0     C42265  -0.288  10.076   6.663 -0.7463  0.5742  0.1125
  314MOL0     C42266  -0.278  10.023   6.807 -0.8754  0.1333  0.1890
  314MOL0     C42267  -0.409  10.025   6.867 -0.0459  0.4222 -0.0130
  314MOL0     C42268  -0.395   9.974   7.007 -0.4379 -0.4331  0.6659
  314MOL0     C42269  -0.364   9.823   7.023  0.3980  0.3243 -0.5980
  314MOL0     C42270  -0.447   9.743   7.130 -0.5964 -0.5667 -0.2671
  314MOL0     C42271  -0.407   9.796   7.273 -0.1685  0.7833 -0.4312
  314MOL0     N42272  -0.461   9.717   7.390 -0.2947  0.1701  0.4899
  314MOL0     C42273  -0.570   9.766   7.453 -0.9187 -0.2711  0.8518
  314MOL0     C42274  -0.585   9.671   7.544  0.0458  0.2592  0.1084
  314MOL0     C42275  -0.693   9.666   7.650 -0.4023 -0.1934 -0.0523
  314MOL0     C42276  -0.628   9.646   7.794 -0.0441  1.2836 -0.1326
  314MOL0     C42277  -0.718   9.681   7.910 -0.1639  0.1504  0.3753
  314MOL0     C42278  -0.666   9.619   8.047  1.3133  0.4624 -0.2046
  314MOL0     O42279  -0.537   9.666   8.087  0.1879 -0.0129  0.7687
  314MOL0     C42280  -0.465   9.594   8.188 -0.3538  0.8236 -0.2642
  314MOL0     C42281  -0.526   9.513   8.291  0.8044 -0.3253  0.7146
  314MOL0     C42282  -0.447   9.435   8.377 -1.1412  0.2268 -1.1387
  314MOL0     C42283  -0.516   9.356   8.483 -0.6963  0.0200  0.5307
  314MOL0     C42284  -0.303   9.434   8.376 -0.0062 -0.2927  0.3862
  314MOL0     C42285  -0.213   9.342   8.453  1.4198  0.8074 -0.9940
  314MOL0     O42286  -0.089   9.392   8.495  0.0448  0.3127  0.3162
  314MOL0     C42287  -0.026   9.342   8.606 -0.5216 -0.4676 -0.1916
  314MOL0     C42288   0.115   9.340   8.588  0.7120  0.0196  0.4623
  314MOL0     C42289   0.188   9.283   8.688  0.1379 -0.0840 -0.5684
  314MOL0     C42290   0.125   9.233   8.806 -0.0350  0.6674  0.1739
  314MOL0     O42291   0.211   9.184   8.901  0.0942 -0.5763 -0.1515
  314MOL0     C42292   0.192   9.213   9.039  0.5058  0.0488 -0.2099
  314MOL0     C42293   0.137   9.095   9.125 -0.8878  0.3391 -0.8256
  314MOL0     C42294   0.178   9.114   9.261  1.0231 -0.1907  0.6313
  314MOL0     C42295   0.073   9.200   9.332 -1.4718 -1.0135  0.1467
  314MOL0     C42296  -0.016   9.124   9.411  0.1545  0.9940 -0.2602
  314MOL0     C42297  -0.137   9.057   9.334 -0.4878 -0.7331 -0.1858
  314MOL0     C42298  -0.230   9.003   9.437  0.2815 -0.1973  0.2652
  314MOL0     C42299  -0.325   9.121   9.489 -1.2042 -0.1657 -0.3916
  314MOL0    Cl42300  -0.447   9.054   9.599  0.1015  0.3109 -0.0023
  314MOL0     C42301  -0.008   9.239   8.821  0.2893  1.1217  0.0648
  314MOL0     C42302  -0.087   9.289   8.720 -0.3055  0.0720 -0.7601
  314MOL0     O42303  -0.252   9.225   8.487  0.0490 -0.7597  0.3803
  314MOL0     C42304  -0.249   9.524   8.286  0.2097  0.5772  0.7331
  314MOL0     C42305  -0.326   9.593   8.186 -0.3989 -0.2217 -0.2102
  314MOL0     N42306  -0.485   9.569   7.549 -0.8052  0.1220  1.5878
  314MOL0     N42307  -0.401   9.604   7.450  0.0471  0.1795 -0.5562
  314MOL0     C42308   0.145  10.076   6.503 -0.1756  0.0160  0.7760
  314MOL0     C42309   0.240  10.102   6.405  0.9568  1.3102  0.6695
  314MOL0     C42310   0.409  10.153   5.988 -0.0360  0.6746  0.2700
  314MOL0     C42311   0.478  10.263   5.935 -0.6254 -0.5633 -0.1022
  314MOL0     C42312   0.547  10.249   5.815 -0.8651 -0.2481 -0.2214
  314MOL0     C42313   0.549  10.129   5.747  0.4246  1.2836 -0.2997
  314MOL0     O42314   0.634  10.094   5.643  0.1824 -0.2889  0.3005
  314MOL0     C42315   0.618  10.182   5.523 -0.1580 -0.0153 -0.4326
  314MOL0     C42316   0.704  10.125   5.403 -0.9076 -1.0030  0.2098
  314MOL0     C42317   0.685  10.175   5.259 -0.3259 -0.8746  0.2161
  314MOL0     C42318   0.740  10.312   5.249  0.0450 -1.5507 -0.0082
  314MOL0     C42319   0.737  10.357   5.098  0.1024 -0.6949 -0.3986
  314MOL0     C42320   0.739  10.383   4.981  0.8411 -0.4307 -0.0134
  314MOL0     C42321   0.470  10.026   5.793 -0.3287  0.0972  0.4354
  314MOL0     C42322   0.414  10.032   5.920 -0.8262  0.6519 -0.5557
  314MOL0     H42323   0.097   9.929   6.161 -1.6133 -4.7543  1.6353
  314MOL0     H42324  -0.078   9.893   6.333  0.4277 -0.0915 -3.1324
  314MOL0     H42325  -0.095  10.182   6.637  1.1310  0.8391 -2.9803
  314MOL0     H42326  -0.165  10.162   6.499  1.4390  1.2902  1.9713
  314MOL0     H42327  -0.350  10.166   6.671 -1.4814 -0.0895  3.5040
  314MOL0     H42328  -0.346  10.000   6.609  1.7743 -2.6615  1.6376
  314MOL0     H42329  -0.251   9.918   6.789  0.0688  0.5666 -1.1767
  314MOL0     H42330  -0.200  10.070   6.867 -0.9011  0.3111  0.0849
  314MOL0     H42331  -0.447  10.128   6.855  2.3366  1.3160 -0.4618
  314MOL0     H42332  -0.479   9.957   6.818 -1.0425  0.9270  0.6675
  314MOL0     H42333  -0.329  10.042   7.063 -1.2048  0.3741  0.6127
  314MOL0     H42334  -0.487   9.991   7.064 -1.0164 -0.6855 -0.1919
  314MOL0     H42335  -0.395   9.785   6.925  2.2252  0.5634 -1.3150
  314MOL0     H42336  -0.255   9.817   7.033  0.4346 -0.6123 -1.4816
  314MOL0     H42337  -0.552   9.762   7.103  0.3726  1.6535 -2.8947
  314MOL0     H42338  -0.422   9.637   7.122  3.1983  0.1552  0.4637
  314MOL0     H42339  -0.453   9.894   7.283  2.0450  1.8640 -0.4311
  314MOL0     H42340  -0.298   9.790   7.280 -0.2239 -3.3222 -0.3992
  314MOL0     H42341  -0.628   9.856   7.431 -1.2811 -0.8377 -0.5706
  314MOL0     H42342  -0.746   9.762   7.654 -0.8165 -0.4264  0.2582
  314MOL0     H42343  -0.760   9.581   7.634 -0.1015 -0.6328  0.9457
  314MOL0     H42344  -0.531   9.696   7.794  0.1648  0.9607  1.5429
  314MOL0     H42345  -0.615   9.538   7.804  0.1130  1.2135 -1.0051
  314MOL0     H42346  -0.818   9.643   7.885  0.2437  0.6838 -2.3249
  314MOL0     H42347  -0.716   9.787   7.935  5.1326  0.6384 -1.0353
  314MOL0     H42348  -0.679   9.510   8.043  0.0115  0.5780  0.3474
  314MOL0     H42349  -0.743   9.648   8.119  0.2396 -0.7273 -0.8374
  314MOL0     H42350  -0.633   9.525   8.302  0.8278  0.7183 -0.0589
  314MOL0     H42351  -0.525   9.250   8.459 -1.3280  0.1212  0.2918
  314MOL0     H42352  -0.474   9.372   8.582  1.9285  0.9426 -0.6389
  314MOL0     H42353  -0.616   9.397   8.497  0.0739  1.8167  1.1005
  314MOL0     H42354   0.168   9.392   8.509  2.3385 -1.1285  0.7577
  314MOL0     H42355   0.294   9.308   8.699 -0.6902  2.5495  4.2105
  314MOL0     H42356   0.291   9.246   9.071  1.4290  0.1858 -2.9496
  314MOL0     H42357   0.118   9.287   9.070  1.6891  0.4612  1.8225
  314MOL0     H42358   0.030   9.080   9.107 -0.7968  1.8605 -3.1164
  314MOL0     H42359   0.188   9.007   9.085  1.3567  1.5131 -0.6997
  314MOL0     H42360   0.268   9.175   9.267 -1.6491  4.0657  1.1508
  314MOL0     H42361   0.190   9.010   9.293 -1.7867 -0.9727 -0.5270
  314MOL0     H42362   0.130   9.263   9.402 -0.8056  0.8604 -1.9594
  314MOL0     H42363   0.014   9.260   9.262 -0.9120 -0.3309  0.2488
  314MOL0     H42364  -0.063   9.184   9.490  0.7733  0.6549  0.3693
  314MOL0     H42365   0.039   9.049   9.469  1.5587  1.4503 -0.9714
  314MOL0     H42366  -0.186   9.128   9.266  0.2163 -3.6958 -4.1944
  314MOL0     H42367  -0.093   8.974   9.278  1.5175  0.5161 -0.5672
  314MOL0     H42368  -0.171   8.960   9.518 -0.5903  0.6002  1.3721
  314MOL0     H42369  -0.285   8.920   9.392 -0.3047 -0.1709  0.9060
  314MOL0     H42370  -0.382   9.175   9.412 -0.2854  1.1274 -0.2049
  314MOL0     H42371  -0.267   9.198   9.541 -1.7306 -0.1572  0.1976
  314MOL0     H42372  -0.045   9.182   8.905  1.0738  1.5529  0.7100
  314MOL0     H42373  -0.195   9.296   8.726 -0.2630  1.7081 -1.3524
  314MOL0     H42374  -0.142   9.536   8.278  0.2828  0.8883  2.0170
  314MOL0     H42375  -0.279   9.649   8.106  1.2365 -1.8968 -0.4798
  314MOL0     H42376   0.164  10.117   6.602  1.5859 -0.4737  0.6700
  314MOL0     H42377   0.333  10.155   6.422  0.2255  3.0460 -0.5263
  314MOL0     H42378   0.462  10.353   5.994 -1.1043 -1.0335  0.5043
  314MOL0     H42379   0.595  10.341   5.781 -0.6651  0.5383  2.0355
  314MOL0     H42380   0.516  10.179   5.485  0.8338  1.7027 -3.6767
  314MOL0     H42381   0.645  10.287   5.542 -1.6423  0.6258 -1.6751
  314MOL0     H42382   0.681  10.019   5.417 -3.8144 -0.5322 -0.3606
  314MOL0     H42383   0.809  10.149   5.426 -1.3111  0.7008  0.4255
  314MOL0     H42384   0.583  10.188   5.223 -0.2158  0.2207  0.2400
  314MOL0     H42385   0.740  10.113   5.188  0.4034  1.2029 -1.1508
  314MOL0     H42386   0.843  10.330   5.280 -0.1738  1.7199 -0.8725
  314MOL0     H42387   0.667  10.375   5.300 -2.8305 -2.4164 -2.7197
  314MOL0     H42388   0.723  10.432   4.888 -2.4051  2.1983  1.7211
  314MOL0     H42389   0.460   9.934   5.735 -0.1250  2.3171 -3.4952
  314MOL0     H42390   0.370   9.937   5.948  2.6622 -0.9323  0.1635
  315MOL0     O42391   4.891   0.016   3.458  0.0497  0.0147  0.3304
  315MOL0     C42392   4.908  -0.081   3.385  0.0083  1.0497 -0.4373
  315MOL0     O42393   4.800  -0.162   3.338 -0.3118  0.1744 -0.3928
  315MOL0     C42394   4.671  -0.132   3.372  0.4722  1.0991 -0.3590
  315MOL0     C42395   4.622  -0.009   3.364 -0.5300 -0.1941 -0.7394
  315MOL0     C42396   4.494   0.023   3.394 -0.3886 -0.5441 -0.1238
  315MOL0     C42397   4.410  -0.080   3.436  0.4367  0.3942 -0.0849
  315MOL0     O42398   4.284  -0.045   3.461  0.0475  0.6397  0.3508
  315MOL0     C42399   4.210  -0.132   3.548 -0.4240  0.6320  0.7276
  315MOL0     C42400   4.102  -0.045   3.604  0.9472 -0.7187  1.5863
  315MOL0     C42401   3.985  -0.022   3.498  0.1870  0.5275  0.1268
  315MOL0     C42402   3.894   0.093   3.549 -0.3511 -0.0275  0.4026
  315MOL0     C42403   3.755   0.059   3.488 -1.3314 -0.1531 -0.6551
  315MOL0     C42404   3.647   0.168   3.526  0.6669 -0.0907  0.3954
  315MOL0     C42405   3.557   0.195   3.395 -0.2376  0.9678 -0.4112
  315MOL0     C42406   3.618   0.298   3.299  0.1243  0.3889  0.1955
  315MOL0     N42407   3.682   0.235   3.178  0.1823 -0.0643  1.2683
  315MOL0     C42408   3.810   0.200   3.161 -0.8024 -0.0830  0.6625
  315MOL0     C42409   3.811   0.161   3.024  0.8120  0.3786 -0.2765
  315MOL0     C42410   3.942   0.133   2.939 -1.4504 -0.4357 -0.0772
  315MOL0     C42411   3.956  -0.020   2.902  0.4134 -0.4752 -0.0146
  315MOL0     C42412   4.057  -0.039   2.781 -0.7075 -0.4276  0.5129
  315MOL0     C42413   4.095  -0.191   2.762  0.5980 -0.6086 -0.7956
  315MOL0     O42414   4.103  -0.263   2.882  0.1850 -0.0931  0.0770
  315MOL0     C42415   4.011  -0.353   2.917  0.2052  0.1400 -0.1703
  315MOL0     C42416   4.042  -0.429   3.023  0.1433 -0.0100  0.2885
  315MOL0     C42417   3.947  -0.504   3.100 -0.5091 -0.7091  0.4889
  315MOL0     C42418   3.998  -0.550   3.237  0.6188 -0.5907  0.9250
  315MOL0     C42419   3.815  -0.518   3.053  0.9036  0.1386 -0.3695
  315MOL0     C42420   3.709  -0.600   3.119 -0.3934 -0.6616 -0.3617
  315MOL0     O42421   3.584  -0.587   3.065  0.9086  0.3911 -0.2203
  315MOL0     C42422   3.484  -0.678   3.096 -0.1946  0.0461 -0.4463
  315MOL0     C42423   3.368  -0.636   3.162  0.5465  0.6081 -0.6131
  315MOL0     C42424   3.259  -0.726   3.185  0.2004  0.5082  0.3811
  315MOL0     C42425   3.273  -0.864   3.137 -0.6137  0.2030  0.5726
  315MOL0     O42426   3.172  -0.943   3.173  0.2702 -0.3753 -0.7081
  315MOL0     C42427   3.184  -1.084   3.150  0.8834 -0.7281  0.0643
  315MOL0     C42428   3.037  -1.141   3.151 -0.4311 -0.5971  0.4645
  315MOL0     C42429   3.027  -1.292   3.197 -0.7683 -0.5826 -0.9712
  315MOL0     C42430   2.888  -1.344   3.229 -1.7570 -0.1773  0.2889
  315MOL0     C42431   2.882  -1.495   3.262 -0.9008  0.2987  0.2192
  315MOL0     C42432   2.957  -1.595   3.173 -0.1269  0.6953 -0.4525
  315MOL0     C42433   2.880  -1.736   3.177 -0.0691 -0.1499 -0.2074
  315MOL0     C42434   2.969  -1.834   3.089  0.6073  0.3767 -0.2249
  315MOL0    Cl42435   3.133  -1.855   3.176 -0.4764  0.4534  0.0853
  315MOL0     C42436   3.401  -0.901   3.088  1.0039  0.3187 -0.0280
  315MOL0     C42437   3.501  -0.808   3.060  0.7425  0.1753 -0.3945
  315MOL0     O42438   3.743  -0.681   3.207  0.2282 -0.6043  0.3872
  315MOL0     C42439   3.785  -0.452   2.924  0.6550  0.5846 -0.1536
  315MOL0     C42440   3.877  -0.369   2.870 -0.9973 -0.0685  0.2813
  315MOL0     N42441   3.684   0.147   2.975 -0.6767 -0.5191 -0.2169
  315MOL0     N42442   3.606   0.184   3.073  0.3608  0.1977 -0.7309
  315MOL0     C42443   4.466  -0.210   3.452  0.4561  0.2571 -0.3403
  315MOL0     C42444   4.599  -0.240   3.426  0.1307  0.4704  0.3223
  315MOL0     C42445   5.047  -0.124   3.349 -0.8311  0.0489 -0.5052
  315MOL0     C42446   5.065  -0.239   3.265 -0.9835 -0.8947 -0.0221
  315MOL0     C42447   5.191  -0.296   3.230 -0.7081 -0.0499  0.0699
  315MOL0     C42448   5.306  -0.235   3.278 -0.4032  0.1943  0.6915
  315MOL0     O42449   5.434  -0.283   3.258  0.1562  0.3447  0.3285
  315MOL0     C42450   5.461  -0.398   3.173  0.0626  0.2713 -1.0036
  315MOL0     C42451   5.606  -0.439   3.158  0.5489  0.2716 -0.9661
  315MOL0     C42452   5.674  -0.448   3.301 -0.2513 -0.5064  0.6346
  315MOL0     C42453   5.787  -0.552   3.287  0.1088 -0.5670  0.5752
  315MOL0     C42454   5.885  -0.514   3.184 -0.5196  0.6490  0.0418
  315MOL0     C42455   5.970  -0.482   3.096  0.1010 -0.4926  0.4145
  315MOL0     C42456   5.282  -0.123   3.368 -0.7147 -0.2002  0.7675
  315MOL0     C42457   5.158  -0.062   3.390 -0.7704 -0.0023 -0.0488
  315MOL0     H42458   4.691   0.075   3.354  1.0930 -1.3943 -0.0926
  315MOL0     H42459   4.473   0.129   3.399  1.0524 -0.3088  2.5769
  315MOL0     H42460   4.168  -0.222   3.503  1.6403 -0.3817  0.6736
  315MOL0     H42461   4.267  -0.169   3.634 -2.0914  0.2206  1.6926
  315MOL0     H42462   4.056  -0.092   3.691 -0.7165 -1.4544  0.3850
  315MOL0     H42463   4.138   0.052   3.637 -0.9451  1.3450 -1.7709
  315MOL0     H42464   4.020   0.001   3.398  2.0327  2.3572  1.1213
  315MOL0     H42465   3.939  -0.121   3.498  0.3079  0.4694 -0.5099
  315MOL0     H42466   3.873   0.090   3.657 -4.0158 -1.8548 -0.2104
  315MOL0     H42467   3.944   0.188   3.525 -3.6143  1.6243 -0.4963
  315MOL0     H42468   3.778   0.058   3.381 -1.0970  0.6374 -0.6230
  315MOL0     H42469   3.714  -0.041   3.502  0.2920 -0.7648  0.0077
  315MOL0     H42470   3.591   0.126   3.610 -1.6246  3.3340  0.7697
  315MOL0     H42471   3.683   0.266   3.555  0.4687 -0.1358  0.7942
  315MOL0     H42472   3.532   0.097   3.356  0.8366  0.0960  0.9848
  315MOL0     H42473   3.468   0.244   3.436 -0.1689  2.6471 -2.0941
  315MOL0     H42474   3.691   0.359   3.352  0.7154  1.1949 -1.4942
  315MOL0     H42475   3.547   0.371   3.261 -0.7845  1.7790  4.0896
  315MOL0     H42476   3.890   0.216   3.233 -1.0768 -0.3477  1.0306
  315MOL0     H42477   3.928   0.199   2.853  0.0731 -0.3567 -0.2843
  315MOL0     H42478   4.028   0.169   2.996 -2.6798  2.6667  0.0223
  315MOL0     H42479   3.854  -0.056   2.885 -0.1843  1.3797 -0.6835
  315MOL0     H42480   3.987  -0.063   2.997  2.5631  2.1406  0.6121
  315MOL0     H42481   4.134   0.028   2.820 -1.0056  1.5564 -2.0750
  315MOL0     H42482   4.024   0.007   2.687 -1.0791  0.8321  1.2323
  315MOL0     H42483   4.195  -0.195   2.719  1.4657  2.0395  0.7146
  315MOL0     H42484   4.015  -0.239   2.704  0.1426  1.4496 -1.9662
  315MOL0     H42485   4.147  -0.428   3.050  0.5741 -0.6839 -1.2202
  315MOL0     H42486   4.086  -0.495   3.270 -0.6992  1.0726  1.8719
  315MOL0     H42487   3.926  -0.523   3.315  0.9711  1.7106  0.5212
  315MOL0     H42488   4.006  -0.659   3.235 -2.8448 -0.9387 -0.2568
  315MOL0     H42489   3.380  -0.538   3.208  1.6986  1.8950 -3.4198
  315MOL0     H42490   3.169  -0.695   3.237 -1.4915 -2.6226 -0.4051
  315MOL0     H42491   3.223  -1.121   3.055  2.5119 -2.0544  1.1771
  315MOL0     H42492   3.228  -1.126   3.241 -0.0707  1.3194  1.5651
  315MOL0     H42493   2.990  -1.082   3.230  2.1958  1.2196  0.7959
  315MOL0     H42494   2.991  -1.135   3.052 -1.3329  0.2663  0.9197
  315MOL0     H42495   3.098  -1.317   3.277 -0.2826 -1.7621 -1.7336
  315MOL0     H42496   3.057  -1.335   3.101  1.1395  2.7455 -2.0211
  315MOL0     H42497   2.857  -1.301   3.324 -2.8155 -0.5496  0.1249
  315MOL0     H42498   2.827  -1.312   3.144  0.3278 -2.6226 -2.3690
  315MOL0     H42499   2.779  -1.528   3.276 -0.2374 -1.3686  1.4607
  315MOL0     H42500   2.931  -1.502   3.360 -1.8419 -1.8145  0.5970
  315MOL0     H42501   2.967  -1.552   3.073 -1.3464  1.8853 -0.0917
  315MOL0     H42502   3.060  -1.608   3.208 -0.7762 -0.9070  1.0529
  315MOL0     H42503   2.785  -1.726   3.124 -0.0435 -2.0139 -0.6609
  315MOL0     H42504   2.869  -1.767   3.282 -0.3198  3.3104  0.9240
  315MOL0     H42505   2.987  -1.791   2.991  1.3688 -1.3864 -0.9024
  315MOL0     H42506   2.918  -1.931   3.078  0.5898  0.1379  1.5129
  315MOL0     H42507   3.415  -1.000   3.045  2.2707 -0.9833  3.0958
  315MOL0     H42508   3.595  -0.830   3.010  0.1800  0.3044 -1.5330
  315MOL0     H42509   3.681  -0.448   2.895  0.5319 -0.0865  0.1616
  315MOL0     H42510   3.849  -0.316   2.780 -0.3678  1.5240  0.9733
  315MOL0     H42511   4.410  -0.293   3.492 -0.7670  1.0783 -0.2900
  315MOL0     H42512   4.642  -0.339   3.419  0.4134  0.4341  2.0850
  315MOL0     H42513   4.983  -0.299   3.225  1.0435 -1.7210 -3.4251
  315MOL0     H42514   5.205  -0.389   3.176  0.5299  0.8660 -1.2575
  315MOL0     H42515   5.414  -0.485   3.221 -2.4476  1.6412 -0.7972
  315MOL0     H42516   5.418  -0.378   3.075  1.0482  1.6248 -1.1874
  315MOL0     H42517   5.649  -0.369   3.086  0.7407  2.3099  1.0112
  315MOL0     H42518   5.612  -0.533   3.101 -0.9492 -0.7257  0.4091
  315MOL0     H42519   5.607  -0.481   3.381 -0.5794  1.3398  1.1772
  315MOL0     H42520   5.707  -0.349   3.335  2.6881 -1.4608  0.8452
  315MOL0     H42521   5.744  -0.652   3.274  0.3785 -0.6525  0.3262
  315MOL0     H42522   5.839  -0.558   3.383 -0.9764 -0.9471  1.1621
  315MOL0     H42523   6.061  -0.449   3.049 -0.1368 -0.7465 -0.2395
  315MOL0     H42524   5.364  -0.070   3.415 -1.8791  1.4177  1.0575
  315MOL0     H42525   5.164   0.034   3.440  0.4348 -0.9445  1.7710
  316MOL0     O42526   3.406   5.638   3.653  0.4237  0.5356  0.0632
  316MOL0     C42527   3.318   5.680   3.576 -0.3135 -0.3121 -0.1191
  316MOL0     O42528   3.203   5.739   3.615 -0.4567  0.1841  0.1087
  316MOL0     C42529   3.191   5.785   3.742  0.0119  0.2582  0.3607
  316MOL0     C42530   3.289   5.862   3.808  1.0430  0.7000 -0.1881
  316MOL0     C42531   3.269   5.900   3.943 -0.4207 -0.6240 -0.2952
  316MOL0     C42532   3.153   5.865   4.007  1.0578  0.7916 -0.0692
  316MOL0     O42533   3.145   5.876   4.135 -0.2391 -0.8672  0.4104
  316MOL0     C42534   3.188   5.772   4.220  0.2566  0.4593  0.2965
  316MOL0     C42535   3.334   5.712   4.197 -1.3886 -0.2476 -0.1484
  316MOL0     C42536   3.451   5.816   4.205 -0.3635  0.5425  0.0916
  316MOL0     C42537   3.572   5.785   4.108 -0.4221 -0.1918 -1.1753
  316MOL0     C42538   3.695   5.867   4.163  0.4580  0.5514 -0.3574
  316MOL0     C42539   3.679   6.017   4.154  0.1269 -0.8491 -0.6279
  316MOL0     C42540   3.825   6.084   4.149 -0.7379 -0.7524 -0.4804
  316MOL0     C42541   3.811   6.233   4.177 -0.7059  0.7391 -0.3887
  316MOL0     N42542   3.940   6.306   4.187  0.0690  0.7038 -0.7024
  316MOL0     C42543   4.044   6.313   4.091 -0.3185  0.5061 -0.1358
  316MOL0     C42544   4.153   6.369   4.156 -0.1474 -0.2457  0.6556
  316MOL0     C42545   4.281   6.394   4.087 -0.1411 -0.2952  0.2371
  316MOL0     C42546   4.298   6.551   4.062 -0.6220 -0.1278  0.2629
  316MOL0     C42547   4.301   6.565   3.916 -0.1823  0.0413 -0.1109
  316MOL0     C42548   4.439   6.538   3.851 -0.0920  0.8793  0.7116
  316MOL0     O42549   4.414   6.559   3.709  0.2186  0.1382  0.3882
  316MOL0     C42550   4.519   6.537   3.619  0.6098 -0.2149 -0.1640
  316MOL0     C42551   4.648   6.490   3.655  0.2957 -0.0372 -0.2939
  316MOL0     C42552   4.726   6.446   3.550 -0.3428 -1.1485  0.1205
  316MOL0     C42553   4.858   6.380   3.590 -0.5242  0.4110 -0.4889
  316MOL0     C42554   4.684   6.471   3.414 -0.1862  0.0704  0.2031
  316MOL0     C42555   4.742   6.412   3.289  0.2091 -0.0061  0.2201
  316MOL0     O42556   4.856   6.345   3.306 -0.1103  0.0462  0.2630
  316MOL0     C42557   4.915   6.287   3.188  0.4999  0.4586  0.9021
  316MOL0     C42558   4.851   6.235   3.071  0.3630 -0.0185 -0.0959
  316MOL0     C42559   4.925   6.188   2.960 -0.5383 -0.3066  0.2318
  316MOL0     C42560   5.068   6.158   2.980 -0.4024 -0.6516  0.0526
  316MOL0     O42561   5.137   6.087   2.882  0.4956 -0.6469 -0.3947
  316MOL0     C42562   5.227   5.978   2.929 -0.7363 -0.1421  0.6597
  316MOL0     C42563   5.326   5.928   2.818 -0.5118 -0.2801 -0.6408
  316MOL0     C42564   5.430   6.023   2.773 -0.7495 -0.3511  0.9001
  316MOL0     C42565   5.365   6.141   2.692 -0.6545  0.8079 -0.4440
  316MOL0     C42566   5.461   6.248   2.632  0.0588 -0.5063  0.6648
  316MOL0     C42567   5.402   6.315   2.512  0.6284 -0.3836 -0.4957
  316MOL0     C42568   5.294   6.423   2.563 -0.5774  0.9257  0.4742
  316MOL0     C42569   5.271   6.532   2.454 -0.5115 -0.7102 -0.0744
  316MOL0    Cl42570   5.220   6.459   2.302 -0.4484  0.0103  0.3817
  316MOL0     C42571   5.127   6.207   3.099 -0.3501 -0.2326  0.1003
  316MOL0     C42572   5.052   6.271   3.199  0.2789 -0.5527  0.6099
  316MOL0     O42573   4.680   6.429   3.183  0.2621 -0.4686 -0.4038
  316MOL0     C42574   4.549   6.518   3.386  0.0753 -0.3831 -0.1983
  316MOL0     C42575   4.471   6.554   3.490  0.7778  0.1758  0.5716
  316MOL0     N42576   4.113   6.393   4.288 -0.1189  0.1243  0.3082
  316MOL0     N42577   3.994   6.352   4.306  0.3355  1.2961 -0.3631
  316MOL0     C42578   3.045   5.800   3.938  0.4381  0.2095 -0.5458
  316MOL0     C42579   3.066   5.775   3.803  0.0836 -0.4245 -0.0994
  316MOL0     C42580   3.355   5.675   3.436 -0.1283  0.1278  0.1752
  316MOL0     C42581   3.490   5.704   3.401 -0.1072 -0.2819  0.1020
  316MOL0     C42582   3.519   5.718   3.269 -0.7270 -0.2553 -0.3428
  316MOL0     C42583   3.422   5.719   3.172 -0.6312  0.3464  0.0348
  316MOL0     O42584   3.470   5.748   3.049 -0.5492 -0.3471 -0.2943
  316MOL0     C42585   3.393   5.722   2.931  0.3635  0.5654  0.2301
  316MOL0     C42586   3.477   5.654   2.820  0.3785 -0.2216 -0.3561
  316MOL0     C42587   3.400   5.654   2.690  0.0593 -0.0885  0.7396
  316MOL0     C42588   3.477   5.626   2.564  0.2649 -0.6420  0.1292
  316MOL0     C42589   3.553   5.744   2.527 -0.3261 -0.0396  0.8103
  316MOL0     C42590   3.630   5.832   2.502  0.5340  0.1774 -0.0201
  316MOL0     C42591   3.288   5.705   3.213 -0.0527  0.2318  0.1871
  316MOL0     C42592   3.249   5.681   3.346 -0.3037 -0.1093  0.1260
  316MOL0     H42593   3.382   5.892   3.762  2.1230  0.2038  1.5871
  316MOL0     H42594   3.339   5.947   4.011 -2.1343 -1.0574  1.8932
  316MOL0     H42595   3.171   5.805   4.323  3.2002  0.1947  0.9610
  316MOL0     H42596   3.118   5.689   4.214  0.4789  0.1546  1.5239
  316MOL0     H42597   3.341   5.624   4.261  1.0976 -0.8053 -1.0536
  316MOL0     H42598   3.332   5.663   4.100  1.2897 -1.5202  0.3460
  316MOL0     H42599   3.412   5.917   4.190 -2.5686 -0.1252  0.8655
  316MOL0     H42600   3.489   5.808   4.307  1.9573  0.0652 -0.7630
  316MOL0     H42601   3.594   5.678   4.106  0.2612 -0.0607 -1.1134
  316MOL0     H42602   3.547   5.819   4.007  0.9454 -0.8790 -1.7654
  316MOL0     H42603   3.728   5.848   4.266  0.1556  0.7850 -0.2177
  316MOL0     H42604   3.781   5.838   4.103  1.9291 -2.4060  2.7938
  316MOL0     H42605   3.621   6.054   4.069  0.6222  0.1880 -0.5270
  316MOL0     H42606   3.630   6.056   4.244  4.6014 -1.8327  2.5380
  316MOL0     H42607   3.883   6.039   4.230 -1.4181  0.2262  0.5844
  316MOL0     H42608   3.874   6.073   4.052  0.0768  1.1872 -0.3394
  316MOL0     H42609   3.762   6.258   4.271  0.8556 -0.0033  0.6546
  316MOL0     H42610   3.745   6.280   4.103 -1.3343  5.1515  2.5775
  316MOL0     H42611   4.048   6.271   3.992  1.4334  0.2519  0.0084
  316MOL0     H42612   4.358   6.360   4.157 -2.2975 -0.2701  2.7993
  316MOL0     H42613   4.288   6.332   3.997 -0.0978 -0.1654  0.1506
  316MOL0     H42614   4.389   6.580   4.115 -0.7532 -0.8377  0.8901
  316MOL0     H42615   4.223   6.613   4.112 -1.1548 -0.0064 -0.6561
  316MOL0     H42616   4.267   6.667   3.896  2.9597  1.2547  0.1548
  316MOL0     H42617   4.228   6.500   3.866  2.0601 -0.6507 -2.7450
  316MOL0     H42618   4.474   6.435   3.868  2.5913  1.8066  1.3347
  316MOL0     H42619   4.515   6.606   3.890  1.5296 -1.7448  2.4582
  316MOL0     H42620   4.675   6.491   3.760  1.6169  1.6872 -0.5979
  316MOL0     H42621   4.879   6.419   3.690 -0.4566  0.6802 -0.6069
  316MOL0     H42622   4.843   6.272   3.595  1.6607  0.1229  1.4939
  316MOL0     H42623   4.940   6.399   3.521 -0.2692  1.9174  0.1821
  316MOL0     H42624   4.744   6.235   3.056  0.1646  0.8463  1.1202
  316MOL0     H42625   4.870   6.156   2.872  0.1406  0.0755 -0.3565
  316MOL0     H42626   5.295   5.998   3.012  0.4045 -1.4536  0.0685
  316MOL0     H42627   5.182   5.880   2.951 -2.6238  0.8190  1.3310
  316MOL0     H42628   5.385   5.854   2.874  0.7179  1.8003  0.9719
  316MOL0     H42629   5.278   5.887   2.728  0.1894 -0.2145 -1.0541
  316MOL0     H42630   5.513   5.980   2.715 -1.8603 -0.3593 -0.7586
  316MOL0     H42631   5.483   6.070   2.856  1.4594  1.2517 -1.2750
  316MOL0     H42632   5.301   6.095   2.616 -0.3253 -3.1018  1.4006
  316MOL0     H42633   5.295   6.202   2.750 -3.3588 -1.3881 -1.1750
  316MOL0     H42634   5.549   6.196   2.594 -0.7654 -1.6322  0.2730
  316MOL0     H42635   5.491   6.323   2.706 -1.0072 -0.9764  1.6152
  316MOL0     H42636   5.487   6.370   2.469  1.8517 -1.3159  0.6787
  316MOL0     H42637   5.357   6.243   2.443  0.3013 -1.6563  0.9943
  316MOL0     H42638   5.331   6.470   2.654  0.2096 -1.1881  1.3123
  316MOL0     H42639   5.200   6.371   2.582 -0.5110 -0.4138 -2.2690
  316MOL0     H42640   5.361   6.589   2.429 -1.4429  0.8440 -0.0007
  316MOL0     H42641   5.196   6.602   2.491  1.2901  1.7467 -0.7504
  316MOL0     H42642   5.233   6.187   3.110 -0.0782  0.9604 -0.1431
  316MOL0     H42643   5.100   6.312   3.288  0.0846  2.5152 -0.6019
  316MOL0     H42644   4.515   6.530   3.284  3.4088 -1.2187 -1.5434
  316MOL0     H42645   4.370   6.590   3.477  0.1189 -0.7076  2.6825
  316MOL0     H42646   2.961   5.755   3.990 -0.3403 -1.5622 -3.1435
  316MOL0     H42647   2.988   5.720   3.750  1.5677 -1.0583 -1.7348
  316MOL0     H42648   3.571   5.702   3.472  0.5192  1.1170 -0.5388
  316MOL0     H42649   3.621   5.734   3.235 -1.7266  2.7714 -2.3172
  316MOL0     H42650   3.315   5.650   2.961  1.6193 -0.1127  2.0965
  316MOL0     H42651   3.338   5.811   2.899 -1.7917  0.9162  4.2009
  316MOL0     H42652   3.490   5.551   2.853 -0.2087 -0.1214  0.2056
  316MOL0     H42653   3.572   5.707   2.806  0.3943  0.4207  1.9146
  316MOL0     H42654   3.349   5.750   2.681  3.5507  2.0559  1.8821
  316MOL0     H42655   3.337   5.565   2.704  0.2083 -0.2150  0.6045
  316MOL0     H42656   3.412   5.592   2.483  1.2373 -1.6044 -0.2554
  316MOL0     H42657   3.542   5.539   2.576  0.8302 -0.2586 -0.1251
  316MOL0     H42658   3.709   5.903   2.490  1.9609 -1.1043  1.3333
  316MOL0     H42659   3.218   5.686   3.132 -1.5472 -2.7703  2.0298
  316MOL0     H42660   3.145   5.658   3.369  0.0273 -3.0402 -0.9910
  317MOL0     O42661   6.411  10.669   6.710 -0.0488 -0.7504  0.0247
  317MOL0     C42662   6.488  10.722   6.791  0.3440  0.2349 -0.1378
  317MOL0     O42663   6.533  10.666   6.905  0.0611 -0.0430 -0.2326
  317MOL0     C42664   6.471  10.564   6.973  0.6140 -1.1806 -0.2178
  317MOL0     C42665   6.543  10.470   7.039 -0.5048  0.4824  0.3877
  317MOL0     C42666   6.479  10.369   7.106 -0.1961  0.6957 -0.5048
  317MOL0     C42667   6.342  10.365   7.112 -0.4220 -0.7072  0.1887
  317MOL0     O42668   6.300  10.266   7.180  0.4503 -0.4472  0.4725
  317MOL0     C42669   6.192  10.279   7.270 -0.6057  0.4279 -0.1155
  317MOL0     C42670   6.147  10.137   7.309 -0.2986  0.1856 -0.0426
  317MOL0     C42671   6.119  10.044   7.189  0.5666 -0.2574  0.1458
  317MOL0     C42672   5.993  10.090   7.110 -0.1882  0.2120  0.0385
  317MOL0     C42673   5.964  10.013   6.974  0.5797  0.3924 -0.8094
  317MOL0     C42674   5.922   9.860   7.000  0.1871  0.0337 -1.6642
  317MOL0     C42675   5.807   9.848   7.103 -0.4825 -0.1159  0.1320
  317MOL0     C42676   5.768   9.705   7.101 -0.9509  0.5738  0.1615
  317MOL0     N42677   5.707   9.651   6.977 -0.4525 -0.4729 -0.1740
  317MOL0     C42678   5.574   9.668   6.945  0.2189 -0.1507  0.2411
  317MOL0     C42679   5.556   9.603   6.825 -1.1507  0.2887  0.0169
  317MOL0     C42680   5.426   9.594   6.753 -0.0635  0.3116 -0.2830
  317MOL0     C42681   5.442   9.595   6.604 -0.4070  0.2269  1.2947
  317MOL0     C42682   5.510   9.471   6.533  0.5141  0.1798 -0.5059
  317MOL0     C42683   5.464   9.338   6.586  0.3383  0.4731  0.2920
  317MOL0     O42684   5.521   9.230   6.519  0.3794  0.3934 -0.7837
  317MOL0     C42685   5.658   9.198   6.524  0.9331 -0.7974  0.2797
  317MOL0     C42686   5.746   9.274   6.591  0.1022 -0.1447  0.6279
  317MOL0     C42687   5.884   9.247   6.579  0.0129  0.7857  0.2899
  317MOL0     C42688   5.990   9.329   6.654 -0.3117 -0.2939 -0.3323
  317MOL0     C42689   5.931   9.123   6.517  0.4887 -0.4528 -0.3490
  317MOL0     C42690   6.074   9.080   6.496  0.3856  0.6161 -0.2046
  317MOL0     O42691   6.165   9.185   6.467 -0.1879 -0.0942  0.5192
  317MOL0     C42692   6.288   9.167   6.534 -0.1094 -0.6812  0.3950
  317MOL0     C42693   6.318   9.083   6.650 -0.2257 -0.5014  0.9062
  317MOL0     C42694   6.452   9.071   6.698  0.5485 -0.4118  0.6677
  317MOL0     C42695   6.555   9.151   6.640 -1.2153 -0.0555 -0.5173
  317MOL0     O42696   6.685   9.157   6.694  0.4602  0.1990  0.1589
  317MOL0     C42697   6.745   9.035   6.729 -0.0578  0.0668  0.4257
  317MOL0     C42698   6.870   9.053   6.820 -0.6170  0.8622  0.3355
  317MOL0     C42699   6.964   8.924   6.815 -0.4400  0.3270 -0.6772
  317MOL0     C42700   6.891   8.818   6.895 -1.3131  0.3096  0.6294
  317MOL0     C42701   6.999   8.713   6.946 -0.3261 -0.2667 -0.0727
  317MOL0     C42702   6.931   8.614   7.040  0.7032  0.1296 -1.0775
  317MOL0     C42703   6.860   8.688   7.162 -0.5469  0.8583  0.1336
  317MOL0     C42704   6.817   8.581   7.272  0.5039  0.2625  0.0396
  317MOL0    Cl42705   6.690   8.655   7.372 -0.2367 -0.1068  0.4779
  317MOL0     C42706   6.526   9.225   6.526 -0.7476  0.4168  0.0266
  317MOL0     C42707   6.394   9.248   6.484  0.4378 -0.2744 -0.3893
  317MOL0     O42708   6.097   8.962   6.479 -0.0344  0.3556 -0.4297
  317MOL0     C42709   5.826   9.053   6.452  0.8996  0.6334 -1.0500
  317MOL0     C42710   5.691   9.085   6.461  0.3518  0.2646  0.8180
  317MOL0     N42711   5.687   9.553   6.782 -0.0405 -0.1690  1.0088
  317MOL0     N42712   5.773   9.587   6.878 -0.0755  0.6087  1.2198
  317MOL0     C42713   6.267  10.474   7.059  0.6014  0.5221 -0.4135
  317MOL0     C42714   6.332  10.571   6.982 -0.3087  0.2300  0.9621
  317MOL0     C42715   6.524  10.857   6.762  0.4658 -0.5502 -1.1375
  317MOL0     C42716   6.577  10.932   6.879 -0.3300  0.0634 -0.0515
  317MOL0     C42717   6.614  11.064   6.852 -1.1046 -0.0428  0.6836
  317MOL0     C42718   6.607  11.127   6.727  0.8722 -0.2020 -0.7807
  317MOL0     O42719   6.633  11.257   6.706  0.1996  0.5214 -0.1443
  317MOL0     C42720   6.674  11.348   6.807  0.3035 -0.1256  0.5159
  317MOL0     C42721   6.688  11.487   6.743 -0.1076 -1.1010 -0.1505
  317MOL0     C42722   6.762  11.579   6.838  0.6668  0.7023 -0.0661
  317MOL0     C42723   6.833  11.711   6.791  0.6377  0.0950 -0.3326
  317MOL0     C42724   6.735  11.812   6.732 -0.1664 -0.4499 -1.3734
  317MOL0     C42725   6.671  11.891   6.683 -0.2997 -0.6956  0.5242
  317MOL0     C42726   6.560  11.060   6.618 -0.4929  0.4419  0.8660
  317MOL0     C42727   6.532  10.923   6.633  0.5910  0.0806  0.2139
  317MOL0     H42728   6.651  10.470   7.028 -0.4857 -3.3991 -1.3983
  317MOL0     H42729   6.530  10.294   7.165 -2.3600  0.8844  1.7645
  317MOL0     H42730   6.234  10.323   7.361  4.4083 -0.2662 -1.7464
  317MOL0     H42731   6.109  10.344   7.239  0.7678  2.8718  0.9879
  317MOL0     H42732   6.227  10.101   7.374 -0.0454 -1.7306 -1.3248
  317MOL0     H42733   6.058  10.142   7.373  0.6113  0.8745  1.2137
  317MOL0     H42734   6.209  10.044   7.126  0.2870  0.1267 -0.2560
  317MOL0     H42735   6.114   9.939   7.218 -2.1632 -0.1957  0.1638
  317MOL0     H42736   5.911  10.097   7.182  0.8450  0.9012  1.1800
  317MOL0     H42737   6.003  10.191   7.069 -0.5125 -0.6253 -2.2713
  317MOL0     H42738   5.880  10.064   6.925  0.0810 -3.0142 -3.9557
  317MOL0     H42739   6.051  10.029   6.910  1.0389 -0.0914 -0.3097
  317MOL0     H42740   5.901   9.809   6.905  0.5150 -2.3552 -0.5366
  317MOL0     H42741   6.012   9.818   7.045 -0.0186 -1.1809 -2.3177
  317MOL0     H42742   5.841   9.877   7.203  1.1912  1.2963 -0.7959
  317MOL0     H42743   5.721   9.911   7.080 -1.2207 -1.9746 -2.7033
  317MOL0     H42744   5.716   9.675   7.193 -0.9201 -3.8407 -1.0682
  317MOL0     H42745   5.866   9.659   7.111  0.3372  2.8759 -1.1633
  317MOL0     H42746   5.493   9.711   7.003  0.9484  2.8543 -0.8026
  317MOL0     H42747   5.371   9.506   6.785 -1.3868  1.2034 -0.0253
  317MOL0     H42748   5.374   9.680   6.796  1.6946  0.3498  1.9616
  317MOL0     H42749   5.495   9.686   6.573 -1.3357  0.2912 -0.1927
  317MOL0     H42750   5.342   9.598   6.560 -0.4694  0.8472  1.4665
  317MOL0     H42751   5.617   9.490   6.526  0.7111 -0.1893  1.0749
  317MOL0     H42752   5.480   9.480   6.428  0.3009  1.9581 -0.3370
  317MOL0     H42753   5.355   9.337   6.578  0.1856 -0.4711  2.0246
  317MOL0     H42754   5.490   9.332   6.692 -0.2633 -0.4870  0.3876
  317MOL0     H42755   5.716   9.359   6.652  1.4999  0.3059  0.7266
  317MOL0     H42756   6.084   9.352   6.602  2.5821 -3.1990  3.1265
  317MOL0     H42757   5.951   9.427   6.685 -0.5944 -0.7887  0.9320
  317MOL0     H42758   6.025   9.273   6.741  1.7184 -0.4496 -1.1818
  317MOL0     H42759   6.242   9.029   6.706 -1.2902  2.1838  2.2145
  317MOL0     H42760   6.480   9.035   6.797  0.4638  2.4048  1.8105
  317MOL0     H42761   6.674   8.971   6.783  1.1707 -1.2445  0.5248
  317MOL0     H42762   6.769   8.996   6.630 -1.9299  2.1157 -0.9228
  317MOL0     H42763   6.930   9.139   6.790  3.4234 -1.4703  0.9904
  317MOL0     H42764   6.830   9.061   6.921 -0.5151 -1.5304  0.6214
  317MOL0     H42765   7.055   8.949   6.870  0.8035 -0.3946 -2.3428
  317MOL0     H42766   6.995   8.905   6.712 -0.5954 -4.2467 -0.0508
  317MOL0     H42767   6.839   8.870   6.976 -1.2054 -0.1562  0.9993
  317MOL0     H42768   6.811   8.769   6.839 -1.3892  1.2724 -0.1514
  317MOL0     H42769   7.074   8.773   7.000 -1.6883 -0.9963  2.8749
  317MOL0     H42770   7.045   8.662   6.861  0.7803  2.1764 -1.0193
  317MOL0     H42771   6.870   8.547   6.979  0.4048 -2.0593  1.4422
  317MOL0     H42772   7.009   8.553   7.085  0.4426 -0.9953 -2.1109
  317MOL0     H42773   6.774   8.750   7.136 -1.0489 -1.4923 -5.0119
  317MOL0     H42774   6.941   8.755   7.193  0.2623  1.0103 -2.1458
  317MOL0     H42775   6.906   8.560   7.331  0.9106 -2.2143 -1.3334
  317MOL0     H42776   6.772   8.490   7.231 -0.6167  0.2161  1.2830
  317MOL0     H42777   6.599   9.298   6.492  1.6364 -0.7038  2.3581
  317MOL0     H42778   6.366   9.321   6.410 -3.5915  0.6361  1.7746
  317MOL0     H42779   5.859   8.970   6.390  3.6436  1.0770 -0.3462
  317MOL0     H42780   5.614   9.029   6.409 -2.0327  4.3684 -0.4896
  317MOL0     H42781   6.159  10.481   7.064  0.4773 -1.3251  0.8228
  317MOL0     H42782   6.270  10.649   6.940  0.2656  0.3950  0.4048
  317MOL0     H42783   6.550  10.902   6.980 -3.1905 -2.2695 -1.3616
  317MOL0     H42784   6.643  11.127   6.937  1.6163 -0.5481  0.2251
  317MOL0     H42785   6.601  11.349   6.889  0.7987 -2.5476  1.0657
  317MOL0     H42786   6.770  11.322   6.852  0.4467  2.6253  2.0446
  317MOL0     H42787   6.591  11.538   6.735  1.1036  1.1702 -1.5362
  317MOL0     H42788   6.736  11.476   6.646  0.1597  0.1589 -0.1828
  317MOL0     H42789   6.846  11.525   6.884  0.7530 -3.0468 -3.9461
  317MOL0     H42790   6.680  11.605   6.905  0.4904  0.8125 -0.3241
  317MOL0     H42791   6.913  11.678   6.724  0.9626 -1.2130  0.6647
  317MOL0     H42792   6.892  11.759   6.869  0.4852  0.9899 -0.7541
  317MOL0     H42793   6.611  11.971   6.643 -1.1284 -2.2744 -1.5835
  317MOL0     H42794   6.551  11.111   6.523  0.2642 -0.6412  0.1813
  317MOL0     H42795   6.500  10.868   6.546  2.8257 -0.1188 -0.5399
  318MOL0     O42796   2.659   8.456   4.324  0.0119  0.6284  0.4991
  318MOL0     C42797   2.674   8.569   4.372 -0.6092  0.2990  0.4210
  318MOL0     O42798   2.597   8.629   4.464 -0.0183 -0.5870  0.6999
  318MOL0     C42799   2.475   8.572   4.492  0.1066 -0.3375  0.0878
  318MOL0     C42800   2.364   8.659   4.483  0.0760  0.6092  0.2446
  318MOL0     C42801   2.238   8.625   4.539 -0.2306 -0.2988  0.4640
  318MOL0     C42802   2.218   8.496   4.586 -1.1582 -0.0978  0.2760
  318MOL0     O42803   2.095   8.464   4.620  1.0112 -0.4109  0.3758
  318MOL0     C42804   2.076   8.389   4.740  0.6904  0.3469 -0.4061
  318MOL0     C42805   2.010   8.254   4.699 -0.6949 -0.1931 -0.1606
  318MOL0     C42806   2.051   8.151   4.805 -0.1809 -0.2100  0.2468
  318MOL0     C42807   1.974   8.169   4.935 -0.9667  0.5066  0.4683
  318MOL0     C42808   2.049   8.115   5.051  0.0681  0.2277 -0.0752
  318MOL0     C42809   1.975   8.133   5.187  1.0349 -0.2198  0.7141
  318MOL0     C42810   2.054   8.067   5.293 -0.8590  0.2216  0.0452
  318MOL0     C42811   1.957   8.044   5.415  0.3463  0.7793 -0.2733
  318MOL0     N42812   1.877   8.164   5.457 -0.0205  0.4448 -0.5187
  318MOL0     C42813   1.744   8.188   5.452  0.8128  1.0514 -0.3347
  318MOL0     C42814   1.723   8.293   5.531 -0.4501  0.0085  0.6759
  318MOL0     C42815   1.604   8.380   5.559  0.0795  0.4205  0.6464
  318MOL0     C42816   1.578   8.487   5.449  0.7474 -0.5034 -0.2557
  318MOL0     C42817   1.455   8.574   5.478  0.7471 -0.2394 -0.0452
  318MOL0     C42818   1.327   8.509   5.428  0.4025 -0.2654  0.0134
  318MOL0     O42819   1.218   8.589   5.463 -0.1467 -0.1037 -0.3417
  318MOL0     C42820   1.170   8.683   5.380  0.3723  0.7249  0.4411
  318MOL0     C42821   1.132   8.804   5.438  0.1348  0.7580 -0.5348
  318MOL0     C42822   1.054   8.895   5.368  0.4804 -0.1481  0.2479
  318MOL0     C42823   1.025   9.024   5.440  0.1995  0.3965 -0.1287
  318MOL0     C42824   1.025   8.885   5.227 -0.4056 -0.0104 -0.2224
  318MOL0     C42825   0.948   8.985   5.145 -0.1317 -0.7310  0.3728
  318MOL0     O42826   0.987   8.989   5.016 -1.8354 -0.3664 -0.0475
  318MOL0     C42827   0.909   9.060   4.928  0.0392 -0.0306 -0.4797
  318MOL0     C42828   0.770   9.043   4.922  0.1393 -0.0153  0.2675
  318MOL0     C42829   0.703   9.115   4.817 -0.3848 -0.0414  0.2242
  318MOL0     C42830   0.767   9.196   4.722 -0.0966 -0.2270 -0.8117
  318MOL0     O42831   0.692   9.263   4.623 -0.3283 -0.0863  0.1459
  318MOL0     C42832   0.727   9.400   4.587 -0.4859  0.4525  0.4547
  318MOL0     C42833   0.611   9.450   4.503 -0.1809 -0.4372  0.2514
  318MOL0     C42834   0.580   9.600   4.528  0.8517  0.3532 -0.0861
  318MOL0     C42835   0.432   9.635   4.519 -0.3562  0.0940 -0.7076
  318MOL0     C42836   0.352   9.622   4.655 -0.0144 -0.0794  0.5639
  318MOL0     C42837   0.245   9.724   4.667  0.6672  1.4219  0.2116
  318MOL0     C42838   0.132   9.708   4.561 -0.1493 -0.7167  0.3487
  318MOL0     C42839   0.052   9.578   4.555  0.6021 -0.5415 -0.7961
  318MOL0    Cl42840  -0.064   9.573   4.424 -0.0581  0.2183 -0.0566
  318MOL0     C42841   0.906   9.215   4.745  0.3528  0.7608 -0.1949
  318MOL0     C42842   0.976   9.149   4.846 -0.2848  1.3689  0.8511
  318MOL0     O42843   0.859   9.054   5.201  0.0769  0.2173 -0.5680
  318MOL0     C42844   1.073   8.774   5.160  0.4946  0.9764 -0.8348
  318MOL0     C42845   1.139   8.670   5.239  0.3112 -0.1163  0.0984
  318MOL0     N42846   1.847   8.331   5.585  0.1432  0.5293 -0.1360
  318MOL0     N42847   1.938   8.251   5.541  0.1082  0.2662  0.1822
  318MOL0     C42848   2.332   8.410   4.588  0.2902  0.1354  0.3862
  318MOL0     C42849   2.458   8.446   4.539 -0.0989 -0.0235  0.5345
  318MOL0     C42850   2.772   8.642   4.308  0.6609 -0.4198 -0.9338
  318MOL0     C42851   2.821   8.613   4.177  0.1804 -0.6011 -1.0217
  318MOL0     C42852   2.907   8.703   4.112 -0.5353  0.1652 -0.1377
  318MOL0     C42853   2.944   8.819   4.177  0.1696 -1.0266  0.4537
  318MOL0     O42854   3.017   8.918   4.110 -0.0654 -0.3891  0.6854
  318MOL0     C42855   2.929   8.981   4.001 -0.5329  0.3563  0.3137
  318MOL0     C42856   2.998   9.097   3.944  0.2857 -0.6459 -0.2020
  318MOL0     C42857   2.981   9.216   4.028 -0.7551 -0.7648 -0.1988
  318MOL0     C42858   3.004   9.348   3.959 -0.2707 -0.4218 -0.8421
  318MOL0     C42859   3.150   9.363   3.928  0.0400  0.4447  0.3760
  318MOL0     C42860   3.263   9.397   3.899 -0.5104 -0.9744  0.2669
  318MOL0     C42861   2.908   8.848   4.305 -0.6849 -0.0954 -0.3758
  318MOL0     C42862   2.822   8.759   4.373  0.0292 -0.1300 -0.1893
  318MOL0     H42863   2.387   8.761   4.453  3.0890  0.8891  2.9497
  318MOL0     H42864   2.163   8.703   4.536  2.6714  2.6711 -1.3587
  318MOL0     H42865   2.172   8.383   4.793  0.3950 -0.7727  0.0246
  318MOL0     H42866   2.000   8.439   4.800  2.8492  3.3770  0.0679
  318MOL0     H42867   1.901   8.258   4.689 -0.8462 -0.7690  1.1242
  318MOL0     H42868   2.063   8.235   4.605  2.1986  1.0130  1.1010
  318MOL0     H42869   2.028   8.048   4.777 -0.9466  0.0106  0.0447
  318MOL0     H42870   2.159   8.144   4.823 -0.0768  1.8160  0.6530
  318MOL0     H42871   1.965   8.277   4.945 -0.2708  1.0887 -3.5340
  318MOL0     H42872   1.874   8.129   4.920 -2.2051  3.2851  0.7954
  318MOL0     H42873   2.053   8.009   5.023 -1.0110  0.5790 -1.7293
  318MOL0     H42874   2.154   8.141   5.045  0.5463 -1.8205 -1.6448
  318MOL0     H42875   1.952   8.237   5.210 -1.7090 -0.7620  0.7469
  318MOL0     H42876   1.883   8.074   5.188  1.0047 -0.1633  1.7776
  318MOL0     H42877   2.105   7.974   5.264  0.5307  1.0067 -0.1104
  318MOL0     H42878   2.132   8.138   5.324  0.3713  0.8981 -3.9866
  318MOL0     H42879   2.022   8.022   5.500 -3.2525  2.3826  3.1984
  318MOL0     H42880   1.888   7.959   5.408 -0.1070  0.6333  3.5717
  318MOL0     H42881   1.668   8.132   5.399 -0.1890  0.9020  1.1862
  318MOL0     H42882   1.521   8.311   5.570 -0.9836  1.5416 -0.0373
  318MOL0     H42883   1.625   8.425   5.656  0.5128  3.1806 -0.6225
  318MOL0     H42884   1.560   8.444   5.351 -1.7550  1.0107 -0.5375
  318MOL0     H42885   1.665   8.552   5.434  1.3240 -1.6311 -2.1830
  318MOL0     H42886   1.470   8.671   5.429  1.4447 -0.5171 -0.3985
  318MOL0     H42887   1.450   8.599   5.584 -0.3164  4.2573 -0.9628
  318MOL0     H42888   1.318   8.406   5.465  2.8052 -0.9581 -1.1206
  318MOL0     H42889   1.335   8.499   5.319  4.9187 -1.2523  0.2304
  318MOL0     H42890   1.158   8.830   5.540  2.4206  3.2415 -1.6293
  318MOL0     H42891   1.031   9.008   5.548  1.7460  0.2610 -0.2157
  318MOL0     H42892   1.096   9.100   5.404  1.5121 -0.1317  1.2428
  318MOL0     H42893   0.921   9.052   5.421  0.2309 -0.4533 -1.7728
  318MOL0     H42894   0.717   8.988   4.999 -3.8456  0.8243 -1.5909
  318MOL0     H42895   0.594   9.120   4.814 -0.3312  0.8210 -1.0343
  318MOL0     H42896   0.742   9.468   4.671  0.2025  1.5797 -0.5588
  318MOL0     H42897   0.822   9.406   4.532 -0.7946 -0.6341 -0.2441
  318MOL0     H42898   0.622   9.446   4.394  2.2492 -1.5964  0.4646
  318MOL0     H42899   0.525   9.387   4.526 -0.9682  0.6007  0.2237
  318MOL0     H42900   0.637   9.652   4.450  0.0485  0.1455 -0.8260
  318MOL0     H42901   0.601   9.628   4.632  1.3190  0.0601 -0.0940
  318MOL0     H42902   0.416   9.741   4.496 -2.5131  0.4251  1.8897
  318MOL0     H42903   0.389   9.582   4.434  2.1702  0.4721 -2.3326
  318MOL0     H42904   0.414   9.648   4.741  0.7128  0.0204  0.0284
  318MOL0     H42905   0.311   9.523   4.676  1.1020 -0.0860  3.0463
  318MOL0     H42906   0.187   9.709   4.758 -0.5135  2.1645 -0.3856
  318MOL0     H42907   0.293   9.822   4.665 -0.1103  1.8451  1.4903
  318MOL0     H42908   0.185   9.714   4.466  1.6416  2.2620  1.3938
  318MOL0     H42909   0.064   9.794   4.570 -0.4093 -0.9557  0.6801
  318MOL0     H42910   0.004   9.574   4.653  0.6655  0.8657 -0.6775
  318MOL0     H42911   0.121   9.494   4.552  0.7897 -0.4552  0.5273
  318MOL0     H42912   0.966   9.271   4.674 -0.2715 -1.2309 -2.4363
  318MOL0     H42913   1.083   9.164   4.856 -0.0510  0.0873  0.4379
  318MOL0     H42914   1.049   8.757   5.056 -2.0979  2.6406 -0.6032
  318MOL0     H42915   1.157   8.574   5.191  2.0566  1.3445 -2.4030
  318MOL0     H42916   2.324   8.307   4.621  1.8347  0.0721  0.6243
  318MOL0     H42917   2.542   8.380   4.555  2.3742  2.9959  0.8930
  318MOL0     H42918   2.789   8.527   4.120  0.5672 -1.4412 -0.0073
  318MOL0     H42919   2.940   8.690   4.010 -0.7545  2.0396 -0.4743
  318MOL0     H42920   2.919   8.905   3.922  1.3865  2.3231 -1.9627
  318MOL0     H42921   2.829   9.010   4.036 -0.3368  3.6802 -1.5350
  318MOL0     H42922   2.950   9.131   3.851 -0.6323  3.1076  1.4479
  318MOL0     H42923   3.105   9.080   3.932  0.3500 -1.2185  1.0166
  318MOL0     H42924   3.043   9.209   4.117 -0.0284  0.9928 -0.5175
  318MOL0     H42925   2.879   9.231   4.063 -0.5476  3.1339 -0.7781
  318MOL0     H42926   2.987   9.423   4.036 -1.0672  0.6625 -2.0244
  318MOL0     H42927   2.941   9.367   3.871 -1.4572  3.4462  0.6516
  318MOL0     H42928   3.362   9.435   3.879 -0.6293 -1.2788 -1.0320
  318MOL0     H42929   2.943   8.948   4.329 -0.6493  0.5829 -3.0334
  318MOL0     H42930   2.787   8.782   4.473  3.5670 -0.1745  1.1991
  319MOL0     O42931   1.555   5.238   1.526  0.5047  0.6515 -0.6342
  319MOL0     C42932   1.516   5.215   1.409  0.5167  0.6350 -0.2490
  319MOL0     O42933   1.551   5.292   1.302  0.4993 -0.2180  0.0046
  319MOL0     C42934   1.669   5.368   1.312  1.6188 -0.8268  0.4947
  319MOL0     C42935   1.792   5.330   1.380  0.4892 -0.1021 -0.1928
  319MOL0     C42936   1.893   5.421   1.387  1.0871  0.1088 -0.9064
  319MOL0     C42937   1.896   5.541   1.320  0.4288  0.9074  0.0421
  319MOL0     O42938   1.996   5.624   1.350 -1.3625  0.4057 -0.0777
  319MOL0     C42939   2.033   5.678   1.223  0.6471  0.1937 -0.1680
  319MOL0     C42940   2.183   5.705   1.197  0.0580  0.1300  0.3372
  319MOL0     C42941   2.245   5.787   1.304  0.4503 -0.7440 -0.2702
  319MOL0     C42942   2.394   5.768   1.306 -0.1636  0.6145 -0.8318
  319MOL0     C42943   2.448   5.881   1.399  0.2494 -0.1836 -0.0691
  319MOL0     C42944   2.451   5.835   1.544 -0.6590 -0.0314 -0.0386
  319MOL0     C42945   2.541   5.935   1.632  0.2927  0.8598  0.0252
  319MOL0     C42946   2.575   5.890   1.773 -0.4598 -0.6767  0.1954
  319MOL0     N42947   2.675   5.981   1.840  0.0945 -0.1077 -0.2836
  319MOL0     C42948   2.804   5.967   1.829 -0.1470 -0.4641  0.3812
  319MOL0     C42949   2.862   6.072   1.897 -0.1881  0.1615  0.1562
  319MOL0     C42950   2.998   6.135   1.901 -0.4270 -0.4102  0.5247
  319MOL0     C42951   3.085   6.033   1.975  0.1968  0.1198  0.3214
  319MOL0     C42952   3.216   6.094   2.029  0.3093  1.0146  0.5001
  319MOL0     C42953   3.333   6.082   1.941  0.2006 -0.5093 -0.2248
  319MOL0     O42954   3.446   6.103   2.028  0.5535 -0.0396  0.1332
  319MOL0     C42955   3.532   6.204   1.983  0.0019  0.9442  1.2923
  319MOL0     C42956   3.664   6.160   1.946  0.6055  0.0051 -0.0658
  319MOL0     C42957   3.750   6.250   1.883 -0.8194 -0.1400  0.2769
  319MOL0     C42958   3.882   6.184   1.852 -0.2013  0.0584  0.0930
  319MOL0     C42959   3.726   6.393   1.871  0.9105  0.5989 -0.3853
  319MOL0     C42960   3.829   6.502   1.843  0.3303 -0.2688 -0.0507
  319MOL0     O42961   3.783   6.630   1.836  0.0973  0.4157 -0.7444
  319MOL0     C42962   3.859   6.743   1.819 -0.4884 -0.3120  0.1778
  319MOL0     C42963   3.793   6.866   1.834  0.7363 -0.0028  0.3393
  319MOL0     C42964   3.846   6.995   1.812  0.1421 -0.0146  0.9946
  319MOL0     C42965   3.980   7.010   1.784 -0.3565 -0.2958 -0.4496
  319MOL0     O42966   4.038   7.132   1.764 -0.4255 -0.4334  0.7076
  319MOL0     C42967   4.024   7.238   1.856 -0.1337 -0.2875 -0.1303
  319MOL0     C42968   4.112   7.355   1.817  0.6050 -0.0059 -0.4409
  319MOL0     C42969   4.086   7.395   1.673  0.6942 -0.1674 -0.1065
  319MOL0     C42970   4.150   7.532   1.650 -0.1674  0.1175 -1.3527
  319MOL0     C42971   4.064   7.624   1.558  0.0680 -0.4028 -0.0848
  319MOL0     C42972   4.108   7.767   1.547  0.1048 -0.0353  0.1941
  319MOL0     C42973   4.089   7.854   1.669  0.3685  0.0439 -0.2708
  319MOL0     C42974   4.079   8.004   1.626  0.2990  0.3023 -0.6308
  319MOL0    Cl42975   4.234   8.051   1.536 -0.0339  0.0875  0.0115
  319MOL0     C42976   4.051   6.890   1.776 -0.5130 -0.1139 -0.6258
  319MOL0     C42977   3.993   6.765   1.793  0.0560 -0.1117  0.6138
  319MOL0     O42978   3.937   6.465   1.806 -0.0668 -0.0415  0.3945
  319MOL0     C42979   3.593   6.429   1.909  0.0126  0.7121  0.6082
  319MOL0     C42980   3.497   6.336   1.957  0.4678  0.3989  0.2069
  319MOL0     N42981   2.758   6.148   1.936 -0.3225  0.2622 -0.1874
  319MOL0     N42982   2.643   6.100   1.899  0.2683 -0.2304  0.0375
  319MOL0     C42983   1.770   5.582   1.247 -0.3775 -0.0281  0.6341
  319MOL0     C42984   1.658   5.495   1.251 -0.2112  0.2135  0.6999
  319MOL0     C42985   1.411   5.109   1.374 -0.0713 -0.7702  0.1386
  319MOL0     C42986   1.372   5.019   1.471  0.2153  0.3506  1.0447
  319MOL0     C42987   1.276   4.915   1.448 -0.3882  0.5915  0.6861
  319MOL0     C42988   1.214   4.911   1.323 -0.0209  0.2962  0.1349
  319MOL0     O42989   1.123   4.813   1.286 -0.5579  0.3946 -0.0338
  319MOL0     C42990   1.125   4.692   1.369 -0.7941 -0.3290 -0.0340
  319MOL0     C42991   1.023   4.582   1.328  0.5296 -0.6879 -0.1513
  319MOL0     C42992   1.072   4.447   1.370 -0.0225  0.1217 -0.1694
  319MOL0     C42993   1.043   4.417   1.516 -0.5796  0.3882  0.2133
  319MOL0     C42994   0.909   4.385   1.547  0.5392 -0.2162 -0.6765
  319MOL0     C42995   0.808   4.373   1.627  0.1328  0.1913  0.2313
  319MOL0     C42996   1.254   4.997   1.221  0.0796 -0.9188 -0.5117
  319MOL0     C42997   1.355   5.099   1.243  0.7382 -0.6382 -0.0461
  319MOL0     H42998   1.813   5.241   1.437  0.9877  0.4449  0.4897
  319MOL0     H42999   1.985   5.405   1.442 -0.4512  0.7155  2.0542
  319MOL0     H43000   1.992   5.621   1.139 -2.3644 -0.4733  1.5946
  319MOL0     H43001   1.995   5.780   1.213  3.6013  1.3108 -1.3129
  319MOL0     H43002   2.226   5.606   1.184 -2.1088 -0.6777 -1.2932
  319MOL0     H43003   2.195   5.752   1.099  0.1511  0.7488  0.6337
  319MOL0     H43004   2.236   5.896   1.293  1.4961 -0.2831  2.6389
  319MOL0     H43005   2.199   5.776   1.402 -1.3828  1.9556 -0.7080
  319MOL0     H43006   2.429   5.671   1.342  1.4649  1.0185 -1.2518
  319MOL0     H43007   2.440   5.786   1.208  0.8165 -0.4966 -0.5980
  319MOL0     H43008   2.554   5.896   1.374 -0.1293  1.4174 -0.8144
  319MOL0     H43009   2.395   5.976   1.396  2.1933  1.1367  2.9210
  319MOL0     H43010   2.352   5.826   1.589  1.0894 -2.9408  3.7242
  319MOL0     H43011   2.496   5.736   1.551  0.5371  0.4170 -1.0522
  319MOL0     H43012   2.638   5.960   1.586 -0.3966 -0.1945 -2.1481
  319MOL0     H43013   2.477   6.023   1.644  0.0034  0.6793 -0.1753
  319MOL0     H43014   2.607   5.786   1.776  2.3706  0.1397  2.1348
  319MOL0     H43015   2.483   5.903   1.832 -1.0121  1.7572 -1.0875
  319MOL0     H43016   2.857   5.881   1.788  2.2146  1.3547 -0.6520
  319MOL0     H43017   3.036   6.155   1.800  1.4104 -3.0484  0.5861
  319MOL0     H43018   2.996   6.230   1.956 -0.5055  0.5143 -1.0194
  319MOL0     H43019   3.113   5.936   1.933  0.4939 -0.2951  1.4283
  319MOL0     H43020   3.030   5.996   2.063  0.3372  0.3202  0.4957
  319MOL0     H43021   3.233   6.054   2.129 -1.5260 -3.2175 -0.6897
  319MOL0     H43022   3.191   6.200   2.039  2.4862  1.7105 -0.8243
  319MOL0     H43023   3.333   6.152   1.857  0.5632 -1.1402 -0.7570
  319MOL0     H43024   3.343   5.980   1.904  2.0342 -0.4050 -0.1178
  319MOL0     H43025   3.697   6.057   1.954  2.5643  0.7411  3.7063
  319MOL0     H43026   3.961   6.256   1.878  1.2496 -1.8743  1.2619
  319MOL0     H43027   3.900   6.089   1.903  1.1434  0.8791  1.2275
  319MOL0     H43028   3.891   6.171   1.743  0.0154  2.5315 -0.2483
  319MOL0     H43029   3.684   6.865   1.834  0.6651 -1.2574 -2.4047
  319MOL0     H43030   3.784   7.084   1.817  2.1868  1.5272  0.6080
  319MOL0     H43031   3.917   7.259   1.862 -0.3651 -1.7642  3.0871
  319MOL0     H43032   4.058   7.208   1.956  1.3841 -0.4810 -0.6679
  319MOL0     H43033   4.085   7.431   1.890 -0.6754 -2.5972  1.9898
  319MOL0     H43034   4.213   7.316   1.829  0.5015 -0.2692 -0.4171
  319MOL0     H43035   3.979   7.415   1.662 -0.1877 -4.5525 -1.4143
  319MOL0     H43036   4.114   7.318   1.600 -0.9984 -0.9020 -0.0313
  319MOL0     H43037   4.174   7.578   1.746  1.6522 -2.4019 -0.4860
  319MOL0     H43038   4.252   7.520   1.613  0.9815 -2.3036  2.1121
  319MOL0     H43039   3.967   7.619   1.608  0.3843  0.1366  0.5900
  319MOL0     H43040   4.055   7.588   1.455  0.1696  3.9451 -1.8191
  319MOL0     H43041   4.215   7.757   1.526 -0.4978  1.1518 -4.7966
  319MOL0     H43042   4.063   7.814   1.459 -3.6928 -3.5193 -0.0329
  319MOL0     H43043   4.178   7.844   1.731  0.5527  1.5427 -0.2567
  319MOL0     H43044   4.001   7.820   1.724  1.3968 -0.9287  0.8315
  319MOL0     H43045   4.073   8.059   1.720  3.8039  3.7720 -2.1531
  319MOL0     H43046   3.989   8.032   1.570 -1.0323 -0.4186  1.0390
  319MOL0     H43047   4.156   6.879   1.749 -0.8917  0.1479 -2.2557
  319MOL0     H43048   4.053   6.678   1.767 -1.7521 -1.1713 -0.1836
  319MOL0     H43049   3.553   6.530   1.905 -0.2093  0.7037  2.0712
  319MOL0     H43050   3.398   6.365   1.991  1.2485  2.7207  0.7117
  319MOL0     H43051   1.769   5.682   1.206  3.5592 -0.0739  0.0468
  319MOL0     H43052   1.569   5.539   1.207 -0.6645 -0.2456  1.1482
  319MOL0     H43053   1.428   5.017   1.564  0.9504 -1.4311  0.5991
  319MOL0     H43054   1.251   4.850   1.531  2.3554 -0.7111  0.6109
  319MOL0     H43055   1.229   4.658   1.362  0.4203  3.0337  0.2653
  319MOL0     H43056   1.096   4.719   1.471  1.5411  1.4657  0.2238
  319MOL0     H43057   1.005   4.598   1.221 -1.8194 -2.7112 -0.1375
  319MOL0     H43058   0.921   4.582   1.368  1.8941 -1.6691  3.7921
  319MOL0     H43059   1.181   4.441   1.358  0.1885 -0.2678  1.6679
  319MOL0     H43060   1.032   4.371   1.302  1.5146 -0.0094 -0.9727
  319MOL0     H43061   1.085   4.483   1.592  1.4860  0.5459 -0.9771
  319MOL0     H43062   1.095   4.323   1.537 -1.6156  0.1384  1.7830
  319MOL0     H43063   0.726   4.363   1.694  0.1544  1.2735  0.4412
  319MOL0     H43064   1.207   4.981   1.125  2.0987  0.3471 -1.7893
  319MOL0     H43065   1.391   5.157   1.158  2.4166 -0.7821  0.5356
  320MOL0     O43066   5.874   7.660   8.568 -0.1501  0.0171 -0.0106
  320MOL0     C43067   5.878   7.785   8.538 -0.9180  0.1930 -0.3548
  320MOL0     O43068   5.850   7.832   8.412  0.9672 -0.2537 -0.1515
  320MOL0     C43069   5.853   7.736   8.310 -0.4842 -0.2320  0.8078
  320MOL0     C43070   5.747   7.649   8.301  0.6464  0.6506 -0.0863
  320MOL0     C43071   5.734   7.552   8.204  0.5534 -1.3995 -0.3311
  320MOL0     C43072   5.830   7.536   8.100  0.3402 -0.0794 -0.3542
  320MOL0     O43073   5.821   7.457   7.988 -0.2126  0.5199 -0.2447
  320MOL0     C43074   5.695   7.399   7.969  0.0710 -0.7862  0.0995
  320MOL0     C43075   5.698   7.312   7.851 -0.2291  0.5691 -0.3593
  320MOL0     C43076   5.706   7.378   7.715  0.9720 -1.0832 -0.1594
  320MOL0     C43077   5.816   7.331   7.626 -0.0585  0.1071 -0.3185
  320MOL0     C43078   5.844   7.417   7.499  0.3280  0.2831 -0.8925
  320MOL0     C43079   5.877   7.564   7.519 -0.5735 -0.6665 -0.1380
  320MOL0     C43080   5.987   7.581   7.626 -0.6922  0.2938 -1.0376
  320MOL0     C43081   6.122   7.504   7.607  1.0290  0.0215  0.7959
  320MOL0     N43082   6.216   7.543   7.708  0.3333  0.0803 -0.9315
  320MOL0     C43083   6.276   7.453   7.792 -0.8627 -0.5283 -0.5873
  320MOL0     C43084   6.361   7.531   7.866  0.0200  0.6574  0.9447
  320MOL0     C43085   6.464   7.491   7.973 -1.0388  0.5676  0.6339
  320MOL0     C43086   6.590   7.436   7.918 -0.5686 -0.9347 -0.2538
  320MOL0     C43087   6.670   7.352   8.017  0.4666 -0.2593 -0.5692
  320MOL0     C43088   6.598   7.221   8.052  0.0637 -0.3869 -0.2000
  320MOL0     O43089   6.569   7.160   7.926  0.3662 -0.0949  0.0599
  320MOL0     C43090   6.523   7.033   7.925  0.1001  0.2716  0.4982
  320MOL0     C43091   6.490   6.973   7.807 -0.1966  0.0335 -0.1604
  320MOL0     C43092   6.425   6.845   7.803  0.5033  0.5013  0.0133
  320MOL0     C43093   6.403   6.788   7.663  0.2490 -0.3662 -0.2308
  320MOL0     C43094   6.401   6.767   7.919 -0.2633  0.5431 -0.8609
  320MOL0     C43095   6.342   6.626   7.920 -0.1714 -0.8718 -0.8098
  320MOL0     O43096   6.294   6.582   7.805  0.3798  0.4769  0.1569
  320MOL0     C43097   6.196   6.481   7.814 -0.7306  0.3758 -0.3785
  320MOL0     C43098   6.231   6.352   7.761  0.1620 -0.2112  0.5906
  320MOL0     C43099   6.140   6.244   7.752 -1.1619  0.4788 -0.7620
  320MOL0     C43100   6.007   6.264   7.808 -0.4515 -0.1022 -0.0892
  320MOL0     O43101   5.899   6.186   7.800 -0.2040  0.3380 -0.2459
  320MOL0     C43102   5.913   6.084   7.703  0.4632 -0.5237 -0.4087
  320MOL0     C43103   5.780   6.013   7.677  0.6281 -0.6795  0.3060
  320MOL0     C43104   5.690   6.104   7.592  0.0590 -0.4818  0.6311
  320MOL0     C43105   5.561   6.028   7.555  0.5168 -0.6641 -0.0370
  320MOL0     C43106   5.478   6.118   7.463 -0.4194 -0.3521 -0.5319
  320MOL0     C43107   5.327   6.086   7.484 -0.6488  0.9169 -0.2438
  320MOL0     C43108   5.227   6.160   7.384 -0.8360 -0.3148  0.3006
  320MOL0     C43109   5.091   6.122   7.409  0.2787  0.5266  0.0257
  320MOL0    Cl43110   4.984   6.228   7.312  0.4874 -0.0662  0.1244
  320MOL0     C43111   5.988   6.386   7.877  0.2524  0.2925  0.9404
  320MOL0     C43112   6.074   6.497   7.875  0.7880 -0.2705  0.4421
  320MOL0     O43113   6.317   6.572   8.031 -0.1201 -1.0700 -0.1354
  320MOL0     C43114   6.433   6.831   8.040 -0.4872 -0.1735  0.1356
  320MOL0     C43115   6.500   6.952   8.042  1.0534 -0.8687 -0.7001
  320MOL0     N43116   6.342   7.662   7.832  0.6896 -0.2866  0.5097
  320MOL0     N43117   6.261   7.670   7.739  0.2271  0.1765 -0.0999
  320MOL0     C43118   5.944   7.616   8.109 -0.2434 -0.2211  0.7809
  320MOL0     C43119   5.953   7.719   8.216 -0.4941  0.4240 -1.0245
  320MOL0     C43120   5.850   7.881   8.651 -0.3042 -0.6350  0.2384
  320MOL0     C43121   5.806   8.016   8.633 -1.1767 -0.1200  0.0037
  320MOL0     C43122   5.803   8.103   8.742 -0.5118  0.9643  1.0761
  320MOL0     C43123   5.825   8.049   8.869  0.8266  0.3436  0.4296
  320MOL0     O43124   5.802   8.137   8.968  0.5422  0.0275 -0.0075
  320MOL0     C43125   5.927   8.170   9.025  0.2893  0.1024 -0.1953
  320MOL0     C43126   5.900   8.201   9.179 -0.7685  0.4551  0.5276
  320MOL0     C43127   5.828   8.085   9.256  1.3154  0.0145  0.6329
  320MOL0     C43128   5.915   7.993   9.339 -0.0121  0.4127  0.1008
  320MOL0     C43129   5.979   8.048   9.459 -0.2112  0.5204 -0.1805
  320MOL0     C43130   6.012   8.120   9.552 -0.2770 -0.3039  0.3781
  320MOL0     C43131   5.865   7.922   8.890 -0.0190  0.3301 -0.4196
  320MOL0     C43132   5.880   7.850   8.774  0.1319  0.4324  0.1820
  320MOL0     H43133   5.663   7.660   8.369  0.0153 -0.6827 -0.6198
  320MOL0     H43134   5.654   7.480   8.209  0.7184 -1.5954 -0.5204
  320MOL0     H43135   5.680   7.334   8.056  3.0475  1.9729  2.9773
  320MOL0     H43136   5.613   7.471   7.958  2.1595  1.4709 -1.8519
  320MOL0     H43137   5.777   7.237   7.860 -2.7525 -2.1593  0.5493
  320MOL0     H43138   5.608   7.250   7.851  0.9747 -1.4848  3.6165
  320MOL0     H43139   5.613   7.357   7.661  0.8242  0.0063 -0.3597
  320MOL0     H43140   5.706   7.487   7.725 -2.7461 -0.8536 -1.1555
  320MOL0     H43141   5.910   7.312   7.678  1.1070 -0.6637 -2.5871
  320MOL0     H43142   5.778   7.232   7.599  1.1970  0.0025 -1.7892
  320MOL0     H43143   5.922   7.368   7.441  1.2385 -0.0758  0.5965
  320MOL0     H43144   5.754   7.400   7.439  3.2250 -4.8890 -4.4908
  320MOL0     H43145   5.926   7.607   7.432 -0.7081  1.1446  0.6285
  320MOL0     H43146   5.782   7.616   7.535  0.1169  1.4660 -2.3796
  320MOL0     H43147   5.999   7.690   7.632 -1.1146  0.3030  3.3900
  320MOL0     H43148   5.953   7.546   7.724  1.1190 -6.7027 -2.3676
  320MOL0     H43149   6.154   7.511   7.503 -1.8689 -0.7477 -0.2495
  320MOL0     H43150   6.091   7.399   7.614 -1.5549  0.7948  2.7507
  320MOL0     H43151   6.273   7.345   7.800  1.5777 -0.4944  2.5017
  320MOL0     H43152   6.483   7.582   8.030  5.0878  0.0516  0.0553
  320MOL0     H43153   6.414   7.413   8.031 -1.9545  0.5360 -0.1737
  320MOL0     H43154   6.648   7.528   7.900  3.1705 -3.0570 -0.1272
  320MOL0     H43155   6.590   7.380   7.824  1.0989  0.5666 -1.2076
  320MOL0     H43156   6.697   7.415   8.102 -1.3088 -0.0297 -0.1462
  320MOL0     H43157   6.762   7.309   7.975  0.0886 -1.3195 -0.3352
  320MOL0     H43158   6.512   7.242   8.115  3.4210  3.0976  3.9141
  320MOL0     H43159   6.668   7.167   8.117 -0.3451 -0.9109 -0.1920
  320MOL0     H43160   6.521   7.020   7.714 -0.1444  1.0243  0.3525
  320MOL0     H43161   6.297   6.791   7.636  0.7197 -2.1702 -2.5784
  320MOL0     H43162   6.444   6.849   7.583  0.7969 -0.7640 -0.2588
  320MOL0     H43163   6.443   6.686   7.657  2.0452  0.2358  0.7354
  320MOL0     H43164   6.331   6.349   7.720 -0.8156 -0.1961 -1.9609
  320MOL0     H43165   6.163   6.143   7.720 -1.5944  0.6126 -1.4983
  320MOL0     H43166   5.951   6.118   7.606  0.2430  0.3973 -0.1796
  320MOL0     H43167   5.982   6.015   7.752  0.2700 -0.9585 -0.7365
  320MOL0     H43168   5.789   5.917   7.626 -4.9081 -1.6805  0.5953
  320MOL0     H43169   5.731   5.986   7.771 -0.7671 -0.1665 -0.2442
  320MOL0     H43170   5.750   6.140   7.508 -1.9714 -2.1877 -1.7136
  320MOL0     H43171   5.667   6.196   7.646  1.7572  2.0673 -2.6343
  320MOL0     H43172   5.598   5.944   7.496  0.1758 -0.7606 -0.1176
  320MOL0     H43173   5.505   5.987   7.640 -2.2817  0.1985 -1.3480
  320MOL0     H43174   5.526   6.107   7.366  1.1531  1.5044 -0.0308
  320MOL0     H43175   5.480   6.224   7.491 -0.0922 -0.8407  1.4794
  320MOL0     H43176   5.313   5.977   7.476 -0.9260  0.8146  1.3713
  320MOL0     H43177   5.303   6.123   7.583  0.4621  1.5850 -0.2063
  320MOL0     H43178   5.237   6.126   7.281 -5.8618  2.5781 -1.4655
  320MOL0     H43179   5.235   6.269   7.394 -2.9393  0.2219 -2.6747
  320MOL0     H43180   5.050   6.137   7.510 -0.8368 -1.7322 -0.0231
  320MOL0     H43181   5.070   6.015   7.392  5.3258 -0.0988 -5.1039
  320MOL0     H43182   5.892   6.407   7.922 -0.7852 -0.8283 -0.6912
  320MOL0     H43183   6.057   6.589   7.930 -0.2460 -0.0126 -0.2799
  320MOL0     H43184   6.412   6.784   8.135 -2.9988 -0.0139 -0.2690
  320MOL0     H43185   6.518   6.992   8.141  1.2486 -1.3994 -0.5173
  320MOL0     H43186   6.021   7.607   8.033 -1.7765  0.6233 -0.9617
  320MOL0     H43187   6.039   7.784   8.223 -0.7596  0.6673  0.1790
  320MOL0     H43188   5.780   8.044   8.532  0.9474  3.1306  0.2337
  320MOL0     H43189   5.781   8.209   8.733  2.9932  1.7147 -0.3635
  320MOL0     H43190   6.003   8.092   9.030  1.4859  1.2216 -0.2987
  320MOL0     H43191   5.972   8.254   8.970  1.1533 -0.7179 -0.7738
  320MOL0     H43192   5.852   8.298   9.193 -0.1638  0.6998  0.9655
  320MOL0     H43193   5.994   8.220   9.231 -1.4776  2.9984  1.0419
  320MOL0     H43194   5.794   8.016   9.178 -0.7934  1.8016 -0.1261
  320MOL0     H43195   5.738   8.116   9.310  1.6472  0.9743  0.6416
  320MOL0     H43196   5.989   7.955   9.269 -1.8863  1.3683 -2.5421
  320MOL0     H43197   5.851   7.910   9.372  0.5140 -1.0620 -2.3763
  320MOL0     H43198   6.046   8.184   9.631 -0.4090 -0.6825  0.7421
  320MOL0     H43199   5.880   7.873   8.985 -0.1796 -0.3891 -0.7555
  320MOL0     H43200   5.926   7.751   8.781  1.3774  0.9098 -0.7983
  321MOL0     O43201   2.024  10.011   8.464  0.4229 -0.0243 -0.1560
  321MOL0     C43202   1.983   9.984   8.352 -0.3872 -0.0398  0.3469
  321MOL0     O43203   1.993  10.063   8.242  0.1962  0.0927  0.2142
  321MOL0     C43204   2.075  10.173   8.230  0.8452 -0.9543  0.2255
  321MOL0     C43205   2.203  10.181   8.294 -0.0310  0.2281 -0.8363
  321MOL0     C43206   2.279  10.296   8.276  0.2916  0.7861  0.5918
  321MOL0     C43207   2.231  10.403   8.200  0.6126 -0.4046  1.1355
  321MOL0     O43208   2.311  10.520   8.203 -0.1741 -0.0594 -1.0608
  321MOL0     C43209   2.289  10.625   8.112 -0.5684 -1.3781  0.0609
  321MOL0     C43210   2.381  10.748   8.147  0.8567 -0.0633 -0.3750
  321MOL0     C43211   2.370  10.851   8.028  0.3503  0.4619 -0.2090
  321MOL0     C43212   2.448  10.980   8.064  0.5116  0.8685  1.1669
  321MOL0     C43213   2.363  11.092   8.126  0.7842 -0.6863  0.5314
  321MOL0     C43214   2.435  11.204   8.221  0.9710 -0.3336  1.0136
  321MOL0     C43215   2.509  11.310   8.143 -0.0084  0.7898  0.5639
  321MOL0     C43216   2.623  11.260   8.071  0.0517  1.3202  0.6730
  321MOL0     N43217   2.728  11.358   8.068  0.2542 -0.8102  0.5234
  321MOL0     C43218   2.724  11.484   8.012  0.0771 -0.8012 -0.5328
  321MOL0     C43219   2.848  11.532   8.043  0.9233 -0.4791 -0.2404
  321MOL0     C43220   2.893  11.680   8.013 -0.7219  0.4745 -0.2158
  321MOL0     C43221   2.910  11.706   7.862 -0.5811  0.0246  0.9589
  321MOL0     C43222   3.005  11.835   7.830 -0.0815 -0.3754  0.4730
  321MOL0     C43223   3.061  11.832   7.687  0.1894  0.0626 -0.0048
  321MOL0     O43224   3.142  11.720   7.675  1.0338  0.6024  0.7059
  321MOL0     C43225   3.212  11.678   7.559 -1.2069  0.6590  0.2817
  321MOL0     C43226   3.203  11.742   7.435 -0.4682 -0.6547 -0.9459
  321MOL0     C43227   3.285  11.707   7.325  0.4504 -0.4276 -0.2136
  321MOL0     C43228   3.278  11.795   7.202  0.3047 -0.2615  0.4079
  321MOL0     C43229   3.371  11.593   7.337 -0.2791  0.7551  0.1636
  321MOL0     C43230   3.475  11.547   7.233  0.5812  1.2467  0.3261
  321MOL0     O43231   3.529  11.422   7.257 -0.3081 -0.6027 -0.9263
  321MOL0     C43232   3.643  11.394   7.185 -0.2587  0.1194  0.0355
  321MOL0     C43233   3.767  11.390   7.255  0.2405 -0.1319 -0.2894
  321MOL0     C43234   3.887  11.397   7.183  0.0335  0.6695  0.3485
  321MOL0     C43235   3.890  11.377   7.047  1.4279 -0.3980  0.0853
  321MOL0     O43236   4.013  11.361   6.976 -0.1077  0.1859 -0.6947
  321MOL0     C43237   4.047  11.242   6.908 -0.4129  0.1850  0.2459
  321MOL0     C43238   4.196  11.246   6.860 -0.2981 -0.5406 -1.4073
  321MOL0     C43239   4.245  11.090   6.849  0.0630  0.7285  0.1282
  321MOL0     C43240   4.372  11.081   6.771 -0.8023  0.3560  0.0199
  321MOL0     C43241   4.463  10.971   6.832  0.0633 -1.3749  0.0491
  321MOL0     C43242   4.597  10.949   6.744 -0.1909 -0.1974  0.3551
  321MOL0     C43243   4.585  10.904   6.604 -0.4720 -0.1822 -0.3441
  321MOL0     C43244   4.623  11.010   6.501  0.7488 -0.3023  0.5669
  321MOL0    Cl43245   4.807  11.035   6.486 -0.3846  0.0974  0.2893
  321MOL0     C43246   3.768  11.349   6.979  0.7110 -0.1736  0.2743
  321MOL0     C43247   3.646  11.362   7.047 -0.9032 -1.0205  0.2261
  321MOL0     O43248   3.510  11.623   7.145 -0.0151 -0.7525 -0.0448
  321MOL0     C43249   3.371  11.529   7.462 -0.2324 -0.1136  0.4614
  321MOL0     C43250   3.292  11.568   7.570 -0.2839 -0.3690  0.0192
  321MOL0     N43251   2.927  11.441   8.107  0.7650  0.6138 -0.1860
  321MOL0     N43252   2.850  11.336   8.129  0.0709  0.3540  0.0038
  321MOL0     C43253   2.102  10.397   8.138 -0.1039  0.1133  0.2528
  321MOL0     C43254   2.026  10.288   8.163  0.2521  0.7702  0.1096
  321MOL0     C43255   1.890   9.868   8.356 -0.3877  0.8133 -1.0782
  321MOL0     C43256   1.851   9.814   8.482 -0.2306 -0.3660  0.2696
  321MOL0     C43257   1.752   9.709   8.504  0.0026 -0.3150 -0.4321
  321MOL0     C43258   1.701   9.657   8.386  0.9768 -0.6798 -0.0912
  321MOL0     O43259   1.603   9.558   8.387  0.0848  0.2450  0.1093
  321MOL0     C43260   1.579   9.477   8.504 -0.0629  0.3585  0.0453
  321MOL0     C43261   1.676   9.353   8.495  0.1464 -1.4360 -0.1177
  321MOL0     C43262   1.643   9.239   8.599  0.7526 -0.5279 -0.3818
  321MOL0     C43263   1.737   9.117   8.590  0.3637  0.7133  0.8051
  321MOL0     C43264   1.686   9.002   8.661  0.4101 -0.2309  0.8669
  321MOL0     C43265   1.643   8.922   8.752  0.6457 -0.8012 -0.2290
  321MOL0     C43266   1.733   9.714   8.261  1.1056 -0.1075 -0.5009
  321MOL0     C43267   1.820   9.818   8.249 -0.0371  0.0594 -0.2411
  321MOL0     H43268   2.245  10.098   8.351 -0.5012  0.7923  0.3578
  321MOL0     H43269   2.378  10.311   8.319  0.9767  0.9556 -0.9884
  321MOL0     H43270   2.310  10.580   8.015  2.3989 -1.3625  0.6134
  321MOL0     H43271   2.185  10.659   8.118  0.4123  1.6922  1.5382
  321MOL0     H43272   2.350  10.802   8.237  0.3723  0.9392 -1.1144
  321MOL0     H43273   2.486  10.729   8.171  0.8838  3.4365  3.3605
  321MOL0     H43274   2.426  10.818   7.941 -0.5792 -0.2740 -0.5466
  321MOL0     H43275   2.263  10.868   8.011  0.2382 -0.9462 -1.0334
  321MOL0     H43276   2.540  10.967   8.122  1.4609 -0.2875 -0.5363
  321MOL0     H43277   2.487  11.017   7.969  1.1600 -0.5862  0.8412
  321MOL0     H43278   2.309  11.133   8.040 -0.5596 -2.7996  0.2950
  321MOL0     H43279   2.286  11.056   8.194  2.0605 -0.5913  2.0863
  321MOL0     H43280   2.351  11.246   8.276  3.3374  2.0787  3.0515
  321MOL0     H43281   2.504  11.146   8.282 -1.8298 -4.4271  0.6971
  321MOL0     H43282   2.441  11.371   8.084 -1.2940 -0.5761  0.5787
  321MOL0     H43283   2.541  11.385   8.216 -0.7000  3.5504 -1.7633
  321MOL0     H43284   2.597  11.220   7.972 -0.2187  1.4742  0.6828
  321MOL0     H43285   2.666  11.173   8.121 -0.6443 -0.8638 -2.2371
  321MOL0     H43286   2.641  11.531   7.960  1.8373  2.4433 -0.6066
  321MOL0     H43287   2.811  11.746   8.045 -0.4697  1.5057 -1.5699
  321MOL0     H43288   2.990  11.702   8.058  1.4865 -2.2007 -3.2123
  321MOL0     H43289   2.811  11.728   7.821 -1.3867  0.3167  2.9489
  321MOL0     H43290   2.952  11.619   7.810 -1.4721 -0.1951  0.5926
  321MOL0     H43291   3.086  11.840   7.903  0.9466 -2.9337 -0.3864
  321MOL0     H43292   2.951  11.930   7.835 -0.6879 -0.6231 -0.9218
  321MOL0     H43293   3.133  11.914   7.680  1.1559 -0.7228  0.2769
  321MOL0     H43294   2.986  11.838   7.608  2.6914  0.6557 -2.5092
  321MOL0     H43295   3.137  11.828   7.435 -3.2620 -2.6638 -0.1156
  321MOL0     H43296   3.170  11.816   7.195 -0.4877 -3.2519  2.1003
  321MOL0     H43297   3.343  11.882   7.214 -1.3359  0.8777  1.6112
  321MOL0     H43298   3.301  11.748   7.105 -2.0110 -1.5288  0.3932
  321MOL0     H43299   3.772  11.411   7.362 -0.5283  0.2081 -0.3145
  321MOL0     H43300   3.979  11.396   7.240  0.9952 -2.2195 -1.0666
  321MOL0     H43301   4.036  11.158   6.978  0.4117 -0.6399 -0.5759
  321MOL0     H43302   3.981  11.226   6.822 -1.3799  0.0061  1.0050
  321MOL0     H43303   4.215  11.313   6.775  0.1679  3.3845  1.4942
  321MOL0     H43304   4.265  11.287   6.935 -1.2645  3.7449 -2.6115
  321MOL0     H43305   4.169  11.036   6.793  2.7321 -4.6532  1.1001
  321MOL0     H43306   4.257  11.045   6.948  2.1176 -1.7459 -1.1500
  321MOL0     H43307   4.352  11.068   6.664  1.4906  1.9452 -0.6788
  321MOL0     H43308   4.420  11.179   6.774 -1.8449  1.1404 -3.6204
  321MOL0     H43309   4.417  10.872   6.836  1.2201 -1.8757  1.8347
  321MOL0     H43310   4.495  10.995   6.933  2.2486 -0.9945 -0.6899
  321MOL0     H43311   4.644  11.047   6.752 -0.7471  0.0235  0.9964
  321MOL0     H43312   4.664  10.877   6.792  0.4094  0.9422  1.2777
  321MOL0     H43313   4.493  10.847   6.589  0.8013 -2.7235  0.9618
  321MOL0     H43314   4.662  10.832   6.574 -2.2236 -1.0714 -3.0711
  321MOL0     H43315   4.559  11.093   6.531 -2.6095 -2.4243 -0.2696
  321MOL0     H43316   4.593  10.989   6.398  0.0899  2.7721  0.0278
  321MOL0     H43317   3.770  11.328   6.873 -1.4882  0.0649  0.1344
  321MOL0     H43318   3.552  11.340   6.996 -0.2526 -0.5631 -1.2269
  321MOL0     H43319   3.430  11.441   7.488  1.2994  1.6464  3.5822
  321MOL0     H43320   3.297  11.520   7.667 -1.6741  2.9657  1.9124
  321MOL0     H43321   2.054  10.479   8.084 -0.2166 -0.4399 -0.4974
  321MOL0     H43322   1.932  10.274   8.111  1.6973 -2.4120 -1.9712
  321MOL0     H43323   1.898   9.839   8.577 -0.3733 -1.0976  0.5396
  321MOL0     H43324   1.732   9.674   8.605 -1.4294 -0.0608 -0.6082
  321MOL0     H43325   1.580   9.521   8.604  1.0901  1.6368 -0.5024
  321MOL0     H43326   1.483   9.424   8.501  1.5137 -2.7227 -0.0761
  321MOL0     H43327   1.781   9.382   8.490 -0.2964  0.3309  0.0872
  321MOL0     H43328   1.645   9.312   8.398 -2.5840  0.0961 -0.0088
  321MOL0     H43329   1.545   9.193   8.588  2.0401 -4.3967  2.3551
  321MOL0     H43330   1.657   9.291   8.695  1.3967  0.8892 -1.2033
  321MOL0     H43331   1.838   9.141   8.625  0.2734  1.1347  0.7890
  321MOL0     H43332   1.738   9.082   8.486 -0.5574  1.3284  0.5647
  321MOL0     H43333   1.601   8.850   8.819 -3.1947  1.2783 -0.1004
  321MOL0     H43334   1.667   9.677   8.183  0.1910 -0.2160  0.3070
  321MOL0     H43335   1.840   9.843   8.145  0.8956 -2.3907 -0.7105
  322MOL0     O43336   2.043   0.991   8.641 -0.6383 -0.2924 -0.0760
  322MOL0     C43337   2.113   0.939   8.729  0.5545 -0.5503 -0.3803
  322MOL0     O43338   2.117   0.802   8.763  0.5893 -0.1771  0.5198
  322MOL0     C43339   2.079   0.692   8.677 -0.5161 -0.5331 -0.4329
  322MOL0     C43340   2.061   0.714   8.538  0.5563  0.1549 -0.1187
  322MOL0     C43341   2.032   0.602   8.457 -0.1539  0.5110  0.2106
  322MOL0     C43342   2.015   0.465   8.501  1.3049 -0.0055  0.0502
  322MOL0     O43343   1.978   0.367   8.405 -0.0345 -0.1144 -0.5975
  322MOL0     C43344   1.954   0.239   8.456  0.0400  0.6999 -0.7807
  322MOL0     C43345   1.875   0.151   8.346 -0.7775  0.0127 -0.4013
  322MOL0     C43346   1.973   0.115   8.231  0.3797 -0.0604  0.6741
  322MOL0     C43347   1.880   0.074   8.122 -1.0203 -0.4495  0.0380
  322MOL0     C43348   1.946   0.043   7.991  0.8652 -0.4601  0.2825
  322MOL0     C43349   1.850   0.003   7.878 -0.4813 -0.6658 -0.7381
  322MOL0     C43350   1.735   0.092   7.835 -1.1073  0.0577  0.0270
  322MOL0     C43351   1.781   0.222   7.761 -0.5768 -1.0344  0.0115
  322MOL0     N43352   1.797   0.337   7.858  0.3724  0.8149  0.4325
  322MOL0     C43353   1.903   0.418   7.857 -0.7820 -0.4243 -0.6794
  322MOL0     C43354   1.865   0.518   7.940  0.8201  0.3648 -0.0691
  322MOL0     C43355   1.933   0.657   7.944  0.1804 -0.5240 -0.4892
  322MOL0     C43356   1.982   0.685   8.090 -0.2568  0.1258  0.3063
  322MOL0     C43357   2.011   0.847   8.103  0.4050 -0.4362 -0.6987
  322MOL0     C43358   2.157   0.881   8.095 -0.8452  0.1574  0.1722
  322MOL0     O43359   2.180   1.006   8.162 -0.0965  0.3217  0.6006
  322MOL0     C43360   2.298   1.019   8.229 -0.6401  0.8698  0.2529
  322MOL0     C43361   2.418   0.999   8.156  0.7747  0.9774  0.6562
  322MOL0     C43362   2.544   1.030   8.217  0.2820  0.1030  0.0890
  322MOL0     C43363   2.668   1.041   8.131 -0.3806 -0.5359 -0.4717
  322MOL0     C43364   2.548   1.052   8.361 -0.3260  0.9621 -0.4006
  322MOL0     C43365   2.675   1.081   8.439 -0.0005  0.6877 -0.2759
  322MOL0     O43366   2.661   1.114   8.572 -0.2498  0.0560  0.5224
  322MOL0     C43367   2.759   1.144   8.667 -0.2154 -0.2792 -0.7109
  322MOL0     C43368   2.723   1.177   8.801 -0.2456  0.5268 -0.5512
  322MOL0     C43369   2.821   1.207   8.891  0.7208  0.3814 -0.5216
  322MOL0     C43370   2.957   1.198   8.865  0.0012 -0.1533 -0.0600
  322MOL0     O43371   3.053   1.222   8.958 -0.2439 -0.2916  0.5302
  322MOL0     C43372   3.161   1.310   8.919  0.2661  0.7551  0.8541
  322MOL0     C43373   3.252   1.327   9.040  0.1151 -0.4403 -0.5643
  322MOL0     C43374   3.189   1.409   9.157  0.8156 -0.0729  1.1951
  322MOL0     C43375   3.297   1.492   9.223 -0.5502  0.9157 -0.3352
  322MOL0     C43376   3.233   1.569   9.342  0.5654 -0.3656 -0.0706
  322MOL0     C43377   3.335   1.648   9.439  0.1122 -0.7096 -0.2302
  322MOL0     C43378   3.416   1.558   9.529  0.2266 -0.5554  0.6390
  322MOL0     C43379   3.497   1.637   9.616  0.1285  0.8532 -0.3229
  322MOL0    Cl43380   3.642   1.710   9.527 -0.2138  0.2344  0.0715
  322MOL0     C43381   2.997   1.180   8.736  1.0405  1.2749  0.1567
  322MOL0     C43382   2.898   1.155   8.639 -1.1403 -0.4097  0.2856
  322MOL0     O43383   2.781   1.082   8.379  0.1668  0.5569 -0.4837
  322MOL0     C43384   2.426   1.047   8.433  1.0270  0.0678 -0.8406
  322MOL0     C43385   2.303   1.038   8.369 -0.1720 -0.9299  0.3267
  322MOL0     N43386   1.753   0.471   8.014  0.8911 -0.4179 -0.3556
  322MOL0     N43387   1.702   0.373   7.954 -0.4531  0.3558  0.2452
  322MOL0     C43388   2.045   0.451   8.648  0.3467 -0.2374  0.5659
  322MOL0     C43389   2.079   0.567   8.728 -0.0894  0.4662 -0.8461
  322MOL0     C43390   2.181   1.026   8.832 -0.3129  0.1026 -0.3239
  322MOL0     C43391   2.145   1.153   8.857  0.1526  0.0347  0.5204
  322MOL0     C43392   2.208   1.233   8.951 -0.5250 -0.5425  0.7188
  322MOL0     C43393   2.301   1.170   9.040 -1.0088 -1.3263 -0.5159
  322MOL0     O43394   2.373   1.243   9.136  0.0306 -0.5885 -0.0596
  322MOL0     C43395   2.432   1.359   9.077  0.3797  0.1614  0.2773
  322MOL0     C43396   2.542   1.409   9.164  0.6866 -0.3093 -0.3517
  322MOL0     C43397   2.641   1.497   9.088  0.4322 -0.0610 -1.8170
  322MOL0     C43398   2.750   1.552   9.186 -1.1496 -0.0945  0.4307
  322MOL0     C43399   2.804   1.455   9.281 -0.0990  0.5266  0.4699
  322MOL0     C43400   2.844   1.362   9.352 -1.4039  0.0591 -0.2329
  322MOL0     C43401   2.339   1.034   9.017 -0.7062 -0.4199  0.3759
  322MOL0     C43402   2.273   0.964   8.918 -0.1380  0.3193  0.3108
  322MOL0     H43403   2.066   0.809   8.486 -1.4692 -0.2079 -1.0515
  322MOL0     H43404   2.015   0.619   8.351  2.5631  0.4888 -0.3033
  322MOL0     H43405   2.046   0.187   8.483 -1.0193 -0.9359 -0.1657
  322MOL0     H43406   1.886   0.243   8.541 -1.5864  0.3223 -2.0167
  322MOL0     H43407   1.824   0.063   8.384  0.8495 -0.9155 -0.2818
  322MOL0     H43408   1.803   0.222   8.304 -3.8099 -1.5953  1.7383
  322MOL0     H43409   2.042   0.194   8.198 -0.4656 -0.2533 -1.7265
  322MOL0     H43410   2.038   0.030   8.254 -1.0969 -1.0805  1.2742
  322MOL0     H43411   1.815  -0.009   8.152 -2.6654  1.0434  0.8320
  322MOL0     H43412   1.807   0.156   8.118 -0.6092  0.2486  3.5717
  322MOL0     H43413   2.002   0.133   7.964  1.9027 -0.2191  2.9603
  322MOL0     H43414   2.014  -0.041   8.005 -0.3416 -1.8434 -1.6381
  322MOL0     H43415   1.908  -0.019   7.789  2.3916  0.3676  0.7594
  322MOL0     H43416   1.805  -0.091   7.912  1.0806 -0.9221  0.7851
  322MOL0     H43417   1.699   0.042   7.744  1.4963  1.6138 -1.9965
  322MOL0     H43418   1.660   0.104   7.914  1.5358  1.3495  2.5024
  322MOL0     H43419   1.687   0.248   7.711  0.0900  1.8931  0.0748
  322MOL0     H43420   1.864   0.214   7.690 -1.4089  3.1467 -1.7281
  322MOL0     H43421   1.982   0.425   7.783 -1.5518 -0.6391 -1.5301
  322MOL0     H43422   2.027   0.659   7.889  1.7989 -0.4984  2.1016
  322MOL0     H43423   1.867   0.737   7.909 -2.8269 -2.7124 -0.2753
  322MOL0     H43424   2.077   0.634   8.107  0.6810  1.9600  0.8456
  322MOL0     H43425   1.919   0.661   8.176  1.5544  2.6159  2.5090
  322MOL0     H43426   1.979   0.871   8.205 -2.4032  2.4493 -2.1202
  322MOL0     H43427   1.945   0.911   8.045 -2.3738 -2.9342 -0.5529
  322MOL0     H43428   2.180   0.892   7.988 -1.5077 -3.7404 -0.5372
  322MOL0     H43429   2.207   0.790   8.130 -1.2611  0.0355  0.4600
  322MOL0     H43430   2.409   0.958   8.056 -1.4426  0.5963  0.9601
  322MOL0     H43431   2.646   1.045   8.024  0.9370  0.6957 -0.7316
  322MOL0     H43432   2.705   1.144   8.140  0.4553 -1.0055  2.2363
  322MOL0     H43433   2.744   0.966   8.153 -1.7560 -1.2381  2.4967
  322MOL0     H43434   2.619   1.159   8.826  0.2867 -1.3547  0.5472
  322MOL0     H43435   2.791   1.214   8.995  1.4455  3.1782 -0.4042
  322MOL0     H43436   3.217   1.275   8.831 -0.0968  2.4479 -0.1036
  322MOL0     H43437   3.128   1.408   8.883  1.3936  1.8498  2.6380
  322MOL0     H43438   3.287   1.230   9.075 -1.2384 -2.4962 -4.3532
  322MOL0     H43439   3.337   1.376   8.991  0.2647 -2.0548 -2.0065
  322MOL0     H43440   3.155   1.335   9.230  4.3223  0.5109  3.6348
  322MOL0     H43441   3.103   1.473   9.132 -0.5282 -1.3943  2.1990
  322MOL0     H43442   3.377   1.424   9.255  0.4692  1.8919 -0.7551
  322MOL0     H43443   3.350   1.560   9.155  2.1495 -0.1945  0.4976
  322MOL0     H43444   3.174   1.502   9.405 -3.5987  1.5786 -1.5549
  322MOL0     H43445   3.153   1.628   9.297  2.1274 -0.2588 -2.9606
  322MOL0     H43446   3.396   1.711   9.374 -0.0659 -1.7857 -1.5002
  322MOL0     H43447   3.272   1.717   9.495  0.7757 -0.9759  0.8785
  322MOL0     H43448   3.471   1.488   9.465 -2.4944 -2.7627  0.5415
  322MOL0     H43449   3.345   1.507   9.595  1.3207  2.2335  4.3079
  322MOL0     H43450   3.536   1.566   9.690 -1.7089 -1.7507 -1.7011
  322MOL0     H43451   3.435   1.710   9.669  2.3632  1.1429  2.1134
  322MOL0     H43452   3.100   1.165   8.704  0.6246  0.6460 -0.9543
  322MOL0     H43453   2.920   1.149   8.533 -2.1243  0.2087  0.0374
  322MOL0     H43454   2.406   1.053   8.539  0.9872 -2.9363 -0.6005
  322MOL0     H43455   2.205   1.041   8.417  0.3179 -0.3258  1.3129
  322MOL0     H43456   2.047   0.351   8.690 -1.8250  0.3758  2.3137
  322MOL0     H43457   2.095   0.551   8.835 -0.3406 -2.5985 -1.1839
  322MOL0     H43458   2.084   1.207   8.785 -1.6700 -0.1527  1.8679
  322MOL0     H43459   2.178   1.337   8.945 -2.2827 -1.0051  0.9036
  322MOL0     H43460   2.483   1.333   8.984 -2.1879  2.0656 -1.8000
  322MOL0     H43461   2.351   1.432   9.069  1.6981  1.7248  0.5414
  322MOL0     H43462   2.573   1.320   9.220 -0.7091  0.6544  2.1179
  322MOL0     H43463   2.495   1.465   9.246 -1.8390 -0.1812 -1.7840
  322MOL0     H43464   2.590   1.586   9.052  2.2042  0.3709 -3.3952
  322MOL0     H43465   2.682   1.456   8.995  1.3877 -1.1289 -0.9616
  322MOL0     H43466   2.702   1.632   9.243 -2.9296 -1.6019  1.1449
  322MOL0     H43467   2.835   1.591   9.129 -0.3748 -3.5072 -1.0214
  322MOL0     H43468   2.881   1.280   9.409  0.0334  1.4248  0.8917
  322MOL0     H43469   2.408   0.993   9.090 -1.7728 -1.3273  0.8892
  322MOL0     H43470   2.290   0.857   8.908 -1.2744 -0.1645  2.8018
  323MOL0     O43471   8.490   1.759   1.717  0.5838  0.3346 -1.0298
  323MOL0     C43472   8.403   1.809   1.786  0.3418 -0.6675  0.6942
  323MOL0     O43473   8.293   1.879   1.747  0.1538  0.1726  0.0166
  323MOL0     C43474   8.279   1.902   1.616  0.2064 -0.1944  0.9875
  323MOL0     C43475   8.167   1.853   1.551  0.0364  0.4095 -0.2936
  323MOL0     C43476   8.132   1.871   1.417 -0.1250 -0.4087 -1.0000
  323MOL0     C43477   8.222   1.933   1.329 -0.2900  0.1295  0.0292
  323MOL0     O43478   8.189   1.934   1.198 -0.1133 -0.1989  0.8152
  323MOL0     C43479   8.290   1.984   1.107  0.1120  1.1891 -0.7296
  323MOL0     C43480   8.395   1.878   1.081 -1.1331  0.9469 -0.6255
  323MOL0     C43481   8.338   1.740   1.029 -0.0127 -0.2720 -0.0017
  323MOL0     C43482   8.417   1.608   1.072  0.2279  0.0417  0.6320
  323MOL0     C43483   8.389   1.584   1.225 -0.1246  0.2045  0.2099
  323MOL0     C43484   8.237   1.549   1.258  0.8612  0.0281 -0.1687
  323MOL0     C43485   8.221   1.529   1.411  0.5336 -1.2141  0.1369
  323MOL0     C43486   8.074   1.507   1.435 -0.0537  0.4410  0.1331
  323MOL0     N43487   8.048   1.473   1.577  0.4104  0.6430  0.7524
  323MOL0     C43488   8.122   1.511   1.683  0.1110 -0.3863 -0.7660
  323MOL0     C43489   8.040   1.461   1.783 -0.6329  0.1141 -1.0436
  323MOL0     C43490   8.073   1.474   1.924  0.4857  0.2835  0.6898
  323MOL0     C43491   8.001   1.596   1.994 -0.5015  0.0992  0.9560
  323MOL0     C43492   7.849   1.590   2.001 -0.3573 -0.9436 -0.3791
  323MOL0     C43493   7.799   1.711   2.087 -0.2853  0.3288  0.6329
  323MOL0     O43494   7.813   1.843   2.026  0.0709 -0.2098 -0.1288
  323MOL0     C43495   7.759   1.868   1.905  0.1018  0.3437 -0.0438
  323MOL0     C43496   7.625   1.867   1.870 -0.6661  0.2441 -0.0084
  323MOL0     C43497   7.573   1.909   1.744  1.4419 -1.3698  0.0712
  323MOL0     C43498   7.425   1.902   1.735  0.3150 -0.5213 -0.8612
  323MOL0     C43499   7.668   1.946   1.647  0.6846 -0.5143  0.3602
  323MOL0     C43500   7.624   1.996   1.513  0.4583  0.0480  0.2413
  323MOL0     O43501   7.541   2.109   1.509  0.5603 -0.7271  0.1375
  323MOL0     C43502   7.504   2.157   1.385  0.2748 -0.5366 -0.7274
  323MOL0     C43503   7.529   2.287   1.349  1.0610 -0.8129  0.4399
  323MOL0     C43504   7.482   2.333   1.221 -0.8233 -0.6052  0.3209
  323MOL0     C43505   7.398   2.255   1.138 -0.2989 -0.4963  0.0550
  323MOL0     O43506   7.337   2.294   1.020 -1.1363  0.3104  0.8593
  323MOL0     C43507   7.343   2.424   0.983 -0.5441 -0.4580 -0.7588
  323MOL0     C43508   7.244   2.465   0.878 -0.5921 -0.0850  0.5652
  323MOL0     C43509   7.267   2.394   0.744  0.4248 -0.4536 -1.0148
  323MOL0     C43510   7.380   2.450   0.650  0.7225  0.1204  0.0665
  323MOL0     C43511   7.526   2.425   0.702 -0.0172  0.3556 -0.5058
  323MOL0     C43512   7.625   2.419   0.575 -0.0782 -0.6023 -0.4688
  323MOL0     C43513   7.775   2.409   0.578  0.4221 -0.4650  0.2901
  323MOL0     C43514   7.833   2.527   0.666  0.3181 -0.0410 -0.1462
  323MOL0    Cl43515   7.757   2.684   0.606 -0.1121  0.1222 -0.3492
  323MOL0     C43516   7.384   2.123   1.175 -0.0345 -0.5047 -0.2058
  323MOL0     C43517   7.432   2.074   1.297  0.6739  0.0139 -0.8864
  323MOL0     O43518   7.675   1.934   1.424  0.0835 -0.1279 -0.3774
  323MOL0     C43519   7.800   1.951   1.678 -0.1910 -0.8666  0.3122
  323MOL0     C43520   7.843   1.915   1.803  0.0150  0.4763 -0.1282
  323MOL0     N43521   7.928   1.400   1.740 -0.7090 -0.2684  0.0260
  323MOL0     N43522   7.932   1.410   1.607 -0.3198  0.0941 -0.2782
  323MOL0     C43523   8.345   1.979   1.391 -0.1004  0.0995  0.2274
  323MOL0     C43524   8.371   1.973   1.534  0.6412 -0.2746 -0.0589
  323MOL0     C43525   8.430   1.789   1.924 -0.5791  0.3252 -0.2178
  323MOL0     C43526   8.331   1.808   2.020  0.1451  0.5511 -0.4903
  323MOL0     C43527   8.360   1.788   2.155 -0.0457  0.7636  0.1006
  323MOL0     C43528   8.486   1.741   2.196 -0.9398  0.7391 -0.1635
  323MOL0     O43529   8.498   1.708   2.330  0.4969  0.4451  0.3377
  323MOL0     C43530   8.619   1.660   2.388  0.1626  0.4068 -0.2665
  323MOL0     C43531   8.619   1.673   2.540 -0.1938 -0.4568 -0.0478
  323MOL0     C43532   8.590   1.819   2.595 -0.3137 -0.1699 -0.1514
  323MOL0     C43533   8.442   1.854   2.609  0.4370  0.1189 -0.0044
  323MOL0     C43534   8.417   1.997   2.631  0.0359  0.0692 -0.5313
  323MOL0     C43535   8.386   2.108   2.661  0.1421 -0.6317  0.5937
  323MOL0     C43536   8.575   1.717   2.104 -0.6288 -0.1307  0.5819
  323MOL0     C43537   8.557   1.747   1.975 -0.4826  0.0112  0.1976
  323MOL0     H43538   8.097   1.810   1.621  1.6859 -0.3119  0.9742
  323MOL0     H43539   8.031   1.846   1.389 -1.3899  2.1226  0.9355
  323MOL0     H43540   8.238   1.981   1.011 -2.7507 -1.3604  0.7250
  323MOL0     H43541   8.342   2.077   1.134  3.9636 -1.1103  0.6528
  323MOL0     H43542   8.466   1.920   1.010  0.9318 -0.2551  0.6327
  323MOL0     H43543   8.456   1.862   1.171  0.8270  0.4059 -1.9883
  323MOL0     H43544   8.231   1.732   1.045  0.1344 -1.5269  0.4622
  323MOL0     H43545   8.344   1.737   0.920 -3.3204  1.6448 -0.3525
  323MOL0     H43546   8.362   1.533   1.013 -1.4527  1.6364  0.0814
  323MOL0     H43547   8.522   1.615   1.045 -0.1651 -0.0969 -1.1012
  323MOL0     H43548   8.453   1.497   1.246  1.2210  1.6001  2.1533
  323MOL0     H43549   8.428   1.673   1.274 -2.0987  1.6764 -0.7581
  323MOL0     H43550   8.157   1.617   1.229 -0.1367 -2.2891 -3.4033
  323MOL0     H43551   8.214   1.455   1.206  0.4135  1.0414 -1.8923
  323MOL0     H43552   8.283   1.447   1.449 -1.4171 -3.0221 -0.3646
  323MOL0     H43553   8.259   1.618   1.462  1.8349 -1.9560  0.5143
  323MOL0     H43554   8.053   1.436   1.354 -1.8932  2.4071 -1.2143
  323MOL0     H43555   8.022   1.597   1.402  0.4344  0.7716  0.2643
  323MOL0     H43556   8.215   1.551   1.721 -2.1368  1.8927  2.9664
  323MOL0     H43557   8.038   1.380   1.967 -0.0291 -0.7958 -1.9145
  323MOL0     H43558   8.180   1.485   1.943  0.3650  1.5988  0.7019
  323MOL0     H43559   8.038   1.685   1.942  2.0766 -1.5060 -0.1437
  323MOL0     H43560   8.035   1.603   2.098  0.1206 -5.4490  1.4239
  323MOL0     H43561   7.811   1.508   2.062 -3.9182  0.7205 -0.1330
  323MOL0     H43562   7.803   1.595   1.902 -0.4471 -0.3406 -0.3101
  323MOL0     H43563   7.857   1.706   2.179  3.4764  1.9957 -1.4061
  323MOL0     H43564   7.691   1.698   2.095 -0.6867  3.9574  4.2172
  323MOL0     H43565   7.551   1.829   1.940  0.9758  1.5573  2.6127
  323MOL0     H43566   7.389   1.929   1.636  0.6402 -1.5520 -1.2819
  323MOL0     H43567   7.389   1.807   1.775 -1.2482  0.1970 -0.5014
  323MOL0     H43568   7.376   1.964   1.810 -1.0783 -1.3564 -1.0498
  323MOL0     H43569   7.610   2.334   1.404 -0.0223 -0.6398  1.9369
  323MOL0     H43570   7.520   2.424   1.175  0.5954 -1.3833 -0.1184
  323MOL0     H43571   7.323   2.481   1.075 -0.3904 -0.0869 -0.9511
  323MOL0     H43572   7.449   2.444   0.966 -0.4382  1.6125  1.7102
  323MOL0     H43573   7.148   2.452   0.929  0.0818  0.1345  1.9322
  323MOL0     H43574   7.256   2.573   0.865  5.3649 -0.4925 -0.0269
  323MOL0     H43575   7.170   2.399   0.693 -0.2734  3.1159  0.3450
  323MOL0     H43576   7.300   2.291   0.758 -1.7530 -0.9483  1.1995
  323MOL0     H43577   7.371   2.383   0.564  1.0842 -3.2603  2.4544
  323MOL0     H43578   7.361   2.556   0.633  0.0175  0.0506  0.4015
  323MOL0     H43579   7.535   2.341   0.772 -0.4279  0.6252 -0.1250
  323MOL0     H43580   7.546   2.511   0.767 -4.5269 -0.1057  1.9241
  323MOL0     H43581   7.585   2.341   0.509 -1.7657  0.1947 -0.4600
  323MOL0     H43582   7.606   2.513   0.521  2.7010  0.5614  0.4237
  323MOL0     H43583   7.809   2.403   0.474 -2.4666 -1.2069 -0.7185
  323MOL0     H43584   7.800   2.319   0.634 -0.1252  0.9578  2.9816
  323MOL0     H43585   7.941   2.546   0.664  0.3710 -0.3968 -2.0358
  323MOL0     H43586   7.807   2.504   0.770  3.5677 -4.5927 -0.0589
  323MOL0     H43587   7.317   2.058   1.119 -0.4081 -0.4990  0.2374
  323MOL0     H43588   7.395   1.980   1.337 -0.0865  0.4376 -0.5776
  323MOL0     H43589   7.866   1.978   1.596  2.0301 -0.6043  2.0762
  323MOL0     H43590   7.947   1.915   1.834  0.6068  1.0443 -1.9796
  323MOL0     H43591   8.414   2.034   1.329 -1.1584 -0.8972 -1.9354
  323MOL0     H43592   8.466   2.006   1.574  0.5564  2.1244 -1.6365
  323MOL0     H43593   8.231   1.837   1.991 -0.7707 -2.7700 -1.0453
  323MOL0     H43594   8.275   1.787   2.223 -1.2425  2.8105 -1.2692
  323MOL0     H43595   8.634   1.553   2.368 -1.3696  0.2045 -0.5000
  323MOL0     H43596   8.707   1.713   2.352  1.1023 -1.0112 -0.1504
  323MOL0     H43597   8.716   1.632   2.571 -1.2264 -1.3271  2.2324
  323MOL0     H43598   8.544   1.607   2.584  2.4454 -1.3098  3.6563
  323MOL0     H43599   8.627   1.891   2.521  2.1262 -1.7669 -0.5954
  323MOL0     H43600   8.641   1.838   2.690 -3.0832  3.8692  0.7975
  323MOL0     H43601   8.408   1.798   2.696 -0.4315  0.8626  0.1458
  323MOL0     H43602   8.386   1.834   2.517  2.8439  0.5672 -1.6695
  323MOL0     H43603   8.343   2.204   2.685 -3.3396 -1.3777 -1.9058
  323MOL0     H43604   8.668   1.674   2.139 -0.6426  0.2355  1.0776
  323MOL0     H43605   8.639   1.726   1.907 -0.2622  0.1837  0.4104
  324MOL0     O43606  10.892   6.826   3.990  0.1965  0.4834 -0.2244
  324MOL0     C43607  10.769   6.855   3.991  0.0715  0.1126  0.0160
  324MOL0     O43608  10.661   6.769   3.979  0.1557 -0.5155  0.3470
  324MOL0     C43609  10.683   6.640   4.016 -0.5044 -0.1814 -0.0293
  324MOL0     C43610  10.770   6.590   4.127 -0.7421 -0.6776  0.7824
  324MOL0     C43611  10.781   6.454   4.147 -0.6020  0.3684 -0.4260
  324MOL0     C43612  10.735   6.365   4.057  0.5150  1.1735  0.0130
  324MOL0     O43613  10.742   6.223   4.065 -0.1853 -0.1127  0.1856
  324MOL0     C43614  10.808   6.166   4.174 -0.0527  0.3136 -0.4094
  324MOL0     C43615  10.966   6.169   4.155 -1.0188  0.6386 -1.1041
  324MOL0     C43616  11.024   6.056   4.064 -0.0527 -0.5858  0.0348
  324MOL0     C43617  11.050   5.920   4.143 -0.1332 -0.0194 -0.2291
  324MOL0     C43618  11.175   5.851   4.092  0.3090  0.2420 -0.5299
  324MOL0     C43619  11.235   5.729   4.176 -0.1810 -0.5586  0.2907
  324MOL0     C43620  11.133   5.623   4.201 -0.2478  0.4326  0.6890
  324MOL0     C43621  11.198   5.509   4.268 -0.9597 -0.3323 -0.9079
  324MOL0     N43622  11.260   5.529   4.399  0.4288  0.2810  0.0298
  324MOL0     C43623  11.191   5.558   4.519 -0.1930  0.0167 -0.9170
  324MOL0     C43624  11.289   5.590   4.605  0.6861 -0.3385 -0.9674
  324MOL0     C43625  11.253   5.620   4.753 -0.3383 -0.4150 -0.3702
  324MOL0     C43626  11.352   5.581   4.849 -0.5003  0.2066  0.0220
  324MOL0     C43627  11.302   5.577   4.995 -0.4494 -0.2162  0.2869
  324MOL0     C43628  11.210   5.464   5.027  0.1628 -0.0597 -0.2359
  324MOL0     O43629  11.233   5.425   5.161  0.0829 -0.2630 -0.0801
  324MOL0     C43630  11.157   5.319   5.219 -0.6075 -1.1374  1.0448
  324MOL0     C43631  11.095   5.208   5.151 -0.0277 -0.4238  0.0048
  324MOL0     C43632  11.032   5.109   5.236 -0.6652  0.7802 -0.5624
  324MOL0     C43633  10.946   5.006   5.168 -0.2238 -1.2961  0.1673
  324MOL0     C43634  11.032   5.128   5.372  0.1056  0.6282 -0.5129
  324MOL0     C43635  10.970   5.032   5.476 -0.4341  0.7624  0.3415
  324MOL0     O43636  11.046   4.975   5.569 -0.1039 -0.6532 -0.6571
  324MOL0     C43637  11.180   4.946   5.559 -0.7328  0.0388 -0.2336
  324MOL0     C43638  11.236   4.837   5.488  0.9259  0.3911 -0.1677
  324MOL0     C43639  11.368   4.800   5.483  0.7702 -0.7024 -0.0735
  324MOL0     C43640  11.456   4.883   5.552  0.0019 -0.3436 -0.1877
  324MOL0     O43641  11.594   4.869   5.548 -0.3209  0.2625 -0.0755
  324MOL0     C43642  11.644   4.737   5.578  0.2520 -0.3960  0.6355
  324MOL0     C43643  11.735   4.667   5.478  0.1171  0.9547 -0.0417
  324MOL0     C43644  11.643   4.578   5.381  0.2073  0.0382 -0.4753
  324MOL0     C43645  11.731   4.500   5.276  1.0015 -0.0995  0.7160
  324MOL0     C43646  11.654   4.387   5.209 -0.5669  0.0317 -0.1370
  324MOL0     C43647  11.683   4.381   5.067  0.3219 -0.2808  0.2425
  324MOL0     C43648  11.603   4.265   5.000 -0.8414  1.5957  0.0866
  324MOL0     C43649  11.625   4.118   5.053  0.4001 -0.3600 -1.1834
  324MOL0    Cl43650  11.552   3.994   4.933 -0.5661  0.1368  0.0248
  324MOL0     C43651  11.416   5.003   5.623 -0.6461  0.1803  0.2929
  324MOL0     C43652  11.274   5.022   5.630 -0.3391 -0.3143 -0.0785
  324MOL0     O43653  10.852   5.031   5.467  0.3884  0.4012 -0.3756
  324MOL0     C43654  11.082   5.247   5.435 -0.0885  0.3727  0.0268
  324MOL0     C43655  11.148   5.338   5.360  0.0878 -0.7727  0.7472
  324MOL0     N43656  11.408   5.601   4.543  0.0859  0.4444  0.2928
  324MOL0     N43657  11.388   5.570   4.411 -0.2793 -0.8213  0.1822
  324MOL0     C43658  10.649   6.415   3.960 -0.6245  0.6372  0.1759
  324MOL0     C43659  10.616   6.548   3.946 -0.7213  0.2372  0.5808
  324MOL0     C43660  10.719   6.997   3.991 -0.7253  0.3287 -0.3297
  324MOL0     C43661  10.811   7.104   3.965  0.4454 -0.9714 -0.2373
  324MOL0     C43662  10.770   7.236   3.962 -0.0306 -0.4828  0.4539
  324MOL0     C43663  10.634   7.276   3.992  0.9530 -0.8062  0.1092
  324MOL0     O43664  10.607   7.412   4.000 -0.1233 -1.0312  0.0652
  324MOL0     C43665  10.496   7.450   4.070  0.3163 -0.6392 -0.0292
  324MOL0     C43666  10.376   7.468   3.981  1.4627  0.2684 -0.1866
  324MOL0     C43667  10.250   7.517   4.066  0.7954 -1.4386 -0.0115
  324MOL0     C43668  10.162   7.613   3.982 -0.7745 -1.2350 -0.2189
  324MOL0     C43669  10.041   7.673   4.041  0.3356 -0.0323  0.3581
  324MOL0     C43670   9.940   7.710   4.086  0.7577 -1.4506  0.8666
  324MOL0     C43671  10.545   7.170   4.009 -0.2869  0.6469  0.2548
  324MOL0     C43672  10.589   7.031   4.007  0.5643 -1.2610  0.0003
  324MOL0     H43673  10.821   6.657   4.195 -0.0856  0.2389 -0.5497
  324MOL0     H43674  10.853   6.415   4.218  1.0254  0.4142 -2.0000
  324MOL0     H43675  10.783   6.205   4.274  2.0675 -0.1915  0.3617
  324MOL0     H43676  10.782   6.061   4.190  2.4882  0.0801  3.5492
  324MOL0     H43677  11.001   6.261   4.108  2.3367  1.2858  2.1659
  324MOL0     H43678  11.010   6.165   4.255 -1.0069 -0.2626 -1.1364
  324MOL0     H43679  10.957   6.037   3.980  0.7130  1.5259 -1.1010
  324MOL0     H43680  11.117   6.079   4.012 -0.2669 -2.7618 -1.4616
  324MOL0     H43681  11.056   5.935   4.252  0.1587 -2.3216  0.1126
  324MOL0     H43682  10.956   5.865   4.137 -1.7408  2.6811 -2.8955
  324MOL0     H43683  11.154   5.811   3.993 -0.1279  0.7053 -0.6267
  324MOL0     H43684  11.256   5.925   4.088  0.9749 -0.4251  0.2121
  324MOL0     H43685  11.316   5.681   4.120 -1.5098 -0.7601 -1.5863
  324MOL0     H43686  11.280   5.769   4.267  0.5341  0.6544 -0.5695
  324MOL0     H43687  11.046   5.660   4.256  0.0612 -0.4433  1.8004
  324MOL0     H43688  11.093   5.577   4.109 -0.7217  1.1625  0.5265
  324MOL0     H43689  11.270   5.468   4.197 -0.2983  2.1055 -1.7359
  324MOL0     H43690  11.117   5.437   4.288 -2.5946  0.3906 -4.2630
  324MOL0     H43691  11.084   5.548   4.533  0.0216  0.3802  1.2578
  324MOL0     H43692  11.243   5.728   4.770  0.4837 -0.3989  0.0517
  324MOL0     H43693  11.160   5.570   4.781 -1.1505  1.3351  0.2236
  324MOL0     H43694  11.443   5.642   4.853  1.9727 -3.2097  0.9376
  324MOL0     H43695  11.384   5.480   4.820 -4.4500 -0.8087 -1.4528
  324MOL0     H43696  11.263   5.673   5.028  1.7479  0.8521 -0.0397
  324MOL0     H43697  11.394   5.567   5.054  0.8567  4.3073 -0.6213
  324MOL0     H43698  11.234   5.382   4.960 -0.9216 -1.9149  1.5482
  324MOL0     H43699  11.104   5.485   5.007  0.6410  0.9325 -1.8865
  324MOL0     H43700  11.104   5.179   5.046  3.2080 -0.1917  0.1189
  324MOL0     H43701  11.018   4.927   5.145  0.7360 -0.4351  0.1507
  324MOL0     H43702  10.855   4.968   5.216  0.0954 -1.8905  0.3214
  324MOL0     H43703  10.925   5.054   5.073 -1.0719  1.6699  1.7414
  324MOL0     H43704  11.174   4.777   5.422  1.1620  0.6057 -0.5935
  324MOL0     H43705  11.397   4.713   5.425  0.0009 -1.4942  0.7065
  324MOL0     H43706  11.689   4.751   5.677  0.5337  0.7000  0.3672
  324MOL0     H43707  11.563   4.669   5.606 -0.9640  1.1101  0.9091
  324MOL0     H43708  11.782   4.738   5.410 -0.8733  1.6526 -0.0056
  324MOL0     H43709  11.820   4.616   5.525 -1.3151 -0.7181  0.8530
  324MOL0     H43710  11.575   4.650   5.333 -1.1396 -0.7978  0.1116
  324MOL0     H43711  11.582   4.505   5.436 -0.2719  1.2022  0.5749
  324MOL0     H43712  11.743   4.571   5.194 -0.7223  0.5943  1.0181
  324MOL0     H43713  11.830   4.471   5.312  1.8165  1.3025 -0.3137
  324MOL0     H43714  11.547   4.403   5.223 -0.6363 -1.1416  0.8878
  324MOL0     H43715  11.689   4.297   5.260 -1.3785  0.3619  1.0423
  324MOL0     H43716  11.635   4.476   5.040 -3.0472 -1.7760  0.4816
  324MOL0     H43717  11.788   4.367   5.039 -0.1194 -1.0092 -1.1357
  324MOL0     H43718  11.629   4.277   4.894  2.6349  1.2835  0.7602
  324MOL0     H43719  11.497   4.292   5.006 -0.8893  1.6152 -0.8028
  324MOL0     H43720  11.571   4.114   5.148 -0.9592  1.6697 -1.7858
  324MOL0     H43721  11.730   4.099   5.077 -0.5232 -3.0282  1.3751
  324MOL0     H43722  11.481   5.069   5.679 -2.7884  0.6250  2.4057
  324MOL0     H43723  11.225   5.095   5.694  1.9013  0.5221  0.7653
  324MOL0     H43724  11.059   5.275   5.538  0.1218  1.2061 -0.1475
  324MOL0     H43725  11.182   5.431   5.406  1.8179 -1.8098  1.6651
  324MOL0     H43726  10.612   6.340   3.890 -2.2722 -0.1128  1.7673
  324MOL0     H43727  10.547   6.575   3.867  0.6502 -2.9193 -1.9077
  324MOL0     H43728  10.915   7.073   3.958  0.6695 -0.0313 -1.4502
  324MOL0     H43729  10.846   7.314   3.959  0.4707 -0.9951 -0.6956
  324MOL0     H43730  10.465   7.376   4.144 -3.2444 -1.7178 -2.3232
  324MOL0     H43731  10.509   7.550   4.112 -0.4181  1.2940 -3.9600
  324MOL0     H43732  10.346   7.380   3.925 -0.7903 -0.3294  1.7948
  324MOL0     H43733  10.414   7.538   3.906 -0.2433 -0.6125 -1.9761
  324MOL0     H43734  10.288   7.566   4.155 -0.4672  0.4397 -0.4496
  324MOL0     H43735  10.181   7.439   4.100 -3.0961  2.1665  1.1457
  324MOL0     H43736  10.133   7.564   3.889  0.8914 -2.2253 -0.2607
  324MOL0     H43737  10.227   7.699   3.962 -1.6879  0.4747  3.3125
  324MOL0     H43738   9.841   7.723   4.127  0.8825 -1.6998  1.2522
  324MOL0     H43739  10.440   7.192   4.028 -0.4702  1.7677 -1.7876
  324MOL0     H43740  10.513   6.954   4.017 -2.2188  0.7485 -3.3907
  325MOL0     O43741  11.251   1.628   8.472 -0.5484 -0.2355  0.5438
  325MOL0     C43742  11.337   1.669   8.561 -0.1259  0.2067  1.3397
  325MOL0     O43743  11.315   1.667   8.688 -0.6414  0.0547 -0.2561
  325MOL0     C43744  11.195   1.621   8.736  0.6315  0.4012 -0.6124
  325MOL0     C43745  11.143   1.704   8.840 -0.1072  0.3053  0.7954
  325MOL0     C43746  11.026   1.673   8.914  0.7650 -0.8745 -0.2077
  325MOL0     C43747  10.941   1.565   8.876 -0.1521 -0.6614 -0.4247
  325MOL0     O43748  10.826   1.523   8.937 -0.0183  0.3378 -0.2206
  325MOL0     C43749  10.738   1.618   9.004 -0.5121 -0.1484 -0.0421
  325MOL0     C43750  10.784   1.615   9.154  0.3277 -0.6083 -0.3720
  325MOL0     C43751  10.763   1.475   9.219  0.4319 -0.3467  0.1633
  325MOL0     C43752  10.880   1.446   9.307  0.1717 -0.3507 -0.0090
  325MOL0     C43753  10.896   1.299   9.326  0.5474 -0.0988 -0.6963
  325MOL0     C43754  10.995   1.271   9.438 -0.2363 -0.0358 -0.2494
  325MOL0     C43755  11.017   1.126   9.466 -0.5904 -0.0077 -0.0529
  325MOL0     C43756  11.136   1.106   9.567 -0.3414 -0.9423  1.9224
  325MOL0     N43757  11.268   1.140   9.503  0.5470  0.7280  0.9191
  325MOL0     C43758  11.314   1.116   9.376 -0.8122  0.3585 -0.5987
  325MOL0     C43759  11.449   1.145   9.375  0.3570 -0.7951  0.4190
  325MOL0     C43760  11.546   1.121   9.260  0.2293 -0.2920 -0.3656
  325MOL0     C43761  11.532   0.976   9.214  0.1051  0.2591  0.1419
  325MOL0     C43762  11.635   0.951   9.102 -0.0971  0.1028  0.5960
  325MOL0     C43763  11.639   0.797   9.073 -0.3742  0.0519 -0.2952
  325MOL0     O43764  11.515   0.758   9.014  0.0412  0.1132 -0.4141
  325MOL0     C43765  11.502   0.632   8.971  1.0046  0.2457 -0.0293
  325MOL0     C43766  11.437   0.550   9.059  0.2214 -0.1357 -0.3767
  325MOL0     C43767  11.413   0.419   9.030 -0.4716  0.0666 -0.5864
  325MOL0     C43768  11.356   0.333   9.132 -0.6720  0.1658  0.3735
  325MOL0     C43769  11.451   0.375   8.900 -0.2766  0.1642  0.5030
  325MOL0     C43770  11.419   0.245   8.846 -0.8590 -0.4387  0.0186
  325MOL0     O43771  11.512   0.192   8.752 -0.1226 -0.2099 -0.2025
  325MOL0     C43772  11.491   0.064   8.709 -0.0158  0.0381  0.5760
  325MOL0     C43773  11.564  -0.046   8.770  0.1902  0.1878 -0.0298
  325MOL0     C43774  11.533  -0.176   8.742 -0.1182 -0.1585  1.2967
  325MOL0     C43775  11.439  -0.197   8.641  0.6055  0.5705  1.7351
  325MOL0     O43776  11.392  -0.321   8.602 -0.0254  0.6838 -0.7181
  325MOL0     C43777  11.443  -0.433   8.682 -0.4214 -0.1953  0.5182
  325MOL0     C43778  11.373  -0.569   8.635 -0.0496 -0.7928  0.0925
  325MOL0     C43779  11.391  -0.598   8.487  0.0718 -0.1717 -0.1021
  325MOL0     C43780  11.352  -0.743   8.443 -0.4420 -0.5197  0.0790
  325MOL0     C43781  11.353  -0.745   8.288  0.1274  0.9458  0.0531
  325MOL0     C43782  11.497  -0.722   8.242  0.6581  0.1041  0.5497
  325MOL0     C43783  11.505  -0.712   8.085 -0.4657 -0.3205 -0.6924
  325MOL0     C43784  11.523  -0.561   8.042  0.4466  0.2201 -0.2790
  325MOL0    Cl43785  11.497  -0.560   7.875  0.3755  0.0623  0.6288
  325MOL0     C43786  11.377  -0.095   8.578 -1.2329  1.0495  0.4723
  325MOL0     C43787  11.403   0.036   8.616  0.1439  0.6139  0.8761
  325MOL0     O43788  11.322   0.185   8.895 -0.1841 -0.3274  0.3450
  325MOL0     C43789  11.510   0.464   8.811 -1.2266 -0.1483  0.7087
  325MOL0     C43790  11.542   0.596   8.845  1.1205 -0.2295  0.3519
  325MOL0     N43791  11.472   1.192   9.499  0.3179  0.4073 -0.0082
  325MOL0     N43792  11.367   1.195   9.571 -0.1252  0.2256 -0.1924
  325MOL0     C43793  10.987   1.487   8.769 -0.2580 -0.2874  0.1790
  325MOL0     C43794  11.103   1.512   8.700 -0.0252 -0.4026 -0.0621
  325MOL0     C43795  11.463   1.723   8.517  0.0930 -0.5504  0.4656
  325MOL0     C43796  11.566   1.766   8.606 -0.2461 -1.0469 -0.5629
  325MOL0     C43797  11.690   1.805   8.553 -0.3694 -0.2907  0.4279
  325MOL0     C43798  11.717   1.821   8.413 -0.4072  0.3853 -0.9161
  325MOL0     O43799  11.831   1.889   8.369 -0.4796 -0.4304 -0.6203
  325MOL0     C43800  11.851   1.922   8.232 -1.3252  0.6355  0.4112
  325MOL0     C43801  11.951   1.824   8.165  0.9690  0.4346  0.3556
  325MOL0     C43802  11.989   1.863   8.018  0.4424 -0.2960 -1.2719
  325MOL0     C43803  11.901   1.821   7.902 -0.7457 -0.1367  0.1801
  325MOL0     C43804  11.885   1.672   7.902  0.3854 -0.4526  0.5394
  325MOL0     C43805  11.884   1.553   7.906 -0.6999 -0.1842  0.5176
  325MOL0     C43806  11.613   1.788   8.329  0.3385  0.2909  0.1724
  325MOL0     C43807  11.490   1.737   8.376 -1.2809 -0.3662 -0.1921
  325MOL0     H43808  11.214   1.781   8.868  0.7038  0.5122 -1.5900
  325MOL0     H43809  10.990   1.732   8.998 -0.8552 -1.3009 -0.5684
  325MOL0     H43810  10.741   1.721   8.968  0.3598  0.6705  2.2157
  325MOL0     H43811  10.633   1.592   8.990 -1.1071  2.6511 -1.4961
  325MOL0     H43812  10.886   1.654   9.163 -0.2446  0.7982  0.1838
  325MOL0     H43813  10.721   1.691   9.200 -1.2111 -1.8415 -0.3398
  325MOL0     H43814  10.674   1.477   9.283  1.7843  3.2842  2.1871
  325MOL0     H43815  10.755   1.403   9.136  2.2256 -0.9908  0.5231
  325MOL0     H43816  10.971   1.487   9.261  0.0647  1.9629  1.6313
  325MOL0     H43817  10.868   1.509   9.396 -0.8089 -0.9774  0.3199
  325MOL0     H43818  10.796   1.271   9.362  1.3473 -1.2228  0.7999
  325MOL0     H43819  10.921   1.247   9.233 -0.8260  0.5198 -1.4307
  325MOL0     H43820  11.086   1.315   9.394 -0.2670  0.8853  0.5877
  325MOL0     H43821  10.957   1.318   9.528 -0.9135 -0.4925 -0.2937
  325MOL0     H43822  10.923   1.082   9.502 -1.0293  1.4334  0.6557
  325MOL0     H43823  11.047   1.060   9.385  0.2314 -2.8266  2.3652
  325MOL0     H43824  11.145   0.999   9.590  0.0789 -1.5307 -0.6117
  325MOL0     H43825  11.128   1.166   9.657  0.8071 -0.7205  1.8951
  325MOL0     H43826  11.262   1.063   9.297 -0.1275 -0.6907 -0.3671
  325MOL0     H43827  11.521   1.189   9.178 -0.6317 -3.1975 -2.7163
  325MOL0     H43828  11.643   1.147   9.303  0.4094 -1.1517 -0.2229
  325MOL0     H43829  11.436   0.950   9.168  1.3678 -0.0013 -2.5256
  325MOL0     H43830  11.545   0.903   9.294  0.5807  0.6802  0.4555
  325MOL0     H43831  11.736   0.973   9.137  0.2605 -1.1280  0.3499
  325MOL0     H43832  11.612   1.008   9.011 -1.0481 -0.8586  0.2112
  325MOL0     H43833  11.663   0.741   9.164 -1.4696  2.6348  1.7278
  325MOL0     H43834  11.721   0.780   9.002 -0.5237  0.0500 -0.4670
  325MOL0     H43835  11.393   0.592   9.149 -0.6469 -0.8875 -0.4356
  325MOL0     H43836  11.401   0.233   9.125 -0.5301  0.2902 -0.5677
  325MOL0     H43837  11.367   0.376   9.232  0.4769 -1.2086  0.8754
  325MOL0     H43838  11.249   0.322   9.113 -0.4764  1.2224 -1.5020
  325MOL0     H43839  11.650  -0.033   8.834  0.9149  0.4215 -1.0383
  325MOL0     H43840  11.584  -0.252   8.801  1.4949  0.2240  0.4539
  325MOL0     H43841  11.551  -0.434   8.664 -0.1724  0.0023  1.9555
  325MOL0     H43842  11.435  -0.419   8.790 -1.6232  3.2211  0.0960
  325MOL0     H43843  11.403  -0.651   8.700  0.0056 -2.1537 -1.5756
  325MOL0     H43844  11.267  -0.545   8.651 -0.5776 -1.5438 -1.9825
  325MOL0     H43845  11.500  -0.585   8.476  0.6118 -4.5274 -2.4087
  325MOL0     H43846  11.350  -0.521   8.421  2.6042  1.2681 -0.1412
  325MOL0     H43847  11.416  -0.821   8.486 -0.3477 -1.0500 -0.9958
  325MOL0     H43848  11.250  -0.771   8.472 -0.1347 -3.3783 -1.2672
  325MOL0     H43849  11.281  -0.668   8.256 -2.2375 -0.6588  1.1667
  325MOL0     H43850  11.320  -0.844   8.254  0.5997  1.3495 -1.6521
  325MOL0     H43851  11.528  -0.626   8.285 -0.5385  1.4683 -1.4456
  325MOL0     H43852  11.565  -0.802   8.271  0.7156 -1.1338 -2.5961
  325MOL0     H43853  11.415  -0.744   8.033  0.5839 -2.0817 -1.5219
  325MOL0     H43854  11.591  -0.772   8.054  1.3042  0.5357  2.1275
  325MOL0     H43855  11.622  -0.530   8.077  0.0834  1.4168 -0.2754
  325MOL0     H43856  11.440  -0.500   8.081 -0.5744 -0.0379 -1.9588
  325MOL0     H43857  11.311  -0.125   8.497 -2.8037 -2.4594  2.8376
  325MOL0     H43858  11.343   0.117   8.575  0.8851  1.0600  0.6562
  325MOL0     H43859  11.518   0.440   8.706 -0.0109 -1.2026  1.0133
  325MOL0     H43860  11.563   0.665   8.764 -0.9940 -0.8019 -0.7578
  325MOL0     H43861  10.936   1.400   8.728  2.2589 -2.1128  0.6679
  325MOL0     H43862  11.118   1.448   8.614  2.3334 -0.6660  0.4709
  325MOL0     H43863  11.553   1.759   8.714 -2.1737  2.8674 -0.3513
  325MOL0     H43864  11.778   1.828   8.612  0.8507  1.6253 -1.9535
  325MOL0     H43865  11.760   1.927   8.172 -1.2296 -0.6665  0.1262
  325MOL0     H43866  11.889   2.023   8.215 -0.6423  0.5341  1.2623
  325MOL0     H43867  11.895   1.731   8.172  2.0273 -0.1133  2.1486
  325MOL0     H43868  12.037   1.805   8.231 -1.2994 -2.0799  2.8448
  325MOL0     H43869  12.087   1.818   8.005  0.8359 -1.4731  3.8513
  325MOL0     H43870  11.994   1.972   8.026  0.6545 -0.4280  1.1196
  325MOL0     H43871  11.945   1.849   7.806 -1.6620  1.8221  0.2861
  325MOL0     H43872  11.804   1.870   7.909  0.6326  2.5787  4.3828
  325MOL0     H43873  11.886   1.446   7.898  0.2869 -0.4115  2.8592
  325MOL0     H43874  11.620   1.795   8.221 -0.2350 -1.0357  0.0185
  325MOL0     H43875  11.417   1.699   8.304 -2.1297 -0.2198  0.5758
  326MOL0     O43876   9.720   8.641   0.571  0.5689 -0.5463 -0.6393
  326MOL0     C43877   9.636   8.552   0.543 -0.0060  0.4981  0.1444
  326MOL0     O43878   9.562   8.559   0.419 -0.1673 -0.4588 -0.1146
  326MOL0     C43879   9.571   8.673   0.344  0.2465 -1.0395 -0.5133
  326MOL0     C43880   9.458   8.761   0.349 -0.3207 -0.3279  0.7518
  326MOL0     C43881   9.466   8.883   0.265 -0.2669 -1.1727 -0.3321
  326MOL0     C43882   9.564   8.901   0.171 -0.3107 -0.4230 -0.3621
  326MOL0     O43883   9.577   8.997   0.077 -0.1806  0.2852  0.2170
  326MOL0     C43884   9.467   9.091   0.036  0.2575 -0.6837 -0.7102
  326MOL0     C43885   9.419   9.034  -0.106 -0.2829  0.5858  0.5520
  326MOL0     C43886   9.332   9.129  -0.190  0.3479 -1.0595 -0.3839
  326MOL0     C43887   9.222   9.057  -0.256 -0.1608  0.5627  0.8565
  326MOL0     C43888   9.140   9.142  -0.366 -1.2969 -1.0525 -0.1396
  326MOL0     C43889   9.024   9.042  -0.424 -0.9015  0.4315  0.0045
  326MOL0     C43890   8.943   9.123  -0.524  0.0314  0.5922  0.3098
  326MOL0     C43891   8.843   9.026  -0.599 -0.1014  0.2007 -0.7163
  326MOL0     N43892   8.733   9.105  -0.653  1.1253 -0.4228 -0.7852
  326MOL0     C43893   8.636   9.171  -0.577 -0.7139  1.1073 -0.6694
  326MOL0     C43894   8.546   9.198  -0.670 -0.0743 -0.5167  0.3095
  326MOL0     C43895   8.421   9.275  -0.637 -0.0993  0.5050  0.6055
  326MOL0     C43896   8.390   9.360  -0.747  0.0021 -0.2491 -0.3876
  326MOL0     C43897   8.486   9.470  -0.800  0.8636 -0.1459  0.4591
  326MOL0     C43898   8.541   9.573  -0.708  0.0487 -0.7264 -0.8148
  326MOL0     O43899   8.433   9.644  -0.651  0.9499 -0.5405 -0.0416
  326MOL0     C43900   8.477   9.710  -0.542  0.2889 -0.1749  0.4988
  326MOL0     C43901   8.527   9.836  -0.553 -0.0435 -0.6979  1.2492
  326MOL0     C43902   8.608   9.895  -0.455 -0.3876 -0.5168  0.0583
  326MOL0     C43903   8.668  10.026  -0.484  0.0581 -0.1518  0.8423
  326MOL0     C43904   8.620   9.829  -0.328 -0.7490 -0.4093 -0.2069
  326MOL0     C43905   8.675   9.921  -0.229  0.1116 -0.7282 -0.9642
  326MOL0     O43906   8.809   9.925  -0.205 -0.3970  0.6209 -0.2947
  326MOL0     C43907   8.862   9.986  -0.092 -0.2586  0.9246  0.1672
  326MOL0     C43908   8.994  10.027  -0.106 -0.4173  0.6626  0.2553
  326MOL0     C43909   9.060  10.100  -0.004 -0.4044  1.2533 -0.5520
  326MOL0     C43910   8.998  10.111   0.129 -0.9613  0.6322  0.0060
  326MOL0     O43911   9.066  10.162   0.244 -0.5977  0.1917  0.0343
  326MOL0     C43912   9.199  10.133   0.271 -1.9761  0.5696  0.3872
  326MOL0     C43913   9.279  10.265   0.302  0.5055  0.5346 -0.2123
  326MOL0     C43914   9.266  10.367   0.191 -0.6594 -0.2762 -0.1297
  326MOL0     C43915   9.322  10.490   0.241 -0.2501 -0.4211  0.0544
  326MOL0     C43916   9.375  10.577   0.127 -0.0767  0.1888  0.8161
  326MOL0     C43917   9.518  10.531   0.089 -0.5106 -0.1757 -0.4357
  326MOL0     C43918   9.605  10.621   0.009 -0.3490  0.2295 -0.3990
  326MOL0     C43919   9.743  10.561  -0.009  0.3343 -0.3148  0.1214
  326MOL0    Cl43920   9.763  10.409  -0.081  0.2399  0.4709 -0.1870
  326MOL0     C43921   8.865  10.063   0.148 -1.0450 -0.2118  0.6598
  326MOL0     C43922   8.800  10.006   0.031 -0.1250  0.3816  0.1819
  326MOL0     O43923   8.587   9.982  -0.165 -0.2075  0.4690  0.3332
  326MOL0     C43924   8.555   9.707  -0.299 -0.7147 -0.8848  0.7681
  326MOL0     C43925   8.491   9.649  -0.412 -0.8831  0.6840 -0.0975
  326MOL0     N43926   8.585   9.153  -0.797 -0.4236 -0.7340  0.1410
  326MOL0     N43927   8.704   9.102  -0.787 -0.1737 -0.2200 -0.5375
  326MOL0     C43928   9.672   8.814   0.170  0.8151 -0.2754  0.3340
  326MOL0     C43929   9.679   8.710   0.265  0.1038  0.7762 -0.2880
  326MOL0     C43930   9.630   8.435   0.634  1.0047 -1.2203 -0.4318
  326MOL0     C43931   9.584   8.318   0.589  0.0011 -0.2094  0.6315
  326MOL0     C43932   9.580   8.208   0.683 -0.0447 -0.6035 -0.3867
  326MOL0     C43933   9.626   8.215   0.811 -0.2934 -0.2375 -0.0203
  326MOL0     O43934   9.617   8.092   0.880  0.1005 -0.5813 -0.4328
  326MOL0     C43935   9.650   8.091   1.021  0.1679  0.5387 -0.0923
  326MOL0     C43936   9.677   7.945   1.054 -0.0094 -0.3444 -0.2590
  326MOL0     C43937   9.561   7.844   1.033 -0.0219  0.6954  0.2644
  326MOL0     C43938   9.526   7.801   0.885  0.2547  0.2190  0.6462
  326MOL0     C43939   9.619   7.725   0.812  0.6966 -0.1721 -0.5359
  326MOL0     C43940   9.693   7.661   0.740 -0.7121  0.1207 -0.7205
  326MOL0     C43941   9.674   8.336   0.848 -0.5738  0.0580  0.3637
  326MOL0     C43942   9.681   8.449   0.764 -1.1876  0.3405 -0.9301
  326MOL0     H43943   9.368   8.743   0.407 -0.8809  0.2427  0.0727
  326MOL0     H43944   9.376   8.943   0.272  0.2506 -0.3854 -0.2820
  326MOL0     H43945   9.386   9.092   0.111  0.5505 -2.2562 -0.3265
  326MOL0     H43946   9.482   9.199   0.024 -1.5839 -0.2662  0.3033
  326MOL0     H43947   9.494   8.986  -0.169  0.0725  1.0989  0.5709
  326MOL0     H43948   9.361   8.949  -0.069 -0.9011 -0.5620 -2.7701
  326MOL0     H43949   9.290   9.210  -0.130  0.8161 -0.8351 -0.3582
  326MOL0     H43950   9.400   9.169  -0.266  1.5467  0.2295  1.2818
  326MOL0     H43951   9.268   8.968  -0.302  1.7918  1.3316  1.2272
  326MOL0     H43952   9.149   9.019  -0.185 -2.2886  2.6316 -0.1182
  326MOL0     H43953   9.089   9.231  -0.328  2.2269  2.2576 -2.3765
  326MOL0     H43954   9.217   9.182  -0.433 -2.7248 -0.5876 -1.5640
  326MOL0     H43955   9.078   8.965  -0.480  0.4055  0.4956  1.1242
  326MOL0     H43956   8.968   8.984  -0.350  1.9879 -2.6874 -0.0106
  326MOL0     H43957   8.890   9.207  -0.476  1.5179  1.8035 -0.0822
  326MOL0     H43958   8.999   9.172  -0.604 -1.3881 -1.0497 -1.7607
  326MOL0     H43959   8.797   8.959  -0.525 -1.3234 -1.2458 -2.6914
  326MOL0     H43960   8.890   8.976  -0.684 -1.9285  0.0335 -1.6839
  326MOL0     H43961   8.623   9.172  -0.469  2.0351  1.3000 -0.2822
  326MOL0     H43962   8.340   9.208  -0.608  1.6162 -1.3015  1.4534
  326MOL0     H43963   8.440   9.342  -0.553  0.2544  2.0178 -0.6225
  326MOL0     H43964   8.308   9.418  -0.706  2.4438  0.4593  4.1146
  326MOL0     H43965   8.371   9.295  -0.833  1.3128 -0.6942 -0.3616
  326MOL0     H43966   8.442   9.523  -0.885 -0.2068  0.4150  1.3361
  326MOL0     H43967   8.576   9.420  -0.837  1.2178  1.2662 -0.7063
  326MOL0     H43968   8.612   9.636  -0.763  1.1760 -1.0617  0.2096
  326MOL0     H43969   8.595   9.522  -0.628 -0.9905  0.7747  0.9189
  326MOL0     H43970   8.515   9.894  -0.644 -1.5506 -0.6971  1.4206
  326MOL0     H43971   8.773  10.013  -0.511 -0.2001 -2.1823  0.6448
  326MOL0     H43972   8.610  10.070  -0.566  0.1138 -2.6788 -0.6683
  326MOL0     H43973   8.662  10.095  -0.399  1.7522  3.3067 -1.5963
  326MOL0     H43974   9.051  10.006  -0.195 -0.2027 -1.3340  0.8170
  326MOL0     H43975   9.161  10.137  -0.019  1.4715 -2.6615  1.0384
  326MOL0     H43976   9.198  10.059   0.351  1.1627  0.7131  0.6763
  326MOL0     H43977   9.253  10.088   0.188 -1.2921  0.9220  0.6297
  326MOL0     H43978   9.247  10.295   0.402  0.1730  0.1122 -0.1871
  326MOL0     H43979   9.386  10.243   0.300  0.3901 -0.9680  3.1988
  326MOL0     H43980   9.162  10.381   0.159 -0.1172 -0.2347 -1.9906
  326MOL0     H43981   9.328  10.325   0.111 -0.6858  0.5757 -0.6023
  326MOL0     H43982   9.229  10.528   0.285 -1.9863 -2.1689 -1.9004
  326MOL0     H43983   9.401  10.480   0.317  0.4677  4.3419  0.2752
  326MOL0     H43984   9.363  10.683   0.152  1.6631  1.2078 -2.1741
  326MOL0     H43985   9.311  10.551   0.042  1.3940 -3.8996  0.7471
  326MOL0     H43986   9.571  10.513   0.183 -0.9313  0.7355 -0.0054
  326MOL0     H43987   9.503  10.443   0.027  0.5164  1.3945 -3.0632
  326MOL0     H43988   9.594  10.709   0.073  1.7852  0.1395  0.1799
  326MOL0     H43989   9.565  10.640  -0.091 -1.5252  0.7761  0.1603
  326MOL0     H43990   9.783  10.555   0.093 -2.0573 -0.0329  1.1363
  326MOL0     H43991   9.803  10.632  -0.067 -0.6700  0.4587  0.0122
  326MOL0     H43992   8.831  10.067   0.251 -2.2119 -2.5225  0.4239
  326MOL0     H43993   8.699   9.968   0.038  0.4502 -2.7140 -3.9932
  326MOL0     H43994   8.576   9.677  -0.197  0.5156  2.2025  1.5311
  326MOL0     H43995   8.442   9.554  -0.392  1.3306 -0.1530  2.0328
  326MOL0     H43996   9.756   8.824   0.102  0.0509 -1.9655 -0.9302
  326MOL0     H43997   9.767   8.647   0.255 -0.3474  0.5059 -3.2589
  326MOL0     H43998   9.559   8.313   0.484  1.4238  2.1502  0.1059
  326MOL0     H43999   9.543   8.115   0.640 -2.5146 -0.0562  0.3615
  326MOL0     H44000   9.747   8.135   1.044 -0.6794  1.1637  2.6226
  326MOL0     H44001   9.568   8.127   1.084  1.5438  0.8001  1.6146
  326MOL0     H44002   9.711   7.928   1.157  0.2071 -0.9406 -0.4234
  326MOL0     H44003   9.763   7.922   0.991  0.7291  0.0746  0.5736
  326MOL0     H44004   9.467   7.884   1.073 -1.3312 -1.4837 -0.4423
  326MOL0     H44005   9.581   7.750   1.086  0.3797 -0.1132 -1.2760
  326MOL0     H44006   9.517   7.899   0.838  2.4591  1.0020  1.7441
  326MOL0     H44007   9.431   7.746   0.883 -0.5786  1.6254 -0.1709
  326MOL0     H44008   9.762   7.594   0.692  0.6936 -0.4415  1.9056
  326MOL0     H44009   9.719   8.348   0.946 -3.5328  5.1913  1.5076
  326MOL0     H44010   9.723   8.539   0.807  0.6870  0.9523 -3.7575
  327MOL0     O44011   3.942   1.617   3.592  0.9318 -0.3790  0.3720
  327MOL0     C44012   3.860   1.529   3.606  0.0603 -0.4789 -1.2329
  327MOL0     O44013   3.780   1.523   3.723  0.4175  1.6114  0.4981
  327MOL0     C44014   3.776   1.625   3.821  0.3051  0.4104  0.2815
  327MOL0     C44015   3.896   1.661   3.885  0.7303 -0.2980  0.2861
  327MOL0     C44016   3.911   1.763   3.977  0.1957 -0.5999  0.4578
  327MOL0     C44017   3.792   1.847   3.997  0.6123  0.5929  0.7141
  327MOL0     O44018   3.782   1.939   4.089 -0.1855 -0.1335  0.8050
  327MOL0     C44019   3.849   2.052   4.043 -0.0851 -0.5758  0.2881
  327MOL0     C44020   3.819   2.162   4.143 -0.6715  0.9487  1.1081
  327MOL0     C44021   3.888   2.140   4.277  0.2417  0.3543  0.2212
  327MOL0     C44022   3.812   2.037   4.374 -0.1571 -1.0762  0.7724
  327MOL0     C44023   3.704   2.122   4.462 -0.0539  0.5018 -0.5321
  327MOL0     C44024   3.629   2.013   4.544 -0.8664  0.2069  0.5600
  327MOL0     C44025   3.536   2.068   4.643  0.1891 -0.2098  0.0796
  327MOL0     C44026   3.427   2.155   4.578 -0.3380 -0.1220  0.8447
  327MOL0     N44027   3.322   2.184   4.673 -0.2956 -0.3445 -0.1721
  327MOL0     C44028   3.317   2.291   4.750  0.6543  0.1965 -0.0745
  327MOL0     C44029   3.197   2.291   4.795  0.5688  0.1061 -0.1003
  327MOL0     C44030   3.141   2.401   4.877  0.0548 -0.1468  0.3552
  327MOL0     C44031   3.083   2.511   4.792  0.6740  0.3469 -0.3804
  327MOL0     C44032   3.056   2.639   4.869  0.6260  0.7498 -0.2103
  327MOL0     C44033   2.979   2.732   4.770  0.9984 -1.2499  0.0121
  327MOL0     O44034   2.946   2.858   4.847  0.7951 -0.9712  0.5266
  327MOL0     C44035   2.835   2.859   4.923  0.2252 -0.4546 -1.5899
  327MOL0     C44036   2.771   2.750   4.967 -0.3073 -0.0187 -0.3514
  327MOL0     C44037   2.664   2.758   5.067  0.1830  0.9502 -0.3425
  327MOL0     C44038   2.599   2.630   5.111 -0.3003  0.1953  0.3954
  327MOL0     C44039   2.619   2.882   5.109 -0.4034 -0.2113  1.0335
  327MOL0     C44040   2.517   2.895   5.211  0.6628 -0.5267 -0.6302
  327MOL0     O44041   2.460   2.792   5.269 -0.3446 -0.2044  0.0096
  327MOL0     C44042   2.405   2.809   5.402 -0.3372 -0.1079 -0.5581
  327MOL0     C44043   2.290   2.884   5.424 -0.4186  0.8047 -0.2836
  327MOL0     C44044   2.249   2.894   5.553  0.3773 -0.2808 -1.2935
  327MOL0     C44045   2.320   2.845   5.670  0.0895 -0.2794  0.5781
  327MOL0     O44046   2.275   2.872   5.792  0.0214 -0.0852  0.3113
  327MOL0     C44047   2.321   2.787   5.903 -0.1415 -0.2967 -0.5959
  327MOL0     C44048   2.254   2.844   6.035  0.3187 -0.9375  0.1926
  327MOL0     C44049   2.359   2.913   6.122  0.0498 -0.6105  0.5336
  327MOL0     C44050   2.309   2.972   6.258 -0.0467 -0.4034 -0.4519
  327MOL0     C44051   2.220   3.092   6.236  0.2362  0.2258  0.3940
  327MOL0     C44052   2.196   3.168   6.370  0.2144  0.5630  0.1880
  327MOL0     C44053   2.095   3.108   6.470  0.3620 -0.1637  0.3631
  327MOL0     C44054   1.947   3.096   6.427 -0.1365 -0.1411  0.0336
  327MOL0    Cl44055   1.879   3.257   6.414  0.2880 -0.1268 -0.1866
  327MOL0     C44056   2.435   2.773   5.644  0.5490 -0.0409 -1.0668
  327MOL0     C44057   2.479   2.755   5.517 -0.2746 -0.2043  0.1977
  327MOL0     O44058   2.498   3.015   5.251  0.7527  0.4857  0.2361
  327MOL0     C44059   2.679   2.993   5.055  0.3103  0.6177  0.4247
  327MOL0     C44060   2.788   2.980   4.967 -0.4365 -0.8658  0.3685
  327MOL0     N44061   3.124   2.184   4.746  0.8173  0.7136 -1.0750
  327MOL0     N44062   3.212   2.111   4.686  0.0341  0.3183  0.0719
  327MOL0     C44063   3.664   1.802   3.938 -0.3594  0.0675 -0.1876
  327MOL0     C44064   3.663   1.702   3.841 -0.2006  0.5822  0.0405
  327MOL0     C44065   3.843   1.432   3.500  0.1883  0.2398  0.8573
  327MOL0     C44066   3.716   1.365   3.467  0.2861 -0.3783 -0.2095
  327MOL0     C44067   3.702   1.266   3.371  0.1601  0.0304 -0.5264
  327MOL0     C44068   3.811   1.240   3.289  0.2103  1.0326 -0.5448
  327MOL0     O44069   3.808   1.158   3.184 -0.6046 -0.0153  0.7266
  327MOL0     C44070   3.680   1.106   3.138 -0.1887  0.0845  0.3795
  327MOL0     C44071   3.630   1.002   3.238 -0.3291 -0.0303 -0.6003
  327MOL0     C44072   3.736   0.899   3.271 -0.0353  0.4187 -0.1270
  327MOL0     C44073   3.788   0.820   3.150 -0.9029 -1.7773 -0.1013
  327MOL0     C44074   3.686   0.738   3.084  0.2899  0.1005  0.4625
  327MOL0     C44075   3.599   0.685   3.016  0.5306  0.0130  0.5077
  327MOL0     C44076   3.932   1.290   3.322 -1.4150 -0.5378  0.5191
  327MOL0     C44077   3.951   1.386   3.423  0.8805  0.0157  0.1750
  327MOL0     H44078   3.976   1.588   3.878  0.1609 -1.0330  1.1952
  327MOL0     H44079   4.011   1.788   4.012 -0.8339  0.4831  2.9144
  327MOL0     H44080   3.954   2.029   4.022  0.2231  2.4764 -2.1787
  327MOL0     H44081   3.816   2.093   3.947 -1.9115 -2.5003  0.0373
  327MOL0     H44082   3.848   2.263   4.112 -0.3253  0.4762 -0.1735
  327MOL0     H44083   3.711   2.160   4.155 -0.9235  2.3500 -0.6213
  327MOL0     H44084   3.984   2.091   4.260  0.3946  1.1623 -1.3959
  327MOL0     H44085   3.898   2.240   4.320 -1.6437  1.2940 -1.3663
  327MOL0     H44086   3.773   1.946   4.329  3.2907 -1.3355 -2.1020
  327MOL0     H44087   3.891   2.010   4.445 -0.2504  0.3792  1.4733
  327MOL0     H44088   3.752   2.191   4.531 -0.5708 -2.0628  2.6557
  327MOL0     H44089   3.633   2.171   4.395  1.8570  1.7840 -1.7169
  327MOL0     H44090   3.574   1.945   4.478 -1.4771 -0.2436  1.5110
  327MOL0     H44091   3.706   1.959   4.599  1.4102 -2.7184 -4.7237
  327MOL0     H44092   3.487   1.985   4.696  0.7835  0.0248  1.0133
  327MOL0     H44093   3.590   2.112   4.727 -0.0067 -1.6171  0.9808
  327MOL0     H44094   3.382   2.098   4.497 -1.5510  2.7199 -0.6237
  327MOL0     H44095   3.473   2.244   4.534 -0.1194 -0.7934 -0.3323
  327MOL0     H44096   3.388   2.368   4.776 -1.2271  1.3804  1.9284
  327MOL0     H44097   3.062   2.353   4.935 -0.0854  0.8194  0.9763
  327MOL0     H44098   3.224   2.436   4.940  1.3035 -0.6155 -0.9631
  327MOL0     H44099   2.986   2.479   4.752 -1.3216  2.9146  2.0703
  327MOL0     H44100   3.160   2.520   4.714  0.2261 -1.1870 -1.0451
  327MOL0     H44101   3.149   2.686   4.904  1.6064 -2.3628  1.7736
  327MOL0     H44102   3.005   2.597   4.956  2.6493 -2.4423 -0.3919
  327MOL0     H44103   2.889   2.684   4.731 -0.6435  0.6099  1.3370
  327MOL0     H44104   3.038   2.761   4.682  2.3026 -1.6369  0.7218
  327MOL0     H44105   2.805   2.650   4.942 -1.7316 -1.1461  1.8297
  327MOL0     H44106   2.493   2.629   5.082 -0.4217  0.8646  0.8013
  327MOL0     H44107   2.657   2.548   5.068  0.0543  1.0745 -0.8606
  327MOL0     H44108   2.602   2.600   5.216  3.1017 -1.9116 -0.1437
  327MOL0     H44109   2.243   2.937   5.342  1.5437  0.4676 -1.6966
  327MOL0     H44110   2.158   2.953   5.555 -0.0543 -0.9025 -2.1856
  327MOL0     H44111   2.301   2.681   5.887  2.8471 -2.0973  4.9077
  327MOL0     H44112   2.430   2.789   5.909  0.0782 -1.3261 -3.0002
  327MOL0     H44113   2.177   2.917   6.007  0.9971 -0.0361  0.6226
  327MOL0     H44114   2.202   2.769   6.094  1.2185 -0.1371  2.0886
  327MOL0     H44115   2.415   2.990   6.068  0.0521  0.3214  1.8085
  327MOL0     H44116   2.435   2.842   6.157  0.2068  0.3295  2.2504
  327MOL0     H44117   2.260   2.895   6.318 -1.4125  1.0167  0.3385
  327MOL0     H44118   2.385   3.005   6.330 -0.5827  3.6094 -1.4973
  327MOL0     H44119   2.134   3.049   6.184 -0.3038  1.0368  0.6072
  327MOL0     H44120   2.280   3.158   6.172 -0.7033  0.6810 -0.0431
  327MOL0     H44121   2.291   3.168   6.424  0.2486 -2.1035  0.2310
  327MOL0     H44122   2.156   3.266   6.343 -2.9822 -1.3326 -2.6849
  327MOL0     H44123   2.100   3.169   6.561 -1.2236  0.3508  0.1369
  327MOL0     H44124   2.129   3.010   6.506 -0.6341  0.5625  3.5558
  327MOL0     H44125   1.889   3.040   6.500  2.7956 -3.4529  0.0977
  327MOL0     H44126   1.933   3.037   6.336 -2.2681  0.0222  0.2219
  327MOL0     H44127   2.485   2.714   5.721  1.1341  0.3998 -1.0998
  327MOL0     H44128   2.559   2.688   5.487 -0.3945  0.7542 -2.5334
  327MOL0     H44129   2.650   3.094   5.080  1.4410  0.8555  0.8429
  327MOL0     H44130   2.841   3.069   4.934 -0.4445 -1.6664 -1.9916
  327MOL0     H44131   3.567   1.836   3.973  1.2156  2.3995  2.3235
  327MOL0     H44132   3.577   1.668   3.784 -1.8734  1.2725  2.0063
  327MOL0     H44133   3.625   1.397   3.517  1.2183  2.3689 -0.0904
  327MOL0     H44134   3.602   1.227   3.360  0.2053  0.2501 -1.9265
  327MOL0     H44135   3.605   1.182   3.110  0.5270 -0.0953 -2.3088
  327MOL0     H44136   3.685   1.053   3.042 -1.8477 -1.8432  1.2756
  327MOL0     H44137   3.541   0.954   3.195  0.5241 -2.7893  0.4842
  327MOL0     H44138   3.593   1.034   3.336 -1.0949  0.8873 -1.1721
  327MOL0     H44139   3.689   0.823   3.335 -0.9852 -1.0392 -2.4263
  327MOL0     H44140   3.831   0.937   3.311 -1.1077  2.5012  0.6089
  327MOL0     H44141   3.870   0.755   3.181  0.6118  0.1690  0.1895
  327MOL0     H44142   3.841   0.898   3.094 -3.0322  0.3409  0.6537
  327MOL0     H44143   3.529   0.646   2.946  2.4137 -4.2424  0.6839
  327MOL0     H44144   4.015   1.256   3.262 -1.5464  1.1981 -0.7498
  327MOL0     H44145   4.052   1.426   3.431  1.1075 -0.2963 -0.9332
  328MOL0     O44146   3.796   2.822   7.519 -0.1432  0.5944  0.4350
  328MOL0     C44147   3.712   2.845   7.605  0.3381  0.2020  0.8030
  328MOL0     O44148   3.585   2.896   7.575 -0.3653  0.3567 -0.6306
  328MOL0     C44149   3.578   2.945   7.449 -0.0325 -0.4093 -0.5612
  328MOL0     C44150   3.547   3.086   7.445  0.7214  0.1419  0.2704
  328MOL0     C44151   3.538   3.155   7.322 -0.6597  0.3740 -0.5349
  328MOL0     C44152   3.520   3.074   7.205  0.2329  1.6135 -0.4288
  328MOL0     O44153   3.492   3.121   7.083 -1.7316  0.4369  0.2474
  328MOL0     C44154   3.378   3.212   7.067 -0.7321  0.5916 -1.1556
  328MOL0     C44155   3.250   3.130   7.085  0.5978  1.0380  0.1072
  328MOL0     C44156   3.233   3.046   6.965  0.8322  0.3046  0.7728
  328MOL0     C44157   3.088   3.062   6.918  0.5182 -1.1312  0.1202
  328MOL0     C44158   3.076   2.975   6.785 -0.5861 -0.4497  0.4993
  328MOL0     C44159   3.098   3.044   6.648  0.1084 -0.6194 -0.7256
  328MOL0     C44160   3.122   2.943   6.526 -0.3214 -0.9880 -0.8035
  328MOL0     C44161   3.271   2.905   6.502  0.0696 -0.1408 -0.8018
  328MOL0     N44162   3.296   2.858   6.367  0.6667  0.1132  0.3079
  328MOL0     C44163   3.409   2.884   6.297 -0.7894  0.0371 -0.6486
  328MOL0     C44164   3.370   2.841   6.171  0.5038  0.4014 -0.5197
  328MOL0     C44165   3.448   2.856   6.043  0.0308  0.0513 -0.3212
  328MOL0     C44166   3.389   2.791   5.915  0.1962 -0.5677  0.0831
  328MOL0     C44167   3.480   2.841   5.800 -0.5239  0.0972  0.3990
  328MOL0     C44168   3.431   2.779   5.667  0.4343 -0.6442  0.6625
  328MOL0     O44169   3.413   2.630   5.666  0.4739  0.7314  0.0055
  328MOL0     C44170   3.407   2.565   5.545 -1.1709  0.5363  1.1830
  328MOL0     C44171   3.352   2.614   5.427  0.3359 -0.2631 -0.1157
  328MOL0     C44172   3.349   2.532   5.309  0.1119  0.1174  0.5128
  328MOL0     C44173   3.270   2.574   5.193  0.8068  0.8570 -0.1558
  328MOL0     C44174   3.405   2.406   5.313  0.5592  0.2367 -0.7625
  328MOL0     C44175   3.394   2.315   5.188 -1.0434 -0.8510 -0.1490
  328MOL0     O44176   3.346   2.190   5.201  0.5559  0.3961 -0.3560
  328MOL0     C44177   3.400   2.098   5.114  0.3446 -0.2093  0.1143
  328MOL0     C44178   3.328   2.061   4.996 -0.0990  0.6842 -0.1120
  328MOL0     C44179   3.371   1.948   4.929 -0.9929  0.1959  0.2928
  328MOL0     C44180   3.490   1.874   4.966  0.6236  0.4889 -0.8623
  328MOL0     O44181   3.525   1.759   4.912  0.1773  0.1199  0.8052
  328MOL0     C44182   3.654   1.761   4.849 -0.9211  0.0915 -0.6254
  328MOL0     C44183   3.734   1.627   4.885  0.5267  0.0625  0.0788
  328MOL0     C44184   3.735   1.514   4.779  0.2307 -0.4043  0.0698
  328MOL0     C44185   3.807   1.391   4.825  0.6353 -0.5205 -0.4023
  328MOL0     C44186   3.790   1.286   4.708  0.5620  0.0627 -0.5403
  328MOL0     C44187   3.850   1.149   4.727  0.0672 -0.1711 -0.6537
  328MOL0     C44188   3.838   1.039   4.615 -0.6097  0.9677  0.0905
  328MOL0     C44189   3.700   0.987   4.581  1.2579  0.8787 -1.1363
  328MOL0    Cl44190   3.623   0.902   4.718 -0.0270  0.6094  0.0073
  328MOL0     C44191   3.559   1.912   5.084  1.0008  0.3023 -0.2767
  328MOL0     C44192   3.504   2.018   5.159 -0.4972 -0.0002 -0.1190
  328MOL0     O44193   3.462   2.359   5.094 -0.1414 -0.5217  0.7939
  328MOL0     C44194   3.460   2.357   5.433  1.1669 -0.4279 -0.2991
  328MOL0     C44195   3.450   2.435   5.551  0.5547  0.1562 -0.8921
  328MOL0     N44196   3.250   2.778   6.177  0.7662 -0.0058  0.1680
  328MOL0     N44197   3.208   2.780   6.301  0.3502  0.7856 -0.0946
  328MOL0     C44198   3.532   2.929   7.214 -0.3013  0.6579 -0.1051
  328MOL0     C44199   3.573   2.871   7.333 -0.2458 -0.1773  0.0788
  328MOL0     C44200   3.746   2.815   7.745  1.0720  1.3484  0.8667
  328MOL0     C44201   3.876   2.777   7.779  0.2475  0.0052 -0.1486
  328MOL0     C44202   3.904   2.744   7.909 -0.5299 -0.2421  0.5912
  328MOL0     C44203   3.806   2.757   8.012  0.1443 -0.0104  0.6162
  328MOL0     O44204   3.816   2.734   8.148 -0.2569  0.0851  0.8501
  328MOL0     C44205   3.937   2.668   8.191 -0.8346 -1.2647 -0.4812
  328MOL0     C44206   4.058   2.755   8.206 -0.7253 -0.8377  0.1949
  328MOL0     C44207   4.040   2.858   8.315  1.0762 -0.4628 -0.2549
  328MOL0     C44208   4.165   2.949   8.328 -0.4483 -0.6214 -0.4248
  328MOL0     C44209   4.277   2.895   8.410 -0.3166 -0.4475 -0.1014
  328MOL0     C44210   4.366   2.842   8.473 -0.3302 -0.2080 -0.2780
  328MOL0     C44211   3.684   2.807   7.978 -0.1289 -0.3095 -1.2836
  328MOL0     C44212   3.651   2.838   7.848 -0.2310  0.2849  0.1647
  328MOL0     H44213   3.532   3.138   7.539  0.2430  1.0275 -0.2843
  328MOL0     H44214   3.528   3.262   7.308  0.2519  0.6048  0.4696
  328MOL0     H44215   3.394   3.289   7.143  1.2217 -1.0801  0.2410
  328MOL0     H44216   3.388   3.260   6.970 -1.0966  0.5272 -1.2233
  328MOL0     H44217   3.237   3.074   7.178 -1.0503  0.8090 -0.2131
  328MOL0     H44218   3.171   3.205   7.096 -1.5294 -1.1221  0.4909
  328MOL0     H44219   3.310   3.058   6.888  0.5510 -2.9375 -0.1727
  328MOL0     H44220   3.244   2.943   7.001  0.0299 -0.3158 -0.7124
  328MOL0     H44221   3.025   3.044   7.006 -0.0671  1.3755  0.2949
  328MOL0     H44222   3.064   3.169   6.913 -3.0649 -1.6644  1.9931
  328MOL0     H44223   3.145   2.894   6.809 -0.0604 -0.5349 -1.1675
  328MOL0     H44224   2.975   2.933   6.792 -1.2609  0.6593 -1.6844
  328MOL0     H44225   3.005   3.100   6.635  1.3736  1.8967  0.3781
  328MOL0     H44226   3.165   3.130   6.651 -0.9556  0.2149  1.6444
  328MOL0     H44227   3.070   2.848   6.537 -0.4682 -1.1434 -2.5644
  328MOL0     H44228   3.089   2.990   6.433  1.5417  2.0168 -0.0740
  328MOL0     H44229   3.292   2.825   6.574 -2.7287 -1.9153 -1.7528
  328MOL0     H44230   3.324   2.998   6.521 -1.5048  0.8896 -1.2192
  328MOL0     H44231   3.491   2.950   6.322 -2.4919  2.4268 -1.0464
  328MOL0     H44232   3.459   2.963   6.021  4.6140 -0.4973 -1.8619
  328MOL0     H44233   3.552   2.822   6.044 -0.1156 -0.5662 -1.9444
  328MOL0     H44234   3.288   2.826   5.891  1.0553  1.7754 -0.3773
  328MOL0     H44235   3.390   2.682   5.921 -0.6588 -0.5408  1.0614
  328MOL0     H44236   3.582   2.807   5.821 -0.6432 -0.4809  0.0418
  328MOL0     H44237   3.467   2.946   5.771  0.3576 -0.9899 -4.9373
  328MOL0     H44238   3.480   2.822   5.579 -0.1411  1.2558  1.2222
  328MOL0     H44239   3.333   2.827   5.665  1.5807  1.8664  0.5057
  328MOL0     H44240   3.305   2.711   5.435  4.8583  2.0815  1.1522
  328MOL0     H44241   3.226   2.672   5.214  0.1709  0.5083  0.1931
  328MOL0     H44242   3.346   2.590   5.117  1.0037  1.6565  0.2023
  328MOL0     H44243   3.193   2.498   5.175 -0.0927  1.6988  0.0664
  328MOL0     H44244   3.235   2.111   4.970 -1.9194 -2.7259 -0.8620
  328MOL0     H44245   3.317   1.912   4.842 -0.2725  0.0967 -0.1136
  328MOL0     H44246   3.651   1.779   4.741  1.5672  1.6746 -0.5040
  328MOL0     H44247   3.703   1.847   4.895 -5.1021  2.5730 -0.3216
  328MOL0     H44248   3.839   1.655   4.892  1.2449 -1.7667 -2.4468
  328MOL0     H44249   3.691   1.584   4.976 -1.1941 -0.2471 -0.8348
  328MOL0     H44250   3.782   1.546   4.686  1.7693 -0.0695  0.9209
  328MOL0     H44251   3.632   1.492   4.750  0.4279 -1.3180  0.0356
  328MOL0     H44252   3.912   1.409   4.850  0.7876 -1.8324 -0.0336
  328MOL0     H44253   3.757   1.344   4.910 -1.1071 -0.1181 -1.1642
  328MOL0     H44254   3.836   1.330   4.619 -0.8894  1.2764 -0.7308
  328MOL0     H44255   3.682   1.273   4.696  0.4801 -1.0725  1.0800
  328MOL0     H44256   3.957   1.169   4.736  0.1863 -1.6335  2.4179
  328MOL0     H44257   3.819   1.102   4.821  2.1415 -2.8889 -1.1993
  328MOL0     H44258   3.897   0.952   4.643  0.7521  1.8783  0.1345
  328MOL0     H44259   3.887   1.075   4.524 -0.5207  1.9481  0.5083
  328MOL0     H44260   3.706   0.917   4.498 -3.8633 -2.7025  0.9885
  328MOL0     H44261   3.624   1.059   4.550 -0.6615 -0.9222 -0.8166
  328MOL0     H44262   3.644   1.852   5.115  0.7617  0.9621  1.8654
  328MOL0     H44263   3.564   2.059   5.239 -0.7520  2.3025 -1.0394
  328MOL0     H44264   3.492   2.254   5.439  0.5568 -0.6742 -0.9874
  328MOL0     H44265   3.486   2.390   5.643  2.1471 -1.4110 -2.2233
  328MOL0     H44266   3.534   2.875   7.120  0.0109  1.5633 -0.6329
  328MOL0     H44267   3.580   2.763   7.334 -2.7362 -0.4279 -1.2824
  328MOL0     H44268   3.941   2.756   7.694 -0.9553 -0.9447 -0.8757
  328MOL0     H44269   4.000   2.699   7.930 -0.0062  1.3865  1.9235
  328MOL0     H44270   3.923   2.627   8.291 -1.6918 -0.8804 -0.4353
  328MOL0     H44271   3.961   2.584   8.125  0.4114 -1.6907  0.4748
  328MOL0     H44272   4.069   2.812   8.113 -1.7548  0.1132  0.6413
  328MOL0     H44273   4.144   2.691   8.230 -1.4381 -2.5521 -1.5248
  328MOL0     H44274   4.025   2.807   8.410 -3.7591  3.3158  1.3837
  328MOL0     H44275   3.943   2.907   8.303 -1.7244 -5.7055 -2.4726
  328MOL0     H44276   4.115   3.035   8.373 -2.1254 -1.2381 -1.0330
  328MOL0     H44277   4.208   2.970   8.230 -0.4991 -2.4792 -0.8745
  328MOL0     H44278   4.432   2.776   8.523 -1.7515 -0.8041  0.8746
  328MOL0     H44279   3.612   2.810   8.059  0.3869 -1.3903 -0.7668
  328MOL0     H44280   3.549   2.869   7.824 -0.5186  1.8298  2.9511
  329MOL0     O44281   5.352   2.354   4.257 -0.0283  0.4799 -0.1156
  329MOL0     C44282   5.351   2.329   4.379  0.0263  0.0712 -0.8548
  329MOL0     O44283   5.463   2.262   4.450  0.6010  0.1437  0.4824
  329MOL0     C44284   5.565   2.220   4.369  0.6902  0.2860  0.6007
  329MOL0     C44285   5.701   2.265   4.397 -0.4576  0.2375  0.0469
  329MOL0     C44286   5.812   2.209   4.320  1.1892 -0.1745 -1.1184
  329MOL0     C44287   5.783   2.130   4.219 -0.3009 -0.1776 -0.7208
  329MOL0     O44288   5.891   2.097   4.141 -0.9870  0.9777 -0.6908
  329MOL0     C44289   5.889   1.983   4.060 -0.2130  0.5940  0.3917
  329MOL0     C44290   5.887   1.862   4.151 -0.4728  0.2378 -0.2396
  329MOL0     C44291   5.930   1.744   4.062 -0.4574  0.1892 -0.4153
  329MOL0     C44292   5.871   1.609   4.107  0.6971 -0.0217 -0.6566
  329MOL0     C44293   5.939   1.492   4.033  0.1675  0.6178  0.4783
  329MOL0     C44294   5.899   1.474   3.884  0.2612  0.6746 -0.6432
  329MOL0     C44295   5.755   1.417   3.871  0.2311  0.3069 -0.2597
  329MOL0     C44296   5.730   1.353   3.730  0.5590 -0.7394  0.8240
  329MOL0     N44297   5.601   1.284   3.700 -0.8668  0.1961 -0.6348
  329MOL0     C44298   5.557   1.268   3.573 -0.8254  0.2750 -0.3311
  329MOL0     C44299   5.447   1.185   3.585 -0.5335 -0.5350  0.2073
  329MOL0     C44300   5.376   1.131   3.468 -0.1169  0.9083 -0.5829
  329MOL0     C44301   5.464   1.080   3.351 -0.2850 -0.4478 -1.1387
  329MOL0     C44302   5.393   0.963   3.283  0.8838  0.1887 -0.1101
  329MOL0     C44303   5.251   1.001   3.224 -0.4407 -0.0151  0.3596
  329MOL0     O44304   5.197   0.888   3.146  0.1440  0.3014 -0.7483
  329MOL0     C44305   5.058   0.899   3.112 -1.0059  0.9662 -0.6452
  329MOL0     C44306   4.994   0.780   3.074 -0.6011  0.8271 -0.8670
  329MOL0     C44307   4.865   0.778   3.017 -0.2280  0.5865 -0.1700
  329MOL0     C44308   4.827   0.637   2.969 -0.3733  1.4325 -1.1251
  329MOL0     C44309   4.789   0.899   3.008  1.0647 -0.1451  0.7803
  329MOL0     C44310   4.652   0.908   2.958 -0.7569  0.4172  0.2668
  329MOL0     O44311   4.576   0.809   3.001  0.6730 -0.0323 -0.3196
  329MOL0     C44312   4.438   0.809   2.987  0.0162  0.1986 -0.6553
  329MOL0     C44313   4.385   0.707   2.912 -0.3499  0.0286 -0.4855
  329MOL0     C44314   4.247   0.697   2.883 -0.0551 -0.2683  0.8825
  329MOL0     C44315   4.164   0.796   2.939 -0.0393 -0.5152  0.2588
  329MOL0     O44316   4.030   0.805   2.906  0.7631 -0.4606 -0.2303
  329MOL0     C44317   4.007   0.810   2.761  0.4626  0.4599 -0.2472
  329MOL0     C44318   3.881   0.899   2.745  0.0200 -0.1075  0.1706
  329MOL0     C44319   3.848   0.912   2.600 -0.4065  0.6555  0.1563
  329MOL0     C44320   3.741   1.016   2.603 -0.1608 -0.1935  1.5390
  329MOL0     C44321   3.655   1.018   2.479  0.4448 -1.5690  1.1642
  329MOL0     C44322   3.612   1.160   2.447  0.2435  0.1837  0.0615
  329MOL0     C44323   3.481   1.161   2.380 -0.3037 -0.2255  1.0195
  329MOL0     C44324   3.435   1.309   2.370  0.7635 -0.2068  0.8607
  329MOL0    Cl44325   3.546   1.408   2.267  0.0723  0.0421  0.0650
  329MOL0     C44326   4.225   0.892   3.022 -0.0036  0.1271  0.5592
  329MOL0     C44327   4.362   0.907   3.045 -0.0908 -0.1365  1.0931
  329MOL0     O44328   4.616   1.012   2.904 -0.3206 -0.7468  0.4777
  329MOL0     C44329   4.846   1.010   3.062 -1.4507 -0.0535 -0.2807
  329MOL0     C44330   4.987   1.019   3.108  0.8415  0.2091  0.7148
  329MOL0     N44331   5.440   1.150   3.720 -0.3785 -0.8433 -0.1435
  329MOL0     N44332   5.519   1.222   3.793 -0.0856 -0.0639  0.3791
  329MOL0     C44333   5.651   2.091   4.190  0.1379  0.9967 -0.3711
  329MOL0     C44334   5.547   2.121   4.273  0.3959  0.7435 -0.7740
  329MOL0     C44335   5.233   2.373   4.455  0.0345  0.7300  0.3435
  329MOL0     C44336   5.129   2.445   4.398  0.3748 -0.8910  0.3431
  329MOL0     C44337   5.029   2.494   4.484  0.4756  0.8341 -0.1652
  329MOL0     C44338   5.036   2.475   4.622 -0.0413  0.3594  0.1904
  329MOL0     O44339   4.927   2.507   4.693 -0.3287  0.5908 -0.3541
  329MOL0     C44340   4.843   2.399   4.726  0.3279  0.0571 -0.7335
  329MOL0     C44341   4.817   2.406   4.876 -1.0272  0.0531 -1.1670
  329MOL0     C44342   4.760   2.538   4.938  0.0309 -0.2036 -0.4662
  329MOL0     C44343   4.636   2.588   4.871 -0.1403 -0.1504  0.4436
  329MOL0     C44344   4.597   2.722   4.913  0.0347  0.0859  0.2951
  329MOL0     C44345   4.588   2.842   4.916  0.0134  0.7239  0.4658
  329MOL0     C44346   5.136   2.407   4.688 -0.4790 -0.1789  0.2763
  329MOL0     C44347   5.229   2.338   4.601  0.0607  0.1207 -0.3715
  329MOL0     H44348   5.713   2.319   4.491 -0.0341 -3.1664  2.0916
  329MOL0     H44349   5.914   2.232   4.349  0.5659 -0.1016  1.2411
  329MOL0     H44350   5.790   1.979   4.014 -0.5982 -0.2609  1.2470
  329MOL0     H44351   5.968   1.990   3.985  0.8679  2.0330  1.6085
  329MOL0     H44352   5.959   1.871   4.233 -0.0942  3.2814 -0.8137
  329MOL0     H44353   5.787   1.838   4.189 -0.6313 -0.5303 -1.1181
  329MOL0     H44354   5.890   1.745   3.961  0.7145  1.2195 -0.8959
  329MOL0     H44355   6.040   1.740   4.056 -0.5507 -0.5528 -1.8698
  329MOL0     H44356   5.890   1.604   4.214 -0.5480  4.2258 -0.0534
  329MOL0     H44357   5.768   1.623   4.074 -0.1764 -1.1739  1.4187
  329MOL0     H44358   6.045   1.502   4.057  0.0005  0.5815  1.2393
  329MOL0     H44359   5.916   1.401   4.088  2.5385 -0.7523 -0.6629
  329MOL0     H44360   5.894   1.572   3.836  0.1389  1.7029  1.3380
  329MOL0     H44361   5.968   1.403   3.837 -0.1369 -1.7884  2.1693
  329MOL0     H44362   5.742   1.332   3.939 -1.1014 -1.2314 -2.3207
  329MOL0     H44363   5.677   1.486   3.906  0.3347  0.8734 -1.1250
  329MOL0     H44364   5.815   1.291   3.703  1.1108  0.4427 -0.2246
  329MOL0     H44365   5.719   1.432   3.655  0.4243 -2.9468 -1.6029
  329MOL0     H44366   5.601   1.304   3.481  0.0532 -0.4471 -0.2081
  329MOL0     H44367   5.326   1.040   3.503 -0.4207 -0.0337 -3.2386
  329MOL0     H44368   5.303   1.205   3.432 -0.9326 -0.9113 -2.9208
  329MOL0     H44369   5.550   1.026   3.391  0.6107  1.1981 -0.7432
  329MOL0     H44370   5.480   1.166   3.285 -2.2685  0.1101 -0.9577
  329MOL0     H44371   5.384   0.883   3.357  1.3176  1.2890  1.1684
  329MOL0     H44372   5.454   0.924   3.201  1.3625  3.3512 -1.4320
  329MOL0     H44373   5.261   1.089   3.161  0.3236 -0.4727 -0.1818
  329MOL0     H44374   5.173   1.013   3.299 -1.0262 -0.4383 -0.1631
  329MOL0     H44375   5.043   0.684   3.086  0.0887  0.8186 -3.1992
  329MOL0     H44376   4.763   0.588   3.042 -0.0669  0.4312 -1.5073
  329MOL0     H44377   4.759   0.649   2.884 -0.5377  4.4037 -0.6802
  329MOL0     H44378   4.914   0.572   2.951 -2.6277 -2.0389 -0.3487
  329MOL0     H44379   4.449   0.634   2.865 -1.4396 -1.1863 -0.1447
  329MOL0     H44380   4.208   0.616   2.821  0.9267  1.2516 -1.8961
  329MOL0     H44381   4.093   0.858   2.712  1.7672  0.6825  2.1065
  329MOL0     H44382   3.982   0.716   2.711 -2.0436  1.0691 -0.2825
  329MOL0     H44383   3.804   0.840   2.796  0.7669 -1.0467  0.2370
  329MOL0     H44384   3.894   0.994   2.799  2.2746 -1.7905  2.8504
  329MOL0     H44385   3.811   0.817   2.560  1.2385 -0.4068  1.0428
  329MOL0     H44386   3.934   0.943   2.539  1.0018 -3.5323 -0.3069
  329MOL0     H44387   3.672   0.994   2.685  0.1831  0.0345  1.8955
  329MOL0     H44388   3.775   1.117   2.630 -0.9964 -0.1900  2.6600
  329MOL0     H44389   3.569   0.954   2.502  0.2932 -1.6847  0.3048
  329MOL0     H44390   3.694   0.978   2.385 -1.2342 -2.9896  1.0155
  329MOL0     H44391   3.601   1.211   2.543  1.7243  0.3380  0.1840
  329MOL0     H44392   3.686   1.210   2.384 -2.4835  0.7887 -2.9017
  329MOL0     H44393   3.402   1.112   2.438  0.4110 -2.0972  0.5024
  329MOL0     H44394   3.492   1.122   2.278 -0.7394 -1.5655  1.4625
  329MOL0     H44395   3.416   1.346   2.471  4.1970 -1.0007  1.9403
  329MOL0     H44396   3.335   1.313   2.326 -0.1829  0.9673  2.9509
  329MOL0     H44397   4.167   0.966   3.075  0.1286  2.3500 -2.2130
  329MOL0     H44398   4.406   0.977   3.115  1.2213  1.2394 -0.9787
  329MOL0     H44399   4.780   1.095   3.069 -1.6540 -0.1977 -0.4292
  329MOL0     H44400   5.033   1.115   3.129  0.1357  0.6021  0.5085
  329MOL0     H44401   5.633   2.020   4.110  2.8185  0.9712 -1.0518
  329MOL0     H44402   5.446   2.090   4.251  0.2341  0.7531 -0.0543
  329MOL0     H44403   5.125   2.436   4.290 -0.2346  0.0365  0.2793
  329MOL0     H44404   4.935   2.523   4.438 -0.3971 -1.0353  0.3191
  329MOL0     H44405   4.747   2.410   4.675 -0.9420  5.1492  2.0281
  329MOL0     H44406   4.896   2.309   4.693  1.9439  0.8666 -0.4487
  329MOL0     H44407   4.903   2.378   4.937 -3.0063  0.7528  2.2212
  329MOL0     H44408   4.742   2.327   4.891 -1.3096  0.6219  0.5786
  329MOL0     H44409   4.831   2.621   4.928 -1.2887  1.4497  2.5239
  329MOL0     H44410   4.737   2.520   5.044 -0.2570 -2.2211 -0.8260
  329MOL0     H44411   4.562   2.510   4.891  0.7572 -2.0316 -2.7479
  329MOL0     H44412   4.664   2.582   4.765 -0.6906 -1.7954  0.3627
  329MOL0     H44413   4.591   2.949   4.919 -2.4408  0.9477 -1.6298
  329MOL0     H44414   5.133   2.406   4.796 -0.7719 -0.9261  0.2640
  329MOL0     H44415   5.308   2.272   4.637  0.7605  0.8819 -0.4794
  330MOL0     O44416   2.332  10.079  11.444 -0.1557  0.1118 -0.3250
  330MOL0     C44417   2.311  10.180  11.384  0.8077 -0.2992  0.3786
  330MOL0     O44418   2.403  10.270  11.341  0.7323 -0.8560  0.4324
  330MOL0     C44419   2.535  10.245  11.384  0.9433  0.1593 -0.3049
  330MOL0     C44420   2.584  10.280  11.513  0.1478  0.6448  0.0794
  330MOL0     C44421   2.717  10.271  11.545 -0.4456  0.0730  0.9131
  330MOL0     C44422   2.799  10.201  11.454  0.7817 -0.2818  1.0579
  330MOL0     O44423   2.933  10.180  11.476 -0.4072  0.2696  0.3812
  330MOL0     C44424   2.971  10.085  11.584 -0.3606  0.5948  0.6614
  330MOL0     C44425   3.114  10.038  11.560  0.4512  0.6572 -0.7156
  330MOL0     C44426   3.224  10.135  11.609 -0.2199  0.1932  0.0582
  330MOL0     C44427   3.366  10.095  11.587 -0.1185 -0.3928  0.2329
  330MOL0     C44428   3.478  10.196  11.621  0.5056 -0.7553  0.9586
  330MOL0     C44429   3.456  10.243  11.769 -0.0631 -0.0163  0.2427
  330MOL0     C44430   3.580  10.321  11.827 -0.5717  0.2743  0.2048
  330MOL0     C44431   3.604  10.463  11.765 -0.9067 -0.1696 -0.5923
  330MOL0     N44432   3.721  10.536  11.830 -0.8270 -0.2047 -0.1907
  330MOL0     C44433   3.737  10.572  11.969  0.3211 -0.2475  0.0701
  330MOL0     C44434   3.859  10.635  11.986 -0.5762  0.2198  0.2405
  330MOL0     C44435   3.913  10.700  12.100 -0.0689 -0.7160 -0.9383
  330MOL0     C44436   3.898  10.625  12.240  0.2195  0.4961 -0.0046
  330MOL0     C44437   3.959  10.700  12.361 -0.5663 -0.8176  0.1777
  330MOL0     C44438   3.957  10.612  12.491  0.1573  0.6533  0.1396
  330MOL0     O44439   3.936  10.694  12.608 -0.4496  0.5371 -0.2020
  330MOL0     C44440   3.918  10.621  12.725  0.4295 -0.5286  0.8139
  330MOL0     C44441   3.990  10.667  12.841  0.2892  0.5468  0.8811
  330MOL0     C44442   4.000  10.581  12.962  0.0489 -0.4680 -0.0138
  330MOL0     C44443   4.080  10.622  13.073 -0.0709  0.2989 -0.5722
  330MOL0     C44444   3.907  10.474  12.979  0.1026  0.1120  0.7115
  330MOL0     C44445   3.897  10.387  13.097 -0.0244  0.5354 -0.0802
  330MOL0     O44446   3.766  10.345  13.115  0.4827 -0.4074 -0.0137
  330MOL0     C44447   3.731  10.296  13.235  0.6139  0.0567 -0.6202
  330MOL0     C44448   3.746  10.164  13.263 -0.8386  0.0609  0.5443
  330MOL0     C44449   3.715  10.117  13.390 -0.2989 -0.4130 -0.4330
  330MOL0     C44450   3.678  10.206  13.492 -0.6990 -0.1674 -0.1385
  330MOL0     O44451   3.675  10.175  13.626  0.1736  0.5252 -0.0341
  330MOL0     C44452   3.741  10.053  13.668  0.0268 -0.2592 -0.4672
  330MOL0     C44453   3.830  10.072  13.795 -0.2198 -0.0789  0.4037
  330MOL0     C44454   3.975  10.118  13.789 -0.6293 -0.0477 -0.1022
  330MOL0     C44455   4.050  10.093  13.661  0.2485  0.6255 -0.2664
  330MOL0     C44456   4.206  10.125  13.670  0.7393  0.7859 -0.3677
  330MOL0     C44457   4.283  10.033  13.579 -0.2622  0.1753 -0.7255
  330MOL0     C44458   4.288   9.896  13.647 -0.0241  0.0615  0.7990
  330MOL0     C44459   4.397   9.808  13.585 -0.7470  0.0263 -1.1096
  330MOL0    Cl44460   4.330   9.707  13.451 -0.0722  0.1588  0.4809
  330MOL0     C44461   3.646  10.340  13.450 -0.2472  0.3876 -0.0092
  330MOL0     C44462   3.689  10.387  13.326  0.3751  0.4815 -0.8072
  330MOL0     O44463   3.994  10.356  13.165 -0.0728  0.3910  1.0377
  330MOL0     C44464   3.816  10.456  12.870 -0.5694  0.7580 -0.5472
  330MOL0     C44465   3.820  10.521  12.747 -0.1087  0.2403  0.2229
  330MOL0     N44466   3.923  10.627  11.861  1.0140  0.4148  0.0225
  330MOL0     N44467   3.842  10.577  11.773 -0.3029 -0.2257 -0.4999
  330MOL0     C44468   2.757  10.169  11.321  0.3367 -0.4017  0.4825
  330MOL0     C44469   2.622  10.190  11.293  0.3952  0.5051  0.4605
  330MOL0     C44470   2.176  10.206  11.328 -0.9568 -0.5793  0.0665
  330MOL0     C44471   2.157  10.244  11.199  0.2534  0.4884  0.0384
  330MOL0     C44472   2.029  10.260  11.142 -0.7893  0.1963  0.6501
  330MOL0     C44473   1.915  10.249  11.217  0.1605  0.1914 -0.0669
  330MOL0     O44474   1.787  10.253  11.175  0.7282 -0.2497 -0.2608
  330MOL0     C44475   1.758  10.273  11.036  0.0905 -0.5274 -0.5005
  330MOL0     C44476   1.625  10.346  10.999  0.5166 -0.1967 -0.4543
  330MOL0     C44477   1.591  10.365  10.856 -0.5244  0.1887 -0.7344
  330MOL0     C44478   1.465  10.445  10.851 -0.0188  0.1627 -0.2544
  330MOL0     C44479   1.349  10.381  10.912  0.0817 -0.1335 -1.0160
  330MOL0     C44480   1.275  10.299  10.972  0.0021 -0.0027 -0.0804
  330MOL0     C44481   1.935  10.234  11.353 -0.3526 -0.3973 -0.1701
  330MOL0     C44482   2.064  10.212  11.406 -0.4664  0.3666  0.0255
  330MOL0     H44483   2.508  10.320  11.580  0.1247  1.6224 -0.5140
  330MOL0     H44484   2.749  10.312  11.640 -3.0157  0.3716  1.7050
  330MOL0     H44485   2.970  10.132  11.683 -0.3603 -0.6395  1.2621
  330MOL0     H44486   2.905   9.998  11.582  1.6182 -0.9923 -2.2040
  330MOL0     H44487   3.124   9.939  11.606 -0.1690 -1.0794 -3.9882
  330MOL0     H44488   3.116  10.022  11.451 -0.1232 -1.7891 -0.4340
  330MOL0     H44489   3.196  10.218  11.544  1.3314  0.0021 -0.9180
  330MOL0     H44490   3.207  10.156  11.715 -0.7365 -3.1150  0.7221
  330MOL0     H44491   3.373  10.007  11.650 -4.1246 -0.1928  1.2107
  330MOL0     H44492   3.383  10.078  11.480 -0.5795 -0.3850  0.1561
  330MOL0     H44493   3.571  10.141  11.609  0.1385 -0.8986 -1.7884
  330MOL0     H44494   3.478  10.282  11.554 -1.3796 -1.3722  0.0977
  330MOL0     H44495   3.359  10.294  11.778  0.6722  1.2223  1.6046
  330MOL0     H44496   3.455  10.149  11.825 -0.3831 -0.7701 -1.0093
  330MOL0     H44497   3.565  10.335  11.935  1.3018 -1.0705  0.6973
  330MOL0     H44498   3.672  10.266  11.808 -0.9768  0.3346 -2.2119
  330MOL0     H44499   3.507  10.512  11.781 -1.6820 -2.5283  2.9771
  330MOL0     H44500   3.622  10.471  11.657  2.2852  0.0368 -0.1377
  330MOL0     H44501   3.662  10.589  12.047  0.7340 -0.1664  0.4552
  330MOL0     H44502   4.017  10.731  12.085  0.5767 -0.3638  3.0230
  330MOL0     H44503   3.840  10.781  12.113 -2.6664 -2.8430 -1.4072
  330MOL0     H44504   3.954  10.532  12.228 -0.4861  0.3916 -3.5101
  330MOL0     H44505   3.795  10.600  12.263  0.3203  1.3043  1.4241
  330MOL0     H44506   3.902  10.792  12.370 -1.4363 -1.4835  2.1988
  330MOL0     H44507   4.067  10.718  12.355 -0.4478 -0.9600  1.4448
  330MOL0     H44508   4.051  10.560  12.511  1.4879  1.9276 -2.2745
  330MOL0     H44509   3.879  10.536  12.476  1.8237 -1.0313 -0.2678
  330MOL0     H44510   4.060  10.750  12.840 -1.9873  2.6014  1.6831
  330MOL0     H44511   4.028  10.628  13.169 -1.1840 -0.9375 -1.0658
  330MOL0     H44512   4.160  10.549  13.088 -1.4437 -1.2589 -0.5312
  330MOL0     H44513   4.123  10.723  13.070  3.5920 -1.1260 -2.0028
  330MOL0     H44514   3.779  10.093  13.187  2.3667 -1.9648  3.5309
  330MOL0     H44515   3.730  10.011  13.406  5.2768  0.1165 -0.1555
  330MOL0     H44516   3.658   9.989  13.701 -0.0225  0.5040  0.9388
  330MOL0     H44517   3.803  10.008  13.590 -1.0034 -2.8479  0.0936
  330MOL0     H44518   3.771  10.145  13.851 -1.3268 -0.5521 -0.1263
  330MOL0     H44519   3.827   9.977  13.850  0.2020 -0.4992 -0.2925
  330MOL0     H44520   4.024  10.073  13.876  2.4499  1.5497 -0.8621
  330MOL0     H44521   3.988  10.223  13.816 -0.7458 -0.5903  2.3244
  330MOL0     H44522   4.043   9.988  13.632 -2.2914  1.3274 -2.5999
  330MOL0     H44523   4.013  10.145  13.572  1.9489 -0.6430 -1.7791
  330MOL0     H44524   4.233  10.123  13.776 -0.8427 -1.5498  0.0529
  330MOL0     H44525   4.205  10.227  13.630  1.9738  0.1984 -2.0245
  330MOL0     H44526   4.230  10.021  13.485  0.5860  1.1251 -1.3511
  330MOL0     H44527   4.381  10.080  13.567 -1.1784  2.1227 -0.8840
  330MOL0     H44528   4.199   9.834  13.633  0.3659 -1.3206  3.7444
  330MOL0     H44529   4.295   9.900  13.756 -1.6985 -1.0154  0.9926
  330MOL0     H44530   4.433   9.750  13.671  0.4601  2.9955  0.5516
  330MOL0     H44531   4.488   9.861  13.554 -0.0630  0.7562  1.8270
  330MOL0     H44532   3.585  10.402  13.515 -2.3249 -0.8102 -0.7304
  330MOL0     H44533   3.693  10.495  13.315  2.7785  0.4017 -1.4586
  330MOL0     H44534   3.738  10.381  12.881  0.1122  0.1173  0.0028
  330MOL0     H44535   3.750  10.490  12.670  2.2558 -1.5934 -1.3180
  330MOL0     H44536   2.822  10.119  11.251  3.3672 -1.1968  3.6099
  330MOL0     H44537   2.584  10.169  11.193 -1.3486  0.4268  1.1022
  330MOL0     H44538   2.241  10.248  11.130 -0.5437 -1.4107 -1.1134
  330MOL0     H44539   2.023  10.273  11.035  0.3842 -0.5430  0.4781
  330MOL0     H44540   1.837  10.335  10.991  0.3506 -0.8276 -0.4632
  330MOL0     H44541   1.755  10.168  11.004  2.1173 -0.3688 -1.3869
  330MOL0     H44542   1.631  10.448  11.037 -1.9409  0.0203 -0.5445
  330MOL0     H44543   1.552  10.297  11.063  1.7179  1.1952  2.1271
  330MOL0     H44544   1.575  10.270  10.805  1.8992 -0.4781 -0.3484
  330MOL0     H44545   1.669  10.420  10.804  1.8284 -0.7483  1.6064
  330MOL0     H44546   1.435  10.476  10.750  2.5951  0.1956 -1.1057
  330MOL0     H44547   1.488  10.542  10.895 -4.1095  0.2061  2.2700
  330MOL0     H44548   1.219  10.236  11.037 -2.2827  2.1861  0.2107
  330MOL0     H44549   1.852  10.251  11.421 -1.1974 -0.3240 -1.1878
  330MOL0     H44550   2.085  10.205  11.513 -0.9649  2.8895  0.3424
  331MOL0     O44551   2.058   2.696   1.641 -0.1254 -0.2660 -0.3671
  331MOL0     C44552   2.157   2.668   1.577 -0.5008  0.0466  1.1571
  331MOL0     O44553   2.158   2.639   1.447 -1.3977  0.2229  0.5987
  331MOL0     C44554   2.034   2.613   1.383 -0.2843  0.0675 -0.0675
  331MOL0     C44555   1.949   2.502   1.427 -0.0227 -0.3877  0.4089
  331MOL0     C44556   1.833   2.468   1.361 -0.5641 -0.1343  0.0624
  331MOL0     C44557   1.787   2.548   1.255  1.3997 -0.4715  0.3898
  331MOL0     O44558   1.673   2.530   1.186 -0.2237  0.3508 -0.1840
  331MOL0     C44559   1.629   2.395   1.169  0.1466 -0.5406 -0.5934
  331MOL0     C44560   1.519   2.374   1.276 -1.0832  0.0392  0.0732
  331MOL0     C44561   1.520   2.242   1.351  0.3182 -0.0419 -0.6312
  331MOL0     C44562   1.452   2.246   1.486 -0.1197  0.3375  0.5199
  331MOL0     C44563   1.414   2.120   1.557  0.2263 -0.1391  0.8186
  331MOL0     C44564   1.525   2.026   1.602 -0.3639  0.8385  0.5350
  331MOL0     C44565   1.558   2.039   1.754 -0.3223 -0.4802  0.0134
  331MOL0     C44566   1.596   1.914   1.826 -0.2690  1.0145 -0.1810
  331MOL0     N44567   1.515   1.796   1.783 -0.1975  0.1519  0.3719
  331MOL0     C44568   1.380   1.784   1.780  0.7180  0.6796  0.2625
  331MOL0     C44569   1.348   1.659   1.733 -0.0769  0.4725 -0.0646
  331MOL0     C44570   1.212   1.599   1.724 -0.3786  0.2671  0.7859
  331MOL0     C44571   1.104   1.699   1.687  0.8408  0.7718  0.3101
  331MOL0     C44572   0.951   1.653   1.694 -0.7556  0.0047  0.8350
  331MOL0     C44573   0.868   1.745   1.616  0.8124 -0.0311  0.1296
  331MOL0     O44574   0.863   1.862   1.697 -0.0910  0.2806  0.3627
  331MOL0     C44575   0.759   1.905   1.774  0.3282 -0.5041  0.1242
  331MOL0     C44576   0.760   2.037   1.809  0.1614 -0.3414  0.3965
  331MOL0     C44577   0.663   2.097   1.887 -0.7514 -1.1261 -0.9664
  331MOL0     C44578   0.701   2.245   1.934  0.3569  0.6645 -0.5209
  331MOL0     C44579   0.552   2.027   1.922  0.0963  0.4994 -0.6385
  331MOL0     C44580   0.436   2.076   2.000  0.6663 -0.6236  0.5289
  331MOL0     O44581   0.310   2.043   1.947 -0.2138 -0.6319 -0.3284
  331MOL0     C44582   0.191   2.057   2.022 -0.2119 -0.8602 -0.7312
  331MOL0     C44583   0.185   2.069   2.162 -0.7568  0.7347  0.3301
  331MOL0     C44584   0.059   2.075   2.229 -1.3076 -1.0869  0.5750
  331MOL0     C44585  -0.056   2.089   2.152  1.0470 -0.7470 -0.3884
  331MOL0     O44586  -0.174   2.115   2.218  0.0289  0.4088 -0.3808
  331MOL0     C44587  -0.241   2.003   2.268  0.1939  0.5000 -1.6092
  331MOL0     C44588  -0.338   2.060   2.378  0.2046  0.1876  0.2792
  331MOL0     C44589  -0.258   2.088   2.514 -0.0704 -0.0642 -0.0569
  331MOL0     C44590  -0.370   2.117   2.620  0.0289  0.9159 -0.2811
  331MOL0     C44591  -0.442   1.999   2.678 -0.3401  0.6858 -0.0415
  331MOL0     C44592  -0.520   2.031   2.808 -0.3445  0.0094  1.3130
  331MOL0     C44593  -0.592   1.908   2.856 -0.6596 -0.2357 -0.6224
  331MOL0     C44594  -0.695   1.950   2.961  1.0151  0.3425 -0.1072
  331MOL0    Cl44595  -0.606   1.951   3.121  0.1955  1.0379 -0.1786
  331MOL0     C44596  -0.045   2.069   2.014  0.3371 -0.4777 -0.0058
  331MOL0     C44597   0.080   2.057   1.946 -0.3470 -0.0051  0.1281
  331MOL0     O44598   0.457   2.153   2.100  0.4482  0.2217  0.2918
  331MOL0     C44599   0.545   1.895   1.889  0.2861 -0.6808  0.3520
  331MOL0     C44600   0.649   1.830   1.820 -0.1976 -0.0717  0.1900
  331MOL0     N44601   1.474   1.595   1.710  0.3259  0.8449 -0.5822
  331MOL0     N44602   1.566   1.679   1.730 -0.0510  0.1225 -0.1866
  331MOL0     C44603   1.864   2.656   1.213  0.3097 -0.2384  0.0773
  331MOL0     C44604   1.986   2.688   1.275  0.7034 -0.6617  0.1596
  331MOL0     C44605   2.287   2.697   1.626 -0.0897  0.2873 -0.4489
  331MOL0     C44606   2.408   2.701   1.539  0.6244  0.2576 -0.6711
  331MOL0     C44607   2.531   2.688   1.590 -0.5363 -0.5955  1.1509
  331MOL0     C44608   2.551   2.712   1.727 -0.0934  0.1424 -0.3650
  331MOL0     O44609   2.685   2.714   1.767  0.2529 -0.3867 -0.3763
  331MOL0     C44610   2.722   2.849   1.801  0.4867 -0.5503 -0.5190
  331MOL0     C44611   2.863   2.864   1.870 -0.5200  0.1356  0.4401
  331MOL0     C44612   2.883   2.997   1.951  0.2315 -0.5421  0.9161
  331MOL0     C44613   2.899   3.120   1.857  0.2741  0.5060  0.2747
  331MOL0     C44614   2.768   3.166   1.811  0.5247  0.5986 -0.1665
  331MOL0     C44615   2.655   3.202   1.775 -0.4909 -0.3958  0.0340
  331MOL0     C44616   2.444   2.722   1.816  0.4791  0.7112  0.3410
  331MOL0     C44617   2.311   2.705   1.763  0.1503  0.7992  0.0355
  331MOL0     H44618   1.989   2.442   1.508 -0.6146 -0.4423  0.6672
  331MOL0     H44619   1.774   2.389   1.406  0.9448 -0.6798  1.1915
  331MOL0     H44620   1.587   2.372   1.071  2.1979 -2.9067 -1.0120
  331MOL0     H44621   1.711   2.324   1.182 -0.1123 -0.9123 -1.0077
  331MOL0     H44622   1.542   2.453   1.347 -0.4188 -2.6515  3.0889
  331MOL0     H44623   1.417   2.390   1.239 -1.6793  3.0752  2.6385
  331MOL0     H44624   1.470   2.175   1.280  1.0691 -0.9601 -0.3261
  331MOL0     H44625   1.623   2.211   1.373 -0.6239 -0.9694  3.1587
  331MOL0     H44626   1.517   2.301   1.554  1.6880 -0.5634 -0.4258
  331MOL0     H44627   1.354   2.295   1.483 -0.6570 -0.7319 -0.6969
  331MOL0     H44628   1.369   2.160   1.648  1.5699  1.9703  0.6351
  331MOL0     H44629   1.335   2.068   1.501 -0.9070 -0.7263  2.8882
  331MOL0     H44630   1.493   1.922   1.587  0.9870  0.0243  2.7242
  331MOL0     H44631   1.617   2.040   1.544 -0.6431  1.7491  0.3088
  331MOL0     H44632   1.635   2.115   1.770 -0.5898  0.0909 -1.3017
  331MOL0     H44633   1.472   2.085   1.802 -0.4250 -0.0026 -0.6118
  331MOL0     H44634   1.581   1.920   1.934  0.4756 -1.4748  0.1177
  331MOL0     H44635   1.703   1.899   1.813  0.4731  3.2908  2.3775
  331MOL0     H44636   1.307   1.863   1.798  1.1543  1.4722 -1.2885
  331MOL0     H44637   1.208   1.515   1.653  1.6950 -0.8595  1.8928
  331MOL0     H44638   1.186   1.536   1.809 -0.0246 -0.4887  0.3536
  331MOL0     H44639   1.117   1.752   1.592 -1.2556 -1.4269 -1.3228
  331MOL0     H44640   1.106   1.774   1.767  0.6902  0.4754  0.5938
  331MOL0     H44641   0.902   1.653   1.792 -3.0677  0.5293 -0.2467
  331MOL0     H44642   0.943   1.551   1.655  2.4277 -0.0983  0.1919
  331MOL0     H44643   0.773   1.691   1.607  0.6834  0.1619  0.3238
  331MOL0     H44644   0.913   1.768   1.519 -2.6424  1.3045 -1.2828
  331MOL0     H44645   0.846   2.100   1.788 -0.6238  0.8738  0.7746
  331MOL0     H44646   0.788   2.234   1.999 -0.2531  0.4413  0.2626
  331MOL0     H44647   0.715   2.308   1.845  2.3516  1.4145  0.2521
  331MOL0     H44648   0.632   2.304   1.995 -0.4761 -1.9232  1.1874
  331MOL0     H44649   0.270   2.078   2.229 -2.0416 -0.2893  2.2086
  331MOL0     H44650   0.059   2.080   2.337  0.5388  0.0801  0.5581
  331MOL0     H44651  -0.297   1.958   2.186 -0.9843 -2.5121  0.6429
  331MOL0     H44652  -0.186   1.933   2.331 -3.1070 -2.0495 -1.2741
  331MOL0     H44653  -0.380   2.153   2.339 -2.2575  0.7960  3.8097
  331MOL0     H44654  -0.421   1.990   2.393  0.9848 -0.4310  1.9912
  331MOL0     H44655  -0.185   2.166   2.488 -2.7156  1.6952 -2.8693
  331MOL0     H44656  -0.200   2.004   2.552  3.2787  1.7435 -0.7851
  331MOL0     H44657  -0.327   2.162   2.710  0.9753 -1.8923  0.8144
  331MOL0     H44658  -0.440   2.193   2.586 -4.4451 -2.0148  1.4238
  331MOL0     H44659  -0.363   1.924   2.695  0.3070  1.8970  3.0547
  331MOL0     H44660  -0.511   1.959   2.604  0.3102  1.4343 -1.0682
  331MOL0     H44661  -0.453   2.064   2.889  1.8144 -0.5955 -0.1284
  331MOL0     H44662  -0.581   2.119   2.789  1.3171  1.8670  3.8514
  331MOL0     H44663  -0.523   1.835   2.899 -0.5430  1.0195  1.4037
  331MOL0     H44664  -0.652   1.860   2.777 -4.6108  1.0840  1.3008
  331MOL0     H44665  -0.782   1.885   2.977  0.1954  1.6339  0.9260
  331MOL0     H44666  -0.750   2.043   2.944 -2.1458 -1.1104  1.1621
  331MOL0     H44667  -0.124   2.087   1.942  2.3195  0.1996 -2.1093
  331MOL0     H44668   0.085   2.038   1.839  1.9623  3.2975 -0.4865
  331MOL0     H44669   0.467   1.823   1.913  2.2397 -2.4075  1.9577
  331MOL0     H44670   0.645   1.724   1.795 -0.9349  0.3392 -1.5979
  331MOL0     H44671   1.819   2.709   1.129 -1.2201  0.0869  1.0653
  331MOL0     H44672   2.039   2.779   1.251  0.1235 -0.7344 -1.5945
  331MOL0     H44673   2.383   2.691   1.434 -2.7547  1.0137 -0.0670
  331MOL0     H44674   2.613   2.695   1.520  0.2631  0.6754  2.1598
  331MOL0     H44675   2.717   2.915   1.714  3.2300  1.2037  0.5249
  331MOL0     H44676   2.644   2.895   1.861  0.3102  1.6062 -2.2660
  331MOL0     H44677   2.936   2.850   1.789 -0.3584 -3.4020  1.0369
  331MOL0     H44678   2.876   2.776   1.933  2.0481 -0.3335 -0.6097
  331MOL0     H44679   2.977   2.989   2.007  0.2210 -0.5034  0.9396
  331MOL0     H44680   2.811   3.009   2.032 -0.3861 -2.6513  0.7339
  331MOL0     H44681   2.949   3.078   1.769 -1.5705 -4.6376  1.3548
  331MOL0     H44682   2.948   3.208   1.901 -0.5628  1.6735 -1.0302
  331MOL0     H44683   2.550   3.209   1.756 -0.3316  1.3701 -0.3785
  331MOL0     H44684   2.459   2.733   1.923  2.4925  0.2829  0.1360
  331MOL0     H44685   2.228   2.693   1.831 -0.5924  2.6182 -0.4924
  332MOL0     O44686   3.599  11.332  10.227  0.3251 -0.3482  0.0959
  332MOL0     C44687   3.638  11.330  10.342 -0.2640 -0.1284 -1.1198
  332MOL0     O44688   3.569  11.334  10.457  0.5804  0.7129  0.0444
  332MOL0     C44689   3.429  11.352  10.466 -0.1644  1.2494 -0.0513
  332MOL0     C44690   3.393  11.393  10.588 -0.4184  1.3252 -0.0321
  332MOL0     C44691   3.256  11.404  10.617 -0.1413  0.6473 -0.0766
  332MOL0     C44692   3.159  11.417  10.510 -0.1826  0.0431  0.3891
  332MOL0     O44693   3.023  11.445  10.520 -0.1718 -0.7432 -0.1512
  332MOL0     C44694   2.981  11.476  10.650  0.4212 -0.0718  0.0106
  332MOL0     C44695   2.829  11.488  10.646  0.5643  0.7219 -0.2863
  332MOL0     C44696   2.761  11.355  10.621 -0.3623  0.3709  0.1273
  332MOL0     C44697   2.629  11.321  10.684 -0.0697  0.0538 -0.1475
  332MOL0     C44698   2.566  11.196  10.634  0.4817  0.5282 -0.0416
  332MOL0     C44699   2.520  11.207  10.487  0.0396  0.3058  0.5880
  332MOL0     C44700   2.379  11.267  10.469 -0.5920 -0.0993  0.0850
  332MOL0     C44701   2.332  11.263  10.322  0.8030 -0.3521 -0.2149
  332MOL0     N44702   2.226  11.368  10.302 -0.6815 -0.0830 -0.0458
  332MOL0     C44703   2.244  11.501  10.257 -0.3219  0.0313  0.1602
  332MOL0     C44704   2.113  11.549  10.256 -0.3729  0.8311 -0.2453
  332MOL0     C44705   2.070  11.688  10.211 -0.7203 -0.1211 -0.0874
  332MOL0     C44706   1.972  11.685  10.088  0.4265  0.9569 -0.8382
  332MOL0     C44707   1.838  11.622  10.105  0.3394  0.5904  0.0244
  332MOL0     C44708   1.744  11.630   9.987 -0.2176  0.2313  0.0240
  332MOL0     O44709   1.622  11.580  10.026  0.9708 -0.0319  0.2091
  332MOL0     C44710   1.536  11.657  10.103 -0.2121  0.8442  0.4157
  332MOL0     C44711   1.430  11.596  10.166  0.9709  1.1841 -0.1565
  332MOL0     C44712   1.342  11.662  10.248 -0.4625 -0.0390 -0.7138
  332MOL0     C44713   1.251  11.575  10.333  0.3415  0.3894 -0.0670
  332MOL0     C44714   1.353  11.802  10.267  0.2102 -0.5743 -0.1093
  332MOL0     C44715   1.262  11.898  10.345 -0.8306 -0.2014 -0.5714
  332MOL0     O44716   1.257  12.026  10.294  0.4125  0.2565 -0.4347
  332MOL0     C44717   1.180  12.122  10.366  0.2812  0.0658 -0.0538
  332MOL0     C44718   1.195  12.148  10.507  0.3845  0.6605 -0.3789
  332MOL0     C44719   1.116  12.253  10.565  1.0627 -0.4876  0.1442
  332MOL0     C44720   1.026  12.330  10.480 -0.0457 -0.5213 -0.2051
  332MOL0     O44721   0.958  12.428  10.542  0.3288 -1.2658  0.7966
  332MOL0     C44722   0.888  12.530  10.467  0.4294  0.9352 -0.1724
  332MOL0     C44723   0.984  12.626  10.386 -0.0724  0.9205 -0.2475
  332MOL0     C44724   1.117  12.654  10.467  0.3744 -0.3871  0.9226
  332MOL0     C44725   1.184  12.776  10.414 -0.3859 -0.5133  0.2208
  332MOL0     C44726   1.232  12.867  10.530  0.1875 -0.5675  0.6683
  332MOL0     C44727   1.120  12.967  10.577 -1.1913 -0.1147 -0.4161
  332MOL0     C44728   1.043  13.049  10.488 -0.1199  0.6324 -0.7325
  332MOL0     C44729   1.131  13.149  10.423  0.3128 -0.7244  0.5438
  332MOL0    Cl44730   1.025  13.250  10.314 -0.4171  0.0594  0.5892
  332MOL0     C44731   1.023  12.306  10.343  0.6580  0.3667 -0.5321
  332MOL0     C44732   1.099  12.206  10.287  0.3330  0.4662 -0.2712
  332MOL0     O44733   1.200  11.853  10.441 -0.7959  0.1032  0.5160
  332MOL0     C44734   1.455  11.862  10.194  0.6928 -0.0247 -0.5702
  332MOL0     C44735   1.540  11.791  10.110 -0.6248 -0.0813 -0.4236
  332MOL0     N44736   2.023  11.463  10.304 -0.0058  0.0042  0.0937
  332MOL0     N44737   2.095  11.359  10.336  0.7114  0.7526 -0.4728
  332MOL0     C44738   3.199  11.386  10.384  0.2770 -0.1748  0.1942
  332MOL0     C44739   3.335  11.341  10.365 -0.9792 -0.3234 -0.0240
  332MOL0     C44740   3.781  11.304  10.353  0.8252 -0.0011 -0.2933
  332MOL0     C44741   3.839  11.255  10.471  0.6132  0.3621 -0.0220
  332MOL0     C44742   3.970  11.236  10.486 -0.7311 -0.0929 -1.1797
  332MOL0     C44743   4.058  11.246  10.377  0.1988  0.3557 -0.9703
  332MOL0     O44744   4.196  11.233  10.381 -0.7186 -0.1365  0.1340
  332MOL0     C44745   4.253  11.167  10.496 -0.3392  0.0844  0.3298
  332MOL0     C44746   4.399  11.129  10.466 -0.3700  0.1269  0.4169
  332MOL0     C44747   4.495  11.138  10.586  0.4794  0.5999  0.8431
  332MOL0     C44748   4.639  11.150  10.534  0.2968  0.2963 -0.5910
  332MOL0     C44749   4.709  11.244  10.619  0.2328  0.5199 -0.0060
  332MOL0     C44750   4.780  11.329  10.674 -0.5315 -0.7292  0.0346
  332MOL0     C44751   4.009  11.283  10.252 -0.5850  0.2509  0.3677
  332MOL0     C44752   3.868  11.306  10.238 -0.4274  0.3015  1.1337
  332MOL0     H44753   3.461  11.404  10.671  1.9991  3.4686 -2.1411
  332MOL0     H44754   3.225  11.407  10.721 -2.5194  1.9546 -0.7405
  332MOL0     H44755   3.019  11.393  10.710  1.8516 -0.4834 -1.3921
  332MOL0     H44756   3.031  11.562  10.696 -0.7280  0.2142  0.7650
  332MOL0     H44757   2.783  11.545  10.728  0.5326  3.5082 -2.0968
  332MOL0     H44758   2.807  11.555  10.562 -0.1365  3.1040  1.6616
  332MOL0     H44759   2.757  11.344  10.512 -0.0547 -1.9599  0.2830
  332MOL0     H44760   2.831  11.275  10.650 -0.6060  0.8809  2.2663
  332MOL0     H44761   2.664  11.313  10.787 -2.5514 -1.2795  0.6560
  332MOL0     H44762   2.567  11.411  10.675  0.2766  0.9145  3.9791
  332MOL0     H44763   2.628  11.106  10.636 -0.4092 -0.1275 -1.0878
  332MOL0     H44764   2.481  11.176  10.701 -1.4338 -0.8620 -2.7154
  332MOL0     H44765   2.583  11.267  10.421 -1.1947  1.7635  0.6866
  332MOL0     H44766   2.513  11.107  10.444  0.5059  2.1244 -4.2711
  332MOL0     H44767   2.303  11.211  10.526  0.0947 -1.8959 -0.6816
  332MOL0     H44768   2.396  11.364  10.515  1.3511 -0.4665  0.2071
  332MOL0     H44769   2.295  11.165  10.291 -0.7719 -0.7154  2.4944
  332MOL0     H44770   2.414  11.290  10.255 -0.3000  0.0846 -1.4230
  332MOL0     H44771   2.334  11.542  10.213 -1.4464  1.7359 -0.6605
  332MOL0     H44772   2.021  11.741  10.293 -1.2009 -0.5381 -0.0942
  332MOL0     H44773   2.160  11.747  10.197 -2.8474  3.7625  1.0988
  332MOL0     H44774   2.033  11.646  10.005 -1.4888  0.1462 -1.9246
  332MOL0     H44775   1.947  11.790  10.067 -0.7099  0.8744  0.0113
  332MOL0     H44776   1.792  11.648  10.201 -1.1646 -0.2138 -0.4585
  332MOL0     H44777   1.860  11.514  10.107 -0.6348  0.3336  3.5717
  332MOL0     H44778   1.779  11.563   9.908  5.2541  0.9485  1.4698
  332MOL0     H44779   1.747  11.733   9.949 -0.2190  0.2639  0.1125
  332MOL0     H44780   1.426  11.488  10.161 -0.1432  1.1099  1.6022
  332MOL0     H44781   1.280  11.469  10.325  2.2488  0.9291 -0.9753
  332MOL0     H44782   1.255  11.598  10.440  0.5005 -1.1574  0.2796
  332MOL0     H44783   1.144  11.582  10.312  0.0300 -1.4806  0.7254
  332MOL0     H44784   1.263  12.086  10.564 -1.1445 -2.8712 -2.0551
  332MOL0     H44785   1.119  12.281  10.670  1.6271  0.7829 -0.1889
  332MOL0     H44786   0.806  12.479  10.415  0.7359 -1.8457  1.8260
  332MOL0     H44787   0.840  12.599  10.537 -0.8099  0.1113 -0.1851
  332MOL0     H44788   0.993  12.582  10.286 -1.1052 -0.8719  0.4023
  332MOL0     H44789   0.934  12.717  10.352 -0.2902 -0.3366 -3.7457
  332MOL0     H44790   1.180  12.567  10.446 -2.1595 -2.2615  0.5022
  332MOL0     H44791   1.091  12.670  10.572 -1.5958 -0.4503  0.4756
  332MOL0     H44792   1.274  12.742  10.360  0.5770  0.9517  0.8317
  332MOL0     H44793   1.130  12.840  10.345 -0.5304 -0.1919  0.6265
  332MOL0     H44794   1.312  12.936  10.499  0.7169 -2.0886 -1.5782
  332MOL0     H44795   1.256  12.800  10.613 -0.3608  0.4384  1.6738
  332MOL0     H44796   1.052  12.906  10.635  3.1361 -3.7355  1.4419
  332MOL0     H44797   1.178  13.030  10.645 -1.1925 -1.1576  0.5672
  332MOL0     H44798   0.962  13.099  10.542 -0.5300 -1.7441  1.0274
  332MOL0     H44799   0.988  12.977  10.426 -1.5076 -0.0307  1.1938
  332MOL0     H44800   1.200  13.099  10.355 -1.4184 -0.5194 -1.4472
  332MOL0     H44801   1.187  13.215  10.491 -3.4189  4.0143 -0.4181
  332MOL0     H44802   0.977  12.371  10.269 -2.1074 -0.4849  0.3251
  332MOL0     H44803   1.113  12.192  10.181  0.7811  1.5421 -0.3682
  332MOL0     H44804   1.467  11.969  10.187 -0.5804  0.0872 -1.2315
  332MOL0     H44805   1.598  11.845  10.036 -2.6781 -1.8529 -3.5440
  332MOL0     H44806   3.130  11.381  10.301 -1.0817  0.1923  1.2705
  332MOL0     H44807   3.364  11.318  10.263 -0.1824  1.4856 -0.2389
  332MOL0     H44808   3.791  11.241  10.567  3.0191 -0.2827  1.1654
  332MOL0     H44809   4.011  11.214  10.584 -1.4977  0.0824 -0.8096
  332MOL0     H44810   4.263  11.236  10.581  1.0031 -2.2818  2.2396
  332MOL0     H44811   4.212  11.077  10.542  0.5498 -2.7801 -3.9464
  332MOL0     H44812   4.434  11.193  10.385 -2.7143  0.3700 -0.4699
  332MOL0     H44813   4.398  11.022  10.443 -0.5215  0.2469 -0.1565
  332MOL0     H44814   4.495  11.057  10.660  1.0273 -1.5188 -1.3350
  332MOL0     H44815   4.461  11.224  10.644 -1.6432  0.6081 -0.3008
  332MOL0     H44816   4.647  11.182  10.430  1.2764  0.1555 -0.5742
  332MOL0     H44817   4.696  11.057  10.536 -1.2224 -0.6728 -0.4934
  332MOL0     H44818   4.857  11.394  10.710  0.2045 -1.3124 -0.4424
  332MOL0     H44819   4.083  11.281  10.172 -0.1276 -2.5132  0.7513
  332MOL0     H44820   3.831  11.343  10.143 -1.5188 -1.4900  0.8346
  333MOL0     O44821   8.402  10.024   8.616  0.3119 -0.2020 -0.3140
  333MOL0     C44822   8.464  10.054   8.722 -0.8768 -0.1031 -0.6890
  333MOL0     O44823   8.556   9.973   8.781 -0.0994  0.6273 -0.5192
  333MOL0     C44824   8.563   9.843   8.741 -1.0494 -0.2435 -0.4097
  333MOL0     C44825   8.587   9.777   8.613  0.0098 -0.1923  0.0137
  333MOL0     C44826   8.593   9.634   8.597 -0.7460 -1.4548  0.4619
  333MOL0     C44827   8.579   9.552   8.711 -0.6794 -0.3530  1.4366
  333MOL0     O44828   8.575   9.415   8.703 -0.1704  0.9235 -0.0743
  333MOL0     C44829   8.614   9.342   8.582  0.2576  0.1823 -0.5552
  333MOL0     C44830   8.569   9.201   8.597 -0.4338 -0.3294  0.4477
  333MOL0     C44831   8.587   9.116   8.472 -0.4098 -0.1000  0.3655
  333MOL0     C44832   8.554   8.970   8.504  0.7259 -0.1320 -0.0027
  333MOL0     C44833   8.666   8.913   8.600 -0.3300  0.5302  0.0419
  333MOL0     C44834   8.693   8.753   8.571  0.6496  1.3001 -0.5542
  333MOL0     C44835   8.825   8.703   8.630 -0.1247  0.4377 -1.0145
  333MOL0     C44836   8.822   8.673   8.786 -0.8909  0.9657  0.0428
  333MOL0     N44837   8.688   8.604   8.820  0.3337  0.5861 -0.6781
  333MOL0     C44838   8.574   8.676   8.851  0.0190  0.9529 -0.1993
  333MOL0     C44839   8.475   8.579   8.855 -0.7009 -0.1240  0.5880
  333MOL0     C44840   8.335   8.617   8.897 -0.2506  0.4817 -0.2477
  333MOL0     C44841   8.235   8.648   8.794 -0.4644  0.5641 -0.1133
  333MOL0     C44842   8.274   8.754   8.688 -0.3513  0.7595  1.2680
  333MOL0     C44843   8.164   8.777   8.578  0.3263 -0.0079  0.0843
  333MOL0     O44844   8.108   8.653   8.521  0.2760  0.1108 -0.2581
  333MOL0     C44845   8.056   8.655   8.396  0.5926 -0.0076 -0.0674
  333MOL0     C44846   7.930   8.702   8.370  0.7954  0.3331  0.2317
  333MOL0     C44847   7.879   8.704   8.237 -0.5357  0.6202  1.0053
  333MOL0     C44848   7.724   8.738   8.225 -0.0140  0.1202 -0.9107
  333MOL0     C44849   7.957   8.654   8.129 -0.1242 -0.8563  0.6170
  333MOL0     C44850   7.898   8.662   7.988 -0.5793  0.3466 -0.7294
  333MOL0     O44851   7.977   8.596   7.887 -0.2465 -0.1628 -0.6608
  333MOL0     C44852   7.905   8.559   7.780 -0.3277 -0.5299  0.3808
  333MOL0     C44853   7.801   8.469   7.774 -0.3174 -0.0665  0.7244
  333MOL0     C44854   7.752   8.431   7.648 -0.0450 -0.9957  0.1480
  333MOL0     C44855   7.795   8.493   7.527 -0.4556 -0.1110 -0.2462
  333MOL0     O44856   7.740   8.476   7.396  0.5562 -0.1903 -0.3085
  333MOL0     C44857   7.634   8.384   7.385  0.1017 -0.6074  0.4351
  333MOL0     C44858   7.593   8.372   7.242 -0.6282  0.3158  0.4873
  333MOL0     C44859   7.541   8.499   7.182  0.0259 -0.0855  1.0623
  333MOL0     C44860   7.497   8.477   7.036 -0.4934 -0.3740  0.1122
  333MOL0     C44861   7.363   8.420   7.013 -0.0965 -0.5907  0.8011
  333MOL0     C44862   7.342   8.373   6.869  0.7568  0.8752  0.3061
  333MOL0     C44863   7.195   8.364   6.823  0.1574  0.6173 -0.8557
  333MOL0     C44864   7.176   8.260   6.700  0.4262 -0.0848 -0.3360
  333MOL0    Cl44865   7.006   8.248   6.648 -0.4715  0.0035 -0.0657
  333MOL0     C44866   7.892   8.585   7.544 -0.3415  0.3979  1.2736
  333MOL0     C44867   7.955   8.624   7.657 -0.8659 -0.4436  0.3346
  333MOL0     O44868   7.797   8.725   7.964 -0.0029  0.3310 -0.9691
  333MOL0     C44869   8.079   8.595   8.150 -0.2528  0.2133  0.1419
  333MOL0     C44870   8.130   8.595   8.284  0.7206  0.2624 -0.8700
  333MOL0     N44871   8.528   8.457   8.806 -0.3689 -0.0314 -0.3337
  333MOL0     N44872   8.662   8.466   8.797 -0.3608  0.2088  1.2023
  333MOL0     C44873   8.557   9.611   8.839 -0.3794  0.2785 -0.5614
  333MOL0     C44874   8.552   9.757   8.856  0.2969 -0.4971 -0.0212
  333MOL0     C44875   8.442  10.196   8.778 -0.2426  0.3858 -0.6840
  333MOL0     C44876   8.326  10.261   8.766  0.4135  0.2352  0.3635
  333MOL0     C44877   8.307  10.392   8.819  0.7798 -0.2261 -0.2421
  333MOL0     C44878   8.402  10.446   8.909 -1.0039 -0.2203  0.5353
  333MOL0     O44879   8.356  10.551   8.994 -0.5038 -0.7901 -0.2598
  333MOL0     C44880   8.428  10.573   9.119 -0.3451 -0.1685  0.4376
  333MOL0     C44881   8.389  10.717   9.178  0.2341 -0.0126 -0.9398
  333MOL0     C44882   8.473  10.761   9.298 -0.5147  0.2196  0.5072
  333MOL0     C44883   8.403  10.888   9.359 -0.0099 -0.6233  0.7165
  333MOL0     C44884   8.499  10.956   9.449 -0.3876 -0.2206 -0.1643
  333MOL0     C44885   8.559  11.033   9.522  0.4869 -0.7905 -0.0521
  333MOL0     C44886   8.523  10.378   8.915 -0.3124  0.5750  0.9602
  333MOL0     C44887   8.542  10.255   8.854 -0.2330  0.5938  0.6119
  333MOL0     H44888   8.622   9.836   8.529  0.8129  0.3212  0.7022
  333MOL0     H44889   8.627   9.607   8.498 -0.7372  0.6765 -0.1670
  333MOL0     H44890   8.564   9.378   8.491  1.1663  1.0525 -0.7305
  333MOL0     H44891   8.723   9.351   8.568  0.7142  0.1413  2.4456
  333MOL0     H44892   8.645   9.174   8.670  0.5303 -0.1424 -0.4649
  333MOL0     H44893   8.464   9.198   8.628 -0.2516  1.5443  1.3623
  333MOL0     H44894   8.516   9.132   8.391 -1.2532 -2.5510  0.5428
  333MOL0     H44895   8.695   9.118   8.452 -0.0430 -0.9284  2.0540
  333MOL0     H44896   8.453   8.969   8.546 -0.0855  1.2238 -1.7630
  333MOL0     H44897   8.553   8.910   8.412 -0.2228 -1.5427  0.9081
  333MOL0     H44898   8.759   8.970   8.591  0.8830 -1.4596 -0.5762
  333MOL0     H44899   8.653   8.923   8.708  2.6151  1.5521  0.3891
  333MOL0     H44900   8.612   8.685   8.598  0.8093  2.3234  3.0834
  333MOL0     H44901   8.692   8.741   8.462 -1.4108  0.3012 -0.4642
  333MOL0     H44902   8.851   8.610   8.579 -2.7756 -2.1392  1.9423
  333MOL0     H44903   8.905   8.777   8.615 -0.6539  0.8443 -1.9157
  333MOL0     H44904   8.831   8.762   8.849 -1.9925  0.8494  0.3971
  333MOL0     H44905   8.914   8.616   8.802 -0.6633  1.7169  1.5013
  333MOL0     H44906   8.570   8.782   8.873  1.0481  0.9202  0.2038
  333MOL0     H44907   8.295   8.535   8.958 -0.4715  1.3634  0.8178
  333MOL0     H44908   8.337   8.703   8.964  4.7771  0.9274 -0.5945
  333MOL0     H44909   8.151   8.684   8.854 -1.0565 -1.3515  0.2617
  333MOL0     H44910   8.209   8.555   8.742  0.6534 -0.0355  0.3616
  333MOL0     H44911   8.362   8.717   8.635 -2.0367  0.9161 -1.8909
  333MOL0     H44912   8.298   8.855   8.723 -0.1485  2.0211 -2.1258
  333MOL0     H44913   8.198   8.843   8.498 -3.2710  1.6741 -0.2347
  333MOL0     H44914   8.093   8.843   8.628  2.1364  1.4682  0.8509
  333MOL0     H44915   7.865   8.732   8.451 -1.1165 -1.8339 -0.3795
  333MOL0     H44916   7.676   8.655   8.172  1.7831  0.0125 -2.4934
  333MOL0     H44917   7.688   8.755   8.327  2.1807  2.2107 -0.3824
  333MOL0     H44918   7.706   8.830   8.169 -0.8182 -0.3765 -1.4833
  333MOL0     H44919   7.759   8.436   7.868 -2.5041 -2.3799 -0.9131
  333MOL0     H44920   7.662   8.371   7.643 -1.3083  0.9352 -1.6337
  333MOL0     H44921   7.658   8.286   7.428  1.2874 -0.7507 -0.5114
  333MOL0     H44922   7.555   8.419   7.452  1.2370  1.1897  0.9113
  333MOL0     H44923   7.684   8.338   7.191 -0.1424  2.7278 -0.3904
  333MOL0     H44924   7.520   8.291   7.232  1.2003 -1.2992 -0.6785
  333MOL0     H44925   7.627   8.566   7.166  1.7539 -2.8069 -2.6144
  333MOL0     H44926   7.462   8.535   7.248 -2.0353 -2.3272 -0.0552
  333MOL0     H44927   7.491   8.580   7.001 -0.5997  0.4335  2.3665
  333MOL0     H44928   7.577   8.421   6.987 -1.5677  0.1392 -2.3967
  333MOL0     H44929   7.281   8.488   7.037  2.7609  3.0833  1.1478
  333MOL0     H44930   7.341   8.336   7.079 -2.7205  0.2021  1.0488
  333MOL0     H44931   7.388   8.421   6.782 -1.4177 -0.4464 -1.7172
  333MOL0     H44932   7.387   8.273   6.873 -2.3193 -0.6037  1.6095
  333MOL0     H44933   7.149   8.461   6.803 -0.6316  0.4029 -0.1810
  333MOL0     H44934   7.148   8.320   6.912  1.2017 -2.8273 -1.8361
  333MOL0     H44935   7.211   8.159   6.722  0.5820  0.1555  0.5866
  333MOL0     H44936   7.224   8.300   6.610  2.5566 -1.2289  0.2180
  333MOL0     H44937   7.917   8.648   7.459 -1.4924 -1.0060 -0.1595
  333MOL0     H44938   8.024   8.707   7.654 -1.8773  0.4135 -0.1895
  333MOL0     H44939   8.147   8.552   8.077  2.1914  0.3361  2.1741
  333MOL0     H44940   8.230   8.555   8.300  1.6511  2.5886 -0.4483
  333MOL0     H44941   8.530   9.553   8.927  2.4299  2.3164  1.8098
  333MOL0     H44942   8.520   9.800   8.951 -2.5146  3.1332 -2.3320
  333MOL0     H44943   8.259  10.218   8.692 -0.1867  1.8083 -0.0361
  333MOL0     H44944   8.209  10.429   8.789  1.8276  0.1809 -3.4606
  333MOL0     H44945   8.415  10.497   9.196 -1.5635 -1.8719 -1.3533
  333MOL0     H44946   8.531  10.572   9.082 -1.2391  1.0883 -2.4376
  333MOL0     H44947   8.285  10.718   9.212  1.0653  4.7879  2.6149
  333MOL0     H44948   8.403  10.802   9.111 -0.4957  2.0590  1.3846
  333MOL0     H44949   8.574  10.784   9.263  0.1528 -1.2952  1.3636
  333MOL0     H44950   8.475  10.686   9.378 -2.8637 -0.9288 -0.4210
  333MOL0     H44951   8.312  10.866   9.415  0.3641 -3.0112  0.4847
  333MOL0     H44952   8.378  10.966   9.286  1.5658 -1.0548 -0.3550
  333MOL0     H44953   8.620  11.106   9.572 -3.9137  2.0156  1.7717
  333MOL0     H44954   8.608  10.399   8.980  0.4576  0.5964 -0.0323
  333MOL0     H44955   8.635  10.201   8.868 -0.6425 -0.4813 -0.6728
  334MOL0     O44956   6.763   2.293   8.485  0.2723  0.2774 -0.8846
  334MOL0     C44957   6.713   2.409   8.467 -0.5251  0.9039  0.4553
  334MOL0     O44958   6.674   2.460   8.347 -0.5988 -0.3704 -0.3207
  334MOL0     C44959   6.698   2.411   8.218  0.4419 -0.4636 -1.2726
  334MOL0     C44960   6.791   2.309   8.196  1.1089 -0.1483  0.5484
  334MOL0     C44961   6.802   2.254   8.072  0.0021 -0.1641  0.3212
  334MOL0     C44962   6.721   2.288   7.971 -0.2969 -0.8657 -0.4199
  334MOL0     O44963   6.728   2.240   7.846  0.0346  0.6332 -0.4076
  334MOL0     C44964   6.800   2.115   7.834 -0.0451  0.1987  0.6512
  334MOL0     C44965   6.790   2.048   7.698  0.9257 -0.9051  0.3293
  334MOL0     C44966   6.908   1.959   7.680 -0.3948  0.5937 -0.5761
  334MOL0     C44967   6.887   1.851   7.579  0.7477 -0.5213 -0.0688
  334MOL0     C44968   7.013   1.779   7.544 -0.5479 -0.4128  0.8599
  334MOL0     C44969   7.045   1.664   7.638 -0.2423 -0.4620 -0.1637
  334MOL0     C44970   6.962   1.534   7.618 -1.0155  0.3273  0.0344
  334MOL0     C44971   7.000   1.415   7.706  0.8302  0.3902 -0.1068
  334MOL0     N44972   6.922   1.296   7.678 -0.8430 -0.1376  0.1190
  334MOL0     C44973   6.916   1.227   7.557  0.1834  0.6054 -0.2227
  334MOL0     C44974   6.868   1.102   7.588 -0.1222  0.3508  0.0593
  334MOL0     C44975   6.858   0.992   7.490  0.2424  0.8688  0.2860
  334MOL0     C44976   6.747   1.003   7.385 -0.0816 -0.1084  0.0456
  334MOL0     C44977   6.680   0.874   7.371  0.9441 -0.2841  0.2069
  334MOL0     C44978   6.536   0.893   7.315 -0.7151  0.6976 -0.5376
  334MOL0     O44979   6.488   0.758   7.295 -0.1415  0.0955  0.1804
  334MOL0     C44980   6.359   0.743   7.253  1.4522  0.2652  0.4161
  334MOL0     C44981   6.320   0.617   7.224 -1.0611 -1.1227 -0.3340
  334MOL0     C44982   6.195   0.593   7.167  0.6494 -0.8498  0.2409
  334MOL0     C44983   6.153   0.449   7.167 -0.7535 -0.5674  0.0874
  334MOL0     C44984   6.102   0.702   7.137 -0.2290  0.6701  0.0925
  334MOL0     C44985   5.963   0.685   7.078  0.6837 -0.0935  0.0036
  334MOL0     O44986   5.879   0.794   7.091 -0.6248  0.0967 -0.5461
  334MOL0     C44987   5.753   0.783   7.034 -0.3967  0.2950 -0.3274
  334MOL0     C44988   5.741   0.805   6.899 -0.0747 -1.0404  0.0024
  334MOL0     C44989   5.610   0.809   6.840 -0.2914 -0.5697  0.8233
  334MOL0     C44990   5.497   0.784   6.911  0.3490  0.3518 -0.2091
  334MOL0     O44991   5.384   0.796   6.840  0.1403 -0.2211  0.4357
  334MOL0     C44992   5.253   0.783   6.894  0.1055  0.8308 -0.3182
  334MOL0     C44993   5.171   0.737   6.775 -0.2136  0.4214 -0.3363
  334MOL0     C44994   5.030   0.682   6.796 -0.1087  0.7183  0.6786
  334MOL0     C44995   4.942   0.705   6.667 -0.0735  0.2715 -0.9882
  334MOL0     C44996   5.015   0.661   6.536  0.1354  0.5045 -0.4367
  334MOL0     C44997   4.904   0.640   6.429 -0.1568 -0.6180  0.4533
  334MOL0     C44998   4.972   0.647   6.287  0.0375  0.4841  0.3738
  334MOL0     C44999   4.927   0.550   6.180 -0.0163 -0.3273 -0.2800
  334MOL0    Cl45000   5.043   0.558   6.043 -0.3368  0.4974  0.2791
  334MOL0     C45001   5.514   0.756   7.045  0.3413 -0.2993  0.0932
  334MOL0     C45002   5.639   0.746   7.106  0.5429 -0.4663 -0.3967
  334MOL0     O45003   5.923   0.586   7.018  0.4824 -0.4881 -1.6048
  334MOL0     C45004   6.147   0.832   7.156  0.2244 -0.2367 -0.1612
  334MOL0     C45005   6.273   0.850   7.218  0.5844  0.3977  0.1238
  334MOL0     N45006   6.841   1.097   7.728  0.1827 -0.0598 -0.0471
  334MOL0     N45007   6.878   1.212   7.781  0.2878  0.8243  0.0164
  334MOL0     C45008   6.617   2.387   7.994  0.1241  0.3234 -0.0765
  334MOL0     C45009   6.616   2.448   8.113 -0.3117 -1.4335 -0.2185
  334MOL0     C45010   6.696   2.491   8.588 -0.2908 -0.2449  0.3667
  334MOL0     C45011   6.643   2.622   8.587  0.4108 -0.3893  0.4291
  334MOL0     C45012   6.629   2.692   8.705 -0.5763 -0.8442  0.1580
  334MOL0     C45013   6.685   2.650   8.820 -0.5501  0.3948 -0.6577
  334MOL0     O45014   6.669   2.704   8.946 -0.3614  0.0698 -0.2325
  334MOL0     C45015   6.660   2.847   8.952  0.9115  0.0856 -0.6106
  334MOL0     C45016   6.650   2.888   9.100 -0.0420 -0.7659 -0.2765
  334MOL0     C45017   6.520   2.851   9.181 -0.3387  0.5335  0.0680
  334MOL0     C45018   6.537   2.899   9.333  0.1286  0.0629  0.3702
  334MOL0     C45019   6.676   2.868   9.390  0.8660 -0.3465  0.0313
  334MOL0     C45020   6.779   2.836   9.443  0.0676 -0.0514 -0.8838
  334MOL0     C45021   6.754   2.528   8.819 -0.1078  0.1290 -0.1296
  334MOL0     C45022   6.761   2.448   8.709 -0.8597 -1.2868 -0.0595
  334MOL0     H45023   6.858   2.271   8.272 -0.5709 -1.3778  1.4782
  334MOL0     H45024   6.886   2.186   8.059 -0.0615  0.0002 -1.1896
  334MOL0     H45025   6.907   2.127   7.851  0.8732 -4.2228 -0.8013
  334MOL0     H45026   6.773   2.048   7.917  0.1316  0.1659  0.6824
  334MOL0     H45027   6.691   2.000   7.691 -0.6720  1.6179  3.0813
  334MOL0     H45028   6.787   2.122   7.617  0.1353 -0.8420  0.4092
  334MOL0     H45029   6.994   2.024   7.659  1.0621 -0.7482  0.9194
  334MOL0     H45030   6.929   1.908   7.774  4.2445  0.7197 -1.3131
  334MOL0     H45031   6.810   1.780   7.608  2.2132 -2.1914 -0.1074
  334MOL0     H45032   6.840   1.910   7.499  0.5833 -1.3005 -0.5505
  334MOL0     H45033   7.000   1.737   7.444  2.3214 -2.4872  1.2449
  334MOL0     H45034   7.102   1.842   7.540  0.7761 -2.0918  2.3940
  334MOL0     H45035   7.150   1.635   7.630 -1.3364 -7.8699  3.1902
  334MOL0     H45036   7.021   1.698   7.740 -4.7816 -2.1033 -0.4359
  334MOL0     H45037   6.861   1.557   7.653 -0.8303  1.5378 -0.1571
  334MOL0     H45038   6.965   1.498   7.515 -2.3067  1.8384 -0.5674
  334MOL0     H45039   6.979   1.442   7.810  0.3260  4.4989 -1.1004
  334MOL0     H45040   7.108   1.411   7.690  0.6260  1.4867 -2.0449
  334MOL0     H45041   6.953   1.256   7.459 -3.8596 -0.4824 -2.3079
  334MOL0     H45042   6.958   0.982   7.448  0.1998  1.7553 -0.0363
  334MOL0     H45043   6.854   0.905   7.557 -0.5803  0.4454 -0.2997
  334MOL0     H45044   6.783   1.040   7.288 -1.5695 -0.2956 -0.5927
  334MOL0     H45045   6.670   1.075   7.414  0.1572 -0.6468  2.1581
  334MOL0     H45046   6.670   0.837   7.474 -2.8993  1.4797  0.6613
  334MOL0     H45047   6.743   0.801   7.321  0.4510 -1.6512  1.5074
  334MOL0     H45048   6.542   0.953   7.224  0.7677  2.2458  0.5259
  334MOL0     H45049   6.474   0.948   7.386 -0.3017  0.7592 -0.2216
  334MOL0     H45050   6.386   0.534   7.247  2.5583  1.1537 -1.7640
  334MOL0     H45051   6.163   0.403   7.068 -0.8198 -1.8991  0.6775
  334MOL0     H45052   6.222   0.394   7.232  1.4663  1.3881 -0.4750
  334MOL0     H45053   6.051   0.442   7.206 -1.5282  3.3245 -0.7738
  334MOL0     H45054   5.828   0.826   6.837  1.1455 -3.3603  0.8119
  334MOL0     H45055   5.608   0.848   6.738 -1.2847  0.2062  1.1299
  334MOL0     H45056   5.247   0.700   6.965  1.5155 -0.1156 -1.2397
  334MOL0     H45057   5.220   0.876   6.939  0.5365  0.0963  1.6177
  334MOL0     H45058   5.167   0.822   6.706 -0.7012  0.8914  0.2515
  334MOL0     H45059   5.230   0.660   6.725  0.2683 -1.0960  2.3770
  334MOL0     H45060   4.975   0.739   6.872 -2.3078 -0.9814  0.4603
  334MOL0     H45061   5.020   0.575   6.816  1.1835  0.5885  0.6957
  334MOL0     H45062   4.846   0.656   6.689  0.2914 -0.0337  0.0080
  334MOL0     H45063   4.927   0.814   6.662  0.8414  0.3472 -3.4156
  334MOL0     H45064   5.081   0.574   6.549 -0.0847  0.1507 -1.5307
  334MOL0     H45065   5.080   0.741   6.498  1.1706 -1.3749 -2.9554
  334MOL0     H45066   4.856   0.545   6.453  0.9169 -0.4499  3.8093
  334MOL0     H45067   4.826   0.717   6.427  0.8447  0.4939 -2.4563
  334MOL0     H45068   5.079   0.627   6.291  0.3195  2.1347  2.3458
  334MOL0     H45069   4.963   0.753   6.260  1.6984  0.6243  0.2736
  334MOL0     H45070   4.823   0.572   6.154  0.2849  3.4506  1.0869
  334MOL0     H45071   4.929   0.449   6.223 -2.5594 -0.0914  0.6015
  334MOL0     H45072   5.421   0.734   7.095 -1.4305  2.7124 -1.5596
  334MOL0     H45073   5.650   0.714   7.209  0.0035 -1.9283 -0.7794
  334MOL0     H45074   6.081   0.918   7.149 -0.7063 -0.9727 -0.5595
  334MOL0     H45075   6.294   0.952   7.249  6.6673 -0.1723 -0.8175
  334MOL0     H45076   6.555   2.426   7.914  1.4828 -2.4040 -2.6735
  334MOL0     H45077   6.545   2.527   8.133  0.6946 -0.8429  1.2609
  334MOL0     H45078   6.599   2.660   8.495  0.2073  0.2484  0.7802
  334MOL0     H45079   6.581   2.789   8.712 -1.5391 -1.4308  2.2782
  334MOL0     H45080   6.749   2.903   8.923 -0.9567  3.4907 -0.2514
  334MOL0     H45081   6.576   2.880   8.891 -0.3035 -1.5581  0.0905
  334MOL0     H45082   6.658   2.997   9.113  1.0474 -0.8235 -0.3734
  334MOL0     H45083   6.732   2.834   9.149 -0.4236 -1.2124 -0.1279
  334MOL0     H45084   6.495   2.745   9.171 -0.6336  0.5612  0.4879
  334MOL0     H45085   6.435   2.908   9.143 -1.2201  0.3504  1.6691
  334MOL0     H45086   6.464   2.847   9.395  0.4025  0.7661  1.3168
  334MOL0     H45087   6.514   3.006   9.333  0.3853  0.1229  0.8143
  334MOL0     H45088   6.866   2.822   9.505 -0.8588  1.1982  0.8033
  334MOL0     H45089   6.800   2.484   8.907 -3.1444  2.3292  2.8275
  334MOL0     H45090   6.817   2.355   8.711  1.0313 -0.1729  1.3459
  335MOL0     O45091   6.509   7.117   9.420 -0.2341 -0.3007  0.4096
  335MOL0     C45092   6.545   7.020   9.486 -0.9423 -0.8731  0.4014
  335MOL0     O45093   6.465   6.913   9.517  0.3685  0.1619 -0.1803
  335MOL0     C45094   6.348   6.906   9.447 -0.9606 -0.0188 -0.5266
  335MOL0     C45095   6.251   7.012   9.422 -0.1957 -0.4549  0.0969
  335MOL0     C45096   6.138   6.987   9.341 -0.5380  1.1508 -0.1854
  335MOL0     C45097   6.113   6.850   9.294 -0.2918  0.2691  0.3878
  335MOL0     O45098   6.006   6.814   9.219 -0.1057  0.3218 -0.4970
  335MOL0     C45099   5.876   6.828   9.285  0.6014  0.2456  0.4217
  335MOL0     C45100   5.771   6.803   9.176  0.3233  0.5374 -0.0927
  335MOL0     C45101   5.648   6.747   9.232 -0.3591  0.1560  0.1718
  335MOL0     C45102   5.535   6.739   9.123 -0.1529 -0.1771 -0.9944
  335MOL0     C45103   5.386   6.718   9.182 -0.5346 -0.1331 -0.1200
  335MOL0     C45104   5.295   6.688   9.061 -0.0647 -0.6494  0.5603
  335MOL0     C45105   5.162   6.631   9.090 -0.4205  0.5407  0.1605
  335MOL0     C45106   5.104   6.585   8.954  0.6367  0.3738 -0.3263
  335MOL0     N45107   4.982   6.504   8.970 -0.8646  1.0429  0.6165
  335MOL0     C45108   4.865   6.534   8.902  0.1090  1.1184  1.1935
  335MOL0     C45109   4.792   6.421   8.921 -0.0523  0.1555  0.5779
  335MOL0     C45110   4.654   6.391   8.884  0.0376 -0.0153  0.0148
  335MOL0     C45111   4.611   6.452   8.749 -0.0896  0.7289  0.1247
  335MOL0     C45112   4.474   6.411   8.710  0.0587 -0.5816 -0.7867
  335MOL0     C45113   4.467   6.414   8.560 -0.1747 -1.3075  0.4334
  335MOL0     O45114   4.506   6.533   8.489  0.0788  0.4823 -0.5357
  335MOL0     C45115   4.430   6.643   8.492  0.2373  0.8749 -0.1754
  335MOL0     C45116   4.299   6.639   8.469 -0.1948 -1.0390  0.0291
  335MOL0     C45117   4.226   6.753   8.450 -0.4831 -0.9771  0.1390
  335MOL0     C45118   4.077   6.744   8.427  0.5464 -0.2938 -0.0617
  335MOL0     C45119   4.298   6.886   8.454  0.5146  0.1010 -0.6360
  335MOL0     C45120   4.232   7.010   8.423 -0.8805 -1.4629  0.1521
  335MOL0     O45121   4.291   7.117   8.491  0.0083  0.5525  0.0601
  335MOL0     C45122   4.228   7.239   8.462 -0.8248  0.6473  0.2928
  335MOL0     C45123   4.269   7.316   8.362 -0.4511  0.7935  0.2314
  335MOL0     C45124   4.224   7.447   8.352  0.8825 -0.2810  0.1898
  335MOL0     C45125   4.129   7.504   8.436 -0.1962  1.1329  0.4179
  335MOL0     O45126   4.100   7.634   8.419  0.7367 -0.6132  0.0133
  335MOL0     C45127   3.987   7.691   8.481 -0.4978  0.6520 -0.4668
  335MOL0     C45128   3.957   7.830   8.440 -0.0120 -0.1874 -0.2992
  335MOL0     C45129   3.967   7.850   8.293 -0.1929 -0.2330  0.9158
  335MOL0     C45130   3.990   8.004   8.265 -1.3733 -0.0666  0.8471
  335MOL0     C45131   4.029   8.022   8.116 -0.3456  0.5006 -0.1833
  335MOL0     C45132   3.999   8.162   8.063  0.5500  0.2490  0.4162
  335MOL0     C45133   4.070   8.197   7.937  0.8710  0.0022  0.6219
  335MOL0     C45134   4.024   8.108   7.815 -0.4101 -0.3075 -0.2899
  335MOL0    Cl45135   4.164   8.085   7.702 -0.5452  0.2468 -0.0585
  335MOL0     C45136   4.087   7.422   8.547 -1.1155 -0.0640 -0.3093
  335MOL0     C45137   4.134   7.288   8.555  0.2204  0.5905  1.0299
  335MOL0     O45138   4.125   7.013   8.357  0.3338  0.4168 -0.5932
  335MOL0     C45139   4.438   6.886   8.476 -0.4718 -0.3916  0.0208
  335MOL0     C45140   4.503   6.766   8.490  0.2110  0.5132 -0.0251
  335MOL0     N45141   4.865   6.327   8.996  0.6735 -0.0527  0.1450
  335MOL0     N45142   4.982   6.374   9.012 -0.4755 -0.7851 -0.6580
  335MOL0     C45143   6.203   6.746   9.318  0.0179 -0.8680 -0.2413
  335MOL0     C45144   6.331   6.781   9.387  0.1009 -0.0519  0.1441
  335MOL0     C45145   6.685   7.014   9.523  0.4285  0.4183 -0.5431
  335MOL0     C45146   6.738   6.931   9.618  0.6324  0.0282  0.4782
  335MOL0     C45147   6.865   6.929   9.678  0.2404 -0.2857 -0.4263
  335MOL0     C45148   6.951   7.022   9.623  0.0130 -0.0195  0.3677
  335MOL0     O45149   7.073   7.037   9.688 -0.5549 -0.1056  0.1149
  335MOL0     C45150   7.181   7.102   9.624  1.1871 -0.5295  0.3254
  335MOL0     C45151   7.322   7.082   9.687 -0.2955  0.3208 -1.0470
  335MOL0     C45152   7.381   6.945   9.631  0.3009  0.0572  0.0209
  335MOL0     C45153   7.524   6.902   9.674  1.2854 -0.6410  0.8621
  335MOL0     C45154   7.588   6.791   9.588 -0.1697 -1.2582 -0.2390
  335MOL0     C45155   7.648   6.708   9.517 -0.5644 -0.0221  0.5651
  335MOL0     C45156   6.909   7.111   9.517  0.6050  0.2079  0.0468
  335MOL0     C45157   6.775   7.106   9.467 -0.3251  0.0853  0.5314
  335MOL0     H45158   6.266   7.109   9.467  0.8295  0.5443 -2.2664
  335MOL0     H45159   6.068   7.067   9.318  1.5248  2.3480 -2.8228
  335MOL0     H45160   5.870   6.750   9.361 -2.4061 -1.3966 -1.2715
  335MOL0     H45161   5.858   6.924   9.334 -0.9853 -0.7798  2.0009
  335MOL0     H45162   5.760   6.890   9.110  0.5800 -0.7725 -1.9514
  335MOL0     H45163   5.820   6.722   9.121 -0.9694 -0.0558 -0.4276
  335MOL0     H45164   5.674   6.647   9.268  1.1053 -0.9465 -3.4361
  335MOL0     H45165   5.617   6.808   9.317 -1.7178 -3.1183  2.2157
  335MOL0     H45166   5.539   6.832   9.066  1.7200  1.0141  0.9220
  335MOL0     H45167   5.554   6.648   9.065  0.5212 -0.9657  0.4196
  335MOL0     H45168   5.383   6.631   9.247 -2.3694  1.2697  1.8283
  335MOL0     H45169   5.356   6.811   9.231 -2.4831 -2.1324  2.8099
  335MOL0     H45170   5.289   6.766   8.984 -5.5458 -0.0083  1.1905
  335MOL0     H45171   5.354   6.610   9.011  4.4844  1.9394  1.3925
  335MOL0     H45172   5.171   6.542   9.152  4.9677  0.3685 -0.3550
  335MOL0     H45173   5.093   6.692   9.149 -0.7418 -1.2992  1.7794
  335MOL0     H45174   5.174   6.526   8.894 -2.4470 -3.6190 -0.4292
  335MOL0     H45175   5.069   6.670   8.895 -0.2682  0.1996 -0.0558
  335MOL0     H45176   4.831   6.624   8.851  0.3856  0.3156 -0.4822
  335MOL0     H45177   4.649   6.282   8.871  0.0086  0.1451 -1.5553
  335MOL0     H45178   4.584   6.425   8.960 -1.8126 -2.7213 -0.3491
  335MOL0     H45179   4.684   6.418   8.675  1.6033  4.0812  0.0961
  335MOL0     H45180   4.613   6.561   8.737  1.1399  0.7419  0.3801
  335MOL0     H45181   4.391   6.473   8.746  1.3390  1.4053 -1.0904
  335MOL0     H45182   4.449   6.316   8.758 -1.3650 -0.3825 -1.0951
  335MOL0     H45183   4.360   6.398   8.542 -1.0815 -0.9556  4.5879
  335MOL0     H45184   4.525   6.333   8.516 -1.8708 -0.2199 -4.4658
  335MOL0     H45185   4.242   6.548   8.456 -0.9375 -0.7741  1.3007
  335MOL0     H45186   4.036   6.804   8.509  2.0410 -2.5326  2.5383
  335MOL0     H45187   4.048   6.783   8.330  1.3874 -0.4371 -0.3781
  335MOL0     H45188   4.042   6.640   8.433 -0.0819 -0.1238 -0.7436
  335MOL0     H45189   4.338   7.270   8.293  0.5581 -0.3061  1.8913
  335MOL0     H45190   4.249   7.507   8.265 -0.9866 -3.2247 -2.5505
  335MOL0     H45191   3.898   7.637   8.447 -0.7066  1.4084 -1.1729
  335MOL0     H45192   3.997   7.676   8.589  5.0940 -2.8430 -1.0984
  335MOL0     H45193   3.852   7.855   8.461 -0.7169 -0.9372 -2.6760
  335MOL0     H45194   4.015   7.908   8.489 -4.3251  2.9687  0.4358
  335MOL0     H45195   3.874   7.823   8.244 -0.0035  1.5232 -0.5252
  335MOL0     H45196   4.044   7.797   8.236 -1.5158  1.3778 -2.6729
  335MOL0     H45197   3.894   8.056   8.276 -1.7467 -0.0021 -2.0380
  335MOL0     H45198   4.064   8.049   8.332 -0.8201 -0.4557  0.5093
  335MOL0     H45199   3.985   7.943   8.055 -2.0007 -0.5785  2.2790
  335MOL0     H45200   4.137   8.007   8.110 -0.6069 -0.8218 -3.4939
  335MOL0     H45201   3.890   8.169   8.056  0.5074  0.2133  0.9948
  335MOL0     H45202   4.026   8.223   8.149  1.6922  0.5185 -0.1110
  335MOL0     H45203   4.178   8.192   7.952  0.9825  0.6196  0.0540
  335MOL0     H45204   4.052   8.303   7.918  2.0732 -0.1360 -1.5041
  335MOL0     H45205   3.943   8.155   7.758 -0.1870  2.8311  1.7572
  335MOL0     H45206   3.989   8.009   7.846 -0.7425 -0.0080  0.2935
  335MOL0     H45207   4.026   7.456   8.630  1.5059  1.2167  1.1934
  335MOL0     H45208   4.094   7.235   8.641 -3.3338  1.3757  0.0168
  335MOL0     H45209   4.501   6.974   8.467 -0.5769 -0.2709  0.4341
  335MOL0     H45210   4.609   6.753   8.509  0.6551 -0.4666 -2.7294
  335MOL0     H45211   6.189   6.649   9.272 -1.6786 -1.5246  1.5388
  335MOL0     H45212   6.408   6.707   9.405  0.6960 -0.1094 -2.2392
  335MOL0     H45213   6.681   6.865   9.682 -0.4186 -2.9424 -3.1418
  335MOL0     H45214   6.897   6.860   9.756 -1.0664 -0.4013  0.0425
  335MOL0     H45215   7.195   7.086   9.517  0.1115  0.1144  0.0803
  335MOL0     H45216   7.155   7.207   9.638  0.6178 -0.4087 -1.4565
  335MOL0     H45217   7.324   7.086   9.796  0.8239  1.0525 -1.0721
  335MOL0     H45218   7.394   7.160   9.660  2.0418 -2.3834 -3.4758
  335MOL0     H45219   7.410   6.967   9.528  1.3801  1.8314  0.6577
  335MOL0     H45220   7.302   6.870   9.640  1.0134 -0.9194 -1.4176
  335MOL0     H45221   7.516   6.867   9.777  0.1638 -3.5398 -0.1164
  335MOL0     H45222   7.589   6.990   9.672  0.4180  0.0462 -2.4342
  335MOL0     H45223   7.701   6.628   9.468  0.2180 -0.0675  1.4576
  335MOL0     H45224   6.974   7.185   9.472  1.7550 -1.6473 -1.4284
  335MOL0     H45225   6.755   7.167   9.380  0.9204  2.3910  1.7689
  336MOL0     O45226   8.372   1.660   0.337 -0.1402 -0.0470 -0.8501
  336MOL0     C45227   8.383   1.637   0.459 -0.2441 -0.7101  0.6351
  336MOL0     O45228   8.436   1.719   0.551  0.0240  0.3027 -0.1311
  336MOL0     C45229   8.490   1.846   0.527  0.3436  0.8266 -0.0842
  336MOL0     C45230   8.582   1.877   0.419 -0.8352  0.0501  0.0652
  336MOL0     C45231   8.636   2.002   0.405  0.0521 -0.3606 -1.3020
  336MOL0     C45232   8.608   2.102   0.496  0.2503 -0.4970 -0.4713
  336MOL0     O45233   8.656   2.232   0.489  0.5032 -0.5509  0.2575
  336MOL0     C45234   8.795   2.262   0.454 -0.4480  0.0718 -0.2576
  336MOL0     C45235   8.821   2.411   0.426 -0.4115 -0.3681  0.2842
  336MOL0     C45236   8.970   2.438   0.388  1.6983  0.0180  0.0999
  336MOL0     C45237   9.010   2.403   0.236  0.6939  0.3898 -0.8191
  336MOL0     C45238   9.161   2.421   0.206 -0.4262  0.5578 -0.1869
  336MOL0     C45239   9.196   2.347   0.077 -0.9471  0.1562 -0.2385
  336MOL0     C45240   9.347   2.373   0.054 -0.0158  0.3280 -0.1664
  336MOL0     C45241   9.412   2.309  -0.063 -0.1295 -0.3649  0.4378
  336MOL0     N45242   9.541   2.363  -0.088 -0.3950  0.5298  0.1101
  336MOL0     C45243   9.557   2.476  -0.169  0.8304  0.2600 -0.0920
  336MOL0     C45244   9.676   2.458  -0.224 -1.0236 -0.0367 -0.1405
  336MOL0     C45245   9.746   2.563  -0.300  0.2058 -0.5726  0.9468
  336MOL0     C45246   9.771   2.512  -0.439  0.7874 -0.5445  0.8754
  336MOL0     C45247   9.872   2.586  -0.521  0.0622  1.4250  0.5920
  336MOL0     C45248   9.933   2.500  -0.631  0.0427  1.0787  0.4704
  336MOL0     O45249  10.008   2.394  -0.586 -0.8785  0.1897 -0.4942
  336MOL0     C45250  10.083   2.323  -0.679 -0.5004  0.4865  0.4640
  336MOL0     C45251  10.214   2.283  -0.658  0.0762 -0.3480  0.0793
  336MOL0     C45252  10.289   2.218  -0.752 -0.1699 -0.6589 -0.1434
  336MOL0     C45253  10.437   2.188  -0.731  1.0367 -0.3336 -0.0329
  336MOL0     C45254  10.224   2.187  -0.880  0.6072  0.1485 -0.3408
  336MOL0     C45255  10.291   2.104  -0.985  0.8191 -0.7346  0.4406
  336MOL0     O45256  10.286   2.137  -1.118  0.5325 -0.2540 -0.5758
  336MOL0     C45257  10.364   2.071  -1.210  1.5035 -0.5401 -1.1767
  336MOL0     C45258  10.499   2.033  -1.191 -0.5294 -0.7356  0.4591
  336MOL0     C45259  10.576   1.986  -1.297  0.3738  0.3312  0.4624
  336MOL0     C45260  10.512   1.965  -1.418 -0.7916 -0.4364  0.9646
  336MOL0     O45261  10.584   1.898  -1.515  0.4360 -0.8625 -0.6383
  336MOL0     C45262  10.574   1.941  -1.655  0.6131 -0.8539 -0.0166
  336MOL0     C45263  10.645   2.073  -1.688 -0.3595 -0.7742 -0.0342
  336MOL0     C45264  10.801   2.059  -1.709 -1.1585  0.0725 -0.3056
  336MOL0     C45265  10.860   2.022  -1.567  0.3933  1.5247 -0.8983
  336MOL0     C45266  11.013   2.046  -1.570 -0.4352 -0.2231  0.5539
  336MOL0     C45267  11.085   2.026  -1.438  0.0137  1.1036 -0.5512
  336MOL0     C45268  11.039   2.123  -1.327 -0.9187 -0.1619  0.7835
  336MOL0     C45269  11.105   2.083  -1.183 -0.4252 -0.1863 -0.3834
  336MOL0    Cl45270  11.278   2.155  -1.157  0.3063  0.1525 -0.2316
  336MOL0     C45271  10.375   2.002  -1.435  0.3953 -0.6980  0.2008
  336MOL0     C45272  10.303   2.070  -1.337 -0.2670  0.9634 -0.2890
  336MOL0     O45273  10.357   2.013  -0.938 -0.4843  0.0380 -0.0405
  336MOL0     C45274  10.098   2.235  -0.905  0.1069  1.1526  0.7472
  336MOL0     C45275  10.031   2.304  -0.810 -0.3160 -0.3906  0.5933
  336MOL0     N45276   9.738   2.352  -0.158  0.4587 -0.5174 -0.3152
  336MOL0     N45277   9.653   2.287  -0.083  0.1020  0.6782  0.6305
  336MOL0     C45278   8.515   2.071   0.602  0.1325 -0.7953  0.5848
  336MOL0     C45279   8.457   1.943   0.611  0.1004 -0.1162 -0.0500
  336MOL0     C45280   8.336   1.506   0.499 -0.5296  0.6736 -0.3241
  336MOL0     C45281   8.334   1.478   0.638 -0.7520 -0.3847 -0.7132
  336MOL0     C45282   8.300   1.358   0.684  0.3858  0.6905  0.5543
  336MOL0     C45283   8.257   1.257   0.593 -0.1396 -0.9376 -0.4387
  336MOL0     O45284   8.228   1.136   0.658 -0.0797 -0.0184 -0.1083
  336MOL0     C45285   8.190   1.022   0.567 -0.5209  0.2943 -1.0932
  336MOL0     C45286   8.193   0.906   0.666  0.1353  0.2494  0.1099
  336MOL0     C45287   8.055   0.897   0.733  0.0501  0.3750 -0.5361
  336MOL0     C45288   8.063   0.761   0.806 -0.0023 -0.6942  0.0044
  336MOL0     C45289   8.014   0.766   0.944  0.9291  0.7217 -0.8925
  336MOL0     C45290   7.991   0.793   1.057 -0.0211 -1.2903  0.0062
  336MOL0     C45291   8.250   1.281   0.458 -0.1904  0.2348  0.3466
  336MOL0     C45292   8.288   1.407   0.407  0.6527 -0.0473 -0.0647
  336MOL0     H45293   8.622   1.795   0.360 -1.4978 -0.4904  0.3637
  336MOL0     H45294   8.693   2.001   0.313 -1.7225 -1.1567 -2.4687
  336MOL0     H45295   8.858   2.227   0.536  1.4484 -2.1544 -2.5156
  336MOL0     H45296   8.822   2.206   0.365 -0.2006  0.0373 -0.1609
  336MOL0     H45297   8.754   2.430   0.342  1.4693  0.8930 -1.0140
  336MOL0     H45298   8.795   2.469   0.515  1.7895  1.3023 -0.0748
  336MOL0     H45299   8.998   2.542   0.405 -0.1188  0.9998 -2.2633
  336MOL0     H45300   9.031   2.378   0.456  0.3611  0.6588  1.9542
  336MOL0     H45301   8.982   2.303   0.202  0.2567  0.2324 -0.0227
  336MOL0     H45302   8.947   2.462   0.169 -4.2566 -0.5761  2.4566
  336MOL0     H45303   9.199   2.523   0.197 -0.2825  0.5736  0.5445
  336MOL0     H45304   9.217   2.375   0.288 -1.8465 -0.8948  0.0428
  336MOL0     H45305   9.185   2.239   0.085  2.2489 -0.2446 -0.0394
  336MOL0     H45306   9.134   2.377  -0.008 -0.9116 -1.3845 -0.8377
  336MOL0     H45307   9.357   2.478   0.025  0.4268  0.0735 -0.9925
  336MOL0     H45308   9.404   2.356   0.146  0.2386 -0.0113 -0.3829
  336MOL0     H45309   9.346   2.327  -0.149 -0.7592 -0.9848  0.7788
  336MOL0     H45310   9.412   2.202  -0.044  1.1646 -0.6468 -1.0555
  336MOL0     H45311   9.489   2.558  -0.192 -0.2526 -0.4624  0.4753
  336MOL0     H45312   9.696   2.659  -0.292  4.8640  2.2057  0.4192
  336MOL0     H45313   9.840   2.583  -0.248  0.9371  3.8702 -1.5567
  336MOL0     H45314   9.681   2.501  -0.500  0.9840 -2.2966  0.8517
  336MOL0     H45315   9.802   2.408  -0.427 -1.2772 -1.2873  0.2654
  336MOL0     H45316   9.949   2.630  -0.457 -0.5219  4.1401 -0.4281
  336MOL0     H45317   9.824   2.672  -0.568 -2.4143  0.2978  0.8848
  336MOL0     H45318   9.993   2.571  -0.690  1.0121  0.5608  0.8252
  336MOL0     H45319   9.845   2.473  -0.690 -2.8358  0.5518  4.5578
  336MOL0     H45320  10.259   2.309  -0.563  1.3447  0.4760 -0.7222
  336MOL0     H45321  10.493   2.177  -0.824  3.2331  4.1477  0.4953
  336MOL0     H45322  10.481   2.274  -0.680  1.2111 -0.3187 -0.2092
  336MOL0     H45323  10.443   2.101  -0.664  0.1026  1.0924  2.0106
  336MOL0     H45324  10.555   2.057  -1.101 -0.4090 -0.8402  0.4134
  336MOL0     H45325  10.680   1.957  -1.286 -0.0011 -1.4457 -0.2663
  336MOL0     H45326  10.610   1.861  -1.719  1.3433 -2.5455  2.3718
  336MOL0     H45327  10.469   1.948  -1.683  1.4475  0.7504 -3.1327
  336MOL0     H45328  10.602   2.115  -1.779  4.4110 -0.0030 -2.1973
  336MOL0     H45329  10.624   2.147  -1.610  1.4867  2.5665 -2.4679
  336MOL0     H45330  10.853   2.149  -1.743  2.0557 -1.0026  1.3477
  336MOL0     H45331  10.830   1.974  -1.771 -0.4134  0.6062 -0.7106
  336MOL0     H45332  10.820   2.095  -1.496  2.4088  0.9997  0.8750
  336MOL0     H45333  10.837   1.917  -1.548  0.3735  0.7888 -4.3050
  336MOL0     H45334  11.035   2.150  -1.598  0.8882 -0.2664  1.3309
  336MOL0     H45335  11.062   1.990  -1.651  0.3878  3.8734 -2.1032
  336MOL0     H45336  11.048   1.931  -1.399  0.6641  2.2048  3.2353
  336MOL0     H45337  11.192   2.032  -1.456  0.2786 -3.2247 -1.5103
  336MOL0     H45338  10.935   2.095  -1.307 -1.6874  0.7650 -1.5670
  336MOL0     H45339  11.038   2.230  -1.348  0.5110 -0.9049 -4.1661
  336MOL0     H45340  11.137   1.978  -1.177  1.5822  0.4253  0.0606
  336MOL0     H45341  11.033   2.112  -1.106  1.6548  1.4103  1.0706
  336MOL0     H45342  10.335   1.984  -1.534  2.1362  0.8305 -0.8532
  336MOL0     H45343  10.200   2.101  -1.349 -1.3556 -1.8800  0.8429
  336MOL0     H45344  10.049   2.222  -1.001  2.8092  0.6542 -0.6619
  336MOL0     H45345   9.932   2.348  -0.820 -0.8655 -1.3612  1.5153
  336MOL0     H45346   8.499   2.141   0.683 -1.3377  0.1229 -0.4625
  336MOL0     H45347   8.386   1.908   0.685 -1.1601 -0.4504 -1.3743
  336MOL0     H45348   8.352   1.555   0.712 -0.0787 -0.2091 -1.0580
  336MOL0     H45349   8.295   1.343   0.791 -3.8371 -0.5364  0.3752
  336MOL0     H45350   8.089   1.038   0.527 -2.1773 -1.7547  1.9078
  336MOL0     H45351   8.254   0.993   0.483  1.8421  0.4451  0.5775
  336MOL0     H45352   8.280   0.911   0.731  1.7650 -5.3239 -1.0390
  336MOL0     H45353   8.208   0.816   0.604 -0.7649  0.6348 -0.6974
  336MOL0     H45354   7.973   0.895   0.660  0.1932 -0.7267 -0.6846
  336MOL0     H45355   8.043   0.979   0.803  2.9932 -1.3631  2.2976
  336MOL0     H45356   8.166   0.736   0.833 -0.0697 -2.2057 -1.0438
  336MOL0     H45357   8.017   0.682   0.746  1.1880 -0.5335 -1.1761
  336MOL0     H45358   7.971   0.819   1.159  2.7388  0.2472  0.2619
  336MOL0     H45359   8.212   1.205   0.391 -2.6560  0.6206  1.2259
  336MOL0     H45360   8.291   1.444   0.305 -0.4641  2.9533  0.8827
  337MOL0     O45361   7.947   3.981   0.528 -0.7082  0.7850 -0.1305
  337MOL0     C45362   7.905   3.894   0.453 -0.2410  0.4209  0.9574
  337MOL0     O45363   7.834   3.785   0.494 -0.1972  0.1509  0.5078
  337MOL0     C45364   7.760   3.771   0.614  0.2818  0.4010  0.0066
  337MOL0     C45365   7.737   3.649   0.663 -0.3304 -0.3060  0.3228
  337MOL0     C45366   7.671   3.620   0.787  0.2571  0.3515 -0.5820
  337MOL0     C45367   7.597   3.726   0.851  0.2625  0.4788 -0.4132
  337MOL0     O45368   7.523   3.714   0.965  0.8175 -0.4062  0.4468
  337MOL0     C45369   7.512   3.586   1.030 -0.0191 -0.1845  0.1001
  337MOL0     C45370   7.423   3.596   1.154 -1.5883 -0.4374  0.3712
  337MOL0     C45371   7.507   3.690   1.251 -0.1394 -0.6905 -0.5415
  337MOL0     C45372   7.452   3.691   1.397  0.4191  0.4906  0.0124
  337MOL0     C45373   7.490   3.803   1.488  0.5859  0.1723 -0.3002
  337MOL0     C45374   7.368   3.905   1.500  0.4555 -0.3517  0.0122
  337MOL0     C45375   7.324   3.965   1.364 -0.0617 -0.3060 -0.2699
  337MOL0     C45376   7.413   4.074   1.292 -0.3517  1.0037 -0.4196
  337MOL0     N45377   7.375   4.087   1.150 -0.3903 -0.1600  0.1433
  337MOL0     C45378   7.362   3.995   1.053  0.1364  0.2576  0.1793
  337MOL0     C45379   7.314   4.069   0.946 -1.0170 -0.5705  0.2327
  337MOL0     C45380   7.294   4.017   0.803  0.8910  0.1279 -0.4491
  337MOL0     C45381   7.350   4.081   0.680 -0.4890  0.6450 -0.4918
  337MOL0     C45382   7.303   4.224   0.664  0.3702  0.6205 -0.1363
  337MOL0     C45383   7.319   4.290   0.523 -0.8215  0.8488 -0.1716
  337MOL0     O45384   7.252   4.416   0.515 -0.0878  0.1560  0.5091
  337MOL0     C45385   7.112   4.411   0.508 -0.6821  0.5765 -0.2946
  337MOL0     C45386   7.050   4.523   0.566 -0.3965 -0.0499 -0.3211
  337MOL0     C45387   6.913   4.544   0.560 -0.1279  0.2118 -0.3276
  337MOL0     C45388   6.870   4.658   0.649  0.1970 -0.0237 -0.6702
  337MOL0     C45389   6.826   4.468   0.484 -0.2720  0.4565  0.1502
  337MOL0     C45390   6.680   4.492   0.460 -1.4719 -0.4480 -0.3299
  337MOL0     O45391   6.638   4.611   0.493  0.4191 -0.3304 -0.5807
  337MOL0     C45392   6.504   4.631   0.519  0.7260 -0.1476  0.6637
  337MOL0     C45393   6.435   4.538   0.602 -0.6883 -0.4863  0.8272
  337MOL0     C45394   6.307   4.560   0.636 -0.8429  0.2690 -0.2773
  337MOL0     C45395   6.242   4.678   0.602 -0.3003 -0.3155 -0.8675
  337MOL0     O45396   6.119   4.717   0.641 -0.1125  0.4486 -1.0649
  337MOL0     C45397   6.010   4.630   0.602  0.2431  0.0983 -0.3805
  337MOL0     C45398   5.887   4.658   0.688  1.1861 -0.1048 -0.5914
  337MOL0     C45399   5.814   4.794   0.657 -0.8957 -0.4017  0.6782
  337MOL0     C45400   5.669   4.773   0.616 -0.0950  0.0898  1.1147
  337MOL0     C45401   5.579   4.904   0.630 -0.7809 -0.2631 -0.7756
  337MOL0     C45402   5.446   4.882   0.560  0.1370 -0.0979 -0.5175
  337MOL0     C45403   5.339   4.990   0.592  0.3251 -0.1965 -0.2907
  337MOL0     C45404   5.296   5.082   0.473  0.4314 -0.3221  0.2703
  337MOL0    Cl45405   5.439   5.178   0.427 -0.4010 -0.3753 -0.3178
  337MOL0     C45406   6.308   4.771   0.519  0.6845  0.7343 -0.4717
  337MOL0     C45407   6.439   4.752   0.489  0.0916  0.0801  0.3546
  337MOL0     O45408   6.614   4.398   0.426 -0.4615 -0.0369 -0.9362
  337MOL0     C45409   6.890   4.348   0.429 -0.0260  0.0916 -0.5693
  337MOL0     C45410   7.029   4.320   0.439  0.1837 -0.0700  0.0796
  337MOL0     N45411   7.297   4.205   0.982 -0.5955 -0.2076  0.1204
  337MOL0     N45412   7.330   4.205   1.105  0.4918 -0.5451 -0.3352
  337MOL0     C45413   7.628   3.855   0.802 -0.4368  0.0162  0.1251
  337MOL0     C45414   7.705   3.881   0.689 -1.2112  0.2696 -0.7776
  337MOL0     C45415   7.952   3.899   0.309 -0.0359 -0.4203  0.2562
  337MOL0     C45416   7.957   3.762   0.251 -0.9508 -0.3872 -0.2742
  337MOL0     C45417   8.011   3.760   0.122  0.1490  0.5977  1.5035
  337MOL0     C45418   8.053   3.868   0.049 -0.8087 -0.5908 -1.1376
  337MOL0     O45419   8.106   3.836  -0.073 -0.7469 -0.1503 -0.6755
  337MOL0     C45420   8.181   3.930  -0.139 -0.8213 -0.3130  1.2129
  337MOL0     C45421   8.216   3.862  -0.267  0.9527 -0.6119 -0.2483
  337MOL0     C45422   8.248   3.713  -0.270 -0.3168 -0.0754 -0.2441
  337MOL0     C45423   8.308   3.662  -0.400  0.0076  0.6257 -0.1123
  337MOL0     C45424   8.403   3.554  -0.378  0.9394 -0.6935 -0.3465
  337MOL0     C45425   8.468   3.455  -0.362 -0.1288  0.4364  0.2845
  337MOL0     C45426   8.053   3.990   0.110 -0.6984  0.5513 -0.6217
  337MOL0     C45427   8.002   4.008   0.240  1.1790  0.1580  0.0385
  337MOL0     H45428   7.774   3.565   0.605 -2.0966  1.5556 -3.9354
  337MOL0     H45429   7.676   3.522   0.835  5.4576  0.3292 -0.6874
  337MOL0     H45430   7.486   3.503   0.964  1.0212  0.0370 -0.6030
  337MOL0     H45431   7.608   3.562   1.076 -0.1983  1.2623  1.3213
  337MOL0     H45432   7.323   3.631   1.129 -1.6406 -1.7761 -1.4877
  337MOL0     H45433   7.416   3.497   1.201 -2.1915 -0.7190 -0.2875
  337MOL0     H45434   7.610   3.654   1.255  0.1118  0.1033  2.2494
  337MOL0     H45435   7.505   3.791   1.208  0.5365  0.0766  1.1247
  337MOL0     H45436   7.343   3.681   1.389  0.3705 -0.2584  1.2976
  337MOL0     H45437   7.479   3.593   1.438 -0.4154  0.4434  0.4736
  337MOL0     H45438   7.515   3.771   1.589  3.0694  0.4853 -0.7721
  337MOL0     H45439   7.565   3.873   1.451 -2.0649  3.7063  0.3875
  337MOL0     H45440   7.282   3.850   1.541  0.4508 -2.4862 -2.6050
  337MOL0     H45441   7.398   3.975   1.579 -0.6872 -2.2809  2.3078
  337MOL0     H45442   7.302   3.880   1.298  1.9586 -2.4080  1.5932
  337MOL0     H45443   7.229   4.014   1.388  1.2456  1.0259  2.6975
  337MOL0     H45444   7.518   4.046   1.301 -0.7741 -0.9316 -1.1581
  337MOL0     H45445   7.393   4.173   1.335  5.1264  2.6866 -1.0156
  337MOL0     H45446   7.385   3.889   1.061  2.2312  0.8167  2.1877
  337MOL0     H45447   7.319   3.912   0.820  0.8060  0.6046  3.5430
  337MOL0     H45448   7.188   4.006   0.779  1.2651 -2.7752 -1.1744
  337MOL0     H45449   7.332   4.031   0.584 -1.6303  4.4946 -2.5168
  337MOL0     H45450   7.459   4.082   0.679 -0.3989 -2.3387 -0.5755
  337MOL0     H45451   7.361   4.266   0.746  1.9722 -1.1827 -0.2770
  337MOL0     H45452   7.198   4.220   0.696 -0.0996 -3.1866 -1.5893
  337MOL0     H45453   7.279   4.226   0.444 -0.1188 -1.2455  1.0743
  337MOL0     H45454   7.426   4.307   0.504 -0.7599 -1.1035 -2.0303
  337MOL0     H45455   7.116   4.584   0.626  0.5426 -2.3508  1.1217
  337MOL0     H45456   6.940   4.683   0.729 -3.5368  0.2901  2.8126
  337MOL0     H45457   6.856   4.734   0.572  1.9309 -0.9749 -2.0129
  337MOL0     H45458   6.780   4.631   0.705  0.2917 -0.5727 -0.7751
  337MOL0     H45459   6.501   4.461   0.641 -0.7335  1.0332  4.1919
  337MOL0     H45460   6.232   4.492   0.673 -3.1205  0.8468 -3.3710
  337MOL0     H45461   5.976   4.615   0.499  2.0084  2.2840 -1.3498
  337MOL0     H45462   6.050   4.529   0.618  0.9744  0.0065 -2.4493
  337MOL0     H45463   5.817   4.576   0.673  0.2976  0.5169  0.0963
  337MOL0     H45464   5.900   4.653   0.797  1.5743 -0.6247 -0.6594
  337MOL0     H45465   5.873   4.856   0.589 -5.2806  2.7313 -0.7842
  337MOL0     H45466   5.830   4.840   0.755  0.4670 -1.4365  0.9700
  337MOL0     H45467   5.669   4.742   0.511  1.2082  1.4401  0.6651
  337MOL0     H45468   5.615   4.695   0.670 -3.2575  0.5456 -1.1631
  337MOL0     H45469   5.621   5.002   0.607 -3.0713  0.3183 -2.9391
  337MOL0     H45470   5.551   4.915   0.735  0.5631 -1.3355 -0.2858
  337MOL0     H45471   5.472   4.868   0.454 -0.6927  0.3006 -0.7836
  337MOL0     H45472   5.402   4.792   0.602  1.3658 -1.1793 -1.4831
  337MOL0     H45473   5.390   5.051   0.667 -1.7953 -0.0177  1.1059
  337MOL0     H45474   5.244   4.956   0.635 -0.4170 -0.2276 -1.8918
  337MOL0     H45475   5.221   5.157   0.500  0.3740 -0.2377 -0.1136
  337MOL0     H45476   5.257   5.030   0.385 -0.2118  2.4071 -1.1458
  337MOL0     H45477   6.259   4.861   0.484  1.1034  0.7649 -1.0033
  337MOL0     H45478   6.494   4.824   0.428 -1.2526 -0.4664 -1.5947
  337MOL0     H45479   6.826   4.278   0.375  0.0293 -0.9006  0.6051
  337MOL0     H45480   7.065   4.227   0.396 -0.0635 -0.8596  1.5368
  337MOL0     H45481   7.583   3.933   0.863 -4.4768 -0.3923 -1.9397
  337MOL0     H45482   7.730   3.978   0.649  0.2976 -0.0869 -0.7497
  337MOL0     H45483   7.931   3.675   0.310  3.7984 -1.5614  0.5512
  337MOL0     H45484   8.000   3.669   0.064  0.2333  1.8500 -0.5793
  337MOL0     H45485   8.128   4.023  -0.163 -1.7737 -1.4169 -1.2999
  337MOL0     H45486   8.273   3.956  -0.085  0.5578 -2.0314 -0.1765
  337MOL0     H45487   8.302   3.919  -0.304  0.7066  0.0585  0.1879
  337MOL0     H45488   8.135   3.883  -0.337  1.8293  2.2578 -0.5539
  337MOL0     H45489   8.171   3.643  -0.237  1.0996 -1.9691 -0.8010
  337MOL0     H45490   8.322   3.704  -0.189 -0.8150  2.1172  0.5391
  337MOL0     H45491   8.355   3.745  -0.454  5.3012 -1.3772  0.7597
  337MOL0     H45492   8.232   3.630  -0.471 -0.3892  1.0645  0.1057
  337MOL0     H45493   8.513   3.358  -0.359  0.8283  0.8707  2.9458
  337MOL0     H45494   8.100   4.076   0.063  0.3433  1.8096  2.4450
  337MOL0     H45495   7.989   4.109   0.277 -2.0399  0.2347 -0.9609
  338MOL0     O45496   0.151   5.714  11.427  0.2865  0.2410 -0.1016
  338MOL0     C45497   0.130   5.609  11.367 -0.2640  1.0620  0.0889
  338MOL0     O45498   0.006   5.564  11.316  0.3008  0.1029  0.4251
  338MOL0     C45499  -0.082   5.661  11.288 -0.3266 -0.3678  0.4022
  338MOL0     C45500  -0.173   5.704  11.391  0.1271 -0.2059 -1.1187
  338MOL0     C45501  -0.259   5.814  11.373  0.2868  0.1987  0.0632
  338MOL0     C45502  -0.251   5.876  11.249  0.9396  0.2829  0.2734
  338MOL0     O45503  -0.331   5.986  11.228 -0.6844  0.0307 -0.0604
  338MOL0     C45504  -0.258   6.107  11.187 -1.4018 -0.1385 -1.2467
  338MOL0     C45505  -0.313   6.221  11.281 -0.1943 -0.1088  0.8370
  338MOL0     C45506  -0.458   6.252  11.256 -1.2739  0.3221 -0.2805
  338MOL0     C45507  -0.510   6.363  11.355  0.0267 -1.3136 -0.2561
  338MOL0     C45508  -0.619   6.453  11.286  0.0223  0.9050 -0.0739
  338MOL0     C45509  -0.727   6.368  11.217  1.2602  0.2724 -0.5958
  338MOL0     C45510  -0.840   6.462  11.164  0.0002  0.9232  0.0513
  338MOL0     C45511  -0.956   6.384  11.099  0.0842 -1.0701 -0.3155
  338MOL0     N45512  -0.903   6.330  10.980  0.4555  0.8905  0.3109
  338MOL0     C45513  -0.862   6.199  10.957  1.2897 -0.7202  0.5090
  338MOL0     C45514  -0.809   6.196  10.839  0.3841  0.2707 -0.1804
  338MOL0     C45515  -0.752   6.073  10.771 -0.8227  0.7125 -0.2211
  338MOL0     C45516  -0.600   6.068  10.791 -0.4700  0.4660 -0.5992
  338MOL0     C45517  -0.570   5.946  10.888 -0.2443  0.4609 -0.5157
  338MOL0     C45518  -0.595   5.814  10.830  0.8000  0.2059  0.3231
  338MOL0     O45519  -0.493   5.778  10.736  0.3295  0.6702  0.5611
  338MOL0     C45520  -0.395   5.684  10.761 -0.8018 -0.1484 -0.8759
  338MOL0     C45521  -0.332   5.633  10.653 -0.2918 -0.0328 -0.0366
  338MOL0     C45522  -0.240   5.539  10.676 -0.2674  0.7388  0.7344
  338MOL0     C45523  -0.189   5.476  10.548  0.4192 -0.4963 -0.3574
  338MOL0     C45524  -0.186   5.502  10.805  0.1584 -1.1126 -0.4401
  338MOL0     C45525  -0.075   5.416  10.838  0.7096 -0.1414 -0.4335
  338MOL0     O45526  -0.045   5.317  10.745  0.5646  0.2468 -0.3612
  338MOL0     C45527   0.048   5.218  10.760  0.2767  0.3862  0.5836
  338MOL0     C45528   0.163   5.223  10.822 -0.1493 -0.2772 -0.2792
  338MOL0     C45529   0.268   5.131  10.827  0.0164  1.0885  0.1228
  338MOL0     C45530   0.247   5.007  10.766 -0.2872 -0.5523 -0.2582
  338MOL0     O45531   0.316   4.886  10.791 -0.2496 -0.6751 -0.1102
  338MOL0     C45532   0.338   4.864  10.932  0.0813  0.8769 -0.1742
  338MOL0     C45533   0.413   4.724  10.946  0.6799 -0.0159  0.0107
  338MOL0     C45534   0.567   4.747  10.914 -0.3267 -0.0665  0.4950
  338MOL0     C45535   0.648   4.715  11.043  0.0103  0.1439  0.4439
  338MOL0     C45536   0.641   4.824  11.154  0.7831 -0.0344 -0.6341
  338MOL0     C45537   0.536   4.792  11.261 -0.2190  0.2399 -0.8475
  338MOL0     C45538   0.523   4.902  11.372  0.1835  0.1286 -0.9403
  338MOL0     C45539   0.642   4.952  11.460  0.1714 -0.7483 -0.2812
  338MOL0    Cl45540   0.569   5.048  11.589 -0.1826  0.3995 -0.2510
  338MOL0     C45541   0.130   4.995  10.690  0.2748  0.5938 -0.2321
  338MOL0     C45542   0.030   5.094  10.687 -0.2700 -0.8717 -0.6926
  338MOL0     O45543  -0.014   5.427  10.944  0.2748  0.0050  0.5044
  338MOL0     C45544  -0.258   5.545  10.915  0.7760 -0.9390 -0.7349
  338MOL0     C45545  -0.363   5.641  10.891 -0.6723  0.8296 -0.1047
  338MOL0     N45546  -0.811   6.315  10.778  0.1545  0.0503 -0.7103
  338MOL0     N45547  -0.859   6.401  10.872  0.5125 -0.0485  0.4009
  338MOL0     C45548  -0.175   5.830  11.143  0.2042  0.1562  0.1287
  338MOL0     C45549  -0.072   5.732  11.169 -0.2448 -0.3695 -0.5018
  338MOL0     C45550   0.246   5.519  11.339 -0.0902  0.2943  0.6020
  338MOL0     C45551   0.231   5.424  11.235 -0.1929 -0.0516 -1.2815
  338MOL0     C45552   0.347   5.353  11.201 -0.0836 -0.4756  0.9186
  338MOL0     C45553   0.469   5.367  11.266 -0.3265 -0.5504 -0.0549
  338MOL0     O45554   0.586   5.287  11.245  0.2970 -0.9272 -0.0926
  338MOL0     C45555   0.609   5.257  11.108  0.3008  0.3007 -0.0533
  338MOL0     C45556   0.759   5.233  11.094 -0.0287  0.3705  1.1043
  338MOL0     C45557   0.799   5.157  10.961 -0.1432 -1.0636 -0.2815
  338MOL0     C45558   0.944   5.132  10.952  0.7201  1.1186 -0.1149
  338MOL0     C45559   0.989   5.050  11.064 -0.8468 -0.3775 -0.4677
  338MOL0     C45560   1.000   4.967  11.148  0.6608 -0.0580  0.2978
  338MOL0     C45561   0.469   5.429  11.393 -0.4361  0.3409  0.1582
  338MOL0     C45562   0.361   5.513  11.419 -1.4845  0.8450  0.1377
  338MOL0     H45563  -0.169   5.669  11.494 -0.8332 -0.2150 -1.0783
  338MOL0     H45564  -0.313   5.866  11.452  2.6119  2.1491  0.5239
  338MOL0     H45565  -0.149   6.109  11.190 -1.3612  1.1612 -2.4264
  338MOL0     H45566  -0.290   6.128  11.085  0.6790  0.2686 -1.8637
  338MOL0     H45567  -0.302   6.181  11.382 -0.3982 -0.9268  0.5468
  338MOL0     H45568  -0.247   6.307  11.269  0.2870 -0.3376  1.7780
  338MOL0     H45569  -0.454   6.291  11.154 -1.5779  1.6222  0.1899
  338MOL0     H45570  -0.521   6.163  11.266  1.2892 -1.3580  2.9964
  338MOL0     H45571  -0.533   6.313  11.450 -1.5296 -1.8168 -0.8655
  338MOL0     H45572  -0.423   6.423  11.384  0.4543 -2.6149  1.3177
  338MOL0     H45573  -0.652   6.536  11.349  2.8988  2.4424 -0.3787
  338MOL0     H45574  -0.572   6.511  11.205 -0.7908 -1.8269 -2.6929
  338MOL0     H45575  -0.694   6.312  11.129  0.6993  2.7161 -2.5017
  338MOL0     H45576  -0.773   6.294  11.284  0.3314  1.5053  0.1741
  338MOL0     H45577  -0.888   6.508  11.252 -1.3582  1.6832 -1.0389
  338MOL0     H45578  -0.805   6.550  11.109 -0.7348  2.0203  1.2505
  338MOL0     H45579  -1.043   6.443  11.070  0.5934 -0.6273 -0.9699
  338MOL0     H45580  -0.988   6.299  11.160  0.5725 -0.1026  1.3423
  338MOL0     H45581  -0.882   6.114  11.021 -1.7376 -0.0389  0.6193
  338MOL0     H45582  -0.808   5.991  10.817 -1.2308  0.7635 -0.6147
  338MOL0     H45583  -0.771   6.068  10.663  1.0845  3.6874 -0.8076
  338MOL0     H45584  -0.571   6.164  10.835  2.1792 -1.5744  2.5913
  338MOL0     H45585  -0.547   6.061  10.696 -0.2771  2.7341 -0.6990
  338MOL0     H45586  -0.626   5.963  10.980  2.2735  2.0297  0.8523
  338MOL0     H45587  -0.465   5.937  10.918  0.4442  1.2014 -2.5209
  338MOL0     H45588  -0.693   5.813  10.783  0.4827  0.9721  0.9468
  338MOL0     H45589  -0.599   5.732  10.903 -0.5539 -0.4690 -0.4867
  338MOL0     H45590  -0.355   5.684  10.559  2.3209 -1.9388 -1.8539
  338MOL0     H45591  -0.082   5.483  10.527  0.5587 -0.6024  0.3017
  338MOL0     H45592  -0.213   5.370  10.561 -1.0698  0.0335  1.7214
  338MOL0     H45593  -0.241   5.518  10.461 -0.1833 -0.7536 -0.1238
  338MOL0     H45594   0.193   5.316  10.869  2.3655 -0.2899 -1.7233
  338MOL0     H45595   0.357   5.139  10.887  0.8184  1.4977 -1.0801
  338MOL0     H45596   0.407   4.942  10.967  2.8366 -0.1404 -2.8736
  338MOL0     H45597   0.236   4.860  10.971 -0.7990 -3.4012 -2.3104
  338MOL0     H45598   0.406   4.684  11.048  3.5700 -2.9424 -0.7503
  338MOL0     H45599   0.366   4.645  10.887 -1.6358 -0.0727  1.8041
  338MOL0     H45600   0.599   4.847  10.886  0.6584 -0.2310  0.9709
  338MOL0     H45601   0.600   4.687  10.829  3.1878  2.5034 -0.1712
  338MOL0     H45602   0.615   4.624  11.095  0.4572 -0.0277  0.4323
  338MOL0     H45603   0.752   4.700  11.011  0.7884  2.0779  1.8353
  338MOL0     H45604   0.617   4.923  11.115 -0.4842  0.0019  0.1620
  338MOL0     H45605   0.740   4.824  11.200  0.8655 -1.5713 -0.7493
  338MOL0     H45606   0.430   4.779  11.240 -1.4822  1.1577  3.7466
  338MOL0     H45607   0.565   4.696  11.303  0.5373  0.2164 -1.4121
  338MOL0     H45608   0.458   4.869  11.453 -0.4082 -2.0426 -2.2117
  338MOL0     H45609   0.472   4.991  11.333  0.2251  1.0225  0.9212
  338MOL0     H45610   0.714   5.021  11.414 -0.9356  3.6681  3.8334
  338MOL0     H45611   0.692   4.863  11.501  1.8451 -0.0625 -0.7298
  338MOL0     H45612   0.107   4.907  10.630 -0.2729  0.5426  0.0480
  338MOL0     H45613  -0.048   5.107  10.612 -1.0671 -0.3476  0.2051
  338MOL0     H45614  -0.231   5.525  11.019  0.6405  0.2171 -0.4655
  338MOL0     H45615  -0.417   5.672  10.980 -2.1743 -2.0449  0.1325
  338MOL0     H45616  -0.168   5.885  11.050  2.3691 -1.5744 -0.8372
  338MOL0     H45617   0.013   5.721  11.102  0.8664  3.7099 -0.0029
  338MOL0     H45618   0.147   5.419  11.166 -2.3758 -0.1673  1.2278
  338MOL0     H45619   0.360   5.303  11.105 -0.4275  1.6674 -0.3098
  338MOL0     H45620   0.548   5.167  11.093  1.2432 -0.6954  1.6847
  338MOL0     H45621   0.587   5.333  11.032  0.1588  1.8330  1.4394
  338MOL0     H45622   0.781   5.171  11.181 -0.2372  0.0451  0.9289
  338MOL0     H45623   0.822   5.320  11.108 -0.7868  0.7433  2.3707
  338MOL0     H45624   0.780   5.218  10.871 -0.1144 -0.0823  0.3664
  338MOL0     H45625   0.750   5.059  10.950 -1.0463 -0.5773 -0.7235
  338MOL0     H45626   0.993   5.229  10.955  2.6054  0.2037  0.9025
  338MOL0     H45627   0.969   5.087  10.856  1.2075 -1.5745  1.1597
  338MOL0     H45628   0.999   4.887  11.219  1.5687 -0.1062  0.2589
  338MOL0     H45629   0.555   5.427  11.459 -1.5013  0.4381  1.5945
  338MOL0     H45630   0.359   5.570  11.511 -1.5196 -1.4131  1.6297
  339MOL0     O45631   4.292   8.788   7.800  0.3855 -0.6399  0.2073
  339MOL0     C45632   4.312   8.739   7.911 -0.6038  0.4471 -0.4347
  339MOL0     O45633   4.425   8.737   7.970  0.0909  0.0040  0.9699
  339MOL0     C45634   4.543   8.763   7.905 -0.1481  0.4499  0.2971
  339MOL0     C45635   4.561   8.742   7.764  0.3469  0.1867  0.3528
  339MOL0     C45636   4.684   8.767   7.714 -0.4329  0.6444 -0.5514
  339MOL0     C45637   4.785   8.822   7.793 -0.5768  0.2844 -0.2079
  339MOL0     O45638   4.900   8.859   7.732 -0.3646 -0.1434 -0.8572
  339MOL0     C45639   4.991   8.746   7.728  1.3934 -0.6794 -0.8212
  339MOL0     C45640   5.114   8.799   7.672 -0.4951 -0.7688  0.0473
  339MOL0     C45641   5.206   8.864   7.777  0.1891  0.1339 -0.6165
  339MOL0     C45642   5.232   9.007   7.730  0.4555 -0.0846  0.5528
  339MOL0     C45643   5.345   9.076   7.825  0.8895 -0.2653  0.0743
  339MOL0     C45644   5.327   9.056   7.972  0.9951  0.1371 -0.4799
  339MOL0     C45645   5.387   8.936   8.039  0.6487  0.1249  0.0997
  339MOL0     C45646   5.378   8.946   8.190 -0.1123  0.6509  0.3005
  339MOL0     N45647   5.244   8.976   8.238 -0.1743  0.0188  0.3506
  339MOL0     C45648   5.163   8.890   8.313 -0.1513 -0.0629 -0.3706
  339MOL0     C45649   5.055   8.965   8.352  0.1884  1.1107  0.1845
  339MOL0     C45650   4.926   8.912   8.422  0.2012 -0.2056  0.4666
  339MOL0     C45651   4.897   8.763   8.446 -0.5610 -0.6295 -0.1064
  339MOL0     C45652   4.769   8.740   8.528  1.0421 -0.0544  0.8143
  339MOL0     C45653   4.755   8.593   8.574  0.0222  0.5553 -0.9507
  339MOL0     O45654   4.661   8.592   8.685 -0.1105  0.3546 -0.2020
  339MOL0     C45655   4.677   8.496   8.785 -0.6005 -0.8674 -0.1146
  339MOL0     C45656   4.631   8.369   8.775  0.3980 -0.4404  0.0149
  339MOL0     C45657   4.619   8.278   8.889  0.3823 -0.3661 -0.8618
  339MOL0     C45658   4.578   8.136   8.869  0.3597  0.2349  0.6912
  339MOL0     C45659   4.641   8.336   9.017  0.0702 -1.1476 -0.7479
  339MOL0     C45660   4.628   8.261   9.145  0.2214  0.0014 -0.0898
  339MOL0     O45661   4.691   8.312   9.252  0.5466 -0.3538  0.0921
  339MOL0     C45662   4.712   8.247   9.366  0.6057 -0.6821  0.8951
  339MOL0     C45663   4.609   8.218   9.456  0.6786  0.2055 -0.7191
  339MOL0     C45664   4.637   8.147   9.578 -0.2131 -0.1831 -0.7170
  339MOL0     C45665   4.769   8.112   9.606 -0.6759  0.2628  0.0288
  339MOL0     O45666   4.800   8.067   9.733 -0.1329 -0.0333  0.3284
  339MOL0     C45667   4.926   8.100   9.791 -1.1229  0.1143 -0.4830
  339MOL0     C45668   5.031   7.992   9.756  0.1820 -0.4306  0.3434
  339MOL0     C45669   5.164   8.044   9.800 -0.9084  0.5167 -0.3505
  339MOL0     C45670   5.223   8.149   9.708  0.0629 -0.2577  0.3627
  339MOL0     C45671   5.371   8.151   9.716 -0.0590  0.1909 -0.0235
  339MOL0     C45672   5.429   8.237   9.605  0.5971 -0.9155 -0.5161
  339MOL0     C45673   5.580   8.246   9.602 -0.4331  0.9327 -0.2324
  339MOL0     C45674   5.657   8.129   9.661 -0.0398  0.6759 -0.8431
  339MOL0    Cl45675   5.616   7.971   9.574 -0.0601 -0.0430  0.5666
  339MOL0     C45676   4.875   8.136   9.508  0.0844 -0.4192  0.6505
  339MOL0     C45677   4.835   8.202   9.390 -0.6635 -0.2797 -0.0937
  339MOL0     O45678   4.592   8.146   9.135  1.1290  0.2319  0.5072
  339MOL0     C45679   4.683   8.474   9.029 -0.1239  0.7285 -0.3751
  339MOL0     C45680   4.699   8.544   8.913  0.2447  0.0510 -0.0787
  339MOL0     N45681   5.078   9.096   8.296  0.0720  1.0161  0.1331
  339MOL0     N45682   5.191   9.100   8.239  0.7535 -0.2918 -0.9862
  339MOL0     C45683   4.770   8.846   7.928 -0.0083  0.3558  0.8008
  339MOL0     C45684   4.649   8.807   7.981 -0.1103 -0.6157  0.6225
  339MOL0     C45685   4.192   8.676   7.971 -0.1688 -0.6448 -0.4658
  339MOL0     C45686   4.206   8.596   8.099  0.2690  0.5909 -1.4589
  339MOL0     C45687   4.090   8.529   8.146  0.6884  0.4759 -0.2536
  339MOL0     C45688   3.970   8.526   8.076 -0.6720 -0.0127  0.8772
  339MOL0     O45689   3.865   8.462   8.130  0.1296  0.5227 -0.0044
  339MOL0     C45690   3.768   8.559   8.185 -0.9822  0.2979 -0.2953
  339MOL0     C45691   3.812   8.618   8.319 -0.0175  0.2640 -0.3995
  339MOL0     C45692   3.848   8.531   8.439  0.0474  0.3908  0.2026
  339MOL0     C45693   3.733   8.426   8.464  0.8158  0.6987  0.1664
  339MOL0     C45694   3.770   8.294   8.513  0.4997 -0.6132  0.0055
  339MOL0     C45695   3.811   8.184   8.551 -0.0889  0.1546  0.2421
  339MOL0     C45696   3.961   8.596   7.960 -0.6362 -0.6436  0.0205
  339MOL0     C45697   4.062   8.679   7.908 -0.3651 -0.1733  0.1642
  339MOL0     H45698   4.487   8.701   7.696 -1.8203  3.7885  0.3217
  339MOL0     H45699   4.705   8.730   7.614 -1.6294  0.2052 -0.6474
  339MOL0     H45700   5.021   8.703   7.824  0.3650 -0.5286 -0.4145
  339MOL0     H45701   4.953   8.665   7.664 -1.7610  0.5153 -0.6294
  339MOL0     H45702   5.158   8.706   7.635  3.3737  1.0992 -0.6179
  339MOL0     H45703   5.098   8.873   7.594  0.0754 -1.6378 -0.9243
  339MOL0     H45704   5.153   8.861   7.873  0.6700  0.5042 -0.3326
  339MOL0     H45705   5.298   8.806   7.777 -1.0102 -1.8843 -1.7978
  339MOL0     H45706   5.270   9.003   7.627  2.2007 -0.0881  1.1542
  339MOL0     H45707   5.137   9.058   7.745  1.0454  0.8221  1.3410
  339MOL0     H45708   5.436   9.020   7.800 -0.6933 -2.9799  0.0901
  339MOL0     H45709   5.351   9.184   7.809  2.4017 -0.4723 -0.9680
  339MOL0     H45710   5.377   9.132   8.034  0.7695 -1.4724  1.7554
  339MOL0     H45711   5.221   9.058   7.995  0.9672  0.2190 -0.6123
  339MOL0     H45712   5.337   8.842   8.012  1.0957 -0.2671  0.5963
  339MOL0     H45713   5.492   8.911   8.019  0.5107 -2.0735  1.6840
  339MOL0     H45714   5.443   9.032   8.212  2.1222 -0.9215  0.1784
  339MOL0     H45715   5.416   8.856   8.239  0.7682  0.5962 -0.4426
  339MOL0     H45716   5.178   8.786   8.342  0.3050  0.3237  0.8685
  339MOL0     H45717   4.931   8.962   8.519 -1.1922  4.0614 -1.4003
  339MOL0     H45718   4.846   8.950   8.358 -0.4072 -2.0160  0.1193
  339MOL0     H45719   4.984   8.732   8.505  0.4900  2.5327  0.2137
  339MOL0     H45720   4.887   8.715   8.349 -1.1354 -0.4839 -0.1228
  339MOL0     H45721   4.673   8.762   8.480  0.6410 -1.3934  0.9700
  339MOL0     H45722   4.782   8.809   8.612 -0.4616  1.1003  0.1456
  339MOL0     H45723   4.850   8.551   8.609 -1.9843 -0.8042  3.6134
  339MOL0     H45724   4.723   8.527   8.492  0.3693 -0.8489  0.0159
  339MOL0     H45725   4.600   8.337   8.676  1.3870  0.4469 -0.5983
  339MOL0     H45726   4.551   8.116   8.765 -0.7144 -1.2222  1.2174
  339MOL0     H45727   4.649   8.065   8.912 -0.7839  0.4227  3.0210
  339MOL0     H45728   4.479   8.132   8.914  0.1684 -0.2433  0.2336
  339MOL0     H45729   4.509   8.252   9.429  0.9951  2.1910  0.3867
  339MOL0     H45730   4.560   8.113   9.646 -1.2981  0.3264 -1.6571
  339MOL0     H45731   4.960   8.200   9.764  1.1544 -0.7819 -1.1520
  339MOL0     H45732   4.917   8.094   9.900 -0.9218 -0.9337 -0.5139
  339MOL0     H45733   5.021   7.898   9.811 -0.6140  0.2914  1.4761
  339MOL0     H45734   5.029   7.960   9.651 -0.8833 -1.1810  0.5720
  339MOL0     H45735   5.228   7.955   9.798 -0.5945  0.6599  1.5339
  339MOL0     H45736   5.163   8.087   9.901 -0.2256  1.6285 -0.8123
  339MOL0     H45737   5.203   8.125   9.603  0.5845 -2.8712  0.7907
  339MOL0     H45738   5.163   8.237   9.731  0.1169 -0.5275  1.5853
  339MOL0     H45739   5.400   8.047   9.700 -0.7267  0.0890 -0.5905
  339MOL0     H45740   5.413   8.180   9.813 -0.0628  1.7724 -0.4522
  339MOL0     H45741   5.396   8.191   9.511  1.3811 -0.8418 -0.8356
  339MOL0     H45742   5.388   8.338   9.616  0.0450 -1.0617 -1.1628
  339MOL0     H45743   5.601   8.342   9.650  0.0918  1.2901 -1.1501
  339MOL0     H45744   5.605   8.249   9.495 -0.2049 -0.8726 -0.2570
  339MOL0     H45745   5.631   8.121   9.767 -0.8996 -1.3879 -1.1714
  339MOL0     H45746   5.765   8.145   9.648 -0.1503 -0.7436 -4.8489
  339MOL0     H45747   4.979   8.113   9.531  1.0841  1.6426 -1.3930
  339MOL0     H45748   4.907   8.230   9.314 -0.8341  2.4974  0.6481
  339MOL0     H45749   4.702   8.525   9.123 -1.6602 -0.6583  0.7567
  339MOL0     H45750   4.729   8.648   8.916 -0.9118  0.3887  0.1652
  339MOL0     H45751   4.846   8.891   7.991  0.5544 -1.0804  1.2005
  339MOL0     H45752   4.640   8.834   8.086  0.3345  2.5923 -0.0631
  339MOL0     H45753   4.303   8.574   8.142 -0.4741 -0.0495 -0.0598
  339MOL0     H45754   4.097   8.480   8.243  1.8310 -1.1919 -1.1359
  339MOL0     H45755   3.749   8.645   8.120 -0.1847  1.1373  0.5413
  339MOL0     H45756   3.670   8.510   8.192 -1.4150  0.6294 -3.0519
  339MOL0     H45757   3.727   8.679   8.353  1.4540  2.6431 -0.7516
  339MOL0     H45758   3.882   8.702   8.312 -1.7038  2.1429  2.7485
  339MOL0     H45759   3.875   8.586   8.530  0.0640 -1.7457  1.5805
  339MOL0     H45760   3.934   8.471   8.408 -0.5049 -0.2615 -0.1033
  339MOL0     H45761   3.684   8.406   8.368  1.1309  0.3613  0.0725
  339MOL0     H45762   3.660   8.471   8.532 -0.1521 -0.2311 -0.2281
  339MOL0     H45763   3.853   8.092   8.585  1.6573  1.0977  0.7466
  339MOL0     H45764   3.860   8.595   7.918 -0.9879  0.6942  0.7704
  339MOL0     H45765   4.040   8.731   7.815 -1.0875 -0.3363  0.2378
  340MOL0     O45766   8.695  11.295   4.653 -0.5078 -0.9638 -0.0895
  340MOL0     C45767   8.693  11.176   4.640  0.3352  0.2339 -0.5041
  340MOL0     O45768   8.605  11.093   4.705  0.3064 -0.2473 -0.3803
  340MOL0     C45769   8.484  11.131   4.766 -0.4838 -0.2655 -1.0789
  340MOL0     C45770   8.404  11.237   4.732  0.7239 -0.0784  0.2385
  340MOL0     C45771   8.281  11.271   4.791  0.7751  0.1589  0.5605
  340MOL0     C45772   8.255  11.206   4.915  0.1232  0.1780  0.3783
  340MOL0     O45773   8.159  11.258   4.992 -0.4137  0.1906  0.1120
  340MOL0     C45774   8.205  11.304   5.120  0.3675 -0.4622  0.2102
  340MOL0     C45775   8.094  11.318   5.227  0.0032  0.2247 -0.6540
  340MOL0     C45776   7.994  11.427   5.195  0.7870  0.8437  0.4697
  340MOL0     C45777   7.920  11.487   5.311  0.5168  0.0622 -0.4230
  340MOL0     C45778   8.016  11.573   5.404  0.0844 -0.3394 -0.9382
  340MOL0     C45779   7.952  11.658   5.516  0.3506 -0.9279 -0.7795
  340MOL0     C45780   7.911  11.586   5.647 -0.6905  1.4258 -0.6222
  340MOL0     C45781   7.774  11.529   5.636 -0.4717  1.1030 -0.6801
  340MOL0     N45782   7.660  11.619   5.610  0.3670 -0.3316 -0.2735
  340MOL0     C45783   7.568  11.604   5.520  0.3566  0.2248  0.5869
  340MOL0     C45784   7.469  11.702   5.543  0.3440  0.3204 -0.2077
  340MOL0     C45785   7.339  11.726   5.477 -0.1089 -0.2083 -0.0416
  340MOL0     C45786   7.344  11.867   5.411  0.2699  0.2604  0.3357
  340MOL0     C45787   7.204  11.898   5.354 -0.3001  0.0135 -0.3084
  340MOL0     C45788   7.190  12.043   5.308  0.4467  0.1287  0.3855
  340MOL0     O45789   7.238  12.056   5.179  0.6735  0.4336 -0.0076
  340MOL0     C45790   7.295  12.171   5.150  0.3011  0.0903  0.9309
  340MOL0     C45791   7.219  12.274   5.102  0.5766 -0.5946 -0.0200
  340MOL0     C45792   7.274  12.391   5.045  0.1882  0.3296 -0.6937
  340MOL0     C45793   7.183  12.490   4.968  0.0477  0.2471 -1.2427
  340MOL0     C45794   7.420  12.403   5.038 -0.1719  0.4733 -0.1409
  340MOL0     C45795   7.496  12.520   4.978 -0.2148 -0.7803 -0.1267
  340MOL0     O45796   7.630  12.521   4.991 -0.0058  1.0865 -0.0381
  340MOL0     C45797   7.717  12.624   4.971  0.4480  0.8996  0.0480
  340MOL0     C45798   7.838  12.603   5.030 -1.3587  1.3517  0.5437
  340MOL0     C45799   7.920  12.717   5.059 -0.1296 -0.2682 -0.6079
  340MOL0     C45800   7.886  12.844   5.014  0.3904 -0.6773  0.8622
  340MOL0     O45801   7.974  12.943   5.050 -1.1216  0.1233  0.0450
  340MOL0     C45802   8.028  13.031   4.945  0.2641  0.4907  0.3730
  340MOL0     C45803   8.130  12.946   4.859 -0.4459  0.2043 -0.6567
  340MOL0     C45804   8.275  12.962   4.914  0.0832 -0.5568 -0.3143
  340MOL0     C45805   8.369  12.871   4.850  0.0405 -0.3970 -0.3778
  340MOL0     C45806   8.509  12.873   4.897  0.7163 -0.0977 -0.6038
  340MOL0     C45807   8.587  13.007   4.903 -0.0472  0.0487 -0.1957
  340MOL0     C45808   8.730  12.980   4.965 -0.2333  0.1328 -0.1519
  340MOL0     C45809   8.823  12.927   4.858  0.5804 -0.3044  0.1691
  340MOL0    Cl45810   8.838  13.017   4.706  0.2451  0.5058 -0.1305
  340MOL0     C45811   7.773  12.862   4.931 -0.8758 -0.4835  0.6490
  340MOL0     C45812   7.686  12.754   4.922  0.6317 -0.1696 -0.4704
  340MOL0     O45813   7.437  12.619   4.941 -0.2287  0.2827  0.2359
  340MOL0     C45814   7.503  12.292   5.084  0.0656 -0.3176  1.3687
  340MOL0     C45815   7.440  12.181   5.140 -0.4189 -0.2026  0.4984
  340MOL0     N45816   7.500  11.769   5.663  0.6645 -0.0637  0.2170
  340MOL0     N45817   7.599  11.704   5.706 -0.0278 -0.1601 -0.4323
  340MOL0     C45818   8.321  11.099   4.955  0.2717 -1.0321  1.0588
  340MOL0     C45819   8.441  11.061   4.884 -0.0227 -0.2240 -0.4691
  340MOL0     C45820   8.804  11.122   4.567 -1.3343  0.8402 -0.5009
  340MOL0     C45821   8.940  11.180   4.572  0.5474 -0.0099 -0.2862
  340MOL0     C45822   9.052  11.113   4.519 -0.3154  1.2107 -0.3118
  340MOL0     C45823   9.032  10.986   4.456  0.5180  0.5095  0.4341
  340MOL0     O45824   9.131  10.902   4.406 -0.3328 -0.3843  0.2670
  340MOL0     C45825   9.269  10.944   4.415  0.3677  1.2358 -0.4146
  340MOL0     C45826   9.307  11.053   4.307  0.3676  0.6926  0.5972
  340MOL0     C45827   9.438  11.121   4.363  0.4406  0.5079  0.1233
  340MOL0     C45828   9.464  11.246   4.278 -0.2616  0.0115  0.2395
  340MOL0     C45829   9.491  11.211   4.137 -0.8296 -0.0221  0.0815
  340MOL0     C45830   9.499  11.190   4.015 -0.1407  0.8954 -0.2880
  340MOL0     C45831   8.903  10.937   4.444 -0.1426 -0.1356 -0.7990
  340MOL0     C45832   8.788  10.998   4.498  0.0536  0.7319  1.1628
  340MOL0     H45833   8.443  11.287   4.644 -1.4481  0.6774 -0.3659
  340MOL0     H45834   8.227  11.353   4.745 -1.1780 -2.8671 -3.0938
  340MOL0     H45835   8.280  11.233   5.158 -1.0207 -1.0568  1.9673
  340MOL0     H45836   8.260  11.399   5.113 -1.1004  0.6117  2.1622
  340MOL0     H45837   8.037  11.225   5.236 -0.5911  0.8301  3.7822
  340MOL0     H45838   8.149  11.351   5.316  0.7329 -0.9077 -0.6683
  340MOL0     H45839   8.037  11.510   5.139 -1.3831  1.0257 -1.0377
  340MOL0     H45840   7.925  11.369   5.133  1.6094 -2.7635  2.5877
  340MOL0     H45841   7.854  11.564   5.268  1.6170  0.9939 -0.5057
  340MOL0     H45842   7.857  11.412   5.359 -0.3051  1.6539  1.1407
  340MOL0     H45843   8.093  11.509   5.447 -0.3819 -0.1218  0.2544
  340MOL0     H45844   8.061  11.654   5.346 -2.6558  2.4522  0.5166
  340MOL0     H45845   8.015  11.745   5.539 -2.7899  0.9109  1.7099
  340MOL0     H45846   7.871  11.703   5.458 -0.3241 -1.9713 -0.6576
  340MOL0     H45847   7.982  11.507   5.671  0.2768  3.0888  2.6186
  340MOL0     H45848   7.908  11.648   5.737 -1.6719  0.3754  0.0866
  340MOL0     H45849   7.756  11.483   5.734 -0.6202  2.9362  0.1912
  340MOL0     H45850   7.768  11.449   5.561 -2.5901 -0.0122  0.5736
  340MOL0     H45851   7.580  11.539   5.434 -2.2481 -2.2449  1.9607
  340MOL0     H45852   7.304  11.643   5.416 -1.2352  0.6198 -0.5685
  340MOL0     H45853   7.256  11.728   5.547  0.4205 -0.7130  0.6142
  340MOL0     H45854   7.415  11.864   5.328  2.0651 -2.8158  1.8118
  340MOL0     H45855   7.382  11.946   5.476 -0.5394  1.9450 -1.1455
  340MOL0     H45856   7.131  11.874   5.433 -4.1324 -0.1701 -3.5732
  340MOL0     H45857   7.182  11.823   5.278  3.4503 -1.1239 -0.4726
  340MOL0     H45858   7.239  12.119   5.369 -0.4348  0.4386  0.7275
  340MOL0     H45859   7.082  12.064   5.302  0.8156  1.9524 -0.6341
  340MOL0     H45860   7.111  12.259   5.110  0.5481 -0.1507  0.4244
  340MOL0     H45861   7.196  12.485   4.860  1.3221 -1.8968 -1.0498
  340MOL0     H45862   7.077  12.467   4.985 -0.0397  2.9759  4.0914
  340MOL0     H45863   7.201  12.592   5.004  0.8218  0.9648 -3.4971
  340MOL0     H45864   7.864  12.507   5.074 -2.1985  2.0885  2.8004
  340MOL0     H45865   8.011  12.712   5.118  0.6504 -1.5510 -1.8307
  340MOL0     H45866   7.939  13.059   4.888  0.2645  2.4845  1.2566
  340MOL0     H45867   8.076  13.125   4.975  0.6926  0.2966  0.3130
  340MOL0     H45868   8.091  12.843   4.860 -2.8733  1.0500  0.5432
  340MOL0     H45869   8.126  12.987   4.758  2.6186  2.8640  0.1507
  340MOL0     H45870   8.279  12.942   5.021  1.1432 -1.7017 -0.5416
  340MOL0     H45871   8.297  13.069   4.906  1.8299 -0.8796 -0.1569
  340MOL0     H45872   8.332  12.769   4.864 -0.0893 -0.3131 -0.0824
  340MOL0     H45873   8.370  12.875   4.741 -0.3518 -2.8770 -0.5324
  340MOL0     H45874   8.573  12.806   4.838  1.3428  2.3002 -2.8294
  340MOL0     H45875   8.511  12.827   4.997 -0.0332  2.2988  0.5886
  340MOL0     H45876   8.598  13.052   4.803 -0.6307 -0.4978 -0.5093
  340MOL0     H45877   8.530  13.076   4.966  0.9938 -0.3127  1.1976
  340MOL0     H45878   8.718  12.914   5.052 -1.7798  0.2677 -0.2215
  340MOL0     H45879   8.777  13.073   4.997 -1.4957  0.7933 -0.1330
  340MOL0     H45880   8.775  12.836   4.822 -2.5034  1.1789  0.2461
  340MOL0     H45881   8.923  12.899   4.892  0.4120  0.6264  1.5351
  340MOL0     H45882   7.757  12.959   4.885  0.4319 -1.1646 -1.3942
  340MOL0     H45883   7.590  12.782   4.879 -0.3542  1.2584  2.3651
  340MOL0     H45884   7.611  12.295   5.081  0.0534  3.1497 -0.0418
  340MOL0     H45885   7.502  12.105   5.185  3.2097  1.6880 -0.9564
  340MOL0     H45886   8.290  11.047   5.045  0.9084 -2.7832  0.3037
  340MOL0     H45887   8.500  10.979   4.924 -1.7606 -0.9684  0.6824
  340MOL0     H45888   8.939  11.268   4.636 -2.2360 -1.0500  1.2717
  340MOL0     H45889   9.150  11.154   4.541 -0.7338  1.1133  2.0150
  340MOL0     H45890   9.285  10.982   4.516 -1.7055 -3.2910  1.9183
  340MOL0     H45891   9.324  10.853   4.389 -1.2389  0.9369 -3.2486
  340MOL0     H45892   9.230  11.128   4.289 -0.1753  0.2374  0.9707
  340MOL0     H45893   9.318  11.001   4.212  2.7119 -0.5200  1.4529
  340MOL0     H45894   9.514  11.042   4.357 -1.8111 -1.7661  0.0708
  340MOL0     H45895   9.435  11.158   4.466 -0.9891  2.1982 -0.4879
  340MOL0     H45896   9.557  11.295   4.310  0.4472 -0.2882 -1.3127
  340MOL0     H45897   9.378  11.313   4.278 -2.6860 -2.8907 -0.0740
  340MOL0     H45898   9.533  11.187   3.914  1.8278 -0.1109  0.3518
  340MOL0     H45899   8.870  10.841   4.404  0.9244 -1.3924  1.1401
  340MOL0     H45900   8.692  10.956   4.470  1.5047 -0.5148 -2.5923
  341MOL0     O45901   5.192   6.024   1.937  0.1989  0.2449  0.5569
  341MOL0     C45902   5.292   5.988   1.872 -0.2862  0.0818  0.1471
  341MOL0     O45903   5.296   5.883   1.788 -0.1846  0.0773  0.3865
  341MOL0     C45904   5.176   5.851   1.734  0.2696 -0.8556  0.9218
  341MOL0     C45905   5.113   5.723   1.736 -1.4629  0.3361 -0.2773
  341MOL0     C45906   4.983   5.714   1.682  0.0058  0.3072  0.5414
  341MOL0     C45907   4.918   5.810   1.609  0.0049  0.2510 -0.0818
  341MOL0     O45908   4.789   5.801   1.568  0.3231 -0.3773  0.0942
  341MOL0     C45909   4.754   5.695   1.467  0.5747 -0.2963 -0.4486
  341MOL0     C45910   4.613   5.723   1.426 -0.2707 -1.0798 -0.5204
  341MOL0     C45911   4.589   5.861   1.351 -0.0398  0.9638 -0.1389
  341MOL0     C45912   4.427   5.870   1.330  0.5540  0.2056  0.1210
  341MOL0     C45913   4.378   5.978   1.230  0.0271 -0.5988 -0.6167
  341MOL0     C45914   4.430   6.122   1.267 -0.8855 -0.6815 -0.3142
  341MOL0     C45915   4.362   6.230   1.188 -1.1824 -0.0534 -0.2217
  341MOL0     C45916   4.455   6.282   1.074 -0.3659  0.3197 -0.6096
  341MOL0     N45917   4.378   6.360   0.973 -0.3933  0.4677  0.8216
  341MOL0     C45918   4.334   6.491   0.999 -0.5356 -0.3131  0.0470
  341MOL0     C45919   4.270   6.526   0.884  0.5206  0.9197  0.7718
  341MOL0     C45920   4.209   6.658   0.849  1.7408 -0.4762 -0.8200
  341MOL0     C45921   4.290   6.727   0.738 -1.2301  0.5430 -0.2828
  341MOL0     C45922   4.235   6.871   0.697 -0.1838 -0.3794 -0.9640
  341MOL0     C45923   4.156   6.864   0.573 -0.1276  1.0845 -0.2824
  341MOL0     O45924   4.129   6.999   0.543 -0.0326  0.0999 -0.4992
  341MOL0     C45925   4.045   7.028   0.439  0.0302 -0.6890  0.3888
  341MOL0     C45926   4.069   6.983   0.311  0.1931  0.2753  0.1868
  341MOL0     C45927   3.988   7.015   0.207 -0.5170 -0.1340  0.2933
  341MOL0     C45928   4.042   6.988   0.073 -0.4750  0.1331 -0.6590
  341MOL0     C45929   3.870   7.093   0.237 -0.2521 -0.1025  0.1484
  341MOL0     C45930   3.775   7.140   0.134 -0.0365 -0.4671 -1.2031
  341MOL0     O45931   3.689   7.240   0.174  0.7176  0.7470  0.3158
  341MOL0     C45932   3.589   7.273   0.079 -0.8468 -0.1937  0.4159
  341MOL0     C45933   3.550   7.411   0.080 -0.3037 -0.4543 -1.2818
  341MOL0     C45934   3.457   7.443  -0.018  0.4440  0.0468 -0.2269
  341MOL0     C45935   3.384   7.354  -0.104  0.3838  0.8152  0.2389
  341MOL0     O45936   3.303   7.403  -0.206 -0.2078 -0.4111 -0.0858
  341MOL0     C45937   3.246   7.315  -0.306 -0.0561  0.0723  0.4395
  341MOL0     C45938   3.335   7.287  -0.426  0.5904  0.4067 -0.2128
  341MOL0     C45939   3.340   7.394  -0.527  0.6885  0.4875  0.7614
  341MOL0     C45940   3.404   7.338  -0.657 -0.2893  1.0555 -0.1035
  341MOL0     C45941   3.432   7.453  -0.749  0.1448 -0.7647 -0.0816
  341MOL0     C45942   3.576   7.502  -0.728 -0.4196  0.3286  0.4672
  341MOL0     C45943   3.592   7.648  -0.769  0.0624  0.5006  0.0586
  341MOL0     C45944   3.732   7.718  -0.760  0.6584  0.6593 -0.3520
  341MOL0    Cl45945   3.778   7.729  -0.588 -0.0517 -0.2127  0.4799
  341MOL0     C45946   3.423   7.223  -0.088 -0.5803 -0.3852 -0.7117
  341MOL0     C45947   3.514   7.176  -0.001 -0.9123 -1.1688  0.8689
  341MOL0     O45948   3.769   7.069   0.031 -0.4337  0.4221  0.1948
  341MOL0     C45949   3.851   7.143   0.363  0.3524  0.1115  0.2343
  341MOL0     C45950   3.943   7.116   0.464 -0.2561  0.2088  0.1184
  341MOL0     N45951   4.289   6.420   0.788  0.4607 -0.3262 -0.8936
  341MOL0     N45952   4.351   6.321   0.839 -1.1509 -0.2303  0.5489
  341MOL0     C45953   4.983   5.933   1.595  0.6413  0.2001 -0.0822
  341MOL0     C45954   5.106   5.951   1.661  0.4578  0.3309  0.5106
  341MOL0     C45955   5.413   6.068   1.886  0.3500  1.0856  0.2381
  341MOL0     C45956   5.402   6.200   1.946  0.1222 -0.1155  0.1034
  341MOL0     C45957   5.516   6.276   1.981  0.9527 -0.0478  0.2624
  341MOL0     C45958   5.643   6.224   1.955  0.0525  0.0764 -0.5913
  341MOL0     O45959   5.757   6.295   1.976 -0.6530 -0.5190  1.2209
  341MOL0     C45960   5.820   6.381   1.877 -1.0725  0.5849 -0.7572
  341MOL0     C45961   5.727   6.448   1.772 -0.3829 -1.1332  0.5262
  341MOL0     C45962   5.792   6.518   1.644  1.4303  0.4833  0.1858
  341MOL0     C45963   5.669   6.561   1.552 -0.1225  0.2444 -0.1777
  341MOL0     C45964   5.727   6.620   1.422 -0.8333 -0.0164  0.4425
  341MOL0     C45965   5.792   6.656   1.322  0.9048  0.2004  0.1802
  341MOL0     C45966   5.660   6.106   1.889 -0.6337 -0.0448  0.5530
  341MOL0     C45967   5.549   6.029   1.862 -0.0364 -0.1956 -0.1480
  341MOL0     H45968   5.155   5.637   1.785  0.5007  0.7677 -1.1321
  341MOL0     H45969   4.921   5.625   1.686  1.3277 -0.7981 -1.8886
  341MOL0     H45970   4.818   5.696   1.378  1.7062 -0.5739  0.3523
  341MOL0     H45971   4.762   5.591   1.500  0.3544 -0.0941  0.2660
  341MOL0     H45972   4.589   5.641   1.357 -0.4698 -1.4103 -0.0606
  341MOL0     H45973   4.560   5.720   1.521  4.9126 -0.8762  2.7177
  341MOL0     H45974   4.626   5.943   1.413  1.9457 -0.7783  1.1297
  341MOL0     H45975   4.638   5.858   1.253  2.0317 -2.3331  0.8321
  341MOL0     H45976   4.405   5.783   1.269  4.3429 -0.9339  0.0949
  341MOL0     H45977   4.376   5.877   1.427 -1.2445  0.1064 -0.7891
  341MOL0     H45978   4.394   5.957   1.123 -3.2655 -2.2060 -0.9203
  341MOL0     H45979   4.269   5.984   1.233  0.1443  2.6646  0.7090
  341MOL0     H45980   4.408   6.133   1.373  1.6632 -2.6722  0.5247
  341MOL0     H45981   4.538   6.141   1.267 -0.9606  0.6703  3.8952
  341MOL0     H45982   4.273   6.185   1.144 -1.8377 -0.9701  1.9157
  341MOL0     H45983   4.321   6.309   1.251  0.2592 -0.9367  1.9278
  341MOL0     H45984   4.515   6.210   1.017 -1.2453 -0.6050 -0.3992
  341MOL0     H45985   4.528   6.347   1.124  0.1388 -0.0010 -0.9169
  341MOL0     H45986   4.369   6.558   1.077 -1.7863  0.3360  0.0729
  341MOL0     H45987   4.105   6.642   0.821  1.9969 -1.4252 -1.2575
  341MOL0     H45988   4.210   6.722   0.938 -0.5120 -1.6373  0.1174
  341MOL0     H45989   4.310   6.652   0.661  0.3691  0.4202  0.2051
  341MOL0     H45990   4.394   6.736   0.772 -0.2870  1.9648 -3.1956
  341MOL0     H45991   4.321   6.932   0.669 -0.7830  0.1725 -1.6473
  341MOL0     H45992   4.170   6.911   0.775 -0.7116 -0.7014 -1.2274
  341MOL0     H45993   4.072   6.796   0.588  0.7316 -0.4802 -2.1618
  341MOL0     H45994   4.212   6.823   0.488  0.6420 -2.4221  1.7197
  341MOL0     H45995   4.169   6.948   0.287 -0.1353  1.3212 -3.2189
  341MOL0     H45996   4.149   6.972   0.085 -0.4971  1.1821  1.5588
  341MOL0     H45997   3.999   6.896   0.032 -2.9710  0.8612  0.1479
  341MOL0     H45998   4.020   7.070   0.005 -0.9192  2.8060  2.4473
  341MOL0     H45999   3.610   7.481   0.137 -1.0422  0.3041 -1.4138
  341MOL0     H46000   3.426   7.547  -0.027  1.2059  0.2413 -0.7113
  341MOL0     H46001   3.213   7.221  -0.262  2.2943 -0.7570  0.5977
  341MOL0     H46002   3.147   7.352  -0.336 -0.9315 -0.1701  2.8509
  341MOL0     H46003   3.435   7.274  -0.383  0.3083  1.3725  0.7655
  341MOL0     H46004   3.299   7.194  -0.472 -1.5420  0.3844  1.3830
  341MOL0     H46005   3.391   7.479  -0.483  1.9607 -0.5728  1.4040
  341MOL0     H46006   3.242   7.427  -0.563  1.0367  0.9267  0.1969
  341MOL0     H46007   3.487   7.275  -0.625 -3.5402 -2.6023  2.0039
  341MOL0     H46008   3.328   7.281  -0.712  0.5258  1.5076 -1.7582
  341MOL0     H46009   3.366   7.536  -0.723  0.1892 -0.9589  0.6930
  341MOL0     H46010   3.419   7.425  -0.854 -1.8842 -1.9194  0.4271
  341MOL0     H46011   3.614   7.499  -0.625  2.6428 -2.5630 -0.5823
  341MOL0     H46012   3.639   7.436  -0.787  0.6039  3.5396 -2.3438
  341MOL0     H46013   3.529   7.709  -0.705  0.6480 -0.2433  1.3709
  341MOL0     H46014   3.541   7.659  -0.865  0.6196  0.8757 -0.1995
  341MOL0     H46015   3.712   7.820  -0.794 -1.0288 -0.2786 -2.3983
  341MOL0     H46016   3.810   7.677  -0.826  2.0789  1.5086  0.7281
  341MOL0     H46017   3.361   7.150  -0.139 -1.9274 -0.1605  0.5558
  341MOL0     H46018   3.531   7.069  -0.007 -0.4775 -1.2038  2.2694
  341MOL0     H46019   3.758   7.194   0.386 -0.8010 -1.1204 -1.3903
  341MOL0     H46020   3.929   7.170   0.557  0.0465  2.2368 -0.9621
  341MOL0     H46021   4.930   6.016   1.550 -1.3401 -1.0276 -0.1804
  341MOL0     H46022   5.160   6.045   1.655  1.4384 -0.2939 -0.9265
  341MOL0     H46023   5.305   6.240   1.972 -0.6128 -3.1685  2.6450
  341MOL0     H46024   5.508   6.380   2.012 -2.2395 -0.4935  1.3321
  341MOL0     H46025   5.881   6.447   1.939 -0.0002 -3.3899  2.9517
  341MOL0     H46026   5.884   6.319   1.813 -2.3818  0.1354 -1.6722
  341MOL0     H46027   5.653   6.516   1.818 -0.4434 -1.3229  0.7103
  341MOL0     H46028   5.665   6.371   1.726 -3.3974 -0.8783  3.7493
  341MOL0     H46029   5.851   6.450   1.582  0.5128 -0.7973  0.6498
  341MOL0     H46030   5.841   6.610   1.676  2.8573  0.1611 -1.0078
  341MOL0     H46031   5.601   6.630   1.602  0.5967  0.3137  0.7264
  341MOL0     H46032   5.620   6.463   1.543 -0.9080  0.1445  3.5418
  341MOL0     H46033   5.840   6.671   1.227  1.4763 -3.0916 -0.1886
  341MOL0     H46034   5.760   6.066   1.871 -2.6564 -5.2622 -1.0594
  341MOL0     H46035   5.569   5.932   1.818 -2.7534  0.2935 -2.7850
  342MOL0     O46036  10.586   9.900   2.149  0.0231 -0.5301 -0.1059
  342MOL0     C46037  10.664   9.958   2.221  0.0927 -0.1072 -0.1304
  342MOL0     O46038  10.786  10.000   2.181  0.6070  0.5033  0.9335
  342MOL0     C46039  10.817   9.975   2.051  0.2354 -0.3734  0.3216
  342MOL0     C46040  10.735  10.021   1.944  0.3707 -0.1716 -0.7340
  342MOL0     C46041  10.777  10.008   1.812 -1.2652 -0.3898 -0.1940
  342MOL0     C46042  10.900   9.954   1.777  0.2405  0.4788 -0.8631
  342MOL0     O46043  10.938   9.943   1.648  0.3739 -0.4364  1.0906
  342MOL0     C46044  11.072   9.961   1.618 -0.2223 -0.0304  1.0242
  342MOL0     C46045  11.065   9.989   1.465 -0.7377  0.3024 -0.1111
  342MOL0     C46046  11.203   9.983   1.399 -0.1835 -0.5345 -0.4155
  342MOL0     C46047  11.327  10.026   1.487  0.0611 -0.0821  0.1801
  342MOL0     C46048  11.451  10.052   1.392  0.3007  0.4359  1.0593
  342MOL0     C46049  11.503   9.906   1.350 -0.1186  0.0879 -0.1401
  342MOL0     C46050  11.656   9.908   1.350 -0.1173 -0.3563  0.4083
  342MOL0     C46051  11.712   9.998   1.237  0.0647 -0.5741 -0.3423
  342MOL0     N46052  11.852   9.958   1.227  0.1897 -0.6129  0.0705
  342MOL0     C46053  11.926   9.969   1.340 -0.6082  0.1259 -0.1563
  342MOL0     C46054  12.044   9.915   1.308  0.4005  0.1696 -0.8102
  342MOL0     C46055  12.156   9.894   1.402 -0.5685  0.2496  0.0286
  342MOL0     C46056  12.264   9.994   1.387 -0.4065 -0.7707 -0.8605
  342MOL0     C46057  12.354   9.974   1.265  0.4676 -0.5475 -0.3916
  342MOL0     C46058  12.490  10.043   1.267 -0.0113 -0.1410 -0.7601
  342MOL0     O46059  12.572  10.042   1.149  1.4611  0.1227 -0.1129
  342MOL0     C46060  12.680  10.116   1.152 -0.4407  0.1642  0.2787
  342MOL0     C46061  12.728  10.190   1.270  1.3588 -0.3451 -0.6973
  342MOL0     C46062  12.848  10.258   1.269 -0.8163  0.7573 -0.3959
  342MOL0     C46063  12.887  10.350   1.383  0.7625 -0.3214 -0.2939
  342MOL0     C46064  12.942  10.243   1.163 -0.1169 -0.5503 -0.5484
  342MOL0     C46065  13.073  10.315   1.154 -0.6101 -0.2693 -0.1921
  342MOL0     O46066  13.129  10.346   1.028  0.0636 -0.5650  0.2702
  342MOL0     C46067  13.244  10.419   1.029  1.1745  0.5462 -0.0695
  342MOL0     C46068  13.356  10.361   0.982  0.0225 -0.0867 -0.2211
  342MOL0     C46069  13.473  10.431   0.973  0.4844 -0.5766 -0.3674
  342MOL0     C46070  13.478  10.569   1.013 -1.0021 -0.1351 -1.0476
  342MOL0     O46071  13.589  10.645   1.028 -0.8460 -0.3766  0.5698
  342MOL0     C46072  13.686  10.629   0.922 -0.9184  0.0275  0.7716
  342MOL0     C46073  13.819  10.686   0.968  0.4611 -1.0346  0.4081
  342MOL0     C46074  13.869  10.622   1.098  0.3278  0.2187  0.0862
  342MOL0     C46075  14.019  10.638   1.139  0.1054 -0.2686 -0.0814
  342MOL0     C46076  14.055  10.555   1.255 -0.2257  0.1281  0.0052
  342MOL0     C46077  14.057  10.406   1.218  0.8628  0.1432  0.2283
  342MOL0     C46078  14.129  10.323   1.321  0.6551  0.3318  0.7560
  342MOL0     C46079  14.041  10.277   1.431 -0.1370 -0.1784 -0.8497
  342MOL0    Cl46080  13.936  10.145   1.374 -0.2427 -0.1743  0.1114
  342MOL0     C46081  13.359  10.621   1.068  0.7663 -0.2253  0.5436
  342MOL0     C46082  13.241  10.549   1.080 -0.1716  0.8715 -0.1305
  342MOL0     O46083  13.142  10.326   1.257  0.1660  0.2477  0.0775
  342MOL0     C46084  12.894  10.178   1.047 -0.2040 -0.9383  0.5810
  342MOL0     C46085  12.774  10.105   1.045 -0.2996 -0.0621  0.1310
  342MOL0     N46086  12.036   9.878   1.174  0.3383 -0.3431 -0.0757
  342MOL0     N46087  11.929   9.925   1.122  0.3406 -0.5357 -0.2257
  342MOL0     C46088  10.977   9.899   1.880 -0.3706 -0.0084 -0.1297
  342MOL0     C46089  10.934   9.909   2.012 -0.6785  0.0721  0.1158
  342MOL0     C46090  10.634   9.996   2.357  0.9031 -0.1351  0.6733
  342MOL0     C46091  10.502   9.978   2.411 -0.4928  0.4433  1.1863
  342MOL0     C46092  10.475  10.007   2.545  0.2610 -0.6141  0.2361
  342MOL0     C46093  10.574  10.070   2.628 -0.3225  1.5073  0.6331
  342MOL0     O46094  10.563  10.064   2.766 -0.4218 -0.2810  0.5021
  342MOL0     C46095  10.669  10.053   2.857 -0.2575 -0.0564 -0.8803
  342MOL0     C46096  10.631  10.101   3.001 -0.2182  0.8256  0.4074
  342MOL0     C46097  10.612  10.250   3.025 -0.6657  0.2038  0.2756
  342MOL0     C46098  10.731  10.326   2.999 -0.0053 -0.1833  0.1969
  342MOL0     C46099  10.720  10.461   3.037  0.1731 -0.5645  0.2633
  342MOL0     C46100  10.700  10.579   3.073 -0.5583 -0.1359  0.1680
  342MOL0     C46101  10.696  10.106   2.563 -0.1430 -1.0437 -0.0546
  342MOL0     C46102  10.723  10.074   2.433 -0.7002  1.0992  0.5069
  342MOL0     H46103  10.649  10.084   1.965  1.7084  1.6642 -0.5580
  342MOL0     H46104  10.701  10.035   1.739 -1.7002 -0.0774  0.3645
  342MOL0     H46105  11.118  10.049   1.663 -0.5736  1.3017 -1.0480
  342MOL0     H46106  11.133   9.874   1.641  3.8749  2.0774 -0.8551
  342MOL0     H46107  11.003   9.920   1.406  3.2712 -1.8746 -2.1850
  342MOL0     H46108  11.019  10.086   1.447 -3.3993 -0.6654  0.9789
  342MOL0     H46109  11.210   9.881   1.361  1.5903 -1.7650  2.7549
  342MOL0     H46110  11.198  10.044   1.309  2.2994 -1.8597 -1.5604
  342MOL0     H46111  11.303  10.121   1.535 -0.1106 -1.1870  2.4241
  342MOL0     H46112  11.340   9.954   1.568 -2.0590  0.6003  1.2264
  342MOL0     H46113  11.413  10.110   1.308  1.7960 -0.3532 -0.2048
  342MOL0     H46114  11.533  10.101   1.446  0.6763 -4.2638  5.5340
  342MOL0     H46115  11.475   9.836   1.429  1.6820 -0.0588  0.4287
  342MOL0     H46116  11.465   9.873   1.253  0.4494  2.3129 -1.1678
  342MOL0     H46117  11.693   9.935   1.450  1.3453 -0.4348 -0.0942
  342MOL0     H46118  11.692   9.810   1.319  1.7340  0.4483 -0.1518
  342MOL0     H46119  11.699  10.106   1.247 -2.9663 -1.0383  2.0811
  342MOL0     H46120  11.658   9.979   1.144 -0.7820  2.2035 -0.5197
  342MOL0     H46121  11.897  10.002   1.439  0.7159  1.7783 -0.2729
  342MOL0     H46122  12.127   9.880   1.506  0.8859 -1.3300  0.2678
  342MOL0     H46123  12.201   9.797   1.376  0.6146  0.7585  0.0832
  342MOL0     H46124  12.332   9.980   1.472 -1.5751 -2.8594 -0.2089
  342MOL0     H46125  12.228  10.097   1.377  0.7610 -0.5520 -3.4647
  342MOL0     H46126  12.313  10.029   1.180  0.8781  0.4924  0.0645
  342MOL0     H46127  12.367   9.868   1.244 -0.0159 -0.3576 -1.7119
  342MOL0     H46128  12.548  10.011   1.354  1.5349 -1.0559 -2.0732
  342MOL0     H46129  12.475  10.147   1.296  2.7900 -0.5290  2.7723
  342MOL0     H46130  12.667  10.195   1.359 -2.6395 -2.1901 -3.0440
  342MOL0     H46131  12.806  10.358   1.456  2.4309  0.3494  1.5599
  342MOL0     H46132  12.962  10.291   1.436  0.0792 -1.1244 -0.2083
  342MOL0     H46133  12.944  10.439   1.355 -1.0087  1.0185  0.1729
  342MOL0     H46134  13.348  10.254   0.969 -2.6372  0.0859 -0.4152
  342MOL0     H46135  13.564  10.390   0.931  1.7896 -1.0238  2.6568
  342MOL0     H46136  13.704  10.530   0.880 -1.7896  0.0505  0.3230
  342MOL0     H46137  13.654  10.689   0.837  1.0597  1.4197  0.9283
  342MOL0     H46138  13.889  10.658   0.888 -0.2671 -1.9604  0.0768
  342MOL0     H46139  13.810  10.794   0.982  3.7157 -0.2461 -2.2488
  342MOL0     H46140  13.848  10.515   1.085 -2.7803  1.0333 -2.9300
  342MOL0     H46141  13.810  10.661   1.181  1.6236  1.5071  0.4428
  342MOL0     H46142  14.085  10.618   1.055  0.3723 -1.4986  0.4049
  342MOL0     H46143  14.033  10.744   1.162 -3.8715  0.0552  1.7706
  342MOL0     H46144  13.990  10.560   1.343  0.6608  1.2016  0.6196
  342MOL0     H46145  14.153  10.582   1.296 -0.9687  2.3846  0.4411
  342MOL0     H46146  13.956  10.365   1.210  0.5881  0.3045  2.2013
  342MOL0     H46147  14.111  10.399   1.124  0.4621  0.9680 -0.0703
  342MOL0     H46148  14.218  10.366   1.368  1.6091 -1.7890  1.0311
  342MOL0     H46149  14.167  10.231   1.276  0.5549  0.4368  0.4587
  342MOL0     H46150  13.989  10.366   1.467  1.5668  1.4573 -2.2458
  342MOL0     H46151  14.093  10.228   1.514  1.6055  0.9630 -1.2230
  342MOL0     H46152  13.354  10.726   1.097  3.1339 -0.1361  0.8474
  342MOL0     H46153  13.154  10.589   1.130  0.7922  0.7030  1.7939
  342MOL0     H46154  12.956  10.170   0.958 -2.5641 -0.8855 -1.1733
  342MOL0     H46155  12.751  10.046   0.957  1.8918 -1.4937  0.4518
  342MOL0     H46156  11.080   9.869   1.866 -0.8985 -2.1424  0.1756
  342MOL0     H46157  11.006   9.885   2.090 -1.0431 -0.4211  0.3079
  342MOL0     H46158  10.423   9.942   2.345 -1.2394 -1.5244  3.0343
  342MOL0     H46159  10.379   9.981   2.587  0.2673  0.1400  0.7300
  342MOL0     H46160  10.701   9.949   2.866  1.1804  0.3958 -0.5194
  342MOL0     H46161  10.767  10.093   2.830  0.2485 -0.0266  0.8525
  342MOL0     H46162  10.709  10.088   3.076  0.0923  5.6628  1.2826
  342MOL0     H46163  10.539  10.054   3.037  0.6130 -1.7131 -0.5792
  342MOL0     H46164  10.584  10.282   3.126  3.7780  0.6727  1.5378
  342MOL0     H46165  10.530  10.279   2.958 -1.8988 -0.7738  1.3127
  342MOL0     H46166  10.732  10.340   2.890 -2.2633  2.8444  0.4286
  342MOL0     H46167  10.827  10.289   3.035  0.2973  1.5626  1.2717
  342MOL0     H46168  10.699  10.677   3.117 -2.0865  0.2913 -0.7490
  342MOL0     H46169  10.769  10.155   2.626 -0.6481 -0.7241  0.2930
  342MOL0     H46170  10.814  10.117   2.393  0.2223 -0.4872  0.7988
  343MOL0     O46171   3.004   0.528  10.072 -0.4652  0.1455  0.4851
  343MOL0     C46172   3.046   0.421  10.113 -0.5989 -0.9895 -0.7881
  343MOL0     O46173   2.965   0.329  10.183 -0.3298 -0.3376 -0.5848
  343MOL0     C46174   2.837   0.353  10.226 -0.1053  0.3485  0.2020
  343MOL0     C46175   2.749   0.463  10.191 -0.6896  0.4250  0.1747
  343MOL0     C46176   2.629   0.474  10.267 -0.4026  1.3438  0.5520
  343MOL0     C46177   2.590   0.371  10.355 -0.0335  0.1518 -0.5522
  343MOL0     O46178   2.459   0.381  10.407 -0.2823  0.3760  0.0891
  343MOL0     C46179   2.421   0.342  10.543  0.1477 -0.4219 -0.6457
  343MOL0     C46180   2.369   0.209  10.571  0.5255  0.2370  0.1307
  343MOL0     C46181   2.327   0.189  10.719 -0.1297 -0.8432  0.7812
  343MOL0     C46182   2.191   0.251  10.744 -0.2985 -0.1418 -0.2190
  343MOL0     C46183   2.122   0.186  10.864 -0.3767 -0.2873  0.2531
  343MOL0     C46184   2.072   0.041  10.851  0.1245  0.1839  0.5610
  343MOL0     C46185   2.057  -0.014  10.997 -0.7613  0.0450 -0.1941
  343MOL0     C46186   1.946   0.043  11.080  0.4946  0.2046 -0.3059
  343MOL0     N46187   1.815   0.055  11.016  0.4562  0.3996 -0.1897
  343MOL0     C46188   1.712  -0.032  11.047  0.8349 -0.8555 -0.1655
  343MOL0     C46189   1.617   0.008  10.964 -0.3964  0.4734 -0.8410
  343MOL0     C46190   1.470  -0.027  10.964  0.2894  0.7344  0.5052
  343MOL0     C46191   1.413  -0.024  10.821  0.7339  0.1509  0.8054
  343MOL0     C46192   1.280  -0.106  10.807 -0.5369 -0.7399 -0.9273
  343MOL0     C46193   1.206  -0.073  10.668 -0.2033 -0.0384 -0.1572
  343MOL0     O46194   1.077  -0.136  10.679 -0.6028  0.5783  0.5922
  343MOL0     C46195   0.993  -0.140  10.572 -0.0232  0.2896  0.2277
  343MOL0     C46196   0.860  -0.102  10.591 -0.0139  0.3356 -0.9381
  343MOL0     C46197   0.762  -0.124  10.491 -0.2117 -0.2794  0.3340
  343MOL0     C46198   0.621  -0.075  10.529 -0.4473  0.4272  0.2945
  343MOL0     C46199   0.798  -0.180  10.366 -0.2032  0.3748 -0.1260
  343MOL0     C46200   0.696  -0.204  10.254 -0.2681 -0.2601 -0.2119
  343MOL0     O46201   0.731  -0.300  10.158  0.0991  0.2415  0.8344
  343MOL0     C46202   0.682  -0.288  10.027  0.2023 -0.4605  0.3658
  343MOL0     C46203   0.702  -0.404   9.951 -0.1659  1.1947  0.9497
  343MOL0     C46204   0.656  -0.415   9.817  0.4167 -0.5937 -0.7219
  343MOL0     C46205   0.575  -0.305   9.763 -1.2197  0.6792  0.1965
  343MOL0     O46206   0.537  -0.331   9.626 -0.3846 -0.3877  0.1242
  343MOL0     C46207   0.449  -0.229   9.574  0.7577 -0.4742  0.6409
  343MOL0     C46208   0.412  -0.270   9.434 -0.3375 -0.3166 -0.3413
  343MOL0     C46209   0.376  -0.419   9.420  0.1303 -0.8222  0.6175
  343MOL0     C46210   0.261  -0.449   9.517 -0.4311 -0.0025  0.4589
  343MOL0     C46211   0.204  -0.593   9.493 -0.2372  0.5582  0.6316
  343MOL0     C46212   0.075  -0.617   9.584  0.3038 -0.1258  0.2723
  343MOL0     C46213  -0.007  -0.740   9.541  0.0925  0.0333  0.2919
  343MOL0     C46214  -0.112  -0.768   9.648 -0.2617  0.7976 -0.5189
  343MOL0    Cl46215  -0.245  -0.852   9.564 -0.1889  0.1241 -0.3432
  343MOL0     C46216   0.567  -0.194   9.837  1.4994 -0.8739  0.6093
  343MOL0     C46217   0.611  -0.179   9.970 -0.0332  0.2212 -0.2546
  343MOL0     O46218   0.597  -0.133  10.255  0.4218 -0.3975 -0.0061
  343MOL0     C46219   0.937  -0.215  10.347  0.4302 -0.6434  0.0724
  343MOL0     C46220   1.036  -0.192  10.446 -1.0927  0.6564 -0.3216
  343MOL0     N46221   1.649   0.132  10.911  0.3353 -1.0031 -0.2754
  343MOL0     N46222   1.769   0.166  10.950 -0.2002  0.6196 -0.8963
  343MOL0     C46223   2.681   0.267  10.394 -0.8303  0.3926  1.0132
  343MOL0     C46224   2.798   0.262  10.321 -1.0090 -0.7710 -0.6116
  343MOL0     C46225   3.196   0.392  10.109 -0.3787 -0.7895  0.0532
  343MOL0     C46226   3.248   0.269  10.155  0.0846 -0.3282  0.3039
  343MOL0     C46227   3.388   0.247  10.175 -0.2545  0.2282 -0.3972
  343MOL0     C46228   3.475   0.345  10.128 -0.0873 -0.6241  0.1656
  343MOL0     O46229   3.611   0.344  10.131 -0.0562 -0.4496  0.2340
  343MOL0     C46230   3.676   0.212  10.140 -0.7285  0.7200 -0.0430
  343MOL0     C46231   3.823   0.222  10.158 -0.5121  0.7505  0.0889
  343MOL0     C46232   3.904   0.270  10.032 -0.0626  1.0214 -0.1971
  343MOL0     C46233   4.053   0.279  10.078 -0.6208 -0.2245  0.1614
  343MOL0     C46234   4.147   0.295   9.965 -0.0018 -0.0779 -0.7617
  343MOL0     C46235   4.223   0.302   9.871  0.6678 -0.1257 -0.0154
  343MOL0     C46236   3.426   0.472  10.085  0.2922 -0.7304  0.1679
  343MOL0     C46237   3.288   0.498  10.078  0.1723  0.6591 -0.6307
  343MOL0     H46238   2.774   0.543  10.122  1.5431 -0.6066 -0.2910
  343MOL0     H46239   2.545   0.541  10.255 -2.5448 -1.4735 -1.6151
  343MOL0     H46240   2.499   0.360  10.617  1.6820  1.9172 -2.6463
  343MOL0     H46241   2.346   0.416  10.574 -0.9662 -1.5530 -0.5505
  343MOL0     H46242   2.280   0.182  10.514 -0.1544 -0.5653  1.5008
  343MOL0     H46243   2.438   0.130  10.541  0.4306 -0.2255  1.0551
  343MOL0     H46244   2.321   0.081  10.734 -0.1011 -0.8155  0.9952
  343MOL0     H46245   2.400   0.223  10.794  3.4826 -3.1813 -1.4065
  343MOL0     H46246   2.208   0.357  10.767  0.8360  0.0000 -1.5500
  343MOL0     H46247   2.120   0.249  10.661 -0.1371  0.0212 -0.3615
  343MOL0     H46248   2.192   0.186  10.949 -2.0724  0.0317  1.7223
  343MOL0     H46249   2.038   0.250  10.894  0.3348  0.3708  0.8816
  343MOL0     H46250   1.981   0.038  10.790  1.1519  0.9227 -1.0915
  343MOL0     H46251   2.141  -0.022  10.793 -1.9233 -0.4435 -1.3494
  343MOL0     H46252   2.025  -0.119  10.995  1.1104 -0.5479 -1.4307
  343MOL0     H46253   2.146  -0.019  11.061 -2.7462 -0.4748  2.7310
  343MOL0     H46254   1.970   0.148  11.103 -2.9594  0.8598  0.8934
  343MOL0     H46255   1.936  -0.011  11.174 -1.2913 -1.4987 -1.3921
  343MOL0     H46256   1.705  -0.117  11.113 -2.6528  0.4842  1.4212
  343MOL0     H46257   1.437  -0.122  11.007 -1.9705 -1.4518 -5.0459
  343MOL0     H46258   1.414   0.047  11.021  2.3955  1.3618  1.8608
  343MOL0     H46259   1.494  -0.052  10.753 -1.9540 -0.7696 -2.2643
  343MOL0     H46260   1.396   0.080  10.792  0.2682 -0.1529 -0.0398
  343MOL0     H46261   1.209  -0.075  10.884 -1.7917  1.2459 -2.7603
  343MOL0     H46262   1.303  -0.212  10.823  1.7785 -0.1515  0.0812
  343MOL0     H46263   1.259  -0.112  10.581 -2.0518  0.4385 -1.5438
  343MOL0     H46264   1.192   0.035  10.662 -1.4622 -0.2731 -2.8008
  343MOL0     H46265   0.827  -0.063  10.687  1.5720 -0.3032 -0.0888
  343MOL0     H46266   0.545  -0.151  10.509 -2.2642  2.1132  0.4839
  343MOL0     H46267   0.612  -0.052  10.636  1.0611 -1.3014  0.8632
  343MOL0     H46268   0.601   0.021  10.481  0.4230  0.2249 -0.4841
  343MOL0     H46269   0.754  -0.489   9.994 -2.7681 -0.3676  1.1802
  343MOL0     H46270   0.664  -0.509   9.763  0.6677 -0.7713 -0.3826
  343MOL0     H46271   0.351  -0.220   9.622 -0.0510 -1.2316 -0.8020
  343MOL0     H46272   0.501  -0.133   9.563  0.0091 -0.1394 -0.0599
  343MOL0     H46273   0.326  -0.206   9.413  0.9933  1.7316  0.1601
  343MOL0     H46274   0.488  -0.247   9.359 -0.4522 -2.2067 -1.0945
  343MOL0     H46275   0.461  -0.489   9.418  0.5619 -0.3060 -2.1574
  343MOL0     H46276   0.337  -0.438   9.320  0.1569 -5.5267  1.2855
  343MOL0     H46277   0.301  -0.436   9.618  0.2892  2.2656 -0.0689
  343MOL0     H46278   0.179  -0.378   9.500 -0.2427  0.4066  1.2255
  343MOL0     H46279   0.278  -0.659   9.540  0.5852  0.3873 -0.8528
  343MOL0     H46280   0.193  -0.629   9.390  0.8992 -1.2135  1.0791
  343MOL0     H46281   0.107  -0.620   9.688  0.8038  1.1090  0.1726
  343MOL0     H46282   0.013  -0.527   9.583 -1.6610 -1.4352 -0.4609
  343MOL0     H46283   0.051  -0.830   9.520 -1.4637 -0.8035 -0.6267
  343MOL0     H46284  -0.056  -0.716   9.446  2.3283  2.9374 -0.2594
  343MOL0     H46285  -0.141  -0.680   9.706 -2.1578 -2.5583  4.3119
  343MOL0     H46286  -0.082  -0.837   9.728  2.3397  0.1070 -1.9758
  343MOL0     H46287   0.515  -0.113   9.787  0.9664 -2.4825 -1.5739
  343MOL0     H46288   0.590  -0.092  10.032 -3.2770 -0.8425  0.3361
  343MOL0     H46289   0.961  -0.263  10.252 -0.4068 -0.3786 -0.2776
  343MOL0     H46290   1.138  -0.226  10.432 -0.9188 -0.1016  2.2777
  343MOL0     H46291   2.652   0.188  10.463 -1.6719  0.8902  1.2482
  343MOL0     H46292   2.859   0.174  10.342  0.5707  0.9409  2.8161
  343MOL0     H46293   3.174   0.194  10.181 -2.4046  2.0269  0.3882
  343MOL0     H46294   3.420   0.160  10.232 -0.7942  0.6315  0.5558
  343MOL0     H46295   3.631   0.158  10.224  0.6184  0.2213  0.3781
  343MOL0     H46296   3.673   0.164  10.042  1.7516 -1.8722  1.0170
  343MOL0     H46297   3.855   0.118  10.168 -1.1403  0.2662 -2.3276
  343MOL0     H46298   3.851   0.289  10.240 -1.0527  1.1470 -0.0432
  343MOL0     H46299   3.873   0.370  10.000 -2.7064  0.9445  1.7518
  343MOL0     H46300   3.900   0.188   9.961  0.9299  1.1157 -0.3808
  343MOL0     H46301   4.072   0.184  10.128  1.4500  1.4311  2.7754
  343MOL0     H46302   4.066   0.363  10.146  1.9928  1.2541 -1.9778
  343MOL0     H46303   4.282   0.307   9.782  2.3056 -0.8721  0.9748
  343MOL0     H46304   3.492   0.551  10.051  0.4918 -1.4185 -1.1124
  343MOL0     H46305   3.251   0.595  10.046 -1.4959  0.0875 -0.5206
  344MOL0     O46306   6.643  11.382   9.875  0.2957 -0.2742 -0.7213
  344MOL0     C46307   6.615  11.337   9.767 -0.8496  0.1498  0.7329
  344MOL0     O46308   6.503  11.267   9.731 -0.1401 -0.4752 -0.0148
  344MOL0     C46309   6.394  11.249   9.813 -0.7808  0.0349 -0.0293
  344MOL0     C46310   6.402  11.222   9.940 -0.3818 -0.0629 -0.1820
  344MOL0     C46311   6.288  11.207  10.015 -0.6855  0.2511  0.1172
  344MOL0     C46312   6.166  11.248   9.961  0.0885  1.1014  0.2927
  344MOL0     O46313   6.065  11.235  10.045  0.1525  0.7025  0.7476
  344MOL0     C46314   5.996  11.359  10.073 -0.5887  0.5281 -0.0919
  344MOL0     C46315   5.874  11.335  10.169 -0.3281  0.9694  0.2137
  344MOL0     C46316   5.765  11.252  10.107 -0.0967  0.2729  0.4129
  344MOL0     C46317   5.665  11.318  10.008  0.5010 -0.0945  0.2853
  344MOL0     C46318   5.563  11.208   9.965  0.2149 -0.1535  0.4886
  344MOL0     C46319   5.617  11.125   9.842  0.9821  0.2216  0.1496
  344MOL0     C46320   5.521  11.024   9.773 -0.4901 -0.4008  0.2979
  344MOL0     C46321   5.590  10.953   9.668  0.1539  0.3513 -0.1357
  344MOL0     N46322   5.500  10.906   9.563 -0.3369  0.1393 -0.0783
  344MOL0     C46323   5.424  10.974   9.469 -0.0521  0.1963 -0.1312
  344MOL0     C46324   5.343  10.879   9.411 -0.6891  1.0904 -0.0077
  344MOL0     C46325   5.229  10.914   9.333 -0.1936  1.2597  0.7351
  344MOL0     C46326   5.099  10.916   9.414 -0.0619  0.2189 -0.1456
  344MOL0     C46327   5.023  11.034   9.354 -0.3264  1.0031 -0.1785
  344MOL0     C46328   4.881  11.045   9.408  0.7507  0.3352 -0.3432
  344MOL0     O46329   4.844  11.187   9.419 -0.1335 -0.4109 -0.5060
  344MOL0     C46330   4.717  11.230   9.413  0.0584  0.7401 -0.2489
  344MOL0     C46331   4.694  11.359   9.376 -0.1256 -0.3203 -0.3795
  344MOL0     C46332   4.568  11.414   9.352  0.6322 -0.2797  0.1765
  344MOL0     C46333   4.567  11.563   9.298  0.5346  0.2643 -0.3830
  344MOL0     C46334   4.458  11.336   9.367 -0.1376  0.2380 -0.4401
  344MOL0     C46335   4.311  11.371   9.346 -0.5804 -1.0405 -0.1515
  344MOL0     O46336   4.271  11.496   9.329  0.3251 -0.4002 -0.0791
  344MOL0     C46337   4.166  11.539   9.397  0.0212 -0.9120  0.3567
  344MOL0     C46338   4.034  11.501   9.355 -0.7616 -0.0525 -0.0906
  344MOL0     C46339   3.927  11.534   9.445  0.2779 -0.7668 -0.8083
  344MOL0     C46340   3.947  11.624   9.553  0.1393  1.1839 -0.6523
  344MOL0     O46341   3.833  11.654   9.617  0.0385 -0.3072 -0.6192
  344MOL0     C46342   3.767  11.750   9.536  1.1685  0.4770 -0.4885
  344MOL0     C46343   3.694  11.870   9.607 -0.4157 -0.3792 -0.1807
  344MOL0     C46344   3.803  11.972   9.642 -0.4784  0.2459 -0.4476
  344MOL0     C46345   3.729  12.070   9.744 -0.0010  0.8687 -0.0603
  344MOL0     C46346   3.642  12.174   9.670  0.6369  0.3676 -0.8497
  344MOL0     C46347   3.598  12.280   9.771  0.1634  0.2497  0.6540
  344MOL0     C46348   3.511  12.393   9.707 -0.2477 -0.1475 -0.4447
  344MOL0     C46349   3.582  12.475   9.604  0.4696 -0.4418  1.3427
  344MOL0    Cl46350   3.466  12.602   9.569  0.0499 -0.1246  0.3946
  344MOL0     C46351   4.077  11.668   9.582  0.0756 -0.6203 -0.2989
  344MOL0     C46352   4.189  11.628   9.505 -0.0983 -0.8557 -0.0733
  344MOL0     O46353   4.241  11.280   9.366  0.3974  0.3874 -0.2424
  344MOL0     C46354   4.478  11.198   9.404  0.2130 -0.0415 -0.7129
  344MOL0     C46355   4.606  11.139   9.437 -0.3733  0.8875 -0.2642
  344MOL0     N46356   5.375  10.758   9.456 -0.3679  0.1750  0.1952
  344MOL0     N46357   5.462  10.774   9.552 -0.3087  0.1832  0.0140
  344MOL0     C46358   6.153  11.281   9.821  0.3431 -0.3571  0.2170
  344MOL0     C46359   6.271  11.277   9.744  0.6360 -0.0231 -0.2186
  344MOL0     C46360   6.720  11.360   9.663 -0.1773 -0.0045  0.9221
  344MOL0     C46361   6.727  11.306   9.530 -0.1044 -0.4861 -1.1024
  344MOL0     C46362   6.846  11.314   9.449  0.2094  0.4047 -0.0795
  344MOL0     C46363   6.946  11.395   9.489  0.9108 -0.3417 -0.3111
  344MOL0     O46364   7.046  11.409   9.401 -0.0330 -0.5861  0.0208
  344MOL0     C46365   7.158  11.320   9.440 -1.0036 -0.0881 -0.1298
  344MOL0     C46366   7.140  11.169   9.471  0.2742  0.4756 -0.1238
  344MOL0     C46367   7.104  11.089   9.342 -0.6960 -0.5482 -0.1536
  344MOL0     C46368   7.070  10.942   9.383  1.1344 -0.3623 -0.0399
  344MOL0     C46369   6.937  10.947   9.451 -0.2564  0.0881 -0.1779
  344MOL0     C46370   6.826  10.977   9.499 -0.8188  0.9316 -0.1683
  344MOL0     C46371   6.941  11.454   9.618  0.7158  0.3603  0.1049
  344MOL0     C46372   6.835  11.436   9.705  0.5933  1.1549  0.7192
  344MOL0     H46373   6.497  11.193   9.983 -1.9756 -2.7939  1.9007
  344MOL0     H46374   6.292  11.173  10.118  0.8524 -0.2106 -0.0691
  344MOL0     H46375   6.061  11.433  10.120 -0.7086  1.4829 -1.3658
  344MOL0     H46376   5.966  11.419   9.987  0.5011 -0.1552 -0.9776
  344MOL0     H46377   5.914  11.277  10.253 -0.1029  0.8128 -0.0006
  344MOL0     H46378   5.834  11.430  10.207 -1.3798  0.9359 -0.7850
  344MOL0     H46379   5.825  11.170  10.067  1.2126  1.8667 -1.0510
  344MOL0     H46380   5.708  11.209  10.190 -0.4032 -1.7648 -0.7955
  344MOL0     H46381   5.618  11.410  10.044 -0.5995 -1.0322  1.3300
  344MOL0     H46382   5.712  11.351   9.915  0.3786  0.2616  0.3504
  344MOL0     H46383   5.545  11.140  10.049 -0.8146  2.0729  2.1593
  344MOL0     H46384   5.468  11.255   9.937  0.3289  0.1019  0.5314
  344MOL0     H46385   5.630  11.202   9.766 -1.1447  2.6080  2.0499
  344MOL0     H46386   5.709  11.072   9.870  0.8929 -0.5440 -0.9193
  344MOL0     H46387   5.481  10.951   9.844  0.1365 -2.6755 -1.5619
  344MOL0     H46388   5.436  11.082   9.733 -2.7819 -3.1338  0.8793
  344MOL0     H46389   5.665  10.880   9.702  1.5900  0.7564 -2.2012
  344MOL0     H46390   5.653  11.014   9.602 -0.1252 -2.0743 -2.8496
  344MOL0     H46391   5.397  11.078   9.477 -0.4177  0.0775  0.1981
  344MOL0     H46392   5.252  11.014   9.297  0.0492  0.2878 -2.0191
  344MOL0     H46393   5.235  10.855   9.241  4.3358  1.2982  0.7642
  344MOL0     H46394   5.132  10.942   9.515 -1.2109  1.3899 -0.0513
  344MOL0     H46395   5.059  10.816   9.393  3.0527 -1.0314 -0.8116
  344MOL0     H46396   5.009  11.028   9.246  2.9882 -1.2482 -0.6233
  344MOL0     H46397   5.077  11.121   9.392  2.5152 -0.4397 -0.6769
  344MOL0     H46398   4.870  10.990   9.502  2.0454 -0.5117 -0.6517
  344MOL0     H46399   4.818  10.996   9.333 -2.1042  2.0937  0.7608
  344MOL0     H46400   4.784  11.419   9.372  0.8212 -1.0380  4.6698
  344MOL0     H46401   4.532  11.561   9.195 -2.0893 -2.1566  0.4297
  344MOL0     H46402   4.486  11.619   9.346 -2.8228  0.1321 -5.2067
  344MOL0     H46403   4.662  11.616   9.315  0.1212  0.7934  0.3519
  344MOL0     H46404   4.015  11.450   9.261 -2.6524  0.6182 -0.0989
  344MOL0     H46405   3.828  11.493   9.431 -0.9796  0.8086  2.5043
  344MOL0     H46406   3.829  11.788   9.454  0.0764  1.4369 -0.9001
  344MOL0     H46407   3.682  11.691   9.499  1.4443  0.1939 -0.6804
  344MOL0     H46408   3.612  11.908   9.545 -1.0202 -1.6218 -0.1760
  344MOL0     H46409   3.638  11.840   9.696 -2.9194 -3.4464 -2.5526
  344MOL0     H46410   3.840  12.028   9.555 -1.7049  0.3870 -0.9004
  344MOL0     H46411   3.882  11.916   9.693 -1.7630  1.0735  2.6817
  344MOL0     H46412   3.674  12.012   9.818  0.5163  1.4421  0.7813
  344MOL0     H46413   3.801  12.138   9.790  1.5337 -0.6575 -0.1043
  344MOL0     H46414   3.557  12.121   9.627 -0.0468  0.3109  0.5032
  344MOL0     H46415   3.700  12.214   9.586 -1.4989  0.4243 -2.3705
  344MOL0     H46416   3.545  12.235   9.855  0.2938  1.1362  1.2165
  344MOL0     H46417   3.694  12.324   9.798  0.0989  0.2584  0.8658
  344MOL0     H46418   3.479  12.459   9.788  2.4387  1.3433 -0.4992
  344MOL0     H46419   3.417  12.360   9.660 -0.4302 -1.0740  0.5460
  344MOL0     H46420   3.602  12.422   9.511 -3.3561  1.5502 -0.9000
  344MOL0     H46421   3.675  12.518   9.642  0.5143 -0.0703  0.8192
  344MOL0     H46422   4.090  11.746   9.657  1.3603 -1.3761  0.2965
  344MOL0     H46423   4.286  11.664   9.536  0.2814 -0.2493 -1.8629
  344MOL0     H46424   4.397  11.125   9.407 -1.9680  2.2740  1.6220
  344MOL0     H46425   4.619  11.039   9.478 -0.7172  0.5972 -0.8573
  344MOL0     H46426   6.056  11.303   9.778 -0.8009 -1.1033  2.2839
  344MOL0     H46427   6.266  11.311   9.641 -1.0321  2.6281  0.6311
  344MOL0     H46428   6.637  11.257   9.494 -0.5050 -0.3863 -0.2671
  344MOL0     H46429   6.838  11.279   9.347 -3.3734  1.3594 -0.2685
  344MOL0     H46430   7.236  11.319   9.364 -0.4612 -1.3983  0.4150
  344MOL0     H46431   7.201  11.361   9.532 -3.3050 -0.4144  1.1772
  344MOL0     H46432   7.070  11.148   9.552  0.7061  2.2787  0.7548
  344MOL0     H46433   7.236  11.122   9.493  0.7862  0.3917 -2.3113
  344MOL0     H46434   7.186  11.086   9.269 -0.8252  3.0936 -0.6304
  344MOL0     H46435   7.021  11.136   9.288  1.1302 -0.0099 -2.7112
  344MOL0     H46436   7.146  10.910   9.454  0.1532  1.0689  1.7426
  344MOL0     H46437   7.058  10.881   9.293 -0.6016 -0.3332  0.1348
  344MOL0     H46438   6.724  10.997   9.528 -1.2211  3.4223 -2.8442
  344MOL0     H46439   7.018  11.522   9.653 -0.9280  1.2684  2.1412
  344MOL0     H46440   6.838  11.489   9.800 -0.4674 -4.3137  4.2417
  345MOL0     O46441   8.535   5.793   5.392  0.4150  0.2084 -0.9417
  345MOL0     C46442   8.496   5.767   5.512 -0.4170 -0.0209  0.9239
  345MOL0     O46443   8.568   5.701   5.604 -0.2711 -0.0288  0.0754
  345MOL0     C46444   8.690   5.640   5.575 -0.5500 -0.5992 -0.4160
  345MOL0     C46445   8.704   5.571   5.462  0.3214 -0.8979 -0.4293
  345MOL0     C46446   8.819   5.500   5.436  0.1640  0.2431  0.0555
  345MOL0     C46447   8.922   5.493   5.534  0.4648  0.1302  0.7702
  345MOL0     O46448   9.037   5.420   5.518  0.3336  0.8046 -0.2122
  345MOL0     C46449   9.109   5.452   5.397  0.1130 -0.2383  0.1491
  345MOL0     C46450   9.188   5.576   5.419 -0.2970  0.0456  0.1957
  345MOL0     C46451   9.298   5.558   5.528 -0.2436  0.5596 -1.1452
  345MOL0     C46452   9.352   5.694   5.587 -0.1051 -1.4114 -0.5177
  345MOL0     C46453   9.271   5.737   5.711 -0.1312  0.9596 -0.0512
  345MOL0     C46454   9.305   5.886   5.740  0.5423 -0.3011  0.0920
  345MOL0     C46455   9.210   5.935   5.848  0.0687  0.6789  0.0988
  345MOL0     C46456   9.074   5.971   5.789  0.3185 -0.1416 -0.7016
  345MOL0     N46457   8.964   5.967   5.888  0.1550  0.3743 -0.7327
  345MOL0     C46458   8.929   5.870   5.977 -0.2785  0.3231 -0.5259
  345MOL0     C46459   8.850   5.920   6.075  0.7366 -0.1231  0.8130
  345MOL0     C46460   8.796   5.840   6.188 -0.0181  0.2331 -0.1923
  345MOL0     C46461   8.767   5.919   6.315  0.3247 -0.6621  0.8121
  345MOL0     C46462   8.644   6.009   6.313  0.1469 -0.0742 -0.1187
  345MOL0     C46463   8.635   6.087   6.453 -0.6993  0.0704  0.3540
  345MOL0     O46464   8.749   6.184   6.472  0.5057 -0.4944 -0.7756
  345MOL0     C46465   8.870   6.136   6.518 -0.3693  0.0053  0.0652
  345MOL0     C46466   8.974   6.227   6.518 -0.6038 -1.1694  0.2103
  345MOL0     C46467   9.106   6.189   6.540  0.7469  0.0549 -0.3849
  345MOL0     C46468   9.213   6.288   6.533 -0.1043  1.0703 -0.2754
  345MOL0     C46469   9.131   6.054   6.576 -0.6576  0.2393 -0.8943
  345MOL0     C46470   9.268   5.998   6.622 -0.9151 -0.4968 -0.4525
  345MOL0     O46471   9.320   5.883   6.572 -0.9921 -0.0151 -0.7184
  345MOL0     C46472   9.264   5.831   6.456 -0.1444  0.0557  0.1103
  345MOL0     C46473   9.308   5.878   6.333 -0.1281  0.0031  0.2146
  345MOL0     C46474   9.269   5.807   6.219  0.1017 -0.2648 -0.1752
  345MOL0     C46475   9.182   5.696   6.233  0.1263 -0.3318 -0.3837
  345MOL0     O46476   9.145   5.630   6.111 -0.8565 -0.2492  0.2146
  345MOL0     C46477   9.055   5.522   6.125  0.3603  0.2106  0.2770
  345MOL0     C46478   9.065   5.440   5.987  0.0794 -0.3465 -0.4219
  345MOL0     C46479   9.153   5.326   6.010 -0.0353  1.4913 -0.1820
  345MOL0     C46480   9.300   5.351   6.048  0.5275 -0.2542  0.3415
  345MOL0     C46481   9.378   5.224   6.111  0.1807 -0.9217 -0.3209
  345MOL0     C46482   9.336   5.185   6.249  0.3864 -0.0127  1.5029
  345MOL0     C46483   9.414   5.058   6.298 -0.6843 -0.3457 -0.0102
  345MOL0     C46484   9.327   4.935   6.304  0.9193  0.1384 -0.6596
  345MOL0    Cl46485   9.409   4.799   6.371 -0.7634 -0.1612  0.8009
  345MOL0     C46486   9.130   5.655   6.356  0.3020  0.2571 -0.1552
  345MOL0     C46487   9.178   5.722   6.467 -0.5505 -0.3726 -0.2990
  345MOL0     O46488   9.324   6.073   6.701  0.9230 -0.6251 -0.0194
  345MOL0     C46489   9.027   5.968   6.598  0.8131  0.1050  0.0482
  345MOL0     C46490   8.899   6.007   6.566 -0.1334 -0.3855  0.9389
  345MOL0     N46491   8.830   6.052   6.027  0.7812 -0.4595  0.2156
  345MOL0     N46492   8.897   6.075   5.919  0.1287 -0.9513 -0.0052
  345MOL0     C46493   8.917   5.564   5.649  0.7034  0.7687 -0.2204
  345MOL0     C46494   8.799   5.646   5.671 -0.1146 -0.2881 -0.0587
  345MOL0     C46495   8.362   5.815   5.548 -1.6212  0.1120  0.7093
  345MOL0     C46496   8.301   5.903   5.463  0.4911  0.3975  0.1304
  345MOL0     C46497   8.178   5.954   5.493  0.2634 -0.3350 -0.2663
  345MOL0     C46498   8.105   5.898   5.592  1.0275  0.0728  0.0034
  345MOL0     O46499   7.972   5.941   5.606 -0.4545  0.1998 -0.7848
  345MOL0     C46500   7.961   6.076   5.663  0.1986 -0.8196  0.3948
  345MOL0     C46501   8.014   6.080   5.810 -1.3616 -0.2182  0.4058
  345MOL0     C46502   7.964   5.971   5.912  0.8510  0.3043  0.6819
  345MOL0     C46503   7.937   6.033   6.048 -0.2272 -0.1720 -1.2612
  345MOL0     C46504   7.832   6.131   6.063 -0.6079  0.2693 -0.4772
  345MOL0     C46505   7.737   6.205   6.076  0.6355 -0.5352 -0.1190
  345MOL0     C46506   8.154   5.805   5.681 -0.3782 -0.5595  0.6961
  345MOL0     C46507   8.286   5.766   5.658  0.0707 -0.6077 -0.3732
  345MOL0     H46508   8.630   5.569   5.382  1.6262 -2.8630 -1.6909
  345MOL0     H46509   8.828   5.443   5.344  1.1179  2.0650 -1.0319
  345MOL0     H46510   9.175   5.370   5.367 -0.2134  0.0435 -1.4044
  345MOL0     H46511   9.049   5.462   5.306  2.0921 -0.5918 -1.2886
  345MOL0     H46512   9.238   5.592   5.323  0.1191  0.9652  0.5459
  345MOL0     H46513   9.127   5.665   5.440 -0.5750  1.3293 -4.7878
  345MOL0     H46514   9.269   5.487   5.606  1.1631  1.2658  0.0713
  345MOL0     H46515   9.389   5.514   5.486 -2.3894 -1.9400 -3.5516
  345MOL0     H46516   9.461   5.680   5.596  0.2710  0.6450 -1.4029
  345MOL0     H46517   9.341   5.774   5.514 -0.6386  0.0661  1.1134
  345MOL0     H46518   9.166   5.721   5.687  0.7989  1.6741 -6.3454
  345MOL0     H46519   9.299   5.669   5.792 -0.0980  2.1716  0.9912
  345MOL0     H46520   9.408   5.911   5.765  0.7126 -1.4843  0.5984
  345MOL0     H46521   9.286   5.947   5.650 -0.7555 -0.4766  0.2289
  345MOL0     H46522   9.187   5.856   5.919 -1.8231 -0.1752 -1.3744
  345MOL0     H46523   9.265   6.012   5.904  4.4320 -3.9584  2.9609
  345MOL0     H46524   9.052   5.895   5.714 -0.2712  0.6678 -1.3585
  345MOL0     H46525   9.071   6.067   5.737  1.7456  0.0792 -0.4250
  345MOL0     H46526   8.978   5.773   5.969  1.0619  0.8870  0.4233
  345MOL0     H46527   8.708   5.775   6.176  0.2074 -0.8929  3.1326
  345MOL0     H46528   8.870   5.767   6.222 -3.5713 -2.8752  1.6777
  345MOL0     H46529   8.860   5.977   6.321  1.3498 -2.0985 -0.5041
  345MOL0     H46530   8.754   5.841   6.390  0.4572 -2.1117 -0.6209
  345MOL0     H46531   8.552   5.952   6.300 -1.7152  2.7301 -0.0623
  345MOL0     H46532   8.651   6.072   6.224 -0.7722 -0.3171 -0.3732
  345MOL0     H46533   8.628   6.013   6.534 -1.0241 -0.6492 -0.3174
  345MOL0     H46534   8.544   6.144   6.438 -0.2254  1.0921  1.1937
  345MOL0     H46535   8.956   6.333   6.502  1.2940 -0.4457  2.2521
  345MOL0     H46536   9.247   6.319   6.632  1.1282 -1.3697  0.1403
  345MOL0     H46537   9.289   6.233   6.477 -0.9440  1.1482 -1.5296
  345MOL0     H46538   9.177   6.366   6.465 -2.9055  1.0927  1.0880
  345MOL0     H46539   9.366   5.970   6.329  0.8317 -0.5666  0.5431
  345MOL0     H46540   9.279   5.855   6.122 -0.8173  2.5011  1.0125
  345MOL0     H46541   9.057   5.451   6.209 -3.1341 -0.0372  0.3129
  345MOL0     H46542   8.953   5.560   6.142 -0.5168 -2.9686  3.2975
  345MOL0     H46543   8.965   5.406   5.959  0.1024 -0.4668 -0.3639
  345MOL0     H46544   9.106   5.504   5.909 -0.7721  2.7882  1.5384
  345MOL0     H46545   9.155   5.262   5.921 -1.4346  2.5474 -1.0223
  345MOL0     H46546   9.103   5.264   6.085 -1.0902 -0.1153 -2.1345
  345MOL0     H46547   9.362   5.379   5.963  3.4916 -0.6376  2.2047
  345MOL0     H46548   9.307   5.424   6.130  0.5812  1.9813 -1.5723
  345MOL0     H46549   9.486   5.235   6.103  0.3643 -3.0352 -1.1628
  345MOL0     H46550   9.348   5.140   6.048  1.1341 -1.4052 -0.1380
  345MOL0     H46551   9.373   5.261   6.318  1.1015 -2.8563  4.5293
  345MOL0     H46552   9.227   5.173   6.252  0.4279 -0.4071  1.4245
  345MOL0     H46553   9.463   5.086   6.392  0.3381 -0.3872 -0.5149
  345MOL0     H46554   9.486   5.043   6.217  1.0493  0.8821  1.2406
  345MOL0     H46555   9.289   4.910   6.205  0.3768 -1.2618 -0.1262
  345MOL0     H46556   9.241   4.960   6.367  0.0023 -2.2718 -0.8536
  345MOL0     H46557   9.063   5.572   6.377  2.4323 -1.1365  1.5249
  345MOL0     H46558   9.147   5.691   6.567  0.9339 -1.0096 -0.0100
  345MOL0     H46559   9.042   5.868   6.636  0.1603 -0.4254 -1.0635
  345MOL0     H46560   8.813   5.940   6.576 -2.2195  2.0526  0.3692
  345MOL0     H46561   8.995   5.544   5.721  1.9845 -1.5740 -2.1326
  345MOL0     H46562   8.784   5.699   5.765  0.3543  1.1689 -0.7806
  345MOL0     H46563   8.344   5.952   5.376 -1.6376  0.6146 -0.8409
  345MOL0     H46564   8.135   6.026   5.424  0.2969 -0.5836 -0.5545
  345MOL0     H46565   8.016   6.149   5.603  1.1775  1.1360  3.4811
  345MOL0     H46566   7.860   6.117   5.662  1.6234  3.1518 -1.7755
  345MOL0     H46567   7.987   6.180   5.846  1.5393  1.9616 -2.8126
  345MOL0     H46568   8.123   6.083   5.801 -1.3880 -1.9705 -1.0223
  345MOL0     H46569   8.046   5.902   5.930  3.6361  2.5984 -2.0869
  345MOL0     H46570   7.879   5.914   5.874  2.9226 -0.6586 -2.9475
  345MOL0     H46571   8.030   6.070   6.091  0.4308  4.0366 -5.4726
  345MOL0     H46572   7.900   5.946   6.105 -2.0751  0.7732 -0.9401
  345MOL0     H46573   7.652   6.263   6.105  1.4014 -0.5420  2.4116
  345MOL0     H46574   8.090   5.768   5.761 -0.7649  0.1038  0.6960
  345MOL0     H46575   8.326   5.688   5.721 -0.7923 -1.7973 -1.2577
  346MOL0     O46576   3.166   4.906   4.519 -0.6654 -0.0402 -0.4568
  346MOL0     C46577   3.174   4.835   4.417 -0.3032 -0.3700  0.2650
  346MOL0     O46578   3.282   4.831   4.328  0.0297  0.1499 -0.7061
  346MOL0     C46579   3.402   4.885   4.358  0.6687 -0.9122  0.0119
  346MOL0     C46580   3.410   5.016   4.410  0.3547  0.1979 -0.8002
  346MOL0     C46581   3.529   5.070   4.464  0.3770 -1.0496 -0.5454
  346MOL0     C46582   3.647   4.991   4.458 -0.1617 -0.0676 -0.5546
  346MOL0     O46583   3.761   5.020   4.533 -0.0592 -0.7535 -0.3021
  346MOL0     C46584   3.854   5.091   4.456 -0.3073 -0.6084  0.2446
  346MOL0     C46585   3.997   5.087   4.526  0.7212 -0.3368  0.0375
  346MOL0     C46586   4.047   4.937   4.559 -0.3472 -0.4023 -1.0054
  346MOL0     C46587   4.120   4.931   4.690  0.7369  0.4704 -0.4171
  346MOL0     C46588   4.185   4.796   4.729 -0.6846  0.2639  0.5414
  346MOL0     C46589   4.231   4.804   4.871  0.5973  0.4089 -0.5232
  346MOL0     C46590   4.240   4.668   4.928  1.2941  0.5555 -0.1849
  346MOL0     C46591   4.318   4.675   5.061 -0.4024  0.6087 -0.4537
  346MOL0     N46592   4.466   4.674   5.047 -0.2741  0.2424 -0.7531
  346MOL0     C46593   4.539   4.779   5.090  0.0423  0.6030 -0.2770
  346MOL0     C46594   4.668   4.738   5.065  0.1635 -0.8882  0.3400
  346MOL0     C46595   4.801   4.809   5.083 -0.5195 -0.0179  0.9556
  346MOL0     C46596   4.862   4.835   4.942  0.0478 -0.0065  0.2853
  346MOL0     C46597   4.966   4.949   4.943  0.5584  0.2780 -0.1730
  346MOL0     C46598   5.056   4.947   4.820 -0.4668 -0.9455  0.3709
  346MOL0     O46599   4.969   4.958   4.707  0.6511  0.1717  0.3990
  346MOL0     C46600   5.013   4.962   4.580  0.4029 -0.6180 -0.2700
  346MOL0     C46601   4.917   4.971   4.472  0.2806 -0.6106 -0.5027
  346MOL0     C46602   4.950   4.973   4.343 -0.6310  0.7373  0.1558
  346MOL0     C46603   4.835   4.968   4.241 -0.2653 -0.0456  0.0219
  346MOL0     C46604   5.087   4.971   4.310 -0.6273 -1.1043  0.0659
  346MOL0     C46605   5.128   4.976   4.165 -0.5062 -0.9760 -0.8126
  346MOL0     O46606   5.269   5.009   4.148 -0.1448  1.0616  0.0010
  346MOL0     C46607   5.306   5.062   4.028 -0.1962  0.0695 -0.1143
  346MOL0     C46608   5.445   5.070   4.018  0.3541  0.0953  0.0624
  346MOL0     C46609   5.502   5.117   3.905 -0.8321  0.1416  0.4158
  346MOL0     C46610   5.432   5.164   3.795 -0.4787  0.4734  0.3290
  346MOL0     O46611   5.494   5.189   3.678  0.8669  0.0822  0.5465
  346MOL0     C46612   5.536   5.314   3.671  0.7011  0.2829 -0.1625
  346MOL0     C46613   5.631   5.329   3.557 -0.7538  0.6020  0.2964
  346MOL0     C46614   5.652   5.485   3.541 -0.4527 -1.1315 -0.5565
  346MOL0     C46615   5.789   5.512   3.458  0.3332 -0.4067 -0.0968
  346MOL0     C46616   5.791   5.649   3.384 -0.4513 -0.0031 -0.9655
  346MOL0     C46617   5.698   5.657   3.265  0.4281  0.2785  1.0005
  346MOL0     C46618   5.694   5.797   3.210  0.2984 -1.1412  0.9080
  346MOL0     C46619   5.603   5.807   3.084 -0.3415 -0.0805  0.1565
  346MOL0    Cl46620   5.433   5.819   3.141 -0.4593  0.0028  0.0335
  346MOL0     C46621   5.292   5.160   3.812  0.9870  0.2804 -0.4671
  346MOL0     C46622   5.229   5.109   3.931 -0.5396  0.7257  0.9006
  346MOL0     O46623   5.054   4.935   4.078  0.3200  0.3614  0.5140
  346MOL0     C46624   5.188   4.969   4.409  0.0037 -1.2285 -0.5191
  346MOL0     C46625   5.148   4.966   4.545  0.5287  0.4002  0.2240
  346MOL0     N46626   4.661   4.612   5.006 -0.3229 -0.5066 -0.3157
  346MOL0     N46627   4.540   4.571   5.007 -0.3373  0.5889 -0.7022
  346MOL0     C46628   3.636   4.853   4.405 -0.4349 -1.6006 -0.0792
  346MOL0     C46629   3.519   4.812   4.354 -0.5805  0.1949  0.5447
  346MOL0     C46630   3.060   4.748   4.374 -0.5098  0.4698  0.5200
  346MOL0     C46631   3.051   4.706   4.242 -0.4572  0.6512 -0.6215
  346MOL0     C46632   2.959   4.614   4.218  0.4470 -0.0825  0.1027
  346MOL0     C46633   2.867   4.567   4.315  0.5563 -0.0948  0.8145
  346MOL0     O46634   2.775   4.465   4.272 -0.1319  0.2075 -0.9091
  346MOL0     C46635   2.765   4.342   4.352  0.0270  0.1364  0.4888
  346MOL0     C46636   2.653   4.256   4.305  0.3438 -0.1252  0.0462
  346MOL0     C46637   2.689   4.193   4.167 -0.9896 -0.5370  0.2489
  346MOL0     C46638   2.591   4.078   4.140  0.4800 -0.2324  0.0489
  346MOL0     C46639   2.556   4.058   3.998 -0.0870 -0.3364  0.8078
  346MOL0     C46640   2.512   4.043   3.886 -0.2996 -0.2753 -0.0652
  346MOL0     C46641   2.878   4.619   4.447 -0.4628  0.3539 -0.0351
  346MOL0     C46642   2.976   4.716   4.470 -0.6396 -0.1990  0.1182
  346MOL0     H46643   3.323   5.082   4.417  0.0474 -0.3487  1.5843
  346MOL0     H46644   3.541   5.174   4.495  1.2210 -0.6225 -2.2029
  346MOL0     H46645   3.859   5.057   4.352  0.3632 -0.1412  0.1178
  346MOL0     H46646   3.828   5.198   4.455 -0.2874 -0.5730 -1.8821
  346MOL0     H46647   4.072   5.143   4.470  0.6371 -2.1105 -1.9844
  346MOL0     H46648   3.982   5.151   4.614  0.2472  1.1642 -1.0873
  346MOL0     H46649   3.975   4.855   4.562 -0.4210 -0.3997 -2.2479
  346MOL0     H46650   4.117   4.908   4.480  0.3686 -1.8493  0.1158
  346MOL0     H46651   4.198   5.007   4.684  1.6073 -0.3731 -0.0029
  346MOL0     H46652   4.053   4.969   4.768  1.4928  1.7872 -0.3908
  346MOL0     H46653   4.111   4.715   4.726 -2.1077  1.4938  1.2773
  346MOL0     H46654   4.266   4.772   4.660 -0.6297  0.4652  0.5385
  346MOL0     H46655   4.336   4.833   4.880  0.5922 -0.0682  1.5816
  346MOL0     H46656   4.171   4.869   4.935 -1.9689 -0.5619 -1.7921
  346MOL0     H46657   4.144   4.619   4.944  2.5488 -2.1095 -0.1843
  346MOL0     H46658   4.308   4.613   4.862  0.9814  0.9580 -0.8440
  346MOL0     H46659   4.289   4.587   5.119  0.4096  0.3069 -0.4784
  346MOL0     H46660   4.285   4.757   5.126 -0.4213  0.0059  0.3201
  346MOL0     H46661   4.500   4.873   5.127  0.5663  0.2719  1.1983
  346MOL0     H46662   4.798   4.905   5.137  1.1800 -1.4693  3.8388
  346MOL0     H46663   4.870   4.745   5.138  0.4307  1.0941  1.0862
  346MOL0     H46664   4.785   4.866   4.871  0.2192  1.9766  0.9110
  346MOL0     H46665   4.908   4.749   4.893 -0.9378  0.6522 -1.9001
  346MOL0     H46666   5.031   4.935   5.030  0.1062 -4.3309 -0.3473
  346MOL0     H46667   4.915   5.046   4.954  0.4276 -0.0105  2.6210
  346MOL0     H46668   5.116   4.856   4.811 -1.3187 -1.3256 -2.8532
  346MOL0     H46669   5.117   5.037   4.830 -0.3594 -1.2515  3.7727
  346MOL0     H46670   4.815   4.999   4.498  0.8035  0.5412  0.4358
  346MOL0     H46671   4.856   5.043   4.165 -3.1467 -0.0339 -0.8893
  346MOL0     H46672   4.809   4.868   4.205 -1.6313  0.8645 -1.6454
  346MOL0     H46673   4.743   5.013   4.280  0.3437  0.1682  1.2567
  346MOL0     H46674   5.505   5.037   4.102 -1.3070 -0.1572  1.1948
  346MOL0     H46675   5.610   5.124   3.896 -0.8915  1.4882  0.5386
  346MOL0     H46676   5.448   5.374   3.649  1.6198  0.7960 -2.7777
  346MOL0     H46677   5.578   5.348   3.766  0.3906 -1.8595  0.7997
  346MOL0     H46678   5.720   5.270   3.581 -1.8632 -0.0073  3.3320
  346MOL0     H46679   5.588   5.280   3.469 -0.3849 -2.0018  1.4614
  346MOL0     H46680   5.668   5.538   3.635 -4.5895  0.0623 -0.3590
  346MOL0     H46681   5.565   5.532   3.494  0.1867  0.1050 -0.5458
  346MOL0     H46682   5.873   5.508   3.528 -1.5306 -0.3607  2.3274
  346MOL0     H46683   5.784   5.435   3.381 -0.8493 -0.1275 -0.3202
  346MOL0     H46684   5.895   5.667   3.356  0.3268 -0.4108  1.3820
  346MOL0     H46685   5.762   5.734   3.447 -1.2803  1.8079 -3.6143
  346MOL0     H46686   5.742   5.591   3.190 -0.7718 -0.5731  1.0102
  346MOL0     H46687   5.598   5.615   3.281  0.6092 -0.3203  0.5989
  346MOL0     H46688   5.798   5.813   3.180 -1.0929 -0.1386 -4.5278
  346MOL0     H46689   5.658   5.868   3.285 -0.6081  1.1677 -1.5539
  346MOL0     H46690   5.611   5.723   3.014 -1.2876  0.9379 -1.2186
  346MOL0     H46691   5.634   5.906   3.052 -0.0871 -0.9152 -2.3919
  346MOL0     H46692   5.220   5.201   3.741  2.6019 -1.9057 -3.5610
  346MOL0     H46693   5.121   5.115   3.929 -0.5844  0.1645 -1.1278
  346MOL0     H46694   5.290   4.980   4.374  0.1393 -1.3252 -0.1614
  346MOL0     H46695   5.216   4.960   4.629 -0.2486 -2.0744  0.7525
  346MOL0     H46696   3.716   4.779   4.403  0.1894 -0.9239 -0.7887
  346MOL0     H46697   3.496   4.719   4.303 -0.6299  0.0691  0.7998
  346MOL0     H46698   3.139   4.726   4.182  2.5456 -0.2400  3.0745
  346MOL0     H46699   2.946   4.565   4.122  0.4445 -1.9285  0.9957
  346MOL0     H46700   2.856   4.283   4.359 -0.2020 -0.0686  2.1518
  346MOL0     H46701   2.752   4.372   4.457  2.7570  0.3282  0.8423
  346MOL0     H46702   2.555   4.304   4.301 -0.1490 -1.0636  0.6398
  346MOL0     H46703   2.650   4.176   4.380  2.3443 -1.2976 -1.0326
  346MOL0     H46704   2.797   4.179   4.151 -0.6283  3.5680 -2.6499
  346MOL0     H46705   2.668   4.274   4.097 -0.1667  1.2749  1.9759
  346MOL0     H46706   2.504   4.090   4.205 -0.6792 -2.1194 -1.0662
  346MOL0     H46707   2.636   3.989   4.185 -1.1562  0.1364  2.6485
  346MOL0     H46708   2.485   4.024   3.784 -0.3641 -1.9575  0.2412
  346MOL0     H46709   2.814   4.581   4.526 -0.2608 -2.3255 -1.0672
  346MOL0     H46710   2.976   4.756   4.570  2.5475 -4.6404  2.2392
  347MOL0     O46711   9.851   1.557  10.287 -0.4245 -0.0419  0.6567
  347MOL0     C46712   9.936   1.647  10.289  0.1544  0.9848 -0.3120
  347MOL0     O46713   9.923   1.783  10.299 -0.7261 -0.0047  0.4100
  347MOL0     C46714   9.802   1.843  10.297  0.1748  0.4203 -0.0113
  347MOL0     C46715   9.799   1.965  10.356  0.2788 -0.4800  0.1310
  347MOL0     C46716   9.678   2.038  10.374  0.9963 -0.9101  0.4552
  347MOL0     C46717   9.562   1.980  10.339  0.8235  0.0184  0.5676
  347MOL0     O46718   9.450   2.056  10.350 -0.5594 -0.2282 -0.3129
  347MOL0     C46719   9.322   1.991  10.339  0.1562  0.6981  0.2364
  347MOL0     C46720   9.203   2.090  10.350  0.0198  0.0339 -0.9703
  347MOL0     C46721   9.201   2.194  10.232 -0.1312 -0.2928 -0.5129
  347MOL0     C46722   9.269   2.332  10.250  0.1960  0.1883 -0.7952
  347MOL0     C46723   9.266   2.415  10.126  0.0131 -0.4755  1.4986
  347MOL0     C46724   9.312   2.564  10.149  0.1012  0.4628  0.3068
  347MOL0     C46725   9.362   2.632  10.020  0.2567  0.0570  0.1837
  347MOL0     C46726   9.255   2.636   9.911  0.3178 -0.2157  0.0169
  347MOL0     N46727   9.285   2.720   9.794 -0.4107  0.4072 -0.0026
  347MOL0     C46728   9.382   2.700   9.698 -1.2034  0.5118 -0.6524
  347MOL0     C46729   9.369   2.801   9.605  1.0147  0.0325  0.1575
  347MOL0     C46730   9.480   2.838   9.506 -0.5423  0.5429  0.5485
  347MOL0     C46731   9.431   2.842   9.358 -0.5982 -0.2128 -0.7803
  347MOL0     C46732   9.409   2.693   9.329  0.0410  0.4221  0.1646
  347MOL0     C46733   9.308   2.659   9.224 -0.0009  0.2391  0.0419
  347MOL0     O46734   9.187   2.599   9.261  0.2252 -0.0054 -0.7930
  347MOL0     C46735   9.094   2.558   9.175  0.0791 -0.2655 -0.1578
  347MOL0     C46736   9.098   2.602   9.039  0.6172 -0.6299 -0.8245
  347MOL0     C46737   9.003   2.553   8.943  0.4816  0.9139 -0.1072
  347MOL0     C46738   9.018   2.596   8.797 -1.0093  0.6188 -0.6666
  347MOL0     C46739   8.906   2.455   8.984  0.2932 -1.0139  0.0783
  347MOL0     C46740   8.806   2.377   8.898  0.0059 -0.1298  0.2077
  347MOL0     O46741   8.838   2.363   8.771  0.4049 -0.8856 -0.4223
  347MOL0     C46742   8.731   2.328   8.692  0.0800 -0.3550  0.6520
  347MOL0     C46743   8.720   2.204   8.632  0.0168 -0.2136 -0.7000
  347MOL0     C46744   8.614   2.173   8.549 -0.0806  0.6144  0.4517
  347MOL0     C46745   8.512   2.266   8.523 -0.6672  0.1755 -0.1940
  347MOL0     O46746   8.409   2.241   8.444 -1.1790 -0.0802  0.2964
  347MOL0     C46747   8.424   2.136   8.342  0.3652 -0.4152 -0.5042
  347MOL0     C46748   8.299   2.129   8.246 -0.4465 -0.4389  0.1571
  347MOL0     C46749   8.168   2.100   8.316 -0.1752  0.2732  0.6066
  347MOL0     C46750   8.051   2.065   8.223 -0.1742  0.3550 -0.2682
  347MOL0     C46751   7.983   2.197   8.175  0.2981 -0.8327  1.1401
  347MOL0     C46752   7.929   2.174   8.029 -0.1319 -0.7476  1.6230
  347MOL0     C46753   7.879   2.303   7.971 -0.3732  0.3084 -0.0367
  347MOL0     C46754   7.990   2.406   7.943  0.1869 -0.2382 -0.8091
  347MOL0    Cl46755   8.109   2.340   7.832  0.1255  0.2335  0.1204
  347MOL0     C46756   8.519   2.393   8.579  0.0333  0.9009  0.9085
  347MOL0     C46757   8.619   2.426   8.663  0.2999  0.9275 -0.4172
  347MOL0     O46758   8.697   2.362   8.955  0.2382 -0.8601 -0.8452
  347MOL0     C46759   8.902   2.422   9.121  0.6043 -0.6566 -1.0918
  347MOL0     C46760   8.990   2.474   9.204 -1.8271  0.4421  0.1673
  347MOL0     N46761   9.261   2.874   9.656  0.0259  0.1437  0.1234
  347MOL0     N46762   9.216   2.832   9.765  0.0026 -0.4417  0.5649
  347MOL0     C46763   9.554   1.847  10.283 -0.6456 -0.1565 -0.3615
  347MOL0     C46764   9.672   1.779  10.264 -0.0935 -0.0865  0.6481
  347MOL0     C46765  10.074   1.593  10.270 -0.0932 -1.6021 -0.3971
  347MOL0     C46766  10.177   1.682  10.256 -0.1811 -0.1863  0.4721
  347MOL0     C46767  10.308   1.638  10.229  0.0927  0.2318 -1.3675
  347MOL0     C46768  10.340   1.506  10.234 -0.0398 -0.0627  1.0261
  347MOL0     O46769  10.471   1.471  10.210  0.9202 -0.3048  0.1762
  347MOL0     C46770  10.500   1.338  10.216  0.6398  1.1382  0.5636
  347MOL0     C46771  10.499   1.296  10.363 -0.1329 -0.6082 -0.3232
  347MOL0     C46772  10.449   1.151  10.398  0.7057  0.0975  0.2340
  347MOL0     C46773  10.532   1.086  10.508  0.1878  0.2802  0.8820
  347MOL0     C46774  10.519   1.166  10.632 -1.1034  0.1116  0.3943
  347MOL0     C46775  10.495   1.236  10.721 -0.2794  0.3219 -0.0721
  347MOL0     C46776  10.235   1.416  10.258  0.1560  0.0488 -0.0094
  347MOL0     C46777  10.100   1.454  10.281 -0.6019 -0.1203 -0.9759
  347MOL0     H46778   9.889   2.021  10.380 -0.0271  0.7017 -1.3145
  347MOL0     H46779   9.679   2.141  10.409  1.0687 -0.1393 -1.6844
  347MOL0     H46780   9.320   1.946  10.239 -0.6153 -1.4045  1.1362
  347MOL0     H46781   9.307   1.910  10.411  1.0768 -0.1763 -0.5300
  347MOL0     H46782   9.112   2.030  10.337  0.1690 -0.7496  1.2151
  347MOL0     H46783   9.205   2.141  10.446  2.3615  0.6119 -1.2581
  347MOL0     H46784   9.255   2.156  10.144 -1.0206 -2.9692 -0.0067
  347MOL0     H46785   9.096   2.218  10.211  0.5204  2.2381 -1.2497
  347MOL0     H46786   9.201   2.376  10.324  0.3993 -2.2594  0.9606
  347MOL0     H46787   9.365   2.298  10.290 -1.3712 -4.8206 -0.6734
  347MOL0     H46788   9.327   2.369  10.048 -0.1554  0.7028  0.6543
  347MOL0     H46789   9.164   2.425  10.089  0.3080  2.8589  1.3060
  347MOL0     H46790   9.233   2.631  10.184  0.5027  0.4402  1.2719
  347MOL0     H46791   9.393   2.563  10.222  1.2903 -3.3132 -0.8242
  347MOL0     H46792   9.400   2.732  10.042  0.5070 -0.7022  3.8262
  347MOL0     H46793   9.448   2.574   9.984  1.5168  3.5033 -3.0958
  347MOL0     H46794   9.154   2.671   9.938 -1.0303 -1.8533 -2.4842
  347MOL0     H46795   9.232   2.534   9.879  0.6874 -1.0403  2.2355
  347MOL0     H46796   9.463   2.629   9.709 -2.0307 -0.3107  0.4151
  347MOL0     H46797   9.517   2.934   9.542 -2.2447  0.9285  1.4022
  347MOL0     H46798   9.559   2.763   9.515  0.7883  2.1315  3.4424
  347MOL0     H46799   9.501   2.891   9.290  0.9568 -1.4568 -0.1215
  347MOL0     H46800   9.339   2.902   9.365  0.8282  1.8856  2.6163
  347MOL0     H46801   9.370   2.638   9.414  0.5852  1.1103  0.8737
  347MOL0     H46802   9.508   2.652   9.305  0.1882  1.5460 -1.3650
  347MOL0     H46803   9.353   2.607   9.139 -2.4057 -0.8124 -0.6656
  347MOL0     H46804   9.288   2.754   9.174  1.0569  0.6823  0.4291
  347MOL0     H46805   9.181   2.652   8.989  1.6486 -0.1502  1.2699
  347MOL0     H46806   8.927   2.610   8.738 -2.1206  0.4660  0.9717
  347MOL0     H46807   9.079   2.687   8.788 -1.6067  1.1607  0.5318
  347MOL0     H46808   9.074   2.518   8.744  0.6822  1.9124 -0.8993
  347MOL0     H46809   8.799   2.132   8.649  1.2604  0.9697 -1.2970
  347MOL0     H46810   8.606   2.074   8.504 -1.4010  0.4955  0.9200
  347MOL0     H46811   8.511   2.151   8.277  0.5848 -0.2303 -0.1753
  347MOL0     H46812   8.443   2.037   8.387  1.0685  0.4133  1.1212
  347MOL0     H46813   8.287   2.224   8.193 -2.0110  0.0913  1.3883
  347MOL0     H46814   8.313   2.040   8.184  1.2562 -0.6502  0.7760
  347MOL0     H46815   8.146   2.185   8.381  2.4722  0.5497  1.2635
  347MOL0     H46816   8.187   2.007   8.371 -0.8548  0.5843  1.3899
  347MOL0     H46817   8.090   2.004   8.140  3.3503  2.2889 -0.2092
  347MOL0     H46818   7.969   2.008   8.268  0.5369 -1.1258 -0.7808
  347MOL0     H46819   8.062   2.273   8.172  0.8949 -1.4633  0.4539
  347MOL0     H46820   7.912   2.227   8.252  0.7867 -3.5482  2.7870
  347MOL0     H46821   8.009   2.129   7.969 -1.9107  0.4016 -1.9268
  347MOL0     H46822   7.842   2.108   8.033 -1.1936  0.5371  0.6228
  347MOL0     H46823   7.801   2.345   8.035 -1.3139  1.2272 -1.7159
  347MOL0     H46824   7.822   2.277   7.881 -2.5952  2.0730  0.7731
  347MOL0     H46825   8.043   2.437   8.033  2.5260 -3.0464 -1.0915
  347MOL0     H46826   7.940   2.492   7.897 -2.4820 -1.5503 -0.5954
  347MOL0     H46827   8.435   2.461   8.570  0.1507  1.2031  1.9558
  347MOL0     H46828   8.620   2.528   8.699  0.6996  1.4528 -1.8290
  347MOL0     H46829   8.842   2.340   9.157 -0.1382  0.6903  0.8804
  347MOL0     H46830   8.982   2.437   9.306 -1.2312  1.8073  0.7358
  347MOL0     H46831   9.470   1.796  10.236 -0.0472  0.0293 -1.6851
  347MOL0     H46832   9.673   1.680  10.219  2.4053  0.3466 -0.3928
  347MOL0     H46833  10.164   1.789  10.264  1.7464  0.0813  0.3964
  347MOL0     H46834  10.383   1.717  10.229 -0.3250  0.7345  1.0961
  347MOL0     H46835  10.417   1.284  10.170  0.5689 -0.5227  2.4673
  347MOL0     H46836  10.597   1.311  10.175 -1.4873 -4.0424 -2.0756
  347MOL0     H46837  10.423   1.351  10.418 -1.5877 -1.3290 -1.5109
  347MOL0     H46838  10.605   1.302  10.390  0.3614 -1.5624 -1.8745
  347MOL0     H46839  10.458   1.088  10.308  1.9141  2.4055 -1.3655
  347MOL0     H46840  10.344   1.151  10.428  0.1835  0.4606 -1.4624
  347MOL0     H46841  10.637   1.077  10.479  0.7422  2.0389  2.1183
  347MOL0     H46842  10.499   0.985  10.532  1.4238  0.0631  1.7674
  347MOL0     H46843  10.463   1.302  10.799 -1.5350 -0.0436 -0.2590
  347MOL0     H46844  10.241   1.309  10.272 -0.5025 -1.0424 -5.7100
  347MOL0     H46845  10.027   1.377  10.304  0.3901 -1.3729 -1.8802
  348MOL0     O46846   4.333   1.221   7.567 -0.1445 -0.9826  0.3892
  348MOL0     C46847   4.366   1.250   7.679  0.0769 -0.2235  0.3596
  348MOL0     O46848   4.418   1.375   7.711  0.4385  0.0908 -0.5728
  348MOL0     C46849   4.401   1.478   7.618 -0.0572  1.4961  0.0424
  348MOL0     C46850   4.489   1.464   7.512  0.4449 -0.8515 -0.1180
  348MOL0     C46851   4.496   1.568   7.415 -0.0142  0.2791 -0.1291
  348MOL0     C46852   4.414   1.679   7.417 -0.7390  0.5126  0.1958
  348MOL0     O46853   4.409   1.761   7.307 -0.4613 -0.7919  0.0442
  348MOL0     C46854   4.353   1.691   7.193 -0.4478 -0.3840  0.2475
  348MOL0     C46855   4.341   1.800   7.085  0.5087 -0.3586 -0.7049
  348MOL0     C46856   4.226   1.795   6.995 -0.1035  0.1427  0.7324
  348MOL0     C46857   4.190   1.934   6.945 -0.6635 -0.1336  0.8399
  348MOL0     C46858   4.298   2.008   6.870 -0.3399  0.3488  0.9386
  348MOL0     C46859   4.321   1.940   6.737  0.0310 -1.0068 -0.2922
  348MOL0     C46860   4.222   1.980   6.626  0.1470  0.7461 -0.5098
  348MOL0     C46861   4.297   2.042   6.506 -1.3019 -0.3771  0.1838
  348MOL0     N46862   4.358   1.945   6.408 -0.9917  0.2043  1.1112
  348MOL0     C46863   4.482   1.890   6.411  0.0254  0.1254 -1.0779
  348MOL0     C46864   4.485   1.797   6.310 -0.5732  0.1084  0.0808
  348MOL0     C46865   4.589   1.692   6.282 -1.1893  0.7973 -0.0168
  348MOL0     C46866   4.506   1.564   6.261 -0.1658 -1.0534  0.5993
  348MOL0     C46867   4.592   1.445   6.243  0.0428 -0.6913  0.7527
  348MOL0     C46868   4.702   1.442   6.127 -0.0559  0.2839 -0.7366
  348MOL0     O46869   4.628   1.461   6.006 -0.0917 -0.7887  0.5408
  348MOL0     C46870   4.711   1.455   5.888 -0.0608  0.5144 -0.7030
  348MOL0     C46871   4.842   1.402   5.900 -0.2134 -0.4212  0.6297
  348MOL0     C46872   4.924   1.357   5.791  0.2179 -0.3794  0.4295
  348MOL0     C46873   5.040   1.265   5.817  0.2597 -1.0623 -0.4651
  348MOL0     C46874   4.872   1.391   5.658 -1.0380 -0.1876  0.2648
  348MOL0     C46875   4.941   1.355   5.523 -0.2528  0.6686 -0.6564
  348MOL0     O46876   4.869   1.316   5.416 -0.3940 -0.5359  0.0317
  348MOL0     C46877   4.946   1.252   5.319 -0.3984  0.0857 -1.0509
  348MOL0     C46878   5.044   1.160   5.331 -0.2504 -0.3396  0.4747
  348MOL0     C46879   5.102   1.094   5.217 -0.1234  0.6091  0.3004
  348MOL0     C46880   5.068   1.124   5.088 -0.1144 -0.3149  0.0686
  348MOL0     O46881   5.118   1.060   4.978  0.5227 -0.3398 -0.3042
  348MOL0     C46882   5.257   1.046   4.987 -0.0257 -0.0657 -1.2287
  348MOL0     C46883   5.314   0.999   4.855 -0.0276  0.1664 -0.4529
  348MOL0     C46884   5.468   1.035   4.827  0.4639 -0.2140 -0.4097
  348MOL0     C46885   5.569   0.945   4.900  0.5995 -0.2916  0.8199
  348MOL0     C46886   5.566   0.949   5.055 -0.0618  0.1460 -0.0723
  348MOL0     C46887   5.551   0.807   5.123 -0.5026 -0.8609  0.0981
  348MOL0     C46888   5.672   0.716   5.086 -0.7134  0.2430 -0.7500
  348MOL0     C46889   5.677   0.580   5.151  0.6536  0.1810 -1.2464
  348MOL0    Cl46890   5.714   0.587   5.320  0.0240 -0.0254 -0.1579
  348MOL0     C46891   4.977   1.233   5.075  0.1878  0.1118 -0.1485
  348MOL0     C46892   4.915   1.287   5.184 -0.5366 -0.1108 -0.5974
  348MOL0     O46893   5.063   1.382   5.523  0.3757  0.5407  0.1239
  348MOL0     C46894   4.742   1.447   5.643  0.0504 -0.3698 -0.5917
  348MOL0     C46895   4.664   1.476   5.762  0.2574 -0.1206 -0.1157
  348MOL0     N46896   4.359   1.809   6.249 -0.3104  0.2539 -0.2608
  348MOL0     N46897   4.286   1.890   6.312 -0.0432  0.3074 -0.3839
  348MOL0     C46898   4.324   1.688   7.522 -0.0951 -0.5770  0.0764
  348MOL0     C46899   4.318   1.589   7.625 -0.6586  0.2405  0.2196
  348MOL0     C46900   4.335   1.157   7.786 -1.1502 -0.2306 -1.1381
  348MOL0     C46901   4.328   1.021   7.777  0.3028 -0.3970 -0.1577
  348MOL0     C46902   4.281   0.940   7.884 -0.3246  0.5261  0.9053
  348MOL0     C46903   4.251   0.995   8.001  0.7176  0.7954  0.7816
  348MOL0     O46904   4.202   0.904   8.087 -0.5959 -0.1665 -0.8825
  348MOL0     C46905   4.162   0.940   8.226  0.6955 -0.3961  0.6318
  348MOL0     C46906   4.167   0.805   8.299  0.9558 -0.3223  0.2258
  348MOL0     C46907   4.166   0.813   8.456  0.1268 -0.8318  0.0310
  348MOL0     C46908   4.114   0.690   8.521 -1.1966  0.1980  0.0421
  348MOL0     C46909   4.197   0.573   8.489  0.1945  0.0431 -0.0395
  348MOL0     C46910   4.269   0.485   8.467 -1.0351 -0.1443 -0.3074
  348MOL0     C46911   4.252   1.135   8.022  0.0353 -0.1463  0.1646
  348MOL0     C46912   4.296   1.214   7.912 -0.4189 -0.4386  0.5616
  348MOL0     H46913   4.554   1.377   7.506  0.1562 -1.2704  2.0136
  348MOL0     H46914   4.566   1.545   7.335  2.3089 -2.0729  2.3605
  348MOL0     H46915   4.419   1.615   7.150 -0.9711  0.4341 -2.1272
  348MOL0     H46916   4.264   1.631   7.215  0.1854 -0.9597  1.3143
  348MOL0     H46917   4.343   1.900   7.128 -2.4616 -0.3365 -0.4155
  348MOL0     H46918   4.437   1.801   7.032  0.5193 -0.5685 -0.6928
  348MOL0     H46919   4.254   1.718   6.923 -1.3331  0.5172 -0.1909
  348MOL0     H46920   4.137   1.755   7.044  0.0963  0.5665  1.4597
  348MOL0     H46921   4.103   1.928   6.878  1.1384  2.3714 -1.9589
  348MOL0     H46922   4.167   2.010   7.021  1.3361  2.4067 -0.8864
  348MOL0     H46923   4.271   2.113   6.855  1.8623  1.2612  2.6835
  348MOL0     H46924   4.387   2.019   6.933 -0.4623  0.5500  1.0773
  348MOL0     H46925   4.423   1.973   6.714  0.5105 -0.5800  2.1432
  348MOL0     H46926   4.323   1.832   6.750  2.6120 -0.8386  1.6275
  348MOL0     H46927   4.148   1.902   6.605  1.5283 -2.0604  3.7633
  348MOL0     H46928   4.160   2.059   6.668  0.4889 -0.3835  2.3492
  348MOL0     H46929   4.379   2.105   6.540  0.4433 -2.1028 -0.5954
  348MOL0     H46930   4.233   2.110   6.450  0.8589  0.6269 -1.2166
  348MOL0     H46931   4.561   1.907   6.483 -0.3196 -1.3216 -0.3237
  348MOL0     H46932   4.648   1.715   6.193 -0.9409  0.4060  0.0468
  348MOL0     H46933   4.648   1.687   6.374 -3.8224 -2.4067  1.7431
  348MOL0     H46934   4.440   1.584   6.175  1.6630  4.0631  0.0062
  348MOL0     H46935   4.454   1.543   6.355  0.0915 -1.4851  0.6454
  348MOL0     H46936   4.526   1.360   6.221  0.8218 -0.7132 -1.7248
  348MOL0     H46937   4.642   1.439   6.341  1.4627  0.9578  0.1772
  348MOL0     H46938   4.760   1.349   6.131  2.2454  1.6440 -0.7558
  348MOL0     H46939   4.776   1.517   6.156 -0.5823 -0.2793  2.5228
  348MOL0     H46940   4.894   1.371   5.990 -0.9397  0.3430  1.3294
  348MOL0     H46941   4.997   1.198   5.892 -1.1385  1.7527  1.4071
  348MOL0     H46942   5.080   1.227   5.722  0.6574  1.1772 -1.2555
  348MOL0     H46943   5.125   1.320   5.858 -0.6281 -1.0171  1.3930
  348MOL0     H46944   5.087   1.142   5.429  1.1288 -0.4746 -0.1222
  348MOL0     H46945   5.172   1.015   5.242  1.0385  1.4469 -0.2009
  348MOL0     H46946   5.307   1.141   5.007  1.2912 -1.2360  1.7177
  348MOL0     H46947   5.272   0.963   5.057 -3.1866 -0.1595 -0.5136
  348MOL0     H46948   5.280   0.896   4.847  0.4730  0.0606 -1.3764
  348MOL0     H46949   5.258   1.052   4.777  1.1093  0.3504 -1.1644
  348MOL0     H46950   5.504   1.136   4.849  3.0506 -1.1024 -0.1468
  348MOL0     H46951   5.475   1.010   4.721  2.5719  1.2412 -0.6755
  348MOL0     H46952   5.555   0.842   4.867  4.6900 -1.0100  0.8794
  348MOL0     H46953   5.670   0.972   4.868  1.4636 -3.0288  0.9546
  348MOL0     H46954   5.483   1.006   5.097 -1.7069 -2.9763  1.3187
  348MOL0     H46955   5.657   1.002   5.084  0.9348 -2.3567  1.7497
  348MOL0     H46956   5.540   0.820   5.231 -2.1789  1.6127 -0.2911
  348MOL0     H46957   5.454   0.771   5.087 -1.8152  2.1879  0.3221
  348MOL0     H46958   5.771   0.755   5.112 -1.0378  0.8821 -0.4511
  348MOL0     H46959   5.668   0.703   4.977 -0.1110 -1.7377 -0.5673
  348MOL0     H46960   5.755   0.521   5.102 -0.7514 -1.0564 -2.0729
  348MOL0     H46961   5.579   0.533   5.136  0.6240 -1.7407  3.2626
  348MOL0     H46962   4.943   1.275   4.981 -2.2678  1.0439  1.0586
  348MOL0     H46963   4.858   1.379   5.175  0.9041  0.8768 -0.0538
  348MOL0     H46964   4.702   1.458   5.543 -2.7307  0.5224  0.5384
  348MOL0     H46965   4.563   1.514   5.765  0.0786 -0.6015  2.7118
  348MOL0     H46966   4.250   1.768   7.521 -0.2884 -0.7406 -1.8965
  348MOL0     H46967   4.257   1.581   7.715 -2.6856 -2.6543 -1.2750
  348MOL0     H46968   4.361   0.975   7.684 -0.8565  0.0334 -0.8001
  348MOL0     H46969   4.260   0.834   7.871 -1.4778  0.7257  1.0671
  348MOL0     H46970   4.236   1.005   8.272 -0.8968  1.3184  0.8911
  348MOL0     H46971   4.060   0.980   8.234  0.6700  0.0857 -1.5820
  348MOL0     H46972   4.259   0.756   8.268 -0.1094 -0.9097 -2.1905
  348MOL0     H46973   4.078   0.749   8.269  0.3382 -0.7885  2.6984
  348MOL0     H46974   4.111   0.903   8.484  1.6421  1.3020 -3.2203
  348MOL0     H46975   4.270   0.830   8.485 -0.2976  0.5286  0.8047
  348MOL0     H46976   4.009   0.677   8.492 -1.3716 -0.1446  0.7790
  348MOL0     H46977   4.129   0.706   8.628 -1.4519 -0.3995  0.1766
  348MOL0     H46978   4.341   0.406   8.467 -0.2718  0.5418  0.1963
  348MOL0     H46979   4.232   1.178   8.120  1.6291 -0.3260  0.5883
  348MOL0     H46980   4.299   1.320   7.934  1.6254 -0.4181  0.3743
  349MOL0     O46981  11.000   3.074   4.521 -0.1136 -0.1421  0.1194
  349MOL0     C46982  10.941   2.970   4.534  1.0031  0.7902 -0.4020
  349MOL0     O46983  10.958   2.849   4.459  0.3201 -0.2727  0.3030
  349MOL0     C46984  11.087   2.819   4.423 -0.4465  1.6021 -0.7918
  349MOL0     C46985  11.200   2.871   4.489  1.1350  0.1838 -0.2884
  349MOL0     C46986  11.335   2.848   4.447  0.4599 -0.1837 -0.3756
  349MOL0     C46987  11.354   2.780   4.321  0.0168  0.5699  0.1243
  349MOL0     O46988  11.477   2.776   4.258 -0.7303 -0.5342 -0.2962
  349MOL0     C46989  11.533   2.643   4.253  0.2475  0.1141  0.8446
  349MOL0     C46990  11.683   2.635   4.195  0.4176 -0.1426 -0.6844
  349MOL0     C46991  11.795   2.697   4.287  0.5241 -0.5689 -0.0881
  349MOL0     C46992  11.817   2.621   4.421  0.2302  0.3596  0.9696
  349MOL0     C46993  11.930   2.686   4.504 -0.2843  0.3265  0.5725
  349MOL0     C46994  11.939   2.621   4.642 -0.5472  0.0693  0.4978
  349MOL0     C46995  11.986   2.733   4.744 -0.9068 -0.6960  0.0470
  349MOL0     C46996  11.884   2.772   4.856  0.3630  0.8109 -0.1590
  349MOL0     N46997  11.753   2.827   4.803 -0.2340 -0.8385  0.3224
  349MOL0     C46998  11.687   2.923   4.882  0.5305 -0.9848  0.6677
  349MOL0     C46999  11.584   2.958   4.794 -0.4199 -0.2916 -0.9698
  349MOL0     C47000  11.467   3.060   4.807  1.4666  0.3504  0.4311
  349MOL0     C47001  11.351   3.010   4.893  0.2383 -0.9125 -1.2527
  349MOL0     C47002  11.231   3.094   4.869 -0.1799 -0.9546  0.1489
  349MOL0     C47003  11.244   3.246   4.909 -0.1646 -0.3910 -0.4847
  349MOL0     O47004  11.261   3.259   5.053  0.7889 -0.0426  0.0605
  349MOL0     C47005  11.320   3.365   5.108  0.1068  0.4225  0.6867
  349MOL0     C47006  11.384   3.340   5.230  0.3690  0.4112  0.7368
  349MOL0     C47007  11.446   3.442   5.307 -0.3450  0.0702  0.0357
  349MOL0     C47008  11.509   3.392   5.436 -0.6411  0.0201  0.5150
  349MOL0     C47009  11.436   3.571   5.257  0.0872 -0.2352 -0.0363
  349MOL0     C47010  11.493   3.689   5.334 -0.8376  0.4294  0.5684
  349MOL0     O47011  11.411   3.798   5.344  0.0035 -0.3961  0.5161
  349MOL0     C47012  11.445   3.918   5.402  0.0233 -0.0054  1.2950
  349MOL0     C47013  11.576   3.955   5.431 -0.8045 -0.3924  0.3695
  349MOL0     C47014  11.606   4.076   5.490 -1.3606 -0.7532 -0.1611
  349MOL0     C47015  11.507   4.169   5.528  0.1661  0.7160 -0.9828
  349MOL0     O47016  11.556   4.276   5.599  0.4687 -0.0447 -0.3894
  349MOL0     C47017  11.466   4.375   5.653  0.0857 -0.0221 -0.3738
  349MOL0     C47018  11.405   4.321   5.776 -0.6344 -0.1481  0.2240
  349MOL0     C47019  11.276   4.396   5.823  0.2615  1.4453 -0.0352
  349MOL0     C47020  11.165   4.340   5.730 -0.8986 -0.1946  0.7716
  349MOL0     C47021  11.029   4.373   5.785 -0.0580  0.0484  0.0027
  349MOL0     C47022  10.923   4.424   5.684  0.2152  0.3973 -0.0236
  349MOL0     C47023  10.944   4.571   5.646 -0.8178  0.6890 -0.6571
  349MOL0     C47024  10.912   4.608   5.502  0.0411 -0.0098 -0.3090
  349MOL0    Cl47025  11.033   4.525   5.404  0.4771  0.0182  0.4544
  349MOL0     C47026  11.374   4.142   5.499  0.0092  0.0835  0.0461
  349MOL0     C47027  11.348   4.017   5.432  0.4583  0.1650  0.5178
  349MOL0     O47028  11.603   3.679   5.386 -0.3455 -0.4778 -0.0829
  349MOL0     C47029  11.374   3.601   5.140  0.7792 -0.9045 -0.1034
  349MOL0     C47030  11.307   3.496   5.063 -0.0750 -0.8004 -0.2236
  349MOL0     N47031  11.594   2.883   4.680  0.2656 -0.1502  0.1122
  349MOL0     N47032  11.692   2.795   4.690  0.1570 -0.7620  0.3495
  349MOL0     C47033  11.238   2.725   4.256 -0.0400  0.0637 -0.4325
  349MOL0     C47034  11.102   2.745   4.305  1.0474 -0.2405 -0.0964
  349MOL0     C47035  10.824   2.967   4.618 -0.6960  0.0304 -0.6226
  349MOL0     C47036  10.783   3.082   4.701 -0.2833 -0.0893  0.7888
  349MOL0     C47037  10.677   3.086   4.790 -1.3381 -0.7980 -1.1401
  349MOL0     C47038  10.610   2.968   4.824 -0.3715  0.0692  0.5883
  349MOL0     O47039  10.511   2.979   4.917  0.2731  0.1803  0.2653
  349MOL0     C47040  10.423   2.869   4.916 -0.4297 -0.5344 -0.3334
  349MOL0     C47041  10.291   2.877   4.986 -0.1282  0.1155 -0.4854
  349MOL0     C47042  10.308   2.880   5.138  0.7449 -1.7756  0.0500
  349MOL0     C47043  10.163   2.901   5.201 -0.0514  0.3484 -0.1544
  349MOL0     C47044  10.162   2.861   5.344 -0.0436 -0.3346 -0.4229
  349MOL0     C47045  10.157   2.839   5.467  0.3043 -0.6300 -0.1421
  349MOL0     C47046  10.650   2.853   4.738 -0.6730 -0.3361 -0.0508
  349MOL0     C47047  10.749   2.857   4.638  0.7554  0.0822 -0.1935
  349MOL0     H47048  11.195   2.937   4.575  0.9304  1.2024 -1.0642
  349MOL0     H47049  11.417   2.896   4.498  3.2666 -1.0858 -3.6532
  349MOL0     H47050  11.544   2.612   4.357  1.6441  1.0427  1.0002
  349MOL0     H47051  11.470   2.566   4.207 -0.6821  0.5497  1.3710
  349MOL0     H47052  11.698   2.527   4.189  1.5454 -0.2508  2.4010
  349MOL0     H47053  11.690   2.681   4.096  0.2085 -3.3492 -2.3155
  349MOL0     H47054  11.887   2.679   4.231  0.2909  1.8482 -1.3879
  349MOL0     H47055  11.788   2.806   4.287  1.1652 -0.5086  1.0985
  349MOL0     H47056  11.721   2.631   4.474  0.0229 -0.4514  0.7504
  349MOL0     H47057  11.840   2.516   4.403 -1.3877  0.2082 -0.3706
  349MOL0     H47058  12.028   2.700   4.458  0.2814  1.6955  2.0743
  349MOL0     H47059  11.887   2.787   4.509 -0.4306  0.2937  0.0476
  349MOL0     H47060  11.840   2.588   4.675 -1.2487  1.8930  0.3425
  349MOL0     H47061  12.008   2.536   4.636  0.3969  0.5681  3.0614
  349MOL0     H47062  12.080   2.700   4.789 -0.3447  0.6970 -0.0422
  349MOL0     H47063  12.005   2.822   4.683 -2.1400 -1.9953 -2.4395
  349MOL0     H47064  11.929   2.846   4.922 -0.8096  2.7782 -1.4487
  349MOL0     H47065  11.862   2.681   4.912  2.9764 -0.0807 -0.4470
  349MOL0     H47066  11.715   2.971   4.976  0.6470  0.7827 -0.2361
  349MOL0     H47067  11.501   3.153   4.855 -1.9498  0.9036  2.1063
  349MOL0     H47068  11.434   3.088   4.707 -0.3806 -0.0049  0.9097
  349MOL0     H47069  11.379   3.007   4.999  0.6654  1.1525 -1.2599
  349MOL0     H47070  11.322   2.908   4.865 -0.5635 -0.2521 -2.9695
  349MOL0     H47071  11.141   3.066   4.926 -4.4073  0.0580 -5.1597
  349MOL0     H47072  11.216   3.085   4.761  0.6421  0.3449 -0.0955
  349MOL0     H47073  11.147   3.291   4.886 -1.0497 -1.1033  1.6435
  349MOL0     H47074  11.322   3.297   4.851  0.7422 -2.4572 -1.1853
  349MOL0     H47075  11.376   3.238   5.268 -1.8792  0.9277  1.8517
  349MOL0     H47076  11.462   3.295   5.455 -2.2271  0.2982 -1.5977
  349MOL0     H47077  11.618   3.390   5.438 -0.4100  2.3323 -2.3442
  349MOL0     H47078  11.488   3.455   5.523  0.6547 -0.4249  1.1716
  349MOL0     H47079  11.664   3.895   5.411  1.9988  3.3632  0.5048
  349MOL0     H47080  11.708   4.106   5.512 -0.8236 -1.7827 -1.1479
  349MOL0     H47081  11.526   4.466   5.651 -1.6930  1.1768 -0.7891
  349MOL0     H47082  11.392   4.402   5.578 -1.1765  0.5307  1.0141
  349MOL0     H47083  11.399   4.213   5.791 -2.7858  0.3157  3.5743
  349MOL0     H47084  11.483   4.342   5.850 -0.7921  1.3261 -0.0088
  349MOL0     H47085  11.291   4.505   5.821 -1.6718  1.7329 -0.1987
  349MOL0     H47086  11.245   4.359   5.921 -1.6171 -2.1003 -1.7831
  349MOL0     H47087  11.192   4.382   5.633  2.2556 -4.5383 -0.4947
  349MOL0     H47088  11.169   4.231   5.727 -0.6191 -0.2110 -3.2095
  349MOL0     H47089  11.032   4.458   5.853  0.4272 -0.7260  0.9727
  349MOL0     H47090  10.997   4.280   5.833  3.1482 -1.5003 -0.6327
  349MOL0     H47091  10.934   4.370   5.590 -1.1618 -0.1584  0.1065
  349MOL0     H47092  10.820   4.409   5.720  0.4450  2.2134  1.6062
  349MOL0     H47093  11.048   4.602   5.659 -0.9020  0.7215 -0.0438
  349MOL0     H47094  10.896   4.634   5.720  2.0550  1.5524  0.6073
  349MOL0     H47095  10.910   4.717   5.492 -1.9026  0.0762  0.6572
  349MOL0     H47096  10.813   4.570   5.476 -0.1665 -1.5198  2.3454
  349MOL0     H47097  11.297   4.207   5.539  0.7494  2.1621 -1.6898
  349MOL0     H47098  11.249   3.978   5.409  0.9113 -2.4381  2.6045
  349MOL0     H47099  11.364   3.706   5.112  0.6603 -0.0414  2.8678
  349MOL0     H47100  11.258   3.533   4.974  0.8673  0.0637 -0.3972
  349MOL0     H47101  11.240   2.647   4.181 -0.0389  1.4350 -1.9306
  349MOL0     H47102  11.016   2.717   4.244  2.0631 -0.6968 -1.3717
  349MOL0     H47103  10.835   3.175   4.680 -3.5895  1.5771 -0.6807
  349MOL0     H47104  10.648   3.173   4.848  0.3345 -1.4468  0.8135
  349MOL0     H47105  10.390   2.856   4.813  1.5287 -3.0325 -0.7354
  349MOL0     H47106  10.480   2.782   4.950 -1.3991 -1.5582 -1.2458
  349MOL0     H47107  10.225   2.795   4.957  2.0691 -1.6588 -0.7354
  349MOL0     H47108  10.241   2.968   4.952 -1.2609 -1.7733 -4.4256
  349MOL0     H47109  10.372   2.963   5.168 -2.3296  0.3121  1.3565
  349MOL0     H47110  10.349   2.793   5.190  1.7397 -0.8015  0.9430
  349MOL0     H47111  10.097   2.828   5.155  1.7190 -0.0924 -2.1475
  349MOL0     H47112  10.138   3.008   5.198  0.3496  0.4268 -0.9114
  349MOL0     H47113  10.153   2.821   5.573 -0.6154  0.5074  0.0369
  349MOL0     H47114  10.612   2.752   4.741  1.9761 -1.5338 -2.3310
  349MOL0     H47115  10.765   2.759   4.593  0.8593  0.3956 -0.8606
  350MOL0     O47116  10.686   5.677   1.775 -0.2289  0.6090 -0.5051
  350MOL0     C47117  10.606   5.583   1.773  1.5474  0.4909  0.1813
  350MOL0     O47118  10.563   5.519   1.883 -0.3476 -0.2793  0.7097
  350MOL0     C47119  10.606   5.551   2.012 -0.0669 -0.0498  0.2374
  350MOL0     C47120  10.617   5.687   2.059 -0.1151 -0.1470  0.6153
  350MOL0     C47121  10.673   5.708   2.184 -0.7476 -0.4063  1.1089
  350MOL0     C47122  10.705   5.602   2.270 -0.7392 -0.0801  0.1088
  350MOL0     O47123  10.754   5.623   2.400 -0.7394  0.7839  0.8767
  350MOL0     C47124  10.825   5.748   2.419 -0.0930  0.6231  0.2463
  350MOL0     C47125  10.905   5.739   2.549  0.5046  0.0638  0.5720
  350MOL0     C47126  10.805   5.702   2.663 -0.2858 -0.1251  0.4893
  350MOL0     C47127  10.844   5.776   2.791  0.6697  0.7564 -0.2405
  350MOL0     C47128  10.976   5.748   2.852 -0.3739 -0.4601  0.4061
  350MOL0     C47129  10.992   5.852   2.961  1.1069 -0.6148  0.3382
  350MOL0     C47130  11.118   5.826   3.033  0.0542  0.9225 -0.7187
  350MOL0     C47131  11.106   5.730   3.157 -0.8006 -0.4729  0.1856
  350MOL0     N47132  11.230   5.654   3.184  0.4323  0.5788 -0.7606
  350MOL0     C47133  11.330   5.701   3.269  0.7461  0.7125 -0.2033
  350MOL0     C47134  11.432   5.615   3.287 -0.1158  0.2928  0.5758
  350MOL0     C47135  11.546   5.622   3.387 -0.6082  0.8904 -0.6692
  350MOL0     C47136  11.577   5.494   3.473  0.5716  1.2576  1.1633
  350MOL0     C47137  11.447   5.447   3.551  0.2295  0.6140 -0.3298
  350MOL0     C47138  11.493   5.334   3.643 -0.1021  0.1548  0.0069
  350MOL0     O47139  11.536   5.223   3.562 -0.4265 -0.0315 -1.1086
  350MOL0     C47140  11.596   5.111   3.615  0.3546  0.0794 -0.3888
  350MOL0     C47141  11.580   5.075   3.756 -0.3557 -0.1377  0.1571
  350MOL0     C47142  11.628   4.961   3.812 -0.8608 -0.2786 -0.0255
  350MOL0     C47143  11.579   4.927   3.963  0.1579 -0.4142  0.4932
  350MOL0     C47144  11.715   4.888   3.732  0.3703 -0.2784 -0.6113
  350MOL0     C47145  11.768   4.758   3.782 -0.3186 -0.9466 -0.2768
  350MOL0     O47146  11.889   4.726   3.715  0.1403  0.2185 -0.0890
  350MOL0     C47147  11.958   4.606   3.751  1.1237  0.4752  0.5376
  350MOL0     C47148  11.945   4.529   3.876  0.5946  0.0566 -0.0269
  350MOL0     C47149  12.015   4.406   3.890  0.7640 -0.1033  0.8189
  350MOL0     C47150  12.115   4.366   3.791  0.9096  0.3537 -0.6990
  350MOL0     O47151  12.195   4.250   3.791  0.4130  0.2223  0.4287
  350MOL0     C47152  12.138   4.148   3.874  0.5508  0.1560 -0.5982
  350MOL0     C47153  12.228   4.025   3.855  0.0572  0.6265  0.1213
  350MOL0     C47154  12.346   4.010   3.953 -0.3748 -0.2825 -0.0021
  350MOL0     C47155  12.308   3.963   4.088  0.1981  0.5581 -0.2622
  350MOL0     C47156  12.424   3.948   4.188 -0.2220 -0.5343 -0.3411
  350MOL0     C47157  12.380   3.882   4.318 -0.3199  0.4510  0.8727
  350MOL0     C47158  12.490   3.903   4.415  0.3741 -0.8076  0.1806
  350MOL0     C47159  12.456   3.866   4.560 -0.6132  0.4265  0.0979
  350MOL0    Cl47160  12.594   3.913   4.662  0.2130 -0.3253 -0.3865
  350MOL0     C47161  12.131   4.443   3.674  0.0619  0.1929  0.0798
  350MOL0     C47162  12.049   4.558   3.658 -0.2936 -0.9863 -0.4809
  350MOL0     O47163  11.691   4.677   3.837 -0.0006  0.3165 -0.0250
  350MOL0     C47164  11.748   4.927   3.607 -0.2069  0.1778  0.0632
  350MOL0     C47165  11.695   5.041   3.550  0.6806  0.0452  0.3269
  350MOL0     N47166  11.403   5.518   3.189 -0.0417 -0.7601  0.3455
  350MOL0     N47167  11.278   5.540   3.130 -0.9973 -0.6689 -0.0639
  350MOL0     C47168  10.696   5.475   2.218 -0.1914 -0.0948 -0.1472
  350MOL0     C47169  10.634   5.443   2.094  1.3969  0.2661 -0.5152
  350MOL0     C47170  10.555   5.546   1.638  0.2444 -0.2898  0.5281
  350MOL0     C47171  10.440   5.468   1.623  0.4284 -0.2736  0.3877
  350MOL0     C47172  10.406   5.405   1.496 -0.6264 -0.6836 -1.3233
  350MOL0     C47173  10.482   5.434   1.387 -1.0464  0.7110 -0.6206
  350MOL0     O47174  10.478   5.377   1.266 -0.3008 -0.3307  0.4679
  350MOL0     C47175  10.356   5.311   1.223  0.8422 -0.2530 -0.1288
  350MOL0     C47176  10.344   5.321   1.071 -0.5790  0.0595  0.4880
  350MOL0     C47177  10.342   5.468   1.013 -0.0921  0.4787 -0.0770
  350MOL0     C47178  10.273   5.485   0.886  0.1839  0.3168  0.1528
  350MOL0     C47179  10.264   5.621   0.840 -0.4266  0.6175 -1.0678
  350MOL0     C47180  10.265   5.728   0.793 -0.6075 -0.0607  0.0689
  350MOL0     C47181  10.591   5.521   1.393 -0.0210 -0.3278 -0.4710
  350MOL0     C47182  10.625   5.574   1.520  0.5085 -0.0667  0.4289
  350MOL0     H47183  10.591   5.763   1.987 -0.7364  0.6283  1.6351
  350MOL0     H47184  10.691   5.812   2.208 -2.1660  0.2303 -0.3998
  350MOL0     H47185  10.904   5.775   2.349 -2.3355  2.5077 -1.7102
  350MOL0     H47186  10.754   5.830   2.423 -2.3892 -1.2975  3.3769
  350MOL0     H47187  10.985   5.666   2.536 -0.5099 -0.8545 -0.8760
  350MOL0     H47188  10.951   5.837   2.565 -1.2711  0.9646  0.4829
  350MOL0     H47189  10.707   5.733   2.625  1.0244  1.5035 -1.8325
  350MOL0     H47190  10.810   5.594   2.680 -1.5775  0.0046  1.8757
  350MOL0     H47191  10.836   5.882   2.763  1.4619  0.7046 -0.6988
  350MOL0     H47192  10.764   5.753   2.862  0.0568  4.5377  0.4967
  350MOL0     H47193  10.987   5.644   2.884  4.2907 -0.2171  0.2730
  350MOL0     H47194  11.051   5.763   2.774  0.3942 -4.8639  0.0008
  350MOL0     H47195  11.010   5.952   2.921  0.4735 -0.1676  1.1287
  350MOL0     H47196  10.917   5.854   3.041  2.0327 -0.3546  1.2275
  350MOL0     H47197  11.195   5.787   2.966  1.3653  1.8252  0.1918
  350MOL0     H47198  11.158   5.920   3.073  1.5793  0.1471 -0.3315
  350MOL0     H47199  11.032   5.652   3.138  0.8836 -1.7534 -1.4952
  350MOL0     H47200  11.070   5.776   3.250  0.3888 -0.6642  0.7599
  350MOL0     H47201  11.321   5.789   3.332 -1.0957 -0.3606  1.1474
  350MOL0     H47202  11.645   5.639   3.343  0.2258 -2.2291 -0.2459
  350MOL0     H47203  11.528   5.703   3.458 -1.1305 -0.0695  0.3229
  350MOL0     H47204  11.657   5.520   3.542  0.8760  0.8876  0.9540
  350MOL0     H47205  11.625   5.418   3.410  0.1464 -0.0488  2.3552
  350MOL0     H47206  11.371   5.404   3.486 -0.0194 -1.2841  1.1177
  350MOL0     H47207  11.400   5.528   3.608 -1.5401  0.1028 -1.0185
  350MOL0     H47208  11.401   5.305   3.694  0.0237 -4.2590 -1.8423
  350MOL0     H47209  11.562   5.370   3.720 -1.9224 -0.8724  2.2421
  350MOL0     H47210  11.519   5.138   3.821 -0.5132 -1.8861  1.7975
  350MOL0     H47211  11.672   4.901   4.015  1.7162  1.7835 -1.0112
  350MOL0     H47212  11.538   5.018   4.009  0.3827  0.4582 -0.9535
  350MOL0     H47213  11.496   4.856   3.969 -0.7119  0.6471  1.5081
  350MOL0     H47214  11.876   4.560   3.953 -0.9030  1.7475 -1.9297
  350MOL0     H47215  12.004   4.340   3.975  2.9036 -3.2558 -1.1284
  350MOL0     H47216  12.121   4.171   3.979 -1.0747 -1.7565 -0.3722
  350MOL0     H47217  12.042   4.115   3.831  0.3132  0.0287  0.0131
  350MOL0     H47218  12.161   3.941   3.872 -0.6055  1.3210  0.9861
  350MOL0     H47219  12.256   4.025   3.749 -2.4280 -0.2789 -0.6037
  350MOL0     H47220  12.402   4.104   3.945  1.7818 -1.6299 -1.6658
  350MOL0     H47221  12.413   3.933   3.916  2.1669  1.1501  1.3350
  350MOL0     H47222  12.237   4.029   4.140  0.3917  1.0647 -0.6449
  350MOL0     H47223  12.239   3.878   4.081 -2.2607  2.2879  1.0492
  350MOL0     H47224  12.478   4.042   4.203  2.6716 -1.7183 -2.4162
  350MOL0     H47225  12.500   3.876   4.156 -0.3560 -3.1033  4.1946
  350MOL0     H47226  12.293   3.942   4.345 -2.4352 -1.8271 -0.4278
  350MOL0     H47227  12.357   3.775   4.308  1.3388 -0.1349  2.6195
  350MOL0     H47228  12.506   4.011   4.426 -2.0861 -0.2355 -1.1181
  350MOL0     H47229  12.583   3.855   4.382  1.5567  2.1525 -1.1768
  350MOL0     H47230  12.436   3.758   4.564 -1.8127  0.5570 -1.3705
  350MOL0     H47231  12.363   3.911   4.595 -0.4094 -0.2672  1.5821
  350MOL0     H47232  12.214   4.424   3.607  2.4985  1.1747  2.6382
  350MOL0     H47233  12.053   4.620   3.569  2.4048  0.9383  0.8373
  350MOL0     H47234  11.815   4.874   3.540 -0.0858 -1.4470  1.4314
  350MOL0     H47235  11.718   5.074   3.450  0.2202 -0.5324  0.0261
  350MOL0     H47236  10.733   5.396   2.282 -0.1105 -0.4530 -0.6377
  350MOL0     H47237  10.615   5.340   2.067  0.9013  0.9475 -3.0362
  350MOL0     H47238  10.395   5.425   1.712 -2.9820  0.8566 -0.6566
  350MOL0     H47239  10.330   5.329   1.514 -0.6366 -0.7323 -1.5694
  350MOL0     H47240  10.348   5.205   1.246 -1.1547 -0.2791 -0.7486
  350MOL0     H47241  10.271   5.363   1.268 -0.4992 -0.9757 -1.6988
  350MOL0     H47242  10.255   5.261   1.049 -0.6788 -0.1753  1.4684
  350MOL0     H47243  10.422   5.267   1.017 -0.1611  0.7891  0.3452
  350MOL0     H47244  10.447   5.494   0.996  1.3554 -4.0017  0.8252
  350MOL0     H47245  10.298   5.534   1.088 -0.8761  0.0089 -0.1118
  350MOL0     H47246  10.169   5.451   0.888 -0.6072  2.3476 -2.1497
  350MOL0     H47247  10.321   5.425   0.808  1.4695  1.2301  0.2192
  350MOL0     H47248  10.281   5.832   0.776  0.2903 -0.6517 -3.6660
  350MOL0     H47249  10.651   5.547   1.307  0.8963  1.6499  0.6742
  350MOL0     H47250  10.710   5.641   1.522 -0.0225  0.8645 -2.6726
  351MOL0     O47251   5.664   1.977   9.916 -0.3760  0.3391  0.5180
  351MOL0     C47252   5.584   2.025   9.995  0.4644 -0.0313 -0.0800
  351MOL0     O47253   5.450   1.991   9.995 -0.4446 -0.5103 -0.3463
  351MOL0     C47254   5.394   1.925   9.895  0.3613  1.0115  0.4771
  351MOL0     C47255   5.434   1.805   9.848 -0.7188  0.6282  0.4150
  351MOL0     C47256   5.369   1.744   9.742  0.6034 -0.1257 -0.5736
  351MOL0     C47257   5.244   1.791   9.693  0.2963 -0.5009 -0.3582
  351MOL0     O47258   5.170   1.726   9.599 -0.5182  0.1409  0.0364
  351MOL0     C47259   5.208   1.596   9.557 -0.0842  0.2403  0.6339
  351MOL0     C47260   5.095   1.529   9.467  0.1362 -1.1342  0.1872
  351MOL0     C47261   5.052   1.382   9.507  1.0802  0.0961  0.2758
  351MOL0     C47262   5.153   1.277   9.470 -0.3333  0.2481  0.0907
  351MOL0     C47263   5.125   1.132   9.496 -0.7737  0.4087  0.6537
  351MOL0     C47264   5.054   1.104   9.619  0.1543 -0.6355  0.3328
  351MOL0     C47265   5.045   0.953   9.660 -0.1434 -0.2876 -0.0847
  351MOL0     C47266   4.973   0.931   9.786  0.4734  0.4801  0.7552
  351MOL0     N47267   4.824   0.941   9.778  0.2502 -0.0022 -0.5824
  351MOL0     C47268   4.745   1.021   9.862 -0.2305 -0.0820  0.5703
  351MOL0     C47269   4.619   0.994   9.808 -0.3236  0.2773 -0.9267
  351MOL0     C47270   4.491   1.038   9.853  0.4691 -0.9513 -0.6569
  351MOL0     C47271   4.408   0.924   9.915 -0.0733  1.4397 -0.3586
  351MOL0     C47272   4.262   0.978   9.949 -0.7690  0.6056  0.5492
  351MOL0     C47273   4.168   1.000   9.830 -0.0944 -0.5222 -0.6498
  351MOL0     O47274   4.071   1.105   9.855 -0.7900 -0.5454 -0.7428
  351MOL0     C47275   3.972   1.085   9.945 -0.0211  0.6837  0.4088
  351MOL0     C47276   3.942   1.182  10.035 -0.6342 -0.6158  0.7279
  351MOL0     C47277   3.835   1.176  10.135 -0.2660  0.4636  0.1525
  351MOL0     C47278   3.836   1.289  10.240 -0.8809  0.2139 -0.3824
  351MOL0     C47279   3.754   1.050  10.148  0.1659 -0.6495 -0.6555
  351MOL0     C47280   3.663   1.041  10.265  1.1140 -0.0069 -0.2687
  351MOL0     O47281   3.645   0.906  10.306  0.1111 -0.9727  0.1140
  351MOL0     C47282   3.541   0.869  10.387  0.8750  0.2284 -0.0246
  351MOL0     C47283   3.548   0.865  10.526 -0.4877 -0.6888  0.3951
  351MOL0     C47284   3.434   0.828  10.600  0.3735 -0.5831  0.1264
  351MOL0     C47285   3.309   0.793  10.536  0.0440  0.1480 -1.0265
  351MOL0     O47286   3.198   0.740  10.599 -0.4929  0.1915 -0.2990
  351MOL0     C47287   3.147   0.836  10.701  0.0975  0.9701  0.3944
  351MOL0     C47288   3.048   0.752  10.790  0.3133  0.4629 -1.0517
  351MOL0     C47289   3.052   0.790  10.937  0.2830 -0.0750 -0.1836
  351MOL0     C47290   3.029   0.937  10.955 -0.0778  0.4631  0.4895
  351MOL0     C47291   2.940   0.972  11.076  0.4397  0.3582 -0.4420
  351MOL0     C47292   3.010   0.932  11.208 -0.3751 -0.3885 -0.3998
  351MOL0     C47293   2.942   1.016  11.319  0.4606 -0.0357  0.3371
  351MOL0     C47294   3.035   1.018  11.437 -0.2904  1.0764 -0.0849
  351MOL0    Cl47295   3.028   1.179  11.526 -0.2381 -0.0170 -0.3763
  351MOL0     C47296   3.315   0.786  10.394  0.1630  1.0772 -1.0236
  351MOL0     C47297   3.432   0.816  10.325 -0.1199  0.0933 -0.4152
  351MOL0     O47298   3.612   1.138  10.323 -0.5119  0.1048 -0.1613
  351MOL0     C47299   3.792   0.950  10.055  0.5872 -0.7085 -0.3837
  351MOL0     C47300   3.892   0.959   9.951 -0.4792 -0.5495 -1.0589
  351MOL0     N47301   4.625   0.924   9.690 -0.1800  0.0141 -0.0422
  351MOL0     N47302   4.748   0.886   9.680 -0.0857  0.5610 -0.4435
  351MOL0     C47303   5.203   1.903   9.748  1.1813 -0.1466 -0.0575
  351MOL0     C47304   5.272   1.977   9.845  0.1957  0.4286  0.3909
  351MOL0     C47305   5.642   2.104  10.108  0.5982 -0.0665 -0.0742
  351MOL0     C47306   5.558   2.186  10.179  0.0494  0.3055  0.5197
  351MOL0     C47307   5.597   2.247  10.297  0.0735 -0.2312 -0.3425
  351MOL0     C47308   5.727   2.237  10.334 -0.2261 -0.3154 -0.4180
  351MOL0     O47309   5.754   2.306  10.448  0.1715  0.0160  0.3049
  351MOL0     C47310   5.884   2.371  10.471 -0.4442 -0.4958 -0.2773
  351MOL0     C47311   5.858   2.456  10.593 -0.8608 -0.4021 -0.4549
  351MOL0     C47312   5.995   2.509  10.641 -0.6708 -0.2030  0.0524
  351MOL0     C47313   5.962   2.585  10.774 -0.1671 -0.2407 -0.9070
  351MOL0     C47314   5.923   2.487  10.880 -0.7428 -1.1380  0.2090
  351MOL0     C47315   5.894   2.411  10.969 -1.5395 -0.2967  0.4334
  351MOL0     C47316   5.828   2.169  10.250  0.3284  0.2363  0.6907
  351MOL0     C47317   5.776   2.091  10.140 -0.1386  0.1779 -0.0363
  351MOL0     H47318   5.526   1.752   9.873  0.3650  2.1721 -0.0867
  351MOL0     H47319   5.403   1.649   9.703 -4.1159 -3.0067  1.4186
  351MOL0     H47320   5.304   1.583   9.507 -1.5859 -2.6765 -1.8841
  351MOL0     H47321   5.214   1.542   9.652  0.9843  2.1727  1.7153
  351MOL0     H47322   5.007   1.594   9.468  1.1277  0.3043 -0.9980
  351MOL0     H47323   5.141   1.531   9.368  1.6686 -1.4374  0.8748
  351MOL0     H47324   5.032   1.379   9.615 -2.2112 -0.4277 -0.2384
  351MOL0     H47325   4.956   1.375   9.455  1.5182  3.8084 -1.3426
  351MOL0     H47326   5.178   1.287   9.364  0.9059  0.3129  0.3689
  351MOL0     H47327   5.239   1.291   9.537 -1.1010 -3.8639  2.3398
  351MOL0     H47328   5.058   1.106   9.413  0.6035  5.1621 -2.3443
  351MOL0     H47329   5.212   1.066   9.491  1.9941  3.7422  1.1075
  351MOL0     H47330   5.094   1.163   9.702  0.1613  0.6142 -0.5362
  351MOL0     H47331   4.952   1.142   9.608 -0.1051 -1.9102 -2.6035
  351MOL0     H47332   5.004   0.901   9.573  4.0383 -0.5382 -2.1496
  351MOL0     H47333   5.141   0.904   9.675 -0.0322  0.2800  1.2053
  351MOL0     H47334   5.004   1.004   9.862 -0.1737  3.9063 -2.0306
  351MOL0     H47335   4.993   0.830   9.824  2.4267  0.7088  0.4342
  351MOL0     H47336   4.781   1.094   9.934 -1.3860  1.5511 -0.4401
  351MOL0     H47337   4.497   1.127   9.915  3.3342 -2.1947  1.0074
  351MOL0     H47338   4.444   1.072   9.760  2.0203 -1.9112 -1.8433
  351MOL0     H47339   4.453   0.893  10.010 -0.5630  0.9533 -0.2798
  351MOL0     H47340   4.422   0.831   9.858  1.0377  1.0539  0.5136
  351MOL0     H47341   4.262   1.065  10.015  0.1838  0.7409  0.3855
  351MOL0     H47342   4.213   0.897  10.004  0.8575 -1.5771 -1.0156
  351MOL0     H47343   4.132   0.903   9.794  3.2017 -2.2922  0.4745
  351MOL0     H47344   4.232   1.038   9.750  1.6137 -1.5922  0.1442
  351MOL0     H47345   3.990   1.276  10.010  2.1589 -1.9321  0.7980
  351MOL0     H47346   3.746   1.351  10.229 -1.3037 -0.3297 -0.0239
  351MOL0     H47347   3.838   1.236  10.336 -0.4648 -0.6406 -0.8530
  351MOL0     H47348   3.917   1.361  10.231 -2.2966  1.8122 -0.8179
  351MOL0     H47349   3.643   0.876  10.576  1.1567 -4.4728 -1.5408
  351MOL0     H47350   3.448   0.804  10.705  1.4454 -0.7403 -0.0397
  351MOL0     H47351   3.224   0.873  10.769  1.1243 -4.5484  2.7762
  351MOL0     H47352   3.111   0.919  10.639 -0.7652 -1.3912 -2.4826
  351MOL0     H47353   2.945   0.750  10.754  0.5589  1.1140 -1.8046
  351MOL0     H47354   3.088   0.650  10.794  2.2422  1.1062 -2.4526
  351MOL0     H47355   3.151   0.772  10.979  0.7412  0.8443 -0.8221
  351MOL0     H47356   2.973   0.737  10.991 -1.6296 -1.1925 -3.7122
  351MOL0     H47357   3.126   0.987  10.959  0.7845 -0.9435 -1.3518
  351MOL0     H47358   2.980   0.975  10.865  0.1796  0.2894  0.2750
  351MOL0     H47359   2.839   0.933  11.065  0.0782  0.4683  2.0208
  351MOL0     H47360   2.925   1.080  11.087  1.0442  0.2799  1.5472
  351MOL0     H47361   3.016   0.827  11.238  2.7818  0.1570  1.2724
  351MOL0     H47362   3.116   0.956  11.200 -0.0731 -0.5115  2.2030
  351MOL0     H47363   2.838   0.989  11.339 -1.1414  4.7127 -0.2417
  351MOL0     H47364   2.933   1.122  11.291 -0.2110  0.0257  0.7603
  351MOL0     H47365   3.136   1.011  11.397 -1.2016  3.1597 -3.1311
  351MOL0     H47366   3.015   0.936  11.506 -2.5132  1.2274 -0.4748
  351MOL0     H47367   3.225   0.737  10.359 -1.2141  0.6786  2.6815
  351MOL0     H47368   3.421   0.810  10.217 -3.5074 -0.2014 -0.1664
  351MOL0     H47369   3.739   0.855  10.054  0.5737 -0.7125  0.4447
  351MOL0     H47370   3.914   0.881   9.879 -1.9143  1.9031 -4.4735
  351MOL0     H47371   5.115   1.945   9.702  0.0972  0.5865  2.4998
  351MOL0     H47372   5.243   2.076   9.881 -0.7712  0.6087 -0.8082
  351MOL0     H47373   5.457   2.203  10.143  0.3745  0.5194 -0.2903
  351MOL0     H47374   5.523   2.303  10.352 -0.3919 -0.8521 -0.3341
  351MOL0     H47375   5.963   2.296  10.473 -1.4531 -1.6824 -2.0000
  351MOL0     H47376   5.906   2.436  10.385 -0.5676 -1.4281 -1.0231
  351MOL0     H47377   5.816   2.387  10.666 -0.5176 -1.4820 -1.2594
  351MOL0     H47378   5.779   2.526  10.565  0.4607  0.2087 -2.8681
  351MOL0     H47379   6.043   2.580  10.573  0.3831  1.3832  2.3367
  351MOL0     H47380   6.055   2.421  10.667 -0.2653 -0.2838 -1.1085
  351MOL0     H47381   5.873   2.648  10.765 -0.8426 -0.7949  1.2567
  351MOL0     H47382   6.047   2.642  10.811  1.1325 -2.8058  0.3188
  351MOL0     H47383   5.864   2.348  11.051 -3.3165  0.4652  0.4256
  351MOL0     H47384   5.933   2.177  10.275  1.1182  1.0553 -2.4505
  351MOL0     H47385   5.832   2.015  10.087  0.2711  1.5533 -1.6939
  352MOL0     O47386  10.753   7.934  10.097  0.5765  0.1043 -0.4434
  352MOL0     C47387  10.788   7.966  10.211 -0.0635 -0.8810 -0.2218
  352MOL0     O47388  10.738   8.077  10.281  0.2848  0.3485 -0.1393
  352MOL0     C47389  10.689   8.180  10.203  0.3705  0.2683  0.6294
  352MOL0     C47390  10.566   8.240  10.231  0.0882  0.8955  0.1627
  352MOL0     C47391  10.520   8.345  10.158  0.2968 -0.7974  0.0366
  352MOL0     C47392  10.593   8.397  10.052 -0.2086 -0.6994  0.7635
  352MOL0     O47393  10.563   8.499   9.967  0.1908  0.1148  0.2207
  352MOL0     C47394  10.464   8.596  10.013 -0.6725  0.1756  0.4813
  352MOL0     C47395  10.437   8.689   9.891  1.0582 -0.1621 -1.1193
  352MOL0     C47396  10.380   8.616   9.766 -0.6919  0.7535 -1.2656
  352MOL0     C47397  10.261   8.700   9.710 -0.1583  0.3030  0.8176
  352MOL0     C47398  10.172   8.606   9.624  0.1191 -0.7996 -0.3288
  352MOL0     C47399  10.067   8.674   9.538  0.0054 -1.7128 -0.4691
  352MOL0     C47400   9.990   8.582   9.439  0.1555 -0.1373 -0.8573
  352MOL0     C47401   9.871   8.660   9.377 -0.0998  0.0028  0.5677
  352MOL0     N47402   9.822   8.582   9.267 -1.1431 -0.0822 -0.1799
  352MOL0     C47403   9.834   8.598   9.128  1.1210  0.9903  0.5614
  352MOL0     C47404   9.774   8.491   9.067 -0.9141 -0.5788 -0.8622
  352MOL0     C47405   9.762   8.471   8.922  0.2694 -0.6132 -0.0697
  352MOL0     C47406   9.750   8.320   8.872  0.7046 -0.5857  0.2245
  352MOL0     C47407   9.703   8.323   8.719  0.0512  0.2537 -0.4121
  352MOL0     C47408   9.694   8.183   8.670  0.2053 -0.7094 -0.7969
  352MOL0     O47409   9.690   8.192   8.524  0.0694 -0.8136 -0.1898
  352MOL0     C47410   9.566   8.201   8.451 -0.5774 -0.2572 -0.4286
  352MOL0     C47411   9.591   8.188   8.317  0.5745  0.6410  0.7902
  352MOL0     C47412   9.483   8.198   8.224  0.6530  0.8566  0.3386
  352MOL0     C47413   9.521   8.183   8.079 -0.0810  0.0223  0.3633
  352MOL0     C47414   9.349   8.201   8.280 -0.0714 -0.7438  0.0503
  352MOL0     C47415   9.239   8.202   8.191 -0.2376 -0.4576  0.0005
  352MOL0     O47416   9.145   8.124   8.243  0.4285 -0.3555  0.4420
  352MOL0     C47417   9.013   8.151   8.205 -0.1677 -0.0880  0.5308
  352MOL0     C47418   8.936   8.253   8.249 -0.2600 -0.2850 -0.4213
  352MOL0     C47419   8.809   8.269   8.216  1.2978  0.0353 -0.5104
  352MOL0     C47420   8.744   8.178   8.142 -0.3356  1.3918 -0.0664
  352MOL0     O47421   8.610   8.196   8.102  0.4801  0.0831 -0.0180
  352MOL0     C47422   8.523   8.285   8.167 -0.2224 -0.0747  0.7604
  352MOL0     C47423   8.376   8.240   8.160  0.5265  0.8335  0.3193
  352MOL0     C47424   8.328   8.227   8.016 -0.4739  0.1748  0.2505
  352MOL0     C47425   8.190   8.156   8.013 -0.3236 -0.2222 -0.2733
  352MOL0     C47426   8.083   8.196   7.911 -0.5842 -1.1006 -1.6016
  352MOL0     C47427   7.958   8.112   7.907  0.5101 -0.1975  0.2960
  352MOL0     C47428   7.902   8.088   8.055 -0.1522  0.2531  0.5782
  352MOL0     C47429   7.755   8.057   8.059 -0.6307 -0.3800  0.5280
  352MOL0    Cl47430   7.657   8.206   8.050 -0.2121 -0.5240 -0.0320
  352MOL0     C47431   8.812   8.062   8.107  0.1545 -0.3429 -0.0541
  352MOL0     C47432   8.945   8.051   8.134  0.2135  0.2402 -0.6348
  352MOL0     O47433   9.229   8.270   8.087  0.7615 -0.1473  0.6700
  352MOL0     C47434   9.321   8.196   8.421  0.1857  0.7665  0.9586
  352MOL0     C47435   9.432   8.204   8.499  0.2040  0.5252 -0.0144
  352MOL0     N47436   9.727   8.416   9.173 -0.2185  0.6483 -0.2191
  352MOL0     N47437   9.751   8.471   9.286  0.6062 -1.3336  0.2853
  352MOL0     C47438  10.715   8.343  10.024 -0.2758 -0.0135 -0.4523
  352MOL0     C47439  10.760   8.230  10.093  0.6026  0.0001 -0.0815
  352MOL0     C47440  10.906   7.900  10.286  0.8235  1.4251  0.8227
  352MOL0     C47441  10.954   7.949  10.409  0.0528  0.2020 -0.1127
  352MOL0     C47442  11.065   7.881  10.472  0.1187  0.1356 -0.1008
  352MOL0     C47443  11.135   7.783  10.406  0.2762 -0.1192 -0.3125
  352MOL0     O47444  11.253   7.744  10.468  0.8173  0.1322  0.2698
  352MOL0     C47445  11.352   7.661  10.407 -0.1267  0.3900 -0.0796
  352MOL0     C47446  11.476   7.646  10.500  0.4239 -0.9925 -0.3592
  352MOL0     C47447  11.571   7.764  10.489  0.2734 -0.4617  0.3186
  352MOL0     C47448  11.685   7.735  10.583  0.0770  0.1737 -1.4261
  352MOL0     C47449  11.788   7.674  10.501  0.3101 -0.8707 -0.4676
  352MOL0     C47450  11.864   7.625  10.421 -0.8030 -0.0000 -0.2657
  352MOL0     C47451  11.083   7.720  10.290  0.0232 -0.8804  1.3864
  352MOL0     C47452  10.975   7.790  10.233  0.0680 -0.8091  0.0770
  352MOL0     H47453  10.515   8.206  10.320  2.1204  2.9547  2.2580
  352MOL0     H47454  10.429   8.396  10.188  0.3076  0.3844 -1.8042
  352MOL0     H47455  10.373   8.545  10.043 -0.5637 -0.4181 -0.1602
  352MOL0     H47456  10.516   8.653  10.090  2.3209  0.1715 -1.3492
  352MOL0     H47457  10.364   8.759   9.934  1.6187 -0.3181  0.1241
  352MOL0     H47458  10.530   8.737   9.859 -0.0309  0.8443 -2.9165
  352MOL0     H47459  10.463   8.589   9.699  0.7076  0.7622  0.3857
  352MOL0     H47460  10.334   8.525   9.805  3.1467 -1.0981 -0.5938
  352MOL0     H47461  10.203   8.755   9.785 -1.5321  2.8463 -1.9046
  352MOL0     H47462  10.309   8.780   9.653  0.9459 -0.5444  0.5319
  352MOL0     H47463  10.231   8.565   9.542  0.1969  0.3609 -0.8797
  352MOL0     H47464  10.134   8.525   9.686 -3.3780  2.2955  2.0308
  352MOL0     H47465   9.999   8.731   9.602  0.0786 -2.8048  0.6148
  352MOL0     H47466  10.127   8.753   9.493 -0.6915 -0.5119  0.6294
  352MOL0     H47467  10.054   8.546   9.357  1.2534  0.6094 -0.3528
  352MOL0     H47468   9.959   8.496   9.498  2.9555  0.9209  2.4649
  352MOL0     H47469   9.896   8.766   9.364  0.8341 -0.6223 -4.6389
  352MOL0     H47470   9.784   8.652   9.443 -2.6851  1.1272 -2.4875
  352MOL0     H47471   9.874   8.684   9.075 -0.6731  2.0665  0.8627
  352MOL0     H47472   9.679   8.535   8.890 -0.0207  0.6599  2.8961
  352MOL0     H47473   9.849   8.524   8.881  0.8436 -0.9280  0.7229
  352MOL0     H47474   9.678   8.270   8.937 -0.2107  0.7863  0.3029
  352MOL0     H47475   9.850   8.275   8.879  0.7501 -0.6373 -0.5868
  352MOL0     H47476   9.792   8.362   8.669  0.4239 -0.3444 -0.2195
  352MOL0     H47477   9.614   8.384   8.699 -1.4961 -1.6021  0.4446
  352MOL0     H47478   9.600   8.140   8.707  1.7150 -1.3774  2.5892
  352MOL0     H47479   9.768   8.112   8.707 -1.3643 -1.5156  0.9796
  352MOL0     H47480   9.695   8.194   8.288  0.1062  0.9285 -0.9497
  352MOL0     H47481   9.470   8.095   8.039  0.7986  0.3506 -1.6164
  352MOL0     H47482   9.485   8.275   8.032 -2.5211 -0.3611  1.3159
  352MOL0     H47483   9.629   8.169   8.074  0.3895  2.6719  1.2304
  352MOL0     H47484   8.980   8.331   8.312 -0.5285  0.7263 -1.4559
  352MOL0     H47485   8.766   8.352   8.271 -0.3296 -2.5496  2.4867
  352MOL0     H47486   8.547   8.297   8.273 -0.6827  0.1826  0.8383
  352MOL0     H47487   8.531   8.388   8.132  0.8929  1.2221  4.4318
  352MOL0     H47488   8.369   8.141   8.205  1.6791 -0.2515 -1.7323
  352MOL0     H47489   8.304   8.305   8.212 -0.5619 -0.4856  0.5193
  352MOL0     H47490   8.405   8.167   7.967  1.1542  1.2443  1.3931
  352MOL0     H47491   8.304   8.323   7.970  0.2364  1.3883  2.2730
  352MOL0     H47492   8.212   8.049   8.010  4.5430  0.5813 -1.3706
  352MOL0     H47493   8.143   8.176   8.110 -1.2222  3.4198 -1.2833
  352MOL0     H47494   8.138   8.197   7.816  0.0014  1.1875 -1.2985
  352MOL0     H47495   8.053   8.301   7.915  0.9204 -0.5341 -3.3504
  352MOL0     H47496   7.888   8.171   7.847  2.2860  0.6795 -1.0135
  352MOL0     H47497   7.976   8.016   7.858 -0.5066 -0.8121  1.0795
  352MOL0     H47498   7.918   8.165   8.132  0.8262 -0.0582  0.6966
  352MOL0     H47499   7.949   7.997   8.093  1.2712  1.8716  3.0444
  352MOL0     H47500   7.722   8.016   8.155 -0.4479  1.1446  1.2739
  352MOL0     H47501   7.729   7.989   7.978  2.2930  1.1941 -1.9473
  352MOL0     H47502   8.770   7.984   8.045 -0.6650 -0.2986  0.4406
  352MOL0     H47503   8.988   7.957   8.100 -1.2706  0.1047 -2.3278
  352MOL0     H47504   9.220   8.189   8.460 -0.6149  0.2065 -1.0475
  352MOL0     H47505   9.411   8.217   8.604  1.3010 -0.2632  0.3149
  352MOL0     H47506  10.784   8.383   9.952  0.0032 -0.0726 -0.2188
  352MOL0     H47507  10.857   8.188  10.066  0.5310  0.1010 -0.5107
  352MOL0     H47508  10.897   8.021  10.466 -3.5402 -1.6952 -1.0120
  352MOL0     H47509  11.108   7.920  10.564  1.1310 -0.0313 -0.4829
  352MOL0     H47510  11.310   7.561  10.399  1.0520 -0.2789  1.4970
  352MOL0     H47511  11.391   7.693  10.309 -1.9818  1.1182 -0.6338
  352MOL0     H47512  11.534   7.560  10.467  2.0014  0.6406 -2.0586
  352MOL0     H47513  11.447   7.627  10.604  1.5397  3.8200  1.0693
  352MOL0     H47514  11.518   7.855  10.517 -3.1900 -1.6556 -1.7048
  352MOL0     H47515  11.601   7.767  10.383  0.3315 -4.3493  0.0481
  352MOL0     H47516  11.663   7.670  10.668  0.3061 -1.1693 -2.3501
  352MOL0     H47517  11.732   7.827  10.619  0.7591 -0.3914 -0.8340
  352MOL0     H47518  11.936   7.594  10.347 -1.0853 -1.9224  0.2088
  352MOL0     H47519  11.137   7.633  10.255  1.2841  0.0967  0.8016
  352MOL0     H47520  10.932   7.748  10.142 -4.1842 -0.1037  1.5951
  353MOL0     O47521   9.098   8.178   2.565 -0.6941  0.1972 -0.1756
  353MOL0     C47522   8.998   8.225   2.520  0.6670  0.5185  0.0381
  353MOL0     O47523   8.907   8.154   2.444  0.3736 -0.3246  0.4395
  353MOL0     C47524   8.915   8.019   2.433 -0.5920 -0.2483  0.3918
  353MOL0     C47525   8.965   7.921   2.521 -0.3990 -0.5599 -0.3478
  353MOL0     C47526   8.960   7.791   2.496 -0.3848  0.4693 -1.0772
  353MOL0     C47527   8.913   7.736   2.375 -0.6602 -0.9207  0.6973
  353MOL0     O47528   8.911   7.602   2.347  0.3600 -0.0895  0.6025
  353MOL0     C47529   8.998   7.508   2.408  0.1176  0.7514 -0.5820
  353MOL0     C47530   8.929   7.384   2.463  0.5376  0.4383 -0.1830
  353MOL0     C47531   8.852   7.287   2.366 -1.4323 -0.3635  0.0867
  353MOL0     C47532   8.939   7.226   2.258  0.1334  0.0567  1.2678
  353MOL0     C47533   9.055   7.143   2.325 -0.8741  0.6188  0.5278
  353MOL0     C47534   9.127   7.053   2.230 -0.2384  0.0161 -0.5612
  353MOL0     C47535   9.094   6.909   2.224  0.3890  1.0047  0.4886
  353MOL0     C47536   9.179   6.838   2.122 -0.1445  1.0232  0.8633
  353MOL0     N47537   9.178   6.691   2.153 -0.1744  0.3129  0.1419
  353MOL0     C47538   9.253   6.630   2.253 -0.1487 -0.3271  0.6420
  353MOL0     C47539   9.228   6.501   2.245  0.4342 -0.3443 -0.1597
  353MOL0     C47540   9.303   6.398   2.326  0.1798  0.3192 -0.5484
  353MOL0     C47541   9.383   6.307   2.240  0.0752 -0.3085 -0.2115
  353MOL0     C47542   9.456   6.183   2.320 -0.1869  0.0084  0.7130
  353MOL0     C47543   9.591   6.217   2.393 -1.0488 -0.1732 -0.3075
  353MOL0     O47544   9.704   6.235   2.308 -0.1904  0.2212 -0.5662
  353MOL0     C47545   9.824   6.268   2.371  0.5697 -0.1866  0.2536
  353MOL0     C47546   9.937   6.296   2.292  0.0265  0.5744  0.6448
  353MOL0     C47547  10.054   6.354   2.350  0.5553  0.3411  0.4603
  353MOL0     C47548  10.163   6.383   2.248  0.4490 -0.5487 -0.0739
  353MOL0     C47549  10.062   6.388   2.482  0.1485  0.4421  0.0839
  353MOL0     C47550  10.174   6.450   2.553 -0.6245 -0.3996  0.4015
  353MOL0     O47551  10.157   6.474   2.680  0.1478 -0.3552  0.7409
  353MOL0     C47552  10.272   6.540   2.736 -0.1549 -0.0041 -0.4714
  353MOL0     C47553  10.340   6.472   2.831 -0.4605  0.1120 -0.3613
  353MOL0     C47554  10.444   6.521   2.907 -0.4795  0.2021 -0.7996
  353MOL0     C47555  10.500   6.649   2.873  0.1108  0.1817  0.5589
  353MOL0     O47556  10.622   6.690   2.914 -0.7408 -0.5305 -0.3997
  353MOL0     C47557  10.691   6.624   3.023 -0.1020  0.1974  0.5390
  353MOL0     C47558  10.727   6.736   3.124  0.0463 -0.2230  0.4049
  353MOL0     C47559  10.742   6.700   3.274 -0.5755  0.3405  0.4341
  353MOL0     C47560  10.834   6.795   3.339 -0.4606  0.3259  0.1145
  353MOL0     C47561  10.860   6.767   3.485 -0.5185 -0.2327 -0.0295
  353MOL0     C47562  10.958   6.871   3.537  0.7602  0.5667 -0.4301
  353MOL0     C47563  10.979   6.853   3.685 -0.2474 -0.0810 -1.0799
  353MOL0     C47564  11.088   6.944   3.751  0.0882  0.7707  0.3603
  353MOL0    Cl47565  11.049   7.114   3.730  0.6430 -0.0973 -0.2095
  353MOL0     C47566  10.416   6.735   2.794  0.8593 -0.3471  0.3424
  353MOL0     C47567  10.306   6.678   2.721 -0.5435 -0.0425 -1.1629
  353MOL0     O47568  10.273   6.476   2.484  0.1587  0.4638  0.1548
  353MOL0     C47569   9.951   6.352   2.567  0.7306  0.1158 -0.1218
  353MOL0     C47570   9.836   6.302   2.501 -0.2264 -0.0318 -0.3217
  353MOL0     N47571   9.138   6.481   2.138  0.1647  0.2218 -0.6818
  353MOL0     N47572   9.113   6.599   2.085  0.0264  0.1189 -0.7031
  353MOL0     C47573   8.860   7.832   2.291  0.4893  0.5585  0.2102
  353MOL0     C47574   8.870   7.965   2.313  0.0482  0.0392 -1.8805
  353MOL0     C47575   8.962   8.355   2.578 -0.1250 -0.0534 -0.5189
  353MOL0     C47576   9.036   8.409   2.675 -1.8268  0.1742 -1.3950
  353MOL0     C47577   9.010   8.537   2.728  0.6226  0.0715  0.5460
  353MOL0     C47578   8.910   8.619   2.674  0.3912 -0.5604 -0.3136
  353MOL0     O47579   8.902   8.749   2.715  0.9053 -1.0531  0.4703
  353MOL0     C47580   8.785   8.825   2.692  0.5468  0.2307 -0.0963
  353MOL0     C47581   8.781   8.966   2.776  0.6541  0.8231  0.0860
  353MOL0     C47582   8.915   9.044   2.758 -0.1407 -1.2973  0.3825
  353MOL0     C47583   8.909   9.190   2.767 -0.7343  0.5682  0.3086
  353MOL0     C47584   8.843   9.238   2.889  0.8951 -0.2060 -0.2557
  353MOL0     C47585   8.805   9.277   2.995  1.8726 -0.2312  0.4820
  353MOL0     C47586   8.834   8.562   2.564  0.9707  0.8159 -0.1693
  353MOL0     C47587   8.857   8.428   2.513 -0.1189  0.2459  0.4170
  353MOL0     H47588   9.015   7.951   2.613  1.7107 -4.3612 -0.0385
  353MOL0     H47589   8.989   7.722   2.575 -1.1111 -0.0743 -1.2776
  353MOL0     H47590   9.064   7.476   2.326  1.2674  3.2050 -0.7068
  353MOL0     H47591   9.064   7.545   2.487  1.8278 -3.4626  0.2488
  353MOL0     H47592   8.997   7.320   2.519  2.2307  0.9105 -1.6173
  353MOL0     H47593   8.854   7.427   2.530  1.6788  0.6023  1.0217
  353MOL0     H47594   8.806   7.208   2.426  1.1210  0.7114  3.8380
  353MOL0     H47595   8.781   7.350   2.312  0.5075  3.4197  1.6068
  353MOL0     H47596   8.885   7.153   2.197 -1.1565  2.5042 -0.6559
  353MOL0     H47597   8.975   7.301   2.188 -3.2861 -1.1257 -2.1007
  353MOL0     H47598   9.123   7.214   2.373 -2.1749  1.5396  1.0825
  353MOL0     H47599   9.009   7.077   2.400  1.0080 -1.0652  0.2855
  353MOL0     H47600   9.126   7.102   2.133 -1.3157 -0.8506 -1.0075
  353MOL0     H47601   9.228   7.050   2.272 -1.0210  1.3899  1.5914
  353MOL0     H47602   9.097   6.877   2.328  1.4818  1.0264  0.4699
  353MOL0     H47603   8.991   6.881   2.198  0.7389  0.3809 -0.2609
  353MOL0     H47604   9.283   6.867   2.140  0.4341  0.5733 -1.4278
  353MOL0     H47605   9.154   6.852   2.016  2.9012 -0.5297 -0.1763
  353MOL0     H47606   9.324   6.673   2.323 -0.5023  2.8457 -0.7688
  353MOL0     H47607   9.364   6.452   2.399 -4.5006  0.7276  3.6386
  353MOL0     H47608   9.232   6.342   2.388 -1.9188  1.2256 -2.0060
  353MOL0     H47609   9.473   6.362   2.211  0.6935 -0.5588  1.1651
  353MOL0     H47610   9.344   6.280   2.142  6.0491  1.0656 -3.4462
  353MOL0     H47611   9.471   6.112   2.238 -5.5374  1.5280 -1.9794
  353MOL0     H47612   9.384   6.139   2.390 -1.2205 -0.3613 -0.5641
  353MOL0     H47613   9.624   6.142   2.465 -1.8278  0.3231  0.6022
  353MOL0     H47614   9.568   6.306   2.452 -1.6195 -0.2525 -0.3975
  353MOL0     H47615   9.937   6.279   2.185  0.9546  2.5452  0.2715
  353MOL0     H47616  10.258   6.340   2.283  0.3491 -0.2253  0.6184
  353MOL0     H47617  10.137   6.334   2.154 -1.9456  3.2430 -1.5864
  353MOL0     H47618  10.187   6.489   2.240  0.3707 -0.5759 -0.7118
  353MOL0     H47619  10.323   6.366   2.847 -4.3035 -0.0821 -4.0534
  353MOL0     H47620  10.497   6.460   2.981  0.6263  0.2444 -1.5267
  353MOL0     H47621  10.635   6.548   3.080  1.7027  0.3310  2.6328
  353MOL0     H47622  10.789   6.581   3.000  0.1276 -0.5278  2.6400
  353MOL0     H47623  10.816   6.789   3.086 -1.9374  3.2715  0.2346
  353MOL0     H47624  10.648   6.810   3.117 -0.9355 -1.3260 -0.6139
  353MOL0     H47625  10.775   6.596   3.286  0.9506  0.4530 -1.9962
  353MOL0     H47626  10.644   6.704   3.322 -2.1815  0.0225 -2.5748
  353MOL0     H47627  10.933   6.788   3.292 -1.2607  2.2971 -2.1157
  353MOL0     H47628  10.798   6.898   3.329 -1.8190  0.2324  3.1182
  353MOL0     H47629  10.916   6.673   3.489  0.4165  0.1825 -2.1886
  353MOL0     H47630  10.767   6.775   3.542 -0.5968  4.7466 -0.4259
  353MOL0     H47631  11.053   6.851   3.485  0.3603  2.0702 -1.8170
  353MOL0     H47632  10.915   6.962   3.495  0.9486  1.2004  0.7162
  353MOL0     H47633  10.992   6.745   3.698  0.2033  0.2560  1.7327
  353MOL0     H47634  10.883   6.867   3.735 -1.1726 -2.1293 -2.1463
  353MOL0     H47635  11.188   6.915   3.718 -0.2762  0.8349 -0.8385
  353MOL0     H47636  11.073   6.923   3.857 -1.3942  0.2734  0.0754
  353MOL0     H47637  10.450   6.836   2.776  2.4036 -1.3504 -3.1207
  353MOL0     H47638  10.236   6.727   2.654 -1.5340 -1.0638 -0.9081
  353MOL0     H47639   9.946   6.368   2.674 -2.8227  1.2773 -0.3473
  353MOL0     H47640   9.754   6.290   2.571 -0.7193  2.0234 -0.4828
  353MOL0     H47641   8.810   7.795   2.202 -1.0710 -3.1318  2.4220
  353MOL0     H47642   8.839   8.034   2.235  0.1189 -0.4838 -2.3776
  353MOL0     H47643   9.115   8.368   2.737 -3.2286 -0.7335 -0.1350
  353MOL0     H47644   9.063   8.565   2.818 -2.5366  0.0023  2.5872
  353MOL0     H47645   8.770   8.845   2.586 -3.9238 -0.4063  0.2013
  353MOL0     H47646   8.698   8.759   2.705  1.8210 -2.4264 -3.6657
  353MOL0     H47647   8.755   8.929   2.876 -0.5620 -1.9299 -1.1666
  353MOL0     H47648   8.698   9.028   2.741 -0.3615  2.0999  4.2143
  353MOL0     H47649   8.969   9.032   2.663  2.3584 -0.3118  1.5951
  353MOL0     H47650   8.979   9.006   2.838  1.5792 -2.4091 -1.4183
  353MOL0     H47651   8.877   9.234   2.672  0.5176  0.5396 -0.1457
  353MOL0     H47652   9.015   9.215   2.776 -0.3311 -0.5894 -0.8306
  353MOL0     H47653   8.779   9.308   3.094  3.6992  1.0426  0.5988
  353MOL0     H47654   8.761   8.624   2.514 -1.6513 -0.0169  2.3476
  353MOL0     H47655   8.810   8.392   2.422  0.3771  1.9020 -0.5278
  354MOL0     O47656   3.366   9.246   0.997  0.3198 -0.0688  0.1082
  354MOL0     C47657   3.389   9.208   1.119 -0.1421 -0.2819  0.3231
  354MOL0     O47658   3.301   9.145   1.206  0.2948  0.1242  0.1670
  354MOL0     C47659   3.207   9.068   1.139  0.8675 -0.3079 -0.1027
  354MOL0     C47660   3.090   9.055   1.208  0.3753  0.2549 -0.5303
  354MOL0     C47661   2.986   8.980   1.153 -0.0499 -0.0650 -0.0332
  354MOL0     C47662   3.001   8.908   1.033 -1.0729 -0.1192 -1.0670
  354MOL0     O47663   2.911   8.823   0.976 -0.2188  0.1561  0.3397
  354MOL0     C47664   2.778   8.877   0.965  0.1329  0.2844 -0.0516
  354MOL0     C47665   2.782   8.972   0.843  0.4352  0.3391 -0.2153
  354MOL0     C47666   2.849   8.905   0.717  0.8230 -0.4820 -0.4967
  354MOL0     C47667   2.783   8.770   0.674  0.2187 -0.2474 -0.1410
  354MOL0     C47668   2.852   8.723   0.543 -0.4090  0.8525  0.2166
  354MOL0     C47669   2.807   8.585   0.498  0.4736 -0.3752 -0.3054
  354MOL0     C47670   2.869   8.516   0.377  0.0344 -0.8351  0.1498
  354MOL0     C47671   2.845   8.606   0.257 -0.5302  0.3169  0.0163
  354MOL0     N47672   2.848   8.516   0.139  0.1083  0.7071  0.2500
  354MOL0     C47673   2.732   8.483   0.073  0.8191  0.1267 -0.1541
  354MOL0     C47674   2.760   8.385  -0.016 -0.2434  0.2703  0.6363
  354MOL0     C47675   2.672   8.327  -0.123 -0.3236  0.3957 -0.1380
  354MOL0     C47676   2.733   8.338  -0.265 -0.0067 -0.1823 -0.0337
  354MOL0     C47677   2.641   8.402  -0.366 -0.0121  0.5305  0.7589
  354MOL0     C47678   2.505   8.336  -0.380 -0.3527  0.6210 -0.3246
  354MOL0     O47679   2.427   8.393  -0.485 -0.1140  0.2892  0.0335
  354MOL0     C47680   2.305   8.461  -0.463 -0.8208  0.9649  0.4074
  354MOL0     C47681   2.273   8.534  -0.341  0.3718 -0.4433  0.8582
  354MOL0     C47682   2.142   8.579  -0.325  0.0509  0.5252 -0.5032
  354MOL0     C47683   2.120   8.638  -0.188 -0.3614  0.0276  0.2774
  354MOL0     C47684   2.041   8.558  -0.419 -0.5860 -0.0789 -0.0420
  354MOL0     C47685   1.896   8.613  -0.403  0.1626  0.3618 -1.0119
  354MOL0     O47686   1.824   8.625  -0.518  0.1141 -1.3790 -0.0805
  354MOL0     C47687   1.691   8.622  -0.517  0.2076 -0.3807  0.3306
  354MOL0     C47688   1.606   8.718  -0.443 -0.4686  0.3077 -0.0286
  354MOL0     C47689   1.464   8.710  -0.442  0.0724  0.2683  0.1905
  354MOL0     C47690   1.400   8.616  -0.522  0.5454  0.1115 -1.0690
  354MOL0     O47691   1.261   8.624  -0.519  0.4535  0.3301 -0.1469
  354MOL0     C47692   1.179   8.549  -0.613  0.0020  0.1692  0.0655
  354MOL0     C47693   1.096   8.651  -0.695 -0.5056  0.5173  0.3138
  354MOL0     C47694   1.047   8.601  -0.832 -0.4850  0.2789  0.6546
  354MOL0     C47695   0.961   8.704  -0.900 -0.4045  0.5782  0.4560
  354MOL0     C47696   0.891   8.646  -1.026  0.7332  0.0276 -0.1154
  354MOL0     C47697   0.972   8.623  -1.154 -0.0024  0.0186 -0.3792
  354MOL0     C47698   0.889   8.540  -1.265  0.3622 -0.8966 -0.1502
  354MOL0     C47699   0.985   8.455  -1.358  0.2753  0.2248  0.3463
  354MOL0    Cl47700   1.122   8.563  -1.421 -0.0975  0.3540  0.0385
  354MOL0     C47701   1.484   8.521  -0.594 -0.0504 -0.7563  1.6641
  354MOL0     C47702   1.626   8.526  -0.593 -0.0194  0.3752 -0.1717
  354MOL0     O47703   1.861   8.644  -0.288 -0.0949  0.7809 -0.2207
  354MOL0     C47704   2.078   8.487  -0.533 -1.0774 -0.5316  0.0449
  354MOL0     C47705   2.209   8.439  -0.551 -1.1658 -0.0588  0.5487
  354MOL0     N47706   2.894   8.355  -0.001  0.0531  0.1260 -0.1214
  354MOL0     N47707   2.944   8.433   0.092 -0.3968  0.3082 -0.9188
  354MOL0     C47708   3.123   8.923   0.973  0.4155  0.7172  0.3539
  354MOL0     C47709   3.228   8.992   1.024  0.1265 -0.4039 -0.4330
  354MOL0     C47710   3.525   9.237   1.165 -0.0938  0.1142 -1.0280
  354MOL0     C47711   3.627   9.294   1.085  0.1414 -0.4601  0.5065
  354MOL0     C47712   3.764   9.287   1.124  0.2096 -0.5129  0.0891
  354MOL0     C47713   3.804   9.214   1.233 -0.0353 -0.4224 -0.0743
  354MOL0     O47714   3.934   9.197   1.260 -0.0240 -0.2687  0.3490
  354MOL0     C47715   3.990   9.128   1.368 -0.5397 -0.3806  0.4767
  354MOL0     C47716   4.114   9.201   1.431  1.5110  0.4818  0.7471
  354MOL0     C47717   4.192   9.117   1.532 -0.2255 -0.7989  0.4690
  354MOL0     C47718   4.252   9.210   1.642  0.5235 -0.4212 -0.3570
  354MOL0     C47719   4.343   9.315   1.597  0.9824 -0.2276  0.4596
  354MOL0     C47720   4.413   9.421   1.593  0.7398  1.3669  0.3375
  354MOL0     C47721   3.702   9.160   1.306  0.3674  0.2762  1.0097
  354MOL0     C47722   3.566   9.167   1.278 -0.3000  0.3857  1.0832
  354MOL0     H47723   3.080   9.109   1.301 -0.5416  0.1846 -0.5776
  354MOL0     H47724   2.889   8.981   1.202  0.5028  1.7582  1.1131
  354MOL0     H47725   2.715   8.789   0.951  0.8107 -0.6672  2.3279
  354MOL0     H47726   2.741   8.933   1.051 -0.6283  0.0985 -0.2535
  354MOL0     H47727   2.689   9.025   0.824  0.6021  0.1029 -1.8839
  354MOL0     H47728   2.847   9.053   0.877  1.8491 -0.0530 -1.8014
  354MOL0     H47729   2.845   8.986   0.644  0.6192  2.3602  2.4244
  354MOL0     H47730   2.956   8.889   0.736  0.6479 -0.7587  0.3237
  354MOL0     H47731   2.766   8.699   0.756 -3.1804 -0.7187 -1.1237
  354MOL0     H47732   2.680   8.793   0.647 -0.0152  1.8983  2.2259
  354MOL0     H47733   2.842   8.796   0.462  1.0146 -0.4968 -1.2447
  354MOL0     H47734   2.958   8.709   0.562 -0.4356  0.7265  0.2723
  354MOL0     H47735   2.812   8.506   0.574  3.8137 -2.5950 -2.6124
  354MOL0     H47736   2.700   8.601   0.484  0.3989  1.2759  1.6452
  354MOL0     H47737   2.977   8.503   0.390  0.0693  1.4851  3.8526
  354MOL0     H47738   2.822   8.417   0.377 -1.8727  0.0318  0.7789
  354MOL0     H47739   2.935   8.668   0.253  0.2265 -0.7789 -0.2644
  354MOL0     H47740   2.753   8.664   0.269  0.1482  0.8816  3.4168
  354MOL0     H47741   2.636   8.531   0.082  0.3909 -0.0929 -2.7710
  354MOL0     H47742   2.659   8.220  -0.103  0.6656  0.5155  1.2938
  354MOL0     H47743   2.571   8.367  -0.114 -1.0540 -0.7656 -2.3441
  354MOL0     H47744   2.765   8.239  -0.299 -0.7192 -1.0189  1.6390
  354MOL0     H47745   2.832   8.383  -0.253  1.1973 -3.2198  3.1225
  354MOL0     H47746   2.678   8.415  -0.468 -3.8576  6.4407 -0.3939
  354MOL0     H47747   2.622   8.504  -0.330 -0.6904  0.1172  1.5985
  354MOL0     H47748   2.450   8.328  -0.285 -0.1813  0.1803 -0.2596
  354MOL0     H47749   2.518   8.232  -0.411 -2.5893  0.2610 -0.2474
  354MOL0     H47750   2.344   8.535  -0.260  1.4190  1.6909 -0.0019
  354MOL0     H47751   2.208   8.683  -0.142 -1.4375  3.1933 -0.4886
  354MOL0     H47752   2.066   8.733  -0.196 -1.4631 -0.6921 -1.7575
  354MOL0     H47753   2.063   8.566  -0.129 -5.0046  3.6030  0.7412
  354MOL0     H47754   1.649   8.797  -0.381 -1.6467  2.1833 -1.4883
  354MOL0     H47755   1.420   8.781  -0.373 -2.4737 -0.5562 -0.4634
  354MOL0     H47756   1.239   8.480  -0.673 -0.4695 -1.8510  1.8005
  354MOL0     H47757   1.108   8.491  -0.553 -2.0390  2.5277  0.0825
  354MOL0     H47758   1.016   8.677  -0.624  1.0603  2.4725  1.4616
  354MOL0     H47759   1.160   8.737  -0.716  0.3178 -0.8429 -3.3964
  354MOL0     H47760   0.986   8.511  -0.828  0.3554 -0.2833  1.0180
  354MOL0     H47761   1.132   8.568  -0.891 -0.6871 -0.2494  0.6538
  354MOL0     H47762   0.879   8.734  -0.835 -0.2141 -1.4133  1.6718
  354MOL0     H47763   1.013   8.798  -0.923  1.7006 -0.0501  2.3044
  354MOL0     H47764   0.816   8.720  -1.056 -1.1953 -0.1756  3.5146
  354MOL0     H47765   0.850   8.546  -1.005  0.4000  0.4311  1.3224
  354MOL0     H47766   1.005   8.718  -1.196  1.0053 -1.2617 -2.6441
  354MOL0     H47767   1.068   8.576  -1.130  1.2404  1.8802 -1.4974
  354MOL0     H47768   0.843   8.620  -1.324  1.9348  2.5082  2.8052
  354MOL0     H47769   0.815   8.476  -1.216 -0.2267  0.7997  1.3062
  354MOL0     H47770   0.930   8.397  -1.433 -1.2055 -0.0517  1.6060
  354MOL0     H47771   1.030   8.374  -1.300  0.0059  2.0484  3.2829
  354MOL0     H47772   1.433   8.452  -0.660 -0.6057  1.7182 -0.6914
  354MOL0     H47773   1.690   8.464  -0.655 -0.1323  1.0483 -0.9820
  354MOL0     H47774   2.016   8.475  -0.621  2.3722 -3.7994 -2.2823
  354MOL0     H47775   2.235   8.379  -0.638  1.0867 -2.3684  2.6415
  354MOL0     H47776   3.127   8.857   0.887  2.7320  0.1578  0.8209
  354MOL0     H47777   3.325   8.987   0.976  2.1015 -0.8044  3.2249
  354MOL0     H47778   3.614   9.343   0.989  2.9051 -0.4144  0.0677
  354MOL0     H47779   3.847   9.330   1.070  1.3787  0.4135  2.4768
  354MOL0     H47780   3.924   9.088   1.446 -1.9042  1.2254  0.1938
  354MOL0     H47781   4.030   9.035   1.328  1.5257  0.2764  0.8890
  354MOL0     H47782   4.069   9.285   1.485 -0.0083 -1.5737  2.9025
  354MOL0     H47783   4.179   9.239   1.352  0.9357 -0.1296 -0.0285
  354MOL0     H47784   4.274   9.058   1.491 -0.2737  0.6268 -1.8601
  354MOL0     H47785   4.128   9.040   1.576 -1.3856 -0.3383 -0.3808
  354MOL0     H47786   4.288   9.152   1.727 -0.0608 -0.8215 -0.3775
  354MOL0     H47787   4.158   9.257   1.673 -0.3630 -2.0940 -0.3818
  354MOL0     H47788   4.485   9.499   1.578  3.8041 -1.1919  0.5945
  354MOL0     H47789   3.715   9.093   1.390 -1.8894 -1.1298  0.3329
  354MOL0     H47790   3.501   9.107   1.341 -0.1051  3.3153  4.3813
  355MOL0     O47791   1.012   7.869   8.110 -0.3786  0.5376 -0.3177
  355MOL0     C47792   1.130   7.902   8.118  0.0515 -0.3282 -0.2642
  355MOL0     O47793   1.219   7.890   8.220  0.0118  0.6454  0.0879
  355MOL0     C47794   1.179   7.809   8.321  0.0626  0.3890 -0.1779
  355MOL0     C47795   1.285   7.740   8.379 -0.1292 -0.4679  0.1299
  355MOL0     C47796   1.270   7.671   8.504 -0.6053 -0.5250 -0.0560
  355MOL0     C47797   1.151   7.680   8.572 -0.2070  0.5239 -0.2608
  355MOL0     O47798   1.131   7.642   8.709  0.0268  0.0321 -0.0921
  355MOL0     C47799   1.251   7.604   8.781 -0.1713 -0.3559  0.5905
  355MOL0     C47800   1.219   7.577   8.927 -0.8671  0.1698 -0.6407
  355MOL0     C47801   1.090   7.488   8.944  0.4419 -0.1764 -1.3361
  355MOL0     C47802   0.971   7.571   9.009 -0.4274  0.4032 -0.1732
  355MOL0     C47803   0.838   7.492   9.000  0.7886 -0.3321  0.1773
  355MOL0     C47804   0.824   7.360   9.079  0.4650 -0.0333 -0.2509
  355MOL0     C47805   0.681   7.303   9.093 -0.5966  0.4902 -1.1728
  355MOL0     C47806   0.699   7.161   9.141 -0.6244 -0.1606  0.7732
  355MOL0     N47807   0.563   7.108   9.156 -0.6911 -0.1130  0.5852
  355MOL0     C47808   0.492   7.107   9.273  0.3716  0.1104 -0.2489
  355MOL0     C47809   0.381   7.030   9.253  0.2733  0.0637  0.1828
  355MOL0     C47810   0.280   6.971   9.351  0.8355 -0.1682  0.1511
  355MOL0     C47811   0.327   6.999   9.492 -0.6016  0.0939  0.3057
  355MOL0     C47812   0.235   6.916   9.597 -0.5404  0.3836  0.6448
  355MOL0     C47813   0.263   6.965   9.739 -0.5336 -0.0838  0.1695
  355MOL0     O47814   0.222   7.103   9.753 -1.0405 -0.6170 -0.2709
  355MOL0     C47815   0.174   7.135   9.872 -0.1825 -0.2502  0.6132
  355MOL0     C47816   0.166   7.055   9.989  0.9055  0.3307 -0.0137
  355MOL0     C47817   0.118   7.100  10.111  0.9679  0.2763 -0.8748
  355MOL0     C47818   0.130   7.001  10.225  0.1584  0.0065 -0.2822
  355MOL0     C47819   0.067   7.236  10.125 -0.8592  0.1511  0.2165
  355MOL0     C47820   0.008   7.290  10.246 -0.0386  0.2345  0.5219
  355MOL0     O47821  -0.024   7.204  10.343 -0.6814  0.5823  0.5416
  355MOL0     C47822  -0.131   7.244  10.418 -0.2682  0.0152 -0.0208
  355MOL0     C47823  -0.264   7.227  10.373  0.3686  0.2766 -0.0223
  355MOL0     C47824  -0.370   7.277  10.460 -0.8873  0.0757  0.2755
  355MOL0     C47825  -0.337   7.340  10.584  0.0916 -0.1948 -0.4182
  355MOL0     O47826  -0.425   7.384  10.680  0.9991 -0.3580 -0.3184
  355MOL0     C47827  -0.445   7.524  10.657  0.5021 -0.1997 -0.3277
  355MOL0     C47828  -0.542   7.561  10.541  0.2929 -0.5401 -0.2778
  355MOL0     C47829  -0.673   7.501  10.535  0.5215  0.0732 -0.1631
  355MOL0     C47830  -0.781   7.591  10.599  0.5984 -0.0825 -0.5245
  355MOL0     C47831  -0.911   7.527  10.611  0.8420 -0.7907  0.6567
  355MOL0     C47832  -1.018   7.620  10.672  0.0274  0.3353  0.4435
  355MOL0     C47833  -1.157   7.562  10.700 -0.1633 -0.6371 -0.1291
  355MOL0     C47834  -1.242   7.656  10.777 -0.8181 -0.5350  0.0869
  355MOL0    Cl47835  -1.232   7.818  10.705 -0.0369  0.1614 -0.0245
  355MOL0     C47836  -0.204   7.345  10.627 -0.5401  0.2278  0.7459
  355MOL0     C47837  -0.099   7.301  10.541  0.0036  0.2436 -0.1021
  355MOL0     O47838  -0.017   7.410  10.244 -0.2685 -1.1858  1.1596
  355MOL0     C47839   0.060   7.311   9.999 -0.6068 -0.2016 -0.4808
  355MOL0     C47840   0.111   7.256   9.884  0.3611 -0.2047  0.8120
  355MOL0     N47841   0.387   6.991   9.119  0.0904 -0.1218  0.0133
  355MOL0     N47842   0.508   7.029   9.068  0.2176 -0.3243 -1.0557
  355MOL0     C47843   1.040   7.742   8.511 -0.8187  0.4631 -0.1179
  355MOL0     C47844   1.052   7.806   8.382  0.0870 -0.5053 -0.1202
  355MOL0     C47845   1.182   8.000   8.013 -0.1964 -0.6445 -0.1515
  355MOL0     C47846   1.312   8.058   8.004  0.2066  0.0687 -0.8412
  355MOL0     C47847   1.342   8.137   7.894  0.4960  0.2716 -0.7470
  355MOL0     C47848   1.248   8.160   7.799  0.1129  0.2404 -0.7902
  355MOL0     O47849   1.294   8.247   7.694  0.6848 -0.1367  0.0410
  355MOL0     C47850   1.213   8.264   7.577 -0.1827 -0.1559 -0.2920
  355MOL0     C47851   1.307   8.334   7.473  0.5262 -0.2748  0.2052
  355MOL0     C47852   1.248   8.341   7.333  0.1159  0.2725  0.2795
  355MOL0     C47853   1.319   8.429   7.229 -1.3623  0.3294  1.1353
  355MOL0     C47854   1.459   8.386   7.199 -0.1062  0.5976 -0.0461
  355MOL0     C47855   1.575   8.378   7.166  0.1750 -0.5589 -0.0494
  355MOL0     C47856   1.117   8.105   7.797 -0.8312 -0.4635 -0.3607
  355MOL0     C47857   1.087   8.026   7.909  0.9455  0.4933 -0.1023
  355MOL0     H47858   1.383   7.740   8.332 -0.3876  1.3224 -0.4641
  355MOL0     H47859   1.358   7.627   8.548 -0.3322  0.3857  0.3395
  355MOL0     H47860   1.283   7.511   8.733  2.4779 -0.2779  2.0281
  355MOL0     H47861   1.327   7.681   8.764 -2.5680  1.5494 -2.4112
  355MOL0     H47862   1.302   7.521   8.969 -1.0171 -0.8955 -1.7131
  355MOL0     H47863   1.212   7.672   8.981  0.9822  2.8495 -4.6560
  355MOL0     H47864   1.060   7.438   8.852 -2.2591 -0.2257 -0.5064
  355MOL0     H47865   1.124   7.416   9.019  0.1781  0.3172 -0.7338
  355MOL0     H47866   0.980   7.609   9.111  0.3202  2.9506 -1.1223
  355MOL0     H47867   0.961   7.660   8.947  0.6689  0.6847  0.0398
  355MOL0     H47868   0.763   7.565   9.030  0.8641 -0.3580  0.4351
  355MOL0     H47869   0.819   7.484   8.893 -0.9549  1.0526  0.3548
  355MOL0     H47870   0.892   7.287   9.035  1.0625 -0.3151  1.1198
  355MOL0     H47871   0.856   7.378   9.181  0.3288  1.5075 -0.4555
  355MOL0     H47872   0.619   7.371   9.152 -0.7304  2.4821 -3.4359
  355MOL0     H47873   0.626   7.308   8.999  0.5043  1.0860 -1.8166
  355MOL0     H47874   0.757   7.143   9.231  2.6705  3.1108 -0.4257
  355MOL0     H47875   0.740   7.109   9.054 -3.8655  1.1180 -1.7492
  355MOL0     H47876   0.519   7.159   9.364 -0.8291  1.1574 -0.4633
  355MOL0     H47877   0.185   7.023   9.335  1.2802  0.8101  0.5982
  355MOL0     H47878   0.274   6.865   9.326 -6.1553  0.2466 -2.1531
  355MOL0     H47879   0.334   7.106   9.509 -0.6029  0.7542 -3.0896
  355MOL0     H47880   0.431   6.968   9.506  0.1687  0.6632 -3.1863
  355MOL0     H47881   0.264   6.811   9.583 -2.1819 -0.1619  1.0318
  355MOL0     H47882   0.128   6.912   9.575 -0.1133 -2.2288 -1.6278
  355MOL0     H47883   0.370   6.972   9.761  0.2814 -0.4331 -3.1826
  355MOL0     H47884   0.214   6.896   9.808 -0.0608  1.9082  2.6662
  355MOL0     H47885   0.194   6.951   9.987 -2.6647 -0.7787 -2.4849
  355MOL0     H47886   0.063   6.920  10.197 -2.1773  2.6106 -2.8695
  355MOL0     H47887   0.233   6.964  10.225 -0.1434 -0.8863 -1.2346
  355MOL0     H47888   0.105   7.031  10.327  2.1162 -2.8268  1.1892
  355MOL0     H47889  -0.277   7.177  10.278 -2.9296 -0.3466  0.6303
  355MOL0     H47890  -0.475   7.280  10.436 -0.3577  3.0792 -2.3364
  355MOL0     H47891  -0.494   7.540  10.753  0.9821  0.0552 -0.1215
  355MOL0     H47892  -0.345   7.568  10.648  1.5405 -2.4474 -0.3748
  355MOL0     H47893  -0.557   7.670  10.544 -0.0185 -0.6105  1.2955
  355MOL0     H47894  -0.488   7.539  10.449  0.5220  0.5847 -0.4276
  355MOL0     H47895  -0.674   7.413  10.601  0.8912 -1.2299 -1.8481
  355MOL0     H47896  -0.714   7.468  10.439 -1.6834  2.0591 -0.0048
  355MOL0     H47897  -0.745   7.612  10.700 -0.9711 -0.2980  0.1038
  355MOL0     H47898  -0.787   7.683  10.540 -1.0195  0.2665  0.1274
  355MOL0     H47899  -0.913   7.437  10.673  2.5902 -0.0722  1.8411
  355MOL0     H47900  -0.952   7.496  10.515 -1.2443  1.4789  0.6966
  355MOL0     H47901  -0.973   7.648  10.768  0.3850  1.2510  0.0164
  355MOL0     H47902  -1.028   7.710  10.611  1.3657 -1.1024 -2.0342
  355MOL0     H47903  -1.158   7.466  10.752 -1.8960 -0.0592  1.0008
  355MOL0     H47904  -1.204   7.546  10.602 -0.0542  2.6091 -0.8208
  355MOL0     H47905  -1.218   7.654  10.884  1.4201  1.1745 -0.3215
  355MOL0     H47906  -1.344   7.622  10.756 -0.7218 -1.5522  1.1674
  355MOL0     H47907  -0.176   7.384  10.724 -1.4892  0.6113  0.8729
  355MOL0     H47908   0.005   7.317  10.569 -0.3400 -0.2079  1.5261
  355MOL0     H47909   0.029   7.414  10.004  1.3538  0.3909  0.5953
  355MOL0     H47910   0.104   7.324   9.800 -2.0232 -0.5290  0.6988
  355MOL0     H47911   0.954   7.734   8.576  1.0066 -1.2314  2.2788
  355MOL0     H47912   0.966   7.863   8.346  1.6106 -0.0947 -3.5017
  355MOL0     H47913   1.381   8.023   8.080 -0.7167 -2.4410 -1.0354
  355MOL0     H47914   1.442   8.174   7.871  0.5258 -0.7655 -2.4981
  355MOL0     H47915   1.179   8.169   7.534 -1.2968  0.6324 -1.1764
  355MOL0     H47916   1.130   8.334   7.579 -0.6000 -0.5678  2.8041
  355MOL0     H47917   1.390   8.263   7.467 -0.3881 -1.2737 -1.3001
  355MOL0     H47918   1.333   8.428   7.522 -1.7951 -1.8639  5.2729
  355MOL0     H47919   1.148   8.386   7.335 -0.5223 -1.1345  1.1314
  355MOL0     H47920   1.241   8.241   7.289  1.9922  0.5381 -0.7377
  355MOL0     H47921   1.320   8.529   7.275 -1.0954 -0.4475  2.8861
  355MOL0     H47922   1.261   8.439   7.136  0.8056  2.3029 -0.1066
  355MOL0     H47923   1.675   8.385   7.128  0.1280 -1.2706 -0.3253
  355MOL0     H47924   1.048   8.112   7.714  0.3269  2.0836 -1.2038
  355MOL0     H47925   0.990   7.977   7.911  0.4472  1.3168  3.1708
  356MOL0     O47926   4.279   8.465   6.171  0.7353  0.5298 -0.6845
  356MOL0     C47927   4.353   8.558   6.191 -0.0139 -0.9818  0.7541
  356MOL0     O47928   4.309   8.684   6.190 -0.2216 -0.3139 -0.1327
  356MOL0     C47929   4.189   8.726   6.144  0.2760  0.5639 -0.4811
  356MOL0     C47930   4.135   8.686   6.023  0.3715  0.0754 -0.5501
  356MOL0     C47931   4.013   8.730   5.985 -0.0806  0.1522 -0.4669
  356MOL0     C47932   3.921   8.797   6.070  0.2093 -0.0948  0.4067
  356MOL0     O47933   3.791   8.841   6.044 -0.1006 -0.2501 -0.3433
  356MOL0     C47934   3.744   8.844   5.910  0.6513 -0.0852 -0.2418
  356MOL0     C47935   3.594   8.835   5.919 -0.2199 -0.0912  0.8110
  356MOL0     C47936   3.543   8.862   5.775 -0.8065 -0.6042 -0.5303
  356MOL0     C47937   3.391   8.844   5.771  0.5125  0.1565 -0.7137
  356MOL0     C47938   3.321   8.856   5.638 -0.2014  0.4219 -0.6349
  356MOL0     C47939   3.360   8.993   5.586  0.5221 -0.3072  0.5888
  356MOL0     C47940   3.275   9.028   5.458 -0.1042 -0.2577  0.3083
  356MOL0     C47941   3.284   9.177   5.414  0.2957 -0.3973 -0.5360
  356MOL0     N47942   3.256   9.195   5.268 -0.1073  0.6801 -0.1943
  356MOL0     C47943   3.338   9.243   5.171 -0.0432 -0.4413  0.7713
  356MOL0     C47944   3.272   9.241   5.049  0.1538 -0.5602  0.1459
  356MOL0     C47945   3.309   9.290   4.914 -0.1419 -0.0968  0.1246
  356MOL0     C47946   3.300   9.444   4.890  0.4343  0.4417 -0.5252
  356MOL0     C47947   3.168   9.511   4.944  0.5465  0.8942 -0.0091
  356MOL0     C47948   3.042   9.479   4.859 -0.0817  1.0611 -0.5850
  356MOL0     O47949   2.931   9.555   4.914 -0.4263 -0.0074  0.5493
  356MOL0     C47950   2.809   9.542   4.845  0.1810 -0.9060 -0.0381
  356MOL0     C47951   2.707   9.620   4.891  0.2162  0.5160  0.5877
  356MOL0     C47952   2.585   9.634   4.828  0.4885  1.4731  0.5297
  356MOL0     C47953   2.489   9.736   4.889 -0.0466  1.1454  0.3266
  356MOL0     C47954   2.550   9.550   4.717 -1.1275  0.0153  0.8650
  356MOL0     C47955   2.421   9.558   4.647 -0.7785 -0.4296 -0.3559
  356MOL0     O47956   2.392   9.447   4.581  0.3956 -0.3422 -0.7900
  356MOL0     C47957   2.255   9.422   4.546  0.6690 -0.0996  0.2260
  356MOL0     C47958   2.196   9.310   4.616 -0.9369 -0.1966  0.2568
  356MOL0     C47959   2.066   9.278   4.597  0.5495  0.3620 -0.2987
  356MOL0     C47960   1.997   9.337   4.488 -0.8118 -0.1488  1.3125
  356MOL0     O47961   1.872   9.279   4.464 -0.0405 -0.0008 -0.0082
  356MOL0     C47962   1.806   9.295   4.334 -0.1850  0.1842 -0.3816
  356MOL0     C47963   1.667   9.235   4.351 -0.2843 -0.4465  0.2404
  356MOL0     C47964   1.582   9.208   4.227 -0.1508 -0.1287 -0.9144
  356MOL0     C47965   1.642   9.093   4.139 -0.1985 -0.9434  0.1116
  356MOL0     C47966   1.552   9.058   4.025 -0.0783 -0.4482 -0.1183
  356MOL0     C47967   1.598   8.920   3.968 -0.5323 -0.3664 -0.1765
  356MOL0     C47968   1.508   8.866   3.854 -0.2471  0.5946 -0.3386
  356MOL0     C47969   1.351   8.864   3.886 -0.7410  0.5614 -0.4924
  356MOL0    Cl47970   1.321   8.743   4.012  0.0417  0.5544  0.4069
  356MOL0     C47971   2.057   9.445   4.410 -0.2103 -0.1940 -0.9082
  356MOL0     C47972   2.191   9.487   4.442 -0.9636  0.4306  0.9852
  356MOL0     O47973   2.354   9.664   4.638  0.3234 -0.3036 -0.0855
  356MOL0     C47974   2.659   9.472   4.666  0.8936  0.5539  0.1132
  356MOL0     C47975   2.783   9.467   4.729 -1.2881  0.0834 -1.0062
  356MOL0     N47976   3.150   9.194   5.078  0.1152  0.1646  0.0768
  356MOL0     N47977   3.140   9.156   5.202 -0.2890  0.7326 -0.1866
  356MOL0     C47978   3.977   8.825   6.192  0.1589  1.0367  0.8179
  356MOL0     C47979   4.109   8.799   6.231 -1.1556 -0.2536  0.3461
  356MOL0     C47980   4.484   8.545   6.247  0.2219 -0.3688  0.2798
  356MOL0     C47981   4.533   8.421   6.284  0.2577 -0.1009  0.6155
  356MOL0     C47982   4.671   8.401   6.325  0.3214 -0.2393 -0.2823
  356MOL0     C47983   4.763   8.514   6.323  0.7183  0.2241  0.3069
  356MOL0     O47984   4.891   8.488   6.356  0.4474 -0.3015  0.2397
  356MOL0     C47985   4.996   8.580   6.344 -0.1731 -0.3611 -0.2703
  356MOL0     C47986   5.050   8.601   6.196  0.3566 -0.2682 -0.2636
  356MOL0     C47987   5.099   8.752   6.186  0.0155 -0.0527  0.3075
  356MOL0     C47988   5.143   8.781   6.051  0.3566  0.4284  0.7837
  356MOL0     C47989   5.241   8.885   6.028  0.3830 -0.9591 -0.6027
  356MOL0     C47990   5.318   8.975   6.007 -0.1536  0.3299  0.1883
  356MOL0     C47991   4.706   8.632   6.274 -0.6103  0.0858 -0.0849
  356MOL0     C47992   4.573   8.646   6.241 -0.4135 -0.1850 -0.1267
  356MOL0     H47993   4.191   8.629   5.949  1.5626  0.4147  0.0655
  356MOL0     H47994   3.976   8.721   5.883 -0.1540  3.6669 -0.8898
  356MOL0     H47995   3.788   8.935   5.868 -1.2452  1.9638  1.9030
  356MOL0     H47996   3.779   8.754   5.858 -2.1401 -1.9584  0.9004
  356MOL0     H47997   3.563   8.736   5.953  3.6149 -1.2472  1.3932
  356MOL0     H47998   3.570   8.903   6.001  1.5326  0.4225  0.9425
  356MOL0     H47999   3.564   8.968   5.757 -0.0030 -0.7090 -0.2182
  356MOL0     H48000   3.589   8.804   5.695 -1.2434 -1.1383 -0.4002
  356MOL0     H48001   3.357   8.743   5.798 -0.4565  0.1805 -1.7681
  356MOL0     H48002   3.362   8.925   5.838  3.2588  1.0667 -0.5183
  356MOL0     H48003   3.348   8.778   5.567 -1.9514 -1.8547  1.0336
  356MOL0     H48004   3.211   8.856   5.644 -0.1722  0.2975  0.0345
  356MOL0     H48005   3.336   9.069   5.661 -0.1278  0.4892 -0.3927
  356MOL0     H48006   3.467   8.995   5.563  0.3223  0.3166 -0.3655
  356MOL0     H48007   3.310   8.973   5.371 -0.9385  1.0573 -0.9029
  356MOL0     H48008   3.170   9.000   5.474 -0.0617 -0.4696  0.2139
  356MOL0     H48009   3.388   9.207   5.432 -0.4261  2.6473 -0.8319
  356MOL0     H48010   3.226   9.248   5.474  0.1029 -1.4073  0.5155
  356MOL0     H48011   3.439   9.282   5.182 -0.7830  3.2310 -2.9446
  356MOL0     H48012   3.413   9.258   4.900  0.0374  0.6286 -0.2370
  356MOL0     H48013   3.245   9.244   4.838 -2.1148 -2.8036  3.1576
  356MOL0     H48014   3.296   9.471   4.784 -1.9326  3.0382  0.1010
  356MOL0     H48015   3.395   9.486   4.924  2.2955  0.0822 -4.6559
  356MOL0     H48016   3.177   9.620   4.946  0.8993  0.8568  1.3334
  356MOL0     H48017   3.142   9.491   5.048  1.6276  2.1122  0.5272
  356MOL0     H48018   3.020   9.372   4.866 -0.7792  1.0339 -2.5600
  356MOL0     H48019   3.060   9.518   4.758 -2.7191 -0.7676 -1.8855
  356MOL0     H48020   2.735   9.684   4.974 -0.1401  1.6912 -0.1782
  356MOL0     H48021   2.521   9.830   4.844  0.7108  0.7841  0.0849
  356MOL0     H48022   2.385   9.718   4.862  0.3687 -1.7879  0.2927
  356MOL0     H48023   2.505   9.735   4.997 -0.7586  1.8051  0.4467
  356MOL0     H48024   2.256   9.243   4.677 -2.3134 -0.9571  0.8245
  356MOL0     H48025   2.026   9.189   4.645 -1.1957 -0.0404 -2.3405
  356MOL0     H48026   1.807   9.398   4.296  0.9187  0.4892  0.4311
  356MOL0     H48027   1.866   9.233   4.266 -1.2686 -0.0758 -1.1235
  356MOL0     H48028   1.668   9.146   4.414 -3.2275 -2.4871 -2.2711
  356MOL0     H48029   1.629   9.323   4.402 -1.7249 -2.0769  2.1143
  356MOL0     H48030   1.581   9.305   4.175 -0.2615  0.0986 -0.4969
  356MOL0     H48031   1.484   9.171   4.259  0.5913 -1.8141 -0.4939
  356MOL0     H48032   1.738   9.117   4.093  0.1596 -0.1427  1.2299
  356MOL0     H48033   1.668   9.002   4.193  0.2656 -0.4496  0.7307
  356MOL0     H48034   1.533   9.142   3.958  1.2037 -0.2806 -0.2868
  356MOL0     H48035   1.452   9.047   4.070 -0.5519  0.4259 -0.9060
  356MOL0     H48036   1.702   8.912   3.935 -0.2308  1.5305  0.1988
  356MOL0     H48037   1.583   8.855   4.055  0.9924  0.1557  0.5130
  356MOL0     H48038   1.540   8.765   3.828 -3.5847 -1.0493  1.2719
  356MOL0     H48039   1.540   8.927   3.769  1.4316  0.1616 -0.0613
  356MOL0     H48040   1.294   8.841   3.795 -2.0985  0.0850  0.4467
  356MOL0     H48041   1.321   8.958   3.932 -0.0621 -0.4238  2.1143
  356MOL0     H48042   1.980   9.491   4.350  1.4980 -0.9633 -3.8810
  356MOL0     H48043   2.256   9.559   4.393  0.6284 -1.6401 -0.0732
  356MOL0     H48044   2.645   9.400   4.586 -0.9257 -0.4021  1.2381
  356MOL0     H48045   2.857   9.398   4.690 -1.0457  1.9391 -4.1347
  356MOL0     H48046   3.909   8.874   6.261 -3.4364  2.6631 -3.4532
  356MOL0     H48047   4.140   8.833   6.329 -0.8815 -2.3399  1.0325
  356MOL0     H48048   4.486   8.325   6.265 -0.3067  0.4931 -1.2524
  356MOL0     H48049   4.701   8.300   6.350 -0.9113 -0.5557 -0.0075
  356MOL0     H48050   4.978   8.674   6.398  1.5077  0.4413 -1.0304
  356MOL0     H48051   5.061   8.531   6.416 -1.6468  1.6932  2.6593
  356MOL0     H48052   4.971   8.565   6.129  1.4709 -0.8254 -1.3139
  356MOL0     H48053   5.135   8.538   6.166  1.6861  2.0784 -1.7313
  356MOL0     H48054   5.172   8.768   6.266 -1.7773 -0.0605  2.0490
  356MOL0     H48055   5.027   8.827   6.220  0.6957 -1.0401  4.4753
  356MOL0     H48056   5.056   8.805   5.989 -0.6571  1.9619  2.6846
  356MOL0     H48057   5.184   8.687   6.012 -2.7503 -2.0741  3.0247
  356MOL0     H48058   5.388   9.052   5.979  0.2783 -0.1678 -0.1428
  356MOL0     H48059   4.774   8.716   6.265  0.7713 -0.2822  4.4761
  356MOL0     H48060   4.554   8.747   6.206 -0.2618  0.5824  1.8666
  357MOL0     O48061   3.845   2.719   5.116  0.1695 -0.3385 -0.2013
  357MOL0     C48062   3.777   2.644   5.045 -0.3938  0.4854 -0.1768
  357MOL0     O48063   3.779   2.508   5.048 -0.4170 -0.1238  0.4996
  357MOL0     C48064   3.850   2.447   5.155  0.7961 -0.0564 -0.2445
  357MOL0     C48065   3.795   2.420   5.280 -0.9189 -0.2403  1.0895
  357MOL0     C48066   3.859   2.370   5.386  0.2242  1.1288 -0.3566
  357MOL0     C48067   3.995   2.334   5.363 -0.2333 -0.6162 -0.1893
  357MOL0     O48068   4.072   2.275   5.460 -0.7277 -0.3106  0.7167
  357MOL0     C48069   4.068   2.341   5.590 -0.0135  0.2626  0.2927
  357MOL0     C48070   4.180   2.294   5.683  0.2855  0.0664  0.4069
  357MOL0     C48071   4.169   2.339   5.828  0.6571  0.3661 -0.1912
  357MOL0     C48072   4.285   2.285   5.909 -0.0546  0.2592 -0.5654
  357MOL0     C48073   4.250   2.295   6.063 -0.2499  0.0083 -0.9173
  357MOL0     C48074   4.288   2.430   6.117 -0.4353  0.2092  0.3149
  357MOL0     C48075   4.239   2.466   6.262 -0.8772  0.0401 -0.3383
  357MOL0     C48076   4.314   2.400   6.367 -0.0731 -0.5786 -0.0205
  357MOL0     N48077   4.265   2.445   6.502 -0.2577 -0.0165  0.2499
  357MOL0     C48078   4.299   2.558   6.569 -0.2974 -0.5210 -0.2642
  357MOL0     C48079   4.224   2.558   6.680  0.0072  0.0468  0.3805
  357MOL0     C48080   4.222   2.675   6.770 -0.6009  0.8828 -0.6880
  357MOL0     C48081   4.141   2.788   6.723 -0.4093 -0.4976  0.3920
  357MOL0     C48082   3.996   2.807   6.768 -0.2610  0.2177 -0.4193
  357MOL0     C48083   3.978   2.833   6.913 -0.0992  0.9025 -0.6116
  357MOL0     O48084   4.051   2.960   6.926  0.5046  0.3810 -0.5912
  357MOL0     C48085   4.044   3.042   7.039 -0.7344 -0.1302 -1.0673
  357MOL0     C48086   3.999   3.009   7.166  0.0461  0.0757 -0.0379
  357MOL0     C48087   4.017   3.089   7.278 -0.2256 -0.3541  0.3181
  357MOL0     C48088   3.970   3.031   7.411  0.7213  0.9668 -0.0419
  357MOL0     C48089   4.068   3.223   7.261 -0.3503 -0.2071  0.7004
  357MOL0     C48090   4.089   3.327   7.362 -0.4730 -0.7298  0.7085
  357MOL0     O48091   4.161   3.437   7.329 -0.4511 -0.8401 -0.5775
  357MOL0     C48092   4.172   3.540   7.427 -0.0137 -0.2437  0.6693
  357MOL0     C48093   4.254   3.521   7.543 -0.4307 -1.0220 -0.3568
  357MOL0     C48094   4.284   3.629   7.626  1.3422  0.3280  0.5160
  357MOL0     C48095   4.216   3.753   7.607  1.1077  0.6022 -0.0203
  357MOL0     O48096   4.250   3.863   7.675 -0.2696 -0.1440  0.1003
  357MOL0     C48097   4.320   3.846   7.803  0.1377  0.1693  0.1027
  357MOL0     C48098   4.253   3.777   7.918  1.2371 -0.0348  0.1545
  357MOL0     C48099   4.332   3.782   8.041 -0.5351 -0.1450  0.2032
  357MOL0     C48100   4.267   3.696   8.155  0.1632 -0.0640 -0.2167
  357MOL0     C48101   4.361   3.669   8.267  0.9125  0.2958  0.2995
  357MOL0     C48102   4.380   3.788   8.370  0.0855 -0.4791  0.2170
  357MOL0     C48103   4.477   3.775   8.491  0.0884  0.2546  0.0802
  357MOL0     C48104   4.620   3.743   8.441  0.4495  0.0256 -0.2896
  357MOL0    Cl48105   4.707   3.883   8.374  0.2141 -0.2584 -0.2447
  357MOL0     C48106   4.122   3.771   7.504  0.7827  0.0482 -0.8889
  357MOL0     C48107   4.095   3.655   7.418  0.1665 -0.0632  0.2372
  357MOL0     O48108   4.041   3.303   7.475 -0.3594 -0.7627  0.6046
  357MOL0     C48109   4.108   3.255   7.129  0.1126 -0.2763  0.0452
  357MOL0     C48110   4.106   3.163   7.024  1.0788 -0.3924  0.3923
  357MOL0     N48111   4.138   2.448   6.672  0.0681  0.4475  0.3181
  357MOL0     N48112   4.169   2.378   6.563  0.6263 -0.4629  0.0020
  357MOL0     C48113   4.058   2.360   5.238  0.6466 -0.7142  0.6716
  357MOL0     C48114   3.984   2.417   5.132 -0.5069 -1.1347 -0.0261
  357MOL0     C48115   3.663   2.715   4.969 -0.2060  0.2503  0.8929
  357MOL0     C48116   3.562   2.647   4.889  0.9102  0.9081  0.5589
  357MOL0     C48117   3.458   2.705   4.822  0.0822 -0.2543  0.0987
  357MOL0     C48118   3.433   2.841   4.846  0.3951 -0.0165 -0.7989
  357MOL0     O48119   3.316   2.899   4.805 -0.3791  0.6317 -0.4401
  357MOL0     C48120   3.257   3.025   4.858 -0.2755  0.2075 -1.0413
  357MOL0     C48121   3.228   3.002   5.003  1.0039  0.4279 -0.2624
  357MOL0     C48122   3.135   3.117   5.067 -0.5876 -0.6405 -0.1071
  357MOL0     C48123   3.079   3.085   5.200  0.3852 -0.2722 -0.5313
  357MOL0     C48124   3.184   3.062   5.305  0.2381 -0.1656 -0.2093
  357MOL0     C48125   3.276   3.040   5.389  1.1188  0.5902  0.2513
  357MOL0     C48126   3.525   2.910   4.924 -0.2048  0.6450 -0.2698
  357MOL0     C48127   3.642   2.846   4.978  0.9630  0.2187  0.0706
  357MOL0     H48128   3.690   2.444   5.279 -1.2856 -1.7416  1.3952
  357MOL0     H48129   3.813   2.356   5.483  2.0890 -1.8367  0.2190
  357MOL0     H48130   4.087   2.446   5.567  1.7828  0.2664  1.5424
  357MOL0     H48131   3.971   2.323   5.637 -0.5022 -1.2353 -1.1772
  357MOL0     H48132   4.159   2.187   5.679 -0.7385  0.2955 -0.7871
  357MOL0     H48133   4.281   2.313   5.646  0.2480 -3.5426 -2.0903
  357MOL0     H48134   4.151   2.447   5.828  1.0864  0.4658  1.2944
  357MOL0     H48135   4.079   2.297   5.874  1.3074  0.6353  1.3899
  357MOL0     H48136   4.314   2.182   5.889  2.6187  1.4140 -3.4133
  357MOL0     H48137   4.376   2.342   5.889  2.4736 -2.2142  2.7436
  357MOL0     H48138   4.146   2.275   6.089 -0.7475  2.1047 -1.1564
  357MOL0     H48139   4.319   2.230   6.118 -1.3954 -0.5608 -0.1181
  357MOL0     H48140   4.396   2.440   6.103 -0.0366 -0.2159  2.6797
  357MOL0     H48141   4.245   2.513   6.061  2.9040  0.3171 -2.3962
  357MOL0     H48142   4.251   2.574   6.276 -0.0001 -0.2302  1.2779
  357MOL0     H48143   4.134   2.439   6.274 -0.7111 -1.0542 -1.1384
  357MOL0     H48144   4.415   2.442   6.358 -0.6985  0.7826 -1.0020
  357MOL0     H48145   4.316   2.292   6.353  1.1630 -0.5885  0.1597
  357MOL0     H48146   4.370   2.633   6.535  2.7928 -3.3731 -0.5993
  357MOL0     H48147   4.187   2.649   6.870  0.9099 -0.7804 -0.5541
  357MOL0     H48148   4.328   2.695   6.787 -0.3501  1.0620 -2.2561
  357MOL0     H48149   4.151   2.784   6.614  0.7247  1.2727  0.4039
  357MOL0     H48150   4.191   2.880   6.754  0.3513 -0.0644 -1.8788
  357MOL0     H48151   3.946   2.713   6.742  0.9479 -1.3467  2.4184
  357MOL0     H48152   3.950   2.894   6.720  0.9134  1.1303  0.0612
  357MOL0     H48153   4.018   2.749   6.971  0.6993  1.1228 -0.8418
  357MOL0     H48154   3.870   2.842   6.933 -0.5323 -2.1470 -1.1129
  357MOL0     H48155   3.946   2.915   7.169 -4.0795  2.1693 -0.0653
  357MOL0     H48156   3.969   2.922   7.405 -0.7228  0.8030  2.0606
  357MOL0     H48157   4.033   3.050   7.498  0.9263 -2.5137  0.6834
  357MOL0     H48158   3.872   3.061   7.451  0.1016 -0.1325 -0.6929
  357MOL0     H48159   4.303   3.424   7.551  0.6199 -0.3547  2.1319
  357MOL0     H48160   4.353   3.621   7.710 -0.5885  1.6640  2.3285
  357MOL0     H48161   4.417   3.803   7.777  0.2270  0.6562 -0.3691
  357MOL0     H48162   4.336   3.945   7.847  1.6434 -1.0773  2.5854
  357MOL0     H48163   4.155   3.822   7.932  0.1955 -2.2723  0.3477
  357MOL0     H48164   4.232   3.670   7.909 -2.1209  0.4583  0.8151
  357MOL0     H48165   4.362   3.881   8.074 -0.4783 -0.0989  0.0190
  357MOL0     H48166   4.422   3.724   8.018 -2.0197 -3.1806  1.5185
  357MOL0     H48167   4.172   3.734   8.193 -0.6200 -0.4626 -1.7161
  357MOL0     H48168   4.249   3.595   8.118 -2.1106 -1.1660  3.4244
  357MOL0     H48169   4.457   3.634   8.228  1.2503 -0.3957  1.6854
  357MOL0     H48170   4.324   3.585   8.326  0.5137 -0.7726 -1.4196
  357MOL0     H48171   4.412   3.873   8.309 -0.2315  0.5079  1.3859
  357MOL0     H48172   4.281   3.812   8.411 -0.4983  0.9853 -1.8700
  357MOL0     H48173   4.438   3.709   8.569 -3.6444  2.1713  0.0305
  357MOL0     H48174   4.495   3.868   8.546  2.3337  0.3123 -0.6404
  357MOL0     H48175   4.620   3.666   8.363 -0.4549  0.3145 -0.5939
  357MOL0     H48176   4.667   3.697   8.529 -0.5407 -0.7495 -0.1404
  357MOL0     H48177   4.067   3.864   7.499 -2.9074 -1.7800  1.1823
  357MOL0     H48178   4.026   3.659   7.334  0.4410  1.3708  0.0623
  357MOL0     H48179   4.147   3.350   7.094  2.2642 -0.8572  0.7384
  357MOL0     H48180   4.157   3.191   6.932  1.8015 -0.3010  0.8061
  357MOL0     H48181   4.162   2.333   5.220  2.1902  2.5069  3.4581
  357MOL0     H48182   4.025   2.431   5.033 -1.1688 -4.7839 -0.9546
  357MOL0     H48183   3.565   2.539   4.881 -0.6833  0.8087  0.8896
  357MOL0     H48184   3.385   2.639   4.776  1.1314 -1.7741  0.5680
  357MOL0     H48185   3.327   3.105   4.833  0.7896 -1.2306 -2.9369
  357MOL0     H48186   3.156   3.049   4.823 -1.6637  0.5296  2.7791
  357MOL0     H48187   3.321   3.011   5.060  0.6125  1.5750  0.2142
  357MOL0     H48188   3.197   2.897   5.013  3.1274 -0.0698  2.3598
  357MOL0     H48189   3.052   3.133   4.998  0.2461 -1.0897 -1.2422
  357MOL0     H48190   3.201   3.202   5.081 -1.2011 -0.2252  0.2796
  357MOL0     H48191   3.020   2.993   5.201  0.6631 -0.4605  0.7016
  357MOL0     H48192   3.023   3.175   5.229  1.4055  0.3041 -0.3082
  357MOL0     H48193   3.355   3.018   5.458  1.6892  1.3493 -0.1437
  357MOL0     H48194   3.507   3.008   4.967  0.0363 -0.3271  2.1898
  357MOL0     H48195   3.711   2.908   5.034  0.8313  0.1639  0.2923
  358MOL0     O48196   8.587   0.346   4.574  0.0761  0.1083  0.2127
  358MOL0     C48197   8.555   0.281   4.473  1.5135 -0.2654  0.0170
  358MOL0     O48198   8.436   0.221   4.450  0.4859  0.0835  0.3306
  358MOL0     C48199   8.349   0.233   4.555 -0.7636  0.3222 -0.3064
  358MOL0     C48200   8.359   0.144   4.671 -0.0367 -0.2468 -0.0271
  358MOL0     C48201   8.268   0.162   4.779 -1.0687 -0.7169 -0.7876
  358MOL0     C48202   8.175   0.262   4.767  0.0446 -1.1858 -0.0499
  358MOL0     O48203   8.083   0.301   4.864 -0.4693 -0.6188  0.2713
  358MOL0     C48204   8.049   0.210   4.970 -0.0576 -0.4773  0.5140
  358MOL0     C48205   7.933   0.279   5.048  0.9917 -0.5117  0.3878
  358MOL0     C48206   7.801   0.249   4.974 -0.3657  0.3360 -0.4099
  358MOL0     C48207   7.692   0.352   5.005  0.4111  0.1590 -0.8741
  358MOL0     C48208   7.553   0.307   4.950 -0.3308  0.2137  0.0479
  358MOL0     C48209   7.489   0.224   5.062  0.1807 -0.0118  0.1134
  358MOL0     C48210   7.331   0.189   5.044  0.1481  0.0937  0.5185
  358MOL0     C48211   7.294   0.142   4.902  0.3115 -0.0250 -0.4076
  358MOL0     N48212   7.362   0.026   4.854  1.0395  0.4503  0.4284
  358MOL0     C48213   7.366  -0.107   4.904 -0.3050  0.5678  0.7261
  358MOL0     C48214   7.435  -0.168   4.810  0.5184  0.3710 -0.5666
  358MOL0     C48215   7.477  -0.315   4.820 -0.2705  0.1955 -0.3978
  358MOL0     C48216   7.637  -0.327   4.837 -0.9168 -0.0518  0.5317
  358MOL0     C48217   7.696  -0.258   4.966 -0.3411  0.0855 -0.2298
  358MOL0     C48218   7.648  -0.338   5.092  0.2407  0.3314 -0.2058
  358MOL0     O48219   7.516  -0.292   5.114 -0.0909  0.4874  0.0846
  358MOL0     C48220   7.453  -0.289   5.233 -0.0978 -1.1260  0.1691
  358MOL0     C48221   7.363  -0.182   5.262 -1.1016 -0.0825  0.0367
  358MOL0     C48222   7.285  -0.194   5.374 -0.3845 -0.0011  0.2314
  358MOL0     C48223   7.172  -0.087   5.391 -0.0445 -0.1679  0.0023
  358MOL0     C48224   7.293  -0.305   5.462  0.6116  0.3240 -0.5060
  358MOL0     C48225   7.217  -0.326   5.590  0.0071  0.1978 -0.2791
  358MOL0     O48226   7.266  -0.434   5.666  1.2395  0.0312 -0.9955
  358MOL0     C48227   7.199  -0.506   5.761 -0.1641  1.1494 -0.6207
  358MOL0     C48228   7.275  -0.606   5.813 -0.6064  0.4280 -0.1779
  358MOL0     C48229   7.215  -0.688   5.914  0.9107  0.0670  0.4509
  358MOL0     C48230   7.084  -0.658   5.966 -0.5644 -0.7005  0.3612
  358MOL0     O48231   7.049  -0.744   6.061  0.3349  0.3601 -0.0782
  358MOL0     C48232   6.921  -0.737   6.114  0.1348 -0.3663 -0.4360
  358MOL0     C48233   6.879  -0.871   6.173  0.0229  0.6532  0.5738
  358MOL0     C48234   6.839  -0.984   6.063 -0.3348 -0.2295 -1.2400
  358MOL0     C48235   6.832  -1.120   6.136 -0.0882 -0.2979 -0.8971
  358MOL0     C48236   6.782  -1.242   6.056 -0.1079 -0.7946  0.0487
  358MOL0     C48237   6.858  -1.264   5.917 -0.4969  0.1960  1.2306
  358MOL0     C48238   6.784  -1.350   5.813 -0.1114  0.7503 -0.6544
  358MOL0     C48239   6.732  -1.486   5.852 -0.1078 -0.1231 -0.4158
  358MOL0    Cl48240   6.591  -1.468   5.961 -0.3239  0.2909 -0.0856
  358MOL0     C48241   7.014  -0.541   5.921  0.0146  1.0689 -0.4353
  358MOL0     C48242   7.070  -0.469   5.822 -1.3438  0.3328  0.2227
  358MOL0     O48243   7.119  -0.254   5.625 -0.2418 -1.1274  0.2088
  358MOL0     C48244   7.389  -0.402   5.435 -0.1397  0.3925  0.0700
  358MOL0     C48245   7.469  -0.396   5.328 -0.1104 -0.5738  0.3773
  358MOL0     N48246   7.466  -0.080   4.701  0.2699  0.2185 -0.1792
  358MOL0     N48247   7.435   0.034   4.744 -0.6417 -0.0365 -0.5645
  358MOL0     C48248   8.164   0.345   4.657 -0.6465  0.6329  0.4542
  358MOL0     C48249   8.247   0.328   4.545  0.4227  0.7332 -0.3300
  358MOL0     C48250   8.651   0.286   4.357  0.7392  0.3018  1.5049
  358MOL0     C48251   8.737   0.395   4.343 -0.8902 -0.8973  0.0111
  358MOL0     C48252   8.812   0.407   4.220  0.2169  0.4363 -0.5801
  358MOL0     C48253   8.794   0.313   4.118  0.2891 -0.5394 -0.3082
  358MOL0     O48254   8.853   0.322   3.994  0.1208 -0.1219  0.4288
  358MOL0     C48255   8.916   0.455   3.945 -0.0541  0.1641  0.1519
  358MOL0     C48256   8.992   0.406   3.824  0.8100  0.8709 -0.2635
  358MOL0     C48257   9.056   0.523   3.757 -0.0809  0.2918 -0.3770
  358MOL0     C48258   9.119   0.492   3.621  2.1354  0.0019 -0.1364
  358MOL0     C48259   9.249   0.438   3.636 -1.8392  0.1782  0.1338
  358MOL0     C48260   9.368   0.400   3.654  0.0738 -1.0264  0.1168
  358MOL0     C48261   8.695   0.218   4.136  0.4002 -0.6771  0.2177
  358MOL0     C48262   8.635   0.201   4.254  0.1009  0.1717  0.1376
  358MOL0     H48263   8.439   0.072   4.683  2.5532  2.2888 -0.7134
  358MOL0     H48264   8.263   0.108   4.873 -0.8575 -0.8923 -0.8745
  358MOL0     H48265   8.014   0.122   4.915 -4.1915  0.6349  1.0537
  358MOL0     H48266   8.133   0.175   5.030 -0.5194 -2.8952 -0.1446
  358MOL0     H48267   7.924   0.238   5.149  0.4283  1.2880  1.1052
  358MOL0     H48268   7.937   0.388   5.054 -0.9141 -0.4600  1.7228
  358MOL0     H48269   7.818   0.247   4.866  1.4957  0.7705 -0.1607
  358MOL0     H48270   7.764   0.147   4.987  0.6339 -0.3566 -2.4848
  358MOL0     H48271   7.681   0.377   5.110  0.8733 -1.7484 -0.3298
  358MOL0     H48272   7.728   0.441   4.952 -1.4854  1.7198  0.3133
  358MOL0     H48273   7.502   0.403   4.937 -2.1939 -0.0646  3.9590
  358MOL0     H48274   7.558   0.245   4.860 -1.5232 -0.2079  0.2507
  358MOL0     H48275   7.547   0.131   5.068 -0.0079 -0.1000  0.6213
  358MOL0     H48276   7.502   0.284   5.152  1.9525 -0.5485  0.2598
  358MOL0     H48277   7.303   0.116   5.121 -1.8507  2.5953  2.3305
  358MOL0     H48278   7.282   0.283   5.071  1.5017  0.3290  2.3376
  358MOL0     H48279   7.303   0.226   4.833 -1.5416  0.6766  0.1451
  358MOL0     H48280   7.186   0.130   4.894  0.1154  0.3633  1.2875
  358MOL0     H48281   7.329  -0.155   4.994  0.3482 -4.8069 -1.4321
  358MOL0     H48282   7.428  -0.364   4.905  0.7660 -0.3950 -0.1137
  358MOL0     H48283   7.440  -0.367   4.732  0.1596 -0.3867 -0.2425
  358MOL0     H48284   7.689  -0.294   4.746  0.3247 -1.5968  0.6365
  358MOL0     H48285   7.668  -0.432   4.846 -1.9386 -0.2956  1.4694
  358MOL0     H48286   7.676  -0.151   4.976  2.5820  0.7234 -0.1586
  358MOL0     H48287   7.805  -0.271   4.971 -0.5556 -1.6108  1.0350
  358MOL0     H48288   7.706  -0.317   5.181 -0.2273  0.2593  0.1217
  358MOL0     H48289   7.656  -0.445   5.069  3.5558  0.2402  0.8457
  358MOL0     H48290   7.365  -0.099   5.193 -1.4003 -0.6117 -0.6228
  358MOL0     H48291   7.197  -0.044   5.489 -1.2571 -4.0025  2.2501
  358MOL0     H48292   7.159  -0.021   5.305  3.8239  0.4738 -0.2745
  358MOL0     H48293   7.082  -0.150   5.397 -0.0741 -0.1855 -0.6282
  358MOL0     H48294   7.377  -0.623   5.781  0.0075 -1.5232  2.4556
  358MOL0     H48295   7.267  -0.774   5.955 -0.2770  0.2468  2.4944
  358MOL0     H48296   6.912  -0.654   6.185  0.8884 -2.3637  2.1657
  358MOL0     H48297   6.853  -0.722   6.029  3.5407  2.5210 -2.9222
  358MOL0     H48298   6.952  -0.910   6.245  0.3016  1.0577  0.5164
  358MOL0     H48299   6.792  -0.866   6.239  1.4026 -4.4005  3.3398
  358MOL0     H48300   6.911  -0.982   5.981  2.6604  3.4609  1.1477
  358MOL0     H48301   6.744  -0.966   6.011 -0.8305 -0.8854 -0.5809
  358MOL0     H48302   6.937  -1.146   6.155  0.0099  0.8404  0.2146
  358MOL0     H48303   6.779  -1.116   6.231  1.9443  3.0861  0.2423
  358MOL0     H48304   6.681  -1.224   6.020  1.1152  3.8367 -1.7406
  358MOL0     H48305   6.782  -1.336   6.113 -1.6336 -1.9393 -1.7496
  358MOL0     H48306   6.884  -1.172   5.863 -3.4958  0.8346  0.7330
  358MOL0     H48307   6.953  -1.310   5.947 -1.6351 -2.8266  0.6006
  358MOL0     H48308   6.870  -1.375   5.751  0.3567 -2.0511  0.9527
  358MOL0     H48309   6.715  -1.288   5.754 -2.0447 -0.5397  0.1296
  358MOL0     H48310   6.810  -1.540   5.906  0.8606  1.8008  0.2216
  358MOL0     H48311   6.705  -1.538   5.759 -1.3825  1.2958 -0.8869
  358MOL0     H48312   6.913  -0.522   5.956 -0.6259 -1.8234 -0.3927
  358MOL0     H48313   7.007  -0.385   5.794 -1.6255 -0.8559 -3.1358
  358MOL0     H48314   7.382  -0.497   5.487 -3.3231  1.4783  1.9038
  358MOL0     H48315   7.533  -0.480   5.301 -0.0941 -0.7246  0.8722
  358MOL0     H48316   8.085   0.417   4.636 -0.8503  0.0948 -0.6854
  358MOL0     H48317   8.232   0.387   4.455 -0.2409  0.4698 -0.4012
  358MOL0     H48318   8.753   0.468   4.422 -1.7144 -0.7736  0.0683
  358MOL0     H48319   8.889   0.483   4.210  0.3287  0.3632 -0.3065
  358MOL0     H48320   8.838   0.526   3.916  0.0809 -0.2170 -1.2459
  358MOL0     H48321   8.987   0.487   4.022  0.7331 -2.6994  0.7340
  358MOL0     H48322   8.923   0.363   3.751 -1.6484  4.0198  0.0004
  358MOL0     H48323   9.072   0.336   3.851  0.3148  0.5211  0.2958
  358MOL0     H48324   9.129   0.550   3.835 -0.7339 -2.8781  1.5263
  358MOL0     H48325   8.982   0.604   3.750  0.9262  1.4564  1.4879
  358MOL0     H48326   9.121   0.584   3.563  1.2240 -0.0315 -0.2388
  358MOL0     H48327   9.057   0.423   3.563  4.1922 -0.0397 -2.4336
  358MOL0     H48328   9.466   0.357   3.659  1.7449  2.5657  1.9057
  358MOL0     H48329   8.671   0.146   4.058  2.3643  0.4730 -1.5550
  358MOL0     H48330   8.562   0.125   4.279  1.2798 -0.8249  0.6791
  359MOL0     O48331  10.526   5.027  10.071  0.0642  0.3783 -0.6655
  359MOL0     C48332  10.441   5.002   9.976  1.0233 -0.0860 -0.1784
  359MOL0     O48333  10.377   5.108   9.901 -0.0650  0.9829 -0.8706
  359MOL0     C48334  10.463   5.211   9.874  0.1355 -1.2924 -0.0109
  359MOL0     C48335  10.598   5.206   9.839  0.4614 -0.1917  1.2638
  359MOL0     C48336  10.663   5.324   9.798  0.0634 -0.0785 -0.1855
  359MOL0     C48337  10.593   5.441   9.787 -0.0187  0.0358 -0.5612
  359MOL0     O48338  10.658   5.559   9.744 -0.5165 -0.3741 -0.2154
  359MOL0     C48339  10.717   5.628   9.864  0.3047  0.4745  0.4587
  359MOL0     C48340  10.760   5.774   9.818 -0.2416  0.1211  0.2436
  359MOL0     C48341  10.837   5.781   9.688 -0.5396  0.2571  0.2277
  359MOL0     C48342  10.876   5.926   9.645  0.6793  0.4827 -0.7641
  359MOL0     C48343  10.950   5.924   9.514 -0.2825 -0.0506  0.3553
  359MOL0     C48344  11.015   6.065   9.503 -0.2884  0.3499 -0.0841
  359MOL0     C48345  11.107   6.056   9.380  0.2253  0.0862  0.9685
  359MOL0     C48346  11.021   6.053   9.249 -0.3731  0.3052 -1.0222
  359MOL0     N48347  11.098   6.097   9.135  0.2376  1.1456 -0.4553
  359MOL0     C48348  11.203   6.019   9.086  0.2651  0.6797  1.0322
  359MOL0     C48349  11.270   6.107   9.003 -0.1831 -0.5784 -0.0682
  359MOL0     C48350  11.393   6.083   8.924  0.2741 -1.0545  0.3805
  359MOL0     C48351  11.522   6.125   9.005  0.9682 -0.1116  0.1023
  359MOL0     C48352  11.548   6.047   9.131  0.0531  0.3373  0.3877
  359MOL0     C48353  11.671   6.088   9.208  0.5091  1.3311 -1.1246
  359MOL0     O48354  11.695   6.001   9.315 -0.6747 -0.4477  0.0933
  359MOL0     C48355  11.626   6.033   9.428 -0.1118 -0.3350  0.1171
  359MOL0     C48356  11.541   5.936   9.495  0.2246 -1.0408  0.6171
  359MOL0     C48357  11.464   5.964   9.607 -0.9612  0.8324  0.6263
  359MOL0     C48358  11.376   5.859   9.653 -0.4319 -0.3512 -0.2229
  359MOL0     C48359  11.475   6.092   9.666  0.8855  0.4844 -0.3409
  359MOL0     C48360  11.392   6.145   9.773 -0.6411 -0.8593 -0.2452
  359MOL0     O48361  11.446   6.236   9.848  0.3640  0.4214 -0.3767
  359MOL0     C48362  11.374   6.285   9.945 -0.8883  0.5598  0.0811
  359MOL0     C48363  11.286   6.386   9.923 -0.6811 -0.1934 -0.9631
  359MOL0     C48364  11.215   6.444  10.030  0.2497  0.1467 -0.6787
  359MOL0     C48365  11.233   6.398  10.163 -0.1761  0.0797  0.0920
  359MOL0     O48366  11.131   6.440  10.248 -0.6847  0.4545 -0.5683
  359MOL0     C48367  11.142   6.378  10.378  0.4105  0.3077  0.4385
  359MOL0     C48368  11.236   6.461  10.470 -0.1949 -0.8153 -0.4521
  359MOL0     C48369  11.161   6.600  10.492  0.8629 -0.9078  0.0942
  359MOL0     C48370  11.193   6.672  10.631 -0.0143 -0.1193  0.2704
  359MOL0     C48371  11.179   6.823  10.641  0.4362 -0.0694  0.2854
  359MOL0     C48372  11.059   6.887  10.562  0.4534 -0.3257 -0.1478
  359MOL0     C48373  10.929   6.875  10.648 -0.0084 -0.2254  1.0086
  359MOL0     C48374  10.811   6.950  10.581  0.0609  1.2997 -1.0710
  359MOL0    Cl48375  10.769   6.876  10.427 -0.0883  0.0622 -0.0685
  359MOL0     C48376  11.332   6.300  10.187 -0.0653 -1.2814 -0.5177
  359MOL0     C48377  11.409   6.251  10.082 -0.1886  0.7823 -0.0161
  359MOL0     O48378  11.269   6.121   9.771  0.3039  0.2985  0.3207
  359MOL0     C48379  11.569   6.183   9.606  0.3560  0.3930 -0.0810
  359MOL0     C48380  11.635   6.158   9.486  0.1655 -0.3494 -0.3765
  359MOL0     N48381  11.200   6.227   9.005  0.2892  0.1233 -0.7872
  359MOL0     N48382  11.097   6.224   9.094  0.2587  0.3770 -0.5820
  359MOL0     C48383  10.456   5.442   9.817 -0.2690 -0.3910  0.4431
  359MOL0     C48384  10.392   5.334   9.866  0.2392 -0.7669 -0.0094
  359MOL0     C48385  10.397   4.864   9.959  0.4731 -0.2519 -0.7640
  359MOL0     C48386  10.480   4.747   9.981 -0.6121  0.4540  0.7896
  359MOL0     C48387  10.419   4.621   9.971  0.2741  0.1803 -0.0526
  359MOL0     C48388  10.287   4.597   9.931 -0.3607 -0.7566  0.2324
  359MOL0     O48389  10.236   4.477   9.915  0.5989  0.2505 -0.2939
  359MOL0     C48390  10.320   4.361   9.933  1.2777 -0.0653  0.1750
  359MOL0     C48391  10.229   4.241   9.926  0.3011 -0.1994  0.2030
  359MOL0     C48392  10.231   4.172   9.785  0.6994  0.4276 -0.0616
  359MOL0     C48393  10.114   4.078   9.753 -0.2674 -0.2497 -1.3930
  359MOL0     C48394  10.104   3.970   9.855 -0.6911  0.6224  0.0434
  359MOL0     C48395  10.110   3.884   9.939 -0.2053 -1.0580  0.1271
  359MOL0     C48396  10.200   4.709   9.915 -0.5529  0.1333  0.0640
  359MOL0     C48397  10.255   4.839   9.934 -0.1443  0.4107 -0.7984
  359MOL0     H48398  10.659   5.117   9.848  0.2859 -0.4134  0.3018
  359MOL0     H48399  10.769   5.323   9.772  0.3006  0.5879  0.7032
  359MOL0     H48400  10.649   5.639   9.950 -0.2315 -2.4621  0.5158
  359MOL0     H48401  10.799   5.575   9.914 -1.5208 -3.7534 -0.6081
  359MOL0     H48402  10.662   5.820   9.804 -0.8609 -0.2191  2.9540
  359MOL0     H48403  10.818   5.828   9.893  2.8330 -0.9494 -1.2102
  359MOL0     H48404  10.937   5.740   9.705  1.2347  3.5544 -1.2134
  359MOL0     H48405  10.785   5.721   9.612  0.7150  0.3672 -0.7623
  359MOL0     H48406  10.784   5.981   9.624  0.3503  0.0886 -0.3859
  359MOL0     H48407  10.940   5.968   9.723 -0.9285 -0.4233  1.1446
  359MOL0     H48408  11.010   5.833   9.507 -1.6838 -0.8948 -1.4909
  359MOL0     H48409  10.878   5.918   9.433 -1.7282  1.7104  1.4294
  359MOL0     H48410  10.943   6.148   9.505  0.7075  1.2114  1.3763
  359MOL0     H48411  11.071   6.078   9.595 -0.1831 -0.7194  0.0133
  359MOL0     H48412  11.177   6.139   9.373 -0.8251  0.9055 -0.4703
  359MOL0     H48413  11.161   5.961   9.391  1.3415  0.7509  1.3644
  359MOL0     H48414  10.936   6.121   9.256  0.1518  0.8014  1.9495
  359MOL0     H48415  10.996   5.947   9.236 -0.4384  0.2018 -0.1109
  359MOL0     H48416  11.235   5.921   9.118 -0.0026 -0.3635 -1.6375
  359MOL0     H48417  11.386   5.974   8.921 -1.8655 -0.9623  0.7903
  359MOL0     H48418  11.378   6.131   8.827 -0.3636  2.2556  1.9771
  359MOL0     H48419  11.518   6.233   9.019  1.0809 -0.2407  1.2498
  359MOL0     H48420  11.601   6.111   8.931  0.8445  0.8191 -0.2079
  359MOL0     H48421  11.555   5.940   9.110 -1.8132 -0.2553  2.5442
  359MOL0     H48422  11.462   6.057   9.197 -1.9998  1.1635 -2.2073
  359MOL0     H48423  11.669   6.187   9.254 -0.2668 -0.9559  4.6704
  359MOL0     H48424  11.754   6.091   9.137  1.3530  2.6252 -0.1403
  359MOL0     H48425  11.538   5.834   9.456  2.0536 -0.3530 -1.5327
  359MOL0     H48426  11.370   5.778   9.580 -0.4426 -1.0451  0.5383
  359MOL0     H48427  11.430   5.820   9.739  0.0799  1.2396  0.2135
  359MOL0     H48428  11.272   5.882   9.677 -1.8835 -4.7116 -1.4117
  359MOL0     H48429  11.256   6.427   9.827 -4.0615  2.2378  0.8909
  359MOL0     H48430  11.138   6.517  10.006  1.0989  1.4657  0.5293
  359MOL0     H48431  11.044   6.373  10.426 -0.4748 -0.4871 -1.3806
  359MOL0     H48432  11.160   6.270  10.371 -1.3322 -0.0743  1.3801
  359MOL0     H48433  11.254   6.412  10.567 -1.1507  0.9521  0.6897
  359MOL0     H48434  11.336   6.466  10.427 -1.1325  0.4414 -2.6139
  359MOL0     H48435  11.054   6.577  10.493  0.5213  0.5741  0.5285
  359MOL0     H48436  11.179   6.661  10.403 -0.3993  0.1432  0.5242
  359MOL0     H48437  11.153   6.622  10.720  2.8958 -0.4297  1.4916
  359MOL0     H48438  11.296   6.650  10.661 -0.6983 -0.4424  2.5787
  359MOL0     H48439  11.276   6.862  10.609 -1.2057  1.8404 -2.8231
  359MOL0     H48440  11.171   6.848  10.747 -3.1258  2.0510 -0.3357
  359MOL0     H48441  11.076   6.992  10.537 -0.6261 -0.7046 -2.8398
  359MOL0     H48442  11.047   6.841  10.463  2.9693 -3.6106  0.8704
  359MOL0     H48443  10.949   6.928  10.741  1.3351 -0.7160  1.0206
  359MOL0     H48444  10.913   6.771  10.678 -2.9812 -0.2048 -0.1732
  359MOL0     H48445  10.841   7.054  10.566 -0.4164  1.8034  1.0959
  359MOL0     H48446  10.715   6.957  10.634 -0.5934  0.6998 -2.1339
  359MOL0     H48447  11.353   6.264  10.288 -1.2661 -1.4652 -0.3235
  359MOL0     H48448  11.488   6.179  10.104  0.3388  0.7536 -1.8386
  359MOL0     H48449  11.579   6.286   9.640  0.1876 -0.3622  2.5019
  359MOL0     H48450  11.696   6.243   9.460  1.1191  0.4109  3.7114
  359MOL0     H48451  10.390   5.528   9.812  2.1769  1.5354 -1.7323
  359MOL0     H48452  10.285   5.319   9.878  0.3927 -1.3578  0.6832
  359MOL0     H48453  10.587   4.760   9.989 -0.6329 -0.1634  2.6564
  359MOL0     H48454  10.482   4.534   9.990 -1.1140 -0.6605  0.8992
  359MOL0     H48455  10.400   4.353   9.859  1.1234 -1.5858  0.1338
  359MOL0     H48456  10.352   4.341  10.036 -0.8297 -1.0612  0.6994
  359MOL0     H48457  10.133   4.281   9.959  0.2164  0.4639 -0.7900
  359MOL0     H48458  10.246   4.160   9.997 -2.6084 -0.7781  0.3270
  359MOL0     H48459  10.325   4.120   9.768  3.4468  5.0893 -1.0426
  359MOL0     H48460  10.220   4.252   9.711 -0.8891 -0.4534 -0.8373
  359MOL0     H48461  10.140   4.032   9.657 -0.5724 -2.5048 -0.4545
  359MOL0     H48462  10.018   4.127   9.733  0.9458  3.2810  0.5442
  359MOL0     H48463  10.109   3.812  10.018  2.8797 -1.2392  0.1271
  359MOL0     H48464  10.095   4.684   9.902 -0.0988 -3.3921  1.9124
  359MOL0     H48465  10.197   4.929   9.917 -2.1322  0.6304  4.9037
  360MOL0     O48466  10.531   8.366   1.187  0.3818  0.0188  0.7298
  360MOL0     C48467  10.631   8.367   1.266  0.0719  0.4668  0.4741
  360MOL0     O48468  10.635   8.445   1.377  0.4310 -0.4857 -0.3716
  360MOL0     C48469  10.520   8.521   1.417 -0.5113 -0.3810  0.1490
  360MOL0     C48470  10.463   8.619   1.334  0.2634 -1.2908  0.7144
  360MOL0     C48471  10.365   8.704   1.372 -0.1966  0.3945 -0.8269
  360MOL0     C48472  10.306   8.684   1.503 -0.7526  0.5581  0.7056
  360MOL0     O48473  10.212   8.765   1.556  0.0446  0.9912 -0.3096
  360MOL0     C48474  10.138   8.851   1.469  1.0733  0.7437 -0.4910
  360MOL0     C48475  10.012   8.892   1.549  0.1228 -0.8632  0.2076
  360MOL0     C48476   9.896   8.788   1.545  0.1398  0.7664  0.2114
  360MOL0     C48477   9.809   8.796   1.417  0.3693  0.1454 -0.3163
  360MOL0     C48478   9.667   8.751   1.444 -0.0133  0.0108 -0.5525
  360MOL0     C48479   9.643   8.594   1.451  0.1519  0.0417  0.0411
  360MOL0     C48480   9.536   8.550   1.553  0.1734  0.5008 -0.2485
  360MOL0     C48481   9.386   8.547   1.510  0.7787 -0.2628  1.1040
  360MOL0     N48482   9.366   8.462   1.385  0.0921 -0.3134 -0.5249
  360MOL0     C48483   9.378   8.512   1.255  0.2010 -0.8463 -0.1873
  360MOL0     C48484   9.358   8.406   1.181 -0.7115 -0.1251  0.1349
  360MOL0     C48485   9.353   8.431   1.034 -0.0181 -0.1050 -0.8105
  360MOL0     C48486   9.224   8.473   0.986  0.2383 -0.3477 -0.6570
  360MOL0     C48487   9.198   8.456   0.839  0.3398 -0.1964  0.1039
  360MOL0     C48488   9.074   8.537   0.793  0.1391  0.1227 -0.2994
  360MOL0     O48489   9.056   8.526   0.645 -0.4465  0.3768  1.4150
  360MOL0     C48490   9.006   8.411   0.588 -0.8319 -0.8209 -0.8976
  360MOL0     C48491   9.012   8.393   0.451 -0.1241  0.2466  0.4360
  360MOL0     C48492   8.960   8.282   0.386  0.2173 -0.6131 -0.0389
  360MOL0     C48493   8.965   8.273   0.238 -0.5986  0.3284 -0.9993
  360MOL0     C48494   8.904   8.181   0.465  0.0297 -0.3531  0.2564
  360MOL0     C48495   8.833   8.071   0.398 -0.9058  0.0035 -0.0236
  360MOL0     O48496   8.915   7.997   0.320  0.0335  0.0004  0.3617
  360MOL0     C48497   8.868   7.889   0.252  0.3574 -0.2223  0.1013
  360MOL0     C48498   8.956   7.787   0.231 -0.5046  0.6366 -0.2966
  360MOL0     C48499   8.926   7.676   0.150 -0.0092  0.7118  0.4802
  360MOL0     C48500   8.799   7.665   0.099  0.0749 -1.0643  0.8169
  360MOL0     O48501   8.778   7.549   0.036 -0.6209 -0.2712 -0.0504
  360MOL0     C48502   8.645   7.497   0.031  0.3063 -0.8238 -1.0247
  360MOL0     C48503   8.601   7.457   0.180  0.4639 -0.8394 -0.0228
  360MOL0     C48504   8.673   7.325   0.211  0.5822 -1.1233  0.2303
  360MOL0     C48505   8.619   7.245   0.323  0.0603 -0.1973  0.9525
  360MOL0     C48506   8.686   7.107   0.338  0.0827  0.0250 -0.4127
  360MOL0     C48507   8.841   7.094   0.347  0.0282 -1.0003  0.2400
  360MOL0     C48508   8.886   6.947   0.346  0.5964  0.1687  0.2878
  360MOL0     C48509   9.027   6.924   0.283  0.3048  0.1118 -0.4450
  360MOL0    Cl48510   9.149   7.010   0.391  0.1766  0.3010 -0.0667
  360MOL0     C48511   8.703   7.774   0.106 -0.4717  0.0783  0.1718
  360MOL0     C48512   8.746   7.883   0.181 -0.0874  0.6458  0.2156
  360MOL0     O48513   8.710   8.076   0.393 -0.7057  0.8076 -0.3013
  360MOL0     C48514   8.902   8.186   0.597  0.4212 -0.1168  0.5715
  360MOL0     C48515   8.946   8.308   0.666 -0.2234  0.3747 -0.1438
  360MOL0     N48516   9.348   8.292   1.251  0.1116 -0.7606 -0.1621
  360MOL0     N48517   9.351   8.323   1.378  0.0471 -0.4498 -0.4826
  360MOL0     C48518  10.358   8.583   1.581 -0.3804  0.4379  1.1896
  360MOL0     C48519  10.464   8.497   1.540 -0.4321  0.5406  0.1401
  360MOL0     C48520  10.756   8.308   1.226  0.1786 -0.5451  0.2984
  360MOL0     C48521  10.754   8.184   1.166  0.3614  0.1276  0.1836
  360MOL0     C48522  10.873   8.123   1.116  0.0463  0.6754  0.4385
  360MOL0     C48523  10.999   8.182   1.138  0.1087  0.5032  0.5190
  360MOL0     O48524  11.108   8.119   1.074 -0.2993 -0.7769 -0.2819
  360MOL0     C48525  11.229   8.195   1.085  0.3207  0.3191  0.0998
  360MOL0     C48526  11.341   8.095   1.044  0.4386 -0.4415 -0.0084
  360MOL0     C48527  11.374   8.064   0.897  0.9920  0.8877 -0.6890
  360MOL0     C48528  11.500   7.975   0.884 -0.1958 -0.0474  0.1331
  360MOL0     C48529  11.624   8.028   0.930  0.6623 -0.3359  0.2200
  360MOL0     C48530  11.721   8.085   0.975 -1.7221  0.6643 -1.0053
  360MOL0     C48531  11.002   8.300   1.210  1.0886 -0.3054  0.6215
  360MOL0     C48532  10.885   8.365   1.254  0.8272  0.3664 -0.3790
  360MOL0     H48533  10.512   8.635   1.239  4.2947 -0.7582  2.7074
  360MOL0     H48534  10.333   8.792   1.316 -1.3481 -1.0205 -2.5181
  360MOL0     H48535  10.193   8.942   1.442  2.3079  0.8806  2.1933
  360MOL0     H48536  10.111   8.801   1.375  0.4413 -3.1365  1.5589
  360MOL0     H48537  10.055   8.922   1.645  1.9189 -0.8424 -0.5782
  360MOL0     H48538   9.983   8.989   1.505  0.3720 -1.5635 -1.5727
  360MOL0     H48539   9.920   8.683   1.562 -3.6369  0.0434  2.0876
  360MOL0     H48540   9.828   8.812   1.627 -3.2756  0.6349 -2.3633
  360MOL0     H48541   9.798   8.902   1.390  1.8072  0.5817  0.6755
  360MOL0     H48542   9.846   8.739   1.331  0.1921  1.5057 -1.3460
  360MOL0     H48543   9.628   8.808   1.529 -0.2535 -0.5922 -0.2549
  360MOL0     H48544   9.596   8.782   1.366  0.0618  2.9461  0.4266
  360MOL0     H48545   9.636   8.557   1.348  0.2281  2.1797 -0.8014
  360MOL0     H48546   9.732   8.559   1.505  0.4105 -1.3420 -1.2198
  360MOL0     H48547   9.551   8.449   1.593 -1.0469  1.2441  2.2861
  360MOL0     H48548   9.535   8.614   1.642 -3.2025 -0.5893  0.6829
  360MOL0     H48549   9.346   8.649   1.504  0.4678 -0.4164  0.4914
  360MOL0     H48550   9.327   8.499   1.589 -1.0241  1.8301  1.1452
  360MOL0     H48551   9.405   8.616   1.241  0.4717 -1.1952 -2.7892
  360MOL0     H48552   9.423   8.514   1.018  0.1731  0.4156  2.1303
  360MOL0     H48553   9.393   8.348   0.975 -2.3080 -2.3528  0.5662
  360MOL0     H48554   9.194   8.572   1.020  3.2385  0.5288 -0.3067
  360MOL0     H48555   9.150   8.409   1.036 -1.1936  3.3713  2.4231
  360MOL0     H48556   9.201   8.354   0.799  0.3400  0.8078 -2.6507
  360MOL0     H48557   9.290   8.502   0.803  2.0692 -1.3180  2.8110
  360MOL0     H48558   9.099   8.641   0.814  1.8892 -0.1392 -0.8519
  360MOL0     H48559   8.979   8.506   0.838  0.6750  0.0783  0.8295
  360MOL0     H48560   9.059   8.472   0.394 -1.9428  1.9520  1.2012
  360MOL0     H48561   9.048   8.208   0.207  0.7941  1.8685 -0.6581
  360MOL0     H48562   8.870   8.244   0.192 -1.4467 -1.1321  1.5186
  360MOL0     H48563   8.991   8.373   0.202 -0.9318  1.2184  1.1217
  360MOL0     H48564   9.056   7.788   0.273 -0.6308  2.0163  0.0362
  360MOL0     H48565   9.000   7.600   0.130 -1.7961 -0.9383 -0.2302
  360MOL0     H48566   8.566   7.564  -0.004  0.9328  1.3541  1.3586
  360MOL0     H48567   8.648   7.412  -0.038 -1.0366 -2.2280  0.5637
  360MOL0     H48568   8.630   7.533   0.253  5.3466 -0.0895 -2.3371
  360MOL0     H48569   8.495   7.433   0.190  0.6279 -1.3911  0.4301
  360MOL0     H48570   8.775   7.353   0.235  1.0071 -1.3913 -1.1289
  360MOL0     H48571   8.677   7.267   0.118 -3.5009  1.4664 -1.8629
  360MOL0     H48572   8.625   7.301   0.417  1.5332 -0.4935  1.0629
  360MOL0     H48573   8.512   7.233   0.305 -0.0345 -1.0186  1.9545
  360MOL0     H48574   8.663   7.035   0.258 -2.3776 -1.9979  1.8926
  360MOL0     H48575   8.638   7.062   0.425  2.1125 -3.4705 -0.8964
  360MOL0     H48576   8.893   7.149   0.267 -0.8209  0.2659  0.5159
  360MOL0     H48577   8.871   7.153   0.434 -3.0787  3.1439 -1.1355
  360MOL0     H48578   8.811   6.890   0.290  0.3414  1.3015 -0.5503
  360MOL0     H48579   8.883   6.907   0.448  0.6659  1.2418  0.7224
  360MOL0     H48580   9.025   6.968   0.183 -1.5230  0.8178 -0.1345
  360MOL0     H48581   9.038   6.815   0.272 -3.0000 -0.1678 -2.6479
  360MOL0     H48582   8.602   7.779   0.068 -0.5830  3.0465  0.5897
  360MOL0     H48583   8.671   7.962   0.181 -1.6008 -0.7279  1.2967
  360MOL0     H48584   8.854   8.106   0.651  0.9647  0.9947  2.8250
  360MOL0     H48585   8.936   8.297   0.773  1.0982 -2.9445 -0.2401
  360MOL0     H48586  10.331   8.584   1.686  0.4630 -1.4873  1.4785
  360MOL0     H48587  10.488   8.404   1.591 -2.0010  0.6808  1.1905
  360MOL0     H48588  10.661   8.130   1.147 -0.1527  0.6160  1.2496
  360MOL0     H48589  10.857   8.034   1.056 -3.6144  1.4185  0.0709
  360MOL0     H48590  11.223   8.283   1.021  0.1875 -0.2788 -0.7297
  360MOL0     H48591  11.252   8.228   1.187 -0.1084 -0.8819  0.6001
  360MOL0     H48592  11.308   8.006   1.100 -0.3246  1.3117  2.5344
  360MOL0     H48593  11.438   8.126   1.086  0.1308  1.0230 -0.3134
  360MOL0     H48594  11.391   8.160   0.847  1.9074  1.8896  1.4335
  360MOL0     H48595  11.290   8.011   0.850  0.2227  3.2758 -2.1617
  360MOL0     H48596  11.510   7.952   0.778  1.4419  0.0025  0.2612
  360MOL0     H48597  11.494   7.878   0.933  1.4725 -0.9424 -1.3568
  360MOL0     H48598  11.804   8.137   1.017  0.3002 -1.0159 -2.7082
  360MOL0     H48599  11.090   8.363   1.211 -0.5616  2.1093  1.2587
  360MOL0     H48600  10.886   8.466   1.292  0.4316 -0.6690  2.6317
  361MOL0     O48601   3.042   6.125   4.635  0.4910 -0.0668  0.2624
  361MOL0     C48602   3.017   6.016   4.674  0.2689  0.1299 -0.6964
  361MOL0     O48603   3.105   5.910   4.687  0.3218 -0.4648 -0.9345
  361MOL0     C48604   3.240   5.922   4.669 -0.1802 -0.1788 -1.3701
  361MOL0     C48605   3.300   5.955   4.548 -0.2371 -0.5299 -0.1509
  361MOL0     C48606   3.435   5.980   4.532 -0.5259 -0.7283 -0.1751
  361MOL0     C48607   3.516   5.960   4.648 -0.7821 -0.7791  0.4088
  361MOL0     O48608   3.652   5.985   4.662 -0.4293 -0.3205 -0.0355
  361MOL0     C48609   3.721   6.068   4.565  0.0007 -0.6434  0.8381
  361MOL0     C48610   3.875   6.054   4.564 -0.1599 -0.0306  0.5750
  361MOL0     C48611   3.934   5.922   4.518 -0.1623 -0.2506 -0.2572
  361MOL0     C48612   4.088   5.924   4.516  0.5347  0.2510  0.6525
  361MOL0     C48613   4.157   6.048   4.456  0.0349  0.4154 -0.1308
  361MOL0     C48614   4.313   6.033   4.488 -0.0741  0.1820  0.2603
  361MOL0     C48615   4.390   6.144   4.413  0.0817 -0.5860 -0.1926
  361MOL0     C48616   4.394   6.285   4.469 -0.3663 -0.1343  0.6557
  361MOL0     N48617   4.443   6.280   4.608  0.4504 -0.6609  0.9715
  361MOL0     C48618   4.370   6.307   4.719 -0.5736  0.4135 -0.4198
  361MOL0     C48619   4.469   6.325   4.816  1.5915 -1.6641 -0.0529
  361MOL0     C48620   4.443   6.340   4.966 -0.1416  0.3324 -0.3968
  361MOL0     C48621   4.514   6.456   5.017  0.4700 -0.1757 -0.3436
  361MOL0     C48622   4.493   6.480   5.172  0.8470  0.3264  0.1109
  361MOL0     C48623   4.351   6.527   5.206 -0.1746  0.4259 -0.1201
  361MOL0     O48624   4.338   6.560   5.347 -0.4847 -0.0248 -0.2275
  361MOL0     C48625   4.249   6.653   5.396  0.1591  0.3386  1.1299
  361MOL0     C48626   4.269   6.687   5.533  0.7691  0.4000  0.2398
  361MOL0     C48627   4.170   6.752   5.607  0.9819 -0.1673 -0.4496
  361MOL0     C48628   4.188   6.752   5.756 -0.8359 -0.5872  0.0341
  361MOL0     C48629   4.058   6.804   5.538 -0.5482  0.3281 -0.5468
  361MOL0     C48630   3.953   6.887   5.602  0.3195 -0.2239 -0.5137
  361MOL0     O48631   3.860   6.930   5.509 -0.3968  0.9939 -0.3814
  361MOL0     C48632   3.748   6.992   5.558 -0.8110 -0.1915 -0.0537
  361MOL0     C48633   3.644   6.913   5.608  0.0546 -0.1848 -0.8702
  361MOL0     C48634   3.530   6.982   5.658 -0.3312  0.0831 -0.7019
  361MOL0     C48635   3.513   7.115   5.653  0.7438 -0.3882 -0.4659
  361MOL0     O48636   3.400   7.176   5.703 -0.1460 -0.8174  0.3209
  361MOL0     C48637   3.278   7.112   5.728 -0.1519 -0.4691  0.3443
  361MOL0     C48638   3.211   7.156   5.856  1.0235 -0.4342  0.3473
  361MOL0     C48639   3.197   7.305   5.881  0.3232  0.7499  0.4234
  361MOL0     C48640   3.119   7.376   5.777  0.4447  0.0886  0.0932
  361MOL0     C48641   3.064   7.504   5.825  0.1056  0.0083 -0.3134
  361MOL0     C48642   2.960   7.569   5.725 -0.7964 -0.2094  0.6141
  361MOL0     C48643   3.022   7.604   5.582  0.2287 -0.7250 -0.1326
  361MOL0     C48644   3.155   7.682   5.581  0.5657 -0.5425 -0.7054
  361MOL0    Cl48645   3.197   7.733   5.405  0.4143  0.1932 -0.1283
  361MOL0     C48646   3.619   7.194   5.595 -0.6043  0.2734  0.2290
  361MOL0     C48647   3.738   7.133   5.546  0.4160 -0.9900 -0.5257
  361MOL0     O48648   3.938   6.896   5.722 -0.7788 -0.4406  0.1459
  361MOL0     C48649   4.043   6.775   5.400 -0.4330  0.4054  0.3534
  361MOL0     C48650   4.136   6.702   5.327 -1.0551  0.5869 -0.3937
  361MOL0     N48651   4.590   6.317   4.765 -1.0546  0.4539  0.0922
  361MOL0     N48652   4.577   6.287   4.643 -0.4884 -0.3627  0.1961
  361MOL0     C48653   3.454   5.928   4.767 -0.0749  0.1770 -0.4877
  361MOL0     C48654   3.320   5.912   4.784  0.8374 -0.9541 -0.0558
  361MOL0     C48655   2.878   5.999   4.728  0.2241  0.1321  0.0886
  361MOL0     C48656   2.832   5.864   4.744  0.1970  0.2683  0.1532
  361MOL0     C48657   2.700   5.838   4.799 -0.7624  1.1568 -0.5031
  361MOL0     C48658   2.621   5.941   4.837  0.2500  0.1014 -1.0423
  361MOL0     O48659   2.496   5.919   4.897 -0.0043 -0.0745 -0.3804
  361MOL0     C48660   2.386   5.871   4.814 -0.6882 -0.7083 -0.1287
  361MOL0     C48661   2.379   5.945   4.675  0.2614 -0.2694 -0.1286
  361MOL0     C48662   2.457   5.882   4.561 -0.6579 -0.1989 -0.2661
  361MOL0     C48663   2.422   5.955   4.440 -0.5107 -0.3246  0.6013
  361MOL0     C48664   2.487   5.884   4.325  0.1529  0.9329  0.6934
  361MOL0     C48665   2.541   5.824   4.225  0.2503 -0.5227 -0.7907
  361MOL0     C48666   2.667   6.067   4.823  0.3640 -0.2252 -0.6545
  361MOL0     C48667   2.785   6.098   4.755 -0.2917 -1.3627 -0.0639
  361MOL0     H48668   3.241   5.969   4.457  2.5875  0.8387 -1.9029
  361MOL0     H48669   3.457   6.017   4.433  1.0865  0.0278  0.4291
  361MOL0     H48670   3.676   6.042   4.469 -0.9234  0.9226  0.8183
  361MOL0     H48671   3.709   6.174   4.586 -1.2617  0.5810 -4.5350
  361MOL0     H48672   3.908   6.143   4.510  0.5337 -0.9677 -0.5771
  361MOL0     H48673   3.917   6.067   4.664  1.2153 -1.8076  0.2593
  361MOL0     H48674   3.903   5.846   4.590  0.5902 -0.2297  0.1070
  361MOL0     H48675   3.893   5.888   4.423  0.2162 -1.9820  0.1749
  361MOL0     H48676   4.131   5.923   4.616 -0.4373 -1.2893  1.0870
  361MOL0     H48677   4.119   5.835   4.460  1.0343  0.9948 -0.3017
  361MOL0     H48678   4.127   6.051   4.351  0.5894 -1.1247 -0.3625
  361MOL0     H48679   4.126   6.137   4.512  0.1804 -2.2247  4.6959
  361MOL0     H48680   4.327   6.027   4.596  2.1003 -1.7537 -0.0350
  361MOL0     H48681   4.350   5.932   4.470 -2.1584 -0.6825  0.5709
  361MOL0     H48682   4.496   6.117   4.413  1.2346  3.1515  1.6960
  361MOL0     H48683   4.364   6.139   4.307 -0.5318 -0.0679 -0.0730
  361MOL0     H48684   4.294   6.328   4.469 -1.1189 -1.7374 -1.5344
  361MOL0     H48685   4.456   6.344   4.400  1.0947 -2.6135 -0.2653
  361MOL0     H48686   4.263   6.290   4.732 -0.0093 -3.0582  0.4635
  361MOL0     H48687   4.335   6.349   4.981  0.1287 -0.0259  2.1706
  361MOL0     H48688   4.466   6.246   5.016 -2.6320  0.2156  0.6718
  361MOL0     H48689   4.487   6.548   4.965  2.4791  0.5942 -0.0975
  361MOL0     H48690   4.619   6.432   5.001  0.2869 -3.4537  2.2582
  361MOL0     H48691   4.571   6.550   5.203  3.0212 -2.0399  0.2979
  361MOL0     H48692   4.509   6.386   5.226 -0.4925  0.2838  0.4691
  361MOL0     H48693   4.272   6.452   5.201 -0.1960  0.4955 -0.8735
  361MOL0     H48694   4.322   6.615   5.148 -2.1297  0.9033  1.4796
  361MOL0     H48695   4.344   6.636   5.595 -0.1680  2.9455  3.7878
  361MOL0     H48696   4.269   6.683   5.783  0.0843  0.1590 -0.7851
  361MOL0     H48697   4.200   6.853   5.797 -1.3719 -1.1109  1.5781
  361MOL0     H48698   4.100   6.718   5.813 -0.4856 -1.1568  0.2451
  361MOL0     H48699   3.648   6.804   5.612 -4.5073 -0.5221  1.2759
  361MOL0     H48700   3.460   6.908   5.696  0.6516 -0.4937  0.0164
  361MOL0     H48701   3.205   7.133   5.649 -0.4642 -2.5402  0.0081
  361MOL0     H48702   3.294   7.004   5.735  1.3817 -0.2533  0.4466
  361MOL0     H48703   3.110   7.113   5.860  0.6615 -0.0754 -2.4484
  361MOL0     H48704   3.259   7.113   5.944  2.3872  0.0981 -0.1233
  361MOL0     H48705   3.298   7.345   5.897  1.1542 -1.0608 -0.0246
  361MOL0     H48706   3.141   7.319   5.973 -0.4139  0.7209 -0.0147
  361MOL0     H48707   3.166   7.402   5.682 -0.1664 -0.3010 -0.3260
  361MOL0     H48708   3.042   7.307   5.741  1.1914 -0.6176 -0.1627
  361MOL0     H48709   3.142   7.576   5.852 -2.7305  3.2719 -0.0227
  361MOL0     H48710   3.014   7.478   5.919  1.6301 -2.7599 -0.1800
  361MOL0     H48711   2.878   7.502   5.695  0.0364 -0.5572 -1.0137
  361MOL0     H48712   2.927   7.663   5.769  1.4441  1.0846 -0.3216
  361MOL0     H48713   2.937   7.661   5.543 -0.2841 -0.6902  0.9980
  361MOL0     H48714   3.043   7.508   5.533 -0.0987  0.8878 -3.7521
  361MOL0     H48715   3.226   7.602   5.604  0.5251  0.0109  1.5336
  361MOL0     H48716   3.147   7.755   5.661 -1.7787 -0.4632 -0.9430
  361MOL0     H48717   3.606   7.302   5.583 -0.8165 -0.0513 -3.9092
  361MOL0     H48718   3.816   7.191   5.498  0.9904 -1.9641 -0.7939
  361MOL0     H48719   3.976   6.822   5.329 -0.2699 -0.3553 -0.3165
  361MOL0     H48720   4.116   6.687   5.221 -0.5015 -0.6014 -0.3530
  361MOL0     H48721   3.507   5.911   4.861 -1.0743 -0.6598 -0.0571
  361MOL0     H48722   3.276   5.901   4.883  1.2651 -0.6212  0.1808
  361MOL0     H48723   2.902   5.784   4.723  0.1019  0.4037 -0.7421
  361MOL0     H48724   2.663   5.736   4.809 -1.0805  1.1726 -1.4156
  361MOL0     H48725   2.391   5.762   4.805 -5.3803 -0.9930 -2.6884
  361MOL0     H48726   2.290   5.899   4.860 -0.6534 -2.5798  1.1987
  361MOL0     H48727   2.405   6.051   4.687 -0.8351  0.1783 -1.5383
  361MOL0     H48728   2.273   5.939   4.649  0.3249  0.4298 -0.5591
  361MOL0     H48729   2.435   5.778   4.535 -1.4434  0.7959 -4.3350
  361MOL0     H48730   2.564   5.886   4.582 -0.7453  2.8138  0.0946
  361MOL0     H48731   2.475   6.050   4.438  0.1864 -0.7013  0.5973
  361MOL0     H48732   2.314   5.964   4.425 -0.5788  1.1937  1.8488
  361MOL0     H48733   2.582   5.762   4.148  0.1872  1.1814 -2.2741
  361MOL0     H48734   2.595   6.149   4.825  0.8809  0.3546 -2.7360
  361MOL0     H48735   2.806   6.197   4.717  1.7710 -2.7609 -3.0272
  362MOL0     O48736   3.906   3.560   4.678 -0.1673 -0.0551 -0.2372
  362MOL0     C48737   3.932   3.671   4.640 -0.0793 -0.4560  0.1612
  362MOL0     O48738   3.839   3.773   4.614  0.3075 -0.6179 -0.0640
  362MOL0     C48739   3.714   3.762   4.660 -0.5591 -0.2916 -0.0206
  362MOL0     C48740   3.668   3.717   4.783  0.9998 -0.8054 -0.6979
  362MOL0     C48741   3.527   3.714   4.801  0.2367  0.4259  0.5385
  362MOL0     C48742   3.435   3.767   4.704  0.6507  0.0752  0.5481
  362MOL0     O48743   3.296   3.750   4.692 -0.6344  0.5612 -0.3978
  362MOL0     C48744   3.216   3.708   4.800 -0.0823  0.2960  0.2642
  362MOL0     C48745   3.087   3.657   4.746  0.4473  0.3344  0.5041
  362MOL0     C48746   3.088   3.506   4.737 -0.1386 -0.4606 -0.2457
  362MOL0     C48747   2.957   3.447   4.714 -0.5463 -0.0503 -0.0777
  362MOL0     C48748   2.960   3.289   4.707 -0.8179  0.6228  0.0368
  362MOL0     C48749   2.864   3.240   4.594  0.0042  0.7361 -0.1375
  362MOL0     C48750   2.851   3.085   4.588 -0.2860 -1.1730 -0.2632
  362MOL0     C48751   2.773   3.033   4.464  0.4533  0.3230 -0.0206
  362MOL0     N48752   2.743   2.888   4.474 -0.4747 -0.0886 -0.4674
  362MOL0     C48753   2.665   2.812   4.561  0.3261  0.1283  0.0398
  362MOL0     C48754   2.650   2.694   4.502  0.5521 -0.1411 -0.0867
  362MOL0     C48755   2.577   2.566   4.547 -0.5479 -0.2771 -0.4397
  362MOL0     C48756   2.613   2.530   4.686  0.4428 -0.7880  0.4981
  362MOL0     C48757   2.502   2.457   4.766  0.2108 -0.7543  0.0588
  362MOL0     C48758   2.480   2.312   4.731 -0.3769  0.1960 -0.1125
  362MOL0     O48759   2.409   2.305   4.597 -0.1104 -0.3086  0.6368
  362MOL0     C48760   2.429   2.194   4.514  0.1576 -0.2898 -0.3341
  362MOL0     C48761   2.460   2.220   4.380  0.4074  0.2969  0.0514
  362MOL0     C48762   2.498   2.121   4.286 -1.1147  0.2829  0.8665
  362MOL0     C48763   2.528   2.175   4.147 -0.7215  1.2698 -0.3572
  362MOL0     C48764   2.510   1.984   4.318  0.9896 -0.1306  0.1426
  362MOL0     C48765   2.545   1.878   4.228  0.1301 -0.2389  0.1482
  362MOL0     O48766   2.530   1.753   4.278  0.3440 -0.1618  0.4488
  362MOL0     C48767   2.543   1.645   4.193 -0.1424  0.2047 -0.3611
  362MOL0     C48768   2.470   1.617   4.072  0.8138  0.1638  0.4757
  362MOL0     C48769   2.492   1.500   3.997 -0.1465  0.6742 -0.1219
  362MOL0     C48770   2.575   1.402   4.058  0.1892 -0.5239 -0.0770
  362MOL0     O48771   2.615   1.288   3.989  0.2642  0.5726  0.3106
  362MOL0     C48772   2.517   1.213   3.912  0.1878 -0.6799 -0.0891
  362MOL0     C48773   2.562   1.192   3.763 -0.8274 -0.3649  0.1528
  362MOL0     C48774   2.493   1.071   3.702  0.2524 -1.0983  0.7550
  362MOL0     C48775   2.541   1.030   3.559  1.1622  0.4763  0.3619
  362MOL0     C48776   2.456   0.917   3.499  0.0508  0.0976  0.2349
  362MOL0     C48777   2.518   0.880   3.361 -0.5016 -0.8857 -0.8442
  362MOL0     C48778   2.457   0.757   3.301 -0.0256 -0.9131  0.2352
  362MOL0     C48779   2.561   0.675   3.215  0.3313 -0.0086  0.1866
  362MOL0    Cl48780   2.687   0.588   3.288 -0.0702  0.0275  0.1345
  362MOL0     C48781   2.642   1.422   4.182 -0.5904  0.0280  0.4204
  362MOL0     C48782   2.625   1.548   4.244  1.0739  0.0299 -0.0885
  362MOL0     O48783   2.582   1.904   4.112  0.4742  0.5212 -0.1217
  362MOL0     C48784   2.484   1.960   4.450 -0.0620  0.2976  0.5891
  362MOL0     C48785   2.442   2.055   4.548  0.4273 -0.1060  1.3503
  362MOL0     N48786   2.722   2.700   4.384  0.2615  0.7333 -0.1346
  362MOL0     N48787   2.766   2.818   4.366 -0.7647 -0.9387 -0.3263
  362MOL0     C48788   3.494   3.838   4.591 -0.0152  0.5917  0.7761
  362MOL0     C48789   3.632   3.838   4.578  0.9196  0.9553 -0.1120
  362MOL0     C48790   4.079   3.695   4.589 -0.4542  0.0744  0.1987
  362MOL0     C48791   4.170   3.596   4.609  0.5516 -0.5635 -0.8985
  362MOL0     C48792   4.299   3.615   4.547  0.1670  0.7426  0.3498
  362MOL0     C48793   4.348   3.739   4.508  0.6127  0.5172 -0.4258
  362MOL0     O48794   4.478   3.755   4.493  1.2575 -0.2993  0.0451
  362MOL0     C48795   4.541   3.693   4.386 -0.9507  0.7540 -0.2843
  362MOL0     C48796   4.623   3.790   4.299 -0.8782 -0.4597  0.0251
  362MOL0     C48797   4.751   3.829   4.371  0.8957  0.3219  0.0924
  362MOL0     C48798   4.849   3.720   4.390  0.3628  0.4820 -0.7551
  362MOL0     C48799   4.859   3.632   4.271 -0.4345  0.2981  0.8382
  362MOL0     C48800   4.877   3.567   4.170 -0.4219 -0.0019 -0.6124
  362MOL0     C48801   4.245   3.843   4.490  0.3915  0.3957  0.2585
  362MOL0     C48802   4.110   3.812   4.515 -0.4669  0.5738  0.0624
  362MOL0     H48803   3.727   3.666   4.858  1.9746  0.9792 -0.1835
  362MOL0     H48804   3.490   3.653   4.883 -0.9812 -1.1158 -1.0863
  362MOL0     H48805   3.271   3.632   4.856 -0.1316  0.2217  0.2108
  362MOL0     H48806   3.198   3.790   4.871  0.4241 -1.1537  2.1394
  362MOL0     H48807   3.007   3.681   4.816  0.1017  1.4749 -0.2520
  362MOL0     H48808   3.069   3.690   4.643 -1.8950 -1.6182  0.2048
  362MOL0     H48809   3.146   3.473   4.650 -0.6804  0.0829 -0.8238
  362MOL0     H48810   3.133   3.466   4.828  3.7551 -1.1559 -2.2406
  362MOL0     H48811   2.896   3.477   4.800  1.3611 -1.0732  1.7491
  362MOL0     H48812   2.911   3.485   4.622 -2.0857  2.0183  1.4460
  362MOL0     H48813   3.058   3.243   4.691 -0.9399  1.2666 -3.3933
  362MOL0     H48814   2.928   3.243   4.801 -2.0446  1.1219 -0.1146
  362MOL0     H48815   2.764   3.273   4.625  0.0841  1.8754 -1.0170
  362MOL0     H48816   2.889   3.279   4.495 -0.8008 -0.5099 -0.8626
  362MOL0     H48817   2.955   3.049   4.588 -0.6030 -2.1340 -0.8566
  362MOL0     H48818   2.805   3.053   4.682 -1.7709  1.3298 -0.0572
  362MOL0     H48819   2.846   3.055   4.385  1.0910 -1.5731 -0.0125
  362MOL0     H48820   2.679   3.087   4.450 -1.5943 -2.4165  2.0816
  362MOL0     H48821   2.624   2.855   4.652 -1.5113  1.6018 -1.3843
  362MOL0     H48822   2.468   2.575   4.539 -0.5209 -0.6478 -1.3322
  362MOL0     H48823   2.604   2.490   4.473  1.2796 -1.2207  1.1080
  362MOL0     H48824   2.629   2.628   4.733 -1.0055  0.2999 -1.1298
  362MOL0     H48825   2.708   2.479   4.695  1.7328  0.7540 -2.8920
  362MOL0     H48826   2.412   2.520   4.762  0.5270 -0.3121 -0.0894
  362MOL0     H48827   2.532   2.451   4.871  1.4591 -0.5912 -0.2823
  362MOL0     H48828   2.436   2.271   4.822  2.7260  2.9169  2.9068
  362MOL0     H48829   2.575   2.261   4.711 -0.1838  1.0293 -1.4496
  362MOL0     H48830   2.439   2.321   4.347 -3.0914 -1.5455 -4.4657
  362MOL0     H48831   2.617   2.132   4.101 -1.1492  1.8284 -1.7578
  362MOL0     H48832   2.450   2.142   4.078  3.4560 -0.6978 -4.7077
  362MOL0     H48833   2.535   2.284   4.150  0.6759  1.1840  0.1920
  362MOL0     H48834   2.393   1.686   4.040  0.9019  0.1386  0.2116
  362MOL0     H48835   2.434   1.494   3.906 -0.4050  0.8627  0.0303
  362MOL0     H48836   2.501   1.115   3.958 -2.5629 -0.5920 -0.7169
  362MOL0     H48837   2.419   1.260   3.918  1.6189  2.4579  0.9137
  362MOL0     H48838   2.553   1.286   3.708  2.3186 -0.5160 -0.7976
  362MOL0     H48839   2.670   1.174   3.761 -0.7406  0.1890 -0.3603
  362MOL0     H48840   2.386   1.093   3.691  0.3651  0.2169  1.9465
  362MOL0     H48841   2.501   0.994   3.780 -1.2488 -1.2542  0.7916
  362MOL0     H48842   2.541   1.119   3.496 -0.6696 -0.4717 -1.0859
  362MOL0     H48843   2.644   0.995   3.571  0.8946 -0.1811  0.8247
  362MOL0     H48844   2.353   0.951   3.487  0.7725  1.9261 -1.4663
  362MOL0     H48845   2.461   0.833   3.569  1.9380 -1.0192 -1.1457
  362MOL0     H48846   2.505   0.970   3.299  1.8661  0.7054  0.8119
  362MOL0     H48847   2.625   0.862   3.378  0.0051  1.1053 -1.6820
  362MOL0     H48848   2.368   0.791   3.247  1.0557 -1.2528 -1.8482
  362MOL0     H48849   2.421   0.705   3.390  0.5156 -3.2619 -0.8519
  362MOL0     H48850   2.624   0.743   3.157  0.1420 -0.0008 -0.0131
  362MOL0     H48851   2.504   0.613   3.145 -1.0967 -2.2195  3.0601
  362MOL0     H48852   2.702   1.349   4.235  1.1663  0.9977 -0.1639
  362MOL0     H48853   2.671   1.569   4.340 -2.3899 -2.0812  2.2816
  362MOL0     H48854   2.485   1.856   4.481 -0.4633  0.3006  0.6183
  362MOL0     H48855   2.419   2.023   4.649 -3.4367  1.2962  1.0668
  362MOL0     H48856   3.429   3.871   4.511  2.2317 -0.4173 -1.6125
  362MOL0     H48857   3.677   3.875   4.487  0.2303 -0.7403 -1.1777
  362MOL0     H48858   4.151   3.501   4.658 -0.1152  0.3820  0.7556
  362MOL0     H48859   4.371   3.536   4.566 -0.4870  0.8382  3.9096
  362MOL0     H48860   4.610   3.620   4.430 -2.7682  0.0389  1.5673
  362MOL0     H48861   4.465   3.634   4.334 -1.4085  0.7712  0.3418
  362MOL0     H48862   4.568   3.880   4.273 -1.5776 -0.3062  1.8822
  362MOL0     H48863   4.636   3.735   4.205 -1.8402  1.1494 -1.0936
  362MOL0     H48864   4.727   3.874   4.468 -2.4311  2.5484 -1.5421
  362MOL0     H48865   4.808   3.905   4.317 -0.9475  0.4298 -1.8380
  362MOL0     H48866   4.822   3.659   4.477 -1.2946 -0.1967 -1.7131
  362MOL0     H48867   4.947   3.766   4.408 -0.0127  1.0057 -0.0106
  362MOL0     H48868   4.880   3.501   4.085  0.7130 -0.5698 -0.1580
  362MOL0     H48869   4.259   3.947   4.461 -1.1392  0.1066 -1.7645
  362MOL0     H48870   4.030   3.882   4.493 -2.9611 -2.9684 -3.4499
  363MOL0     O48871   9.135  10.388   5.808 -0.4665 -0.2287  1.2572
  363MOL0     C48872   9.148  10.299   5.720  0.3439 -0.5287  0.2816
  363MOL0     O48873   9.086  10.297   5.600 -0.3565  0.3636  0.3936
  363MOL0     C48874   8.978  10.381   5.563 -0.3965 -0.2995  0.4286
  363MOL0     C48875   8.959  10.525   5.596  0.6327  1.0801  0.1259
  363MOL0     C48876   8.864  10.601   5.537  0.4971 -0.6761  0.2584
  363MOL0     C48877   8.776  10.545   5.441 -0.2372  0.1044 -0.0272
  363MOL0     O48878   8.696  10.649   5.378 -0.0256  0.6786 -0.4034
  363MOL0     C48879   8.563  10.613   5.338 -0.2733  0.9729 -0.5011
  363MOL0     C48880   8.494  10.730   5.269 -0.6264  0.1037  0.0223
  363MOL0     C48881   8.488  10.854   5.364  0.1123 -0.0152  0.9661
  363MOL0     C48882   8.368  10.946   5.350  0.2651  0.4637  0.4307
  363MOL0     C48883   8.351  11.061   5.448  0.2235  0.1326 -0.3128
  363MOL0     C48884   8.292  11.019   5.581 -0.1970 -0.1893  0.4792
  363MOL0     C48885   8.287  11.137   5.672 -1.5366  0.0922 -0.4226
  363MOL0     C48886   8.200  11.253   5.640 -1.1016  0.3625  0.5664
  363MOL0     N48887   8.061  11.215   5.630 -0.0179  0.2284 -0.3431
  363MOL0     C48888   7.976  11.193   5.739 -1.0085 -0.0873 -0.0600
  363MOL0     C48889   7.850  11.209   5.693  1.0180  0.8465  0.9088
  363MOL0     C48890   7.729  11.189   5.792 -1.0462  1.0914  0.7018
  363MOL0     C48891   7.632  11.087   5.728  0.2542 -0.1853 -0.6993
  363MOL0     C48892   7.687  10.966   5.661 -0.5659 -0.0811 -0.1826
  363MOL0     C48893   7.786  10.877   5.749  0.7373 -0.1901  0.4159
  363MOL0     O48894   7.920  10.887   5.687  0.4012  0.7679  0.1002
  363MOL0     C48895   8.006  10.782   5.699  0.0112  0.3406  0.3800
  363MOL0     C48896   8.008  10.687   5.804  0.0228 -0.6657 -0.0325
  363MOL0     C48897   8.081  10.571   5.799 -0.6322 -0.3343 -0.0990
  363MOL0     C48898   8.053  10.473   5.919  0.2264  0.5334 -0.1631
  363MOL0     C48899   8.182  10.550   5.701  0.2676  0.3215  0.8291
  363MOL0     C48900   8.287  10.445   5.699  0.8541 -0.5835  0.3781
  363MOL0     O48901   8.319  10.395   5.572 -0.3468 -0.5399 -0.1812
  363MOL0     C48902   8.429  10.320   5.539 -0.1018 -0.2034  0.0979
  363MOL0     C48903   8.414  10.268   5.405  0.3372 -0.2108 -0.8340
  363MOL0     C48904   8.497  10.167   5.363  0.3187 -0.6000  0.0330
  363MOL0     C48905   8.590  10.111   5.448 -0.1011 -0.2541 -0.3183
  363MOL0     O48906   8.669  10.002   5.420  0.7648 -0.4451 -0.2303
  363MOL0     C48907   8.666   9.950   5.287 -0.0070 -0.6495 -0.1587
  363MOL0     C48908   8.792   9.870   5.254 -0.2344 -0.8005 -0.3350
  363MOL0     C48909   8.807   9.747   5.329  0.2213  0.9303  0.0821
  363MOL0     C48910   8.939   9.692   5.298 -0.5119 -0.0203  0.0438
  363MOL0     C48911   8.946   9.540   5.349 -0.4914  0.3453  0.2336
  363MOL0     C48912   9.090   9.485   5.344  0.1458 -0.1653  1.0339
  363MOL0     C48913   9.083   9.355   5.426 -0.4506  1.6664  0.3513
  363MOL0     C48914   9.213   9.291   5.429  0.4514  0.2354 -0.0151
  363MOL0    Cl48915   9.321   9.375   5.540 -0.1155  0.0150  0.4224
  363MOL0     C48916   8.610  10.175   5.572  0.0721  0.2806  0.2621
  363MOL0     C48917   8.531  10.281   5.623  0.2337  0.2662 -0.4098
  363MOL0     O48918   8.342  10.406   5.803  0.1707  0.1434 -0.4340
  363MOL0     C48919   8.179  10.649   5.598  0.3578  0.0207  0.1004
  363MOL0     C48920   8.098  10.757   5.595 -0.1876  0.7696  0.4696
  363MOL0     N48921   7.853  11.224   5.556 -0.4082 -0.0531  0.2639
  363MOL0     N48922   7.978  11.236   5.522  0.3135  0.1441 -0.5479
  363MOL0     C48923   8.780  10.405   5.414  0.4376 -0.3819  0.0899
  363MOL0     C48924   8.875  10.334   5.481 -0.3008  0.4237  0.2169
  363MOL0     C48925   9.265  10.208   5.741 -0.1828  0.3104  0.5379
  363MOL0     C48926   9.371  10.233   5.825 -0.1744 -0.2913  0.8991
  363MOL0     C48927   9.491  10.168   5.808 -0.4922  0.0247  0.2210
  363MOL0     C48928   9.507  10.055   5.728 -0.9296 -0.5784 -0.0536
  363MOL0     O48929   9.616   9.972   5.729 -0.0840  0.2616 -0.5286
  363MOL0     C48930   9.725  10.000   5.824  0.9131 -0.0205 -0.3752
  363MOL0     C48931   9.856   9.927   5.798 -0.0095  0.5477  0.0927
  363MOL0     C48932   9.890   9.916   5.653 -0.0069  0.0273 -0.1298
  363MOL0     C48933  10.033   9.874   5.628 -0.9108  0.2835  0.6920
  363MOL0     C48934  10.118   9.985   5.662 -0.4085 -1.0149 -0.1002
  363MOL0     C48935  10.173  10.092   5.676  0.8107 -0.6781 -0.0630
  363MOL0     C48936   9.400  10.033   5.640 -0.5006  0.2828 -0.6520
  363MOL0     C48937   9.283  10.105   5.649  0.1533 -0.3625  0.3075
  363MOL0     H48938   9.023  10.558   5.677 -1.1572  3.0893  0.8301
  363MOL0     H48939   8.847  10.702   5.571 -0.8130 -1.2369  1.3584
  363MOL0     H48940   8.569  10.539   5.257 -5.3443  0.7770 -1.0096
  363MOL0     H48941   8.498  10.573   5.417 -3.0384  1.6852 -2.2953
  363MOL0     H48942   8.549  10.762   5.180 -0.7116 -0.3675 -0.2036
  363MOL0     H48943   8.391  10.705   5.240 -1.1467  0.1639  1.7351
  363MOL0     H48944   8.495  10.813   5.466  0.1272  1.2431  1.4920
  363MOL0     H48945   8.579  10.912   5.345 -2.1070  3.2284 -0.5969
  363MOL0     H48946   8.367  10.991   5.250 -0.1529  3.1401  1.5554
  363MOL0     H48947   8.280  10.881   5.351  1.6962 -1.5931  2.3441
  363MOL0     H48948   8.453  11.099   5.455 -0.4795  2.0275  0.2857
  363MOL0     H48949   8.283  11.137   5.407 -0.1202  0.6396  1.1365
  363MOL0     H48950   8.188  10.990   5.565 -0.5086  0.2552  1.6053
  363MOL0     H48951   8.350  10.942   5.632 -0.0569  0.2960  1.0545
  363MOL0     H48952   8.258  11.097   5.770 -0.8400  0.6217  0.0068
  363MOL0     H48953   8.390  11.166   5.691 -1.9902  1.0543  0.6840
  363MOL0     H48954   8.234  11.305   5.550  0.6563  0.4396  1.2351
  363MOL0     H48955   8.211  11.340   5.705  1.8461  1.0479 -0.6634
  363MOL0     H48956   8.005  11.183   5.843 -0.1677  1.0755 -0.1553
  363MOL0     H48957   7.783  11.157   5.882  1.5927  1.2551 -0.7150
  363MOL0     H48958   7.676  11.282   5.812  0.4553  2.6474 -1.9863
  363MOL0     H48959   7.578  11.131   5.643  0.5334 -0.5315 -1.0614
  363MOL0     H48960   7.556  11.056   5.800 -1.8574  1.6744 -1.9775
  363MOL0     H48961   7.741  11.003   5.573  2.8995 -0.4256  1.6704
  363MOL0     H48962   7.601  10.908   5.624 -0.7184  0.9720 -1.5898
  363MOL0     H48963   7.733  10.782   5.751 -0.3706  0.4194  0.6226
  363MOL0     H48964   7.794  10.919   5.850 -2.4337 -0.7808  1.0227
  363MOL0     H48965   7.942  10.704   5.888  1.5499  2.1789  0.7428
  363MOL0     H48966   7.979  10.395   5.902  2.4176 -2.2775  2.1460
  363MOL0     H48967   8.144  10.424   5.956  1.7263  2.8023 -0.5895
  363MOL0     H48968   8.009  10.520   6.007 -1.6277 -1.4033  0.0045
  363MOL0     H48969   8.336  10.307   5.341  0.1412  2.1152  0.7137
  363MOL0     H48970   8.471  10.107   5.276  1.7593 -3.7698  1.6087
  363MOL0     H48971   8.580   9.884   5.272 -0.0042 -0.1889 -2.5489
  363MOL0     H48972   8.667  10.026   5.208  0.2031 -0.4011  0.0796
  363MOL0     H48973   8.803   9.853   5.147  2.7075 -0.6937 -0.1358
  363MOL0     H48974   8.882   9.930   5.271  0.0700 -1.6699  1.3523
  363MOL0     H48975   8.729   9.684   5.284  1.1183  1.1698 -1.9407
  363MOL0     H48976   8.789   9.750   5.437 -3.0217 -3.2530 -0.0845
  363MOL0     H48977   8.952   9.695   5.190 -0.0549 -2.1772 -0.0102
  363MOL0     H48978   9.017   9.753   5.347 -2.1510  0.1723  2.6114
  363MOL0     H48979   8.868   9.492   5.290  0.1689  1.6436 -1.7989
  363MOL0     H48980   8.915   9.527   5.453  1.0374 -1.5443  0.4930
  363MOL0     H48981   9.128   9.464   5.244  2.0385  2.1115  1.1670
  363MOL0     H48982   9.156   9.554   5.398 -0.7750  0.9372  0.7892
  363MOL0     H48983   9.012   9.277   5.398 -0.1633  0.3124  3.0283
  363MOL0     H48984   9.064   9.374   5.532 -2.2532  0.0699  0.3542
  363MOL0     H48985   9.249   9.286   5.325 -1.4950 -0.8506 -0.6913
  363MOL0     H48986   9.205   9.188   5.464 -3.8965  1.1630  2.4058
  363MOL0     H48987   8.693  10.144   5.633  0.9109 -1.4824 -1.6382
  363MOL0     H48988   8.540  10.323   5.723 -0.6159 -0.5124  0.0059
  363MOL0     H48989   8.240  10.631   5.509 -0.9283  1.4889 -1.1380
  363MOL0     H48990   8.101  10.825   5.509 -2.1271  0.7300  0.3250
  363MOL0     H48991   8.720  10.354   5.340  2.8275 -0.1266 -2.1496
  363MOL0     H48992   8.901  10.233   5.453  1.4443  0.8449  0.1718
  363MOL0     H48993   9.356  10.317   5.892 -1.0334 -0.7960  1.3597
  363MOL0     H48994   9.567  10.210   5.873  0.7130  4.6873 -3.6020
  363MOL0     H48995   9.743  10.107   5.837 -4.0629  1.1211 -1.1276
  363MOL0     H48996   9.697   9.964   5.923  2.5451  0.4376  0.2892
  363MOL0     H48997   9.849   9.828   5.842 -0.9432 -0.5683 -2.3562
  363MOL0     H48998   9.940   9.983   5.840  1.7643 -0.3953 -2.0064
  363MOL0     H48999   9.866  10.007   5.596 -3.3394 -1.6187 -1.6343
  363MOL0     H49000   9.832   9.834   5.611  1.9453 -1.2474 -0.4786
  363MOL0     H49001  10.043   9.841   5.525 -0.0759  0.9015  0.5642
  363MOL0     H49002  10.064   9.788   5.688 -0.8389 -0.9208 -1.0330
  363MOL0     H49003  10.226  10.185   5.676  3.1565 -1.9388 -0.5365
  363MOL0     H49004   9.413   9.967   5.555  1.1151  0.6074 -0.6700
  363MOL0     H49005   9.202  10.090   5.579  0.3008  0.6212 -0.0906
  364MOL0     O49006   9.385   3.294   8.303  0.2563 -0.2636  0.7853
  364MOL0     C49007   9.484   3.231   8.328 -0.0694  1.2312  0.1228
  364MOL0     O49008   9.551   3.242   8.440 -0.0687  0.4067 -0.2384
  364MOL0     C49009   9.537   3.349   8.521  0.6551  1.1483  0.6242
  364MOL0     C49010   9.545   3.319   8.655 -0.5294 -1.0606 -0.3116
  364MOL0     C49011   9.523   3.414   8.747  0.1709 -0.1359 -0.3669
  364MOL0     C49012   9.497   3.541   8.712  0.6391 -0.4696 -0.0464
  364MOL0     O49013   9.480   3.644   8.798 -0.7478 -1.0632  0.3952
  364MOL0     C49014   9.349   3.704   8.802 -0.4811 -0.2234  0.7431
  364MOL0     C49015   9.349   3.815   8.903 -0.2967  0.2039 -0.7809
  364MOL0     C49016   9.452   3.923   8.877 -0.1081  0.3957 -0.3623
  364MOL0     C49017   9.446   4.028   8.980  1.2691 -0.2979 -0.1665
  364MOL0     C49018   9.541   4.143   8.944  0.2195  0.5148  0.0895
  364MOL0     C49019   9.475   4.237   8.854  0.2283 -0.6097  0.2709
  364MOL0     C49020   9.572   4.336   8.801 -0.4074 -0.2149  0.5227
  364MOL0     C49021   9.504   4.438   8.713  0.1001 -0.1200 -1.0224
  364MOL0     N49022   9.526   4.425   8.572 -0.0811 -0.1438 -0.2452
  364MOL0     C49023   9.455   4.343   8.480 -0.6749 -0.4947 -0.7657
  364MOL0     C49024   9.533   4.350   8.367 -0.1213  0.3095 -0.1319
  364MOL0     C49025   9.507   4.262   8.245  0.5627 -1.2424 -0.6372
  364MOL0     C49026   9.369   4.272   8.178 -0.3087  0.7839 -0.6285
  364MOL0     C49027   9.343   4.182   8.060  0.1216 -0.3008 -0.4506
  364MOL0     C49028   9.208   4.191   7.985 -0.4199 -0.3656 -0.4267
  364MOL0     O49029   9.215   4.138   7.857 -0.6521  0.0581 -0.2571
  364MOL0     C49030   9.201   4.227   7.751  0.3321  1.0981 -0.1650
  364MOL0     C49031   9.179   4.166   7.625  0.7700 -0.7328 -0.8743
  364MOL0     C49032   9.165   4.233   7.502  0.2631 -0.4676 -0.6274
  364MOL0     C49033   9.121   4.147   7.384  0.2169  0.1923  0.5288
  364MOL0     C49034   9.198   4.370   7.493 -0.2416  0.7607  0.2587
  364MOL0     C49035   9.167   4.459   7.380  0.6548  0.0872 -0.1276
  364MOL0     O49036   9.092   4.405   7.278 -0.1276  0.6938  0.6280
  364MOL0     C49037   9.061   4.463   7.156  0.2081  0.8076  0.9366
  364MOL0     C49038   8.977   4.380   7.068 -0.2239  0.0207 -0.7305
  364MOL0     C49039   8.948   4.421   6.935  0.0735  0.0059  0.2533
  364MOL0     C49040   8.987   4.552   6.896 -0.7306 -0.4788  0.6099
  364MOL0     O49041   8.971   4.607   6.774 -0.2782  0.3606  0.5154
  364MOL0     C49042   8.856   4.568   6.697  0.1130 -0.0937 -0.2653
  364MOL0     C49043   8.892   4.486   6.572  0.0278 -0.7008 -0.2941
  364MOL0     C49044   9.010   4.558   6.495 -0.5600 -0.4403 -0.0912
  364MOL0     C49045   9.055   4.484   6.363  0.0158  0.5085 -0.0121
  364MOL0     C49046   9.143   4.570   6.271  0.3996  0.5009  0.4802
  364MOL0     C49047   9.223   4.490   6.170 -0.5020  0.2279  0.1864
  364MOL0     C49048   9.145   4.417   6.063  0.0548 -0.0326  0.5369
  364MOL0     C49049   9.250   4.364   5.961 -0.0272  0.6878  0.6954
  364MOL0    Cl49050   9.161   4.296   5.811  0.4407  0.0880 -0.3447
  364MOL0     C49051   9.058   4.637   6.986  1.2503 -0.5218  1.2497
  364MOL0     C49052   9.093   4.592   7.115 -0.6832  0.2719 -0.1838
  364MOL0     O49053   9.210   4.574   7.385  0.7932 -0.1717  0.2776
  364MOL0     C49054   9.254   4.424   7.615  0.0209 -0.5824 -0.5164
  364MOL0     C49055   9.242   4.362   7.739 -0.3128  0.6041 -0.6870
  364MOL0     N49056   9.631   4.454   8.384 -0.3744 -1.0113 -1.0051
  364MOL0     N49057   9.633   4.482   8.507 -0.1653 -0.6985 -0.5965
  364MOL0     C49058   9.496   3.576   8.578 -0.3459 -0.4443  0.0239
  364MOL0     C49059   9.522   3.478   8.482  0.7310 -0.2605  0.8526
  364MOL0     C49060   9.527   3.130   8.226  0.0237 -0.0089  1.0625
  364MOL0     C49061   9.657   3.066   8.229  0.6750 -0.5516  0.6607
  364MOL0     C49062   9.690   2.956   8.149  1.5623 -0.8925 -0.1795
  364MOL0     C49063   9.594   2.910   8.061 -0.6936  0.7138  0.2090
  364MOL0     O49064   9.623   2.802   7.977 -0.1409  0.0520  0.9438
  364MOL0     C49065   9.749   2.734   7.965 -0.3544  0.3064 -0.4794
  364MOL0     C49066   9.723   2.615   7.861  1.2843 -0.3205 -0.9169
  364MOL0     C49067   9.847   2.516   7.829  0.8426 -0.0491  0.0746
  364MOL0     C49068   9.845   2.465   7.686 -0.4331  0.3605  1.2184
  364MOL0     C49069   9.882   2.576   7.593  0.3819 -0.2837 -0.1401
  364MOL0     C49070   9.897   2.666   7.518  0.6412 -0.0725  0.0964
  364MOL0     C49071   9.468   2.971   8.053 -0.1370 -0.3882 -0.2422
  364MOL0     C49072   9.431   3.071   8.141  0.5646  0.5801  0.0330
  364MOL0     H49073   9.564   3.216   8.683 -0.4751 -0.9205  0.1769
  364MOL0     H49074   9.529   3.388   8.852  1.5322  1.0024 -0.1203
  364MOL0     H49075   9.315   3.743   8.706  2.1453 -0.2658 -0.2995
  364MOL0     H49076   9.281   3.626   8.836  1.2765 -1.5159  1.4627
  364MOL0     H49077   9.256   3.873   8.898 -1.9054 -2.3549 -3.6351
  364MOL0     H49078   9.363   3.775   9.003 -0.1502  0.7990 -0.5553
  364MOL0     H49079   9.552   3.878   8.879 -0.0567  0.4369 -1.3122
  364MOL0     H49080   9.427   3.964   8.778 -0.5261  0.3231 -0.2885
  364MOL0     H49081   9.345   4.059   9.009  1.3350 -0.2175 -0.0165
  364MOL0     H49082   9.476   3.988   9.078  2.9500 -2.0792 -1.3334
  364MOL0     H49083   9.574   4.194   9.034  1.9740  0.3352 -0.4142
  364MOL0     H49084   9.631   4.091   8.910  0.2081 -0.9276  2.0988
  364MOL0     H49085   9.444   4.176   8.769 -2.3976  1.9153 -0.7773
  364MOL0     H49086   9.388   4.286   8.900  1.0917 -0.4553  1.8181
  364MOL0     H49087   9.634   4.387   8.876  0.3087 -1.8936  1.1327
  364MOL0     H49088   9.642   4.280   8.739 -0.0756  0.7721 -0.0075
  364MOL0     H49089   9.546   4.534   8.744  1.3588 -0.3027 -2.0875
  364MOL0     H49090   9.403   4.446   8.755  1.4584 -2.3706  3.2814
  364MOL0     H49091   9.365   4.286   8.497 -0.9842 -0.3448 -1.8392
  364MOL0     H49092   9.580   4.288   8.167 -0.4673 -0.8000 -1.4904
  364MOL0     H49093   9.523   4.160   8.281 -1.2140  0.3509  6.1065
  364MOL0     H49094   9.355   4.378   8.155  0.2087  1.0862  0.3875
  364MOL0     H49095   9.291   4.251   8.252 -1.2767  1.8248 -1.3276
  364MOL0     H49096   9.365   4.077   8.081  0.4738  0.3812  3.3337
  364MOL0     H49097   9.417   4.221   7.990  3.2778 -3.7469  0.6802
  364MOL0     H49098   9.192   4.298   7.974  0.3540 -0.2780 -0.7528
  364MOL0     H49099   9.130   4.158   8.054  0.6916 -0.1071  1.0179
  364MOL0     H49100   9.177   4.058   7.634  2.0144 -0.7001  0.0841
  364MOL0     H49101   9.029   4.186   7.339 -0.5916 -2.1927 -0.0686
  364MOL0     H49102   9.195   4.145   7.304 -1.3333 -4.7831 -1.2068
  364MOL0     H49103   9.106   4.040   7.404 -1.8712  0.2659 -0.3368
  364MOL0     H49104   8.928   4.287   7.096 -1.8904  1.8950  3.4209
  364MOL0     H49105   8.891   4.355   6.870  1.8305  1.5268 -3.0542
  364MOL0     H49106   8.780   4.517   6.757  0.2318  1.2897  1.1228
  364MOL0     H49107   8.808   4.661   6.666 -1.1365  0.7555  3.6054
  364MOL0     H49108   8.910   4.383   6.605 -1.2195 -1.6541 -2.3820
  364MOL0     H49109   8.816   4.505   6.496  1.1855  4.1646 -0.5645
  364MOL0     H49110   9.093   4.566   6.566  0.3998  0.1633 -1.2544
  364MOL0     H49111   8.992   4.666   6.487 -2.1396 -0.6451  0.3339
  364MOL0     H49112   9.102   4.389   6.391 -0.4534  0.8329  2.0932
  364MOL0     H49113   8.965   4.446   6.314  0.5628 -2.6785  1.1791
  364MOL0     H49114   9.223   4.616   6.330 -0.6009  0.7975  1.6469
  364MOL0     H49115   9.081   4.649   6.228 -0.4390  0.5640  1.7442
  364MOL0     H49116   9.295   4.556   6.121  1.3690 -2.7980 -1.4905
  364MOL0     H49117   9.278   4.409   6.218  3.6180  2.5488 -0.1521
  364MOL0     H49118   9.069   4.477   6.010 -1.4273 -4.1485 -2.5121
  364MOL0     H49119   9.102   4.331   6.114  0.9655 -0.3243  0.8168
  364MOL0     H49120   9.308   4.286   6.011 -0.3071  1.3171  2.0260
  364MOL0     H49121   9.332   4.428   5.927  1.1844 -1.1299 -0.0071
  364MOL0     H49122   9.083   4.737   6.954  1.7456  0.3919  4.2329
  364MOL0     H49123   9.162   4.657   7.168 -3.7888  4.5157 -0.7578
  364MOL0     H49124   9.267   4.532   7.627 -0.0051 -0.6074 -0.2545
  364MOL0     H49125   9.260   4.435   7.816  2.9893  1.2871 -1.9425
  364MOL0     H49126   9.474   3.679   8.550 -1.3235 -0.4712  0.6308
  364MOL0     H49127   9.531   3.495   8.376 -0.8444  1.2654  0.9117
  364MOL0     H49128   9.736   3.100   8.296  0.8466 -2.9671  1.8021
  364MOL0     H49129   9.789   2.912   8.143  1.8828 -0.0344 -1.8985
  364MOL0     H49130   9.827   2.793   7.917  3.9240 -4.2997  0.0164
  364MOL0     H49131   9.786   2.692   8.059  0.5563 -0.2301 -1.0654
  364MOL0     H49132   9.700   2.662   7.765 -2.2799  1.4383  0.6293
  364MOL0     H49133   9.646   2.540   7.882  2.2066 -0.6445  1.7226
  364MOL0     H49134   9.845   2.430   7.896 -0.4889 -0.2125 -0.1579
  364MOL0     H49135   9.944   2.566   7.838  1.5464 -0.7827 -2.4490
  364MOL0     H49136   9.748   2.429   7.651  0.8424 -1.0594 -1.1097
  364MOL0     H49137   9.927   2.394   7.667 -0.1039  0.8328  0.8459
  364MOL0     H49138   9.894   2.753   7.455  1.3043  1.8614  2.5461
  364MOL0     H49139   9.406   2.916   7.983  0.6990 -0.2719 -1.0951
  364MOL0     H49140   9.327   3.102   8.152  0.5781  2.0690 -2.9818
  365MOL0     O49141   8.861   0.283   3.290  0.0450 -0.8510 -0.1454
  365MOL0     C49142   8.926   0.224   3.373  0.5260  0.3047  0.5578
  365MOL0     O49143   8.875   0.173   3.487  0.3399  0.6451  0.3981
  365MOL0     C49144   8.742   0.176   3.524  0.8159 -0.5511 -0.1764
  365MOL0     C49145   8.627   0.218   3.446  0.7361  0.3570  0.0959
  365MOL0     C49146   8.505   0.217   3.503 -0.1663 -0.8744  0.4190
  365MOL0     C49147   8.482   0.174   3.631 -0.3787  0.5719 -0.3800
  365MOL0     O49148   8.363   0.161   3.705 -0.1646 -0.8401  0.8125
  365MOL0     C49149   8.244   0.210   3.636 -0.0013  0.1644  0.0958
  365MOL0     C49150   8.125   0.234   3.741  0.9978  0.0103 -0.7149
  365MOL0     C49151   8.138   0.132   3.853 -0.4214  0.4236  1.2078
  365MOL0     C49152   8.005   0.126   3.929  0.4703  0.3930  0.4822
  365MOL0     C49153   7.901   0.025   3.890 -0.9178 -0.0682  0.3805
  365MOL0     C49154   7.819  -0.018   4.013 -0.9493 -0.5312  0.1196
  365MOL0     C49155   7.717   0.093   4.062 -0.5703  0.9696 -0.1256
  365MOL0     C49156   7.593   0.085   3.976 -0.2307  0.2351  0.0567
  365MOL0     N49157   7.498  -0.007   4.043  0.0925 -0.8507  0.0028
  365MOL0     C49158   7.373   0.049   4.089  0.6389 -0.3655 -0.4456
  365MOL0     C49159   7.308  -0.064   4.128  0.0944  0.5629 -0.2975
  365MOL0     C49160   7.171  -0.064   4.184 -0.0614  0.5011 -0.7175
  365MOL0     C49161   7.122   0.037   4.285  0.5531 -0.3736 -0.4420
  365MOL0     C49162   7.213   0.041   4.418  0.0467  0.5452 -0.6322
  365MOL0     C49163   7.174   0.149   4.515 -0.1463 -0.2845  0.1417
  365MOL0     O49164   7.038   0.193   4.515 -0.0001  0.0081 -0.5336
  365MOL0     C49165   7.011   0.305   4.583  0.3692 -0.9412 -0.0844
  365MOL0     C49166   7.092   0.406   4.635 -0.0187 -0.1951  0.0962
  365MOL0     C49167   7.050   0.513   4.716  0.4784  0.9219  0.3251
  365MOL0     C49168   7.156   0.606   4.765 -0.1960  0.8908 -0.1520
  365MOL0     C49169   6.903   0.524   4.738 -0.5797  0.5754  0.7383
  365MOL0     C49170   6.839   0.643   4.800  0.2207 -0.1737 -0.8386
  365MOL0     O49171   6.918   0.743   4.843  0.3743 -0.2899 -0.4711
  365MOL0     C49172   6.850   0.859   4.864 -0.1147 -0.1633  0.2244
  365MOL0     C49173   6.776   0.883   4.982 -0.0272 -0.4519 -0.0820
  365MOL0     C49174   6.703   0.999   4.981 -0.1719 -1.2358 -0.6779
  365MOL0     C49175   6.696   1.084   4.867  0.4437  0.0992 -0.6178
  365MOL0     O49176   6.616   1.188   4.846  0.4302 -0.0059  0.7075
  365MOL0     C49177   6.490   1.192   4.910  0.5078  1.1583  0.4690
  365MOL0     C49178   6.420   1.321   4.869 -0.2025  0.4690 -1.1320
  365MOL0     C49179   6.397   1.331   4.722 -0.2373  0.0449  0.3151
  365MOL0     C49180   6.329   1.458   4.692  0.0307  0.0473  0.7302
  365MOL0     C49181   6.298   1.472   4.538 -0.1761  0.3091 -0.5262
  365MOL0     C49182   6.260   1.618   4.499 -0.4627  0.2236 -0.7519
  365MOL0     C49183   6.157   1.680   4.580  0.8328 -1.3310 -0.3946
  365MOL0     C49184   6.100   1.806   4.513  0.1836 -0.9457 -0.3578
  365MOL0    Cl49185   5.966   1.856   4.618  0.0869 -0.1872 -0.6087
  365MOL0     C49186   6.774   1.052   4.754 -0.5501 -1.0555 -0.5563
  365MOL0     C49187   6.857   0.943   4.752  0.1587 -0.1941 -0.0712
  365MOL0     O49188   6.716   0.638   4.810 -0.0740 -0.1560  0.7721
  365MOL0     C49189   6.825   0.424   4.681  0.3099  0.5308 -0.2434
  365MOL0     C49190   6.874   0.326   4.597 -0.6765  0.4352 -0.5764
  365MOL0     N49191   7.379  -0.178   4.097  0.4643  0.3518 -0.1963
  365MOL0     N49192   7.498  -0.143   4.055 -0.3214 -0.8217 -0.0289
  365MOL0     C49193   8.595   0.147   3.710 -0.0776  0.7667  1.0799
  365MOL0     C49194   8.717   0.146   3.659  0.5166 -0.9162  0.2742
  365MOL0     C49195   9.067   0.198   3.333  0.4822  0.0749 -1.0465
  365MOL0     C49196   9.117   0.240   3.213  0.7836 -0.2763 -0.0488
  365MOL0     C49197   9.251   0.215   3.181 -0.0838  1.7749  0.0725
  365MOL0     C49198   9.333   0.144   3.271 -0.6093 -0.0548 -0.0005
  365MOL0     O49199   9.464   0.106   3.236  0.2568 -1.0546  0.0556
  365MOL0     C49200   9.559   0.201   3.185 -0.2790 -0.0319 -0.4056
  365MOL0     C49201   9.695   0.187   3.245  0.1168  0.2085 -0.4882
  365MOL0     C49202   9.689   0.199   3.402  0.2822  0.4406  0.5320
  365MOL0     C49203   9.834   0.219   3.458 -0.1663 -0.4480  0.0079
  365MOL0     C49204   9.920   0.107   3.430 -0.6664 -0.3540  0.1100
  365MOL0     C49205   9.979   0.003   3.415 -0.4642  0.8726 -0.1933
  365MOL0     C49206   9.284   0.094   3.392  0.1497  0.4760 -0.5522
  365MOL0     C49207   9.151   0.123   3.423  0.3156 -0.5424 -0.0030
  365MOL0     H49208   8.648   0.260   3.348  0.6328 -1.1335 -0.5965
  365MOL0     H49209   8.421   0.244   3.440 -0.9487  0.6342  2.0351
  365MOL0     H49210   8.254   0.304   3.580 -0.8345  1.0682  1.4224
  365MOL0     H49211   8.208   0.129   3.572 -1.6460 -0.1020  1.3034
  365MOL0     H49212   8.139   0.334   3.784  0.0339 -0.9723  2.1110
  365MOL0     H49213   8.030   0.227   3.687 -0.1598 -2.4213  1.4088
  365MOL0     H49214   8.161   0.034   3.809 -0.4410  2.2968 -3.5624
  365MOL0     H49215   8.224   0.152   3.918  2.1582 -1.7845 -1.2171
  365MOL0     H49216   8.049   0.111   4.028  4.4167  2.4137 -0.7467
  365MOL0     H49217   7.961   0.226   3.938  1.1867  0.8860 -1.0887
  365MOL0     H49218   7.826   0.055   3.816 -1.9599  1.9575  2.1398
  365MOL0     H49219   7.952  -0.066   3.859  2.0785  0.9914  1.8133
  365MOL0     H49220   7.754  -0.102   3.987 -0.0848 -0.3255 -3.1332
  365MOL0     H49221   7.881  -0.048   4.097 -0.9055 -3.1053 -0.7567
  365MOL0     H49222   7.696   0.088   4.169 -2.7438 -1.0138 -0.5836
  365MOL0     H49223   7.774   0.186   4.052 -0.3777  0.9656  0.8861
  365MOL0     H49224   7.600   0.057   3.871 -3.4130 -3.0065  0.4946
  365MOL0     H49225   7.552   0.186   3.975 -2.1094 -0.4052 -3.5243
  365MOL0     H49226   7.335   0.147   4.114 -1.2283 -1.0709 -0.3600
  365MOL0     H49227   7.109  -0.065   4.094 -1.8469  2.6715  0.3941
  365MOL0     H49228   7.151  -0.162   4.228 -3.1638  0.6310 -1.5794
  365MOL0     H49229   7.020   0.003   4.306  0.4130 -0.5405 -1.3283
  365MOL0     H49230   7.117   0.138   4.244  0.6244  0.3138  1.1667
  365MOL0     H49231   7.322   0.040   4.405  0.0551  2.3494 -0.9954
  365MOL0     H49232   7.194  -0.057   4.462  2.6734  0.2961  0.1459
  365MOL0     H49233   7.245   0.225   4.481 -0.3986  0.5231  1.3442
  365MOL0     H49234   7.202   0.124   4.618 -0.3812  1.2486  0.6012
  365MOL0     H49235   7.199   0.407   4.616  0.2366  1.5897  1.3874
  365MOL0     H49236   7.255   0.591   4.720  0.4505  0.5012  1.3461
  365MOL0     H49237   7.132   0.709   4.739 -0.8166  0.0210 -3.5065
  365MOL0     H49238   7.146   0.583   4.871 -1.0176  0.6466 -0.2780
  365MOL0     H49239   6.766   0.823   5.072 -0.8994 -0.1749  0.0187
  365MOL0     H49240   6.639   1.016   5.066  1.0475  0.4605 -0.0398
  365MOL0     H49241   6.430   1.103   4.891  0.3912  0.9371  1.7486
  365MOL0     H49242   6.503   1.184   5.019 -1.3332 -0.7596  0.6005
  365MOL0     H49243   6.324   1.324   4.921  1.4064 -1.9147  2.3380
  365MOL0     H49244   6.477   1.412   4.894 -1.1859  0.0704  3.2312
  365MOL0     H49245   6.339   1.245   4.686  0.1646  0.3417 -1.0990
  365MOL0     H49246   6.495   1.345   4.675 -0.1464  0.0989  0.5185
  365MOL0     H49247   6.234   1.468   4.746  0.7778  1.3338  1.8601
  365MOL0     H49248   6.397   1.534   4.731  1.2985 -1.5355  1.7557
  365MOL0     H49249   6.215   1.407   4.507 -0.3556  0.6496 -0.7684
  365MOL0     H49250   6.383   1.437   4.479 -2.5700 -2.7258 -2.4488
  365MOL0     H49251   6.348   1.682   4.490 -0.0592 -0.3909 -1.2449
  365MOL0     H49252   6.224   1.606   4.396  2.3376 -0.8149 -1.7068
  365MOL0     H49253   6.205   1.713   4.672  2.2363  1.3615 -1.9885
  365MOL0     H49254   6.075   1.609   4.600  0.6251 -1.1017 -0.4241
  365MOL0     H49255   6.062   1.781   4.413  0.0698 -1.5452 -0.1647
  365MOL0     H49256   6.184   1.876   4.503 -0.8508  0.4123  0.0434
  365MOL0     H49257   6.776   1.124   4.672  1.3779 -0.3987 -0.0029
  365MOL0     H49258   6.908   0.919   4.660 -1.4416  0.6824 -1.2268
  365MOL0     H49259   6.717   0.427   4.693  0.5190 -0.3213  2.5659
  365MOL0     H49260   6.800   0.262   4.550 -0.7856 -1.1125  1.5306
  365MOL0     H49261   8.586   0.113   3.813 -0.2506  2.3067  1.5948
  365MOL0     H49262   8.798   0.104   3.717  3.5710 -0.4828 -3.3061
  365MOL0     H49263   9.048   0.285   3.143 -1.0699  1.5908  2.7751
  365MOL0     H49264   9.272   0.246   3.079 -3.1867  0.5068 -1.0571
  365MOL0     H49265   9.577   0.175   3.080 -3.5937 -4.4882 -0.1581
  365MOL0     H49266   9.532   0.307   3.197 -0.4944 -0.0742 -0.5204
  365MOL0     H49267   9.759   0.262   3.199 -1.8578  2.6484  0.5490
  365MOL0     H49268   9.744   0.091   3.228  0.1188  0.3523 -1.3065
  365MOL0     H49269   9.653   0.103   3.441  1.1513  1.0204  2.9431
  365MOL0     H49270   9.613   0.270   3.433 -0.0600 -0.7705  2.6185
  365MOL0     H49271   9.830   0.215   3.567  0.3165 -3.2929  0.0004
  365MOL0     H49272   9.879   0.312   3.422  0.4923 -0.4765  0.7166
  365MOL0     H49273  10.021  -0.088   3.379  0.2272  2.2980 -3.3487
  365MOL0     H49274   9.339   0.036   3.465 -0.8271 -1.3956 -1.2373
  365MOL0     H49275   9.117   0.072   3.513  1.0414 -2.0933 -0.5881
  366MOL0     O49276   5.041  10.813   0.619 -1.0383 -0.5647  0.3241
  366MOL0     C49277   4.929  10.857   0.643 -0.5469 -0.1705  0.4606
  366MOL0     O49278   4.825  10.837   0.566  0.0623  0.3000 -0.4569
  366MOL0     C49279   4.842  10.816   0.436  0.1911  0.0893  0.8540
  366MOL0     C49280   4.886  10.929   0.355 -0.2315  0.8214 -0.2809
  366MOL0     C49281   4.889  10.918   0.225 -0.1476  0.2811  0.2851
  366MOL0     C49282   4.867  10.793   0.159  0.4638 -0.3674  0.2279
  366MOL0     O49283   4.859  10.786   0.023  0.4093 -0.5979  0.0643
  366MOL0     C49284   4.943  10.875  -0.059  0.3272  0.0693 -0.0349
  366MOL0     C49285   4.934  10.852  -0.207 -0.5643  0.1326  0.0855
  366MOL0     C49286   4.930  10.700  -0.252 -1.1394  0.4891 -0.0140
  366MOL0     C49287   4.947  10.685  -0.403 -1.5181 -0.0600  0.6619
  366MOL0     C49288   4.842  10.767  -0.479  0.3863 -0.1076 -0.0618
  366MOL0     C49289   4.834  10.731  -0.623  0.9360  0.0460  0.2792
  366MOL0     C49290   4.735  10.822  -0.697 -0.5620 -0.4969 -0.4030
  366MOL0     C49291   4.707  10.781  -0.846 -0.6284  0.9409 -0.0887
  366MOL0     N49292   4.663  10.646  -0.845  0.2700  0.1291  0.4695
  366MOL0     C49293   4.534  10.617  -0.821 -0.8226 -0.1103 -0.5063
  366MOL0     C49294   4.501  10.512  -0.907 -0.2256 -0.4094  0.0392
  366MOL0     C49295   4.359  10.451  -0.923  0.6064 -0.5960 -0.8753
  366MOL0     C49296   4.327  10.362  -0.808 -0.6818  0.0328  0.1265
  366MOL0     C49297   4.404  10.229  -0.832  0.3878  0.7370 -0.7316
  366MOL0     C49298   4.392  10.142  -0.704  1.2130  0.4129  0.7640
  366MOL0     O49299   4.280  10.060  -0.724  0.8956 -1.0449  0.3158
  366MOL0     C49300   4.151  10.098  -0.717 -0.1962 -0.5164 -0.6944
  366MOL0     C49301   4.087  10.200  -0.640  0.3757 -0.3100  1.1169
  366MOL0     C49302   3.948  10.232  -0.649 -1.3615 -0.5891  0.3989
  366MOL0     C49303   3.887  10.350  -0.579  0.2670  0.3975 -0.6678
  366MOL0     C49304   3.867  10.148  -0.732 -0.0415 -0.6859  0.6577
  366MOL0     C49305   3.727  10.168  -0.774  0.3709  0.1335  0.2773
  366MOL0     O49306   3.667  10.055  -0.832  0.0567 -0.0623 -0.1503
  366MOL0     C49307   3.534  10.069  -0.856 -0.8022  0.8557 -0.0494
  366MOL0     C49308   3.495  10.134  -0.976 -1.1554 -0.1257 -0.2443
  366MOL0     C49309   3.364  10.120  -1.026  0.9895  0.1569  0.1626
  366MOL0     C49310   3.272  10.048  -0.957 -0.7319  0.1606  0.0038
  366MOL0     O49311   3.157  10.026  -1.026 -0.1423 -0.1001  0.4323
  366MOL0     C49312   3.083   9.915  -0.980 -0.2429 -0.0353  0.1233
  366MOL0     C49313   2.941   9.911  -1.036 -0.8665  0.1863 -0.5061
  366MOL0     C49314   2.923   9.952  -1.176 -0.9763  0.1301  0.1766
  366MOL0     C49315   2.780   9.953  -1.222 -0.1283  0.7873  0.8473
  366MOL0     C49316   2.779   9.979  -1.378 -0.0415 -0.0187  0.7049
  366MOL0     C49317   2.634   9.964  -1.438 -0.2431 -0.1188 -0.7815
  366MOL0     C49318   2.536  10.078  -1.392 -0.1267  0.1866  0.1035
  366MOL0     C49319   2.413  10.021  -1.446 -0.2752 -0.4619  0.7074
  366MOL0    Cl49320   2.290  10.137  -1.427  0.1127  0.2690  0.0474
  366MOL0     C49321   3.318   9.999  -0.830 -0.1078 -0.5160  0.3558
  366MOL0     C49322   3.441  10.013  -0.780 -0.1624  0.5578 -0.1536
  366MOL0     O49323   3.663  10.270  -0.738  0.4875 -0.0625 -0.5275
  366MOL0     C49324   3.934  10.039  -0.798  0.0130  0.1701  0.3118
  366MOL0     C49325   4.065  10.014  -0.791 -0.0607 -0.3389 -0.9781
  366MOL0     N49326   4.619  10.484  -0.969 -0.2185 -0.3197  0.4477
  366MOL0     N49327   4.708  10.569  -0.939 -0.3565 -0.8045  0.6775
  366MOL0     C49328   4.814  10.686   0.229 -0.5300 -0.0204 -0.5434
  366MOL0     C49329   4.803  10.703   0.373  0.1147  0.7622  0.5108
  366MOL0     C49330   4.918  10.927   0.770 -0.1431  0.0767 -0.1618
  366MOL0     C49331   4.799  10.956   0.823 -0.9435 -0.1025  0.1042
  366MOL0     C49332   4.788  11.029   0.948  0.6422  0.5503 -0.2169
  366MOL0     C49333   4.892  11.060   1.026  0.3637 -0.6779  0.5734
  366MOL0     O49334   4.878  11.111   1.150 -0.3359 -0.1220 -0.1711
  366MOL0     C49335   4.849  11.027   1.264 -0.1635  0.2959 -0.0331
  366MOL0     C49336   4.958  10.910   1.287  0.0347 -0.1760 -0.3088
  366MOL0     C49337   4.900  10.771   1.255  0.4894 -0.5621  0.1798
  366MOL0     C49338   5.002  10.663   1.299 -0.2199 -0.1948 -0.1372
  366MOL0     C49339   4.984  10.623   1.438  0.7825  0.1623  0.1886
  366MOL0     C49340   4.962  10.593   1.554 -0.1310  0.1972 -1.3025
  366MOL0     C49341   5.019  11.046   0.961  0.0084  0.4999 -0.0717
  366MOL0     C49342   5.033  10.975   0.838  0.7204 -0.3466 -0.2865
  366MOL0     H49343   4.910  11.027   0.394 -0.1829 -0.1565  2.3802
  366MOL0     H49344   4.932  11.001   0.169  1.6572  0.3824  1.6939
  366MOL0     H49345   4.899  10.973  -0.040 -1.1178 -0.5228 -0.1785
  366MOL0     H49346   5.045  10.872  -0.020 -0.2707 -1.3678  1.6026
  366MOL0     H49347   4.837  10.902  -0.217  0.0156  1.5238  1.1641
  366MOL0     H49348   5.005  10.907  -0.270 -0.9545  1.2267  0.5805
  366MOL0     H49349   5.022  10.654  -0.216  1.9330  3.3798 -3.2945
  366MOL0     H49350   4.837  10.652  -0.221  0.9553 -6.2302 -2.3644
  366MOL0     H49351   5.048  10.702  -0.439 -1.3443  0.8678  1.5507
  366MOL0     H49352   4.920  10.580  -0.418  0.9016 -1.0946  2.9412
  366MOL0     H49353   4.744  10.743  -0.435  0.2122 -2.6928 -1.6282
  366MOL0     H49354   4.858  10.874  -0.461  0.3895 -0.0338 -0.4802
  366MOL0     H49355   4.936  10.742  -0.662  0.8083 -0.7614 -0.3112
  366MOL0     H49356   4.805  10.627  -0.642  1.9206 -0.0742 -0.6681
  366MOL0     H49357   4.640  10.805  -0.645 -1.1097  0.6321 -0.9991
  366MOL0     H49358   4.766  10.926  -0.692  4.2724 -1.6672 -0.5902
  366MOL0     H49359   4.792  10.787  -0.915 -0.3516 -1.8488 -0.1193
  366MOL0     H49360   4.631  10.846  -0.890 -1.4894  1.1642  1.6349
  366MOL0     H49361   4.467  10.673  -0.756 -0.4298  1.0745 -1.0855
  366MOL0     H49362   4.276  10.521  -0.937 -1.3146 -1.7884  3.2271
  366MOL0     H49363   4.362  10.396  -1.018 -2.3301 -3.1918  0.3435
  366MOL0     H49364   4.219  10.348  -0.797 -0.3733 -1.8631  1.1847
  366MOL0     H49365   4.352  10.413  -0.714 -0.3720  1.6013 -0.7578
  366MOL0     H49366   4.507  10.258  -0.854 -0.6630  2.9677 -3.3705
  366MOL0     H49367   4.370  10.167  -0.915  1.0573 -1.0634  0.2902
  366MOL0     H49368   4.376  10.209  -0.619 -1.9106 -0.0512  0.6619
  366MOL0     H49369   4.486  10.087  -0.697  2.9968  3.1515  0.0311
  366MOL0     H49370   4.152  10.261  -0.578 -0.7076  1.7219  0.3520
  366MOL0     H49371   3.796  10.318  -0.528 -0.6950  2.4198 -0.9837
  366MOL0     H49372   3.965  10.409  -0.530 -0.0136  1.7406 -1.7437
  366MOL0     H49373   3.835  10.418  -0.648 -5.4614 -3.5736 -0.9274
  366MOL0     H49374   3.564  10.190  -1.039 -0.0509 -2.4665 -1.2384
  366MOL0     H49375   3.337  10.164  -1.122  2.3642  1.7998  0.4751
  366MOL0     H49376   3.139   9.830  -1.021  0.9066  0.3309  0.8945
  366MOL0     H49377   3.071   9.902  -0.872 -1.3456 -3.0732 -0.2765
  366MOL0     H49378   2.936   9.802  -1.040  0.1574  0.1394 -0.6585
  366MOL0     H49379   2.862   9.952  -0.971  1.6429  0.9999  2.2656
  366MOL0     H49380   2.984   9.891  -1.243  1.1173 -0.4336  2.4696
  366MOL0     H49381   2.967  10.053  -1.176 -2.2192  0.6899  0.3939
  366MOL0     H49382   2.757   9.848  -1.202 -0.7936  0.7314 -0.1598
  366MOL0     H49383   2.720  10.026  -1.167 -0.0911 -0.5860  2.8262
  366MOL0     H49384   2.843   9.910  -1.435  1.5703  4.2559 -3.3912
  366MOL0     H49385   2.819  10.081  -1.389  1.7650 -0.0255  5.1739
  366MOL0     H49386   2.635   9.956  -1.547  1.5463 -0.1119 -0.7962
  366MOL0     H49387   2.600   9.871  -1.392 -1.1174 -1.1128 -3.2484
  366MOL0     H49388   2.553  10.177  -1.434  0.0070  1.3422  2.6600
  366MOL0     H49389   2.549  10.092  -1.284  3.0840 -0.5067 -0.1069
  366MOL0     H49390   2.391   9.939  -1.377 -0.0502 -0.1952  1.0974
  366MOL0     H49391   2.413   9.985  -1.550  1.2790  0.3018  0.4153
  366MOL0     H49392   3.239   9.939  -0.786 -1.5560  0.1207 -1.2398
  366MOL0     H49393   3.474   9.956  -0.694 -2.2871 -1.6121 -0.6274
  366MOL0     H49394   3.878   9.970  -0.860 -0.1556 -1.0085  1.7249
  366MOL0     H49395   4.114   9.946  -0.860  3.2251  2.2854 -1.5182
  366MOL0     H49396   4.793  10.589   0.185  3.6601 -1.0217 -0.7533
  366MOL0     H49397   4.746  10.623   0.418 -0.4450 -0.0571 -1.5427
  366MOL0     H49398   4.704  10.918   0.788  0.1193 -0.6275 -2.4646
  366MOL0     H49399   4.690  11.050   0.988  0.9666  0.0846  0.8789
  366MOL0     H49400   4.832  11.078   1.360  0.5879 -0.8556  0.7424
  366MOL0     H49401   4.751  10.980   1.249 -1.4291  2.2010  1.6164
  366MOL0     H49402   4.986  10.921   1.393 -2.7904 -0.5337  0.5482
  366MOL0     H49403   5.053  10.924   1.234 -0.4562  0.9598 -0.9205
  366MOL0     H49404   4.887  10.770   1.147  2.8734  0.7092 -0.1763
  366MOL0     H49405   4.801  10.762   1.300  0.1633  2.9676  0.4464
  366MOL0     H49406   5.103  10.702   1.280 -1.6918  2.6243 -3.3670
  366MOL0     H49407   4.991  10.575   1.235 -0.5180  0.2153 -0.6699
  366MOL0     H49408   4.946  10.557   1.654  4.6205 -2.4644 -1.2064
  366MOL0     H49409   5.096  11.106   1.008 -0.2775  0.6523  0.2143
  366MOL0     H49410   5.128  10.966   0.786 -0.2273  2.5672 -2.7751
  367MOL0     O49411   3.109  11.038  10.328  0.4129  0.2334  0.0209
  367MOL0     C49412   3.146  10.974  10.428  0.7712 -0.3710  0.0554
  367MOL0     O49413   3.073  10.925  10.522 -0.0331  0.2572 -0.1532
  367MOL0     C49414   2.936  10.907  10.512  0.4960 -0.1182 -0.2627
  367MOL0     C49415   2.844  10.966  10.421  0.0956  0.0219 -0.6196
  367MOL0     C49416   2.713  10.909  10.418 -0.4096 -0.0694  0.8837
  367MOL0     C49417   2.667  10.812  10.498 -0.2054 -0.7428 -0.2341
  367MOL0     O49418   2.538  10.763  10.488  0.2577 -0.0994  0.5280
  367MOL0     C49419   2.470  10.748  10.617 -0.8643  0.1345 -0.6325
  367MOL0     C49420   2.322  10.727  10.584  0.5570 -0.5748  0.0843
  367MOL0     C49421   2.256  10.855  10.534  0.6239 -0.2891  0.3996
  367MOL0     C49422   2.164  10.913  10.643 -0.5551  0.3801  0.3833
  367MOL0     C49423   2.059  11.021  10.581 -0.7952 -0.2238 -0.1998
  367MOL0     C49424   1.987  11.109  10.697 -1.1959  0.4884  0.5652
  367MOL0     C49425   1.845  11.137  10.654  0.7254 -0.7215 -0.1954
  367MOL0     C49426   1.775  11.227  10.754 -0.0301  0.8096  0.3897
  367MOL0     N49427   1.699  11.147  10.851 -0.2490 -0.0381  1.0990
  367MOL0     C49428   1.567  11.103  10.838  0.1466 -0.1609  0.2179
  367MOL0     C49429   1.539  11.049  10.961  1.0592  0.2398 -0.2382
  367MOL0     C49430   1.396  11.003  11.009 -1.1929 -0.8907 -0.2357
  367MOL0     C49431   1.385  10.856  11.012  0.3467 -0.2298  0.1016
  367MOL0     C49432   1.237  10.802  11.035 -0.0725  1.2727 -0.7839
  367MOL0     C49433   1.166  10.852  11.171  1.0669  0.0692 -0.4810
  367MOL0     O49434   1.025  10.816  11.190  0.2177  0.0971  0.2470
  367MOL0     C49435   0.924  10.901  11.138 -1.1050  0.3372 -0.1119
  367MOL0     C49436   0.955  11.005  11.049 -0.1256  0.2118 -0.3674
  367MOL0     C49437   0.855  11.096  11.016 -0.5950 -0.2197  0.2055
  367MOL0     C49438   0.904  11.213  10.931 -0.3463 -0.0820 -0.2745
  367MOL0     C49439   0.722  11.086  11.067  0.2522  0.3220 -0.4036
  367MOL0     C49440   0.608  11.172  11.030  0.1278  1.1079 -0.2577
  367MOL0     O49441   0.628  11.303  11.046  0.1426  0.1182 -0.1625
  367MOL0     C49442   0.536  11.404  11.007 -0.4316 -0.3052 -0.4763
  367MOL0     C49443   0.554  11.529  11.053 -1.6842  0.7108  0.1243
  367MOL0     C49444   0.463  11.634  11.034 -0.2029  0.1968 -0.7992
  367MOL0     C49445   0.348  11.609  10.955  0.9836 -0.4817 -0.2031
  367MOL0     O49446   0.269  11.716  10.920  1.0489 -0.2036 -1.3003
  367MOL0     C49447   0.218  11.806  11.029  0.1536  1.0436  0.6575
  367MOL0     C49448   0.106  11.888  10.971  1.1949 -0.5017 -0.0316
  367MOL0     C49449   0.044  11.979  11.080  0.3357 -0.8699  0.0596
  367MOL0     C49450  -0.035  12.096  11.021 -0.0819  0.1901 -0.1892
  367MOL0     C49451  -0.095  12.197  11.125 -0.2831 -0.0178  0.0734
  367MOL0     C49452  -0.182  12.304  11.064 -0.0505 -0.8169  0.4803
  367MOL0     C49453  -0.241  12.397  11.167 -0.1825  0.1120 -0.1333
  367MOL0     C49454  -0.332  12.499  11.111  0.5874  0.9617 -0.0970
  367MOL0    Cl49455  -0.360  12.628  11.237 -0.3294 -0.2919  0.5534
  367MOL0     C49456   0.329  11.481  10.889  0.3496 -0.4470 -0.0493
  367MOL0     C49457   0.423  11.377  10.917 -0.1489 -0.5029  0.8820
  367MOL0     O49458   0.502  11.113  11.007 -0.7251 -0.4619  0.0430
  367MOL0     C49459   0.696  10.986  11.155  0.6961 -0.1221 -0.2866
  367MOL0     C49460   0.793  10.895  11.190  0.7226 -0.1097  0.3555
  367MOL0     N49461   1.653  11.065  11.046  0.4555 -0.2029 -0.0524
  367MOL0     N49462   1.748  11.120  10.973 -0.1683 -0.1856  0.4547
  367MOL0     C49463   2.759  10.765  10.589 -0.9565 -0.0994 -0.9888
  367MOL0     C49464   2.888  10.808  10.590  0.2920 -0.4974 -0.1121
  367MOL0     C49465   3.288  10.956  10.440  0.7725  0.4459 -0.3130
  367MOL0     C49466   3.379  11.011  10.348 -1.0586  0.3787 -0.3158
  367MOL0     C49467   3.518  10.989  10.351 -0.0074 -0.0904  0.1137
  367MOL0     C49468   3.572  10.933  10.466  0.4414  0.4732  0.2073
  367MOL0     O49469   3.708  10.911  10.464  0.1203  0.6429 -0.2528
  367MOL0     C49470   3.762  10.875  10.588  0.0999  0.4619  0.7679
  367MOL0     C49471   3.914  10.876  10.569 -0.5046 -0.3803  0.5479
  367MOL0     C49472   3.995  10.866  10.692 -0.3984  0.7881 -0.1828
  367MOL0     C49473   4.044  10.732  10.725  0.6837  0.0822 -0.0529
  367MOL0     C49474   4.086  10.737  10.867 -0.5873  0.6133  0.9643
  367MOL0     C49475   4.133  10.743  10.979  1.2562 -0.2980 -0.8228
  367MOL0     C49476   3.490  10.883  10.573  0.6543 -0.0811  0.2145
  367MOL0     C49477   3.350  10.903  10.565  0.8807  0.5589 -0.0509
  367MOL0     H49478   2.873  11.050  10.359  3.0266 -0.0555  0.4855
  367MOL0     H49479   2.642  10.946  10.345 -0.9632 -1.4713  0.6734
  367MOL0     H49480   2.507  10.661  10.671  2.5621 -0.5665 -3.7487
  367MOL0     H49481   2.482  10.845  10.667 -1.0655  0.0882 -0.4941
  367MOL0     H49482   2.318  10.662  10.495 -0.2946  1.8431 -1.7615
  367MOL0     H49483   2.266  10.691  10.670  2.1232  1.9381  2.3061
  367MOL0     H49484   2.323  10.933  10.497 -1.3256  0.1034 -2.5984
  367MOL0     H49485   2.191  10.836  10.449 -1.9543  1.1613  1.9317
  367MOL0     H49486   2.107  10.832  10.690  1.5204 -0.9562  0.7785
  367MOL0     H49487   2.228  10.956  10.721 -2.2719 -0.2129  2.1843
  367MOL0     H49488   2.114  11.088  10.514  0.9187 -2.1287 -0.8250
  367MOL0     H49489   1.984  10.958  10.533 -1.9930  0.7297  0.3719
  367MOL0     H49490   1.977  11.057  10.793 -1.7326  2.8627  1.8574
  367MOL0     H49491   2.048  11.192  10.733  0.3152  0.0622 -0.8629
  367MOL0     H49492   1.847  11.184  10.555 -0.0851  0.0709  0.1501
  367MOL0     H49493   1.785  11.046  10.645  0.1012 -0.3420  0.0463
  367MOL0     H49494   1.706  11.293  10.701 -0.5284  1.2938  1.6061
  367MOL0     H49495   1.844  11.298  10.800  2.3712 -0.1260 -1.5376
  367MOL0     H49496   1.499  11.111  10.754  0.3476  0.5507  0.1182
  367MOL0     H49497   1.383  11.042  11.110 -1.7498 -0.3675 -0.4987
  367MOL0     H49498   1.325  11.059  10.947  2.2834  2.8359 -1.3060
  367MOL0     H49499   1.445  10.820  11.096 -0.4923  1.6223  1.5817
  367MOL0     H49500   1.421  10.809  10.920  0.8871  1.1491 -0.4266
  367MOL0     H49501   1.244  10.694  11.022 -1.7798  1.2701 -2.0850
  367MOL0     H49502   1.169  10.834  10.955 -1.1375  0.5281 -0.1955
  367MOL0     H49503   1.172  10.960  11.191  2.7438 -0.5863  3.3635
  367MOL0     H49504   1.228  10.819  11.254  2.0173 -0.1264 -1.2565
  367MOL0     H49505   1.055  11.022  11.010  0.3102  0.0254  0.6265
  367MOL0     H49506   0.892  11.306  10.988 -0.6827  0.9505 -1.9627
  367MOL0     H49507   1.011  11.213  10.910 -0.4796  0.5569 -0.9859
  367MOL0     H49508   0.860  11.224  10.832  1.9908  0.9368 -1.2732
  367MOL0     H49509   0.644  11.538  11.114 -1.3136 -0.0361 -0.2965
  367MOL0     H49510   0.468  11.731  11.082  0.1724 -1.2167  2.2698
  367MOL0     H49511   0.188  11.746  11.115 -0.1783  0.4999  0.1710
  367MOL0     H49512   0.288  11.877  11.074  0.5608  0.0674  1.6092
  367MOL0     H49513   0.147  11.943  10.885 -1.4571  1.8971  0.0881
  367MOL0     H49514   0.022  11.838  10.921 -0.2636  1.6427  0.1039
  367MOL0     H49515   0.128  12.013  11.142  1.4997  0.4614 -2.1295
  367MOL0     H49516  -0.020  11.925  11.150 -1.8991 -1.5893 -2.3951
  367MOL0     H49517   0.032  12.161  10.964  1.1207 -1.5114 -0.7874
  367MOL0     H49518  -0.125  12.070  10.964 -1.8436  3.2287  0.9507
  367MOL0     H49519  -0.013  12.247  11.178  1.2817  0.2057 -2.3699
  367MOL0     H49520  -0.150  12.138  11.198 -0.3443 -0.1527 -0.0804
  367MOL0     H49521  -0.126  12.363  10.991 -1.9518  1.2323  0.5938
  367MOL0     H49522  -0.264  12.248  11.017 -0.9535  0.3381  0.6367
  367MOL0     H49523  -0.163  12.451  11.221  1.9158 -1.8589 -0.9811
  367MOL0     H49524  -0.296  12.352  11.250 -1.6534  2.4549  0.2510
  367MOL0     H49525  -0.430  12.458  11.081  0.9447 -1.0681  1.2877
  367MOL0     H49526  -0.293  12.542  11.019 -1.0117 -0.1521 -1.3524
  367MOL0     H49527   0.239  11.460  10.832  0.7384 -1.6408 -0.2598
  367MOL0     H49528   0.410  11.290  10.853 -1.3123  0.3332 -0.0586
  367MOL0     H49529   0.597  10.975  11.198 -0.2268 -0.5898 -2.3984
  367MOL0     H49530   0.771  10.812  11.257 -1.5244 -0.8449 -1.2081
  367MOL0     H49531   2.739  10.701  10.674  0.7724 -1.1495 -1.3437
  367MOL0     H49532   2.955  10.780  10.672  1.7274  0.4254 -0.9240
  367MOL0     H49533   3.340  11.073  10.267  0.2276  0.5949 -0.7843
  367MOL0     H49534   3.584  11.024  10.273 -0.0216  3.2069  1.4256
  367MOL0     H49535   3.716  10.946  10.658 -2.4593  0.5593 -0.8585
  367MOL0     H49536   3.744  10.776  10.631  1.0870  0.6583  1.6591
  367MOL0     H49537   3.943  10.975  10.533 -1.4854  1.6586  4.7017
  367MOL0     H49538   3.932  10.797  10.496  0.9408 -0.8002  1.3175
  367MOL0     H49539   3.950  10.906  10.783 -1.1536 -1.6825  0.5998
  367MOL0     H49540   4.083  10.929  10.673  0.8380 -0.1816  1.9715
  367MOL0     H49541   4.129  10.703  10.664  2.1060  0.5204  1.6388
  367MOL0     H49542   3.960  10.661  10.720  0.7992 -0.2700  2.1392
  367MOL0     H49543   4.171  10.742  11.079 -2.4468  1.4411  0.8219
  367MOL0     H49544   3.522  10.828  10.661 -1.2187 -0.6840  0.5847
  367MOL0     H49545   3.290  10.851  10.639  1.0963 -0.4524 -0.5686
  368MOL0     O49546   7.041   7.973   9.366 -0.3422  0.2597 -0.2023
  368MOL0     C49547   7.146   7.965   9.432 -1.0791 -0.5010 -0.6536
  368MOL0     O49548   7.266   7.989   9.386 -0.4863 -0.0708 -0.5723
  368MOL0     C49549   7.304   8.001   9.249  0.1590 -0.4656 -0.2070
  368MOL0     C49550   7.424   7.959   9.196 -0.2606 -0.1272 -0.0674
  368MOL0     C49551   7.448   7.948   9.059 -0.1894 -0.8770 -0.6448
  368MOL0     C49552   7.357   7.996   8.970  0.1597 -0.3895  0.5551
  368MOL0     O49553   7.385   7.984   8.835 -0.0510  0.1399  0.1775
  368MOL0     C49554   7.277   7.922   8.767 -0.9613  0.0200 -0.6950
  368MOL0     C49555   7.306   7.870   8.628  0.9146 -0.2723 -0.1129
  368MOL0     C49556   7.421   7.778   8.623  0.4632 -0.1532 -0.6572
  368MOL0     C49557   7.502   7.767   8.490 -0.1425 -0.0742 -0.3884
  368MOL0     C49558   7.423   7.771   8.362 -0.3817 -1.0700 -0.1140
  368MOL0     C49559   7.511   7.789   8.234 -0.2104 -0.7052  0.0857
  368MOL0     C49560   7.418   7.813   8.112  0.1569 -0.6974  0.0230
  368MOL0     C49561   7.396   7.962   8.081  0.9793  0.6331  0.2716
  368MOL0     N49562   7.268   8.021   8.140 -0.3128  0.1845  0.0376
  368MOL0     C49563   7.262   8.083   8.264  0.0779  0.5193 -0.2144
  368MOL0     C49564   7.126   8.119   8.265 -0.3009  0.3670  0.2690
  368MOL0     C49565   7.062   8.191   8.382  0.3334 -0.3218  0.5904
  368MOL0     C49566   6.967   8.306   8.342 -0.5925 -0.4966 -0.1681
  368MOL0     C49567   6.854   8.315   8.441 -0.3110  0.6758 -0.2743
  368MOL0     C49568   6.892   8.344   8.585 -0.8767 -0.5537 -0.0826
  368MOL0     O49569   6.776   8.352   8.664  0.0364  0.0767  0.4477
  368MOL0     C49570   6.779   8.409   8.788 -0.9420 -0.8748  0.3584
  368MOL0     C49571   6.886   8.407   8.877  0.1158  0.3067  0.1888
  368MOL0     C49572   6.877   8.466   9.001 -0.9976 -0.5423  0.2815
  368MOL0     C49573   6.991   8.441   9.097  0.0460 -0.0005  0.2361
  368MOL0     C49574   6.767   8.555   9.022 -0.3613  0.7524  0.0834
  368MOL0     C49575   6.751   8.629   9.149 -0.0883 -0.2163 -0.4629
  368MOL0     O49576   6.866   8.657   9.207 -0.3688  0.1636  0.0954
  368MOL0     C49577   6.884   8.703   9.342 -0.0590 -0.4657 -0.4442
  368MOL0     C49578   6.982   8.788   9.383  0.1353  0.4403  0.0189
  368MOL0     C49579   7.013   8.817   9.515  0.4273  0.0338  0.0206
  368MOL0     C49580   6.930   8.760   9.622 -1.6528  0.1474  0.4656
  368MOL0     O49581   6.966   8.764   9.758 -0.0648 -0.1492  0.2636
  368MOL0     C49582   7.051   8.876   9.801  0.1579 -0.1225  1.5552
  368MOL0     C49583   7.087   8.854   9.943 -0.2028 -0.8021  0.3020
  368MOL0     C49584   6.973   8.836  10.052  0.2299 -0.5295  0.8016
  368MOL0     C49585   6.922   8.978  10.087 -0.4544  0.8751  0.7066
  368MOL0     C49586   6.820   8.973  10.204  0.0549  0.9231 -0.1294
  368MOL0     C49587   6.675   8.922  10.160  0.6929 -0.0381  0.0140
  368MOL0     C49588   6.579   8.965  10.268  1.3394  0.0378  0.3199
  368MOL0     C49589   6.437   9.013  10.218  0.1998  0.4428  0.2142
  368MOL0    Cl49590   6.448   9.134  10.098 -0.0047 -0.1419 -0.2981
  368MOL0     C49591   6.818   8.683   9.587  1.0610 -0.2994 -0.0416
  368MOL0     C49592   6.796   8.658   9.444 -0.3156  0.5077 -0.4733
  368MOL0     O49593   6.642   8.673   9.179 -0.1846  0.1989  0.4500
  368MOL0     C49594   6.654   8.561   8.928  0.9101  0.1310 -0.3760
  368MOL0     C49595   6.664   8.482   8.817  0.0253 -0.3784  0.2400
  368MOL0     N49596   7.071   8.091   8.139  0.0353 -0.2046  0.1441
  368MOL0     N49597   7.153   8.031   8.070 -0.4016  0.4205 -0.3446
  368MOL0     C49598   7.233   8.057   9.013 -0.5734  0.0541  1.0771
  368MOL0     C49599   7.219   8.065   9.156 -0.1704  0.2774  0.6554
  368MOL0     C49600   7.129   7.928   9.583 -0.6204 -0.4878 -0.2012
  368MOL0     C49601   7.010   7.866   9.620 -0.0433  0.5038  0.0236
  368MOL0     C49602   6.995   7.819   9.750  0.5500 -1.1979  0.0893
  368MOL0     C49603   7.089   7.841   9.849 -0.1282 -0.1098  0.2851
  368MOL0     O49604   7.077   7.824   9.981  0.4641  0.1176  0.2139
  368MOL0     C49605   7.142   7.698  10.019  0.2488 -0.3729 -0.3391
  368MOL0     C49606   7.233   7.733  10.138  0.1788  0.1786 -0.1518
  368MOL0     C49607   7.301   7.609  10.189  0.1723  0.2441  0.0112
  368MOL0     C49608   7.209   7.504  10.256 -0.0652 -0.1506 -0.1989
  368MOL0     C49609   7.171   7.416  10.145 -0.3673 -0.0642  0.1167
  368MOL0     C49610   7.147   7.350  10.039 -0.0264  0.3770  0.2550
  368MOL0     C49611   7.208   7.905   9.814 -0.0892 -1.1503 -0.5043
  368MOL0     C49612   7.221   7.950   9.687 -0.7609 -1.4949 -0.4200
  368MOL0     H49613   7.504   7.938   9.267 -1.1808  0.4378  1.1687
  368MOL0     H49614   7.542   7.923   9.011  1.1943  1.6915  0.4981
  368MOL0     H49615   7.248   7.834   8.825  1.0389 -2.4269 -3.0562
  368MOL0     H49616   7.191   7.989   8.765 -0.0026  1.2982 -2.1929
  368MOL0     H49617   7.218   7.819   8.587  0.4438 -0.8080  1.5045
  368MOL0     H49618   7.324   7.965   8.576  1.0428  0.0217  0.4583
  368MOL0     H49619   7.495   7.809   8.698  0.2472  2.1944 -1.3254
  368MOL0     H49620   7.371   7.685   8.651  0.9994 -0.3452 -0.3210
  368MOL0     H49621   7.567   7.855   8.482 -0.5183  0.4035  1.4890
  368MOL0     H49622   7.550   7.669   8.486  0.4458  0.2103 -0.4522
  368MOL0     H49623   7.356   7.684   8.365 -1.9494 -0.0317 -2.1330
  368MOL0     H49624   7.358   7.859   8.372 -1.8127 -2.2470  1.5218
  368MOL0     H49625   7.586   7.867   8.251 -2.1743  1.0755  1.0286
  368MOL0     H49626   7.559   7.693   8.215 -0.4984 -0.3797 -2.6789
  368MOL0     H49627   7.458   7.765   8.023  0.8902 -1.3788  0.7041
  368MOL0     H49628   7.322   7.767   8.139  0.2328  1.1647  4.2741
  368MOL0     H49629   7.395   7.980   7.973  3.8930 -4.4487 -0.9221
  368MOL0     H49630   7.481   8.014   8.127  1.8267  0.7267 -1.3068
  368MOL0     H49631   7.349   8.096   8.328  1.8304  1.6971 -2.6867
  368MOL0     H49632   7.013   8.113   8.441  3.0208 -0.5898  2.6360
  368MOL0     H49633   7.146   8.225   8.442 -0.6618  0.4018  1.6174
  368MOL0     H49634   6.942   8.295   8.236 -0.2202  2.5710 -0.6669
  368MOL0     H49635   7.011   8.406   8.335  2.1640 -1.6713 -1.2023
  368MOL0     H49636   6.790   8.227   8.433 -1.9010  1.6262  1.3183
  368MOL0     H49637   6.786   8.389   8.399 -2.6024 -1.0497  0.2500
  368MOL0     H49638   6.941   8.441   8.583 -2.3215  0.1995 -1.9841
  368MOL0     H49639   6.968   8.271   8.614  0.5541  0.9087 -0.0145
  368MOL0     H49640   6.976   8.355   8.847 -0.7333 -0.1915 -1.6282
  368MOL0     H49641   6.963   8.443   9.203  2.1690 -0.0156  0.8443
  368MOL0     H49642   7.026   8.337   9.093 -2.3562 -0.8218 -1.1591
  368MOL0     H49643   7.069   8.516   9.078 -3.0443  3.0956 -1.2695
  368MOL0     H49644   7.045   8.825   9.302  0.7361 -3.4486 -1.5702
  368MOL0     H49645   7.091   8.890   9.532  1.3822 -1.1774  1.0796
  368MOL0     H49646   7.140   8.878   9.738 -0.0371 -4.9919  0.7010
  368MOL0     H49647   6.996   8.969   9.785  2.5086  1.4575  2.1933
  368MOL0     H49648   7.156   8.769   9.954 -1.6284 -1.8114  1.8973
  368MOL0     H49649   7.148   8.937   9.980 -2.1584 -0.4867  3.0838
  368MOL0     H49650   7.022   8.786  10.136  0.4392 -0.9150  0.4522
  368MOL0     H49651   6.894   8.772  10.012 -1.1877  1.0767  0.9372
  368MOL0     H49652   7.003   9.045  10.117 -0.3322 -0.2885  3.1784
  368MOL0     H49653   6.866   9.011   9.999  0.4437  0.2790 -0.1137
  368MOL0     H49654   6.821   9.063  10.265 -2.3992  1.7733 -1.1941
  368MOL0     H49655   6.853   8.896  10.275 -0.7898 -2.3795 -2.9839
  368MOL0     H49656   6.646   8.975  10.069 -0.7904  1.5666  1.3491
  368MOL0     H49657   6.677   8.815  10.140  1.7081  0.1922 -1.3029
  368MOL0     H49658   6.621   9.048  10.326  1.4563 -0.2411  0.6404
  368MOL0     H49659   6.566   8.886  10.343  1.5665  0.3183  0.6605
  368MOL0     H49660   6.390   9.048  10.310  2.7284 -2.0057  2.6628
  368MOL0     H49661   6.386   8.927  10.173  2.2976 -1.6144  1.4929
  368MOL0     H49662   6.742   8.640   9.651  1.5566 -0.4629  0.4386
  368MOL0     H49663   6.709   8.600   9.415 -0.1411  1.0305 -2.1598
  368MOL0     H49664   6.564   8.620   8.943 -0.3149 -1.5744 -0.7307
  368MOL0     H49665   6.577   8.476   8.753 -0.3587 -1.6967  0.8602
  368MOL0     H49666   7.150   8.089   8.952  1.1222  0.8706 -0.9202
  368MOL0     H49667   7.119   8.104   9.174 -0.4829 -0.1938 -0.0133
  368MOL0     H49668   6.942   7.832   9.542  1.2304 -1.3028 -0.3615
  368MOL0     H49669   6.904   7.770   9.784  0.4246 -0.5429  0.7192
  368MOL0     H49670   7.066   7.626  10.051  0.7086 -1.6200 -1.9074
  368MOL0     H49671   7.211   7.651   9.948 -0.1037 -1.1469 -0.1805
  368MOL0     H49672   7.171   7.778  10.216  1.8900  2.9149 -0.2216
  368MOL0     H49673   7.308   7.804  10.102 -1.1167  0.9715 -1.4127
  368MOL0     H49674   7.365   7.660  10.262  1.8085  1.6455 -2.2592
  368MOL0     H49675   7.366   7.576  10.107 -1.5505 -1.0495 -0.8827
  368MOL0     H49676   7.120   7.551  10.298 -0.6207 -2.1483  0.9903
  368MOL0     H49677   7.254   7.449  10.339 -0.0257 -0.4885 -0.4413
  368MOL0     H49678   7.128   7.300   9.947 -5.3967  2.5341 -0.1531
  368MOL0     H49679   7.279   7.921   9.894 -1.4130 -0.4757  0.5810
  368MOL0     H49680   7.311   7.995   9.646 -0.8258 -2.9367 -2.3048
  369MOL0     O49681   2.226   6.959   2.306  0.0128 -0.3849 -0.0937
  369MOL0     C49682   2.165   6.977   2.409 -0.3631  0.3080  0.1531
  369MOL0     O49683   2.043   6.931   2.429  0.2461 -1.0891  0.7439
  369MOL0     C49684   1.958   6.887   2.327 -0.2112 -0.1713  0.5895
  369MOL0     C49685   1.825   6.919   2.348 -0.0100 -0.5073 -0.3882
  369MOL0     C49686   1.718   6.862   2.273  0.0394  0.3883  0.7531
  369MOL0     C49687   1.746   6.789   2.159  0.0981  0.4860  0.7386
  369MOL0     O49688   1.655   6.735   2.066 -0.4091 -0.9982 -0.3755
  369MOL0     C49689   1.531   6.678   2.114  0.0443 -0.9474 -0.4046
  369MOL0     C49690   1.446   6.614   2.001  0.8792 -0.3530  0.1210
  369MOL0     C49691   1.501   6.478   1.954 -0.1766 -0.0290 -0.0300
  369MOL0     C49692   1.536   6.474   1.806  0.5200 -0.0185 -0.9265
  369MOL0     C49693   1.653   6.581   1.779 -0.0116 -0.1984  0.2513
  369MOL0     C49694   1.710   6.547   1.642  0.3615 -0.2668 -0.2386
  369MOL0     C49695   1.648   6.635   1.525 -0.2653  0.2660 -1.0471
  369MOL0     C49696   1.664   6.558   1.398  0.5608  0.2055 -0.7828
  369MOL0     N49697   1.806   6.506   1.361  0.4700 -0.4418  0.3002
  369MOL0     C49698   1.917   6.586   1.341 -0.3040 -0.3201  1.0092
  369MOL0     C49699   2.024   6.494   1.332 -0.1355 -1.1411  0.1445
  369MOL0     C49700   2.159   6.526   1.300 -0.8616  0.3134 -0.0129
  369MOL0     C49701   2.257   6.581   1.416  0.4306 -0.1401  0.1784
  369MOL0     C49702   2.398   6.518   1.418  0.3561 -0.1841 -0.1366
  369MOL0     C49703   2.499   6.613   1.477  0.2947  0.2946  0.4646
  369MOL0     O49704   2.622   6.549   1.438  0.3354 -0.0885  0.3110
  369MOL0     C49705   2.715   6.555   1.535 -0.6760  0.0838 -1.0851
  369MOL0     C49706   2.844   6.605   1.520  0.4326  0.4499  0.3234
  369MOL0     C49707   2.943   6.590   1.620  1.4838  0.5102  0.4535
  369MOL0     C49708   3.077   6.655   1.594  0.8889  0.4682 -0.5078
  369MOL0     C49709   2.909   6.532   1.749 -0.3059 -0.1480  0.7893
  369MOL0     C49710   3.004   6.503   1.850  0.1211  0.0731 -0.3017
  369MOL0     O49711   2.952   6.491   1.976  0.5036 -0.3224 -0.0291
  369MOL0     C49712   3.023   6.471   2.088 -0.3120  0.1630 -0.4036
  369MOL0     C49713   3.145   6.527   2.128 -1.4526  0.7053 -0.2510
  369MOL0     C49714   3.193   6.511   2.258  0.5347 -0.4267  0.0749
  369MOL0     C49715   3.124   6.430   2.346  0.2310  0.6279  0.8427
  369MOL0     O49716   3.179   6.411   2.472  0.4201  0.5563  1.3683
  369MOL0     C49717   3.088   6.396   2.587 -0.7321 -0.0093  1.0985
  369MOL0     C49718   3.188   6.391   2.705 -0.2400 -0.2201 -0.8659
  369MOL0     C49719   3.251   6.529   2.737  0.4060 -0.8975  1.4171
  369MOL0     C49720   3.149   6.642   2.753 -0.1461  0.4191  0.7171
  369MOL0     C49721   3.223   6.767   2.801  0.0300  0.0098 -0.9520
  369MOL0     C49722   3.131   6.885   2.779 -0.2718  0.5913  0.2780
  369MOL0     C49723   3.172   7.019   2.841 -0.4391  0.1837 -0.3332
  369MOL0     C49724   3.183   7.001   2.992  0.1702  0.2152 -0.9867
  369MOL0    Cl49725   3.015   6.960   3.061  0.4987  0.6418 -0.1483
  369MOL0     C49726   3.013   6.363   2.306  0.2072 -0.4767 -1.0254
  369MOL0     C49727   2.967   6.385   2.181  0.5571 -0.5797  0.1535
  369MOL0     O49728   3.123   6.477   1.820 -0.1313  0.6275 -0.6190
  369MOL0     C49729   2.785   6.494   1.761 -0.3521  0.7210  0.2629
  369MOL0     C49730   2.690   6.494   1.660  0.3339  0.8750  0.1154
  369MOL0     N49731   1.985   6.370   1.339 -0.9231 -0.0749  0.3663
  369MOL0     N49732   1.851   6.379   1.359 -0.9852 -0.1540  0.2381
  369MOL0     C49733   1.879   6.744   2.143 -0.6239 -0.1720  0.5288
  369MOL0     C49734   1.989   6.800   2.217  0.4952 -0.2313 -0.1561
  369MOL0     C49735   2.226   7.050   2.517 -0.1571 -0.5031 -0.6065
  369MOL0     C49736   2.357   7.094   2.509 -0.6064  0.1314  0.1011
  369MOL0     C49737   2.411   7.173   2.609 -0.3878  0.3501 -0.1015
  369MOL0     C49738   2.337   7.185   2.731 -1.0126  0.1278  0.0197
  369MOL0     O49739   2.372   7.259   2.842 -0.5718  0.9729 -0.7165
  369MOL0     C49740   2.400   7.395   2.836  0.2927  0.8123 -0.6071
  369MOL0     C49741   2.404   7.448   2.975 -0.8274 -0.7949 -0.2233
  369MOL0     C49742   2.532   7.431   3.051  0.3048 -0.3621 -0.2835
  369MOL0     C49743   2.535   7.499   3.198  0.0757  0.3029  0.1813
  369MOL0     C49744   2.555   7.637   3.180 -0.6397  0.6140  0.6291
  369MOL0     C49745   2.564   7.753   3.157 -0.6073  0.2247 -0.3837
  369MOL0     C49746   2.207   7.138   2.742  0.4437 -0.2801  0.2468
  369MOL0     C49747   2.155   7.069   2.635  0.3320  0.1170 -0.5445
  369MOL0     H49748   1.790   6.973   2.435  1.7129 -2.3342  1.5542
  369MOL0     H49749   1.614   6.866   2.304 -0.4362 -1.6174 -0.4230
  369MOL0     H49750   1.548   6.598   2.187  3.4006  1.9254  2.3088
  369MOL0     H49751   1.477   6.765   2.152 -0.0019 -0.2489 -1.9930
  369MOL0     H49752   1.352   6.594   2.053  0.4629 -4.0519 -1.7071
  369MOL0     H49753   1.428   6.684   1.919  2.7667  0.4225  0.3284
  369MOL0     H49754   1.588   6.454   2.016 -1.6321 -0.6029  1.8932
  369MOL0     H49755   1.426   6.402   1.977 -1.0074  1.2255  1.6709
  369MOL0     H49756   1.558   6.373   1.770  0.2455 -0.4279  0.0207
  369MOL0     H49757   1.456   6.511   1.741 -3.2511 -6.2905 -0.6420
  369MOL0     H49758   1.629   6.688   1.787  2.0297  0.2301  1.1238
  369MOL0     H49759   1.727   6.555   1.854 -2.1938 -3.7879  1.4213
  369MOL0     H49760   1.818   6.557   1.642  0.5859 -1.5653 -2.9089
  369MOL0     H49761   1.695   6.439   1.635 -0.7003 -0.3185  1.9127
  369MOL0     H49762   1.541   6.653   1.542 -0.2149 -1.2985  1.3624
  369MOL0     H49763   1.705   6.728   1.520  0.7521 -0.4101 -3.8402
  369MOL0     H49764   1.633   6.619   1.312 -2.0957 -0.7441 -0.5885
  369MOL0     H49765   1.603   6.468   1.412 -1.7895  1.2912 -3.2290
  369MOL0     H49766   1.922   6.694   1.336 -0.0004 -0.2120  2.8435
  369MOL0     H49767   2.204   6.433   1.264  1.4445  1.0647  0.7615
  369MOL0     H49768   2.150   6.596   1.216 -2.1969  0.3761  0.1616
  369MOL0     H49769   2.218   6.576   1.519 -2.4660  1.7484 -0.6959
  369MOL0     H49770   2.276   6.689   1.405  5.3678 -0.6650  1.2339
  369MOL0     H49771   2.435   6.511   1.315  0.2749  1.7503 -0.3427
  369MOL0     H49772   2.404   6.418   1.461  0.5590 -2.0981 -4.1039
  369MOL0     H49773   2.478   6.628   1.583 -4.1106 -0.6644 -0.0770
  369MOL0     H49774   2.489   6.709   1.426 -3.6722 -1.3055 -2.2413
  369MOL0     H49775   2.883   6.657   1.434  0.2177 -1.1059 -0.7706
  369MOL0     H49776   3.158   6.581   1.596  0.4425 -0.0485 -0.9144
  369MOL0     H49777   3.089   6.701   1.496 -1.8424  0.5879 -0.8580
  369MOL0     H49778   3.098   6.729   1.671 -0.8422  1.4804 -0.9602
  369MOL0     H49779   3.197   6.590   2.056 -0.7153  1.7452  1.1525
  369MOL0     H49780   3.290   6.551   2.287  1.0735  1.3519 -3.6892
  369MOL0     H49781   3.017   6.479   2.586 -0.4098  0.2638  0.2122
  369MOL0     H49782   3.027   6.305   2.581 -1.8735  0.7181  1.3583
  369MOL0     H49783   3.147   6.369   2.804 -2.7593 -0.3184 -1.8597
  369MOL0     H49784   3.262   6.312   2.687 -0.2554 -0.6567  0.8726
  369MOL0     H49785   3.325   6.547   2.659 -1.7808 -1.1583 -0.8733
  369MOL0     H49786   3.307   6.520   2.830  1.7727 -1.1853  0.5904
  369MOL0     H49787   3.112   6.671   2.654  1.0460  0.9147  0.4017
  369MOL0     H49788   3.069   6.618   2.824  0.5379 -0.8155  1.0976
  369MOL0     H49789   3.316   6.777   2.745  1.6406  2.7666  1.9209
  369MOL0     H49790   3.248   6.746   2.905 -1.6250  2.7055  0.1208
  369MOL0     H49791   3.116   6.897   2.671 -3.0121 -0.0821  0.5255
  369MOL0     H49792   3.026   6.873   2.806  0.0655 -1.9223  0.6721
  369MOL0     H49793   3.091   7.091   2.821 -1.4971  0.3521  3.7230
  369MOL0     H49794   3.272   7.049   2.808  0.2322 -0.0884  1.3658
  369MOL0     H49795   3.217   7.093   3.041  0.3987 -1.0289  1.2867
  369MOL0     H49796   3.262   6.928   3.007  0.0090  0.1806 -0.2944
  369MOL0     H49797   2.958   6.293   2.368  1.4895  0.0598  0.7747
  369MOL0     H49798   2.886   6.325   2.139  0.9093 -1.0061  0.0773
  369MOL0     H49799   2.759   6.438   1.850 -0.1280 -2.2656 -1.4041
  369MOL0     H49800   2.601   6.443   1.694  0.7033  0.1201 -0.0107
  369MOL0     H49801   1.899   6.678   2.059 -0.8256  1.3497 -0.7340
  369MOL0     H49802   2.093   6.773   2.205  0.3769  0.0984 -2.2482
  369MOL0     H49803   2.415   7.085   2.418 -1.1571  1.7375 -0.4450
  369MOL0     H49804   2.506   7.225   2.600  0.6770 -0.9036  2.8780
  369MOL0     H49805   2.502   7.406   2.797 -0.5325  0.2638 -3.0654
  369MOL0     H49806   2.329   7.454   2.777 -2.1023 -0.3968  0.9112
  369MOL0     H49807   2.324   7.395   3.028 -0.1017 -0.3917  1.3296
  369MOL0     H49808   2.395   7.556   2.964 -1.1530 -0.6953  0.8755
  369MOL0     H49809   2.611   7.483   2.996  0.7011 -1.5014 -0.8371
  369MOL0     H49810   2.552   7.324   3.066  2.5328  0.0490  0.1447
  369MOL0     H49811   2.628   7.458   3.239  0.3006  0.0064 -0.6153
  369MOL0     H49812   2.443   7.473   3.252 -0.4647 -2.2429 -1.7559
  369MOL0     H49813   2.572   7.859   3.152 -0.6268  0.3347  1.1951
  369MOL0     H49814   2.144   7.136   2.830 -0.9813  2.1436 -0.6307
  369MOL0     H49815   2.051   7.038   2.640  0.1239  1.0083  1.7471
  370MOL0     O49816   7.209   3.912   5.963  0.3260 -0.3853  0.1084
  370MOL0     C49817   7.088   3.944   5.970 -0.8061 -0.1035 -0.8008
  370MOL0     O49818   7.021   3.925   6.076  0.4931 -0.1229  0.4257
  370MOL0     C49819   7.074   3.855   6.189 -0.0454  1.3428  0.0579
  370MOL0     C49820   7.078   3.937   6.306 -0.6268 -1.2061  1.0284
  370MOL0     C49821   7.135   3.881   6.415 -1.1209 -0.3125 -0.0344
  370MOL0     C49822   7.168   3.744   6.420  0.4132 -0.3528 -0.0183
  370MOL0     O49823   7.210   3.694   6.541 -0.3157  0.1370  0.5319
  370MOL0     C49824   7.339   3.623   6.535 -1.0349 -0.2353  0.0261
  370MOL0     C49825   7.421   3.646   6.662 -0.1401  0.8079 -0.6047
  370MOL0     C49826   7.337   3.619   6.791  0.2532 -0.4508  0.5105
  370MOL0     C49827   7.413   3.647   6.918  0.8224 -0.8054 -0.3287
  370MOL0     C49828   7.466   3.790   6.938  0.0640 -0.5733  0.1930
  370MOL0     C49829   7.494   3.814   7.082  0.0307  0.0131 -0.9768
  370MOL0     C49830   7.585   3.935   7.101  0.8733  0.0273 -0.1341
  370MOL0     C49831   7.535   4.063   7.045  0.2490 -1.2070 -0.4569
  370MOL0     N49832   7.654   4.163   7.064  0.3131 -0.4117 -0.6554
  370MOL0     C49833   7.731   4.192   6.957  0.7562 -0.6248 -0.1567
  370MOL0     C49834   7.831   4.266   7.007 -0.6815  0.3880 -0.8611
  370MOL0     C49835   7.944   4.331   6.919  0.7956  0.0368 -0.1563
  370MOL0     C49836   8.024   4.220   6.856 -0.6017 -0.1179  0.6053
  370MOL0     C49837   8.108   4.138   6.958 -0.1891 -0.1615 -0.1066
  370MOL0     C49838   8.229   4.064   6.902 -1.0325  0.5788 -0.0576
  370MOL0     O49839   8.275   3.970   7.000  0.0163  0.2101  0.2458
  370MOL0     C49840   8.410   3.974   7.033  0.5040 -0.4116  0.7053
  370MOL0     C49841   8.513   4.019   6.946 -0.3482  0.2882  0.0199
  370MOL0     C49842   8.647   4.001   6.979 -0.2346  1.1245 -0.3186
  370MOL0     C49843   8.748   4.053   6.882  0.2567 -0.4355  0.1389
  370MOL0     C49844   8.681   3.944   7.102  0.7285 -1.0748  0.4226
  370MOL0     C49845   8.816   3.930   7.157 -0.8663 -0.0775 -0.1037
  370MOL0     O49846   8.830   3.819   7.235 -0.9843 -0.2725  0.4302
  370MOL0     C49847   8.952   3.762   7.241  0.5013  0.2937 -0.0031
  370MOL0     C49848   9.011   3.687   7.141  0.0287 -0.1419 -0.1026
  370MOL0     C49849   9.128   3.617   7.172 -0.4597 -0.3576  0.3585
  370MOL0     C49850   9.188   3.625   7.297 -1.1090  0.1132  0.2600
  370MOL0     O49851   9.315   3.565   7.319  0.0226  0.5083  0.1323
  370MOL0     C49852   9.432   3.593   7.240 -0.5820 -0.2682 -0.0077
  370MOL0     C49853   9.541   3.489   7.252  0.3300  0.2084  0.3596
  370MOL0     C49854   9.482   3.349   7.214 -0.0377  0.0155 -0.6833
  370MOL0     C49855   9.587   3.241   7.224 -0.2015  0.6792  0.3873
  370MOL0     C49856   9.531   3.102   7.175 -0.6426  0.4672 -0.3817
  370MOL0     C49857   9.654   3.007   7.176 -0.1037 -0.6178 -1.3573
  370MOL0     C49858   9.619   2.862   7.153  0.4449  0.3412  0.7798
  370MOL0     C49859   9.542   2.838   7.020  0.0932 -0.6297  0.2180
  370MOL0    Cl49860   9.615   2.899   6.876  0.0573  0.1301  0.2528
  370MOL0     C49861   9.127   3.698   7.397 -0.0877 -0.8969  0.0178
  370MOL0     C49862   9.001   3.766   7.367 -0.2356  0.1451 -0.3367
  370MOL0     O49863   8.908   4.009   7.138  0.0421 -0.0842 -0.5614
  370MOL0     C49864   8.578   3.908   7.188  0.5335  0.5125  0.1549
  370MOL0     C49865   8.448   3.916   7.152 -0.1207  0.4052  0.0023
  370MOL0     N49866   7.815   4.288   7.141 -0.0783  0.2219  0.5462
  370MOL0     N49867   7.710   4.227   7.173  0.2750 -0.0750 -0.5355
  370MOL0     C49868   7.150   3.664   6.304  0.3941  0.2199 -0.7381
  370MOL0     C49869   7.107   3.721   6.188  0.3799  0.2578  1.5168
  370MOL0     C49870   7.027   4.014   5.856  0.2136  1.3099 -0.5643
  370MOL0     C49871   6.896   3.982   5.819  0.0277  0.1586 -0.1800
  370MOL0     C49872   6.825   4.049   5.718 -0.3712  0.5605  0.5851
  370MOL0     C49873   6.894   4.154   5.645  0.4734  0.2776  0.0984
  370MOL0     O49874   6.819   4.219   5.556  0.7306 -0.3637 -0.0757
  370MOL0     C49875   6.796   4.359   5.571 -0.5376  0.6902 -0.8705
  370MOL0     C49876   6.785   4.409   5.717  0.2910  0.8171  0.0950
  370MOL0     C49877   6.767   4.562   5.725  1.2764  0.6883  0.4190
  370MOL0     C49878   6.705   4.605   5.848  0.5530 -0.1614  0.1183
  370MOL0     C49879   6.562   4.561   5.882 -0.8176 -0.1667  0.1188
  370MOL0     C49880   6.450   4.522   5.919  0.0470 -0.7443 -0.2986
  370MOL0     C49881   7.026   4.189   5.676  0.1847 -0.9468  0.2146
  370MOL0     C49882   7.092   4.120   5.779 -0.9488  0.2859 -0.0861
  370MOL0     H49883   7.049   4.041   6.295  3.2750 -0.2149 -1.9363
  370MOL0     H49884   7.135   3.940   6.507 -2.7518 -1.0258  0.4545
  370MOL0     H49885   7.333   3.515   6.515  2.7318 -0.1541 -2.8141
  370MOL0     H49886   7.402   3.665   6.456  1.2356  1.8871  2.7494
  370MOL0     H49887   7.510   3.583   6.651 -1.1479 -1.2124  1.8942
  370MOL0     H49888   7.457   3.750   6.665  0.2710  0.6433  0.4573
  370MOL0     H49889   7.250   3.683   6.775  2.2950  1.8443 -2.4186
  370MOL0     H49890   7.300   3.516   6.793 -0.4247 -0.2637 -0.9169
  370MOL0     H49891   7.333   3.623   6.989  1.0549  0.3364  0.3286
  370MOL0     H49892   7.490   3.569   6.923  0.3538 -1.2687 -0.2119
  370MOL0     H49893   7.556   3.811   6.880 -0.3271  0.0180 -0.2051
  370MOL0     H49894   7.392   3.865   6.911 -2.1279 -0.9823  4.3073
  370MOL0     H49895   7.399   3.826   7.133  0.2870 -2.0258  0.0665
  370MOL0     H49896   7.539   3.725   7.128 -4.5362 -0.2430  3.8893
  370MOL0     H49897   7.601   3.950   7.208  0.5947  0.2157 -0.1157
  370MOL0     H49898   7.677   3.910   7.046  1.2192  0.0121  0.4460
  370MOL0     H49899   7.439   4.093   7.089  1.0856 -0.4688  0.9027
  370MOL0     H49900   7.518   4.037   6.940  0.9833 -3.7610 -0.0134
  370MOL0     H49901   7.719   4.176   6.851  0.1579  1.3996 -0.4343
  370MOL0     H49902   7.892   4.373   6.833  1.0792 -1.7477 -1.2391
  370MOL0     H49903   8.001   4.414   6.962 -0.2736  0.1937  1.0260
  370MOL0     H49904   8.081   4.275   6.780  0.2187  0.1457  1.3976
  370MOL0     H49905   7.959   4.148   6.805 -0.6944 -0.9753  1.8880
  370MOL0     H49906   8.059   4.069   7.027  2.5667 -0.3334  1.8249
  370MOL0     H49907   8.155   4.216   7.019  1.8004 -1.5732  0.2493
  370MOL0     H49908   8.297   4.133   6.850  0.8333  0.9623  2.7054
  370MOL0     H49909   8.176   4.006   6.826 -2.5059  2.0824 -0.2537
  370MOL0     H49910   8.490   4.065   6.851  1.2438 -1.9472 -1.5368
  370MOL0     H49911   8.788   4.146   6.923 -0.5716 -0.7580  1.7452
  370MOL0     H49912   8.837   3.990   6.873  0.4225 -0.3287  0.9964
  370MOL0     H49913   8.700   4.076   6.786 -0.2344 -1.7098  0.0642
  370MOL0     H49914   8.970   3.676   7.041  1.9182  0.9631 -1.0510
  370MOL0     H49915   9.182   3.553   7.103 -1.3803  0.4923 -1.2128
  370MOL0     H49916   9.402   3.596   7.135 -2.1616  1.3034  0.4213
  370MOL0     H49917   9.485   3.688   7.250  1.6897 -1.4276 -0.3874
  370MOL0     H49918   9.616   3.519   7.179 -1.1771  0.9700 -0.9410
  370MOL0     H49919   9.585   3.478   7.352 -0.4658  2.0537  0.9567
  370MOL0     H49920   9.450   3.336   7.110 -1.5175  0.2265 -0.2685
  370MOL0     H49921   9.400   3.319   7.279 -0.6253  2.1450 -0.3550
  370MOL0     H49922   9.672   3.267   7.161 -0.0569  0.3797  0.4562
  370MOL0     H49923   9.620   3.239   7.328 -1.9859  0.4643  0.9969
  370MOL0     H49924   9.499   3.094   7.070 -0.4007 -3.4516 -0.3336
  370MOL0     H49925   9.453   3.063   7.242  0.1021 -1.4700 -0.5564
  370MOL0     H49926   9.723   3.048   7.102 -0.1026  1.9194 -0.0693
  370MOL0     H49927   9.709   3.018   7.270 -1.5588 -0.6896 -0.4610
  370MOL0     H49928   9.562   2.833   7.241 -1.7847 -0.1017 -0.7345
  370MOL0     H49929   9.715   2.811   7.142  0.6479  0.6198  1.2715
  370MOL0     H49930   9.450   2.897   7.022  0.9206  0.6895  1.4033
  370MOL0     H49931   9.523   2.731   7.010  1.2361 -0.9974  1.6639
  370MOL0     H49932   9.172   3.720   7.493  1.2290  0.5263 -0.8842
  370MOL0     H49933   8.944   3.808   7.450  0.0042 -0.1824 -0.0022
  370MOL0     H49934   8.587   3.856   7.282 -3.8882  3.2552  2.4491
  370MOL0     H49935   8.372   3.861   7.206  0.3121 -0.5838 -0.3802
  370MOL0     H49936   7.187   3.563   6.319 -1.4536 -0.0321  3.6578
  370MOL0     H49937   7.111   3.664   6.096  3.2530  3.3167 -0.5063
  370MOL0     H49938   6.862   3.894   5.872  0.9259  0.4071  0.8470
  370MOL0     H49939   6.727   4.023   5.681  0.3139  2.5835 -3.1565
  370MOL0     H49940   6.887   4.408   5.536  3.7406 -2.5539  4.2693
  370MOL0     H49941   6.703   4.395   5.525 -2.2201  0.7514  2.2722
  370MOL0     H49942   6.876   4.382   5.772  0.9994  2.2475 -0.3252
  370MOL0     H49943   6.695   4.355   5.747  0.4613  1.3613  1.7087
  370MOL0     H49944   6.707   4.594   5.639  2.9188 -2.3405 -2.1005
  370MOL0     H49945   6.856   4.626   5.717  1.1718  0.8446  0.5075
  370MOL0     H49946   6.680   4.712   5.839 -3.7885 -1.0796 -1.1442
  370MOL0     H49947   6.772   4.586   5.933  2.3294  2.4274 -0.5640
  370MOL0     H49948   6.357   4.480   5.951 -1.5061  2.1600 -0.6086
  370MOL0     H49949   7.073   4.278   5.635  1.8227 -1.4848  0.8329
  370MOL0     H49950   7.193   4.155   5.795 -1.2295  2.7145 -2.7278
  371MOL0     O49951   5.548   1.500   9.571 -0.9810  0.8939 -0.1900
  371MOL0     C49952   5.549   1.377   9.597  0.0639 -0.7675 -0.2885
  371MOL0     O49953   5.550   1.328   9.723  0.5936 -0.3295 -0.3894
  371MOL0     C49954   5.587   1.415   9.830  0.1281 -0.3486  0.4806
  371MOL0     C49955   5.693   1.500   9.814 -0.5611 -0.0649  0.0404
  371MOL0     C49956   5.729   1.587   9.918  0.2808  0.0819 -0.0611
  371MOL0     C49957   5.669   1.575  10.041  1.7444 -0.1081  0.0034
  371MOL0     O49958   5.716   1.667  10.138  0.3291  0.5686 -1.0407
  371MOL0     C49959   5.616   1.704  10.239  0.4862  0.3379 -0.3456
  371MOL0     C49960   5.672   1.797  10.347  0.1047 -0.8007  0.0825
  371MOL0     C49961   5.798   1.740  10.403  1.1118 -0.0728  0.9654
  371MOL0     C49962   5.803   1.595  10.433 -1.0610  1.1027  0.9002
  371MOL0     C49963   5.926   1.565  10.516 -0.2992 -0.1026 -0.4247
  371MOL0     C49964   5.927   1.420  10.576 -0.4418  0.5842 -0.4407
  371MOL0     C49965   5.818   1.423  10.697  0.0647  0.1799 -0.2514
  371MOL0     C49966   5.808   1.287  10.765  0.0129 -0.0173 -0.1368
  371MOL0     N49967   5.731   1.303  10.891  0.3733  0.0202  1.1397
  371MOL0     C49968   5.753   1.389  10.992  0.0623 -0.1646 -0.1287
  371MOL0     C49969   5.671   1.344  11.084 -1.0552 -0.6276  0.0298
  371MOL0     C49970   5.666   1.388  11.227  0.1721 -0.2681 -0.3455
  371MOL0     C49971   5.786   1.346  11.303 -0.0106 -0.2312 -0.8073
  371MOL0     C49972   5.812   1.194  11.317 -1.3495 -0.3818  0.5319
  371MOL0     C49973   5.923   1.148  11.403 -0.2405 -0.5069 -0.2210
  371MOL0     O49974   5.941   1.238  11.518  0.1864 -0.1597  0.7743
  371MOL0     C49975   6.020   1.201  11.616 -0.0838  0.2309 -1.5467
  371MOL0     C49976   6.096   1.083  11.619  0.4059 -0.0263 -0.4306
  371MOL0     C49977   6.196   1.053  11.714  0.7103  0.6700 -0.6471
  371MOL0     C49978   6.271   0.920  11.706  0.4404  0.4701 -0.4865
  371MOL0     C49979   6.218   1.147  11.819 -0.4709 -0.7667 -0.0812
  371MOL0     C49980   6.327   1.123  11.933  0.1837  0.1802 -0.1329
  371MOL0     O49981   6.314   1.202  12.046 -0.0645  0.2872  0.3228
  371MOL0     C49982   6.400   1.187  12.152 -0.8224 -0.4982  0.7766
  371MOL0     C49983   6.361   1.099  12.249 -0.7231 -0.7955  0.6422
  371MOL0     C49984   6.447   1.074  12.360 -0.7053  0.2013  0.3825
  371MOL0     C49985   6.564   1.147  12.371 -0.1773  0.0269 -0.1544
  371MOL0     O49986   6.642   1.131  12.489  0.0763 -1.0904  0.4802
  371MOL0     C49987   6.653   1.009  12.561 -0.3006 -0.1659 -0.7321
  371MOL0     C49988   6.782   1.026  12.649 -0.2644 -0.6834  0.9985
  371MOL0     C49989   6.796   0.905  12.745  0.5937 -0.3247  0.6158
  371MOL0     C49990   6.938   0.840  12.758 -0.4727 -0.1518  0.0283
  371MOL0     C49991   7.024   0.909  12.862 -0.1295 -1.0124  0.4462
  371MOL0     C49992   7.062   1.052  12.820  0.3604  0.5163 -0.3140
  371MOL0     C49993   7.169   1.118  12.923  0.7340  0.2717  0.3703
  371MOL0     C49994   7.225   1.245  12.868  0.0993  0.3271 -0.1162
  371MOL0    Cl49995   7.317   1.309  13.009  0.9080  0.1567  0.7912
  371MOL0     C49996   6.601   1.236  12.270 -0.4015 -0.3914  0.2515
  371MOL0     C49997   6.518   1.249  12.159 -0.6235 -0.1983  0.7637
  371MOL0     O49998   6.419   1.041  11.922 -0.0833  0.2708  0.0350
  371MOL0     C49999   6.147   1.268  11.821 -1.0495  0.1529 -0.2259
  371MOL0     C50000   6.046   1.299  11.716 -0.5570  0.2962 -0.9683
  371MOL0     N50001   5.590   1.242  11.038  0.0068 -0.3827  0.8370
  371MOL0     N50002   5.636   1.211  10.921 -0.3068 -0.7940 -0.4877
  371MOL0     C50003   5.563   1.478  10.057 -0.3793 -1.2013 -0.2949
  371MOL0     C50004   5.528   1.400   9.954 -0.2372  0.3134  0.3049
  371MOL0     C50005   5.520   1.286   9.483  0.4777 -0.6573 -0.2324
  371MOL0     C50006   5.503   1.336   9.350 -0.2752  0.0196  0.9069
  371MOL0     C50007   5.475   1.248   9.244  0.5538  0.9498 -0.6149
  371MOL0     C50008   5.445   1.107   9.269  0.5703 -0.3177  0.0357
  371MOL0     O50009   5.407   1.023   9.173  0.4772 -0.2140  0.1699
  371MOL0     C50010   5.392   1.058   9.031 -0.0101 -0.9040  0.1446
  371MOL0     C50011   5.249   1.128   9.023 -0.1760 -0.1026  0.6794
  371MOL0     C50012   5.139   1.034   9.073 -0.4151 -0.0508 -0.3329
  371MOL0     C50013   5.009   1.120   9.096  0.2219  1.5128 -0.4198
  371MOL0     C50014   4.923   1.044   9.193  0.3142  0.0447 -0.5104
  371MOL0     C50015   4.861   0.979   9.270 -0.0974  0.6435 -0.2437
  371MOL0     C50016   5.474   1.064   9.396  0.2365 -0.2472 -0.1946
  371MOL0     C50017   5.509   1.149   9.505  0.2549  0.1156  0.1388
  371MOL0     H50018   5.759   1.509   9.728  1.3691 -1.3771  1.3119
  371MOL0     H50019   5.798   1.667   9.893 -2.8311  2.9187 -0.2085
  371MOL0     H50020   5.541   1.759  10.181  0.3906 -1.6085 -2.1891
  371MOL0     H50021   5.574   1.611  10.279  0.8150  0.1662 -0.3953
  371MOL0     H50022   5.696   1.894  10.304  0.5031  1.1224  4.1745
  371MOL0     H50023   5.608   1.825  10.431  1.8098  2.6348  0.3953
  371MOL0     H50024   5.872   1.762  10.325 -1.5701  3.9646 -0.7702
  371MOL0     H50025   5.818   1.796  10.495 -0.4081  0.1045  1.2110
  371MOL0     H50026   5.710   1.555  10.476 -1.1516  0.0474 -0.2359
  371MOL0     H50027   5.818   1.540  10.340 -0.3582  0.2285  1.5125
  371MOL0     H50028   6.018   1.567  10.458  1.0551 -1.8156  1.4823
  371MOL0     H50029   5.931   1.627  10.606 -0.8538 -2.0235  1.0128
  371MOL0     H50030   5.904   1.352  10.494 -0.0332 -1.0359  0.7365
  371MOL0     H50031   6.022   1.380  10.612  0.1194 -1.7012 -4.0513
  371MOL0     H50032   5.856   1.493  10.772  0.0135 -0.4237  0.3412
  371MOL0     H50033   5.719   1.438  10.653  0.6552 -2.9349 -3.0443
  371MOL0     H50034   5.907   1.253  10.794 -1.0023 -4.3076 -1.0835
  371MOL0     H50035   5.761   1.216  10.696  2.5409  1.6196 -3.8781
  371MOL0     H50036   5.827   1.467  11.004  3.2696 -3.2761  2.5376
  371MOL0     H50037   5.651   1.496  11.236 -0.4151 -0.4171  0.5539
  371MOL0     H50038   5.575   1.346  11.271 -2.0407  2.2432 -2.1593
  371MOL0     H50039   5.763   1.377  11.406 -0.1856  0.2015 -0.9780
  371MOL0     H50040   5.873   1.404  11.272  1.4894 -1.8189  0.2121
  371MOL0     H50041   5.819   1.145  11.220  0.8128  3.1893 -1.3397
  371MOL0     H50042   5.719   1.145  11.344 -0.3426 -2.5959  0.1601
  371MOL0     H50043   6.006   1.146  11.332 -0.3499 -2.6855 -0.3697
  371MOL0     H50044   5.894   1.049  11.440 -1.5571 -0.9201 -2.2174
  371MOL0     H50045   6.079   1.011  11.539 -0.4592 -3.1314  2.3511
  371MOL0     H50046   6.279   0.861  11.798  1.6846 -0.8460 -1.3896
  371MOL0     H50047   6.230   0.851  11.632  1.3593 -1.8298  1.0201
  371MOL0     H50048   6.374   0.944  11.679 -0.0080  3.4338  0.1214
  371MOL0     H50049   6.265   1.050  12.253 -1.7731  1.1932  1.1462
  371MOL0     H50050   6.420   1.018  12.449 -1.9495  1.9628  1.1694
  371MOL0     H50051   6.567   0.984  12.625  1.3586 -2.3216  0.8512
  371MOL0     H50052   6.668   0.923  12.495  1.6067  0.4134 -1.0938
  371MOL0     H50053   6.871   1.035  12.585  0.4769 -2.2888  1.7506
  371MOL0     H50054   6.777   1.114  12.714  0.7606 -0.7168  1.1393
  371MOL0     H50055   6.730   0.823  12.715 -0.3542  0.4822  0.4630
  371MOL0     H50056   6.758   0.929  12.845 -1.3630 -2.0480  0.3503
  371MOL0     H50057   6.927   0.736  12.788 -0.4152  0.2554  1.5593
  371MOL0     H50058   6.983   0.842  12.658  0.0024  2.9748  0.2063
  371MOL0     H50059   7.114   0.851  12.881  0.3942 -0.2104  0.4463
  371MOL0     H50060   6.975   0.927  12.959 -1.6623 -1.4253 -0.2179
  371MOL0     H50061   7.096   1.054  12.716 -1.2128 -3.9108 -1.1270
  371MOL0     H50062   6.970   1.109  12.834 -0.3420 -0.7940  0.6138
  371MOL0     H50063   7.249   1.044  12.933  0.6657 -0.5506 -3.5592
  371MOL0     H50064   7.115   1.152  13.012  2.7888 -0.3408  1.9134
  371MOL0     H50065   7.139   1.310  12.851  0.8223  1.5664  0.8546
  371MOL0     H50066   7.284   1.232  12.777  1.5712 -2.9045  1.1296
  371MOL0     H50067   6.699   1.282  12.268 -1.2718  1.5653 -2.0207
  371MOL0     H50068   6.566   1.305  12.079 -1.3737 -0.1114  0.3663
  371MOL0     H50069   6.187   1.340  11.892  3.1796 -0.4071 -1.7907
  371MOL0     H50070   6.004   1.396  11.694 -0.8480  0.3589 -0.1654
  371MOL0     H50071   5.512   1.473  10.152  1.5169  3.2490  1.2157
  371MOL0     H50072   5.448   1.329   9.973  1.1911 -1.0527  1.4443
  371MOL0     H50073   5.526   1.439   9.328  2.3945 -1.0223 -1.9302
  371MOL0     H50074   5.474   1.279   9.140  0.1152 -0.9642 -1.2273
  371MOL0     H50075   5.473   1.128   9.007 -0.4929  0.6038  2.5117
  371MOL0     H50076   5.391   0.965   8.973 -1.9049 -1.9021  1.6642
  371MOL0     H50077   5.240   1.144   8.916  1.4797  0.3260  0.5794
  371MOL0     H50078   5.225   1.224   9.069 -2.8481 -0.6983  0.7245
  371MOL0     H50079   5.159   0.983   9.167 -1.4926 -2.5884 -1.3791
  371MOL0     H50080   5.122   0.940   9.019  1.5123 -1.4526  1.3330
  371MOL0     H50081   4.956   1.131   9.001 -0.1582 -1.7251 -0.7080
  371MOL0     H50082   5.035   1.216   9.142 -1.0225  1.0815  1.2827
  371MOL0     H50083   4.802   0.933   9.347 -1.0516 -1.0683 -1.9072
  371MOL0     H50084   5.453   0.962   9.426  0.5584 -0.0998  0.5400
  371MOL0     H50085   5.523   1.108   9.604  1.2013  0.3123  0.0951
  372MOL0     O50086   0.977  10.886   8.816 -1.0592 -0.4828  0.3270
  372MOL0     C50087   0.911  10.943   8.905  0.6392 -0.3722  0.2116
  372MOL0     O50088   0.846  11.060   8.881 -0.5286  0.1035 -0.4628
  372MOL0     C50089   0.833  11.113   8.754  0.4404  0.4291 -0.8303
  372MOL0     C50090   0.817  11.043   8.635 -0.6868  0.9747  0.0528
  372MOL0     C50091   0.834  11.103   8.505 -0.2167  0.6875 -0.3371
  372MOL0     C50092   0.823  11.242   8.498 -0.3287 -0.7277 -0.2231
  372MOL0     O50093   0.816  11.289   8.374  0.0206  0.4141  0.5317
  372MOL0     C50094   0.937  11.363   8.332 -0.6000  0.1560 -0.9810
  372MOL0     C50095   0.912  11.406   8.191  0.0512 -0.6217  0.7726
  372MOL0     C50096   1.004  11.526   8.154  1.3310  0.9445  0.0786
  372MOL0     C50097   1.011  11.540   8.002  0.0858 -0.6010  0.3774
  372MOL0     C50098   1.082  11.673   7.956  0.0735 -0.1284 -1.1199
  372MOL0     C50099   1.234  11.677   7.987  0.0471  0.2459 -0.1423
  372MOL0     C50100   1.288  11.790   7.897 -0.0524 -0.3721 -0.9075
  372MOL0     C50101   1.233  11.923   7.941 -0.0796  0.4501  0.5469
  372MOL0     N50102   1.226  11.952   8.078 -0.2913 -0.1717  0.8601
  372MOL0     C50103   1.336  11.952   8.156 -0.1424 -1.2756  0.3131
  372MOL0     C50104   1.283  11.981   8.273  1.0785 -0.3585  0.1161
  372MOL0     C50105   1.367  11.968   8.392 -1.2909 -0.2584 -0.2640
  372MOL0     C50106   1.399  11.816   8.407 -0.1765 -0.2719 -0.1891
  372MOL0     C50107   1.509  11.788   8.510 -0.8747 -0.3039 -0.3967
  372MOL0     C50108   1.538  11.646   8.517  1.0561 -1.0640  0.4972
  372MOL0     O50109   1.643  11.610   8.609 -0.7836 -0.2205  0.1038
  372MOL0     C50110   1.681  11.478   8.617  0.4740 -0.7225 -0.7322
  372MOL0     C50111   1.620  11.372   8.550 -0.3132  0.2016  0.2976
  372MOL0     C50112   1.652  11.241   8.584 -0.0836  0.1534  0.2836
  372MOL0     C50113   1.569  11.134   8.520  0.5517 -0.1203 -0.6821
  372MOL0     C50114   1.751  11.216   8.684  0.4501  0.2615  0.8021
  372MOL0     C50115   1.797  11.079   8.724 -0.1134 -0.0644  0.4455
  372MOL0     O50116   1.861  11.079   8.836  0.5097  0.1652 -0.2688
  372MOL0     C50117   1.890  10.953   8.889 -0.5127  0.5029  0.5296
  372MOL0     C50118   1.790  10.912   8.974  0.1118 -0.1871  0.2660
  372MOL0     C50119   1.808  10.793   9.053 -0.9030 -0.2808  0.0211
  372MOL0     C50120   1.906  10.699   9.012 -0.5981  1.0477  0.1115
  372MOL0     O50121   1.926  10.583   9.083 -0.1249 -0.0950  0.1317
  372MOL0     C50122   1.894  10.468   9.004  0.1808 -0.0266  0.1910
  372MOL0     C50123   1.819  10.359   9.097 -0.7656  0.4878 -0.3832
  372MOL0     C50124   1.905  10.296   9.202 -0.5783 -0.8510 -0.3525
  372MOL0     C50125   1.900  10.372   9.336  1.1042  0.7437 -0.0117
  372MOL0     C50126   2.018  10.343   9.421 -0.1784  0.7969 -1.0990
  372MOL0     C50127   2.013  10.394   9.567  0.3546  0.7092 -0.0948
  372MOL0     C50128   2.020  10.552   9.583 -0.1719 -0.0109 -0.2506
  372MOL0     C50129   2.038  10.609   9.719  0.9457  0.3899 -0.5710
  372MOL0    Cl50130   2.209  10.655   9.742  0.4891 -0.4417  0.2656
  372MOL0     C50131   2.010  10.738   8.912  0.3687  0.8514 -0.2357
  372MOL0     C50132   1.993  10.861   8.837  0.3073  0.9172 -0.8060
  372MOL0     O50133   1.761  10.976   8.656 -0.1362  0.7721 -0.8081
  372MOL0     C50134   1.804  11.322   8.748 -0.5349 -0.5156  0.6579
  372MOL0     C50135   1.780  11.450   8.707  0.0897 -0.5065 -0.4651
  372MOL0     N50136   1.140  11.979   8.272 -0.3120  0.0147  0.4457
  372MOL0     N50137   1.106  11.953   8.151  0.3872  0.2560 -0.1147
  372MOL0     C50138   0.823  11.323   8.614 -0.1483 -0.0786 -0.2221
  372MOL0     C50139   0.839  11.253   8.741  0.2644 -0.7920  0.1253
  372MOL0     C50140   0.923  10.907   9.046  0.2977  0.2129  0.2047
  372MOL0     C50141   1.019  10.809   9.074 -1.0255  1.3713  0.4162
  372MOL0     C50142   1.047  10.769   9.204 -0.6786  0.3025  0.0395
  372MOL0     C50143   0.987  10.833   9.313  0.3459 -0.3430 -0.0454
  372MOL0     O50144   1.022  10.817   9.446  0.0169  0.1527  0.4610
  372MOL0     C50145   1.082  10.703   9.501 -0.5719  0.1531 -0.7481
  372MOL0     C50146   1.230  10.712   9.530 -0.4142 -0.3923 -0.5895
  372MOL0     C50147   1.277  10.581   9.594  0.8078  0.3252 -0.0485
  372MOL0     C50148   1.424  10.568   9.626 -0.6221 -0.6328 -0.3252
  372MOL0     C50149   1.524  10.575   9.514  0.0765 -1.1578  0.2717
  372MOL0     C50150   1.607  10.590   9.431 -0.1167 -0.8449  0.3120
  372MOL0     C50151   0.895  10.930   9.290 -0.2249  0.4775  0.4292
  372MOL0     C50152   0.865  10.963   9.154  1.2274  0.4571  0.7927
  372MOL0     H50153   0.802  10.936   8.646 -0.7418  0.9937  0.1663
  372MOL0     H50154   0.831  11.042   8.416 -2.8164 -1.7808  1.2842
  372MOL0     H50155   0.952  11.448   8.399  2.4396 -0.0311 -1.3227
  372MOL0     H50156   1.023  11.296   8.328 -1.4389 -1.3168  2.2207
  372MOL0     H50157   0.910  11.315   8.130  0.3129  0.8157 -1.4984
  372MOL0     H50158   0.811  11.446   8.193 -0.3921 -1.7191  1.0994
  372MOL0     H50159   0.965  11.619   8.197 -0.0875  0.1619  0.5716
  372MOL0     H50160   1.097  11.491   8.199  1.0176  1.5554  1.2665
  372MOL0     H50161   1.061  11.451   7.966  2.0741  1.1121 -1.3510
  372MOL0     H50162   0.907  11.537   7.970  0.6825  2.3265 -2.2933
  372MOL0     H50163   1.064  11.685   7.848 -4.3503 -0.6312 -0.6170
  372MOL0     H50164   1.027  11.755   8.002 -0.2206 -0.3832 -1.0223
  372MOL0     H50165   1.251  11.669   8.095 -0.8857 -1.4477 -0.0894
  372MOL0     H50166   1.283  11.588   7.946  0.9859  0.0941  1.2415
  372MOL0     H50167   1.393  11.786   7.927 -0.5799 -0.8357  1.0081
  372MOL0     H50168   1.254  11.778   7.794 -0.8872  0.9176 -0.8049
  372MOL0     H50169   1.133  11.937   7.900 -0.6692 -1.1171  1.4105
  372MOL0     H50170   1.288  12.005   7.893  1.6070 -1.6030 -1.2685
  372MOL0     H50171   1.437  11.936   8.120 -1.4922  0.2382 -5.0371
  372MOL0     H50172   1.456  12.031   8.392 -0.1459 -1.8187  0.5959
  372MOL0     H50173   1.312  11.997   8.482  1.0337  1.6060  0.6449
  372MOL0     H50174   1.432  11.782   8.309 -2.6125  1.1909 -1.6265
  372MOL0     H50175   1.311  11.758   8.436 -0.3947  0.2321  0.1757
  372MOL0     H50176   1.478  11.808   8.613  1.0907 -0.3834  0.2424
  372MOL0     H50177   1.605  11.831   8.482 -1.9062  0.7573 -2.5867
  372MOL0     H50178   1.561  11.610   8.416 -2.9197 -2.5651 -0.0680
  372MOL0     H50179   1.450  11.587   8.542 -0.6637  0.6946 -1.0228
  372MOL0     H50180   1.551  11.393   8.468 -0.5154 -3.9216 -0.8116
  372MOL0     H50181   1.513  11.082   8.598 -0.7160 -0.2894 -1.6619
  372MOL0     H50182   1.494  11.177   8.452  2.2218  1.0136 -1.8715
  372MOL0     H50183   1.634  11.072   8.458  0.1880  0.3313 -1.5280
  372MOL0     H50184   1.707  10.976   9.001  0.9390  0.2630  1.8901
  372MOL0     H50185   1.736  10.785   9.134 -1.4321  0.2577 -0.3794
  372MOL0     H50186   1.832  10.493   8.918  0.7763  0.8630  0.0098
  372MOL0     H50187   1.988  10.419   8.979  0.1520 -0.5046  0.9868
  372MOL0     H50188   1.742  10.421   9.144  1.0081  2.4152  0.1521
  372MOL0     H50189   1.774  10.274   9.045 -0.8415 -1.4528  2.6366
  372MOL0     H50190   2.005  10.293   9.157 -0.0318 -0.1943  0.7933
  372MOL0     H50191   1.875  10.192   9.222 -1.1556 -0.8252 -1.0294
  372MOL0     H50192   1.889  10.479   9.317  1.0601  0.5173 -1.3499
  372MOL0     H50193   1.813  10.345   9.396  1.0649  2.4312  0.7509
  372MOL0     H50194   2.115  10.382   9.387  0.2898  0.3224 -0.3456
  372MOL0     H50195   2.031  10.237   9.441 -3.0268  0.9984  3.1679
  372MOL0     H50196   1.922  10.355   9.612  0.8446  0.0907  0.3776
  372MOL0     H50197   2.104  10.355   9.613 -0.6448 -2.2118 -0.3693
  372MOL0     H50198   1.926  10.593   9.546  0.8934  2.8722 -0.0378
  372MOL0     H50199   2.098  10.585   9.514 -0.2522 -1.1512 -0.9055
  372MOL0     H50200   1.999  10.544   9.798 -0.1882 -1.3195 -2.4035
  372MOL0     H50201   1.978  10.701   9.714 -0.3746 -0.1863  2.3537
  372MOL0     H50202   2.092  10.670   8.889 -1.7679 -1.7522 -0.6917
  372MOL0     H50203   2.058  10.891   8.756 -1.5848  1.7531 -2.0746
  372MOL0     H50204   1.881  11.311   8.824 -0.9742 -2.3390  0.8885
  372MOL0     H50205   1.831  11.526   8.765  1.6071 -1.1730 -0.8703
  372MOL0     H50206   0.829  11.431   8.603  1.6209 -0.2133 -1.0216
  372MOL0     H50207   0.846  11.313   8.831  0.0500 -2.0369  0.9909
  372MOL0     H50208   1.063  10.758   8.989  2.4439  4.3783  0.2001
  372MOL0     H50209   1.128  10.700   9.224 -1.3273  0.4081  3.5458
  372MOL0     H50210   1.035  10.689   9.599  3.0156 -1.1313  0.9900
  372MOL0     H50211   1.068  10.624   9.427  1.7293 -0.2243 -0.8646
  372MOL0     H50212   1.258  10.805   9.580  2.3507 -1.0969 -0.6407
  372MOL0     H50213   1.268  10.724   9.428 -2.1937  3.8302 -0.9784
  372MOL0     H50214   1.243  10.503   9.525 -2.0545 -0.9190  2.5160
  372MOL0     H50215   1.222  10.571   9.688 -0.8838 -0.5211 -1.0913
  372MOL0     H50216   1.438  10.467   9.665  3.6556  0.1609  0.6679
  372MOL0     H50217   1.458  10.638   9.703 -0.0456 -2.5169  1.2032
  372MOL0     H50218   1.663  10.614   9.343 -0.7819 -0.1321  0.0734
  372MOL0     H50219   0.856  10.989   9.373 -1.9709 -2.2939  1.7634
  372MOL0     H50220   0.794  11.042   9.128 -0.3692 -1.3985 -0.8928
  373MOL0     O50221   6.812  10.826   9.950 -0.2340  0.6932  0.7096
  373MOL0     C50222   6.724  10.786  10.028 -0.0344 -0.1465  0.7122
  373MOL0     O50223   6.587  10.775   9.997  1.0606  0.8709  0.0931
  373MOL0     C50224   6.550  10.785   9.859  0.6057  0.4558 -0.9997
  373MOL0     C50225   6.596  10.700   9.760 -1.0179 -0.5366  0.0624
  373MOL0     C50226   6.571  10.729   9.624  0.3500  0.1068 -0.2730
  373MOL0     C50227   6.481  10.836   9.597 -0.6406  0.1800  1.0046
  373MOL0     O50228   6.467  10.873   9.459 -0.4339 -0.3147 -0.6422
  373MOL0     C50229   6.368  10.975   9.425  0.6770  1.2624 -0.4249
  373MOL0     C50230   6.356  10.965   9.270  0.2657  0.0504  0.0035
  373MOL0     C50231   6.315  11.109   9.227  0.4926 -0.5390 -0.1561
  373MOL0     C50232   6.445  11.204   9.243  0.2231  0.3623 -0.6002
  373MOL0     C50233   6.419  11.349   9.186 -0.5650  0.6598  0.0572
  373MOL0     C50234   6.550  11.435   9.199  0.5221  0.5012  1.0926
  373MOL0     C50235   6.532  11.584   9.169 -1.0257 -0.7974 -0.0607
  373MOL0     C50236   6.599  11.669   9.277  0.0879  1.0136 -0.1692
  373MOL0     N50237   6.507  11.684   9.389  0.4053 -0.9093  0.1137
  373MOL0     C50238   6.551  11.670   9.519  0.0070  0.4758 -0.2812
  373MOL0     C50239   6.442  11.685   9.604 -0.8731 -0.5782 -0.1445
  373MOL0     C50240   6.439  11.659   9.759  0.0239  0.0698 -0.0337
  373MOL0     C50241   6.529  11.751   9.845  0.2268  0.0315  0.2716
  373MOL0     C50242   6.468  11.888   9.864 -0.1941 -0.3755 -0.7560
  373MOL0     C50243   6.576  11.987   9.920 -0.2801 -0.3644  0.6718
  373MOL0     O50244   6.613  11.954  10.061 -0.0042  0.6854 -0.1218
  373MOL0     C50245   6.640  12.039  10.151 -0.9413 -0.5540  0.1310
  373MOL0     C50246   6.693  12.170  10.141 -0.3848 -0.3526 -0.4313
  373MOL0     C50247   6.704  12.260  10.246  0.3664 -0.5518 -0.5193
  373MOL0     C50248   6.744  12.409  10.222 -0.0823  0.2063  0.4106
  373MOL0     C50249   6.668  12.216  10.379  0.8114 -0.5345  0.5559
  373MOL0     C50250   6.678  12.288  10.504  0.0472  0.3799 -0.1207
  373MOL0     O50251   6.649  12.222  10.615 -0.0059  0.8816 -0.0247
  373MOL0     C50252   6.644  12.267  10.747  1.2928 -0.6009 -0.1264
  373MOL0     C50253   6.611  12.165  10.841  0.0347 -0.4267 -1.5588
  373MOL0     C50254   6.604  12.204  10.974 -0.5196  1.1503  0.0684
  373MOL0     C50255   6.622  12.328  11.019 -0.5041 -0.1630 -0.3844
  373MOL0     O50256   6.600  12.360  11.145 -0.3645  0.6090  0.2372
  373MOL0     C50257   6.599  12.491  11.200 -0.6225 -0.2881 -0.6207
  373MOL0     C50258   6.541  12.472  11.347 -0.4324  0.8715 -0.0710
  373MOL0     C50259   6.629  12.392  11.446  0.1525 -0.7874  0.6129
  373MOL0     C50260   6.774  12.442  11.461 -0.0689 -1.1131 -0.8163
  373MOL0     C50261   6.852  12.335  11.530 -0.0167 -0.2060  0.2149
  373MOL0     C50262   6.997  12.376  11.560 -0.5017 -0.2231  0.1832
  373MOL0     C50263   7.080  12.276  11.634 -0.0498 -0.4328 -0.0736
  373MOL0     C50264   7.117  12.161  11.553 -1.3049  0.7050  0.8242
  373MOL0    Cl50265   7.273  12.087  11.611  0.0188 -0.0024 -0.1665
  373MOL0     C50266   6.664  12.428  10.928  0.2198  0.1587  0.1533
  373MOL0     C50267   6.674  12.400  10.793 -0.3811  0.6823  0.4298
  373MOL0     O50268   6.728  12.395  10.507  0.7193 -0.0415  0.1656
  373MOL0     C50269   6.630  12.081  10.390 -0.9840  0.3943 -0.0447
  373MOL0     C50270   6.615  12.002  10.278  0.0115  0.1454 -0.0528
  373MOL0     N50271   6.341  11.737   9.526  0.2133  0.5254 -0.2616
  373MOL0     N50272   6.381  11.734   9.400 -0.7950  0.2392  0.4226
  373MOL0     C50273   6.416  10.909   9.698  0.6495 -0.3950  0.0242
  373MOL0     C50274   6.444  10.874   9.834  1.3202  0.3158  0.5683
  373MOL0     C50275   6.777  10.768  10.166 -0.7019  0.4221  0.4076
  373MOL0     C50276   6.688  10.707  10.264  0.8097 -1.6122  0.5637
  373MOL0     C50277   6.727  10.688  10.394  0.2322  0.6283 -0.0502
  373MOL0     C50278   6.860  10.709  10.433 -0.7762  0.3136 -0.2275
  373MOL0     O50279   6.919  10.681  10.549  0.2302 -0.1483  0.4894
  373MOL0     C50280   6.846  10.607  10.648  0.2912  0.4350 -0.4188
  373MOL0     C50281   6.939  10.563  10.767 -0.2720 -0.6023 -0.0613
  373MOL0     C50282   7.014  10.695  10.797 -0.7375  1.1774  0.6192
  373MOL0     C50283   7.081  10.680  10.936  0.5239 -0.9085  0.2225
  373MOL0     C50284   6.970  10.669  11.043 -0.2858 -0.5833  0.1617
  373MOL0     C50285   6.885  10.674  11.124  0.0021  0.9179 -0.3669
  373MOL0     C50286   6.950  10.758  10.336  0.0145  0.2772 -0.1397
  373MOL0     C50287   6.913  10.793  10.207 -0.3106  0.2732  1.1596
  373MOL0     H50288   6.681  10.634   9.777  0.1770  1.2476  1.5184
  373MOL0     H50289   6.622  10.681   9.542 -3.0307  0.9656 -3.0943
  373MOL0     H50290   6.274  10.937   9.464  1.5671 -2.0757 -1.2231
  373MOL0     H50291   6.392  11.068   9.478 -0.8114  1.6746 -0.4192
  373MOL0     H50292   6.445  10.936   9.215 -0.5996  0.1704 -1.5127
  373MOL0     H50293   6.280  10.892   9.238  3.1656 -2.8455 -0.7631
  373MOL0     H50294   6.281  11.111   9.122  0.7105  1.0118 -0.2098
  373MOL0     H50295   6.231  11.145   9.287  1.5043 -1.1196  1.6679
  373MOL0     H50296   6.481  11.216   9.345  3.1730  1.6687 -1.6901
  373MOL0     H50297   6.529  11.157   9.192  0.5329  0.7095 -0.4112
  373MOL0     H50298   6.391  11.339   9.081 -1.3697 -1.2581  0.4026
  373MOL0     H50299   6.338  11.404   9.234 -1.2189  0.0904 -0.3761
  373MOL0     H50300   6.585  11.426   9.302  1.3191  0.1929  0.8046
  373MOL0     H50301   6.623  11.401   9.125 -1.1804  2.1847 -1.5527
  373MOL0     H50302   6.583  11.602   9.074 -0.6964  1.7041  0.5368
  373MOL0     H50303   6.428  11.619   9.167 -0.6981  0.2145 -2.3081
  373MOL0     H50304   6.621  11.765   9.231  2.8690  0.0793 -1.0141
  373MOL0     H50305   6.695  11.624   9.305  0.5328  1.8973 -0.2448
  373MOL0     H50306   6.646  11.639   9.562 -0.0798  0.5158 -0.0598
  373MOL0     H50307   6.337  11.666   9.800  1.3467  2.4182  3.3303
  373MOL0     H50308   6.472  11.556   9.773  1.2644  0.5384  0.6575
  373MOL0     H50309   6.630  11.764   9.807 -0.2965  1.3696 -0.7273
  373MOL0     H50310   6.533  11.691   9.936 -1.2159 -1.9375 -0.8564
  373MOL0     H50311   6.377  11.886   9.926  2.2254  0.2739  3.1958
  373MOL0     H50312   6.436  11.920   9.765 -0.3690  1.2839 -0.1909
  373MOL0     H50313   6.525  12.083   9.911  1.7940  0.7129 -0.2967
  373MOL0     H50314   6.667  11.986   9.860 -0.1731  1.0554  0.7685
  373MOL0     H50315   6.717  12.211  10.044 -0.8525  0.3746 -0.2431
  373MOL0     H50316   6.674  12.473  10.277 -0.2412 -0.5227  1.0745
  373MOL0     H50317   6.841  12.431  10.267 -0.5807  1.2621  1.0042
  373MOL0     H50318   6.736  12.437  10.116  3.1456  1.6348  0.4555
  373MOL0     H50319   6.599  12.063  10.806  2.3744 -1.9363  1.5656
  373MOL0     H50320   6.584  12.137  11.056  0.7548  2.1117  1.2353
  373MOL0     H50321   6.702  12.527  11.208 -0.5015 -0.8110  0.3730
  373MOL0     H50322   6.534  12.564  11.151 -0.3937 -1.2823 -2.4591
  373MOL0     H50323   6.542  12.575  11.384  3.2603  1.0665 -0.3249
  373MOL0     H50324   6.442  12.427  11.341 -0.4660  1.0871 -1.8858
  373MOL0     H50325   6.636  12.289  11.408 -1.9547 -0.1885 -1.6390
  373MOL0     H50326   6.579  12.390  11.543  0.4585  0.8796  0.8343
  373MOL0     H50327   6.817  12.458  11.361 -1.4623 -0.8391 -1.4034
  373MOL0     H50328   6.766  12.533  11.520 -2.5736 -0.9067 -1.3570
  373MOL0     H50329   6.836  12.246  11.469 -3.6134  0.0076  0.5914
  373MOL0     H50330   6.812  12.296  11.624 -3.1942 -1.0350 -1.3322
  373MOL0     H50331   7.052  12.399  11.468  1.1520 -0.9065  0.9519
  373MOL0     H50332   7.000  12.469  11.618  1.2069 -0.4869  0.5778
  373MOL0     H50333   7.020  12.238  11.717  0.0134 -0.0147  0.1671
  373MOL0     H50334   7.172  12.324  11.668 -1.1790  2.6587 -1.0205
  373MOL0     H50335   7.132  12.186  11.447 -2.8288 -2.1419 -0.1772
  373MOL0     H50336   7.043  12.081  11.542 -1.3901  1.0482 -1.8031
  373MOL0     H50337   6.674  12.532  10.957 -1.6591  0.7367 -1.0868
  373MOL0     H50338   6.708  12.480  10.728  3.8478 -1.0432  0.1508
  373MOL0     H50339   6.612  12.036  10.487 -1.5349  3.1437  1.2010
  373MOL0     H50340   6.571  11.905  10.298 -0.3728  0.2565 -0.3411
  373MOL0     H50341   6.347  10.991   9.679  0.3462 -0.9757 -1.6027
  373MOL0     H50342   6.395  10.936   9.909 -2.0140 -2.4856  0.9701
  373MOL0     H50343   6.586  10.689  10.232  1.1372 -1.9012 -0.3157
  373MOL0     H50344   6.651  10.652  10.462  1.7141 -0.5457  1.0647
  373MOL0     H50345   6.763  10.670  10.682  0.2560 -0.5877  1.5569
  373MOL0     H50346   6.795  10.520  10.607  0.1215  1.2233 -1.9788
  373MOL0     H50347   7.006  10.489  10.722  3.0481  0.9525  1.9871
  373MOL0     H50348   6.877  10.519  10.845 -0.2558 -0.1302  0.2178
  373MOL0     H50349   6.945  10.779  10.805 -3.4448 -1.0080  1.7840
  373MOL0     H50350   7.089  10.717  10.720 -0.9702  1.2177  0.3992
  373MOL0     H50351   7.130  10.777  10.949  0.3966 -0.4716 -2.0393
  373MOL0     H50352   7.149  10.594  10.942  0.5525 -0.9442 -0.5278
  373MOL0     H50353   6.806  10.684  11.196 -0.0886  1.2227 -0.5075
  373MOL0     H50354   7.057  10.761  10.350  0.6102 -5.2439 -1.2069
  373MOL0     H50355   6.981  10.837  10.135  1.5949 -1.1079  2.0330
  374MOL0     O50356   5.887   2.646   0.673 -0.1485  0.2464 -0.3044
  374MOL0     C50357   5.990   2.591   0.640  0.1738 -0.0687 -0.3121
  374MOL0     O50358   6.117   2.626   0.677  0.4711 -0.5282 -0.4418
  374MOL0     C50359   6.135   2.746   0.747 -0.3177 -0.3580  1.0351
  374MOL0     C50360   6.067   2.872   0.711  0.2236 -0.0622 -0.4288
  374MOL0     C50361   6.100   2.987   0.790 -0.8203  0.0444  0.6228
  374MOL0     C50362   6.193   2.983   0.888 -0.6340 -0.1209  0.8503
  374MOL0     O50363   6.232   3.104   0.933  0.0680  0.3031  0.8592
  374MOL0     C50364   6.374   3.138   0.916 -0.0454 -0.4386 -0.0504
  374MOL0     C50365   6.417   3.263   0.996  1.4069  0.6690  0.7525
  374MOL0     C50366   6.469   3.237   1.137  0.5552  0.1217 -0.0628
  374MOL0     C50367   6.362   3.186   1.240 -0.5350  0.5414  0.2834
  374MOL0     C50368   6.418   3.188   1.391 -0.0304 -0.1796  0.7129
  374MOL0     C50369   6.444   3.338   1.430  0.0263  0.3711 -0.2824
  374MOL0     C50370   6.452   3.353   1.590  0.0052 -0.5630 -0.3859
  374MOL0     C50371   6.556   3.255   1.647 -0.2084 -0.2841 -1.1658
  374MOL0     N50372   6.592   3.292   1.787 -0.0786  0.0040  0.2844
  374MOL0     C50373   6.519   3.274   1.896 -0.4969 -0.2400 -0.8071
  374MOL0     C50374   6.585   3.349   1.997  0.0799  0.1734  0.9677
  374MOL0     C50375   6.531   3.352   2.131 -0.2473  0.3609 -0.3488
  374MOL0     C50376   6.450   3.475   2.179  0.4207 -0.8109 -0.1693
  374MOL0     C50377   6.385   3.462   2.320  0.4292  0.6941 -0.4963
  374MOL0     C50378   6.328   3.595   2.366  0.7891 -0.5158  0.6531
  374MOL0     O50379   6.294   3.602   2.503 -0.0750 -0.5365  0.3965
  374MOL0     C50380   6.392   3.611   2.597  0.5260  0.6659  0.5675
  374MOL0     C50381   6.358   3.554   2.721 -0.2554 -0.9978 -0.0867
  374MOL0     C50382   6.459   3.518   2.821  0.6137 -0.1521  0.9588
  374MOL0     C50383   6.410   3.438   2.946 -0.9021  0.2598  0.9498
  374MOL0     C50384   6.591   3.559   2.798  0.9620  0.1007 -0.5144
  374MOL0     C50385   6.698   3.539   2.897 -0.5563 -1.0818  1.0052
  374MOL0     O50386   6.819   3.562   2.860  0.7139  0.8077  1.2044
  374MOL0     C50387   6.920   3.590   2.953  0.5155 -0.6427  0.5576
  374MOL0     C50388   7.031   3.509   2.962 -0.1803 -0.2317  0.4727
  374MOL0     C50389   7.135   3.539   3.044 -0.2751 -0.7563  0.4529
  374MOL0     C50390   7.127   3.655   3.128 -0.3160 -0.0666  0.6343
  374MOL0     O50391   7.233   3.680   3.216 -0.9483  0.2904  0.2503
  374MOL0     C50392   7.220   3.601   3.333  0.3216  1.0994  1.0387
  374MOL0     C50393   7.163   3.688   3.447  0.3647 -0.3955 -0.1263
  374MOL0     C50394   7.243   3.823   3.468 -0.0576 -0.4600  0.9847
  374MOL0     C50395   7.391   3.808   3.447 -0.1158  0.6062  0.3589
  374MOL0     C50396   7.475   3.919   3.499  0.3888 -0.7872 -0.1022
  374MOL0     C50397   7.456   4.067   3.454  0.2073  0.1275 -0.4065
  374MOL0     C50398   7.544   4.175   3.522 -0.1156  1.3129  0.2014
  374MOL0     C50399   7.478   4.313   3.531  0.3005  0.1119 -0.5332
  374MOL0    Cl50400   7.584   4.442   3.612  0.3215  0.0576  0.2682
  374MOL0     C50401   7.008   3.734   3.135  0.3317 -0.4270  0.0580
  374MOL0     C50402   6.911   3.693   3.041  0.4337 -0.9735 -0.5087
  374MOL0     O50403   6.669   3.529   3.014 -0.1051  0.2589 -0.6724
  374MOL0     C50404   6.616   3.618   2.671  0.0449  0.1420  0.3629
  374MOL0     C50405   6.524   3.652   2.578  0.5440  0.4397 -0.2385
  374MOL0     N50406   6.702   3.391   1.947  0.3649  0.0222  0.4770
  374MOL0     N50407   6.702   3.368   1.815 -0.3529 -0.1306 -0.3666
  374MOL0     C50408   6.256   2.864   0.928  0.1647  0.1237  0.7011
  374MOL0     C50409   6.228   2.750   0.847 -0.6646 -0.0548 -0.2096
  374MOL0     C50410   5.956   2.463   0.561  0.1211  0.0525 -0.8559
  374MOL0     C50411   5.848   2.458   0.477 -0.6520  0.1681 -0.3996
  374MOL0     C50412   5.821   2.339   0.409 -0.3752 -0.5533  0.0594
  374MOL0     C50413   5.877   2.218   0.431 -0.9845  0.0371  0.8114
  374MOL0     O50414   5.829   2.118   0.351  0.0952  0.0897 -0.7809
  374MOL0     C50415   5.896   1.988   0.351 -0.9642 -0.1035 -0.6671
  374MOL0     C50416   5.869   1.883   0.242 -0.4780  0.2006 -0.6157
  374MOL0     C50417   5.726   1.837   0.239  0.2446 -0.3312  0.4348
  374MOL0     C50418   5.719   1.701   0.176 -0.2792 -0.9198  0.0950
  374MOL0     C50419   5.790   1.602   0.268  0.1503 -0.0851 -0.3549
  374MOL0     C50420   5.833   1.540   0.359 -0.1125  0.8737 -0.6755
  374MOL0     C50421   5.982   2.209   0.523 -0.6522 -0.4726  0.0368
  374MOL0     C50422   6.025   2.336   0.582 -0.2174  1.2983  0.0482
  374MOL0     H50423   5.992   2.880   0.633 -0.6262 -1.2970  0.2206
  374MOL0     H50424   6.063   3.086   0.765 -1.4270 -0.5786 -1.0805
  374MOL0     H50425   6.437   3.050   0.932  0.5304 -0.0591 -0.2149
  374MOL0     H50426   6.376   3.170   0.811 -2.8304  1.7858  0.4484
  374MOL0     H50427   6.494   3.321   0.944  0.2264  0.0994 -1.7893
  374MOL0     H50428   6.334   3.333   0.997  0.7755 -0.0683  1.0932
  374MOL0     H50429   6.550   3.165   1.126 -1.1534 -1.6654 -1.7895
  374MOL0     H50430   6.513   3.332   1.169 -0.7621  0.5950  0.4252
  374MOL0     H50431   6.266   3.237   1.225 -0.2539  1.1986  0.6763
  374MOL0     H50432   6.336   3.084   1.211 -1.1251  1.2218 -1.7899
  374MOL0     H50433   6.338   3.157   1.459 -1.4746  3.4313  0.8962
  374MOL0     H50434   6.516   3.141   1.402 -0.3470 -1.4798 -1.4837
  374MOL0     H50435   6.536   3.376   1.383  0.8034 -2.5708 -1.3623
  374MOL0     H50436   6.367   3.403   1.389  1.2771  2.0150 -0.1332
  374MOL0     H50437   6.486   3.455   1.612  0.6140 -0.7419 -0.4724
  374MOL0     H50438   6.361   3.326   1.645 -0.1278  4.2913  2.3039
  374MOL0     H50439   6.653   3.248   1.597  1.7105  0.8184  2.1164
  374MOL0     H50440   6.516   3.153   1.650 -0.7462 -0.0471  0.7933
  374MOL0     H50441   6.427   3.220   1.915 -1.9136  2.2759 -0.0443
  374MOL0     H50442   6.469   3.266   2.158  2.8446 -1.1485  2.7567
  374MOL0     H50443   6.613   3.349   2.203 -0.6669 -0.7120  0.1137
  374MOL0     H50444   6.372   3.488   2.104  2.4243 -1.5245 -2.5065
  374MOL0     H50445   6.514   3.564   2.187 -1.3888  0.6167 -0.8713
  374MOL0     H50446   6.458   3.411   2.384 -2.5313 -0.8181  1.9613
  374MOL0     H50447   6.305   3.390   2.302  0.7921  0.2189 -0.2413
  374MOL0     H50448   6.237   3.606   2.306 -0.0408  2.5185  2.2831
  374MOL0     H50449   6.394   3.679   2.341 -0.4711 -0.1977 -1.9629
  374MOL0     H50450   6.252   3.534   2.733 -0.2635 -0.0797  1.8559
  374MOL0     H50451   6.480   3.361   2.980 -0.7561 -0.2184 -0.3892
  374MOL0     H50452   6.384   3.497   3.034  0.3547  0.4174  1.2346
  374MOL0     H50453   6.322   3.380   2.916  0.0807  0.4505 -2.7491
  374MOL0     H50454   7.035   3.420   2.900  0.1470 -0.1662  0.3992
  374MOL0     H50455   7.229   3.487   3.058  1.6892  2.1874 -0.8434
  374MOL0     H50456   7.163   3.507   3.330 -0.1567  1.4185 -1.2767
  374MOL0     H50457   7.321   3.569   3.361  1.6975  0.8319 -3.4576
  374MOL0     H50458   7.057   3.710   3.431  0.9105  1.7663 -1.1544
  374MOL0     H50459   7.182   3.632   3.539  0.9059 -0.0475 -0.0201
  374MOL0     H50460   7.230   3.849   3.573  0.3296  2.9548  0.3279
  374MOL0     H50461   7.203   3.913   3.419  0.0387  0.5030  2.5955
  374MOL0     H50462   7.429   3.714   3.489 -1.0095 -0.9452 -2.0952
  374MOL0     H50463   7.412   3.809   3.340  1.8804  1.0598  0.7207
  374MOL0     H50464   7.579   3.890   3.488  0.5773  0.6646 -3.3124
  374MOL0     H50465   7.459   3.918   3.608  0.8595 -0.8463 -0.0330
  374MOL0     H50466   7.474   4.059   3.346 -0.7894  0.5649 -0.6205
  374MOL0     H50467   7.354   4.097   3.478  0.5489  1.5191 -0.5906
  374MOL0     H50468   7.639   4.183   3.468  0.9022 -0.4015  1.6322
  374MOL0     H50469   7.578   4.144   3.621  2.1038 -0.9121 -1.1499
  374MOL0     H50470   7.402   4.302   3.608  0.4606 -6.1355 -0.7742
  374MOL0     H50471   7.436   4.340   3.433 -2.1611 -1.2586  0.0627
  374MOL0     H50472   6.991   3.812   3.209  0.1760 -0.3084 -0.1026
  374MOL0     H50473   6.812   3.737   3.043  1.4616  1.5514 -1.1522
  374MOL0     H50474   6.718   3.634   2.637 -0.9018  0.2731 -2.7861
  374MOL0     H50475   6.563   3.700   2.489 -2.1372  2.3822 -0.4803
  374MOL0     H50476   6.332   2.865   1.006  0.4580 -0.1811  0.4201
  374MOL0     H50477   6.279   2.655   0.858 -0.7953 -0.0502  0.5279
  374MOL0     H50478   5.801   2.547   0.438 -1.7182 -0.3807 -0.4043
  374MOL0     H50479   5.749   2.348   0.328 -3.6461 -0.3884  2.7498
  374MOL0     H50480   6.004   2.003   0.363 -1.1396  0.2510  0.6578
  374MOL0     H50481   5.871   1.950   0.450  2.8505  0.5989  0.7419
  374MOL0     H50482   5.930   1.797   0.273 -2.2227 -1.0183 -0.3830
  374MOL0     H50483   5.913   1.911   0.146  0.6227  0.1782 -0.1314
  374MOL0     H50484   5.668   1.911   0.182  2.0296  0.8905  0.1141
  374MOL0     H50485   5.685   1.823   0.339  2.2772  0.4137  1.4206
  374MOL0     H50486   5.773   1.717   0.082  2.1834 -0.6644  1.4714
  374MOL0     H50487   5.617   1.662   0.164 -0.3700 -0.9163  0.8187
  374MOL0     H50488   5.887   1.483   0.432  2.3875 -0.0831 -3.1101
  374MOL0     H50489   6.029   2.117   0.559 -1.6362  0.3815  3.8831
  374MOL0     H50490   6.112   2.330   0.646 -0.2831  0.6518  0.0866
  375MOL0     O50491   5.421   0.835  10.030  0.2545  0.3286  0.4256
  375MOL0     C50492   5.353   0.907   9.954 -0.2687  0.5926  0.3141
  375MOL0     O50493   5.390   0.929   9.819  0.0293  0.3104 -0.1168
  375MOL0     C50494   5.479   0.843   9.752 -0.1665  0.5555 -0.1234
  375MOL0     C50495   5.607   0.820   9.809  1.4360  0.0630 -0.5140
  375MOL0     C50496   5.698   0.741   9.734 -1.3357  0.4670  0.1515
  375MOL0     C50497   5.668   0.674   9.612  1.5089  0.3338 -0.4833
  375MOL0     O50498   5.768   0.604   9.551 -0.0759 -0.2586  0.3743
  375MOL0     C50499   5.736   0.491   9.468 -0.6601 -0.4227  0.4493
  375MOL0     C50500   5.828   0.477   9.353 -0.3899 -0.6002  0.5091
  375MOL0     C50501   5.976   0.476   9.398 -0.2186  0.7500 -0.0250
  375MOL0     C50502   6.070   0.492   9.278  0.0878 -0.5390 -0.6629
  375MOL0     C50503   6.071   0.374   9.177  0.1040 -0.6458  0.1023
  375MOL0     C50504   6.122   0.243   9.226 -0.4829  0.3330  0.3300
  375MOL0     C50505   6.050   0.142   9.141 -0.3460 -0.0372 -0.6146
  375MOL0     C50506   6.078   0.145   8.992  0.0531  1.1048  0.6744
  375MOL0     N50507   6.069   0.014   8.932 -0.9935  0.0698 -0.2135
  375MOL0     C50508   6.001  -0.094   8.987  0.1903 -0.6367  1.0769
  375MOL0     C50509   6.055  -0.199   8.918 -0.1034 -0.0454 -0.2316
  375MOL0     C50510   6.017  -0.352   8.936  0.4519 -0.1650  0.3902
  375MOL0     C50511   5.942  -0.400   8.807  0.2911  0.0671  0.2636
  375MOL0     C50512   5.815  -0.316   8.782  0.2229  0.1726  0.7729
  375MOL0     C50513   5.760  -0.321   8.637 -0.3258  0.1840 -0.0681
  375MOL0     O50514   5.805  -0.210   8.559  0.5077 -0.8203  0.1203
  375MOL0     C50515   5.911  -0.231   8.475 -0.0393  0.3956 -0.1724
  375MOL0     C50516   6.031  -0.167   8.506  0.2891 -0.2488  1.0624
  375MOL0     C50517   6.137  -0.159   8.410  0.1807 -1.1521 -0.1201
  375MOL0     C50518   6.258  -0.087   8.459 -0.9707 -0.2845 -0.9761
  375MOL0     C50519   6.133  -0.245   8.296 -0.0281  0.1756  0.0110
  375MOL0     C50520   6.237  -0.238   8.182 -0.2964  0.0385 -0.6818
  375MOL0     O50521   6.363  -0.206   8.210  0.3385 -0.2190 -0.1086
  375MOL0     C50522   6.471  -0.211   8.137 -0.3421 -1.1608  0.8918
  375MOL0     C50523   6.583  -0.148   8.195  0.0511 -0.7705  0.1896
  375MOL0     C50524   6.681  -0.114   8.113 -0.4055 -0.1213 -0.1732
  375MOL0     C50525   6.698  -0.172   7.986 -0.0761 -0.3245  0.4510
  375MOL0     O50526   6.818  -0.133   7.927  0.0144  0.4874  0.9206
  375MOL0     C50527   6.885  -0.214   7.842 -0.3316  0.6667  0.0056
  375MOL0     C50528   7.037  -0.171   7.848 -0.5044 -0.0640 -0.5669
  375MOL0     C50529   7.140  -0.247   7.756 -0.7286  0.4159 -0.0061
  375MOL0     C50530   7.281  -0.219   7.780 -0.8895 -0.7319  1.1415
  375MOL0     C50531   7.364  -0.313   7.700 -0.9058 -0.2533 -0.4478
  375MOL0     C50532   7.507  -0.321   7.732  0.4173 -0.4975  0.0289
  375MOL0     C50533   7.593  -0.254   7.628  0.0593 -0.0784  0.1107
  375MOL0     C50534   7.743  -0.274   7.654  0.1265 -0.5449  0.7819
  375MOL0    Cl50535   7.782  -0.451   7.648 -0.3773 -0.0971 -0.2646
  375MOL0     C50536   6.601  -0.264   7.940  0.1179  0.6170 -0.5956
  375MOL0     C50537   6.487  -0.276   8.009  0.1752  0.7269  0.0419
  375MOL0     O50538   6.198  -0.280   8.070 -0.4440  0.5922 -0.2252
  375MOL0     C50539   6.011  -0.315   8.276  0.0140  0.0652  0.1128
  375MOL0     C50540   5.897  -0.315   8.363 -0.0131  0.0242  1.2683
  375MOL0     N50541   6.153  -0.154   8.837  0.8480 -0.2798 -0.2402
  375MOL0     N50542   6.170  -0.030   8.859 -0.0617 -0.2024  1.2783
  375MOL0     C50543   5.536   0.694   9.555  1.2250  1.0459 -0.8248
  375MOL0     C50544   5.445   0.770   9.631  0.7112 -0.1159 -0.1884
  375MOL0     C50545   5.240   0.997  10.011  0.2548  0.8381  0.4305
  375MOL0     C50546   5.226   1.126   9.958  0.2230 -0.7059 -0.0825
  375MOL0     C50547   5.125   1.204  10.006 -0.0381 -0.3463  0.2350
  375MOL0     C50548   5.028   1.150  10.108 -0.4392  0.2794  0.0270
  375MOL0     O50549   4.920   1.228  10.151  0.5522 -0.5930 -0.1243
  375MOL0     C50550   4.837   1.193  10.268 -0.0111 -0.5646  0.8656
  375MOL0     C50551   4.726   1.304  10.269 -0.0339  0.3599 -0.2436
  375MOL0     C50552   4.616   1.303  10.164 -0.0113  0.0697  0.6455
  375MOL0     C50553   4.479   1.361  10.216 -1.2146  0.7363 -0.5201
  375MOL0     C50554   4.381   1.368  10.108  0.2825 -0.3876  1.1360
  375MOL0     C50555   4.316   1.386  10.005  0.8435  0.2842  1.3112
  375MOL0     C50556   5.051   1.024  10.158 -0.1516 -1.8102  0.1920
  375MOL0     C50557   5.158   0.953  10.117  1.0554 -0.2747  0.0765
  375MOL0     H50558   5.648   0.872   9.896  0.0917 -1.0249  0.8283
  375MOL0     H50559   5.792   0.712   9.779 -0.9688 -1.5329 -1.7491
  375MOL0     H50560   5.746   0.397   9.525  0.1569 -1.5903 -1.5100
  375MOL0     H50561   5.633   0.493   9.431 -1.2463 -1.4246  1.9418
  375MOL0     H50562   5.797   0.389   9.295 -1.7753  1.1831 -1.6208
  375MOL0     H50563   5.807   0.553   9.278 -1.0300 -0.2319  1.0596
  375MOL0     H50564   5.988   0.564   9.462 -0.7446 -0.9334  2.5432
  375MOL0     H50565   6.012   0.390   9.456  4.5203  1.3035 -1.6646
  375MOL0     H50566   6.041   0.581   9.222  0.5503 -1.3044 -2.1750
  375MOL0     H50567   6.177   0.497   9.303 -0.8593 -1.8779  4.8171
  375MOL0     H50568   5.970   0.366   9.134 -0.6256  1.3786  1.3397
  375MOL0     H50569   6.140   0.412   9.102 -1.0042 -2.4068 -1.9444
  375MOL0     H50570   6.230   0.233   9.208 -0.3032 -0.2154  1.6420
  375MOL0     H50571   6.106   0.221   9.332  2.0404 -1.6826  0.4067
  375MOL0     H50572   6.092   0.049   9.179  1.5773 -0.8117 -4.1608
  375MOL0     H50573   5.947   0.166   9.169  0.9862  2.2738  2.9833
  375MOL0     H50574   6.179   0.183   8.974  0.4196 -0.0323  0.1656
  375MOL0     H50575   6.007   0.206   8.936  2.0755  1.7985 -1.2999
  375MOL0     H50576   5.917  -0.088   9.055 -0.1362  2.7367  0.5135
  375MOL0     H50577   6.113  -0.404   8.941  0.8493  0.5914  0.8045
  375MOL0     H50578   5.960  -0.372   9.028 -0.1727 -1.0379 -0.1725
  375MOL0     H50579   5.908  -0.503   8.822  0.1783  0.0036 -0.4300
  375MOL0     H50580   5.999  -0.401   8.714 -0.8676 -1.3604 -0.4882
  375MOL0     H50581   5.822  -0.209   8.803 -2.8325  0.8160 -0.9324
  375MOL0     H50582   5.741  -0.368   8.844 -0.7228 -1.2008 -1.3783
  375MOL0     H50583   5.652  -0.308   8.641 -0.0238  2.9331  0.9478
  375MOL0     H50584   5.791  -0.408   8.579  0.1218  1.6685 -2.2002
  375MOL0     H50585   6.032  -0.100   8.592 -0.3807 -1.6013  2.1571
  375MOL0     H50586   6.331  -0.158   8.499 -0.4324  0.4019 -0.7077
  375MOL0     H50587   6.306  -0.032   8.377  0.4407  1.0643  0.6694
  375MOL0     H50588   6.236  -0.016   8.539 -0.0193  0.0277 -0.9797
  375MOL0     H50589   6.569  -0.109   8.296 -1.6068  1.7130 -0.8968
  375MOL0     H50590   6.772  -0.062   8.141  0.4200 -1.5168 -0.1750
  375MOL0     H50591   6.876  -0.320   7.868 -2.0349  0.5904 -0.8164
  375MOL0     H50592   6.859  -0.214   7.736 -0.8313 -0.1358  0.1205
  375MOL0     H50593   7.051  -0.066   7.821 -0.1055  0.2804  0.8822
  375MOL0     H50594   7.074  -0.183   7.951  2.6146  1.6080 -1.3800
  375MOL0     H50595   7.109  -0.220   7.654  2.4340  2.6598 -0.5262
  375MOL0     H50596   7.120  -0.349   7.789 -1.2115  1.2917  2.6257
  375MOL0     H50597   7.308  -0.118   7.748  0.2637 -0.6707  2.2056
  375MOL0     H50598   7.311  -0.228   7.885 -1.6710 -0.1803  1.4191
  375MOL0     H50599   7.348  -0.273   7.599 -0.2434 -0.4644 -0.6427
  375MOL0     H50600   7.324  -0.415   7.712  1.6972 -1.1840  0.9840
  375MOL0     H50601   7.519  -0.269   7.828 -2.9487  2.5489 -0.9638
  375MOL0     H50602   7.531  -0.426   7.749  1.4469 -0.2531  0.1179
  375MOL0     H50603   7.567  -0.148   7.624 -0.4793 -0.2533 -1.2632
  375MOL0     H50604   7.578  -0.297   7.529  0.5099  1.6715 -0.7486
  375MOL0     H50605   7.783  -0.246   7.752  2.0342 -2.4199  0.6095
  375MOL0     H50606   7.793  -0.227   7.568 -4.2304 -0.5876 -2.0831
  375MOL0     H50607   6.630  -0.310   7.846 -0.0971  0.0279 -0.3779
  375MOL0     H50608   6.413  -0.349   7.977 -0.0668  0.8058  0.4265
  375MOL0     H50609   6.003  -0.376   8.187 -2.0512 -1.4281  1.2476
  375MOL0     H50610   5.810  -0.380   8.355  1.9770 -2.6380 -0.0402
  375MOL0     H50611   5.501   0.650   9.462 -1.2486  0.5435  0.2662
  375MOL0     H50612   5.352   0.790   9.578 -0.6203  1.2799  2.4602
  375MOL0     H50613   5.306   1.157   9.892  1.0886 -1.2496  0.6870
  375MOL0     H50614   5.120   1.304   9.963 -1.0511 -1.1680 -1.6444
  375MOL0     H50615   4.798   1.091  10.273  2.3201 -1.4595  3.3133
  375MOL0     H50616   4.905   1.210  10.351  0.6703  2.4958 -0.1900
  375MOL0     H50617   4.778   1.399  10.260  1.0090 -0.1565  0.1163
  375MOL0     H50618   4.686   1.289  10.370 -2.4985  1.9997 -0.8925
  375MOL0     H50619   4.604   1.209  10.109 -0.4961  0.4532  0.0838
  375MOL0     H50620   4.645   1.380  10.091  0.4172  1.3286  2.0932
  375MOL0     H50621   4.493   1.459  10.263  3.0819  0.3750 -0.6180
  375MOL0     H50622   4.443   1.299  10.298 -5.8549  1.4366 -1.7196
  375MOL0     H50623   4.273   1.389   9.907 -1.4731 -1.8257  2.1520
  375MOL0     H50624   4.975   0.984  10.225 -2.8406 -1.6440 -2.4971
  375MOL0     H50625   5.180   0.860  10.167 -3.3191 -1.5003  0.1190
  376MOL0     O50626   1.381   8.846   5.969  0.1143 -0.0453 -0.1315
  376MOL0     C50627   1.483   8.781   5.959  0.1002 -0.3110  0.0346
  376MOL0     O50628   1.491   8.659   5.903 -0.0760  1.0224  0.1125
  376MOL0     C50629   1.382   8.590   5.859  0.3458 -0.7515 -0.8820
  376MOL0     C50630   1.270   8.640   5.784 -0.0488 -0.9868  0.1360
  376MOL0     C50631   1.150   8.553   5.768 -0.0546  0.0564 -0.1434
  376MOL0     C50632   1.157   8.419   5.818  0.5872 -0.2097 -0.1105
  376MOL0     O50633   1.050   8.335   5.817 -0.1974 -0.3110  0.6928
  376MOL0     C50634   0.924   8.393   5.846 -0.4518  0.2784  0.3043
  376MOL0     C50635   0.825   8.286   5.864  0.0781 -0.2075  0.3921
  376MOL0     C50636   0.761   8.225   5.739  0.8902  0.4880  0.5465
  376MOL0     C50637   0.648   8.118   5.773  0.7318 -0.0159  0.2233
  376MOL0     C50638   0.594   8.071   5.640  0.2587  0.3137 -1.2573
  376MOL0     C50639   0.518   7.943   5.645  1.2330 -0.6976  0.6198
  376MOL0     C50640   0.440   7.900   5.515  0.4316  0.2053  0.7865
  376MOL0     C50641   0.349   7.999   5.440 -0.2319 -0.4087 -0.4880
  376MOL0     N50642   0.258   7.941   5.340 -0.0458  0.0997  0.2298
  376MOL0     C50643   0.129   7.985   5.322  0.5983  0.7309  0.7972
  376MOL0     C50644   0.085   7.915   5.215  0.1813  0.0031  0.1631
  376MOL0     C50645  -0.054   7.917   5.158 -0.4327 -0.0690 -0.3799
  376MOL0     C50646  -0.170   7.927   5.264  0.4446  0.3468  0.0192
  376MOL0     C50647  -0.308   7.905   5.202  0.1910  0.3095 -0.2599
  376MOL0     C50648  -0.350   7.749   5.200 -0.4035 -0.3441 -0.3747
  376MOL0     O50649  -0.470   7.712   5.127 -0.4905  0.0098  0.0153
  376MOL0     C50650  -0.592   7.701   5.187 -0.1036 -0.0557  0.5357
  376MOL0     C50651  -0.694   7.665   5.108  0.2945  0.4442 -0.8057
  376MOL0     C50652  -0.831   7.664   5.143 -0.5606  1.0850 -0.6139
  376MOL0     C50653  -0.921   7.592   5.034  0.8900 -0.4226 -0.5650
  376MOL0     C50654  -0.865   7.715   5.275  0.9879  0.7143 -0.2914
  376MOL0     C50655  -1.004   7.725   5.324 -0.0183 -0.2385  0.0183
  376MOL0     O50656  -1.097   7.670   5.240  0.3059 -1.0121 -0.2753
  376MOL0     C50657  -1.233   7.669   5.267 -0.1506  1.3368  0.1964
  376MOL0     C50658  -1.293   7.656   5.390 -0.4901  0.0713 -0.1443
  376MOL0     C50659  -1.431   7.660   5.416  0.0586 -1.2902 -0.7163
  376MOL0     C50660  -1.522   7.670   5.303  0.1218 -0.1470  0.9768
  376MOL0     O50661  -1.659   7.679   5.302 -0.3874  0.0691  0.5222
  376MOL0     C50662  -1.732   7.579   5.369  0.4660  0.8439  0.1130
  376MOL0     C50663  -1.760   7.457   5.276  1.0180 -0.2873 -0.1372
  376MOL0     C50664  -1.878   7.468   5.169 -0.4702 -0.5045 -0.1342
  376MOL0     C50665  -1.884   7.327   5.091 -0.8270 -0.1590  0.5324
  376MOL0     C50666  -2.003   7.339   5.000  0.6253 -0.1310  0.3488
  376MOL0     C50667  -2.052   7.198   4.957 -0.3358  0.3884  0.3090
  376MOL0     C50668  -2.169   7.215   4.871 -0.4014 -0.1604 -0.3491
  376MOL0     C50669  -2.214   7.080   4.817 -0.2340  0.1836 -0.2500
  376MOL0    Cl50670  -2.251   7.077   4.635 -0.1560  0.2555  0.0475
  376MOL0     C50671  -1.457   7.672   5.172 -0.1276 -0.0587  0.3052
  376MOL0     C50672  -1.317   7.671   5.160  0.3398  0.8747 -0.7193
  376MOL0     O50673  -1.030   7.790   5.427 -0.5379  0.6167  0.8739
  376MOL0     C50674  -0.763   7.769   5.360 -0.1679 -1.1965 -0.1005
  376MOL0     C50675  -0.625   7.753   5.312 -0.3697 -0.3056  0.0113
  376MOL0     N50676   0.195   7.846   5.160  0.1104  0.0149 -0.0337
  376MOL0     N50677   0.297   7.857   5.241 -0.1168  0.8235 -0.6509
  376MOL0     C50678   1.268   8.376   5.885  0.5693  0.7252  0.7303
  376MOL0     C50679   1.371   8.456   5.909 -0.9899 -0.3518 -1.4132
  376MOL0     C50680   1.605   8.828   6.034  0.1758 -0.3072  0.7589
  376MOL0     C50681   1.707   8.734   6.049 -0.1240 -0.1327  0.4746
  376MOL0     C50682   1.828   8.768   6.114 -0.2789 -0.0759 -0.6405
  376MOL0     C50683   1.853   8.897   6.159 -1.4335  0.2570  0.2253
  376MOL0     O50684   1.975   8.928   6.222 -0.3672 -0.3297 -1.3826
  376MOL0     C50685   2.094   8.848   6.199 -0.2441  0.4798  0.6173
  376MOL0     C50686   2.141   8.871   6.057  0.0391 -0.3630 -0.3587
  376MOL0     C50687   2.247   8.773   6.008  0.7798  0.7220 -1.0939
  376MOL0     C50688   2.189   8.625   5.994 -0.8946  0.0903  0.1989
  376MOL0     C50689   2.075   8.601   5.908 -0.8600  0.0140 -0.1514
  376MOL0     C50690   1.993   8.595   5.817  0.1514  0.0739  0.3204
  376MOL0     C50691   1.749   8.994   6.151 -0.1967 -0.3977 -0.5594
  376MOL0     C50692   1.629   8.960   6.082 -0.7069  0.0711  1.0991
  376MOL0     H50693   1.264   8.746   5.762 -0.0305 -1.0644 -0.2536
  376MOL0     H50694   1.061   8.594   5.722  0.2678  1.4688  0.4473
  376MOL0     H50695   0.933   8.443   5.942  1.1777 -1.4295  1.1087
  376MOL0     H50696   0.908   8.475   5.775  1.3649  2.6078  2.3800
  376MOL0     H50697   0.870   8.201   5.917 -0.5226 -0.1825  0.9579
  376MOL0     H50698   0.739   8.331   5.914 -0.6117 -3.0750  2.0337
  376MOL0     H50699   0.716   8.309   5.686 -1.7420  0.6185  2.7492
  376MOL0     H50700   0.830   8.177   5.668  1.0507  0.5184  0.6838
  376MOL0     H50701   0.694   8.031   5.820 -0.6685 -0.8510  0.0945
  376MOL0     H50702   0.568   8.156   5.837 -0.0589 -1.3048  0.0274
  376MOL0     H50703   0.534   8.156   5.606 -2.3614  1.6830  5.3756
  376MOL0     H50704   0.668   8.044   5.564 -3.1723 -2.6422 -3.8994
  376MOL0     H50705   0.586   7.860   5.670 -1.4297 -3.2666 -0.1368
  376MOL0     H50706   0.441   7.947   5.722  1.1426  0.4592  0.4837
  376MOL0     H50707   0.520   7.867   5.449  1.1621  2.2098  0.6079
  376MOL0     H50708   0.367   7.820   5.533 -0.8460  1.7149  2.8121
  376MOL0     H50709   0.414   8.067   5.384  2.4542 -1.0506  1.6273
  376MOL0     H50710   0.290   8.061   5.509  0.1462  0.3312 -0.8129
  376MOL0     H50711   0.077   8.055   5.386 -0.2502  0.2830  0.6094
  376MOL0     H50712  -0.054   8.007   5.094 -1.7521  0.3178  0.1465
  376MOL0     H50713  -0.066   7.831   5.092 -1.9979 -1.0146  1.0731
  376MOL0     H50714  -0.174   8.032   5.295  0.1663  0.1904  0.5212
  376MOL0     H50715  -0.152   7.878   5.360  1.1927 -1.0797 -0.8035
  376MOL0     H50716  -0.305   7.943   5.100  4.0648  1.4305  0.1206
  376MOL0     H50717  -0.378   7.967   5.258  1.3778  1.9346 -0.5252
  376MOL0     H50718  -0.365   7.720   5.305  2.0898 -2.6635 -0.5415
  376MOL0     H50719  -0.270   7.687   5.159  2.6273  1.1077  2.7446
  376MOL0     H50720  -0.665   7.634   5.008  3.8530  0.9898 -0.0830
  376MOL0     H50721  -0.974   7.504   5.071 -0.4044  0.0413 -1.2688
  376MOL0     H50722  -0.985   7.662   4.980 -2.1969 -2.3149  0.4011
  376MOL0     H50723  -0.864   7.552   4.949  2.2912  3.8674 -1.9111
  376MOL0     H50724  -1.227   7.649   5.475  0.6251  0.6521 -0.9403
  376MOL0     H50725  -1.457   7.657   5.522 -1.2882  0.4052 -0.9510
  376MOL0     H50726  -1.673   7.556   5.459  2.3915 -1.0302 -1.5066
  376MOL0     H50727  -1.827   7.623   5.400 -1.5552 -0.2000 -3.9598
  376MOL0     H50728  -1.668   7.429   5.223  2.2824 -4.4760  3.6548
  376MOL0     H50729  -1.777   7.363   5.328  2.7624  0.1727  1.4091
  376MOL0     H50730  -1.853   7.554   5.105 -0.9257 -0.7944 -0.7158
  376MOL0     H50731  -1.976   7.497   5.208 -2.0974 -0.2081 -3.9801
  376MOL0     H50732  -1.795   7.325   5.028 -2.0163 -2.3004 -1.1897
  376MOL0     H50733  -1.890   7.241   5.158 -2.1006 -0.5304 -0.0196
  376MOL0     H50734  -1.970   7.394   4.911  2.9851  0.5422  1.5472
  376MOL0     H50735  -2.086   7.384   5.056 -0.8218  0.5251 -2.1613
  376MOL0     H50736  -1.966   7.141   4.920  1.9281  1.4969  3.4188
  376MOL0     H50737  -2.081   7.142   5.047  1.9717  1.3841  1.7684
  376MOL0     H50738  -2.162   7.293   4.795 -0.7072 -0.4423 -0.6750
  376MOL0     H50739  -2.247   7.255   4.935  0.2662 -2.0681  1.7840
  376MOL0     H50740  -2.300   7.039   4.870  1.5377 -1.6366  1.3685
  376MOL0     H50741  -2.130   7.012   4.832  0.1541  0.5014 -0.9091
  376MOL0     H50742  -1.516   7.673   5.082 -0.0086 -1.1709  0.1913
  376MOL0     H50743  -1.272   7.693   5.064 -1.2360  1.1561 -1.4262
  376MOL0     H50744  -0.785   7.819   5.453 -1.8769 -1.2958 -0.4172
  376MOL0     H50745  -0.549   7.797   5.375 -1.9706  0.2841  1.6509
  376MOL0     H50746   1.274   8.274   5.924  2.4302  0.8846  0.9919
  376MOL0     H50747   1.450   8.410   5.968 -0.9226 -0.2561 -1.4273
  376MOL0     H50748   1.699   8.638   5.999  2.5756  0.3339 -1.0685
  376MOL0     H50749   1.903   8.690   6.114 -1.9720 -1.9146 -3.5960
  376MOL0     H50750   2.170   8.877   6.271 -0.9859 -2.1625  2.6195
  376MOL0     H50751   2.074   8.745   6.230 -0.6635  0.7651  1.3112
  376MOL0     H50752   2.185   8.970   6.046 -0.7848 -0.0307 -0.6970
  376MOL0     H50753   2.055   8.873   5.990  0.2194  5.9162 -1.0053
  376MOL0     H50754   2.329   8.770   6.081  0.0275  0.8463 -0.2214
  376MOL0     H50755   2.284   8.806   5.911  1.7893  1.1233 -0.5906
  376MOL0     H50756   2.167   8.588   6.095 -2.6077  0.7929  0.1140
  376MOL0     H50757   2.271   8.568   5.949  0.6967 -0.2396  3.2203
  376MOL0     H50758   1.916   8.564   5.750 -0.0420 -0.4540  0.7788
  376MOL0     H50759   1.768   9.090   6.199  0.8173 -0.5942 -0.5460
  376MOL0     H50760   1.552   9.033   6.061 -2.6987 -1.6380  2.1893
  377MOL0     O50761   9.007   3.375  10.562 -0.6161 -0.9273  0.3970
  377MOL0     C50762   8.960   3.287  10.487 -0.1753  0.3676  0.2864
  377MOL0     O50763   8.898   3.300  10.369 -1.2616 -0.1334  0.8485
  377MOL0     C50764   8.883   3.423  10.296 -0.3218 -0.2529 -0.3334
  377MOL0     C50765   8.888   3.559  10.353 -0.5885  0.0017  0.7523
  377MOL0     C50766   8.860   3.674  10.271 -0.2534  0.2197  0.0441
  377MOL0     C50767   8.826   3.652  10.137  0.6106  0.1272  0.3721
  377MOL0     O50768   8.765   3.750  10.065  0.8003 -0.2033 -0.6706
  377MOL0     C50769   8.737   3.734   9.922  0.0476  0.0601 -0.1113
  377MOL0     C50770   8.673   3.865   9.879 -0.1641  0.3877 -0.8344
  377MOL0     C50771   8.778   3.974   9.844  0.7423  0.8084 -0.1306
  377MOL0     C50772   8.706   4.092   9.784 -0.1075  0.4460  0.8912
  377MOL0     C50773   8.779   4.217   9.753  0.6022 -0.3409 -0.3969
  377MOL0     C50774   8.897   4.200   9.659  0.1397 -0.0575  0.9459
  377MOL0     C50775   8.971   4.332   9.624  0.0471 -0.8772  0.0053
  377MOL0     C50776   8.911   4.390   9.496  0.5988  0.1915 -0.7334
  377MOL0     N50777   8.918   4.312   9.367  0.3254  0.5095 -0.2904
  377MOL0     C50778   9.022   4.319   9.279 -0.4490  0.0633  0.2240
  377MOL0     C50779   8.991   4.245   9.172 -0.7250  0.1664  0.9208
  377MOL0     C50780   9.084   4.202   9.063 -1.1845 -0.0492 -0.1279
  377MOL0     C50781   9.015   4.195   8.926  0.6393 -0.3896 -0.1984
  377MOL0     C50782   9.032   4.318   8.857 -0.8009  0.1488  1.5585
  377MOL0     C50783   8.970   4.325   8.709 -0.0451 -0.4245  0.0516
  377MOL0     O50784   9.069   4.280   8.617  0.3467  0.9553 -0.4548
  377MOL0     C50785   9.048   4.340   8.499 -0.3928 -0.1345  0.3933
  377MOL0     C50786   9.139   4.438   8.475  0.0809 -0.1389  0.4586
  377MOL0     C50787   9.145   4.507   8.354 -0.1603  0.1150  0.6944
  377MOL0     C50788   9.260   4.609   8.362 -0.0637 -0.1047  0.4122
  377MOL0     C50789   9.061   4.477   8.245 -0.6239  0.0093  0.7720
  377MOL0     C50790   9.080   4.545   8.113  0.5030  0.0927  0.8212
  377MOL0     O50791   9.031   4.476   8.016 -0.5240  0.4023  0.7624
  377MOL0     C50792   8.973   4.527   7.896  0.5669 -0.4459 -0.1901
  377MOL0     C50793   9.049   4.606   7.817  0.0636 -1.8908  0.7407
  377MOL0     C50794   9.008   4.672   7.700  0.0378 -0.7573  0.5604
  377MOL0     C50795   8.868   4.668   7.666 -0.5355  0.4489 -0.5857
  377MOL0     O50796   8.811   4.730   7.557  0.4417 -0.4818 -0.1813
  377MOL0     C50797   8.855   4.669   7.433  0.3520 -0.9433  0.1475
  377MOL0     C50798   8.812   4.774   7.319 -1.2302 -0.0185 -0.3221
  377MOL0     C50799   8.655   4.796   7.306 -0.8767 -0.3891  0.1651
  377MOL0     C50800   8.627   4.945   7.303  0.6177  0.0242  0.3604
  377MOL0     C50801   8.494   4.984   7.368 -0.4807 -0.4131  0.1803
  377MOL0     C50802   8.517   4.992   7.523  0.2589 -0.1688 -0.5579
  377MOL0     C50803   8.385   5.020   7.600 -0.8365  0.4661 -0.3571
  377MOL0     C50804   8.327   5.154   7.559 -0.7171 -0.9185  0.6930
  377MOL0    Cl50805   8.431   5.288   7.587 -0.4882 -0.1151 -0.0364
  377MOL0     C50806   8.790   4.590   7.739  0.5675  0.0495  0.2817
  377MOL0     C50807   8.839   4.516   7.849  0.5504 -0.8898 -0.3071
  377MOL0     O50808   9.141   4.649   8.103 -0.0053 -0.3583 -0.3252
  377MOL0     C50809   8.971   4.372   8.275  0.6214  0.8371  0.1774
  377MOL0     C50810   8.964   4.301   8.400  0.1757  1.2883 -0.0879
  377MOL0     N50811   8.867   4.196   9.198  0.4172 -0.6219 -0.2829
  377MOL0     N50812   8.815   4.236   9.306 -0.1400 -0.5406 -1.2697
  377MOL0     C50813   8.846   3.523  10.081 -0.5548  0.1730  0.1617
  377MOL0     C50814   8.875   3.411  10.159 -0.0057 -0.0763 -0.2545
  377MOL0     C50815   8.987   3.150  10.543  0.7014 -0.7733  0.3121
  377MOL0     C50816   8.923   3.030  10.492  0.5258  0.7755  0.9928
  377MOL0     C50817   8.957   2.905  10.532  0.3047  0.7749 -1.0688
  377MOL0     C50818   9.058   2.887  10.636  0.3411 -0.1196  0.1262
  377MOL0     O50819   9.108   2.764  10.670 -0.1881  0.6250  0.8664
  377MOL0     C50820   9.030   2.643  10.621  0.4529 -0.1557 -0.5892
  377MOL0     C50821   9.112   2.521  10.639  0.3657  0.1253  0.1110
  377MOL0     C50822   9.025   2.396  10.615 -0.0105 -0.2112 -0.0312
  377MOL0     C50823   8.991   2.343  10.748  0.0879 -0.4386 -0.8402
  377MOL0     C50824   8.872   2.406  10.807 -0.3950  0.3025 -0.4228
  377MOL0     C50825   8.770   2.449  10.838 -0.5052 -0.4636  0.2748
  377MOL0     C50826   9.121   3.005  10.688  0.4999 -0.0966  0.2657
  377MOL0     C50827   9.080   3.124  10.644 -1.0045 -0.1291  0.4679
  377MOL0     H50828   8.905   3.580  10.458  1.0156 -3.2028  1.2520
  377MOL0     H50829   8.836   3.766  10.324  1.2222  0.7573 -0.1694
  377MOL0     H50830   8.829   3.714   9.866 -1.5731 -1.5042 -2.3587
  377MOL0     H50831   8.667   3.651   9.915 -0.1825  0.3292 -1.1251
  377MOL0     H50832   8.595   3.857   9.802 -2.5533  0.1027  1.4554
  377MOL0     H50833   8.618   3.909   9.964 -0.8311 -0.3959 -0.8486
  377MOL0     H50834   8.853   3.990   9.921  2.6666 -3.8212 -0.7221
  377MOL0     H50835   8.834   3.944   9.755 -1.7294 -0.5131 -1.3522
  377MOL0     H50836   8.668   4.072   9.683 -1.3454  2.4254  0.9186
  377MOL0     H50837   8.612   4.105   9.837 -1.4779 -2.0652 -0.7193
  377MOL0     H50838   8.710   4.288   9.707 -1.4117 -3.1980 -2.1089
  377MOL0     H50839   8.813   4.265   9.846  5.1094  2.2230 -3.0269
  377MOL0     H50840   8.978   4.144   9.705  3.0765  2.4568 -0.7867
  377MOL0     H50841   8.866   4.166   9.560  2.5041  2.3684 -0.7706
  377MOL0     H50842   8.986   4.402   9.707  1.0860 -0.3586 -0.5920
  377MOL0     H50843   9.073   4.306   9.594 -0.7584 -1.7783 -2.1612
  377MOL0     H50844   8.947   4.492   9.482  0.4564  0.3490  0.0068
  377MOL0     H50845   8.806   4.399   9.523  0.4158  0.8548 -1.6269
  377MOL0     H50846   9.113   4.375   9.290 -0.6104 -0.1596  4.3078
  377MOL0     H50847   9.173   4.265   9.063  2.0134 -4.0887  0.9300
  377MOL0     H50848   9.124   4.106   9.098 -1.0584 -0.5879 -1.6969
  377MOL0     H50849   8.909   4.170   8.929  0.4427  0.5255  0.8958
  377MOL0     H50850   9.059   4.117   8.863 -1.4893 -0.7757 -1.2597
  377MOL0     H50851   9.140   4.327   8.841 -1.0075 -1.4162 -1.2286
  377MOL0     H50852   8.988   4.398   8.918 -1.0282  0.2037  1.3221
  377MOL0     H50853   8.931   4.426   8.695 -3.7304 -1.3757  2.1986
  377MOL0     H50854   8.882   4.262   8.695 -0.5290  0.4469 -0.9951
  377MOL0     H50855   9.192   4.479   8.561 -3.2320  2.0301  1.6536
  377MOL0     H50856   9.237   4.710   8.326  0.3751  0.1571  0.8562
  377MOL0     H50857   9.312   4.623   8.457  1.8069 -1.4056 -0.3510
  377MOL0     H50858   9.330   4.582   8.283 -0.5674 -1.3020  0.3442
  377MOL0     H50859   9.152   4.628   7.846 -0.0562  0.1009 -0.1952
  377MOL0     H50860   9.076   4.733   7.642 -0.1922 -1.1142 -0.0920
  377MOL0     H50861   8.958   4.636   7.421  0.0109 -1.5868 -1.2307
  377MOL0     H50862   8.795   4.580   7.414  0.5756 -1.4189  1.5373
  377MOL0     H50863   8.873   4.863   7.337 -0.7888 -0.1404 -1.1769
  377MOL0     H50864   8.837   4.728   7.223 -3.2741 -1.7950 -0.0693
  377MOL0     H50865   8.600   4.761   7.394 -3.8988  5.7382  1.3208
  377MOL0     H50866   8.614   4.750   7.215  2.3031  0.8676 -2.0908
  377MOL0     H50867   8.708   4.992   7.359  0.9590 -1.7265  1.4248
  377MOL0     H50868   8.644   4.984   7.202  0.4427 -1.1304 -0.1299
  377MOL0     H50869   8.417   4.912   7.339  1.1347 -1.7650 -0.9860
  377MOL0     H50870   8.467   5.083   7.330  0.3201 -0.7251 -1.2797
  377MOL0     H50871   8.547   4.893   7.556  3.1073  0.3122 -1.4460
  377MOL0     H50872   8.595   5.067   7.538  0.1215  0.4521 -2.6002
  377MOL0     H50873   8.404   5.012   7.707  1.0385  3.2538 -0.3615
  377MOL0     H50874   8.313   4.940   7.581 -1.2876  1.0996 -1.3905
  377MOL0     H50875   8.238   5.169   7.622 -0.6753 -2.4562  1.1569
  377MOL0     H50876   8.285   5.138   7.460 -0.9570 -1.4403  0.8742
  377MOL0     H50877   8.687   4.585   7.704  0.8375  0.9449 -0.7001
  377MOL0     H50878   8.762   4.469   7.909 -1.7951  0.3475 -2.1875
  377MOL0     H50879   8.895   4.361   8.197  0.2073  3.9095  0.0457
  377MOL0     H50880   8.888   4.225   8.419  1.5620  0.7266  4.3893
  377MOL0     H50881   8.835   3.504   9.975  0.7418 -0.5227  0.1226
  377MOL0     H50882   8.890   3.316  10.110  1.4902  0.0982 -0.1765
  377MOL0     H50883   8.860   3.035  10.404 -0.4572  0.9602  1.6939
  377MOL0     H50884   8.908   2.827  10.473 -3.5235  0.4710  2.1197
  377MOL0     H50885   8.936   2.632  10.676  1.7107  0.0368  1.6989
  377MOL0     H50886   8.992   2.654  10.519 -1.9632 -3.6041 -0.2552
  377MOL0     H50887   9.173   2.519  10.730  0.8008  1.3602 -0.1308
  377MOL0     H50888   9.185   2.522  10.557  2.1069 -1.4793  1.5550
  377MOL0     H50889   9.095   2.324  10.571 -1.5978 -1.4712 -0.6182
  377MOL0     H50890   8.940   2.405  10.547  1.9749 -0.7207 -2.7650
  377MOL0     H50891   9.074   2.354  10.818  0.0514 -2.4540 -0.4083
  377MOL0     H50892   8.975   2.235  10.737 -0.2009 -0.3872 -0.9184
  377MOL0     H50893   8.680   2.496  10.874  0.1924  1.3166 -0.2068
  377MOL0     H50894   9.206   2.989  10.753  0.1415 -2.7634  0.1904
  377MOL0     H50895   9.127   3.207  10.696  1.9545 -1.3362 -0.0321
  378MOL0     O50896   4.714   1.434   8.626  0.4585  1.2191  0.8226
  378MOL0     C50897   4.774   1.349   8.688  0.0072 -0.2927 -0.2294
  378MOL0     O50898   4.764   1.327   8.832 -0.9493 -0.4989 -0.3774
  378MOL0     C50899   4.693   1.417   8.909 -0.2814  0.0762 -0.3879
  378MOL0     C50900   4.553   1.452   8.889 -0.4483  0.0783 -0.4741
  378MOL0     C50901   4.491   1.543   8.979 -0.7246 -0.2561 -0.7102
  378MOL0     C50902   4.561   1.594   9.089 -1.0676  0.5549  0.8177
  378MOL0     O50903   4.512   1.685   9.179  0.4706  0.0876 -0.4842
  378MOL0     C50904   4.377   1.731   9.166 -0.0073  0.3096  0.1391
  378MOL0     C50905   4.347   1.796   9.303  0.0862 -0.2918  1.3452
  378MOL0     C50906   4.463   1.873   9.375  0.1898  0.0775  0.2711
  378MOL0     C50907   4.418   2.015   9.408  0.2320 -0.5509 -0.1940
  378MOL0     C50908   4.528   2.107   9.472  0.5414 -0.3423 -0.2225
  378MOL0     C50909   4.477   2.252   9.490 -0.0466 -0.8615  0.9111
  378MOL0     C50910   4.546   2.344   9.598 -0.5531  0.5740 -0.1890
  378MOL0     C50911   4.501   2.497   9.579 -0.7605  0.8509 -0.7207
  378MOL0     N50912   4.351   2.509   9.590  0.1905  0.0052 -0.6452
  378MOL0     C50913   4.260   2.519   9.482  0.4844  0.7181  1.0465
  378MOL0     C50914   4.141   2.526   9.539 -1.2450 -0.0899  0.4229
  378MOL0     C50915   4.019   2.546   9.457 -0.2329  0.6485 -0.5357
  378MOL0     C50916   3.963   2.679   9.455  0.8423 -0.7772 -0.6558
  378MOL0     C50917   3.836   2.704   9.545  0.1261  0.4153  0.0551
  378MOL0     C50918   3.703   2.688   9.470  0.1745  1.1483 -0.2867
  378MOL0     O50919   3.672   2.552   9.430 -0.3095 -0.3094  0.5117
  378MOL0     C50920   3.549   2.518   9.389  0.2701 -1.0849  0.3349
  378MOL0     C50921   3.529   2.390   9.355 -0.3000  0.7320  0.1441
  378MOL0     C50922   3.410   2.338   9.305  0.8310  0.7589 -0.6026
  378MOL0     C50923   3.406   2.185   9.280 -0.6925  0.5365  0.2774
  378MOL0     C50924   3.291   2.419   9.296 -0.0568  0.0769 -2.0298
  378MOL0     C50925   3.155   2.380   9.256  0.1476 -0.5058  0.1165
  378MOL0     O50926   3.055   2.480   9.264 -0.7129  0.7691  0.7733
  378MOL0     C50927   2.933   2.454   9.193 -0.9876 -0.1310 -0.0492
  378MOL0     C50928   2.807   2.489   9.253 -0.5409  0.4992 -0.1557
  378MOL0     C50929   2.688   2.478   9.177  0.2722  0.6534  0.6605
  378MOL0     C50930   2.690   2.423   9.049 -0.0401  0.2910  0.8660
  378MOL0     O50931   2.571   2.397   8.976 -0.1416 -0.0939  0.3652
  378MOL0     C50932   2.531   2.256   8.980 -0.2646  0.3418 -0.6671
  378MOL0     C50933   2.541   2.205   8.839  0.3090  0.0263  0.1591
  378MOL0     C50934   2.417   2.255   8.763  0.4157 -0.6970 -0.0672
  378MOL0     C50935   2.405   2.187   8.619  0.4312 -0.1721  0.5809
  378MOL0     C50936   2.274   2.233   8.547  0.2746  0.2477 -0.0940
  378MOL0     C50937   2.284   2.369   8.474 -0.4317  1.0243 -0.3370
  378MOL0     C50938   2.161   2.429   8.423  0.1646  0.2260 -0.2852
  378MOL0     C50939   2.206   2.536   8.318  0.9621 -0.0284  0.1870
  378MOL0    Cl50940   2.071   2.618   8.225 -0.1839  0.0768 -0.3288
  378MOL0     C50941   2.814   2.372   8.997 -0.4737 -0.1359 -0.4728
  378MOL0     C50942   2.935   2.393   9.063  0.6936 -0.6073  0.3116
  378MOL0     O50943   3.135   2.266   9.229 -0.1185 -0.3774 -0.4903
  378MOL0     C50944   3.311   2.551   9.339 -0.0151 -0.5916  0.8226
  378MOL0     C50945   3.436   2.598   9.380 -0.6276 -0.6307 -0.5817
  378MOL0     N50946   4.159   2.517   9.675  0.0205  0.2106  0.1388
  378MOL0     N50947   4.282   2.494   9.707  0.5652 -0.8109 -0.2885
  378MOL0     C50948   4.695   1.553   9.111 -0.0599  0.3339  0.2876
  378MOL0     C50949   4.756   1.458   9.019  0.1197 -0.9070  0.1882
  378MOL0     C50950   4.845   1.253   8.602  0.1919  1.0261 -1.3122
  378MOL0     C50951   4.904   1.138   8.661  1.0107  0.1706  0.0766
  378MOL0     C50952   4.972   1.049   8.582 -0.7832 -0.1772  0.9394
  378MOL0     C50953   4.978   1.065   8.437 -0.8213 -0.1284  1.0982
  378MOL0     O50954   5.046   0.984   8.353  0.0752 -0.0167 -0.6350
  378MOL0     C50955   5.137   0.881   8.407  0.0608 -0.7611 -0.0411
  378MOL0     C50956   5.201   0.801   8.294 -0.4486  1.7953 -0.3385
  378MOL0     C50957   5.098   0.719   8.218  0.5028  0.4886  0.1768
  378MOL0     C50958   4.992   0.787   8.136 -0.7860  0.4324  0.1961
  378MOL0     C50959   5.055   0.854   8.025  0.5562 -0.4802 -0.0144
  378MOL0     C50960   5.103   0.901   7.921  1.3330  0.5714 -0.2248
  378MOL0     C50961   4.889   1.158   8.380 -0.7573  0.0776  0.0515
  378MOL0     C50962   4.833   1.257   8.465 -0.6768  0.6408  0.3430
  378MOL0     H50963   4.495   1.418   8.804 -0.6081  1.4165 -0.9202
  378MOL0     H50964   4.388   1.572   8.959 -1.6004 -0.6726  2.5742
  378MOL0     H50965   4.365   1.791   9.075 -0.5114 -4.4249 -3.2860
  378MOL0     H50966   4.305   1.650   9.161  0.2007 -0.2243  3.4122
  378MOL0     H50967   4.256   1.856   9.296 -0.5022 -1.3139 -0.1923
  378MOL0     H50968   4.313   1.714   9.366  1.0032  0.0334  2.2941
  378MOL0     H50969   4.479   1.821   9.470 -0.2694  1.3562  1.0620
  378MOL0     H50970   4.553   1.878   9.314 -0.5377 -0.4175 -0.8937
  378MOL0     H50971   4.371   2.052   9.317 -2.3469  2.7972  2.2426
  378MOL0     H50972   4.338   2.005   9.482  1.7557 -1.6328  1.4143
  378MOL0     H50973   4.541   2.066   9.573 -0.9699  1.8321  0.9229
  378MOL0     H50974   4.625   2.099   9.422  0.6806 -0.4289  0.0623
  378MOL0     H50975   4.486   2.315   9.401  1.0771 -0.0268  1.5747
  378MOL0     H50976   4.369   2.250   9.501 -0.3322 -1.0670 -1.4900
  378MOL0     H50977   4.517   2.308   9.698  0.9082 -0.6992 -0.1891
  378MOL0     H50978   4.654   2.342   9.581  0.0337  1.0170  2.8995
  378MOL0     H50979   4.529   2.520   9.475 -0.2891 -3.2364 -1.6847
  378MOL0     H50980   4.550   2.558   9.655 -0.1321 -1.4597  0.8333
  378MOL0     H50981   4.279   2.532   9.375 -1.1759  0.5724  0.7080
  378MOL0     H50982   4.055   2.526   9.356  0.0743 -1.3701 -0.0697
  378MOL0     H50983   3.947   2.468   9.481  0.5202 -0.0888 -0.6325
  378MOL0     H50984   3.926   2.705   9.355  0.9308 -0.0138 -0.4993
  378MOL0     H50985   4.046   2.749   9.472 -0.9201  1.1727  0.4446
  378MOL0     H50986   3.833   2.803   9.591 -2.9873  0.4906 -0.0785
  378MOL0     H50987   3.838   2.637   9.631  0.5520  0.5242  0.1302
  378MOL0     H50988   3.698   2.758   9.386  0.0602  3.5189  1.5582
  378MOL0     H50989   3.622   2.713   9.539 -1.0581 -0.3091 -1.1409
  378MOL0     H50990   3.616   2.326   9.364 -1.0301 -0.2365  0.5067
  378MOL0     H50991   3.405   2.172   9.172 -1.3292  1.0380  0.2166
  378MOL0     H50992   3.485   2.124   9.324 -0.1602  2.0819  1.5322
  378MOL0     H50993   3.321   2.136   9.329 -0.9217 -0.5300 -1.1432
  378MOL0     H50994   2.809   2.502   9.360 -2.0417  1.0683 -0.1726
  378MOL0     H50995   2.597   2.533   9.203  0.0592  0.5186  0.2167
  378MOL0     H50996   2.591   2.207   9.057  0.8724  6.7234  3.2512
  378MOL0     H50997   2.429   2.248   9.018 -0.5644  0.7012 -1.3653
  378MOL0     H50998   2.633   2.241   8.791 -0.4039  1.0851 -0.4410
  378MOL0     H50999   2.543   2.095   8.838 -0.5596  0.0132 -1.0561
  378MOL0     H51000   2.426   2.364   8.754  2.3249 -0.6349  1.8571
  378MOL0     H51001   2.318   2.233   8.805 -0.1059  0.8012 -0.4491
  378MOL0     H51002   2.502   2.197   8.570  0.8848 -0.9248  1.2937
  378MOL0     H51003   2.404   2.077   8.618 -0.0075 -0.1759 -0.8846
  378MOL0     H51004   2.194   2.243   8.620  1.0071 -3.9484  1.5130
  378MOL0     H51005   2.240   2.151   8.483 -1.2510  1.3223 -0.7294
  378MOL0     H51006   2.312   2.435   8.557 -1.2576  0.5467  0.3400
  378MOL0     H51007   2.351   2.363   8.388 -0.7555  1.5187 -0.6288
  378MOL0     H51008   2.097   2.482   8.494  1.4177  4.7959 -2.2196
  378MOL0     H51009   2.096   2.353   8.378 -0.1363  1.3599 -1.8297
  378MOL0     H51010   2.272   2.478   8.253  0.1744 -3.8166  2.4043
  378MOL0     H51011   2.262   2.621   8.359 -0.3889  1.1358 -0.3293
  378MOL0     H51012   2.817   2.327   8.899 -2.5987 -0.0626 -0.6274
  378MOL0     H51013   3.026   2.343   9.030 -0.0022 -2.4027  1.0205
  378MOL0     H51014   3.240   2.633   9.328  1.4760  0.4580 -1.7686
  378MOL0     H51015   3.451   2.702   9.408  1.7034 -1.1087  0.1571
  378MOL0     H51016   4.751   1.603   9.189 -1.2492  3.9520 -0.9339
  378MOL0     H51017   4.859   1.429   9.037  0.3384  1.2053  2.8663
  378MOL0     H51018   4.902   1.131   8.769  0.5611 -0.9577  0.0050
  378MOL0     H51019   5.024   0.959   8.613 -0.8340 -0.5715 -0.0887
  378MOL0     H51020   5.225   0.922   8.458  0.4804 -0.1935 -1.1689
  378MOL0     H51021   5.078   0.817   8.473  2.6493 -0.8690  2.3875
  378MOL0     H51022   5.275   0.727   8.326 -1.2524  0.6176 -1.1308
  378MOL0     H51023   5.257   0.855   8.217  1.7630 -0.9349 -0.8201
  378MOL0     H51024   5.056   0.648   8.290 -1.7844  1.4811 -0.0947
  378MOL0     H51025   5.168   0.661   8.157 -0.2475 -0.4371  0.1702
  378MOL0     H51026   4.928   0.854   8.193 -0.1573  1.3255 -0.1328
  378MOL0     H51027   4.932   0.705   8.094  0.2796 -0.5715  0.5962
  378MOL0     H51028   5.138   0.934   7.825  1.5539 -1.0273 -0.7237
  378MOL0     H51029   4.877   1.171   8.273 -0.6534 -2.4339 -0.3295
  378MOL0     H51030   4.768   1.335   8.428 -0.1703  0.6198 -0.6178
  379MOL0     O51031   7.017   5.136   7.458  0.6888 -0.2121  1.0558
  379MOL0     C51032   6.895   5.143   7.481 -0.4345 -0.9444 -0.4794
  379MOL0     O51033   6.820   5.253   7.470  0.6839  0.2156 -0.4424
  379MOL0     C51034   6.881   5.358   7.397 -0.3677 -0.9416 -0.1151
  379MOL0     C51035   6.873   5.491   7.463 -0.1903 -0.1133  0.0830
  379MOL0     C51036   6.919   5.607   7.402  0.8573  0.3802  0.3099
  379MOL0     C51037   6.981   5.599   7.280  0.1110  0.2153 -0.5535
  379MOL0     O51038   7.018   5.707   7.214 -0.3219 -0.1919 -0.7492
  379MOL0     C51039   7.101   5.811   7.280  0.4137  0.2670 -0.4126
  379MOL0     C51040   7.189   5.885   7.184  0.4963  0.3409 -0.2106
  379MOL0     C51041   7.311   5.799   7.156  0.5128  0.8482  0.5294
  379MOL0     C51042   7.410   5.877   7.083 -0.3365 -0.0514  0.4008
  379MOL0     C51043   7.530   5.786   7.045  0.6507 -0.0372 -0.4777
  379MOL0     C51044   7.615   5.869   6.944  0.1976  0.4345 -1.2365
  379MOL0     C51045   7.728   5.787   6.878  0.2492 -0.2886  0.4268
  379MOL0     C51046   7.676   5.686   6.769  0.2111 -0.2956  0.4758
  379MOL0     N51047   7.768   5.583   6.709 -0.0694 -0.7781  0.1414
  379MOL0     C51048   7.825   5.480   6.770 -0.2796  0.0811  0.2209
  379MOL0     C51049   7.911   5.418   6.674 -0.2636 -0.1883 -0.5385
  379MOL0     C51050   7.976   5.280   6.691 -0.8570  0.6106  1.0637
  379MOL0     C51051   7.934   5.166   6.597  0.7177 -0.4291  0.4727
  379MOL0     C51052   8.027   5.041   6.599 -0.1728  0.6947 -0.2943
  379MOL0     C51053   8.010   4.982   6.743  0.1220 -0.1604 -0.2103
  379MOL0     O51054   7.879   4.973   6.790 -0.0043  0.7472 -0.1914
  379MOL0     C51055   7.826   4.845   6.790 -0.1995 -0.1861  0.4842
  379MOL0     C51056   7.789   4.790   6.908 -0.4605 -0.0066 -0.2636
  379MOL0     C51057   7.715   4.669   6.920 -0.3118 -0.6440 -0.4951
  379MOL0     C51058   7.669   4.629   7.057 -0.2864 -0.9735 -0.5735
  379MOL0     C51059   7.688   4.600   6.800  0.7266  0.2788 -0.2264
  379MOL0     C51060   7.600   4.486   6.790  0.1886 -0.3982  0.3812
  379MOL0     O51061   7.486   4.480   6.871 -0.5868 -0.0117 -0.3723
  379MOL0     C51062   7.393   4.376   6.875  0.0087  0.1304 -0.1495
  379MOL0     C51063   7.370   4.278   6.765  0.2124 -0.6626 -0.5417
  379MOL0     C51064   7.266   4.179   6.775  0.9468 -0.6923 -0.6862
  379MOL0     C51065   7.169   4.185   6.877 -0.7010 -0.7563 -0.3522
  379MOL0     O51066   7.069   4.093   6.893 -0.0734  0.0547 -0.6720
  379MOL0     C51067   7.090   3.953   6.894  0.2561  0.1645  0.0658
  379MOL0     C51068   6.960   3.883   6.876 -0.2317 -0.0434  0.7044
  379MOL0     C51069   6.846   3.901   6.974 -0.1097 -0.5565  0.2583
  379MOL0     C51070   6.874   3.836   7.107  0.2034  0.4532 -0.6182
  379MOL0     C51071   6.754   3.863   7.200  0.1855  0.4133 -0.2066
  379MOL0     C51072   6.712   3.743   7.287 -0.2779 -0.0286 -0.7247
  379MOL0     C51073   6.818   3.697   7.396 -0.2535  1.0058  0.0174
  379MOL0     C51074   6.808   3.558   7.445  0.0039 -0.3364 -0.6360
  379MOL0    Cl51075   6.671   3.544   7.564 -0.3667  0.2973 -0.0480
  379MOL0     C51076   7.189   4.291   6.972  0.1006 -0.4727  0.2594
  379MOL0     C51077   7.293   4.380   6.970  0.1748 -1.2999  0.4112
  379MOL0     O51078   7.635   4.400   6.705 -0.6473 -0.6190 -0.6212
  379MOL0     C51079   7.725   4.665   6.680 -0.5427 -0.5160 -0.4016
  379MOL0     C51080   7.800   4.789   6.668  0.4420  1.1538  0.8218
  379MOL0     N51081   7.904   5.494   6.567  0.6936  0.0742  0.2738
  379MOL0     N51082   7.824   5.595   6.588  0.0975  0.5641 -0.3362
  379MOL0     C51083   6.992   5.472   7.220  0.2917 -0.1608 -0.0246
  379MOL0     C51084   6.956   5.354   7.275  1.2710  0.5961 -0.3754
  379MOL0     C51085   6.829   5.020   7.525  0.0618 -1.0364 -0.3093
  379MOL0     C51086   6.693   5.016   7.554  0.3596 -0.1430  0.2424
  379MOL0     C51087   6.626   4.896   7.565 -0.3283  0.4714 -0.1129
  379MOL0     C51088   6.693   4.771   7.571  0.5917 -0.7493  0.1924
  379MOL0     O51089   6.617   4.658   7.580  0.3164  1.2123 -0.9564
  379MOL0     C51090   6.659   4.563   7.483 -0.4700  0.0311 -0.4983
  379MOL0     C51091   6.559   4.461   7.448  0.2396  0.3088 -0.0510
  379MOL0     C51092   6.597   4.382   7.330 -1.0546 -0.0890  0.2345
  379MOL0     C51093   6.501   4.266   7.297 -0.4722 -0.0313 -0.7298
  379MOL0     C51094   6.527   4.147   7.385  0.2546 -0.3720 -0.1005
  379MOL0     C51095   6.553   4.060   7.459  0.5470  0.2127 -0.8587
  379MOL0     C51096   6.834   4.776   7.561 -0.4633 -0.4795  0.6192
  379MOL0     C51097   6.900   4.900   7.542  0.4616 -0.7193 -0.0842
  379MOL0     H51098   6.843   5.510   7.565  1.2751  3.6372 -0.0478
  379MOL0     H51099   6.900   5.699   7.455  1.0899  1.7488 -1.8799
  379MOL0     H51100   7.029   5.887   7.314 -0.9712 -1.7467  1.4934
  379MOL0     H51101   7.159   5.755   7.354 -1.9331 -5.5057 -2.3851
  379MOL0     H51102   7.136   5.906   7.091  0.6266  0.9464 -0.1539
  379MOL0     H51103   7.218   5.981   7.228  0.5899 -0.0379  0.5707
  379MOL0     H51104   7.354   5.783   7.255  2.3986  3.9691  0.3449
  379MOL0     H51105   7.286   5.710   7.098  0.5392  0.9452  0.3691
  379MOL0     H51106   7.372   5.920   6.990  3.3295  2.1478 -0.2661
  379MOL0     H51107   7.440   5.973   7.126 -4.8694  0.6452  2.6584
  379MOL0     H51108   7.595   5.752   7.126  0.0717 -0.5722 -0.2325
  379MOL0     H51109   7.487   5.693   7.009  1.6698 -1.6851  2.2807
  379MOL0     H51110   7.555   5.909   6.861 -1.0401  0.7884 -0.2072
  379MOL0     H51111   7.665   5.953   6.992 -3.1330  2.0131 -0.2175
  379MOL0     H51112   7.798   5.856   6.831 -0.8112  1.8571  1.8184
  379MOL0     H51113   7.767   5.730   6.963 -1.7897 -0.2854  1.4367
  379MOL0     H51114   7.656   5.738   6.675 -1.7716 -1.0384  0.4416
  379MOL0     H51115   7.584   5.639   6.806  0.0405  0.7398  1.4481
  379MOL0     H51116   7.813   5.453   6.874  0.4095 -0.7866  0.0963
  379MOL0     H51117   8.080   5.305   6.668 -0.8448 -0.5300 -0.2389
  379MOL0     H51118   7.965   5.237   6.791  0.8518  1.0551  1.4751
  379MOL0     H51119   7.938   5.201   6.493 -0.0307 -0.2792  0.4883
  379MOL0     H51120   7.830   5.138   6.612  0.3321 -0.0562 -1.2641
  379MOL0     H51121   8.131   5.072   6.582  0.2898 -0.9353 -0.5500
  379MOL0     H51122   8.001   4.970   6.520 -2.4987  2.3190 -1.0827
  379MOL0     H51123   8.056   5.050   6.815  1.7619  0.0928 -1.4721
  379MOL0     H51124   8.061   4.885   6.744 -0.8510 -0.6852 -0.1449
  379MOL0     H51125   7.811   4.834   7.004 -0.4898 -2.8451  1.1470
  379MOL0     H51126   7.709   4.531   7.083  0.3340 -0.5344  0.1687
  379MOL0     H51127   7.697   4.694   7.140 -0.7268  0.5586 -1.5881
  379MOL0     H51128   7.560   4.622   7.061 -0.7281  3.5453  0.8078
  379MOL0     H51129   7.429   4.285   6.674  0.5945  1.1953 -0.1839
  379MOL0     H51130   7.253   4.109   6.694  0.3215  0.1025 -1.2929
  379MOL0     H51131   7.162   3.927   6.815  1.7668  0.1078  1.4108
  379MOL0     H51132   7.128   3.928   6.994  0.4334 -1.8819 -0.4564
  379MOL0     H51133   6.920   3.903   6.776 -1.1430  5.1055  1.8534
  379MOL0     H51134   6.990   3.778   6.887  1.6462  0.5534  1.8389
  379MOL0     H51135   6.759   3.846   6.938 -1.3052  1.1842  0.3833
  379MOL0     H51136   6.823   4.007   6.992  3.3863  0.4465 -0.4589
  379MOL0     H51137   6.883   3.728   7.093 -5.4692 -0.3342 -0.5635
  379MOL0     H51138   6.965   3.877   7.152  0.3396 -1.6420  1.2298
  379MOL0     H51139   6.663   3.879   7.141  0.3895 -0.9489 -0.9194
  379MOL0     H51140   6.773   3.944   7.271 -2.0138 -0.5520  1.5903
  379MOL0     H51141   6.623   3.765   7.347 -0.2080 -1.8462  0.1205
  379MOL0     H51142   6.701   3.663   7.213  2.3150 -0.1746 -1.0390
  379MOL0     H51143   6.814   3.750   7.491 -0.5946 -4.3926  3.4263
  379MOL0     H51144   6.919   3.713   7.357  0.4411 -3.2880 -0.4634
  379MOL0     H51145   6.906   3.525   7.480  1.0418  3.3835  0.3977
  379MOL0     H51146   6.782   3.496   7.358 -0.9402  1.4847 -1.7159
  379MOL0     H51147   7.115   4.291   7.052 -0.0831  2.4076  0.1888
  379MOL0     H51148   7.298   4.453   7.050 -0.5497  3.2911 -3.3340
  379MOL0     H51149   7.706   4.624   6.582 -0.4014  1.8739 -1.4884
  379MOL0     H51150   7.830   4.841   6.577 -2.7774  2.3301  0.3072
  379MOL0     H51151   7.030   5.461   7.119  0.0624 -0.8967 -0.0343
  379MOL0     H51152   6.966   5.258   7.226 -1.1798  0.2673 -0.3703
  379MOL0     H51153   6.635   5.107   7.556 -3.2790 -2.0924 -2.7353
  379MOL0     H51154   6.517   4.895   7.568 -0.3174 -0.1717  1.9393
  379MOL0     H51155   6.671   4.619   7.390  0.8371 -0.2030 -0.4913
  379MOL0     H51156   6.763   4.533   7.502 -0.3534  0.1284 -0.9744
  379MOL0     H51157   6.457   4.499   7.432 -0.5570 -2.1978 -1.4932
  379MOL0     H51158   6.554   4.391   7.532 -2.0229  1.3676  0.8031
  379MOL0     H51159   6.700   4.345   7.325 -1.6269 -1.7113 -0.2865
  379MOL0     H51160   6.584   4.450   7.246 -0.7117  0.0396  0.2820
  379MOL0     H51161   6.524   4.237   7.195 -0.3992  0.2362 -0.7894
  379MOL0     H51162   6.396   4.278   7.324  0.3608 -0.4799  3.4153
  379MOL0     H51163   6.577   3.977   7.521 -0.2378  1.2917  0.9822
  379MOL0     H51164   6.885   4.682   7.579 -3.3459 -2.3347 -0.2027
  379MOL0     H51165   7.008   4.898   7.546  0.6229 -6.4879  1.7723
  380MOL0     O51166   4.412   5.591   8.195  0.0684  0.0330 -0.2779
  380MOL0     C51167   4.477   5.551   8.098  0.6624  0.1760  0.5227
  380MOL0     O51168   4.480   5.602   7.974 -0.2946 -0.5543  0.3799
  380MOL0     C51169   4.393   5.708   7.954 -0.7513 -0.3835 -0.0356
  380MOL0     C51170   4.448   5.839   7.970  0.5037 -0.4077  0.1122
  380MOL0     C51171   4.363   5.942   7.955 -0.0725  0.2244 -0.2999
  380MOL0     C51172   4.228   5.926   7.916 -0.2928 -0.0936 -0.4415
  380MOL0     O51173   4.163   6.045   7.907 -0.1878  0.5576  0.2471
  380MOL0     C51174   4.015   6.055   7.922  0.1172 -0.8472 -0.6789
  380MOL0     C51175   3.937   6.068   7.793 -0.1197  0.1427 -0.3548
  380MOL0     C51176   3.788   6.057   7.821  0.0880 -0.2271  0.3914
  380MOL0     C51177   3.728   6.178   7.901 -0.2663  0.1233 -0.4203
  380MOL0     C51178   3.577   6.169   7.892 -0.5198  0.1685  0.1857
  380MOL0     C51179   3.511   6.296   7.971  0.2579  0.0321 -0.1147
  380MOL0     C51180   3.366   6.258   8.030 -0.9858 -0.7988  0.0831
  380MOL0     C51181   3.334   6.362   8.142 -1.1774  1.0432  0.6033
  380MOL0     N51182   3.294   6.494   8.108 -0.2294  0.5334 -0.0862
  380MOL0     C51183   3.172   6.526   8.063  0.3954  0.2162  0.8286
  380MOL0     C51184   3.168   6.662   8.060  0.2386  0.9182  0.6017
  380MOL0     C51185   3.064   6.741   7.998  0.4531  0.0509  0.3159
  380MOL0     C51186   3.006   6.851   8.087 -0.3623  0.0779  0.5298
  380MOL0     C51187   2.905   6.785   8.187  0.6266 -0.8594 -0.3967
  380MOL0     C51188   2.818   6.904   8.225 -1.1309  0.2527  0.7486
  380MOL0     O51189   2.900   7.008   8.284  0.3026 -1.2131  0.2480
  380MOL0     C51190   2.835   7.132   8.304 -0.3858  0.9494  0.5460
  380MOL0     C51191   2.874   7.242   8.230  1.1210 -0.5522  0.3864
  380MOL0     C51192   2.829   7.362   8.254  0.4704  0.2985  0.0600
  380MOL0     C51193   2.881   7.475   8.161  0.2157  0.4187 -0.5447
  380MOL0     C51194   2.732   7.387   8.361  0.6097 -0.1275 -0.1973
  380MOL0     C51195   2.701   7.521   8.420  0.1064 -0.0494  0.5359
  380MOL0     O51196   2.565   7.528   8.457 -0.1529 -0.1711  0.8076
  380MOL0     C51197   2.522   7.660   8.490  1.4786  0.1956  0.3710
  380MOL0     C51198   2.513   7.758   8.391  0.2272  0.6155  0.1552
  380MOL0     C51199   2.458   7.883   8.419 -0.7623 -0.2241 -0.3794
  380MOL0     C51200   2.423   7.914   8.554 -0.2050 -1.2252  0.1639
  380MOL0     O51201   2.364   8.038   8.564  0.1619 -0.6329 -0.1722
  380MOL0     C51202   2.225   8.029   8.612 -0.4510 -0.4289 -0.7119
  380MOL0     C51203   2.126   8.123   8.548 -0.4067 -0.1962 -0.2933
  380MOL0     C51204   2.162   8.276   8.570 -0.1644  0.2733 -0.8469
  380MOL0     C51205   2.055   8.358   8.501 -0.0478  0.0243  0.3946
  380MOL0     C51206   2.108   8.503   8.484  0.8353  0.1241 -0.8448
  380MOL0     C51207   1.994   8.570   8.405  0.5816 -0.1893  0.3335
  380MOL0     C51208   2.012   8.721   8.404  0.9845  0.6525 -0.4256
  380MOL0     C51209   1.948   8.774   8.276 -0.0532  0.4492 -0.8729
  380MOL0    Cl51210   1.990   8.948   8.272 -0.0627  0.5559 -0.0341
  380MOL0     C51211   2.433   7.818   8.655 -0.0537 -0.6018  0.4266
  380MOL0     C51212   2.481   7.692   8.620  0.8088 -0.1493 -0.0352
  380MOL0     O51213   2.786   7.605   8.421  0.5707 -0.3579  0.4141
  380MOL0     C51214   2.687   7.278   8.429  0.1378 -0.4646 -0.4130
  380MOL0     C51215   2.737   7.150   8.395  0.0603  0.3387  1.0576
  380MOL0     N51216   3.289   6.702   8.121 -0.0124 -1.5327  0.7808
  380MOL0     N51217   3.359   6.603   8.157  0.8788  0.2227  0.0125
  380MOL0     C51218   4.178   5.795   7.889 -0.4086  0.0687 -0.3943
  380MOL0     C51219   4.261   5.683   7.913  0.0267 -0.4791 -0.3673
  380MOL0     C51220   4.550   5.418   8.117 -0.0232 -0.2184  0.1094
  380MOL0     C51221   4.630   5.366   8.014  0.3931  0.6280  0.2728
  380MOL0     C51222   4.697   5.244   8.041 -0.4928  0.3476  0.3747
  380MOL0     C51223   4.685   5.170   8.161 -0.8975 -0.2819 -0.2945
  380MOL0     O51224   4.764   5.068   8.203 -0.7544 -0.3412  0.8964
  380MOL0     C51225   4.874   5.038   8.115  0.1428 -0.2503 -0.5618
  380MOL0     C51226   4.960   4.933   8.195 -0.2669  0.0394 -0.3914
  380MOL0     C51227   5.094   4.882   8.140 -0.7158  0.1216  0.5892
  380MOL0     C51228   5.083   4.772   8.031 -0.2666 -0.2564 -0.3419
  380MOL0     C51229   5.025   4.653   8.085 -0.2189 -0.3794  0.0488
  380MOL0     C51230   4.962   4.562   8.135 -0.3974 -0.2446  0.2957
  380MOL0     C51231   4.593   5.214   8.252  0.4624  0.5116  0.3433
  380MOL0     C51232   4.527   5.338   8.234  0.3453 -0.2508  0.4745
  380MOL0     H51233   4.543   5.860   8.018  0.3104 -3.3297  1.9928
  380MOL0     H51234   4.394   6.045   7.964 -0.4190  0.1802  1.6595
  380MOL0     H51235   3.970   5.970   7.975  1.3914 -3.9754 -4.2021
  380MOL0     H51236   4.000   6.144   7.984 -0.1937 -1.0301 -0.4874
  380MOL0     H51237   3.953   6.167   7.750  0.4630  0.2476  0.0825
  380MOL0     H51238   3.970   5.997   7.717  1.2689 -0.3269  0.6199
  380MOL0     H51239   3.741   6.046   7.722 -1.1353 -0.2430  0.9549
  380MOL0     H51240   3.760   5.958   7.857 -4.0516 -0.4687 -2.6330
  380MOL0     H51241   3.767   6.182   8.003 -0.6719  2.5511 -0.3059
  380MOL0     H51242   3.750   6.274   7.854 -0.3347 -0.4355 -1.6406
  380MOL0     H51243   3.537   6.174   7.790 -0.5818  2.7151  0.2480
  380MOL0     H51244   3.547   6.080   7.947  1.2339 -0.2369  0.5366
  380MOL0     H51245   3.577   6.314   8.057  0.6834  0.6916 -0.5690
  380MOL0     H51246   3.496   6.384   7.908 -1.6442 -1.4327 -1.8305
  380MOL0     H51247   3.283   6.258   7.959 -4.3733 -1.6803  3.7021
  380MOL0     H51248   3.370   6.156   8.071  2.5806 -1.5535 -1.7309
  380MOL0     H51249   3.430   6.370   8.195 -0.3355  2.6115 -1.0396
  380MOL0     H51250   3.255   6.318   8.204 -1.6057  0.7058 -0.1689
  380MOL0     H51251   3.085   6.469   8.033  0.3279  2.0099 -3.0155
  380MOL0     H51252   3.096   6.781   7.901 -1.6073 -0.6846 -0.7270
  380MOL0     H51253   2.975   6.685   7.965 -1.7219  3.6254 -0.5249
  380MOL0     H51254   2.962   6.919   8.014 -0.9333 -1.4986 -0.6504
  380MOL0     H51255   3.090   6.904   8.133  0.2143 -0.9971  0.7555
  380MOL0     H51256   2.950   6.731   8.272 -0.9989 -0.9542  0.4463
  380MOL0     H51257   2.839   6.725   8.125  1.5111 -0.8128 -1.4109
  380MOL0     H51258   2.752   6.873   8.306 -1.8626 -1.9424 -0.6063
  380MOL0     H51259   2.758   6.942   8.142  1.2840  2.8491  0.0055
  380MOL0     H51260   2.952   7.235   8.154  0.3735  0.2337 -0.4664
  380MOL0     H51261   2.951   7.527   8.226 -1.4992  1.0650  0.8701
  380MOL0     H51262   2.923   7.444   8.065 -1.1786 -0.2277 -0.9749
  380MOL0     H51263   2.803   7.550   8.148  1.6046  1.7183 -1.6622
  380MOL0     H51264   2.547   7.728   8.292  3.6649 -0.2971  1.4361
  380MOL0     H51265   2.460   7.961   8.344  1.3173  1.6596  1.4809
  380MOL0     H51266   2.202   7.922   8.608  1.9470 -1.0148 -0.6342
  380MOL0     H51267   2.237   8.055   8.718  0.0898 -2.2459 -0.2926
  380MOL0     H51268   2.121   8.107   8.440 -0.6962  2.1783 -0.7033
  380MOL0     H51269   2.030   8.102   8.595 -0.8495 -1.3541 -1.6545
  380MOL0     H51270   2.259   8.306   8.529  0.9991 -0.8174  1.0184
  380MOL0     H51271   2.162   8.297   8.677 -1.3940  0.5786 -0.8897
  380MOL0     H51272   2.028   8.318   8.403 -0.8221 -1.8028  1.3146
  380MOL0     H51273   1.968   8.356   8.567 -0.5337  0.1409 -0.2379
  380MOL0     H51274   2.201   8.497   8.426  0.6396 -3.9864 -1.0884
  380MOL0     H51275   2.114   8.562   8.575 -1.2248 -0.7885 -0.0532
  380MOL0     H51276   1.986   8.525   8.305  0.2897 -0.0828  0.3085
  380MOL0     H51277   1.908   8.537   8.464  0.3584 -1.3094 -0.5684
  380MOL0     H51278   2.118   8.741   8.420  0.7141  1.1757  0.8832
  380MOL0     H51279   1.958   8.773   8.484 -1.0735  1.3120 -2.1366
  380MOL0     H51280   1.842   8.750   8.282  0.1660 -0.0963  1.6832
  380MOL0     H51281   1.986   8.731   8.183  2.5031 -0.4734  0.4964
  380MOL0     H51282   2.411   7.865   8.751  2.3194  1.8646 -0.0920
  380MOL0     H51283   2.497   7.617   8.697 -1.2509 -0.2154  0.3639
  380MOL0     H51284   2.638   7.293   8.525  0.9325  1.5384 -0.2561
  380MOL0     H51285   2.698   7.063   8.447 -2.5336  1.0893  0.5325
  380MOL0     H51286   4.076   5.775   7.856 -0.0332  1.0456 -2.3084
  380MOL0     H51287   4.215   5.585   7.908 -2.5107  0.5461  1.2469
  380MOL0     H51288   4.647   5.406   7.915 -1.1739  0.7435  0.0414
  380MOL0     H51289   4.768   5.211   7.966  1.7595  2.4436  1.4645
  380MOL0     H51290   4.838   4.993   8.022  1.2176 -1.3836 -0.4683
  380MOL0     H51291   4.926   5.132   8.096  1.0499 -0.6965 -0.3737
  380MOL0     H51292   4.888   4.854   8.220  0.6997 -1.1393 -1.2014
  380MOL0     H51293   4.980   4.978   8.293 -1.9893 -3.0243  1.5618
  380MOL0     H51294   5.154   4.851   8.226 -0.4739 -0.1186  0.3361
  380MOL0     H51295   5.134   4.977   8.104  0.2244  0.6084  2.7633
  380MOL0     H51296   5.186   4.755   7.998  0.3212 -0.7215  1.5897
  380MOL0     H51297   5.025   4.817   7.950 -1.6008  0.8032  1.1276
  380MOL0     H51298   4.910   4.481   8.183 -0.9910 -1.4857 -2.2787
  380MOL0     H51299   4.583   5.165   8.349 -0.0752  0.7033  0.3895
  380MOL0     H51300   4.466   5.387   8.309  0.0175 -0.2358  0.2021
  381MOL0     O51301   5.417   7.803  10.126  0.5178 -0.8655 -1.0813
  381MOL0     C51302   5.494   7.820  10.032  0.2860  0.0156 -0.6050
  381MOL0     O51303   5.598   7.911  10.017 -0.3457 -0.9024 -0.0906
  381MOL0     C51304   5.666   7.976  10.120  0.0705 -0.3324 -0.0986
  381MOL0     C51305   5.762   8.071  10.084  0.0874  0.6887  0.6063
  381MOL0     C51306   5.838   8.134  10.185  0.3680  0.1581 -0.3628
  381MOL0     C51307   5.818   8.104  10.324  0.1569  0.2850  0.6954
  381MOL0     O51308   5.897   8.151  10.421 -0.3465  0.0258  0.2446
  381MOL0     C51309   5.915   8.289  10.412 -0.4063 -1.7267 -0.7311
  381MOL0     C51310   5.986   8.331  10.543  0.5585 -0.5069 -0.1376
  381MOL0     C51311   6.130   8.264  10.563  0.1645 -0.5027 -0.4631
  381MOL0     C51312   6.260   8.354  10.550 -0.3242  0.1290  0.0971
  381MOL0     C51313   6.386   8.281  10.492 -0.4245  0.3098  0.1064
  381MOL0     C51314   6.368   8.225  10.351 -0.0376 -0.4175 -0.9929
  381MOL0     C51315   6.334   8.336  10.258  0.9236  0.2789  0.4925
  381MOL0     C51316   6.364   8.301  10.108  0.2678  0.1593  0.0145
  381MOL0     N51317   6.295   8.185  10.050  0.0729 -0.3584  0.2879
  381MOL0     C51318   6.320   8.045  10.084 -0.3763 -0.1556  0.0765
  381MOL0     C51319   6.227   7.983  10.023 -0.2413  1.4330  0.9796
  381MOL0     C51320   6.233   7.827  10.007  0.2347 -0.3563  0.1276
  381MOL0     C51321   6.208   7.786   9.859 -0.5062 -0.7062 -0.5939
  381MOL0     C51322   6.058   7.764   9.838 -0.7698 -0.8750 -0.6281
  381MOL0     C51323   6.022   7.744   9.682  0.6802 -0.6533 -1.5934
  381MOL0     O51324   6.078   7.617   9.642 -0.2772 -0.2602 -0.1800
  381MOL0     C51325   6.060   7.613   9.508 -0.9764 -0.4714 -0.4475
  381MOL0     C51326   6.180   7.608   9.439  0.5635  0.2777 -0.2899
  381MOL0     C51327   6.191   7.590   9.295 -0.8320  0.6938  0.6937
  381MOL0     C51328   6.335   7.567   9.246 -0.6917 -0.1313 -0.0016
  381MOL0     C51329   6.065   7.582   9.221 -0.3582 -0.1312  0.1631
  381MOL0     C51330   6.067   7.570   9.073  1.1460 -2.0035 -0.6608
  381MOL0     O51331   6.114   7.453   9.036 -0.6767 -0.1710 -0.6063
  381MOL0     C51332   6.123   7.436   8.903  0.2852 -0.5954  1.1498
  381MOL0     C51333   6.234   7.368   8.856  0.0848 -1.3149  0.3607
  381MOL0     C51334   6.245   7.322   8.718 -0.1161  0.0218  0.5017
  381MOL0     C51335   6.140   7.352   8.625  0.2376  0.4094  0.6078
  381MOL0     O51336   6.162   7.326   8.494  0.5803  0.4993  0.1224
  381MOL0     C51337   6.092   7.388   8.395  0.7753 -0.6832  0.5529
  381MOL0     C51338   6.159   7.376   8.258 -0.1724  1.0541 -0.7350
  381MOL0     C51339   6.185   7.228   8.217  1.0975  0.3663  0.4990
  381MOL0     C51340   6.150   7.199   8.073 -0.0904  0.0398 -0.3541
  381MOL0     C51341   6.128   7.043   8.059  0.8554  0.0211  0.0954
  381MOL0     C51342   6.099   7.003   7.918  0.1736  0.0804  0.4035
  381MOL0     C51343   6.040   6.865   7.902 -0.0730 -0.2192  0.5778
  381MOL0     C51344   5.884   6.840   7.922 -0.1103  0.2189  0.1220
  381MOL0    Cl51345   5.782   6.955   7.833  0.3959 -0.2327  0.1043
  381MOL0     C51346   6.022   7.411   8.681  0.4013  0.0262 -0.3521
  381MOL0     C51347   6.020   7.463   8.809  0.5425  0.7568  0.0091
  381MOL0     O51348   6.042   7.672   9.010 -0.2739 -0.2849  0.1200
  381MOL0     C51349   5.946   7.587   9.301 -0.7885 -0.2652  0.9227
  381MOL0     C51350   5.941   7.604   9.435 -0.8879 -0.1004  0.2991
  381MOL0     N51351   6.145   8.070   9.966  0.0722 -0.1269  0.9282
  381MOL0     N51352   6.180   8.190   9.975  0.1198 -0.6430  0.2043
  381MOL0     C51353   5.721   8.018  10.361  0.1644  0.0952 -0.1196
  381MOL0     C51354   5.647   7.956  10.262  0.2384  0.7479 -0.3765
  381MOL0     C51355   5.462   7.734   9.925  0.5074  0.1953  1.0288
  381MOL0     C51356   5.349   7.653   9.913 -0.3561 -0.0785 -0.9766
  381MOL0     C51357   5.319   7.597   9.786 -0.0051 -0.3257  0.2611
  381MOL0     C51358   5.405   7.586   9.690  0.8780 -0.6070  0.4630
  381MOL0     O51359   5.388   7.515   9.571  0.5038 -0.4008  0.6667
  381MOL0     C51360   5.438   7.387   9.570  0.4159 -0.0382  0.6615
  381MOL0     C51361   5.329   7.276   9.589  0.7587 -0.0919  0.0842
  381MOL0     C51362   5.398   7.138   9.606 -0.3972  0.3303  0.8779
  381MOL0     C51363   5.290   7.025   9.642 -0.5872 -0.5406 -1.0298
  381MOL0     C51364   5.218   6.973   9.524  0.3959 -0.0948  0.3025
  381MOL0     C51365   5.153   6.940   9.427  0.3933  0.1891 -0.2545
  381MOL0     C51366   5.528   7.646   9.703 -0.6123 -0.1986 -0.9246
  381MOL0     C51367   5.551   7.726   9.816 -0.0365 -0.7703  0.0277
  381MOL0     H51368   5.774   8.108   9.983 -1.9902 -0.1397  0.0064
  381MOL0     H51369   5.924   8.195  10.159  0.7402  0.7673  2.1117
  381MOL0     H51370   5.990   8.307  10.334  0.1915  1.1739  0.3557
  381MOL0     H51371   5.822   8.341  10.387 -0.9384 -0.1344  3.6413
  381MOL0     H51372   5.996   8.440  10.540 -0.4235 -0.3283  1.6395
  381MOL0     H51373   5.920   8.316  10.629  1.1038  0.6877  0.5178
  381MOL0     H51374   6.137   8.218  10.662  1.4475  0.0958 -0.2630
  381MOL0     H51375   6.138   8.175  10.500  1.6213 -1.3909  0.8730
  381MOL0     H51376   6.256   8.446  10.492  0.0146  0.1754  0.1484
  381MOL0     H51377   6.288   8.400  10.645  0.4214  0.5087 -0.2977
  381MOL0     H51378   6.467   8.354  10.497  1.2391 -1.4788  0.2749
  381MOL0     H51379   6.422   8.201  10.558 -1.0820  0.2622  0.4152
  381MOL0     H51380   6.470   8.190  10.332  1.4435  1.5528  2.3687
  381MOL0     H51381   6.301   8.139  10.341 -0.8946 -0.0891  1.2001
  381MOL0     H51382   6.227   8.356  10.260  0.4022 -1.9691 -1.3024
  381MOL0     H51383   6.401   8.421  10.275  0.3291  1.0837 -1.0518
  381MOL0     H51384   6.471   8.277  10.101 -0.3592 -3.0092 -0.0956
  381MOL0     H51385   6.359   8.394  10.049  2.1283 -0.8280 -1.8722
  381MOL0     H51386   6.404   8.001  10.137  1.6346  0.6413 -2.2681
  381MOL0     H51387   6.331   7.788  10.032 -0.1278 -0.8063  0.8869
  381MOL0     H51388   6.165   7.773  10.075  1.5605 -1.7144  0.4282
  381MOL0     H51389   6.257   7.692   9.832  1.0851 -0.6103  1.6862
  381MOL0     H51390   6.242   7.867   9.794 -1.3866 -0.8841 -1.2947
  381MOL0     H51391   5.994   7.844   9.878  0.6512 -0.0743  0.1281
  381MOL0     H51392   6.030   7.678   9.900  2.2384 -0.7246  1.1222
  381MOL0     H51393   6.078   7.824   9.632 -2.9928  0.6265 -4.1235
  381MOL0     H51394   5.915   7.756   9.658  0.3897  3.6341  0.7331
  381MOL0     H51395   6.275   7.609   9.490  2.6921 -0.1058 -3.9110
  381MOL0     H51396   6.345   7.485   9.174  0.6015 -2.4445  2.5722
  381MOL0     H51397   6.354   7.664   9.201  1.5995  1.0610  3.1099
  381MOL0     H51398   6.408   7.555   9.327 -1.6141 -1.0722  0.7146
  381MOL0     H51399   6.310   7.347   8.931  0.9910  0.2913 -0.0671
  381MOL0     H51400   6.337   7.279   8.680  2.2124  2.8490  2.5198
  381MOL0     H51401   5.989   7.352   8.383  0.6225  0.5153 -2.3278
  381MOL0     H51402   6.087   7.493   8.423 -0.7591 -1.1475  2.2538
  381MOL0     H51403   6.098   7.420   8.179  1.2430  0.1416 -2.4235
  381MOL0     H51404   6.255   7.428   8.249  0.6506  0.4028  2.9416
  381MOL0     H51405   6.125   7.164   8.282 -0.5785  2.3395  1.0037
  381MOL0     H51406   6.291   7.214   8.237  1.1969  1.3348  0.7349
  381MOL0     H51407   6.069   7.255   8.026 -0.0541  2.6976  2.4159
  381MOL0     H51408   6.241   7.232   8.020  1.2050  0.1548  1.8204
  381MOL0     H51409   6.043   7.014   8.123 -0.4564  1.2293 -1.0372
  381MOL0     H51410   6.214   6.984   8.092 -1.0214 -2.2521  1.2859
  381MOL0     H51411   6.037   7.086   7.883  0.5526  0.4519  0.6093
  381MOL0     H51412   6.197   7.017   7.873  0.6677 -3.0892  0.3097
  381MOL0     H51413   6.102   6.795   7.958  1.4387 -0.7686 -1.6417
  381MOL0     H51414   6.053   6.843   7.795 -1.7980  1.1254  0.0289
  381MOL0     H51415   5.857   6.828   8.027  0.3455  0.6996  0.3030
  381MOL0     H51416   5.868   6.741   7.879  2.2684 -1.5170  2.9174
  381MOL0     H51417   5.923   7.421   8.636 -1.2782 -0.2705  3.0061
  381MOL0     H51418   5.922   7.502   8.835 -1.0629 -2.1201 -1.2513
  381MOL0     H51419   5.858   7.583   9.238  0.1100 -0.4099 -0.3849
  381MOL0     H51420   5.854   7.607   9.500  0.0830 -0.3756  1.6515
  381MOL0     H51421   5.712   8.013  10.469  2.3513  0.3247  0.1215
  381MOL0     H51422   5.588   7.868  10.287  2.6321 -0.7244  0.4520
  381MOL0     H51423   5.276   7.655   9.993  1.0729  1.7930  0.3691
  381MOL0     H51424   5.227   7.544   9.767 -1.1698  1.7911 -0.3157
  381MOL0     H51425   5.494   7.361   9.480  3.6581  2.2836  1.8116
  381MOL0     H51426   5.509   7.373   9.652  1.5780 -0.2097 -0.3399
  381MOL0     H51427   5.257   7.281   9.507  1.5250 -0.5638 -0.6399
  381MOL0     H51428   5.284   7.292   9.687 -0.7055 -1.2000 -0.3671
  381MOL0     H51429   5.463   7.141   9.694 -0.9441 -1.4615  1.3901
  381MOL0     H51430   5.470   7.101   9.532  2.8749  4.5091  1.5780
  381MOL0     H51431   5.211   7.063   9.708 -1.9550 -0.1626 -2.8218
  381MOL0     H51432   5.338   6.945   9.699  2.4585  2.4902  1.1225
  381MOL0     H51433   5.095   6.910   9.342  0.5430  4.3890 -2.1065
  381MOL0     H51434   5.567   7.638   9.602 -4.2204 -3.0803 -2.3154
  381MOL0     H51435   5.637   7.792   9.812 -0.5151  0.3449  4.0274
  382MOL0     O51436   5.969   6.112   8.513 -0.9009  0.1572  0.0935
  382MOL0     C51437   5.941   6.214   8.575  0.1157  0.3056  0.2036
  382MOL0     O51438   5.815   6.267   8.590  0.2303 -0.6615  0.2142
  382MOL0     C51439   5.711   6.212   8.527 -0.0648  1.2460 -0.2893
  382MOL0     C51440   5.629   6.113   8.591 -0.5621 -0.0882  1.0974
  382MOL0     C51441   5.507   6.077   8.554  0.6400  0.3858  0.0104
  382MOL0     C51442   5.453   6.124   8.426  0.6036 -0.1715  0.1667
  382MOL0     O51443   5.322   6.110   8.389 -0.0885  0.2333  0.2156
  382MOL0     C51444   5.279   5.969   8.393 -0.3110 -0.7488  0.2075
  382MOL0     C51445   5.129   5.972   8.373  0.5350 -0.0704  0.6255
  382MOL0     C51446   5.074   5.850   8.301  0.1903  0.7539  0.3334
  382MOL0     C51447   4.957   5.902   8.214  0.0067  0.5827  0.0843
  382MOL0     C51448   4.861   5.994   8.281 -0.5983 -0.8455  0.2430
  382MOL0     C51449   4.714   5.971   8.234  0.4330  0.3882  0.5145
  382MOL0     C51450   4.600   6.030   8.323  0.2228  0.0718 -0.3798
  382MOL0     C51451   4.473   5.959   8.326  0.4358  0.2938  0.4964
  382MOL0     N51452   4.360   6.029   8.378  0.2020 -0.7484 -0.5713
  382MOL0     C51453   4.239   6.056   8.316 -1.2372 -0.5896  0.4196
  382MOL0     C51454   4.156   6.111   8.399 -1.4090 -0.9534  0.3608
  382MOL0     C51455   4.010   6.155   8.380 -0.0288  0.7810 -0.6216
  382MOL0     C51456   4.008   6.309   8.344 -0.0765 -0.0848  0.5132
  382MOL0     C51457   3.871   6.373   8.298 -0.0974  0.4855 -0.1343
  382MOL0     C51458   3.880   6.516   8.241 -0.1397 -0.0601 -0.8418
  382MOL0     O51459   3.771   6.547   8.154  0.7105  0.5838 -0.4458
  382MOL0     C51460   3.797   6.532   8.024  0.3603  0.1382  0.2944
  382MOL0     C51461   3.706   6.580   7.931  0.7239 -0.8002  0.7438
  382MOL0     C51462   3.734   6.574   7.792 -0.2319 -0.1998 -0.3613
  382MOL0     C51463   3.630   6.631   7.697  0.5404  0.3824  0.0231
  382MOL0     C51464   3.864   6.526   7.748 -0.4550 -0.6251  0.8651
  382MOL0     C51465   3.916   6.535   7.609  0.5073  0.1573 -0.4853
  382MOL0     O51466   3.858   6.620   7.518 -0.5142  0.3231  0.7386
  382MOL0     C51467   3.921   6.632   7.397 -0.1420  0.9102 -0.0187
  382MOL0     C51468   3.896   6.549   7.297 -0.0725 -0.6217  0.3794
  382MOL0     C51469   3.980   6.547   7.189 -0.4509 -0.9688  0.4309
  382MOL0     C51470   4.070   6.653   7.160 -1.0586  0.8367 -0.1081
  382MOL0     O51471   4.166   6.640   7.057 -0.2278  0.1044  0.1069
  382MOL0     C51472   4.301   6.691   7.079 -0.0895  0.4223  0.0325
  382MOL0     C51473   4.395   6.668   6.952  0.2915 -0.1563 -0.6801
  382MOL0     C51474   4.404   6.513   6.930 -0.4082  0.5634  0.3732
  382MOL0     C51475   4.482   6.479   6.799  0.0755 -1.1377 -0.9759
  382MOL0     C51476   4.639   6.487   6.803 -0.1566  0.2975 -0.8362
  382MOL0     C51477   4.704   6.376   6.896 -0.0305  0.3695  0.2014
  382MOL0     C51478   4.708   6.253   6.798  0.2658  0.1190  0.2815
  382MOL0     C51479   4.793   6.140   6.861  0.3899  0.6575 -0.1395
  382MOL0    Cl51480   4.957   6.207   6.885 -0.6212  0.1626 -0.5925
  382MOL0     C51481   4.073   6.752   7.257 -0.2820 -0.4383  0.1985
  382MOL0     C51482   4.006   6.734   7.379 -1.0786  0.0661  0.4284
  382MOL0     O51483   4.004   6.451   7.581 -0.3165 -0.4711 -0.0155
  382MOL0     C51484   3.947   6.464   7.842  0.3625  0.4333  0.2876
  382MOL0     C51485   3.907   6.470   7.974 -0.0386 -0.4533  0.5293
  382MOL0     N51486   4.219   6.112   8.524  0.0797 -0.6912  0.6729
  382MOL0     N51487   4.337   6.063   8.513  0.0864  0.4682  0.8468
  382MOL0     C51488   5.527   6.222   8.358  0.0167 -0.9921 -0.0237
  382MOL0     C51489   5.652   6.268   8.411 -0.3436  0.6732 -0.3224
  382MOL0     C51490   6.047   6.297   8.641 -0.1098  0.2798  0.4658
  382MOL0     C51491   6.032   6.400   8.729  0.0974  0.7273  0.2932
  382MOL0     C51492   6.142   6.466   8.788 -0.4553 -1.0147  0.8867
  382MOL0     C51493   6.274   6.439   8.743  0.2125  0.8165  0.3603
  382MOL0     O51494   6.386   6.503   8.785  0.0994 -0.1566  0.3149
  382MOL0     C51495   6.378   6.607   8.884 -0.6699 -0.1622  0.7042
  382MOL0     C51496   6.386   6.534   9.019  0.4195  1.3802  0.9195
  382MOL0     C51497   6.518   6.468   9.051  0.1819  0.3147  0.2944
  382MOL0     C51498   6.519   6.435   9.200 -0.1596 -0.3232 -1.0045
  382MOL0     C51499   6.443   6.313   9.224  0.4119  0.0322 -0.9229
  382MOL0     C51500   6.384   6.212   9.241  0.9769  0.0925 -0.6024
  382MOL0     C51501   6.284   6.336   8.654  0.4506 -0.1405 -0.3642
  382MOL0     C51502   6.181   6.269   8.608 -0.5564  0.6510  0.8917
  382MOL0     H51503   5.660   6.098   8.694 -0.5800  3.0066  1.6320
  382MOL0     H51504   5.448   6.021   8.627  2.3602 -2.6837 -0.7845
  382MOL0     H51505   5.336   5.919   8.314 -3.4511 -0.4635 -2.4336
  382MOL0     H51506   5.310   5.920   8.485  1.8772 -0.1106 -0.1287
  382MOL0     H51507   5.079   5.982   8.470 -1.7525  0.3272 -0.5130
  382MOL0     H51508   5.099   6.061   8.317 -0.7192  0.6385  2.3083
  382MOL0     H51509   5.160   5.813   8.245  1.4184 -0.3914  2.8153
  382MOL0     H51510   5.045   5.777   8.377 -0.6815 -0.9036 -1.5008
  382MOL0     H51511   5.006   5.960   8.134  1.3925 -0.4279  0.1565
  382MOL0     H51512   4.909   5.821   8.159  0.6544  2.6030 -3.8340
  382MOL0     H51513   4.859   5.966   8.387  1.0743 -0.7135  0.3399
  382MOL0     H51514   4.896   6.098   8.279  1.7942 -1.6026  0.2330
  382MOL0     H51515   4.699   5.989   8.127  0.1213 -2.9435 -0.1047
  382MOL0     H51516   4.703   5.862   8.238  2.0097  0.1595 -0.5655
  382MOL0     H51517   4.626   6.033   8.429 -1.7762 -3.2235  0.3460
  382MOL0     H51518   4.576   6.135   8.302 -3.4046 -0.2741  1.3072
  382MOL0     H51519   4.493   5.872   8.390  0.6549 -0.4458 -0.5494
  382MOL0     H51520   4.448   5.910   8.232 -0.9981  2.1447 -0.1494
  382MOL0     H51521   4.213   6.035   8.213  0.4479  4.0389 -1.2200
  382MOL0     H51522   3.958   6.095   8.305 -1.6836  1.1448  0.1665
  382MOL0     H51523   3.955   6.132   8.472 -3.7155 -1.9386 -3.2053
  382MOL0     H51524   4.077   6.308   8.259  0.1735  1.5360  0.6662
  382MOL0     H51525   4.059   6.370   8.419  1.5137 -1.2519  0.4401
  382MOL0     H51526   3.786   6.372   8.367  0.1206  1.6591  0.1734
  382MOL0     H51527   3.837   6.303   8.221  1.0459 -2.0980  1.5701
  382MOL0     H51528   3.979   6.539   8.199 -0.4887  1.3693 -0.9265
  382MOL0     H51529   3.861   6.575   8.332  0.0038  1.0477 -1.5102
  382MOL0     H51530   3.607   6.619   7.949  0.2206 -1.7642  0.1694
  382MOL0     H51531   3.647   6.576   7.604  0.5995  0.7693 -0.1970
  382MOL0     H51532   3.528   6.623   7.734 -0.4666  6.1825 -0.5843
  382MOL0     H51533   3.641   6.737   7.669  0.0883 -0.0888 -2.1725
  382MOL0     H51534   3.812   6.480   7.306 -1.4441  1.1161  1.5882
  382MOL0     H51535   3.973   6.472   7.111 -1.6080 -0.8529  0.4032
  382MOL0     H51536   4.304   6.799   7.096  0.8082  0.4785 -0.4721
  382MOL0     H51537   4.338   6.656   7.176 -0.9108  1.6207  0.8152
  382MOL0     H51538   4.357   6.710   6.858 -0.5696 -2.5551 -1.4942
  382MOL0     H51539   4.494   6.703   6.981  2.2928 -3.0674 -3.3030
  382MOL0     H51540   4.302   6.475   6.917 -0.2017 -0.3095  1.1341
  382MOL0     H51541   4.453   6.468   7.018  0.3391  0.9171  0.1462
  382MOL0     H51542   4.452   6.377   6.772 -1.1580 -0.1319 -3.7659
  382MOL0     H51543   4.440   6.547   6.724  2.4273 -1.3984 -2.6215
  382MOL0     H51544   4.654   6.585   6.848  0.2704 -0.2240  0.1950
  382MOL0     H51545   4.695   6.500   6.711 -1.2383  1.1713 -1.3950
  382MOL0     H51546   4.804   6.416   6.919  2.0301 -1.0223 -4.9761
  382MOL0     H51547   4.652   6.351   6.989  1.8161 -1.1686  0.9020
  382MOL0     H51548   4.743   6.268   6.696 -1.5222 -0.6316 -0.4873
  382MOL0     H51549   4.602   6.224   6.793 -0.7592  2.8013  2.8924
  382MOL0     H51550   4.804   6.048   6.804 -0.4881  0.9708 -0.8336
  382MOL0     H51551   4.745   6.105   6.954  2.8778 -0.7272  0.6980
  382MOL0     H51552   4.131   6.842   7.242  0.3206 -0.7740  0.4810
  382MOL0     H51553   4.020   6.813   7.452 -0.6775  1.2415 -0.8896
  382MOL0     H51554   4.039   6.410   7.821 -1.1992 -2.4278  0.3131
  382MOL0     H51555   3.983   6.416   8.029 -2.0139 -2.3994  1.5157
  382MOL0     H51556   5.485   6.238   8.260  0.8636 -1.3409 -0.4565
  382MOL0     H51557   5.723   6.328   8.355 -0.4743  3.6818  2.4330
  382MOL0     H51558   5.933   6.433   8.756 -0.7949 -0.8616 -0.8154
  382MOL0     H51559   6.119   6.544   8.860  1.3078  0.8832 -0.5035
  382MOL0     H51560   6.465   6.671   8.867 -0.9795 -0.2532 -1.4248
  382MOL0     H51561   6.292   6.675   8.883 -1.1222 -0.6937 -1.4745
  382MOL0     H51562   6.309   6.457   9.013  0.8139  1.0258  0.2565
  382MOL0     H51563   6.358   6.607   9.097 -1.0298  1.1843  0.6073
  382MOL0     H51564   6.602   6.537   9.035  0.6003 -0.0812  0.7367
  382MOL0     H51565   6.528   6.379   8.987  1.8736 -1.5284  2.8802
  382MOL0     H51566   6.474   6.510   9.266  0.7306  0.2087 -0.9947
  382MOL0     H51567   6.621   6.413   9.233 -0.1618 -0.9217 -1.3706
  382MOL0     H51568   6.335   6.117   9.256 -0.0734  0.8831  1.3230
  382MOL0     H51569   6.389   6.309   8.642  1.3871  1.8934  2.3462
  382MOL0     H51570   6.206   6.183   8.547 -0.0687  0.4825  1.3287
  383MOL0     O51571  11.144   1.997  10.635  0.3966  0.2747  0.1511
  383MOL0     C51572  11.192   1.915  10.712  0.0270  0.7289  0.2335
  383MOL0     O51573  11.153   1.899  10.844  0.0609 -0.3639  0.2965
  383MOL0     C51574  11.043   1.957  10.902  0.4667 -0.3581  0.3633
  383MOL0     C51575  10.980   2.081  10.860 -0.3624  0.9724  0.5721
  383MOL0     C51576  10.864   2.107  10.913 -0.3890 -0.0428 -0.6081
  383MOL0     C51577  10.817   2.029  11.024  0.6220 -0.3600  0.0941
  383MOL0     O51578  10.709   2.082  11.092  0.0340 -0.0318 -0.0871
  383MOL0     C51579  10.611   1.998  11.151  0.3246  0.3445 -0.1671
  383MOL0     C51580  10.533   2.092  11.235 -0.4914 -0.5423  0.0225
  383MOL0     C51581  10.424   2.011  11.302 -0.2636  0.3575  0.3973
  383MOL0     C51582  10.316   2.091  11.367  0.4627  0.3075  0.1421
  383MOL0     C51583  10.228   1.995  11.443  0.1700 -0.2383 -0.3519
  383MOL0     C51584  10.107   2.057  11.518 -0.6931 -0.2207  0.6390
  383MOL0     C51585  10.011   1.955  11.570 -0.4986  0.3629  0.1530
  383MOL0     C51586   9.908   2.024  11.656  0.0719 -0.4646  0.6930
  383MOL0     N51587   9.808   1.933  11.721 -0.6621 -0.0249  0.8340
  383MOL0     C51588   9.684   1.956  11.776  0.1825 -0.3307  0.0994
  383MOL0     C51589   9.680   1.879  11.884  0.8954 -0.4580  0.1726
  383MOL0     C51590   9.573   1.882  11.988  0.5105 -0.5915 -0.4776
  383MOL0     C51591   9.571   2.009  12.066 -0.3566 -1.3079 -0.0334
  383MOL0     C51592   9.488   2.009  12.190  0.0593  0.4881  0.3081
  383MOL0     C51593   9.491   2.143  12.267 -0.2204 -0.5575  0.0962
  383MOL0     O51594   9.406   2.140  12.383 -0.2978 -0.4504 -0.8738
  383MOL0     C51595   9.439   2.064  12.492  0.9133 -0.1323 -0.4633
  383MOL0     C51596   9.336   1.989  12.553  0.1006 -0.0003 -0.6055
  383MOL0     C51597   9.366   1.906  12.659  1.0525 -0.7599  0.4420
  383MOL0     C51598   9.241   1.846  12.722 -0.0305  0.3559  0.5224
  383MOL0     C51599   9.504   1.903  12.705  0.0619  0.6046 -0.5167
  383MOL0     C51600   9.554   1.807  12.804  0.4054  1.0595 -0.2797
  383MOL0     O51601   9.682   1.759  12.777 -0.3105 -0.8753  0.1998
  383MOL0     C51602   9.761   1.695  12.869  0.5574  0.3978  0.6108
  383MOL0     C51603   9.827   1.572  12.827  0.0703  0.1611 -0.0793
  383MOL0     C51604   9.904   1.500  12.918  0.0065 -0.4725  0.5158
  383MOL0     C51605   9.903   1.537  13.056  0.5833  0.2465 -1.1365
  383MOL0     O51606   9.948   1.454  13.160  0.4697  0.3107  0.4053
  383MOL0     C51607  10.056   1.367  13.131 -0.4075 -0.9578 -0.2362
  383MOL0     C51608  10.149   1.346  13.250 -0.0893  0.1989  0.3403
  383MOL0     C51609  10.091   1.264  13.368  0.7469  0.2935  0.5782
  383MOL0     C51610  10.078   1.114  13.330 -0.4055  0.2188 -0.8333
  383MOL0     C51611   9.986   1.042  13.435  0.0270  0.8119  0.6132
  383MOL0     C51612   9.976   0.886  13.443  0.3251 -0.7485  0.1454
  383MOL0     C51613   9.855   0.858  13.534  0.2520  0.6028 -1.0397
  383MOL0     C51614   9.718   0.900  13.484  0.5038 -0.0282  0.0101
  383MOL0    Cl51615   9.593   0.872  13.606  0.0444  0.0468 -0.4981
  383MOL0     C51616   9.827   1.651  13.097 -1.2562 -0.6914 -0.4866
  383MOL0     C51617   9.771   1.733  13.005  0.5643  0.5256 -0.2283
  383MOL0     O51618   9.486   1.772  12.898 -0.0718  0.9530 -0.2817
  383MOL0     C51619   9.602   1.980  12.644 -0.1341 -0.4264 -0.4414
  383MOL0     C51620   9.567   2.063  12.537  0.8166 -0.1890 -0.1915
  383MOL0     N51621   9.786   1.793  11.884 -0.4145  0.5161  1.1779
  383MOL0     N51622   9.860   1.830  11.788  0.4613  1.3797  0.1348
  383MOL0     C51623  10.878   1.923  11.081 -0.4554  0.5663 -0.4463
  383MOL0     C51624  11.001   1.884  11.012 -0.0865 -0.3447 -0.1205
  383MOL0     C51625  11.288   1.818  10.660 -0.3685  0.1268 -0.1770
  383MOL0     C51626  11.304   1.779  10.523  0.8895  0.1495  0.3313
  383MOL0     C51627  11.409   1.692  10.488 -1.0455  1.1696 -0.6585
  383MOL0     C51628  11.504   1.643  10.581  1.1562 -0.1472 -0.2012
  383MOL0     O51629  11.600   1.569  10.533 -0.1085 -0.4514  0.2521
  383MOL0     C51630  11.691   1.498  10.619 -0.2317  0.2146 -0.8280
  383MOL0     C51631  11.801   1.436  10.528 -1.0501  1.0130  0.2750
  383MOL0     C51632  11.738   1.331  10.443 -0.4822  0.2595  0.3826
  383MOL0     C51633  11.686   1.211  10.518  0.6456 -1.4011 -0.5908
  383MOL0     C51634  11.538   1.231  10.540  0.3894 -0.5525  0.1959
  383MOL0     C51635  11.416   1.241  10.534 -0.7538 -0.6467 -0.5909
  383MOL0     C51636  11.491   1.675  10.717  0.0982  0.5788 -0.7982
  383MOL0     C51637  11.380   1.753  10.754  0.9386  0.3330  0.1569
  383MOL0     H51638  11.024   2.139  10.781 -1.7661  1.9308  0.4548
  383MOL0     H51639  10.811   2.199  10.887 -3.6109 -0.4167  3.5744
  383MOL0     H51640  10.548   1.951  11.075  0.8899  0.2652 -0.5939
  383MOL0     H51641  10.654   1.913  11.206 -1.2603 -0.0210  0.5431
  383MOL0     H51642  10.589   2.144  11.314 -1.1169 -0.6571  0.5530
  383MOL0     H51643  10.484   2.169  11.174  0.9127  0.1081 -0.3288
  383MOL0     H51644  10.384   1.954  11.218 -0.6452  0.9885  0.1355
  383MOL0     H51645  10.473   1.945  11.374  1.2791 -1.5676 -2.2465
  383MOL0     H51646  10.352   2.169  11.435  1.6452 -0.1585  0.0750
  383MOL0     H51647  10.253   2.135  11.289  1.0309  1.9451  0.5556
  383MOL0     H51648  10.184   1.912  11.387  0.1952  2.2798 -4.5591
  383MOL0     H51649  10.300   1.955  11.516  0.7184  2.1739  0.5335
  383MOL0     H51650  10.148   2.111  11.603  0.6064  3.9458 -2.2936
  383MOL0     H51651  10.055   2.121  11.446  0.6127 -0.7692 -0.8631
  383MOL0     H51652   9.967   1.899  11.488  0.2395 -1.5301  0.9841
  383MOL0     H51653  10.068   1.887  11.634  1.0107 -1.2415 -2.6837
  383MOL0     H51654   9.850   2.100  11.601 -1.5199 -1.6984  0.5807
  383MOL0     H51655   9.964   2.081  11.731  3.6062 -1.4947 -0.9395
  383MOL0     H51656   9.615   2.036  11.753 -0.0851 -0.6497 -0.2179
  383MOL0     H51657   9.480   1.860  11.936  1.3903 -0.1762 -2.3059
  383MOL0     H51658   9.600   1.804  12.059 -0.0401 -0.1176  0.2670
  383MOL0     H51659   9.544   2.092  12.000  0.7428  0.9533  2.1885
  383MOL0     H51660   9.674   2.034  12.093  0.3741 -2.3756 -1.6596
  383MOL0     H51661   9.528   1.931  12.256  0.9054  1.9064  1.5508
  383MOL0     H51662   9.385   1.985  12.162 -0.0516  1.0481  0.2315
  383MOL0     H51663   9.454   2.209  12.187  0.5122 -3.0715 -2.4947
  383MOL0     H51664   9.596   2.171  12.283 -0.6628  0.5910  1.1299
  383MOL0     H51665   9.233   2.007  12.525 -0.8804 -0.7198  2.2186
  383MOL0     H51666   9.197   1.903  12.804 -0.1586 -1.0284  1.4696
  383MOL0     H51667   9.159   1.856  12.651 -0.7605  4.0982  1.7046
  383MOL0     H51668   9.254   1.741  12.751 -0.7037  0.1158  0.0005
  383MOL0     H51669   9.833   1.535  12.726 -0.4390 -0.7226  0.2040
  383MOL0     H51670   9.960   1.417  12.877  1.2143  0.1034  0.9540
  383MOL0     H51671  10.014   1.270  13.105 -0.8036 -1.3327  1.6464
  383MOL0     H51672  10.122   1.410  13.055 -0.0392  0.3114  0.7578
  383MOL0     H51673  10.232   1.289  13.207 -2.1594 -3.9875  1.3517
  383MOL0     H51674  10.191   1.440  13.285  2.7031 -1.1480  0.8383
  383MOL0     H51675   9.994   1.314  13.379  1.9934  2.9192  0.4409
  383MOL0     H51676  10.163   1.280  13.448  2.3333 -1.0532 -0.5236
  383MOL0     H51677  10.036   1.104  13.229  1.2201  2.1708 -1.7784
  383MOL0     H51678  10.178   1.071  13.340 -0.7609 -0.1382  1.6534
  383MOL0     H51679   9.887   1.071  13.399  0.4044 -0.1301 -1.3688
  383MOL0     H51680   9.997   1.086  13.534 -4.4244  0.5318  1.4171
  383MOL0     H51681   9.954   0.839  13.346 -0.4582 -0.5285  0.2151
  383MOL0     H51682  10.074   0.850  13.476 -0.4822 -2.7203  0.5332
  383MOL0     H51683   9.869   0.897  13.634  0.4141  0.5395 -1.0376
  383MOL0     H51684   9.853   0.748  13.538 -1.2145  0.4965 -3.0162
  383MOL0     H51685   9.710   0.844  13.390  1.4907 -3.0164  1.5601
  383MOL0     H51686   9.709   1.003  13.450 -0.1022  0.3237  1.1761
  383MOL0     H51687   9.827   1.674  13.203  1.8103  0.2585 -0.5858
  383MOL0     H51688   9.719   1.823  13.035 -1.9607 -0.6700 -0.7436
  383MOL0     H51689   9.697   2.005  12.691 -1.5596  0.4816  2.2374
  383MOL0     H51690   9.650   2.115  12.491 -0.7001  0.8363 -1.8910
  383MOL0     H51691  10.861   1.873  11.176 -1.1947 -0.8575 -1.2925
  383MOL0     H51692  11.053   1.792  11.037  2.9756  1.4729  0.8376
  383MOL0     H51693  11.224   1.813  10.458  1.0740  0.4796  0.2775
  383MOL0     H51694  11.416   1.656  10.385 -2.0697  0.2530 -0.4287
  383MOL0     H51695  11.739   1.568  10.689  1.6128 -2.3533  0.6099
  383MOL0     H51696  11.648   1.424  10.687  3.7689 -0.9351  0.7329
  383MOL0     H51697  11.882   1.392  10.587 -1.9512 -2.2436 -0.7289
  383MOL0     H51698  11.832   1.517  10.461  0.0962 -1.3945 -2.2986
  383MOL0     H51699  11.818   1.294  10.378 -1.9617  0.4023 -1.6217
  383MOL0     H51700  11.662   1.374  10.377  0.5244 -0.2037 -1.1307
  383MOL0     H51701  11.733   1.203  10.616 -4.1064  2.5931  2.4791
  383MOL0     H51702  11.704   1.126  10.452 -0.6378 -0.2894 -2.4625
  383MOL0     H51703  11.310   1.248  10.523 -0.4991 -1.0523 -4.9597
  383MOL0     H51704  11.544   1.624  10.797 -0.8519 -1.6189 -1.4685
  383MOL0     H51705  11.370   1.765  10.861 -1.1970  3.6276 -0.2491
  384MOL0     O51706   4.338  10.399   1.083  0.6289 -1.0435  0.7628
  384MOL0     C51707   4.423  10.316   1.110 -0.6019  0.5202 -0.2272
  384MOL0     O51708   4.475  10.307   1.236 -0.6351  0.4474 -0.0173
  384MOL0     C51709   4.486  10.414   1.315  0.5045 -0.4435  0.6927
  384MOL0     C51710   4.385  10.512   1.335 -0.8632 -0.4005 -0.4901
  384MOL0     C51711   4.407  10.628   1.405 -0.5001  0.5332  0.1777
  384MOL0     C51712   4.530  10.646   1.472 -0.5621 -0.6362  0.2495
  384MOL0     O51713   4.556  10.742   1.565  0.3702  0.5578  0.1243
  384MOL0     C51714   4.504  10.699   1.691 -0.1494  0.2846 -0.2015
  384MOL0     C51715   4.610  10.744   1.800  0.5449 -0.2326  0.9505
  384MOL0     C51716   4.647  10.896   1.788 -0.1253 -0.1148  0.5061
  384MOL0     C51717   4.525  10.974   1.842 -0.4826  0.1238 -1.0117
  384MOL0     C51718   4.583  11.114   1.865  0.2373 -0.1623 -0.2124
  384MOL0     C51719   4.472  11.220   1.892  0.0541 -0.5326  0.8553
  384MOL0     C51720   4.416  11.188   2.030  0.7285 -0.3910 -0.3076
  384MOL0     C51721   4.299  11.291   2.057 -1.1051  0.1018  0.4456
  384MOL0     N51722   4.179  11.264   1.974  0.0030 -0.2805 -0.3310
  384MOL0     C51723   4.075  11.182   2.013  0.2992 -0.0735  1.0854
  384MOL0     C51724   3.975  11.201   1.921  0.6822 -0.4530 -0.5360
  384MOL0     C51725   3.836  11.143   1.938 -0.2231  0.0816 -1.3325
  384MOL0     C51726   3.788  11.067   1.814 -0.0173 -0.7328  0.2119
  384MOL0     C51727   3.689  11.162   1.732 -0.1642 -0.3505  0.6212
  384MOL0     C51728   3.543  11.154   1.791 -0.3973 -0.0323  0.3660
  384MOL0     O51729   3.481  11.040   1.737  0.7833  0.0979  0.0092
  384MOL0     C51730   3.349  11.039   1.758  1.1248  0.4357  0.1454
  384MOL0     C51731   3.260  11.011   1.663  0.5326 -0.8507 -0.3203
  384MOL0     C51732   3.118  11.013   1.685 -1.0495 -0.0039  0.4906
  384MOL0     C51733   3.028  10.997   1.571 -0.0474 -1.1302 -0.1772
  384MOL0     C51734   3.077  11.017   1.821 -0.6158  0.0025  0.5459
  384MOL0     C51735   2.938  10.997   1.865 -0.6473 -0.5854 -1.1819
  384MOL0     O51736   2.920  10.966   1.999  0.3919  1.0514 -0.4568
  384MOL0     C51737   2.785  10.944   2.039  0.6294 -0.5707  0.0343
  384MOL0     C51738   2.701  10.854   1.982  0.5109 -0.2273 -0.6844
  384MOL0     C51739   2.575  10.841   2.025 -0.5795  1.2213 -0.9143
  384MOL0     C51740   2.529  10.896   2.140 -0.1315 -0.1646  0.8701
  384MOL0     O51741   2.396  10.889   2.183 -0.3451  0.8502  0.0700
  384MOL0     C51742   2.370  10.771   2.271 -0.5352 -0.4802 -0.2674
  384MOL0     C51743   2.252  10.798   2.368  0.1577  0.5452 -0.8998
  384MOL0     C51744   2.222  10.662   2.448 -1.1604 -0.7860 -0.0946
  384MOL0     C51745   2.351  10.609   2.514 -0.6323 -1.0879 -0.6496
  384MOL0     C51746   2.302  10.520   2.624  0.6146  0.0354 -0.9907
  384MOL0     C51747   2.224  10.394   2.594 -0.6544 -0.9355  0.5070
  384MOL0     C51748   2.306  10.291   2.511 -0.1877 -0.1299 -0.5220
  384MOL0     C51749   2.410  10.212   2.592  0.4546 -0.0903 -0.3626
  384MOL0    Cl51750   2.534  10.143   2.469  0.1605 -0.4595 -0.0462
  384MOL0     C51751   2.609  10.988   2.203  1.2722 -0.1687 -0.4867
  384MOL0     C51752   2.742  11.006   2.153 -0.3894 -0.5609  0.7330
  384MOL0     O51753   2.853  11.001   1.781 -1.0737 -0.8049 -1.1393
  384MOL0     C51754   3.169  11.036   1.920 -0.3194 -0.2845 -0.0328
  384MOL0     C51755   3.300  11.040   1.890 -0.2741 -0.2887  0.1808
  384MOL0     N51756   4.018  11.296   1.827 -0.6733  0.0427 -0.1372
  384MOL0     N51757   4.137  11.332   1.858  0.0345 -0.3015  0.1902
  384MOL0     C51758   4.631  10.551   1.446  0.0349  0.5193 -0.3015
  384MOL0     C51759   4.607  10.433   1.379 -0.2397  0.9566 -0.5537
  384MOL0     C51760   4.466  10.221   1.006  1.0217 -0.0791  0.3116
  384MOL0     C51761   4.396  10.208   0.883 -0.1176  0.8720  0.0130
  384MOL0     C51762   4.437  10.121   0.775  0.5326 -0.4547  0.0972
  384MOL0     C51763   4.534  10.032   0.796 -0.1731  0.5256 -0.7338
  384MOL0     O51764   4.580   9.927   0.717 -0.3154 -0.3239  0.1446
  384MOL0     C51765   4.560   9.943   0.578 -0.0402 -0.3901 -0.6242
  384MOL0     C51766   4.440   9.863   0.537 -1.0270 -1.1242 -0.2710
  384MOL0     C51767   4.423   9.871   0.390 -0.1771 -0.4647 -0.5139
  384MOL0     C51768   4.340   9.773   0.315  0.3782  0.6280 -0.2692
  384MOL0     C51769   4.371   9.634   0.329 -0.5165 -0.5840 -1.7443
  384MOL0     C51770   4.422   9.522   0.348  0.6095  0.2567  0.3962
  384MOL0     C51771   4.608  10.045   0.909 -0.4478  0.5167  0.8713
  384MOL0     C51772   4.575  10.137   1.014 -0.1395  0.3485 -0.1637
  384MOL0     H51773   4.290  10.493   1.288 -2.0908  0.4331  1.4853
  384MOL0     H51774   4.322  10.693   1.422 -0.4821  1.3547 -2.4766
  384MOL0     H51775   4.406  10.742   1.714 -1.9005 -2.4720 -2.0016
  384MOL0     H51776   4.503  10.590   1.684  4.1125  0.1554 -2.5075
  384MOL0     H51777   4.582  10.716   1.902 -0.1360 -0.2703  0.7585
  384MOL0     H51778   4.698  10.689   1.767  2.0038  3.5616 -2.3024
  384MOL0     H51779   4.730  10.908   1.858  2.4994  0.3788 -2.4653
  384MOL0     H51780   4.681  10.923   1.688 -1.0096  2.4344  0.7871
  384MOL0     H51781   4.439  10.973   1.775 -0.8203  1.0408 -0.6146
  384MOL0     H51782   4.489  10.945   1.941  0.9452  0.2824 -0.4213
  384MOL0     H51783   4.664  11.107   1.938  1.3209 -1.9115 -1.5052
  384MOL0     H51784   4.623  11.156   1.772 -0.4189  0.7609 -0.0929
  384MOL0     H51785   4.520  11.318   1.896 -0.1584 -0.1735 -2.5003
  384MOL0     H51786   4.395  11.219   1.814  0.2531 -2.7950  0.6228
  384MOL0     H51787   4.384  11.085   2.047 -0.2799  0.0480  0.5465
  384MOL0     H51788   4.483  11.204   2.115 -1.6479 -0.5233  1.6766
  384MOL0     H51789   4.331  11.386   2.015  1.7640 -1.3736 -0.9671
  384MOL0     H51790   4.267  11.297   2.162  1.7834  0.1460  1.4075
  384MOL0     H51791   4.070  11.110   2.094  0.7932 -3.2268 -1.4423
  384MOL0     H51792   3.834  11.067   2.017 -3.2005  0.4955 -0.8783
  384MOL0     H51793   3.763  11.217   1.972  0.2320 -0.5903  1.3763
  384MOL0     H51794   3.724  10.980   1.835 -0.9521 -0.6604 -2.0470
  384MOL0     H51795   3.880  11.041   1.761  1.1120  0.0923  1.6875
  384MOL0     H51796   3.679  11.150   1.624  2.2457  1.3936  0.1238
  384MOL0     H51797   3.733  11.260   1.748 -1.4303  0.0346  1.9856
  384MOL0     H51798   3.497  11.249   1.760  4.0075  2.6886  1.1725
  384MOL0     H51799   3.534  11.157   1.900 -2.5551  1.8060  0.2116
  384MOL0     H51800   3.291  10.981   1.563  1.3623  1.7512 -0.9195
  384MOL0     H51801   3.089  11.007   1.480  0.9622 -1.0291  0.4896
  384MOL0     H51802   2.993  10.893   1.572 -0.2692 -1.0793 -1.2935
  384MOL0     H51803   2.942  11.063   1.561  0.3878 -0.2036  1.8392
  384MOL0     H51804   2.737  10.785   1.906 -0.1574 -1.7119  0.3048
  384MOL0     H51805   2.501  10.773   1.983 -0.7564  1.3541 -0.8151
  384MOL0     H51806   2.349  10.687   2.204 -3.9720  0.8026 -1.0484
  384MOL0     H51807   2.457  10.755   2.334  0.5291  1.6023 -1.1026
  384MOL0     H51808   2.270  10.875   2.444 -1.6664 -2.5446  3.0476
  384MOL0     H51809   2.167  10.834   2.308  0.0971  2.5381  0.2833
  384MOL0     H51810   2.176  10.590   2.379  1.6486 -1.3132 -1.5705
  384MOL0     H51811   2.149  10.672   2.529  0.0926  0.2483  0.9435
  384MOL0     H51812   2.414  10.558   2.440  0.4160 -0.1995 -0.3916
  384MOL0     H51813   2.406  10.688   2.564 -0.5217  0.0433 -2.4591
  384MOL0     H51814   2.229  10.581   2.677 -0.2560 -0.9417 -1.0218
  384MOL0     H51815   2.384  10.500   2.693  0.4595  0.4863 -0.6716
  384MOL0     H51816   2.195  10.338   2.683 -0.2195 -1.9762  0.0161
  384MOL0     H51817   2.135  10.420   2.536  0.1260 -2.1294 -1.3308
  384MOL0     H51818   2.356  10.347   2.431 -2.2593  1.9672 -0.4564
  384MOL0     H51819   2.235  10.223   2.464  0.0956 -1.5490  1.0163
  384MOL0     H51820   2.367  10.138   2.660 -1.0136  0.2120 -0.9176
  384MOL0     H51821   2.471  10.283   2.649 -2.5371 -0.1723  3.2952
  384MOL0     H51822   2.573  11.039   2.292 -0.8785 -1.6804 -0.4356
  384MOL0     H51823   2.803  11.081   2.202  1.0925 -1.8376  0.9438
  384MOL0     H51824   3.144  11.029   2.025 -2.5487  1.2695 -0.3788
  384MOL0     H51825   3.366  11.038   1.977 -0.0935 -1.0183  0.0333
  384MOL0     H51826   4.727  10.568   1.492 -0.4235  1.3921  0.3667
  384MOL0     H51827   4.682  10.357   1.361 -0.5493  0.8650 -1.5384
  384MOL0     H51828   4.309  10.268   0.860  0.4881  2.2195  1.1417
  384MOL0     H51829   4.396  10.125   0.675  4.4876  1.6352 -1.6738
  384MOL0     H51830   4.542  10.048   0.556  0.7821  0.2451  1.5121
  384MOL0     H51831   4.649   9.916   0.519 -1.3923  0.0290 -2.9745
  384MOL0     H51832   4.352   9.907   0.586  1.2143  3.3214  0.3278
  384MOL0     H51833   4.438   9.759   0.570  2.2743 -1.4741 -0.8528
  384MOL0     H51834   4.525   9.861   0.350  0.3373 -4.2446  1.2426
  384MOL0     H51835   4.377   9.967   0.369  0.9715  0.0596 -0.7415
  384MOL0     H51836   4.356   9.800   0.210 -2.6510  0.3402 -0.9052
  384MOL0     H51837   4.234   9.782   0.342  0.1706 -1.3564 -0.2188
  384MOL0     H51838   4.460   9.422   0.355  1.5075  0.5726  0.1890
  384MOL0     H51839   4.692   9.976   0.911 -2.0187 -1.6905 -2.1225
  384MOL0     H51840   4.655  10.157   1.085  1.5179 -0.6950 -1.6646
  385MOL0     O51841   7.474   8.109   7.778 -0.6707 -0.6708 -0.1671
  385MOL0     C51842   7.393   8.160   7.702 -0.1548 -0.1210 -0.9331
  385MOL0     O51843   7.296   8.239   7.756 -0.7723  0.3339  0.5097
  385MOL0     C51844   7.333   8.321   7.860  0.2693  0.0140  0.0835
  385MOL0     C51845   7.437   8.413   7.853  0.6130 -0.4566 -1.0684
  385MOL0     C51846   7.464   8.491   7.964 -0.0128 -0.2747  0.5257
  385MOL0     C51847   7.391   8.484   8.080  0.4919 -0.0449 -0.1410
  385MOL0     O51848   7.438   8.563   8.188  0.0546  0.1949 -0.0879
  385MOL0     C51849   7.397   8.527   8.316 -0.0278 -0.0705 -0.0547
  385MOL0     C51850   7.472   8.398   8.371 -0.5290  0.3962 -0.1999
  385MOL0     C51851   7.626   8.405   8.381 -0.7191 -0.8764  0.0413
  385MOL0     C51852   7.681   8.295   8.467  0.1796  0.5546 -0.0899
  385MOL0     C51853   7.834   8.292   8.435  0.7959 -0.4003  0.8821
  385MOL0     C51854   7.907   8.221   8.551  0.2021  0.0532 -1.2332
  385MOL0     C51855   8.051   8.201   8.504  0.2267 -0.1126  0.3117
  385MOL0     C51856   8.125   8.338   8.534 -1.3986  0.3049 -0.4378
  385MOL0     N51857   8.270   8.331   8.532 -0.0913 -0.1040 -0.7474
  385MOL0     C51858   8.353   8.223   8.585  0.4630 -0.2303 -0.1647
  385MOL0     C51859   8.482   8.259   8.570  0.3875  0.4504 -0.4397
  385MOL0     C51860   8.610   8.183   8.611 -0.4429  0.7435 -0.4262
  385MOL0     C51861   8.615   8.049   8.531 -0.6629  0.1509 -0.2609
  385MOL0     C51862   8.747   7.981   8.566 -1.3438 -0.7483  0.5911
  385MOL0     C51863   8.853   8.014   8.461 -1.1942  0.4120  0.2957
  385MOL0     O51864   8.985   7.955   8.495  0.6843 -0.0504  1.0088
  385MOL0     C51865   9.062   7.999   8.601 -0.5183 -0.0320  0.0224
  385MOL0     C51866   9.063   8.130   8.655  0.0315 -0.7374 -0.9604
  385MOL0     C51867   9.143   8.156   8.771  0.0533 -0.3102  0.0814
  385MOL0     C51868   9.137   8.293   8.832 -0.1169  0.3131 -0.6626
  385MOL0     C51869   9.215   8.043   8.834  0.6655 -0.2283  0.1053
  385MOL0     C51870   9.284   8.060   8.965  0.4912  0.8167 -0.3831
  385MOL0     O51871   9.281   8.184   9.038  0.4458  0.5771  0.1192
  385MOL0     C51872   9.337   8.161   9.163  0.1297  0.3720  0.5794
  385MOL0     C51873   9.465   8.200   9.189 -0.5768  0.4491  0.0713
  385MOL0     C51874   9.518   8.185   9.316  0.4806  1.0829 -0.6501
  385MOL0     C51875   9.462   8.113   9.420  0.1309  0.1194 -1.3093
  385MOL0     O51876   9.535   8.106   9.537  0.7371  0.1601  0.3351
  385MOL0     C51877   9.468   8.069   9.658 -0.4489  0.3931 -0.5293
  385MOL0     C51878   9.454   8.195   9.752 -0.2828 -0.1807 -0.4922
  385MOL0     C51879   9.603   8.231   9.797 -0.0076  0.1196  0.4817
  385MOL0     C51880   9.595   8.293   9.930  0.2999 -0.3279 -0.0863
  385MOL0     C51881   9.733   8.339   9.981  0.5859 -0.3856  0.1890
  385MOL0     C51882   9.715   8.431  10.116  0.3387  0.0155  1.2366
  385MOL0     C51883   9.852   8.478  10.151  0.8294 -1.1442  0.5594
  385MOL0     C51884   9.845   8.606  10.245  0.0045  0.5904 -0.3114
  385MOL0    Cl51885   9.817   8.554  10.415 -0.8298 -0.4880 -0.2805
  385MOL0     C51886   9.322   8.070   9.388 -0.7222  0.7215  0.1266
  385MOL0     C51887   9.263   8.095   9.266 -0.6029 -0.8803  0.3225
  385MOL0     O51888   9.331   7.957   9.012 -0.1729 -0.5178 -0.1460
  385MOL0     C51889   9.208   7.914   8.771 -0.7027  0.1025  0.5536
  385MOL0     C51890   9.148   7.900   8.647  0.6670 -0.7410  0.3980
  385MOL0     N51891   8.483   8.383   8.505  0.0719  0.0744 -0.1437
  385MOL0     N51892   8.362   8.417   8.463 -0.4978  0.0456 -0.0540
  385MOL0     C51893   7.272   8.400   8.081 -0.4237 -0.4514 -0.4363
  385MOL0     C51894   7.252   8.316   7.978 -0.2071 -0.2004 -0.0806
  385MOL0     C51895   7.394   8.114   7.567 -1.0208  0.1835 -0.1728
  385MOL0     C51896   7.500   8.028   7.530  0.0856 -0.2868 -0.0985
  385MOL0     C51897   7.496   7.978   7.404 -0.9517 -0.1852  0.6056
  385MOL0     C51898   7.417   8.033   7.307  1.5939 -0.7508  0.6738
  385MOL0     O51899   7.414   7.990   7.175 -0.0679 -0.2374 -0.5669
  385MOL0     C51900   7.529   7.919   7.132  0.5558  0.1464 -0.4318
  385MOL0     C51901   7.553   7.909   6.976 -0.0593 -0.6039 -0.5274
  385MOL0     C51902   7.428   7.846   6.913 -0.6731 -0.7282 -0.3368
  385MOL0     C51903   7.431   7.825   6.757  0.7649  0.3775  0.4069
  385MOL0     C51904   7.437   7.951   6.690  0.6013  1.1438  0.7841
  385MOL0     C51905   7.417   8.048   6.624 -0.3330  1.1307 -0.6890
  385MOL0     C51906   7.322   8.133   7.333  0.4623  0.0472  0.5435
  385MOL0     C51907   7.309   8.167   7.467 -0.1774  0.2022  0.1375
  385MOL0     H51908   7.476   8.441   7.755  3.0987  0.7684  0.1779
  385MOL0     H51909   7.542   8.566   7.957  0.8585 -1.2677 -0.9380
  385MOL0     H51910   7.412   8.618   8.375 -2.6039  1.2486 -1.2775
  385MOL0     H51911   7.288   8.521   8.322  0.0752 -0.6025  2.4982
  385MOL0     H51912   7.431   8.375   8.470  1.9845 -2.3884  0.3531
  385MOL0     H51913   7.422   8.328   8.303 -3.3560  1.7421  0.3563
  385MOL0     H51914   7.667   8.403   8.279 -1.6851  0.7497 -0.4221
  385MOL0     H51915   7.661   8.496   8.430  2.5200 -0.9512 -1.8620
  385MOL0     H51916   7.645   8.320   8.567 -0.4721  1.8539 -0.6279
  385MOL0     H51917   7.644   8.196   8.441  2.4720 -0.2955 -0.3869
  385MOL0     H51918   7.843   8.229   8.346  1.9778 -3.7031  3.1490
  385MOL0     H51919   7.876   8.393   8.425  0.4288 -0.2441  0.9188
  385MOL0     H51920   7.900   8.269   8.649  0.2475 -0.3367 -1.0361
  385MOL0     H51921   7.869   8.119   8.561  1.3316 -0.2812 -0.1205
  385MOL0     H51922   8.098   8.123   8.564  3.0480  1.0215 -0.2905
  385MOL0     H51923   8.059   8.158   8.404 -0.2250  2.7523 -1.0644
  385MOL0     H51924   8.109   8.372   8.637 -0.9943 -0.5714 -0.0758
  385MOL0     H51925   8.105   8.420   8.464 -0.6598 -1.9509 -3.4591
  385MOL0     H51926   8.324   8.143   8.652 -1.4878  1.8801  1.6850
  385MOL0     H51927   8.691   8.251   8.583  1.6577 -1.3044  0.3834
  385MOL0     H51928   8.620   8.157   8.717 -2.2566 -1.0651 -0.6348
  385MOL0     H51929   8.601   8.058   8.422  1.0398  0.0151 -0.5119
  385MOL0     H51930   8.529   7.992   8.568 -0.7250 -0.3500 -1.1405
  385MOL0     H51931   8.736   7.873   8.582 -1.2399 -1.2231 -2.1174
  385MOL0     H51932   8.782   8.017   8.663  0.8222  1.9326 -1.0441
  385MOL0     H51933   8.862   8.123   8.467 -1.0900  0.3909  0.5229
  385MOL0     H51934   8.816   7.982   8.363 -0.9077 -2.8599  1.1509
  385MOL0     H51935   8.997   8.205   8.613 -3.7134 -2.1574  1.7743
  385MOL0     H51936   9.241   8.326   8.846 -0.8601  2.7667 -0.4110
  385MOL0     H51937   9.097   8.366   8.761  1.1089 -0.9289 -2.7417
  385MOL0     H51938   9.083   8.291   8.926  0.5948 -2.7544 -0.1983
  385MOL0     H51939   9.513   8.243   9.102 -0.3630  0.2649  0.0974
  385MOL0     H51940   9.618   8.222   9.333  0.6943  0.3207 -0.1990
  385MOL0     H51941   9.366   8.032   9.641 -1.3035  1.0830  2.4560
  385MOL0     H51942   9.519   7.993   9.718  0.6436  1.1381 -0.4867
  385MOL0     H51943   9.412   8.287   9.709  2.1537  0.7603 -0.9958
  385MOL0     H51944   9.401   8.166   9.844  2.7369 -0.8133  1.1533
  385MOL0     H51945   9.641   8.299   9.721  0.4197  0.1758  0.7400
  385MOL0     H51946   9.668   8.144   9.809  1.9532  1.0581 -2.3936
  385MOL0     H51947   9.546   8.391   9.921  0.7783  0.0242  0.9151
  385MOL0     H51948   9.545   8.238  10.011 -1.3357  1.6096  0.3097
  385MOL0     H51949   9.777   8.400   9.902 -3.3003  2.1517 -0.3035
  385MOL0     H51950   9.789   8.249  10.007  3.3529  0.3760 -2.5319
  385MOL0     H51951   9.654   8.521  10.110  0.2800 -0.0045  1.5498
  385MOL0     H51952   9.680   8.374  10.202  2.0937  2.4449  3.7396
  385MOL0     H51953   9.897   8.513  10.058  0.4641  2.1790  1.5097
  385MOL0     H51954   9.914   8.411  10.211  2.5861 -0.2831 -0.2325
  385MOL0     H51955   9.768   8.674  10.208  1.0258  1.0411 -1.7314
  385MOL0     H51956   9.945   8.650  10.245  1.3152 -1.9314 -3.4215
  385MOL0     H51957   9.261   8.015   9.458 -1.6042 -1.6216 -2.3367
  385MOL0     H51958   9.162   8.071   9.235 -0.3393  0.8969 -2.2521
  385MOL0     H51959   9.253   7.829   8.820  1.1919  0.1729 -0.9544
  385MOL0     H51960   9.164   7.804   8.599  0.5017 -1.0965  1.0501
  385MOL0     H51961   7.207   8.400   8.168  3.2901  1.3452  2.6602
  385MOL0     H51962   7.156   8.265   7.970 -1.1064  1.1956  1.2754
  385MOL0     H51963   7.581   7.985   7.588  0.3857  1.4311  0.8134
  385MOL0     H51964   7.566   7.896   7.390 -1.0389 -0.5186  1.9720
  385MOL0     H51965   7.620   7.966   7.170  1.0174  0.2961 -1.6484
  385MOL0     H51966   7.520   7.817   7.169 -2.5795 -0.1759 -1.7205
  385MOL0     H51967   7.643   7.847   6.968  2.3358  2.7861 -2.4368
  385MOL0     H51968   7.580   8.005   6.930  2.5976  0.6057  3.0489
  385MOL0     H51969   7.347   7.917   6.934  1.5561  1.8632  0.1455
  385MOL0     H51970   7.407   7.751   6.962 -2.0367  0.0104  0.5598
  385MOL0     H51971   7.344   7.767   6.726  1.0349  0.5861 -0.8180
  385MOL0     H51972   7.527   7.778   6.735 -0.1010 -1.1693 -0.2671
  385MOL0     H51973   7.381   8.126   6.560 -2.0256  2.0379  1.2353
  385MOL0     H51974   7.256   8.173   7.256  1.1830  1.8639  0.8098
  385MOL0     H51975   7.248   8.249   7.505 -0.6927 -0.1711  0.1350
  386MOL0     O51976   8.112   0.068  10.489 -0.1751  0.0004  0.2635
  386MOL0     C51977   8.145   0.151  10.405  0.2797 -0.2479 -0.5364
  386MOL0     O51978   8.093   0.281  10.409  0.1104 -0.2427  0.2838
  386MOL0     C51979   7.981   0.312  10.483  1.0281  0.3895 -0.2925
  386MOL0     C51980   7.988   0.423  10.563  0.4282  0.1604  0.0900
  386MOL0     C51981   7.880   0.452  10.657  0.1388  1.0134  1.1624
  386MOL0     C51982   7.775   0.364  10.670 -0.4243  0.0972 -0.1272
  386MOL0     O51983   7.672   0.376  10.762 -0.4211  0.0293 -0.6469
  386MOL0     C51984   7.677   0.483  10.867 -0.8701  0.1268  0.6272
  386MOL0     C51985   7.532   0.524  10.894  0.6116  0.5089  0.0661
  386MOL0     C51986   7.446   0.428  10.982 -0.2483 -1.4566  0.3088
  386MOL0     C51987   7.476   0.272  10.959  0.5398 -0.0098 -0.6687
  386MOL0     C51988   7.416   0.214  10.831  0.2998  0.0044  0.9705
  386MOL0     C51989   7.452   0.071  10.793  0.2553  0.6052 -0.1286
  386MOL0     C51990   7.431  -0.036  10.905 -0.2477  0.2058  0.2531
  386MOL0     C51991   7.285  -0.095  10.908  0.5510 -0.8320 -0.2054
  386MOL0     N51992   7.254  -0.166  10.781  0.1849  0.2271  0.5625
  386MOL0     C51993   7.314  -0.287  10.757 -0.4845 -0.7778 -0.0705
  386MOL0     C51994   7.243  -0.340  10.661  1.3273 -0.6124  0.1178
  386MOL0     C51995   7.283  -0.473  10.590  0.3465  0.6020 -0.5239
  386MOL0     C51996   7.281  -0.453  10.440  0.3711 -1.4263  0.4376
  386MOL0     C51997   7.305  -0.578  10.355 -0.5254 -0.4468  0.4882
  386MOL0     C51998   7.456  -0.607  10.353 -0.0674  0.2911  0.5069
  386MOL0     O51999   7.524  -0.493  10.296 -0.8039 -0.7497 -0.8451
  386MOL0     C52000   7.558  -0.481  10.166  0.9121  0.2990 -0.6241
  386MOL0     C52001   7.571  -0.586  10.075  0.5118  1.0608 -0.2326
  386MOL0     C52002   7.580  -0.558   9.934 -0.3135 -0.0966  0.2671
  386MOL0     C52003   7.564  -0.666   9.841  0.3132 -0.7550 -0.8548
  386MOL0     C52004   7.604  -0.421   9.892 -0.4023  0.0879 -0.5868
  386MOL0     C52005   7.594  -0.388   9.750 -0.6018  0.1502  0.0611
  386MOL0     O52006   7.692  -0.431   9.657 -0.3112 -0.1937  0.0873
  386MOL0     C52007   7.669  -0.399   9.526  0.3617  0.5303  0.3787
  386MOL0     C52008   7.780  -0.351   9.445  0.3610  0.1259 -0.5353
  386MOL0     C52009   7.762  -0.304   9.317 -0.7263  0.0298  1.1639
  386MOL0     C52010   7.641  -0.335   9.253 -0.0010 -0.5301 -0.7410
  386MOL0     O52011   7.617  -0.309   9.116 -0.1606 -0.0148 -0.3405
  386MOL0     C52012   7.730  -0.299   9.030 -0.3427 -0.9542  0.9272
  386MOL0     C52013   7.687  -0.300   8.882  0.6035 -0.6700 -0.0158
  386MOL0     C52014   7.604  -0.429   8.845 -0.4270  0.1075  0.4369
  386MOL0     C52015   7.555  -0.421   8.699  0.2597  0.1234 -0.7655
  386MOL0     C52016   7.488  -0.555   8.657  0.3457  0.1393 -0.3100
  386MOL0     C52017   7.450  -0.558   8.514  0.2364  1.1536  0.7588
  386MOL0     C52018   7.404  -0.698   8.472  0.4663  0.1576 -0.0740
  386MOL0     C52019   7.282  -0.760   8.534  0.3214 -0.9093  0.4000
  386MOL0    Cl52020   7.123  -0.680   8.490 -0.1568  0.1048 -0.1296
  386MOL0     C52021   7.529  -0.384   9.318 -0.4120 -0.2459 -1.4096
  386MOL0     C52022   7.546  -0.413   9.464  0.2796  0.3449 -0.1536
  386MOL0     O52023   7.490  -0.323   9.720 -0.0624 -0.2522  0.6641
  386MOL0     C52024   7.588  -0.319   9.987 -0.4061 -0.0232  0.0191
  386MOL0     C52025   7.557  -0.351  10.122 -1.0903 -0.4468  0.4911
  386MOL0     N52026   7.132  -0.263  10.636 -0.1891 -0.4798  0.3351
  386MOL0     N52027   7.133  -0.161  10.721  0.0389  0.2589 -0.2236
  386MOL0     C52028   7.772   0.252  10.582  0.5602 -0.3531 -0.2596
  386MOL0     C52029   7.872   0.228  10.499 -0.0622 -1.1139  0.9165
  386MOL0     C52030   8.250   0.125  10.306 -0.0094  0.2853  0.0010
  386MOL0     C52031   8.285   0.224  10.214 -1.6840  1.0663 -0.1330
  386MOL0     C52032   8.387   0.201  10.119  0.4512 -0.6139  0.4751
  386MOL0     C52033   8.451   0.079  10.111 -0.7713 -0.7879 -0.0492
  386MOL0     O52034   8.546   0.066  10.014  0.3152 -0.2378 -0.4037
  386MOL0     C52035   8.623  -0.060   9.996  0.1075 -0.6904  0.1097
  386MOL0     C52036   8.705  -0.039   9.874 -0.2503  0.3752  0.7703
  386MOL0     C52037   8.826   0.063   9.897 -0.0994  0.0171  0.0342
  386MOL0     C52038   8.781   0.213   9.922 -0.1225  1.0297  0.2050
  386MOL0     C52039   8.902   0.298   9.948  0.0046  0.7534  0.6139
  386MOL0     C52040   8.992   0.363   9.983  0.0647 -0.4187 -0.2598
  386MOL0     C52041   8.419  -0.020  10.206  0.0459 -0.2283  0.3500
  386MOL0     C52042   8.325   0.003  10.309 -0.6938 -0.5707 -0.1642
  386MOL0     H52043   8.085   0.472  10.564  1.9944 -2.6021  3.5466
  386MOL0     H52044   7.904   0.528  10.730  2.0634  1.0291  0.5781
  386MOL0     H52045   7.721   0.452  10.962  0.2857 -1.2038 -0.3080
  386MOL0     H52046   7.726   0.577  10.840 -1.2874  0.2085  0.1227
  386MOL0     H52047   7.525   0.623  10.939  0.6629  0.8388 -0.6317
  386MOL0     H52048   7.492   0.531  10.792  0.4543  4.2898  0.2638
  386MOL0     H52049   7.466   0.455  11.086  4.6895  5.1235 -1.7012
  386MOL0     H52050   7.343   0.459  10.961  0.5542  0.1673 -1.5605
  386MOL0     H52051   7.585   0.266  10.961  0.6541  1.6986  1.2408
  386MOL0     H52052   7.425   0.223  11.042 -1.1278 -0.6943 -2.0383
  386MOL0     H52053   7.307   0.226  10.837 -0.1138  1.5270 -4.4197
  386MOL0     H52054   7.435   0.280  10.746 -0.2676 -0.5851  0.3643
  386MOL0     H52055   7.406   0.029  10.703  2.6476 -3.3804  0.2803
  386MOL0     H52056   7.558   0.079  10.766 -0.1463 -0.1800 -2.1456
  386MOL0     H52057   7.511  -0.111  10.899 -2.2308 -1.8788 -2.2921
  386MOL0     H52058   7.451   0.017  10.999  1.0600 -1.8594  1.1943
  386MOL0     H52059   7.219  -0.019  10.948  2.0505  0.9633 -0.9944
  386MOL0     H52060   7.298  -0.174  10.982  1.0377 -3.0677 -2.5074
  386MOL0     H52061   7.404  -0.321  10.808  1.8950  0.5244 -3.1052
  386MOL0     H52062   7.383  -0.506  10.619 -1.0471 -2.8822  0.8647
  386MOL0     H52063   7.211  -0.554  10.606 -1.4356  2.2511  0.2402
  386MOL0     H52064   7.350  -0.376  10.403  2.6145 -3.3617  0.4036
  386MOL0     H52065   7.176  -0.429  10.421  0.6970  0.1542  0.4662
  386MOL0     H52066   7.271  -0.558  10.253  1.1624  2.6317  0.4018
  386MOL0     H52067   7.241  -0.657  10.395 -2.4719  1.2326  0.8424
  386MOL0     H52068   7.467  -0.690  10.282  0.3194  0.8681 -0.1253
  386MOL0     H52069   7.487  -0.647  10.450 -4.3141 -0.0115  1.9602
  386MOL0     H52070   7.562  -0.690  10.107  0.4269  1.4810  1.1460
  386MOL0     H52071   7.466  -0.709   9.865  0.7059 -1.1697  0.0532
  386MOL0     H52072   7.553  -0.638   9.736 -0.2250  0.3643 -0.5152
  386MOL0     H52073   7.635  -0.748   9.860  0.0540 -1.2834 -2.0949
  386MOL0     H52074   7.873  -0.346   9.500  0.0310  2.3646 -0.0606
  386MOL0     H52075   7.847  -0.263   9.264 -1.6348  0.4693 -0.0005
  386MOL0     H52076   7.787  -0.210   9.057 -1.3929  0.3603 -0.9367
  386MOL0     H52077   7.791  -0.389   9.037  0.0301 -0.8792 -0.9680
  386MOL0     H52078   7.630  -0.207   8.872  0.6547 -0.3719  1.9759
  386MOL0     H52079   7.776  -0.305   8.819 -1.2210 -0.9994 -2.7003
  386MOL0     H52080   7.525  -0.448   8.917 -1.3371  3.7430  0.5946
  386MOL0     H52081   7.680  -0.506   8.860 -0.2358  0.2525  0.2219
  386MOL0     H52082   7.481  -0.344   8.675  0.3983  0.0644 -1.3868
  386MOL0     H52083   7.647  -0.414   8.641  0.5619 -1.9604 -0.6234
  386MOL0     H52084   7.400  -0.574   8.719  0.3099 -3.8587 -1.3152
  386MOL0     H52085   7.553  -0.641   8.677  0.7262 -0.0794 -2.2900
  386MOL0     H52086   7.377  -0.481   8.490 -0.5449  0.0734 -0.4276
  386MOL0     H52087   7.536  -0.532   8.452  0.9378 -1.5972  0.4501
  386MOL0     H52088   7.493  -0.761   8.479  0.5436  0.4548  2.2866
  386MOL0     H52089   7.374  -0.680   8.368 -2.2922  0.7708  0.7448
  386MOL0     H52090   7.299  -0.771   8.642  1.9734 -1.8901  0.0834
  386MOL0     H52091   7.275  -0.858   8.486  0.2941  0.3322 -2.2530
  386MOL0     H52092   7.436  -0.408   9.267 -0.4014  0.9738 -2.0301
  386MOL0     H52093   7.461  -0.440   9.525  1.5739  1.2018  2.1858
  386MOL0     H52094   7.578  -0.217   9.952 -2.3948  0.7507  2.5233
  386MOL0     H52095   7.552  -0.271  10.196  0.9450  1.9904 -1.7860
  386MOL0     H52096   7.685   0.190  10.601 -1.5826  2.3465 -0.5855
  386MOL0     H52097   7.871   0.135  10.443 -4.4111 -0.9375  0.3496
  386MOL0     H52098   8.241   0.324  10.209  0.2795  1.9805 -0.1439
  386MOL0     H52099   8.422   0.284  10.059  1.0874 -0.4166  1.0995
  386MOL0     H52100   8.692  -0.077  10.079  1.2880 -2.4101 -1.1499
  386MOL0     H52101   8.547  -0.136   9.975 -0.1115 -1.3142  2.8281
  386MOL0     H52102   8.642   0.001   9.794  3.1797  1.5920 -1.5686
  386MOL0     H52103   8.749  -0.129   9.831  0.3500  1.6374 -1.4472
  386MOL0     H52104   8.901   0.053   9.818  1.4196 -1.6780  1.6316
  386MOL0     H52105   8.879   0.016   9.980 -0.2463 -1.6101 -0.7535
  386MOL0     H52106   8.733   0.223  10.019 -0.4754  1.2266  0.0106
  386MOL0     H52107   8.707   0.242   9.847 -3.1619  2.9197  3.6496
  386MOL0     H52108   9.073   0.426  10.015 -0.2551 -0.4983  0.7709
  386MOL0     H52109   8.467  -0.117  10.208 -2.3276 -1.6018 -2.3636
  386MOL0     H52110   8.308  -0.075  10.382  2.5795 -0.3204  1.0369
  387MOL0     O52111   1.575   2.864   9.316  0.2278 -0.0813 -0.3963
  387MOL0     C52112   1.547   2.981   9.310 -0.6481 -0.4384 -0.0120
  387MOL0     O52113   1.548   3.049   9.187  0.2268  0.0994  0.3360
  387MOL0     C52114   1.540   2.963   9.075  0.3729 -0.5524 -0.4509
  387MOL0     C52115   1.644   2.978   8.987  0.5606  0.5101 -0.3530
  387MOL0     C52116   1.638   2.923   8.859  0.0618  0.3193 -0.3763
  387MOL0     C52117   1.541   2.837   8.819  0.2742 -0.5648 -0.2359
  387MOL0     O52118   1.545   2.764   8.699  0.1283 -0.4483  0.0185
  387MOL0     C52119   1.678   2.738   8.641  0.6400 -0.7148  0.0206
  387MOL0     C52120   1.659   2.606   8.566  0.1908  1.0724  0.1609
  387MOL0     C52121   1.600   2.481   8.637  1.5026  0.9901 -0.0636
  387MOL0     C52122   1.554   2.369   8.531 -0.5144  0.1774 -0.3605
  387MOL0     C52123   1.474   2.266   8.615  0.4004 -0.5185 -0.6383
  387MOL0     C52124   1.414   2.146   8.541 -0.3156  0.2389  0.6929
  387MOL0     C52125   1.326   2.188   8.415  0.0640  0.1590 -0.2070
  387MOL0     C52126   1.188   2.250   8.447 -0.1910  0.6112  0.1767
  387MOL0     N52127   1.191   2.385   8.512 -0.0214  0.7470  0.1231
  387MOL0     C52128   1.236   2.497   8.461 -0.3719  0.4531 -0.0058
  387MOL0     C52129   1.219   2.590   8.553  0.4642 -0.3455 -0.9293
  387MOL0     C52130   1.258   2.730   8.537 -0.9966 -0.4867  0.4485
  387MOL0     C52131   1.141   2.822   8.493 -0.3879  0.5249 -0.2994
  387MOL0     C52132   1.173   2.886   8.359  0.0852 -0.4036 -0.2879
  387MOL0     C52133   1.195   2.792   8.238  0.6255 -0.3219 -0.3576
  387MOL0     O52134   1.119   2.669   8.226  0.0014  0.0446 -0.8936
  387MOL0     C52135   0.979   2.666   8.218  0.1400 -0.0174  0.1770
  387MOL0     C52136   0.921   2.722   8.105  0.5361  0.4971 -0.6423
  387MOL0     C52137   0.781   2.727   8.092  0.5365  0.2533  0.3853
  387MOL0     C52138   0.737   2.778   7.961 -0.2991 -1.2978 -0.7366
  387MOL0     C52139   0.694   2.689   8.194  0.2367 -0.1796  0.3351
  387MOL0     C52140   0.541   2.707   8.195 -0.5742  0.5617  0.2871
  387MOL0     O52141   0.474   2.665   8.306  0.9068 -0.6060  0.7072
  387MOL0     C52142   0.339   2.684   8.327  0.0421 -0.1824 -0.7163
  387MOL0     C52143   0.260   2.576   8.366  0.3377  0.3199 -0.4486
  387MOL0     C52144   0.123   2.596   8.386  0.5560 -0.4365 -0.6409
  387MOL0     C52145   0.072   2.731   8.399 -0.4722  1.0092 -0.3351
  387MOL0     O52146  -0.060   2.758   8.408  0.3940  0.4241 -0.5487
  387MOL0     C52147  -0.129   2.670   8.499 -0.3430  0.0400  0.3615
  387MOL0     C52148  -0.277   2.708   8.528 -0.4381 -0.0465 -0.2374
  387MOL0     C52149  -0.366   2.695   8.402 -0.2706 -0.2844  0.4962
  387MOL0     C52150  -0.510   2.743   8.419 -0.2838 -0.2544  0.4718
  387MOL0     C52151  -0.592   2.664   8.319  0.0890  0.2904  0.0600
  387MOL0     C52152  -0.733   2.724   8.304  0.9740  0.0663 -0.1758
  387MOL0     C52153  -0.812   2.631   8.214  0.4653  0.4175  1.0341
  387MOL0     C52154  -0.949   2.673   8.159 -0.5405  0.0444  0.4975
  387MOL0    Cl52155  -0.940   2.821   8.061  0.1501 -0.0045 -0.0400
  387MOL0     C52156   0.154   2.837   8.349 -0.5638 -0.3413 -0.7330
  387MOL0     C52157   0.287   2.816   8.320  0.8911 -0.6007 -0.7464
  387MOL0     O52158   0.491   2.744   8.089  0.0512 -0.5392 -0.5117
  387MOL0     C52159   0.760   2.633   8.311 -0.0791  0.7358  0.4229
  387MOL0     C52160   0.895   2.620   8.317  0.5233 -0.0437  0.4355
  387MOL0     N52161   1.160   2.532   8.664 -0.1592 -0.2262  0.0729
  387MOL0     N52162   1.153   2.404   8.643 -0.8351 -0.7528 -0.4349
  387MOL0     C52163   1.436   2.809   8.912 -0.5636 -0.8359  0.3241
  387MOL0     C52164   1.433   2.877   9.034  0.0816 -0.4451  0.6757
  387MOL0     C52165   1.533   3.060   9.433 -0.6644 -0.1454 -0.2116
  387MOL0     C52166   1.512   3.202   9.415  0.3781 -0.6836  0.5903
  387MOL0     C52167   1.478   3.272   9.532  0.0246 -0.3738  0.1703
  387MOL0     C52168   1.460   3.220   9.662 -0.6167 -0.6045  0.0115
  387MOL0     O52169   1.445   3.293   9.771  0.4147 -0.6928  0.0854
  387MOL0     C52170   1.562   3.349   9.824  0.5496 -0.3336  0.7888
  387MOL0     C52171   1.570   3.390   9.968 -0.3116  0.3971 -0.7510
  387MOL0     C52172   1.624   3.531   9.975 -0.3580 -0.1329 -0.4573
  387MOL0     C52173   1.659   3.561  10.119 -0.8702 -0.7774  0.9880
  387MOL0     C52174   1.722   3.691  10.138 -0.0561  0.0166  0.6213
  387MOL0     C52175   1.776   3.804  10.135  0.3821  0.5712 -0.3566
  387MOL0     C52176   1.502   3.089   9.672 -0.1930  0.2041  0.2653
  387MOL0     C52177   1.528   3.008   9.557 -0.0752  0.0867 -0.3702
  387MOL0     H52178   1.727   3.041   9.018  0.0810  1.4545 -0.9259
  387MOL0     H52179   1.715   2.954   8.789 -0.3287  1.7493 -0.2227
  387MOL0     H52180   1.712   2.828   8.589 -0.9646  1.2000  2.0666
  387MOL0     H52181   1.749   2.717   8.722 -0.0307  1.8330  1.3997
  387MOL0     H52182   1.589   2.629   8.485  0.4972  1.6255  0.0542
  387MOL0     H52183   1.756   2.586   8.521  0.4902  2.0058  0.3758
  387MOL0     H52184   1.680   2.452   8.705  1.0440  0.7770  0.3896
  387MOL0     H52185   1.514   2.513   8.696 -0.1061 -3.1197  0.1855
  387MOL0     H52186   1.495   2.408   8.447  1.7150  1.8234 -1.2850
  387MOL0     H52187   1.646   2.333   8.484 -0.5942 -0.3476 -0.1229
  387MOL0     H52188   1.536   2.236   8.700  0.4327 -1.0658 -0.8521
  387MOL0     H52189   1.393   2.318   8.668 -0.0804  0.4743 -2.2959
  387MOL0     H52190   1.495   2.084   8.503  1.3925  2.0281  1.2895
  387MOL0     H52191   1.351   2.085   8.606  0.6187  1.0007  2.3755
  387MOL0     H52192   1.370   2.256   8.342 -1.7533 -0.6027 -2.0967
  387MOL0     H52193   1.307   2.094   8.363  3.0126 -0.5632 -0.1639
  387MOL0     H52194   1.141   2.175   8.511  0.8545  0.9245  1.3463
  387MOL0     H52195   1.137   2.265   8.351 -2.3967  2.5924  1.5590
  387MOL0     H52196   1.279   2.510   8.362 -1.8742 -0.2379 -0.7783
  387MOL0     H52197   1.285   2.756   8.640  0.0339 -1.2383  0.3853
  387MOL0     H52198   1.352   2.738   8.481 -1.9896  0.1929 -1.1819
  387MOL0     H52199   1.124   2.901   8.566 -1.5005  1.4515 -1.5250
  387MOL0     H52200   1.054   2.756   8.486 -0.0321  0.2171 -3.3617
  387MOL0     H52201   1.273   2.929   8.372  0.4095 -1.3833  0.6898
  387MOL0     H52202   1.103   2.965   8.332  1.3171  0.5114 -0.9291
  387MOL0     H52203   1.304   2.782   8.235  0.9644  0.9721  2.9245
  387MOL0     H52204   1.162   2.848   8.150 -1.1935  0.2021  0.6044
  387MOL0     H52205   0.988   2.765   8.032  4.1372 -0.3699  1.8669
  387MOL0     H52206   0.824   2.793   7.896  0.0288  6.5068  0.5721
  387MOL0     H52207   0.681   2.696   7.914 -1.7486 -2.3703  2.5453
  387MOL0     H52208   0.672   2.865   7.967 -1.2582 -2.0848  1.8856
  387MOL0     H52209   0.306   2.478   8.359  0.0656  0.1298  0.3423
  387MOL0     H52210   0.057   2.510   8.393 -2.8119  2.0010  0.4540
  387MOL0     H52211  -0.146   2.570   8.457 -0.9681  0.5657 -0.6708
  387MOL0     H52212  -0.069   2.660   8.590 -1.9028 -2.8844  1.1743
  387MOL0     H52213  -0.322   2.641   8.602  0.8054  1.6447  2.2118
  387MOL0     H52214  -0.274   2.811   8.564 -0.7928  0.0486 -0.4719
  387MOL0     H52215  -0.361   2.592   8.368 -2.0149 -0.4806  0.7222
  387MOL0     H52216  -0.328   2.755   8.319 -3.0614  0.9838  0.0120
  387MOL0     H52217  -0.563   2.723   8.512 -0.5987  0.5148  0.4678
  387MOL0     H52218  -0.518   2.851   8.403  0.4592 -0.6121 -3.2405
  387MOL0     H52219  -0.602   2.560   8.353 -3.4182 -0.2092 -2.0362
  387MOL0     H52220  -0.545   2.673   8.220  1.3850  1.2364  0.7299
  387MOL0     H52221  -0.771   2.726   8.406  0.6696 -0.5821 -0.2687
  387MOL0     H52222  -0.729   2.822   8.256 -0.8883 -0.3815 -1.3626
  387MOL0     H52223  -0.829   2.538   8.270 -1.6334 -0.4292 -0.8703
  387MOL0     H52224  -0.767   2.597   8.121 -6.6470  0.3390 -3.0834
  387MOL0     H52225  -1.023   2.700   8.235 -0.1705  4.4898 -0.4765
  387MOL0     H52226  -1.000   2.593   8.104 -1.9085 -0.5452  2.5288
  387MOL0     H52227   0.114   2.937   8.349  1.8321  0.7530  2.0598
  387MOL0     H52228   0.352   2.901   8.297  1.7647 -1.7511 -2.7971
  387MOL0     H52229   0.708   2.598   8.400 -1.5945  1.2265 -0.2439
  387MOL0     H52230   0.954   2.572   8.395 -0.5007  0.8828  1.8238
  387MOL0     H52231   1.354   2.749   8.874 -2.3639  1.9630 -0.4867
  387MOL0     H52232   1.343   2.873   9.095  0.3381  0.0546  1.1022
  387MOL0     H52233   1.538   3.246   9.319  1.1730 -1.1849  0.5686
  387MOL0     H52234   1.457   3.378   9.519 -3.4880 -1.2997 -3.7311
  387MOL0     H52235   1.639   3.273   9.813  1.9663  1.1620 -0.2389
  387MOL0     H52236   1.590   3.434   9.761  0.3967  1.2740  2.7710
  387MOL0     H52237   1.621   3.316  10.030 -1.2073 -0.8291 -1.4169
  387MOL0     H52238   1.468   3.399  10.006 -0.1442  1.7530 -0.5745
  387MOL0     H52239   1.543   3.600   9.949 -0.5951 -0.7981 -1.5924
  387MOL0     H52240   1.714   3.546   9.915  1.3137  1.1151  2.1824
  387MOL0     H52241   1.735   3.487  10.147 -1.7950 -2.5405 -0.9036
  387MOL0     H52242   1.572   3.546  10.184  0.0912 -0.8075  2.3110
  387MOL0     H52243   1.809   3.905  10.144 -3.4553  1.9776 -0.2437
  387MOL0     H52244   1.497   3.050   9.774  0.8759  0.3230  0.3835
  387MOL0     H52245   1.549   2.902   9.564 -0.3122  0.1656  2.9016
  388MOL0     O52246   4.600   7.622   8.186  0.1488 -0.8920 -0.2986
  388MOL0     C52247   4.705   7.576   8.227 -0.2798  0.1907  0.0600
  388MOL0     O52248   4.731   7.442   8.225  0.3200 -0.0634  0.5087
  388MOL0     C52249   4.645   7.352   8.172 -0.6523 -0.2955 -0.2911
  388MOL0     C52250   4.645   7.229   8.235  0.4169 -0.4256  0.5572
  388MOL0     C52251   4.565   7.128   8.180  0.6212 -0.0883  0.1284
  388MOL0     C52252   4.475   7.152   8.075  0.3376 -0.3097 -0.4111
  388MOL0     O52253   4.420   7.043   8.013  0.2735  0.0789 -0.6912
  388MOL0     C52254   4.395   6.927   8.089 -0.8253 -0.3736  0.2838
  388MOL0     C52255   4.322   6.836   7.991  0.2260  0.2755 -0.1512
  388MOL0     C52256   4.213   6.890   7.900 -0.1148  0.7056  0.3317
  388MOL0     C52257   4.106   6.953   7.994  0.0644 -0.9642  0.3887
  388MOL0     C52258   3.962   6.926   7.939  0.1376 -0.6521  0.0652
  388MOL0     C52259   3.865   7.016   8.001 -0.7115  0.1256  0.2158
  388MOL0     C52260   3.748   6.960   8.076  0.3830  0.6205  0.7772
  388MOL0     C52261   3.806   6.912   8.207 -0.2136 -0.6801  0.4056
  388MOL0     N52262   3.696   6.892   8.309 -0.0240  0.0501  0.1799
  388MOL0     C52263   3.577   6.834   8.290  1.1617 -0.0546  0.1048
  388MOL0     C52264   3.507   6.845   8.407  0.4921  0.4571  0.0218
  388MOL0     C52265   3.356   6.812   8.424 -1.0712 -0.1287 -0.2672
  388MOL0     C52266   3.295   6.881   8.550  0.4913  0.0422 -0.6096
  388MOL0     C52267   3.307   7.045   8.561 -0.4694 -0.0626 -0.1889
  388MOL0     C52268   3.242   7.106   8.438  0.0636  0.4531  0.6674
  388MOL0     O52269   3.232   7.248   8.459 -0.7037  0.9358  0.6227
  388MOL0     C52270   3.320   7.323   8.386  0.2387  0.0287  0.1836
  388MOL0     C52271   3.456   7.289   8.370 -0.7702 -0.1013  0.0393
  388MOL0     C52272   3.556   7.362   8.294  0.3344 -0.0269 -0.2297
  388MOL0     C52273   3.692   7.304   8.271  0.6845  0.1145  0.3930
  388MOL0     C52274   3.508   7.481   8.229 -0.4039 -0.4733 -0.8539
  388MOL0     C52275   3.588   7.565   8.138  1.1752 -0.8148 -1.2575
  388MOL0     O52276   3.722   7.550   8.160  0.0002 -0.5225  0.5099
  388MOL0     C52277   3.813   7.587   8.065 -0.3112 -0.4713  0.8729
  388MOL0     C52278   3.945   7.547   8.093  0.1166  0.5103 -0.9240
  388MOL0     C52279   4.053   7.587   8.002 -0.2580  0.7519  0.9276
  388MOL0     C52280   4.036   7.663   7.884  0.5918  0.3298 -0.4534
  388MOL0     O52281   4.137   7.696   7.806  0.0660  0.7053  0.5314
  388MOL0     C52282   4.263   7.716   7.853  1.1910 -0.2007  0.3929
  388MOL0     C52283   4.358   7.692   7.747 -0.0925 -0.8771  0.1505
  388MOL0     C52284   4.494   7.733   7.787  0.7540  0.0834  0.0609
  388MOL0     C52285   4.595   7.704   7.674  0.4451  0.3266 -0.5840
  388MOL0     C52286   4.578   7.804   7.558  0.6398  0.4120  0.1020
  388MOL0     C52287   4.695   7.871   7.501 -0.3552  0.0701  0.1364
  388MOL0     C52288   4.656   7.971   7.385  0.0336 -0.0356  0.2500
  388MOL0     C52289   4.786   8.005   7.314 -0.0634 -0.4695 -0.2561
  388MOL0    Cl52290   4.762   8.180   7.293 -0.0637 -0.3781  0.1913
  388MOL0     C52291   3.911   7.711   7.860 -0.2033  0.4733  0.7910
  388MOL0     C52292   3.799   7.669   7.943 -0.9285  0.8607  0.3695
  388MOL0     O52293   3.534   7.608   8.039  0.1322  0.4041 -0.2386
  388MOL0     C52294   3.375   7.522   8.249 -0.8115 -0.7059  0.3261
  388MOL0     C52295   3.286   7.446   8.330 -0.0811  0.2487  0.9118
  388MOL0     N52296   3.592   6.907   8.499  0.5295 -0.2791 -0.1234
  388MOL0     N52297   3.698   6.933   8.436 -0.7169 -0.1919  0.0906
  388MOL0     C52298   4.481   7.272   8.007  1.2256  0.8392 -0.2860
  388MOL0     C52299   4.562   7.369   8.052  1.5033 -0.0289 -0.4077
  388MOL0     C52300   4.803   7.668   8.301 -0.0703  0.0357 -0.7858
  388MOL0     C52301   4.824   7.796   8.259 -1.1218 -0.8423  0.3229
  388MOL0     C52302   4.933   7.865   8.314  0.2793  0.0295  0.2456
  388MOL0     C52303   5.011   7.812   8.419 -0.6767  0.9425 -0.1292
  388MOL0     O52304   5.097   7.902   8.481 -0.2143 -0.0961 -0.4202
  388MOL0     C52305   5.215   7.836   8.535  0.4720 -0.2744  0.8245
  388MOL0     C52306   5.316   7.945   8.540 -0.3062 -0.4835  0.4145
  388MOL0     C52307   5.453   7.903   8.585 -0.4391  0.3241  0.4130
  388MOL0     C52308   5.481   7.918   8.732  0.1033  0.0520 -0.2304
  388MOL0     C52309   5.454   8.047   8.790  0.2476  0.3781  0.4765
  388MOL0     C52310   5.419   8.159   8.829  0.2251 -0.2868  0.2457
  388MOL0     C52311   4.970   7.684   8.472  0.2891 -0.7863  0.7133
  388MOL0     C52312   4.866   7.611   8.413  0.0859  0.0408  0.5483
  388MOL0     H52313   4.700   7.215   8.328 -0.9027 -2.6558  1.0655
  388MOL0     H52314   4.582   7.032   8.227 -1.0584  0.4728  2.0256
  388MOL0     H52315   4.489   6.873   8.103 -2.1205 -2.9585 -0.4691
  388MOL0     H52316   4.340   6.952   8.181  0.2999  2.9971  0.1889
  388MOL0     H52317   4.394   6.798   7.918 -1.6281  1.1632 -2.6014
  388MOL0     H52318   4.268   6.753   8.037 -1.1572  0.7150 -0.8991
  388MOL0     H52319   4.253   6.959   7.825 -1.8426  0.6019 -0.7290
  388MOL0     H52320   4.167   6.809   7.843 -0.2719 -1.6751  3.5715
  388MOL0     H52321   4.109   6.900   8.090 -0.1007 -0.5377  0.6320
  388MOL0     H52322   4.119   7.059   8.016 -2.1673 -0.9677  2.0705
  388MOL0     H52323   3.977   6.951   7.834  0.4612 -0.2186  0.2101
  388MOL0     H52324   3.941   6.819   7.951  1.6101 -1.0208 -0.4367
  388MOL0     H52325   3.919   7.090   8.061  0.5223  0.5306 -1.3303
  388MOL0     H52326   3.825   7.071   7.916  1.2298  0.3563 -0.6038
  388MOL0     H52327   3.665   7.029   8.095  0.0092  0.5652 -0.5337
  388MOL0     H52328   3.693   6.877   8.030 -2.9960  3.4329 -0.8010
  388MOL0     H52329   3.864   6.996   8.245 -1.8531 -1.0382  4.0711
  388MOL0     H52330   3.867   6.821   8.197  0.3158 -0.3610  0.6915
  388MOL0     H52331   3.543   6.797   8.194  2.1636  1.2905 -0.8011
  388MOL0     H52332   3.292   6.835   8.338 -0.0815 -1.8833 -1.5464
  388MOL0     H52333   3.356   6.707   8.454  1.1486 -0.5185 -1.3577
  388MOL0     H52334   3.348   6.850   8.640  0.5615  0.9061 -0.3440
  388MOL0     H52335   3.190   6.849   8.557  0.3998  0.6569  1.2901
  388MOL0     H52336   3.413   7.069   8.576 -0.0608 -1.7703 -0.1839
  388MOL0     H52337   3.247   7.077   8.646 -1.4016  1.0585 -1.2239
  388MOL0     H52338   3.143   7.064   8.423 -0.7240  0.8775  3.9512
  388MOL0     H52339   3.304   7.078   8.352 -0.6944  1.9868 -0.4294
  388MOL0     H52340   3.493   7.202   8.425  0.8024 -0.3414 -1.3113
  388MOL0     H52341   3.695   7.195   8.279  1.4986  0.1575  0.8675
  388MOL0     H52342   3.726   7.318   8.168  0.6197 -0.5398  0.2752
  388MOL0     H52343   3.760   7.351   8.342  0.2324  0.5712  0.5274
  388MOL0     H52344   3.965   7.478   8.174 -0.2780 -0.7928 -1.9134
  388MOL0     H52345   4.152   7.550   8.025  0.7852  2.2558 -0.8268
  388MOL0     H52346   4.258   7.821   7.885 -0.1585 -1.0657  3.3602
  388MOL0     H52347   4.290   7.661   7.943 -1.2611 -1.8773  0.2045
  388MOL0     H52348   4.348   7.592   7.705 -0.3482 -0.7369 -0.1293
  388MOL0     H52349   4.336   7.766   7.669 -0.7173  0.0475  1.1856
  388MOL0     H52350   4.522   7.667   7.870 -0.2793 -1.0602 -0.4566
  388MOL0     H52351   4.493   7.840   7.806  3.0585  0.9791 -3.8633
  388MOL0     H52352   4.695   7.720   7.716 -0.0039  1.2433  0.1643
  388MOL0     H52353   4.585   7.607   7.624 -1.2317 -0.0683  0.4453
  388MOL0     H52354   4.507   7.884   7.581 -1.1874 -1.2984  0.7072
  388MOL0     H52355   4.527   7.751   7.477 -0.0209 -1.4770  1.6860
  388MOL0     H52356   4.750   7.928   7.576  0.3936  1.4445 -1.4108
  388MOL0     H52357   4.757   7.787   7.466 -0.5706 -0.1998  0.3916
  388MOL0     H52358   4.613   8.059   7.434  0.9402  2.2952 -2.8290
  388MOL0     H52359   4.581   7.928   7.318 -1.0924  1.6043  0.4097
  388MOL0     H52360   4.794   7.956   7.217 -2.4728  3.7673 -2.9221
  388MOL0     H52361   4.884   7.978   7.353  0.3638 -1.0143 -1.6382
  388MOL0     H52362   3.886   7.780   7.780 -0.1179 -2.0727 -1.5756
  388MOL0     H52363   3.703   7.711   7.916 -0.8964  1.0485  0.5412
  388MOL0     H52364   3.361   7.622   8.211  2.1341 -0.1387  0.4970
  388MOL0     H52365   3.185   7.481   8.349 -0.0795 -0.0205  1.4276
  388MOL0     H52366   4.395   7.297   7.945  0.5797  1.8179  0.9408
  388MOL0     H52367   4.553   7.463   7.999  0.6037  0.9546  1.3927
  388MOL0     H52368   4.755   7.822   8.180 -0.7067 -0.7172 -0.0044
  388MOL0     H52369   4.941   7.968   8.283  1.5692  0.5406  2.0988
  388MOL0     H52370   5.206   7.804   8.639  1.2793  2.6194  1.8964
  388MOL0     H52371   5.247   7.759   8.465  0.7374 -1.4759  2.2412
  388MOL0     H52372   5.276   8.031   8.595  0.7934 -1.0102  2.0733
  388MOL0     H52373   5.333   7.978   8.437  1.0866  0.7784  1.0191
  388MOL0     H52374   5.532   7.952   8.528  0.1887  2.2276  2.7752
  388MOL0     H52375   5.449   7.797   8.556 -0.3767  0.6732 -0.9170
  388MOL0     H52376   5.577   7.876   8.763 -0.0638  1.8543  3.1610
  388MOL0     H52377   5.406   7.853   8.779 -1.7628  2.1305 -0.1930
  388MOL0     H52378   5.392   8.259   8.856 -1.0974 -0.4118 -0.5551
  388MOL0     H52379   5.026   7.658   8.560 -0.7380  1.5026  2.1369
  388MOL0     H52380   4.839   7.518   8.463 -0.0541 -0.7970 -1.0227
  389MOL0     O52381   7.722   7.068   0.614  0.7260  0.0415 -0.4506
  389MOL0     C52382   7.726   7.036   0.731  0.2700  0.3068 -0.5506
  389MOL0     O52383   7.837   7.030   0.811  0.5353 -0.1472  0.0567
  389MOL0     C52384   7.941   7.103   0.783 -0.5360 -0.1579  0.7970
  389MOL0     C52385   7.939   7.247   0.791 -0.5102  0.4194  0.7211
  389MOL0     C52386   8.056   7.316   0.757  0.0442 -0.0247  0.2391
  389MOL0     C52387   8.171   7.240   0.727  0.1863 -0.1352  0.2201
  389MOL0     O52388   8.286   7.314   0.710  0.5581  0.2913  1.2826
  389MOL0     C52389   8.399   7.252   0.659 -1.2032  0.0921 -0.2722
  389MOL0     C52390   8.490   7.206   0.780  1.1371 -0.3706  0.6965
  389MOL0     C52391   8.631   7.172   0.730 -0.3860  0.4216  0.5674
  389MOL0     C52392   8.727   7.162   0.854  0.1211 -0.3290 -0.3814
  389MOL0     C52393   8.868   7.122   0.835 -1.7826  0.6348  0.4699
  389MOL0     C52394   8.888   6.972   0.845 -0.3815  0.3826  1.1922
  389MOL0     C52395   9.022   6.936   0.787 -0.4644 -0.0041  0.4974
  389MOL0     C52396   9.148   6.972   0.867 -0.3961 -0.2420 -1.3589
  389MOL0     N52397   9.259   6.922   0.788 -0.1291  0.4555 -0.6757
  389MOL0     C52398   9.322   6.990   0.696 -0.7212 -1.0617  0.7119
  389MOL0     C52399   9.427   6.910   0.663 -0.6366  0.1649  0.2788
  389MOL0     C52400   9.544   6.947   0.582  0.8053 -0.4141 -0.2236
  389MOL0     C52401   9.666   7.000   0.653  0.1378  0.5152  0.1433
  389MOL0     C52402   9.777   7.044   0.559  0.1991  0.5995 -1.0075
  389MOL0     C52403   9.865   7.159   0.618  0.7986  0.6449  0.5437
  389MOL0     O52404   9.946   7.107   0.729  0.5201 -0.2775 -1.1141
  389MOL0     C52405  10.035   7.194   0.798 -0.0120 -0.6777  0.4424
  389MOL0     C52406  10.059   7.330   0.759 -0.7475  0.7827  0.2712
  389MOL0     C52407  10.157   7.416   0.816 -0.2975 -0.0732  0.0830
  389MOL0     C52408  10.165   7.561   0.782 -0.8295  0.5035  0.0904
  389MOL0     C52409  10.244   7.353   0.906  0.4428  0.5655 -0.0269
  389MOL0     C52410  10.356   7.430   0.960  0.4491  0.3959 -1.5208
  389MOL0     O52411  10.445   7.502   0.883  0.0243  0.1163 -0.0709
  389MOL0     C52412  10.582   7.520   0.913  0.8970 -0.6083  0.0447
  389MOL0     C52413  10.641   7.638   0.867 -0.4422 -0.3132  0.0248
  389MOL0     C52414  10.776   7.659   0.858 -0.2146  0.3634 -0.1975
  389MOL0     C52415  10.862   7.555   0.909  0.0306 -0.0546  0.3888
  389MOL0     O52416  11.001   7.565   0.923  0.2032  0.1800 -0.4946
  389MOL0     C52417  11.045   7.703   0.935 -0.5215  0.2372  0.1218
  389MOL0     C52418  11.192   7.712   0.954 -0.8278 -0.2041  0.3469
  389MOL0     C52419  11.264   7.706   0.819  0.5912 -0.7515  0.5982
  389MOL0     C52420  11.270   7.577   0.754 -0.4639  0.0691 -0.2812
  389MOL0     C52421  11.412   7.568   0.687 -0.1592  0.6730 -0.0986
  389MOL0     C52422  11.408   7.435   0.611  0.3850 -0.4575  0.9795
  389MOL0     C52423  11.523   7.417   0.507  0.7626 -0.1793 -0.5747
  389MOL0     C52424  11.663   7.433   0.567 -0.0331  0.1987  0.3133
  389MOL0    Cl52425  11.797   7.429   0.444 -0.0855  0.3229  0.0743
  389MOL0     C52426  10.807   7.435   0.945  0.4210 -0.9250 -0.8087
  389MOL0     C52427  10.667   7.419   0.948 -0.0234  0.1984 -0.2604
  389MOL0     O52428  10.375   7.418   1.079 -0.0034 -0.0865  0.0898
  389MOL0     C52429  10.227   7.220   0.946  0.2791  0.8770  0.8081
  389MOL0     C52430  10.117   7.149   0.892  0.0747  1.4475 -0.5149
  389MOL0     N52431   9.411   6.788   0.736 -0.1135  0.0408 -0.3278
  389MOL0     N52432   9.308   6.799   0.815 -0.2670 -0.9369  0.2021
  389MOL0     C52433   8.175   7.101   0.743  0.2949  0.3891 -0.7842
  389MOL0     C52434   8.060   7.029   0.756  0.4297  0.0976 -0.2334
  389MOL0     C52435   7.615   6.960   0.775 -0.2063  0.3720 -0.9189
  389MOL0     C52436   7.519   6.911   0.690  0.4114  1.3723  0.2185
  389MOL0     C52437   7.401   6.855   0.744  0.1232  0.1230 -0.1048
  389MOL0     C52438   7.378   6.851   0.888 -0.2946  0.6418 -0.1376
  389MOL0     O52439   7.262   6.792   0.937 -0.4242  0.4869 -0.0382
  389MOL0     C52440   7.248   6.751   1.079  0.3975  0.5074  0.0891
  389MOL0     C52441   7.148   6.634   1.090 -0.2649 -0.3384 -0.3439
  389MOL0     C52442   7.104   6.630   1.235 -0.1528  0.0853 -0.1525
  389MOL0     C52443   7.216   6.559   1.319  0.8983  0.2419 -0.0383
  389MOL0     C52444   7.312   6.649   1.381  0.1825  0.6348 -0.1140
  389MOL0     C52445   7.390   6.700   1.459 -0.3002 -0.9060 -0.9903
  389MOL0     C52446   7.482   6.899   0.967 -0.9964 -0.2042 -0.4683
  389MOL0     C52447   7.596   6.955   0.912 -0.3099  0.1319 -0.1018
  389MOL0     H52448   7.854   7.307   0.822 -0.2333  0.3309  1.6876
  389MOL0     H52449   8.070   7.423   0.744  1.5538  0.0595  2.0029
  389MOL0     H52450   8.385   7.165   0.594  1.2537  0.3992 -1.3044
  389MOL0     H52451   8.447   7.331   0.601 -0.3919 -1.3688 -1.6734
  389MOL0     H52452   8.506   7.287   0.851  0.4260  0.0198  0.4165
  389MOL0     H52453   8.435   7.132   0.839 -0.4856 -0.5425 -0.9306
  389MOL0     H52454   8.633   7.084   0.665 -0.5768  1.0550 -0.3259
  389MOL0     H52455   8.681   7.253   0.676 -1.2757  1.1534  0.8263
  389MOL0     H52456   8.742   7.260   0.899  2.4311 -0.1934 -1.3320
  389MOL0     H52457   8.671   7.102   0.926  1.4908  0.3331  1.3091
  389MOL0     H52458   8.889   7.148   0.731 -1.6906 -2.8054 -0.5196
  389MOL0     H52459   8.931   7.176   0.906  0.1059 -2.0712  1.0191
  389MOL0     H52460   8.875   6.927   0.944  1.0653  0.2642  1.3387
  389MOL0     H52461   8.813   6.916   0.788 -0.2411 -1.1671  2.4497
  389MOL0     H52462   9.023   6.828   0.773 -3.1375 -0.4629  2.8649
  389MOL0     H52463   9.033   6.985   0.690 -0.8567  1.3975  1.1247
  389MOL0     H52464   9.143   6.921   0.963  1.0469 -0.5581 -1.4322
  389MOL0     H52465   9.155   7.075   0.905 -2.9585 -0.4149 -0.2131
  389MOL0     H52466   9.300   7.082   0.642 -1.7985 -1.7676 -0.1069
  389MOL0     H52467   9.574   6.864   0.517  0.2285 -1.5995  0.9657
  389MOL0     H52468   9.502   7.027   0.521  0.6717  2.1389  2.9163
  389MOL0     H52469   9.703   6.921   0.720  0.1955  2.5701  2.6805
  389MOL0     H52470   9.640   7.069   0.734  1.5454 -0.0832  1.1447
  389MOL0     H52471   9.734   7.079   0.465 -3.9434  0.1326  0.5190
  389MOL0     H52472   9.852   6.966   0.545  1.3680  1.0460  1.9748
  389MOL0     H52473   9.801   7.236   0.661  0.2620  1.5657 -1.7859
  389MOL0     H52474   9.928   7.195   0.536  1.9172 -0.9654  0.6416
  389MOL0     H52475   9.998   7.365   0.675 -0.1619 -0.0550 -0.5228
  389MOL0     H52476  10.160   7.629   0.868  0.5980  0.9107 -0.1281
  389MOL0     H52477  10.263   7.581   0.738 -1.3365  1.3247 -0.7075
  389MOL0     H52478  10.087   7.586   0.709 -2.4131 -0.8672  1.2301
  389MOL0     H52479  10.566   7.711   0.837 -0.0175  0.7089  1.3519
  389MOL0     H52480  10.815   7.752   0.818 -1.4534  0.5724 -0.9668
  389MOL0     H52481  11.023   7.771   0.852  0.6190 -2.1789 -2.2903
  389MOL0     H52482  11.006   7.738   1.032  0.6925 -1.8228  1.4190
  389MOL0     H52483  11.226   7.806   0.999  0.8442 -1.3337  1.5646
  389MOL0     H52484  11.232   7.632   1.017  1.3172 -0.2215 -0.9438
  389MOL0     H52485  11.365   7.738   0.846  1.1034 -2.4118  0.7174
  389MOL0     H52486  11.227   7.786   0.754  5.7136  0.6025 -1.1275
  389MOL0     H52487  11.262   7.491   0.821 -1.4268  1.8071  1.9617
  389MOL0     H52488  11.190   7.566   0.681 -2.2829  3.5877  0.9198
  389MOL0     H52489  11.480   7.569   0.772 -2.0607  0.2764  1.5114
  389MOL0     H52490  11.429   7.654   0.621 -0.8484  2.3859  1.8681
  389MOL0     H52491  11.403   7.355   0.685 -0.1183  0.8725  2.4428
  389MOL0     H52492  11.320   7.423   0.547  1.4910 -1.0076 -0.4744
  389MOL0     H52493  11.517   7.477   0.416 -1.3596 -0.1943 -0.4913
  389MOL0     H52494  11.507   7.317   0.463  2.4563 -1.7416  2.1251
  389MOL0     H52495  11.678   7.354   0.641  0.8885  0.4356  0.3963
  389MOL0     H52496  11.660   7.527   0.623 -1.4921  0.7279 -0.6027
  389MOL0     H52497  10.878   7.361   0.981  1.3550  1.3921  2.6792
  389MOL0     H52498  10.629   7.319   0.970  0.3520 -0.7417 -3.3642
  389MOL0     H52499  10.302   7.164   1.001 -1.2279 -0.4561  1.5963
  389MOL0     H52500  10.102   7.049   0.932 -0.1186  0.2099 -3.3966
  389MOL0     H52501   8.266   7.041   0.743 -0.1639 -0.3194 -0.9951
  389MOL0     H52502   8.072   6.923   0.774  2.6226 -0.7288 -5.1058
  389MOL0     H52503   7.527   6.923   0.583  2.3017 -0.2459  0.1348
  389MOL0     H52504   7.320   6.814   0.685 -0.5019  2.2278 -0.7922
  389MOL0     H52505   7.348   6.718   1.109  0.0502 -0.1228  0.5825
  389MOL0     H52506   7.213   6.843   1.126 -0.8679  2.1272 -3.6966
  389MOL0     H52507   7.182   6.537   1.052 -0.6028 -0.6973  0.2393
  389MOL0     H52508   7.052   6.661   1.046 -1.9139 -0.0205  3.1277
  389MOL0     H52509   7.019   6.561   1.235 -2.0257  2.2381  1.7128
  389MOL0     H52510   7.062   6.727   1.263 -1.5321 -0.8275  1.0742
  389MOL0     H52511   7.261   6.491   1.246  0.7122  0.6927 -0.5756
  389MOL0     H52512   7.159   6.511   1.399 -0.8423 -0.0733 -1.4120
  389MOL0     H52513   7.459   6.751   1.523 -1.1593 -2.9290  1.7159
  389MOL0     H52514   7.482   6.899   1.076  0.9406 -1.5693 -0.4216
  389MOL0     H52515   7.660   6.991   0.992 -1.2605 -2.2588  1.8597
  390MOL0     O52516   4.753   5.504   5.184 -1.0111  0.2521  0.3963
  390MOL0     C52517   4.732   5.591   5.097 -0.1441 -0.0433 -0.4166
  390MOL0     O52518   4.622   5.604   5.020 -0.2769  0.5355 -0.1197
  390MOL0     C52519   4.528   5.496   5.004  0.0237  0.6153  0.5675
  390MOL0     C52520   4.398   5.540   4.978  0.6647 -0.1846  0.0500
  390MOL0     C52521   4.294   5.441   4.967  0.5252 -0.8204  0.2220
  390MOL0     C52522   4.325   5.304   4.992  0.0968  0.7571  0.6311
  390MOL0     O52523   4.238   5.210   5.000  0.0157  0.1709 -0.0499
  390MOL0     C52524   4.147   5.227   5.108  1.1843 -0.4782 -0.4063
  390MOL0     C52525   3.999   5.253   5.076  0.0658 -0.0062 -0.2329
  390MOL0     C52526   3.928   5.155   4.985  0.5673 -0.0816  0.0401
  390MOL0     C52527   3.783   5.205   4.960 -1.2563  0.0247  0.2324
  390MOL0     C52528   3.724   5.125   4.846 -0.3321  0.9662  0.6439
  390MOL0     C52529   3.571   5.139   4.832 -0.4582 -0.1047 -0.7671
  390MOL0     C52530   3.496   5.091   4.950  0.3174 -0.0926 -0.5880
  390MOL0     C52531   3.515   4.953   4.985 -0.3092  0.7764 -0.0827
  390MOL0     N52532   3.398   4.871   5.026  0.4042  0.2743  0.9666
  390MOL0     C52533   3.368   4.840   5.156 -0.7662  0.6241  0.1987
  390MOL0     C52534   3.283   4.738   5.140  0.7867  0.6203 -0.8068
  390MOL0     C52535   3.218   4.664   5.263  0.6215  0.4196  0.1612
  390MOL0     C52536   3.068   4.674   5.264 -0.5391  0.6068  0.2688
  390MOL0     C52537   2.991   4.571   5.338  0.3403  0.4939 -0.7545
  390MOL0     C52538   2.970   4.613   5.482 -0.2520 -0.1342  0.1482
  390MOL0     O52539   2.863   4.699   5.510  0.4116  0.0350  0.2942
  390MOL0     C52540   2.740   4.679   5.448  0.3170 -0.3921 -0.0928
  390MOL0     C52541   2.669   4.790   5.408  0.3373 -0.6079  0.4222
  390MOL0     C52542   2.542   4.780   5.336 -0.3165  0.0944 -0.0878
  390MOL0     C52543   2.480   4.897   5.267  0.1466 -0.9046 -0.5659
  390MOL0     C52544   2.489   4.650   5.316  0.4851  0.6642 -0.8299
  390MOL0     C52545   2.364   4.619   5.247  0.0657 -0.7286 -0.0118
  390MOL0     O52546   2.331   4.499   5.197  0.2197 -0.2055 -0.8601
  390MOL0     C52547   2.216   4.460   5.144  0.5971 -0.1173  0.5393
  390MOL0     C52548   2.133   4.540   5.063 -0.4038  0.8061  1.4749
  390MOL0     C52549   2.001   4.507   5.043  0.5733 -0.1609  0.3965
  390MOL0     C52550   1.951   4.382   5.088  0.6710  1.2775  0.0039
  390MOL0     O52551   1.819   4.331   5.062 -0.7165 -0.6606 -0.5032
  390MOL0     C52552   1.725   4.405   4.989 -0.0613 -0.3497  0.7235
  390MOL0     C52553   1.582   4.355   4.976 -0.5046 -0.1019  0.4529
  390MOL0     C52554   1.506   4.386   4.840 -0.7589  0.3010 -0.8473
  390MOL0     C52555   1.570   4.307   4.727 -0.2868 -1.0963  0.3936
  390MOL0     C52556   1.515   4.343   4.598 -0.6856  0.1224  0.3853
  390MOL0     C52557   1.369   4.293   4.578 -1.2674 -0.4485 -0.6960
  390MOL0     C52558   1.330   4.337   4.426 -0.3440 -0.3652 -0.0902
  390MOL0     C52559   1.190   4.284   4.422 -0.1804  0.1954 -0.9098
  390MOL0    Cl52560   1.152   4.286   4.255  0.1606  0.1924 -0.1418
  390MOL0     C52561   2.037   4.297   5.157 -0.2118  0.2142  0.9499
  390MOL0     C52562   2.166   4.333   5.190  0.0725  0.0268 -0.6194
  390MOL0     O52563   2.279   4.709   5.252  0.5055  0.5413  0.4705
  390MOL0     C52564   2.565   4.536   5.348 -0.4570  0.4610  0.1028
  390MOL0     C52565   2.681   4.554   5.421  0.5550  0.9515 -1.1700
  390MOL0     N52566   3.258   4.704   5.007 -0.0285 -0.1277  0.4397
  390MOL0     N52567   3.342   4.776   4.940  0.0065 -0.4649  0.3396
  390MOL0     C52568   4.461   5.264   5.020 -0.8418 -0.2777 -0.1238
  390MOL0     C52569   4.556   5.358   5.014  0.7020 -0.1579 -1.6788
  390MOL0     C52570   4.842   5.680   5.062 -0.3598  0.2453  0.1454
  390MOL0     C52571   4.948   5.716   5.147 -0.4169  0.0232  0.5628
  390MOL0     C52572   5.037   5.819   5.105  0.6147 -0.0252 -0.8268
  390MOL0     C52573   5.019   5.901   4.993 -0.7723  0.9981  0.6634
  390MOL0     O52574   5.112   5.992   4.973  1.1471 -0.2234  0.3438
  390MOL0     C52575   5.096   6.085   4.859  0.5746  0.2589 -0.0274
  390MOL0     C52576   4.994   6.195   4.878  0.1840 -0.3122 -0.1681
  390MOL0     C52577   5.001   6.260   5.013  0.5795 -0.8796 -0.6141
  390MOL0     C52578   4.901   6.368   5.013 -0.4292 -0.1454  0.1780
  390MOL0     C52579   4.896   6.429   5.148 -0.1907  0.2972 -0.2572
  390MOL0     C52580   4.878   6.481   5.255 -0.8246  0.1588  0.0077
  390MOL0     C52581   4.904   5.882   4.919 -0.8814  0.2763  0.2795
  390MOL0     C52582   4.824   5.769   4.950 -1.0241 -0.2334  0.5930
  390MOL0     H52583   4.383   5.646   4.960  4.6968  0.4734 -0.3030
  390MOL0     H52584   4.192   5.473   4.951 -0.0250 -0.4746  3.6988
  390MOL0     H52585   4.147   5.130   5.160 -1.1629 -0.5340 -0.4081
  390MOL0     H52586   4.176   5.310   5.174 -1.8560  0.4447 -0.0754
  390MOL0     H52587   3.948   5.251   5.173 -0.4048 -0.5023 -0.4879
  390MOL0     H52588   3.990   5.356   5.041 -1.5937 -0.9630 -2.9557
  390MOL0     H52589   3.976   5.152   4.887  0.9532 -0.5552  0.2395
  390MOL0     H52590   3.917   5.057   5.033  0.9519 -0.6573 -1.0244
  390MOL0     H52591   3.735   5.207   5.058  0.7598  1.8660  1.2753
  390MOL0     H52592   3.785   5.311   4.933 -2.2971  0.3928  1.5029
  390MOL0     H52593   3.771   5.149   4.751  1.2449 -1.6226  0.6713
  390MOL0     H52594   3.745   5.018   4.860  0.3095  1.3093  2.5590
  390MOL0     H52595   3.533   5.241   4.827  1.5703  0.9387  2.1141
  390MOL0     H52596   3.542   5.085   4.742 -0.9733 -4.4344  1.7000
  390MOL0     H52597   3.510   5.149   5.041 -0.6186  0.1418 -0.5910
  390MOL0     H52598   3.391   5.109   4.930  0.2316  3.7381  2.3494
  390MOL0     H52599   3.590   4.957   5.065  1.9719 -0.6011 -2.0425
  390MOL0     H52600   3.561   4.905   4.899  0.7407  0.7395  0.4759
  390MOL0     H52601   3.395   4.893   5.247 -2.0210  0.7532  0.5136
  390MOL0     H52602   3.255   4.562   5.247  0.6060  0.3387  0.6373
  390MOL0     H52603   3.260   4.716   5.349 -1.1896  1.1382  0.6475
  390MOL0     H52604   3.041   4.672   5.158  0.0400  1.2021  0.1051
  390MOL0     H52605   3.041   4.778   5.282  2.9522  1.8433 -0.8851
  390MOL0     H52606   3.036   4.472   5.333 -1.7176 -0.6152  1.0437
  390MOL0     H52607   2.896   4.548   5.288 -0.1506  1.3622 -0.2601
  390MOL0     H52608   3.059   4.657   5.529  0.8724 -0.8727 -1.2071
  390MOL0     H52609   2.949   4.525   5.542 -0.3836  0.5278  1.0900
  390MOL0     H52610   2.713   4.888   5.422  0.5088 -0.9681  2.9526
  390MOL0     H52611   2.447   4.884   5.164  2.5961 -1.9818 -1.2788
  390MOL0     H52612   2.395   4.939   5.321  1.0641  1.1040 -0.6182
  390MOL0     H52613   2.558   4.973   5.256 -0.5781 -0.0173  0.2500
  390MOL0     H52614   2.164   4.637   5.026 -3.2643  1.9043  1.6781
  390MOL0     H52615   1.936   4.574   4.988 -0.3715 -1.3447  0.0253
  390MOL0     H52616   1.728   4.508   5.026 -1.7741  0.3009 -0.7764
  390MOL0     H52617   1.763   4.398   4.886 -3.5024 -1.9421 -0.5905
  390MOL0     H52618   1.589   4.246   4.984  0.9914 -0.3808 -2.9438
  390MOL0     H52619   1.524   4.401   5.057 -0.0223  2.2895 -0.4780
  390MOL0     H52620   1.517   4.493   4.818  3.4127 -0.1097 -1.4263
  390MOL0     H52621   1.400   4.360   4.853 -0.2148 -0.7951  2.0507
  390MOL0     H52622   1.679   4.319   4.721 -0.5616  1.4928 -0.4043
  390MOL0     H52623   1.546   4.200   4.729 -0.3810 -1.2288 -2.7960
  390MOL0     H52624   1.581   4.291   4.528  0.7670  0.4500  1.4436
  390MOL0     H52625   1.525   4.452   4.591  0.9817 -0.0338 -0.2840
  390MOL0     H52626   1.358   4.185   4.592 -1.1288 -0.3249  0.4429
  390MOL0     H52627   1.303   4.337   4.653 -0.2052 -0.9789  0.5893
  390MOL0     H52628   1.403   4.298   4.354  1.1977 -2.1019  2.2526
  390MOL0     H52629   1.326   4.446   4.417  5.0501 -0.0327 -2.7167
  390MOL0     H52630   1.113   4.337   4.478  0.7949  3.4422 -2.3608
  390MOL0     H52631   1.195   4.183   4.464  0.8839  1.4009  2.1262
  390MOL0     H52632   2.004   4.197   5.182 -1.4545  0.8960  2.1594
  390MOL0     H52633   2.219   4.258   5.248  0.1274 -0.1846 -0.9430
  390MOL0     H52634   2.541   4.433   5.325  5.3036 -0.8499 -1.8629
  390MOL0     H52635   2.739   4.469   5.455 -2.6904 -1.0258 -0.1407
  390MOL0     H52636   4.490   5.166   5.059 -1.2833 -0.0077  0.9034
  390MOL0     H52637   4.659   5.330   5.034  0.5094  0.0859 -0.2152
  390MOL0     H52638   4.966   5.653   5.233 -0.8290  0.3849  0.9172
  390MOL0     H52639   5.123   5.835   5.169  1.4148  3.4401 -2.5034
  390MOL0     H52640   5.198   6.122   4.849  1.7375 -2.4234  0.8514
  390MOL0     H52641   5.074   6.037   4.764 -0.6081  0.4512  0.1251
  390MOL0     H52642   4.890   6.165   4.871 -1.7012  5.3958 -2.1393
  390MOL0     H52643   5.010   6.272   4.802  0.7237  1.7127  1.8783
  390MOL0     H52644   5.097   6.310   5.028  1.3017 -1.8225 -1.9387
  390MOL0     H52645   4.977   6.184   5.088 -0.7581  1.2554  1.2455
  390MOL0     H52646   4.801   6.327   4.993 -1.1669  1.2041  0.9277
  390MOL0     H52647   4.940   6.443   4.943 -2.0980  1.0521  0.4545
  390MOL0     H52648   4.877   6.528   5.351  0.5184  0.8321 -0.2729
  390MOL0     H52649   4.863   5.953   4.848  0.2298  1.2963  0.6195
  390MOL0     H52650   4.739   5.746   4.886 -0.4747  1.3333 -0.7661
  391MOL0     O52651   8.287   9.339  11.142 -0.7905 -0.3422  1.1554
  391MOL0     C52652   8.172   9.371  11.187  0.3979 -0.2132  0.0893
  391MOL0     O52653   8.135   9.383  11.320  0.7642 -0.4328 -0.0023
  391MOL0     C52654   8.236   9.388  11.401 -1.2186 -0.0854 -0.2311
  391MOL0     C52655   8.305   9.508  11.437  0.1955 -0.8677  0.8969
  391MOL0     C52656   8.410   9.509  11.525  0.2417 -1.0470 -0.1769
  391MOL0     C52657   8.450   9.391  11.591  0.1631 -0.3487  0.6388
  391MOL0     O52658   8.555   9.383  11.681 -0.2255  0.4648  1.3478
  391MOL0     C52659   8.636   9.261  11.695 -0.1400 -0.1460  0.3691
  391MOL0     C52660   8.770   9.305  11.754  0.2111 -0.3920 -0.7418
  391MOL0     C52661   8.748   9.362  11.893 -0.4707  1.2346 -0.7772
  391MOL0     C52662   8.882   9.412  11.947  1.2444 -0.4218 -0.3615
  391MOL0     C52663   8.866   9.496  12.073 -0.9083  0.4724  0.0883
  391MOL0     C52664   8.727   9.561  12.105 -1.3484  0.5057 -0.4785
  391MOL0     C52665   8.750   9.660  12.232  0.9499  0.1101  0.7920
  391MOL0     C52666   8.760   9.574  12.355 -1.1864  0.1020  0.1880
  391MOL0     N52667   8.627   9.572  12.422  0.8187 -0.2243 -0.7571
  391MOL0     C52668   8.578   9.679  12.496  0.4480 -0.2690  0.4206
  391MOL0     C52669   8.451   9.645  12.537 -1.0189  0.7923  0.1199
  391MOL0     C52670   8.359   9.720  12.621 -0.5322  0.4659  0.3378
  391MOL0     C52671   8.295   9.840  12.546 -0.0853 -0.1893 -0.4951
  391MOL0     C52672   8.201   9.922  12.630 -0.3865 -0.4321  0.5080
  391MOL0     C52673   8.079   9.850  12.687  0.0214 -0.3688  0.3849
  391MOL0     O52674   8.095   9.828  12.830 -0.0014  0.4439 -0.3391
  391MOL0     C52675   7.979   9.833  12.910 -0.1103  0.5373  0.0937
  391MOL0     C52676   8.000   9.849  13.048  0.8479 -0.1957 -0.3970
  391MOL0     C52677   7.890   9.855  13.138  0.1074  0.1467 -0.6599
  391MOL0     C52678   7.935   9.877  13.278  0.1276  0.1032 -0.1918
  391MOL0     C52679   7.758   9.842  13.089 -0.5004  0.0150 -0.0517
  391MOL0     C52680   7.638   9.855  13.167 -0.2071 -0.3530  0.1742
  391MOL0     O52681   7.659   9.868  13.305  0.0830 -0.2917  0.4467
  391MOL0     C52682   7.573   9.874  13.408  0.8086  1.2564  0.2706
  391MOL0     C52683   7.639   9.881  13.534  0.3682  0.2963  0.2896
  391MOL0     C52684   7.561   9.885  13.650 -0.8428  0.3166  0.1892
  391MOL0     C52685   7.422   9.890  13.636  0.1599 -0.2118  0.4522
  391MOL0     O52686   7.325   9.906  13.740  0.1261 -0.3785 -0.1382
  391MOL0     C52687   7.334   9.844  13.871  0.5199  1.2227 -0.0488
  391MOL0     C52688   7.195   9.880  13.942 -0.4908 -0.3794  0.1246
  391MOL0     C52689   7.068   9.832  13.870  0.0284 -0.5667 -0.8682
  391MOL0     C52690   6.967   9.851  13.981  0.2389  0.1159  0.7043
  391MOL0     C52691   6.826   9.820  13.909  0.2209 -0.0176 -0.5236
  391MOL0     C52692   6.717   9.818  14.013 -0.2241  0.2661 -0.3316
  391MOL0     C52693   6.724   9.702  14.108 -0.9656  0.0839  1.0149
  391MOL0     C52694   6.604   9.716  14.204 -0.0770  0.3128 -0.5557
  391MOL0    Cl52695   6.458   9.720  14.094  0.6389  0.2876  0.0395
  391MOL0     C52696   7.364   9.879  13.512 -0.2188 -1.0243 -0.3515
  391MOL0     C52697   7.439   9.871  13.392  0.2213  0.8436 -0.2873
  391MOL0     O52698   7.525   9.847  13.114  0.5481  0.2203 -1.0147
  391MOL0     C52699   7.739   9.817  12.946  0.3906 -0.0852  0.8561
  391MOL0     C52700   7.847   9.806  12.858 -0.7921  0.1868  0.2987
  391MOL0     N52701   8.427   9.521  12.485 -0.2805 -0.5103  0.2125
  391MOL0     N52702   8.530   9.471  12.427 -0.6570 -0.9336 -0.4048
  391MOL0     C52703   8.381   9.272  11.559 -0.1473  1.0488 -0.1589
  391MOL0     C52704   8.275   9.266  11.469  0.4088  0.1805 -0.0602
  391MOL0     C52705   8.081   9.435  11.097 -0.8151 -0.5868  0.1473
  391MOL0     C52706   8.076   9.404  10.957 -0.3895  0.6701  0.1537
  391MOL0     C52707   7.982   9.464  10.866  0.8926  1.2452 -0.2775
  391MOL0     C52708   7.885   9.543  10.924  0.2049  0.1737 -0.2103
  391MOL0     O52709   7.796   9.600  10.834  0.3770 -0.3636  1.0786
  391MOL0     C52710   7.682   9.680  10.876  0.2390  0.4604  0.2012
  391MOL0     C52711   7.587   9.711  10.763  0.1371  1.0522  0.6149
  391MOL0     C52712   7.660   9.787  10.653 -0.7513 -0.3194  0.6023
  391MOL0     C52713   7.576   9.880  10.567 -0.5822 -0.0431 -0.6576
  391MOL0     C52714   7.455   9.826  10.498  0.3454 -0.2049 -0.3179
  391MOL0     C52715   7.356   9.772  10.444 -0.4578  0.9886 -0.2761
  391MOL0     C52716   7.882   9.561  11.066 -0.7484 -0.3581  0.3919
  391MOL0     C52717   7.978   9.509  11.149 -0.4557  0.7196 -0.1711
  391MOL0     H52718   8.265   9.603  11.404  0.5065 -0.0570  2.7653
  391MOL0     H52719   8.454   9.595  11.574 -0.5041 -1.0838  0.5955
  391MOL0     H52720   8.588   9.184  11.757 -1.6840  0.1687 -0.3791
  391MOL0     H52721   8.658   9.211  11.600 -0.0848  1.5104 -0.5326
  391MOL0     H52722   8.826   9.212  11.766  1.2480  0.2447 -0.5231
  391MOL0     H52723   8.824   9.374  11.689  3.3499 -0.0057  1.9826
  391MOL0     H52724   8.673   9.442  11.891 -2.4966 -0.5550 -0.0075
  391MOL0     H52725   8.705   9.279  11.950 -0.5020  0.3887 -2.0002
  391MOL0     H52726   8.958   9.335  11.964  2.0612  0.4686  0.1243
  391MOL0     H52727   8.912   9.485  11.871 -1.1260  2.5634  1.3527
  391MOL0     H52728   8.894   9.434  12.159  1.7239  1.2034 -0.1690
  391MOL0     H52729   8.941   9.576  12.070  1.0033 -1.2552 -0.0541
  391MOL0     H52730   8.697   9.615  12.015 -0.2706 -1.3990 -2.0582
  391MOL0     H52731   8.644   9.498  12.137  0.9306 -3.0716 -1.1182
  391MOL0     H52732   8.829   9.736  12.221  1.8398 -1.0608 -1.8871
  391MOL0     H52733   8.656   9.715  12.240 -0.0888 -1.5529  0.4258
  391MOL0     H52734   8.830   9.618  12.426 -1.3704 -0.7933  0.9426
  391MOL0     H52735   8.796   9.472  12.337 -0.3037  0.0179  2.2285
  391MOL0     H52736   8.612   9.780  12.515 -3.1233  1.3237 -0.8358
  391MOL0     H52737   8.279   9.652  12.651 -0.1032  0.1436  0.7545
  391MOL0     H52738   8.422   9.757  12.702  2.5113  3.3926 -2.9746
  391MOL0     H52739   8.248   9.798  12.456  0.3729 -0.9224 -0.3991
  391MOL0     H52740   8.378   9.905  12.516  1.7225 -1.2391  1.8788
  391MOL0     H52741   8.156   9.999  12.567 -1.2171 -0.8905  0.5248
  391MOL0     H52742   8.265   9.955  12.712  1.1072 -0.4000 -0.6363
  391MOL0     H52743   8.067   9.756  12.631  0.0385 -0.1747  0.0539
  391MOL0     H52744   7.995   9.917  12.667 -0.5174 -1.2871 -0.5687
  391MOL0     H52745   8.100   9.871  13.085 -0.0693 -2.3512  4.1582
  391MOL0     H52746   7.877   9.813  13.346  0.1847  0.0542 -0.1890
  391MOL0     H52747   8.038   9.844  13.291  0.0880 -0.0633 -0.3125
  391MOL0     H52748   7.927   9.980  13.316  1.2198  0.4291 -0.8193
  391MOL0     H52749   7.747   9.867  13.542  0.0314 -2.3651  0.8549
  391MOL0     H52750   7.613   9.880  13.745  1.4322 -4.5217 -0.9940
  391MOL0     H52751   7.350   9.735  13.871  0.2682  1.0857 -3.0556
  391MOL0     H52752   7.414   9.888  13.931  1.4196 -1.9418  1.2963
  391MOL0     H52753   7.194   9.835  14.041 -3.7151  1.5311  1.0982
  391MOL0     H52754   7.201   9.988  13.950 -0.9709 -0.2362 -1.1731
  391MOL0     H52755   7.077   9.726  13.844  0.8832 -1.1191  1.4367
  391MOL0     H52756   7.060   9.884  13.774  1.7318  2.3568  0.4269
  391MOL0     H52757   6.987   9.778  14.060  1.9576  2.8685  2.9965
  391MOL0     H52758   6.976   9.951  14.025 -6.6640  0.9642  1.3898
  391MOL0     H52759   6.847   9.720  13.868 -0.4540 -0.2068 -0.4303
  391MOL0     H52760   6.815   9.894  13.830  0.6514 -1.0890 -1.6239
  391MOL0     H52761   6.709   9.912  14.068 -1.4837  0.5394 -0.9599
  391MOL0     H52762   6.629   9.817  13.949  0.2302 -1.4618 -0.9845
  391MOL0     H52763   6.821   9.707  14.159  0.4078  0.5506 -1.4972
  391MOL0     H52764   6.714   9.601  14.067  2.3611 -0.8185  2.0374
  391MOL0     H52765   6.622   9.812  14.255  1.1098 -0.7448  1.1064
  391MOL0     H52766   6.599   9.630  14.272 -2.3751 -0.3586 -1.4982
  391MOL0     H52767   7.256   9.879  13.518 -0.2239 -2.7901  0.2025
  391MOL0     H52768   7.388   9.860  13.297 -2.2524 -1.7258  1.1944
  391MOL0     H52769   7.640   9.806  12.903  0.4580 -2.2212  1.1477
  391MOL0     H52770   7.828   9.772  12.756  0.7876 -2.3507  0.7665
  391MOL0     H52771   8.397   9.182  11.617  0.7176  3.0235  2.8991
  391MOL0     H52772   8.228   9.168  11.462  0.9341 -0.0947  0.2339
  391MOL0     H52773   8.149   9.343  10.905 -1.0275  2.2630 -2.8553
  391MOL0     H52774   7.979   9.429  10.763 -0.1215  1.2672 -0.2639
  391MOL0     H52775   7.636   9.619  10.955  0.7871 -1.2441 -0.7378
  391MOL0     H52776   7.708   9.774  10.925 -2.3828  1.2714  0.2032
  391MOL0     H52777   7.499   9.763  10.802 -2.4369  0.9315 -4.3236
  391MOL0     H52778   7.549   9.614  10.730 -1.4941  1.3164  1.5765
  391MOL0     H52779   7.699   9.708  10.588 -2.5109 -0.6120 -0.1766
  391MOL0     H52780   7.733   9.852  10.702  0.1548 -1.2942  0.5870
  391MOL0     H52781   7.634   9.920  10.483 -0.1506 -0.6083 -0.6291
  391MOL0     H52782   7.533   9.964  10.623  2.5607  1.5601 -0.4056
  391MOL0     H52783   7.279   9.723  10.388 -1.2204  2.0755 -0.2072
  391MOL0     H52784   7.798   9.604  11.120  1.3204  0.6073  3.0521
  391MOL0     H52785   7.964   9.525  11.256  0.1620 -1.0505  0.2244
  392MOL0     O52786   4.977   3.655   3.683  0.7066 -0.4985  0.8497
  392MOL0     C52787   4.856   3.683   3.685  0.5661 -0.5107 -0.7500
  392MOL0     O52788   4.753   3.621   3.616 -0.3902  0.4540  1.1377
  392MOL0     C52789   4.772   3.528   3.514  0.3475  0.0721 -0.1033
  392MOL0     C52790   4.877   3.528   3.418 -0.3841  0.5477 -0.0574
  392MOL0     C52791   4.874   3.452   3.300 -0.2146 -0.3433 -0.4447
  392MOL0     C52792   4.757   3.381   3.274  0.3671  0.0466 -1.0381
  392MOL0     O52793   4.759   3.301   3.167 -0.6411 -0.8086 -0.5634
  392MOL0     C52794   4.632   3.267   3.105  0.2365  0.2542 -1.0017
  392MOL0     C52795   4.673   3.252   2.958 -0.4661  0.3290  0.0231
  392MOL0     C52796   4.731   3.380   2.891 -0.6344  0.7813 -0.8964
  392MOL0     C52797   4.761   3.375   2.739  0.1050  0.1416 -0.1864
  392MOL0     C52798   4.834   3.493   2.667 -0.4155 -0.0126  0.2838
  392MOL0     C52799   4.873   3.445   2.527 -0.9163  0.1658  0.0796
  392MOL0     C52800   4.953   3.560   2.472 -0.2441 -0.3588  1.1748
  392MOL0     C52801   5.014   3.534   2.326  0.6386  0.7076  0.3754
  392MOL0     N52802   4.905   3.534   2.226 -0.7914 -0.1064 -0.2205
  392MOL0     C52803   4.899   3.475   2.106 -0.4048  0.0540  0.5382
  392MOL0     C52804   4.782   3.482   2.054  0.1413 -1.0085  0.1701
  392MOL0     C52805   4.721   3.405   1.946 -0.6160  0.4956 -0.2184
  392MOL0     C52806   4.729   3.477   1.809  0.5886  0.5347  1.1660
  392MOL0     C52807   4.614   3.573   1.792  0.4221 -0.1599  0.3530
  392MOL0     C52808   4.628   3.659   1.668 -0.6468 -0.2327  0.5283
  392MOL0     O52809   4.522   3.746   1.636  0.4268 -0.5346 -0.3223
  392MOL0     C52810   4.411   3.673   1.596  0.2672  0.3523  0.0937
  392MOL0     C52811   4.416   3.621   1.468 -0.8557 -0.0931 -0.1077
  392MOL0     C52812   4.304   3.553   1.414 -0.6681  0.3199  0.0521
  392MOL0     C52813   4.309   3.517   1.270 -0.4743 -0.8992  0.0298
  392MOL0     C52814   4.192   3.525   1.503 -0.7053  0.0630  0.2340
  392MOL0     C52815   4.065   3.451   1.461 -0.2290  0.0646 -0.1469
  392MOL0     O52816   3.952   3.494   1.534  0.2419  0.0883  0.0537
  392MOL0     C52817   3.826   3.445   1.516 -0.5977  0.2401  0.6027
  392MOL0     C52818   3.728   3.540   1.480 -0.4034  0.4244  0.0960
  392MOL0     C52819   3.600   3.493   1.450  0.3202  0.5571  0.3670
  392MOL0     C52820   3.567   3.360   1.456 -0.1278  1.0512 -0.1928
  392MOL0     O52821   3.448   3.324   1.395  0.4662 -0.1343 -0.5105
  392MOL0     C52822   3.443   3.192   1.338 -0.7080  1.3874 -1.1260
  392MOL0     C52823   3.381   3.186   1.195  0.2305  0.3515 -0.5455
  392MOL0     C52824   3.237   3.222   1.174 -0.4265 -0.0575  0.1478
  392MOL0     C52825   3.189   3.227   1.023 -0.0037 -0.4844 -0.9434
  392MOL0     C52826   3.216   3.095   0.941  0.1891  0.1293  0.6784
  392MOL0     C52827   3.154   2.962   0.999 -0.1107  0.4573  0.1416
  392MOL0     C52828   3.157   2.851   0.898  0.0184 -0.5743 -0.6407
  392MOL0     C52829   3.043   2.752   0.925 -0.0248  0.4028 -0.7324
  392MOL0    Cl52830   2.881   2.831   0.894  0.4269 -0.1656  0.2311
  392MOL0     C52831   3.667   3.267   1.503 -0.3837  0.4412 -0.7028
  392MOL0     C52832   3.796   3.314   1.531 -0.0488 -0.1532  1.3210
  392MOL0     O52833   4.067   3.373   1.358  1.0288 -0.0152 -0.0064
  392MOL0     C52834   4.193   3.576   1.629  0.3729  0.4209 -0.2050
  392MOL0     C52835   4.294   3.652   1.673 -0.0275  0.1207 -0.2217
  392MOL0     N52836   4.712   3.564   2.134  0.0865 -0.5182  0.2671
  392MOL0     N52837   4.783   3.594   2.233 -0.4267 -0.3370 -0.0700
  392MOL0     C52838   4.653   3.377   3.372  0.9639 -0.5063  0.3655
  392MOL0     C52839   4.658   3.454   3.484  0.0255  0.7979 -0.6996
  392MOL0     C52840   4.810   3.780   3.792  1.1113 -0.4617  0.4915
  392MOL0     C52841   4.686   3.841   3.787 -0.6775 -0.4124 -0.3697
  392MOL0     C52842   4.653   3.945   3.875 -1.0252  0.2691 -0.5078
  392MOL0     C52843   4.749   3.982   3.979 -0.5735  0.2684  0.6673
  392MOL0     O52844   4.702   4.060   4.086 -0.6598  0.0179 -0.0805
  392MOL0     C52845   4.745   4.195   4.101  0.2253  0.3481  0.1048
  392MOL0     C52846   4.684   4.296   4.002 -0.2092  0.5131 -0.1747
  392MOL0     C52847   4.750   4.435   4.037 -0.7371  1.1850  0.2732
  392MOL0     C52848   4.656   4.553   3.997 -0.8019  0.4125  0.4399
  392MOL0     C52849   4.555   4.583   4.095  0.7879 -0.8352 -0.7671
  392MOL0     C52850   4.462   4.602   4.172 -0.3410 -0.8334 -0.5207
  392MOL0     C52851   4.874   3.914   3.988  0.0051  0.6348  0.6292
  392MOL0     C52852   4.901   3.822   3.892  0.1196 -0.4991  0.3542
  392MOL0     H52853   4.955   3.601   3.441  2.1231 -2.1645  0.6008
  392MOL0     H52854   4.954   3.446   3.226  1.4535  3.3480  0.8346
  392MOL0     H52855   4.598   3.176   3.156 -2.6070 -0.4220 -3.8216
  392MOL0     H52856   4.545   3.332   3.115 -0.3604 -0.1167 -3.3171
  392MOL0     H52857   4.750   3.176   2.945  0.1401  1.1732 -1.8028
  392MOL0     H52858   4.584   3.216   2.905  0.1126  2.9495 -3.1237
  392MOL0     H52859   4.666   3.466   2.905  0.3510  1.6051 -1.3213
  392MOL0     H52860   4.818   3.407   2.951 -0.9447 -1.0563  0.5017
  392MOL0     H52861   4.825   3.289   2.715 -0.8814 -0.3828 -0.9997
  392MOL0     H52862   4.665   3.365   2.687  0.9091  1.4914 -2.0401
  392MOL0     H52863   4.769   3.578   2.643 -1.2566 -1.4500 -3.2464
  392MOL0     H52864   4.920   3.520   2.729 -2.2033  2.7518  1.7116
  392MOL0     H52865   4.931   3.353   2.527  0.9014  1.2614  0.2275
  392MOL0     H52866   4.787   3.422   2.463  1.3950 -2.2451 -2.3811
  392MOL0     H52867   4.896   3.654   2.468 -1.7224 -1.1099  2.9188
  392MOL0     H52868   5.027   3.585   2.549 -1.2033 -2.2316  2.7865
  392MOL0     H52869   5.073   3.443   2.324 -3.1735 -2.0854 -2.8470
  392MOL0     H52870   5.086   3.612   2.299  4.9720 -3.6273 -2.0662
  392MOL0     H52871   4.976   3.415   2.057  0.0340 -0.3639  1.6967
  392MOL0     H52872   4.783   3.315   1.940  1.6853  1.8183  1.9500
  392MOL0     H52873   4.619   3.367   1.958  0.2188 -2.7704 -2.0770
  392MOL0     H52874   4.703   3.407   1.729  0.1203 -2.7901  3.9646
  392MOL0     H52875   4.828   3.520   1.793  1.1465 -1.2486 -0.6698
  392MOL0     H52876   4.584   3.621   1.886  1.4679 -1.7517  1.5659
  392MOL0     H52877   4.537   3.497   1.776  1.5275 -1.4145  0.8158
  392MOL0     H52878   4.644   3.588   1.586  0.1208 -0.2330  0.6665
  392MOL0     H52879   4.722   3.710   1.690 -1.2056  1.5160 -0.9309
  392MOL0     H52880   4.500   3.647   1.405 -0.0261 -1.4229  0.4100
  392MOL0     H52881   4.390   3.564   1.214 -0.5889  1.4741  1.7001
  392MOL0     H52882   4.331   3.410   1.271 -0.4951 -0.9512 -1.8876
  392MOL0     H52883   4.221   3.547   1.212  1.2186  0.0904 -2.1747
  392MOL0     H52884   3.760   3.641   1.459 -1.0974  1.3617  3.0703
  392MOL0     H52885   3.522   3.564   1.425  1.1205  2.0004  1.8333
  392MOL0     H52886   3.537   3.137   1.329 -3.2058 -3.2634 -1.5966
  392MOL0     H52887   3.390   3.124   1.406  0.2420  0.3540 -1.4020
  392MOL0     H52888   3.440   3.258   1.137  3.1427  0.1304  1.8605
  392MOL0     H52889   3.389   3.082   1.162  2.1916  1.1902 -3.0031
  392MOL0     H52890   3.226   3.328   1.200  0.3587  0.7492 -2.4836
  392MOL0     H52891   3.177   3.151   1.230  1.0749 -3.7618 -2.5382
  392MOL0     H52892   3.086   3.263   1.023  0.5610  1.2535 -0.4593
  392MOL0     H52893   3.256   3.305   0.986 -0.7685  1.0761  0.7534
  392MOL0     H52894   3.324   3.078   0.940  0.0397 -1.4613 -2.6547
  392MOL0     H52895   3.184   3.113   0.837 -2.9371  0.3617  1.5874
  392MOL0     H52896   3.211   2.918   1.081 -2.2067 -2.9175 -0.0474
  392MOL0     H52897   3.052   2.974   1.036 -1.7567 -2.1090 -3.0788
  392MOL0     H52898   3.257   2.808   0.906  0.9063  1.3208 -0.8724
  392MOL0     H52899   3.144   2.891   0.796  0.3742  3.1443  0.5998
  392MOL0     H52900   3.048   2.713   1.026 -1.2470 -1.9216 -1.4986
  392MOL0     H52901   3.057   2.660   0.867 -3.3017 -1.8020  1.6584
  392MOL0     H52902   3.650   3.163   1.531  3.9363 -0.2323  0.0865
  392MOL0     H52903   3.871   3.254   1.581  1.9150  1.9855  1.0686
  392MOL0     H52904   4.111   3.555   1.698 -2.0633  3.1414 -2.0423
  392MOL0     H52905   4.293   3.681   1.777 -0.1562 -0.7001  0.0084
  392MOL0     H52906   4.564   3.316   3.360  2.7523 -2.7574 -3.0566
  392MOL0     H52907   4.575   3.453   3.553  1.1363 -1.7436  0.7125
  392MOL0     H52908   4.615   3.823   3.706  1.3343 -0.4388 -2.2315
  392MOL0     H52909   4.555   3.993   3.877 -0.7228  0.8848  0.3582
  392MOL0     H52910   4.730   4.218   4.207 -2.2961 -4.9529  1.2140
  392MOL0     H52911   4.851   4.201   4.074 -0.0590  3.5839 -0.8242
  392MOL0     H52912   4.577   4.300   4.025 -0.1771 -2.5242  0.9915
  392MOL0     H52913   4.703   4.264   3.900 -1.0410 -1.5962  0.2918
  392MOL0     H52914   4.847   4.452   3.990 -0.5253  1.3692  0.7806
  392MOL0     H52915   4.766   4.444   4.144  2.3122 -0.7997  0.1022
  392MOL0     H52916   4.614   4.517   3.902 -0.6488 -0.6833  0.7740
  392MOL0     H52917   4.718   4.641   3.976  0.4375  0.2506  3.0053
  392MOL0     H52918   4.374   4.622   4.229  0.1716  1.8449 -0.5190
  392MOL0     H52919   4.934   3.942   4.074  1.6788  0.4318 -0.4451
  392MOL0     H52920   4.987   3.761   3.918  0.2512  0.9711  3.7909
  393MOL0     O52921  11.097   0.398   0.137 -0.5206  0.2062  0.1055
  393MOL0     C52922  11.077   0.287   0.182 -0.8377  0.3110 -0.6834
  393MOL0     O52923  10.961   0.242   0.241 -0.7092  0.4449 -0.2073
  393MOL0     C52924  10.841   0.311   0.231  0.6187  1.1392 -0.1109
  393MOL0     C52925  10.756   0.295   0.343  0.4080 -0.5734 -0.5226
  393MOL0     C52926  10.633   0.368   0.362 -0.4442 -0.1975 -0.6676
  393MOL0     C52927  10.604   0.454   0.254  0.5655  0.2148 -1.0192
  393MOL0     O52928  10.495   0.533   0.232 -0.0606  0.4122  0.0471
  393MOL0     C52929  10.391   0.528   0.337  0.0818 -0.5118 -0.3904
  393MOL0     C52930  10.409   0.628   0.452 -0.1358 -0.5873 -1.1886
  393MOL0     C52931  10.286   0.636   0.559  0.0437  0.0684  0.4846
  393MOL0     C52932  10.281   0.517   0.655 -0.4512  0.8691  0.0453
  393MOL0     C52933  10.148   0.517   0.727  0.8824 -0.2443  0.6137
  393MOL0     C52934  10.125   0.650   0.809  0.0945  0.7675  0.0965
  393MOL0     C52935   9.993   0.639   0.886  0.1068 -0.0892 -0.2954
  393MOL0     C52936   9.987   0.756   0.980  0.8443 -0.6238  0.2378
  393MOL0     N52937   9.861   0.747   1.056  0.3167 -0.3287 -0.5662
  393MOL0     C52938   9.751   0.818   1.033 -0.3080  0.3044 -0.1534
  393MOL0     C52939   9.666   0.781   1.137 -0.4653 -0.7036 -0.5119
  393MOL0     C52940   9.517   0.819   1.133 -0.9644 -0.4038  1.0790
  393MOL0     C52941   9.489   0.880   1.273 -0.5938 -0.8531 -0.0627
  393MOL0     C52942   9.339   0.931   1.290  0.3144  0.2529  0.9999
  393MOL0     C52943   9.245   0.812   1.292  0.9474 -0.2779  0.1129
  393MOL0     O52944   9.107   0.862   1.289 -0.5742  0.6316 -0.4334
  393MOL0     C52945   9.003   0.780   1.249 -0.0275 -0.1766 -0.0886
  393MOL0     C52946   9.015   0.664   1.172 -0.5715  0.0912  0.6064
  393MOL0     C52947   8.915   0.589   1.121  0.3823  0.0815 -0.6844
  393MOL0     C52948   8.946   0.465   1.036  0.0393 -0.1914 -0.5049
  393MOL0     C52949   8.784   0.632   1.154  0.1300  0.3779  0.1123
  393MOL0     C52950   8.675   0.544   1.131 -0.6105  0.7632 -0.5139
  393MOL0     O52951   8.554   0.597   1.079 -0.4331  0.0660 -1.1197
  393MOL0     C52952   8.444   0.521   1.042  0.6293  0.0246  1.2997
  393MOL0     C52953   8.447   0.391   0.979  0.4029 -0.1010  0.3188
  393MOL0     C52954   8.329   0.304   0.962  0.4675  0.1222  0.1617
  393MOL0     C52955   8.200   0.363   0.979 -0.0431 -0.1147  0.0645
  393MOL0     O52956   8.093   0.282   0.952  0.3753 -0.3055 -0.1100
  393MOL0     C52957   8.068   0.177   1.050  0.1911  0.2969 -0.5179
  393MOL0     C52958   7.949   0.086   1.008 -1.2216  0.1635  0.1673
  393MOL0     C52959   7.972   0.050   0.860 -0.6434 -0.1094  1.2582
  393MOL0     C52960   8.083  -0.055   0.823  0.0634  1.1658 -0.1169
  393MOL0     C52961   8.100  -0.089   0.682  0.0310 -0.0973  0.4005
  393MOL0     C52962   8.194  -0.212   0.673 -0.7616 -0.6335 -0.8377
  393MOL0     C52963   8.239  -0.248   0.529 -0.1999 -0.0410 -0.5712
  393MOL0     C52964   8.320  -0.385   0.523  0.1388 -0.2379  0.2875
  393MOL0    Cl52965   8.376  -0.435   0.354  0.0424  0.2735 -0.0407
  393MOL0     C52966   8.199   0.497   1.024 -0.0294  0.0776 -0.2398
  393MOL0     C52967   8.310   0.577   1.057  0.3145  0.4882 -0.5650
  393MOL0     O52968   8.687   0.425   1.175  0.4075 -0.2682  0.5582
  393MOL0     C52969   8.766   0.750   1.234  0.0240  0.0224 -0.7395
  393MOL0     C52970   8.874   0.827   1.273 -0.3528 -0.0025 -0.6214
  393MOL0     N52971   9.731   0.691   1.214  0.5765  0.1552  0.9363
  393MOL0     N52972   9.842   0.663   1.163 -0.3232  0.6368 -0.0200
  393MOL0     C52973  10.686   0.470   0.151  0.7934  0.1154 -0.0363
  393MOL0     C52974  10.804   0.406   0.139 -0.3469  0.7022 -0.1320
  393MOL0     C52975  11.189   0.192   0.214  0.0741  0.8378  0.5603
  393MOL0     C52976  11.306   0.230   0.286  0.2225 -1.3147 -0.7794
  393MOL0     C52977  11.417   0.145   0.290  0.1336 -0.3241  0.6378
  393MOL0     C52978  11.418   0.029   0.217  0.0202  0.7091 -0.2651
  393MOL0     O52979  11.522  -0.060   0.211  0.4484  0.3278  0.0296
  393MOL0     C52980  11.651   0.000   0.236 -0.1143  0.0323  0.3163
  393MOL0     C52981  11.763  -0.079   0.175  0.5864 -0.1505  0.7103
  393MOL0     C52982  11.906  -0.030   0.231 -0.8587 -0.6809  0.6918
  393MOL0     C52983  12.028  -0.114   0.196 -0.9573  0.5614  0.9838
  393MOL0     C52984  12.051  -0.128   0.050  0.4066 -0.2614 -0.4568
  393MOL0     C52985  12.078  -0.131  -0.063 -0.6488  0.2399  0.6888
  393MOL0     C52986  11.307  -0.021   0.161  0.9130 -1.5451  1.0514
  393MOL0     C52987  11.186   0.059   0.155 -0.1984  0.0279 -0.2618
  393MOL0     H52988  10.789   0.241   0.431 -0.8839 -0.8710 -0.2018
  393MOL0     H52989  10.571   0.353   0.450  1.0496 -1.4093  0.2395
  393MOL0     H52990  10.293   0.552   0.294 -0.0233  1.7145  0.9268
  393MOL0     H52991  10.390   0.425   0.372 -0.2997 -0.6778 -0.8806
  393MOL0     H52992  10.509   0.615   0.495 -0.0776  0.5959 -0.9412
  393MOL0     H52993  10.412   0.731   0.416  5.6614 -0.0903 -0.1333
  393MOL0     H52994  10.290   0.733   0.610 -1.0315 -0.7795  2.2931
  393MOL0     H52995  10.196   0.631   0.496 -0.0173  0.8684  0.4923
  393MOL0     H52996  10.292   0.425   0.597  1.5221  2.6131 -2.5930
  393MOL0     H52997  10.355   0.535   0.733  0.0669  1.0428 -0.4753
  393MOL0     H52998  10.066   0.502   0.657  1.4864  3.3213 -1.1044
  393MOL0     H52999  10.154   0.428   0.791 -1.2563 -0.4303  0.6300
  393MOL0     H53000  10.206   0.653   0.882  2.1293 -2.0539 -1.8399
  393MOL0     H53001  10.128   0.748   0.758  1.4421  0.4443 -0.5120
  393MOL0     H53002   9.912   0.657   0.815 -2.1044 -0.6676  1.9326
  393MOL0     H53003   9.962   0.546   0.935 -0.6670  0.9455  1.2760
  393MOL0     H53004   9.993   0.856   0.936  0.2588  0.6858  2.9297
  393MOL0     H53005  10.065   0.773   1.055 -1.7428 -0.0497  2.9687
  393MOL0     H53006   9.735   0.885   0.949 -1.5714  3.4541  2.3514
  393MOL0     H53007   9.490   0.891   1.055  1.7988 -0.5031 -0.1002
  393MOL0     H53008   9.455   0.730   1.124 -1.6266  0.1210  0.2665
  393MOL0     H53009   9.552   0.969   1.278  1.0227 -1.8087 -1.9413
  393MOL0     H53010   9.526   0.817   1.354 -1.3984  0.3172  1.2449
  393MOL0     H53011   9.323   0.996   1.203  0.8122  0.0966  0.7847
  393MOL0     H53012   9.338   0.994   1.379  1.2370  0.5050  0.8462
  393MOL0     H53013   9.255   0.773   1.394  3.7252  2.7823  1.1896
  393MOL0     H53014   9.269   0.731   1.223 -1.6588 -2.5891  1.7100
  393MOL0     H53015   9.112   0.629   1.136  0.0967  2.6180 -0.2541
  393MOL0     H53016   9.046   0.485   0.996 -0.3652  1.8512 -0.5834
  393MOL0     H53017   8.950   0.377   1.101  1.0096  1.1289  1.3415
  393MOL0     H53018   8.867   0.451   0.962 -1.4842 -1.9827  1.3590
  393MOL0     H53019   8.551   0.360   0.966  1.0641  0.9904  2.6002
  393MOL0     H53020   8.346   0.199   0.944  1.1689  0.0439  1.2477
  393MOL0     H53021   8.154   0.110   1.062 -0.5452 -0.6699 -0.5351
  393MOL0     H53022   8.052   0.220   1.150 -2.2046 -1.5387 -0.0186
  393MOL0     H53023   7.954  -0.006   1.068  0.4944  1.9539  3.0228
  393MOL0     H53024   7.852   0.131   1.028 -1.7144 -1.0510  0.6513
  393MOL0     H53025   7.971   0.140   0.798 -2.7752  0.8342  2.5275
  393MOL0     H53026   7.879  -0.004   0.836 -0.1887 -2.2090  3.8011
  393MOL0     H53027   8.178  -0.014   0.857  1.9488 -2.0415 -1.0958
  393MOL0     H53028   8.059  -0.139   0.888 -5.1107  1.3537 -1.2917
  393MOL0     H53029   8.149   0.004   0.654 -1.3881  1.7271  3.4307
  393MOL0     H53030   8.009  -0.107   0.624  1.4689 -0.6678 -1.8214
  393MOL0     H53031   8.272  -0.184   0.745 -0.7959  0.3850 -1.1758
  393MOL0     H53032   8.148  -0.296   0.725  0.3266  1.0743  3.2588
  393MOL0     H53033   8.291  -0.171   0.470  1.5263  0.4251  1.4076
  393MOL0     H53034   8.141  -0.259   0.482 -0.3039 -1.0010 -0.1442
  393MOL0     H53035   8.255  -0.462   0.565  0.2784  0.5814  2.1324
  393MOL0     H53036   8.411  -0.375   0.584  1.2360 -0.4501 -1.2574
  393MOL0     H53037   8.100   0.540   1.035  0.6282  1.4759  0.4160
  393MOL0     H53038   8.296   0.682   1.081  1.1923  0.5800 -0.4365
  393MOL0     H53039   8.671   0.780   1.277 -0.5806 -3.1325  0.3489
  393MOL0     H53040   8.850   0.905   1.343 -3.4385 -0.6988 -0.7524
  393MOL0     H53041  10.656   0.537   0.072  1.4252  1.2067  0.6253
  393MOL0     H53042  10.861   0.434   0.051  1.2663  1.7502  1.1861
  393MOL0     H53043  11.312   0.327   0.334  0.7491 -1.7894  0.1368
  393MOL0     H53044  11.497   0.181   0.354  1.6457 -0.6107 -1.0173
  393MOL0     H53045  11.664   0.105   0.208 -2.1390  0.8972  2.2309
  393MOL0     H53046  11.668  -0.010   0.344  1.9928 -1.0083 -0.0677
  393MOL0     H53047  11.755  -0.064   0.067 -1.4925  1.4566  1.0303
  393MOL0     H53048  11.759  -0.188   0.186 -2.2119 -0.1843  0.0433
  393MOL0     H53049  11.907  -0.033   0.340  1.7774 -0.3344  0.7462
  393MOL0     H53050  11.927   0.074   0.204  1.4588 -0.9094  1.3610
  393MOL0     H53051  12.031  -0.211   0.247  2.6993 -0.4971 -0.9002
  393MOL0     H53052  12.112  -0.061   0.241  0.1397 -0.9106  0.7350
  393MOL0     H53053  12.111  -0.116  -0.164  1.2991 -0.3854  1.1829
  393MOL0     H53054  11.302  -0.119   0.116  1.7237 -0.8709 -0.5684
  393MOL0     H53055  11.099   0.012   0.111 -0.7732  0.2851  0.5754
  394MOL0     O53056   0.012   0.619   0.135 -0.9096 -0.0447 -0.2031
  394MOL0     C53057  -0.054   0.557   0.053  0.1470 -0.0753 -0.0713
  394MOL0     O53058  -0.184   0.596   0.014  0.6744  0.1970 -0.0683
  394MOL0     C53059  -0.235   0.718   0.044  1.0579 -0.2387  0.6397
  394MOL0     C53060  -0.163   0.838   0.056  0.1223  0.3935 -0.3309
  394MOL0     C53061  -0.221   0.956   0.093 -0.2436  0.2609 -0.1914
  394MOL0     C53062  -0.362   0.959   0.131  0.0195  0.6984  0.4733
  394MOL0     O53063  -0.412   1.073   0.190 -0.1701  0.1585 -0.3187
  394MOL0     C53064  -0.318   1.139   0.278  0.9006  0.0354  0.2148
  394MOL0     C53065  -0.387   1.226   0.382 -0.5978 -0.5494  0.4472
  394MOL0     C53066  -0.516   1.159   0.435 -0.9649  0.0143  0.0761
  394MOL0     C53067  -0.489   1.010   0.488  0.3952 -0.4727  0.0316
  394MOL0     C53068  -0.623   0.952   0.539  0.8222  0.5142  0.3189
  394MOL0     C53069  -0.619   0.807   0.581  0.8970  0.6248 -0.4079
  394MOL0     C53070  -0.722   0.785   0.698 -0.1223  0.9981  0.5655
  394MOL0     C53071  -0.683   0.660   0.782  0.0561  0.0446 -0.3399
  394MOL0     N53072  -0.790   0.560   0.805 -0.6004  0.4323 -0.4460
  394MOL0     C53073  -0.853   0.556   0.920  0.0610  1.1972  0.3949
  394MOL0     C53074  -0.929   0.449   0.911  0.2934  0.3615  0.4065
  394MOL0     C53075  -1.016   0.380   1.015  0.0649  0.3846 -0.2778
  394MOL0     C53076  -0.958   0.251   1.071 -0.1144 -0.5206 -1.3056
  394MOL0     C53077  -0.920   0.155   0.955  0.1709  0.6095 -0.2750
  394MOL0     C53078  -1.042   0.119   0.872  0.3194 -0.5417  0.2907
  394MOL0     O53079  -1.147   0.100   0.966 -0.0367  0.5578  0.1962
  394MOL0     C53080  -1.274   0.126   0.926 -0.2341  0.6522 -0.0546
  394MOL0     C53081  -1.373   0.147   1.024  0.0244  0.8335 -0.4415
  394MOL0     C53082  -1.505   0.170   0.995  0.3777  0.0738 -0.4230
  394MOL0     C53083  -1.577   0.207   1.115  0.4294  0.3310 -0.7399
  394MOL0     C53084  -1.548   0.163   0.861  0.5344  0.3981 -1.0642
  394MOL0     C53085  -1.688   0.195   0.822  0.1547  0.5438  0.6136
  394MOL0     O53086  -1.788   0.204   0.912 -0.3241  0.3165 -0.7783
  394MOL0     C53087  -1.905   0.251   0.870 -0.0382  0.2039  0.1599
  394MOL0     C53088  -1.936   0.382   0.911  0.5708 -0.7821  0.2365
  394MOL0     C53089  -2.060   0.430   0.890 -0.8246 -0.3452 -0.1361
  394MOL0     C53090  -2.151   0.363   0.818 -0.3078  0.0121  1.1931
  394MOL0     O53091  -2.282   0.399   0.810 -0.1507  0.2088  0.4628
  394MOL0     C53092  -2.334   0.380   0.679 -0.2372  0.4875 -0.1756
  394MOL0     C53093  -2.492   0.365   0.664  0.7420  0.9473 -1.0633
  394MOL0     C53094  -2.547   0.239   0.738 -0.8325 -0.0890  0.1345
  394MOL0     C53095  -2.699   0.237   0.718 -0.0490  0.2572  0.5257
  394MOL0     C53096  -2.776   0.136   0.806  0.8379  0.0798 -0.8514
  394MOL0     C53097  -2.714   0.002   0.784  0.0004 -0.0163 -0.5733
  394MOL0     C53098  -2.785  -0.126   0.847  0.0063 -0.5212 -0.1739
  394MOL0     C53099  -2.903  -0.178   0.777  0.0450 -0.9766  0.4729
  394MOL0    Cl53100  -2.843  -0.251   0.618  0.1959  0.3771  0.1483
  394MOL0     C53101  -2.127   0.214   0.799 -0.2839  0.0116 -0.4170
  394MOL0     C53102  -1.999   0.168   0.817 -0.0622 -0.4492  0.4985
  394MOL0     O53103  -1.699   0.219   0.706 -0.3472  0.3779 -0.0074
  394MOL0     C53104  -1.452   0.134   0.760 -0.0069  0.3491 -0.0922
  394MOL0     C53105  -1.323   0.121   0.794 -0.0513 -0.7334  0.3780
  394MOL0     N53106  -0.906   0.387   0.783 -0.7605  0.2234 -0.7993
  394MOL0     N53107  -0.821   0.462   0.716  0.0666 -0.1139  0.4863
  394MOL0     C53108  -0.437   0.834   0.117 -0.7476 -0.7165  0.7615
  394MOL0     C53109  -0.373   0.721   0.064  0.1433 -0.4151 -0.7434
  394MOL0     C53110  -0.009   0.427  -0.001 -0.6592  0.7187 -0.2184
  394MOL0     C53111   0.122   0.385   0.023 -0.0040  0.7488 -0.2950
  394MOL0     C53112   0.177   0.270  -0.028 -0.4573 -0.1438  0.3820
  394MOL0     C53113   0.100   0.182  -0.095  1.0546  0.7101 -0.2633
  394MOL0     O53114   0.154   0.064  -0.134 -0.6904 -0.7444  0.6135
  394MOL0     C53115   0.097  -0.025  -0.235  0.0606 -0.9400  0.0363
  394MOL0     C53116   0.194  -0.154  -0.246  0.5818 -0.5331 -0.0331
  394MOL0     C53117   0.163  -0.263  -0.150  0.0043 -0.7768 -0.6194
  394MOL0     C53118   0.280  -0.354  -0.132  0.6017 -0.7685 -0.4235
  394MOL0     C53119   0.241  -0.487  -0.081 -0.5261  0.0601  0.1849
  394MOL0     C53120   0.206  -0.604  -0.042  0.3530  0.0893 -0.6416
  394MOL0     C53121  -0.044   0.205  -0.098 -0.0413 -0.1263  0.8044
  394MOL0     C53122  -0.095   0.332  -0.055 -0.4545 -0.0585  0.8253
  394MOL0     H53123  -0.059   0.834   0.026  0.0500  0.1592 -0.5486
  394MOL0     H53124  -0.159   1.044   0.107 -0.4018  0.1181  1.5540
  394MOL0     H53125  -0.248   1.071   0.329  1.8573  0.7321 -0.1449
  394MOL0     H53126  -0.254   1.201   0.215  0.2224  0.7865  0.2476
  394MOL0     H53127  -0.324   1.250   0.468 -1.3594 -1.0205  1.1592
  394MOL0     H53128  -0.406   1.319   0.329  4.5771  0.7803  0.4287
  394MOL0     H53129  -0.569   1.222   0.507 -0.5143 -0.7583  1.1111
  394MOL0     H53130  -0.586   1.141   0.353  0.2550 -1.2877 -0.7179
  394MOL0     H53131  -0.456   0.946   0.405 -3.1400  0.9594 -2.7158
  394MOL0     H53132  -0.418   1.022   0.571  0.7620  3.5359 -0.6531
  394MOL0     H53133  -0.662   1.006   0.625 -0.5558 -0.3563  0.2746
  394MOL0     H53134  -0.695   0.953   0.457  0.9042  2.6632  0.2311
  394MOL0     H53135  -0.642   0.738   0.499 -1.5608 -1.8924  2.1579
  394MOL0     H53136  -0.514   0.787   0.605  0.4661 -2.8991 -0.8722
  394MOL0     H53137  -0.730   0.871   0.766 -2.1557 -1.5890  3.9347
  394MOL0     H53138  -0.825   0.772   0.664  0.4870 -1.8282 -0.4848
  394MOL0     H53139  -0.639   0.706   0.872 -0.9966  2.3013 -0.8990
  394MOL0     H53140  -0.602   0.607   0.731  1.1578  0.2553  1.1190
  394MOL0     H53141  -0.847   0.625   1.004 -0.2099  1.3837  0.2608
  394MOL0     H53142  -1.021   0.450   1.099  0.7197 -0.9264  0.9044
  394MOL0     H53143  -1.117   0.364   0.977  0.5731 -3.0092 -0.4422
  394MOL0     H53144  -1.018   0.198   1.145  0.1841 -2.0437 -2.0982
  394MOL0     H53145  -0.867   0.272   1.126 -0.3703 -0.0857 -1.0420
  394MOL0     H53146  -0.889   0.059   0.998  2.5218  1.8985  1.1349
  394MOL0     H53147  -0.846   0.182   0.880  1.3640 -4.7816 -1.4255
  394MOL0     H53148  -1.011   0.023   0.830  2.7400 -0.3911  1.6030
  394MOL0     H53149  -1.062   0.188   0.789  0.6079 -1.0204 -0.1824
  394MOL0     H53150  -1.344   0.132   1.128 -0.2899  1.9521 -0.1757
  394MOL0     H53151  -1.628   0.299   1.086 -0.1047 -1.2802 -5.9928
  394MOL0     H53152  -1.655   0.132   1.133  0.0783  1.1326  1.2977
  394MOL0     H53153  -1.515   0.230   1.202 -0.2471  0.7866 -0.3682
  394MOL0     H53154  -1.864   0.443   0.965 -0.1166 -0.5306  0.8856
  394MOL0     H53155  -2.077   0.534   0.917 -0.3775 -0.5468  0.9816
  394MOL0     H53156  -2.293   0.467   0.627  1.6805  0.0866  0.5968
  394MOL0     H53157  -2.288   0.286   0.648 -0.0356  0.7209 -0.5983
  394MOL0     H53158  -2.533   0.453   0.713  2.0928  0.6873  0.6744
  394MOL0     H53159  -2.515   0.360   0.558  1.4320  1.3448 -1.2405
  394MOL0     H53160  -2.506   0.247   0.840 -1.0798 -1.8514  0.4111
  394MOL0     H53161  -2.503   0.144   0.707  0.9134  0.1713  1.6231
  394MOL0     H53162  -2.728   0.338   0.747  0.2873  0.9397 -1.3738
  394MOL0     H53163  -2.721   0.212   0.613  1.8798 -0.7295  0.3115
  394MOL0     H53164  -2.880   0.130   0.770 -0.3600  2.6596  1.7497
  394MOL0     H53165  -2.773   0.159   0.913  1.7233 -2.0711 -0.3751
  394MOL0     H53166  -2.721  -0.010   0.676 -2.1214  0.7932 -0.5816
  394MOL0     H53167  -2.610   0.009   0.818 -0.4875  1.1771  0.7836
  394MOL0     H53168  -2.819  -0.101   0.948 -0.3196 -0.9188 -0.1807
  394MOL0     H53169  -2.710  -0.205   0.849 -1.9214 -2.7944 -4.4335
  394MOL0     H53170  -2.974  -0.103   0.741  0.0615 -2.6052 -3.5162
  394MOL0     H53171  -2.951  -0.256   0.837 -0.2136 -0.5886  0.7757
  394MOL0     H53172  -2.201   0.152   0.750 -1.6705  1.2558  0.0361
  394MOL0     H53173  -1.969   0.064   0.813  1.0290 -0.1217 -0.4060
  394MOL0     H53174  -1.477   0.130   0.654 -0.1064  0.7087 -0.0836
  394MOL0     H53175  -1.248   0.109   0.716  2.2133 -0.6158  2.3950
  394MOL0     H53176  -0.541   0.825   0.147 -0.7383 -3.5713  0.2115
  394MOL0     H53177  -0.434   0.632   0.051  0.8857 -0.9714 -0.5009
  394MOL0     H53178   0.178   0.459   0.079 -1.8368  1.6904  0.3619
  394MOL0     H53179   0.286   0.261  -0.027 -0.1830  1.8179 -2.0303
  394MOL0     H53180  -0.003  -0.059  -0.205 -0.2971  0.3317  0.3683
  394MOL0     H53181   0.091   0.034  -0.327  2.5694 -1.7152 -0.6958
  394MOL0     H53182   0.297  -0.121  -0.230 -0.2142  2.1402  0.0805
  394MOL0     H53183   0.203  -0.201  -0.345  1.7618 -2.0035  0.7340
  394MOL0     H53184   0.075  -0.315  -0.188 -1.3701  1.2803 -0.4038
  394MOL0     H53185   0.149  -0.214  -0.054  2.1582 -0.5774 -0.3649
  394MOL0     H53186   0.352  -0.306  -0.064 -0.5614  0.2778  0.1028
  394MOL0     H53187   0.318  -0.382  -0.231  1.2606 -3.8408  0.5837
  394MOL0     H53188   0.179  -0.704  -0.017 -1.0982  1.0936  2.1741
  394MOL0     H53189  -0.107   0.127  -0.140  0.8331  0.6876 -2.3033
  394MOL0     H53190  -0.201   0.348  -0.067 -0.1985  2.5014  1.5171
  395MOL0     O53191   1.278   5.931  10.835  0.6775  0.0660 -0.4167
  395MOL0     C53192   1.210   6.026  10.801 -0.3735 -0.5860  0.5522
  395MOL0     O53193   1.260   6.158  10.791  0.5066  0.6013  0.3898
  395MOL0     C53194   1.377   6.165  10.846  0.0006  0.5038 -0.3096
  395MOL0     C53195   1.489   6.177  10.766 -0.8737  0.1153  0.6170
  395MOL0     C53196   1.614   6.177  10.815  0.4713  0.3152  0.2209
  395MOL0     C53197   1.635   6.162  10.953  0.8618 -0.4890  0.3434
  395MOL0     O53198   1.760   6.140  10.997 -0.4351  0.2412  0.4602
  395MOL0     C53199   1.793   6.183  11.129 -0.5370  0.6806  0.9769
  395MOL0     C53200   1.932   6.238  11.132  0.3071 -0.2778 -0.0793
  395MOL0     C53201   2.042   6.133  11.098  0.0613 -0.4573  0.0658
  395MOL0     C53202   2.180   6.199  11.110 -0.7707 -0.8849 -0.4496
  395MOL0     C53203   2.297   6.109  11.055  0.2213 -0.2488 -0.2935
  395MOL0     C53204   2.432   6.182  11.068  0.3167  0.1864  0.6601
  395MOL0     C53205   2.529   6.121  10.958  0.0043  0.8542  0.0550
  395MOL0     C53206   2.557   5.970  10.982  0.3873  0.8028 -0.7841
  395MOL0     N53207   2.685   5.928  10.915  1.1010  0.5612  0.2288
  395MOL0     C53208   2.710   5.937  10.782 -0.5423  0.5804 -0.6265
  395MOL0     C53209   2.827   5.864  10.764 -0.0515  0.7440 -0.3044
  395MOL0     C53210   2.889   5.865  10.628 -0.4954  0.0751  0.0448
  395MOL0     C53211   3.043   5.866  10.639 -0.5195  0.5247  0.1128
  395MOL0     C53212   3.106   5.876  10.500  0.2098 -0.0824 -0.2450
  395MOL0     C53213   3.256   5.886  10.510 -0.6373 -0.2949  0.0230
  395MOL0     O53214   3.323   5.849  10.392 -0.2827  0.1292  0.3904
  395MOL0     C53215   3.434   5.770  10.419 -0.3799  0.3799  0.8557
  395MOL0     C53216   3.424   5.635  10.404  0.1513 -0.5190  0.5008
  395MOL0     C53217   3.529   5.553  10.430 -0.2171 -0.2109  0.1207
  395MOL0     C53218   3.502   5.405  10.416 -0.2868 -0.5031 -0.3601
  395MOL0     C53219   3.649   5.609  10.477  0.3387  0.6098 -0.7420
  395MOL0     C53220   3.772   5.523  10.502  0.1857  0.8524 -0.2604
  395MOL0     O53221   3.875   5.577  10.561  0.0262 -0.2929 -0.0069
  395MOL0     C53222   3.979   5.504  10.608  1.0317 -0.3476 -0.0165
  395MOL0     C53223   3.954   5.392  10.685  0.2937 -0.1595  0.3928
  395MOL0     C53224   4.067   5.317  10.728  0.4030 -0.5866 -0.2891
  395MOL0     C53225   4.197   5.360  10.711  0.5307 -0.1526  0.2687
  395MOL0     O53226   4.296   5.285  10.772 -0.1510 -1.4571  0.1075
  395MOL0     C53227   4.436   5.299  10.747 -0.1979  0.2184 -1.1472
  395MOL0     C53228   4.515   5.297  10.879  0.8730 -0.0078  0.0270
  395MOL0     C53229   4.662   5.314  10.866 -0.7751 -0.5814 -0.5615
  395MOL0     C53230   4.741   5.312  11.005 -0.2858  0.6248  0.3167
  395MOL0     C53231   4.885   5.294  10.980  0.0774 -0.3417  0.0489
  395MOL0     C53232   4.970   5.349  11.097  0.2137 -0.2577  0.8111
  395MOL0     C53233   5.119   5.350  11.081  0.3994 -0.1081 -0.9242
  395MOL0     C53234   5.203   5.456  11.163 -0.8307  0.7187  0.7169
  395MOL0    Cl53235   5.378   5.456  11.116  0.3141  0.1497  0.5148
  395MOL0     C53236   4.216   5.483  10.642 -0.3411 -0.7395  0.4958
  395MOL0     C53237   4.113   5.556  10.594  0.3980 -0.0543 -0.6023
  395MOL0     O53238   3.771   5.411  10.460 -0.0006  1.2171 -0.6714
  395MOL0     C53239   3.663   5.742  10.491  0.5237  0.3876 -0.6882
  395MOL0     C53240   3.558   5.828  10.464  0.4621 -0.3343  0.0345
  395MOL0     N53241   2.866   5.818  10.894 -0.5736  1.0134  0.7095
  395MOL0     N53242   2.772   5.844  10.975 -0.2563 -0.8800 -0.3920
  395MOL0     C53243   1.525   6.140  11.034  0.5860  0.6299 -0.7183
  395MOL0     C53244   1.401   6.148  10.986 -0.0583 -0.9212  1.0542
  395MOL0     C53245   1.060   6.009  10.770  0.8434 -0.6360 -0.3484
  395MOL0     C53246   0.978   6.122  10.756 -0.9016 -0.1127 -0.1179
  395MOL0     C53247   0.847   6.116  10.712  0.0805  0.6993 -0.5594
  395MOL0     C53248   0.781   5.990  10.690 -0.6857 -0.1624  0.7409
  395MOL0     O53249   0.650   6.002  10.647 -0.1804  0.4273  0.1662
  395MOL0     C53250   0.575   5.884  10.613  0.2950  0.9009 -0.8052
  395MOL0     C53251   0.427   5.930  10.597  0.1370  0.0940  0.0215
  395MOL0     C53252   0.327   5.820  10.569 -0.4731  0.0186 -0.0040
  395MOL0     C53253   0.332   5.769  10.428 -0.4452 -0.3733  0.7194
  395MOL0     C53254   0.284   5.630  10.422  0.3112  0.3815  1.0521
  395MOL0     C53255   0.240   5.519  10.429  0.1622  0.1530 -0.0842
  395MOL0     C53256   0.871   5.877  10.695  0.8503 -0.6630  0.5024
  395MOL0     C53257   1.005   5.883  10.742  0.4163  0.0690 -0.3796
  395MOL0     H53258   1.478   6.186  10.658  0.6526  0.7597  0.4807
  395MOL0     H53259   1.696   6.185  10.744 -2.2084  4.3936 -2.8842
  395MOL0     H53260   1.728   6.266  11.160  0.9497  3.2280 -2.1674
  395MOL0     H53261   1.776   6.100  11.198 -0.5323 -2.7615 -2.8067
  395MOL0     H53262   1.938   6.308  11.049  1.7552 -0.5257 -0.2111
  395MOL0     H53263   1.950   6.298  11.222 -4.0873  1.0981  0.1155
  395MOL0     H53264   2.027   6.053  11.171  2.2287  1.9728  3.4907
  395MOL0     H53265   2.021   6.099  10.996 -2.2179  4.7053 -1.5144
  395MOL0     H53266   2.183   6.297  11.062  0.9519 -0.0977  1.1305
  395MOL0     H53267   2.197   6.224  11.215  2.4711  2.7797 -1.5989
  395MOL0     H53268   2.296   6.018  11.117 -0.7997  0.9076  1.4995
  395MOL0     H53269   2.283   6.090  10.949  1.2907 -0.6358 -0.3747
  395MOL0     H53270   2.418   6.278  11.016 -2.0107 -0.6518 -0.4100
  395MOL0     H53271   2.481   6.188  11.165  2.1503 -2.8445  0.0542
  395MOL0     H53272   2.487   6.131  10.858  1.8591 -1.2685 -1.0149
  395MOL0     H53273   2.624   6.174  10.962 -0.9571  2.6074  1.1084
  395MOL0     H53274   2.474   5.927  10.926 -0.3840  2.0355 -0.6284
  395MOL0     H53275   2.554   5.928  11.083  1.1969 -1.2972 -1.5773
  395MOL0     H53276   2.644   5.987  10.712  0.6732  1.4677 -1.1769
  395MOL0     H53277   2.855   5.775  10.576 -0.4306  0.2289 -0.2629
  395MOL0     H53278   2.851   5.951  10.572  0.2082  1.1618  1.1874
  395MOL0     H53279   3.073   5.771  10.685  1.1184  1.6412  1.4798
  395MOL0     H53280   3.067   5.948  10.707 -0.3343  1.1793 -0.7178
  395MOL0     H53281   3.070   5.958  10.437 -0.4831 -0.5624 -0.4888
  395MOL0     H53282   3.077   5.786  10.444 -1.0897  2.3957 -3.9741
  395MOL0     H53283   3.274   5.816  10.593 -1.2044  0.1094  0.4963
  395MOL0     H53284   3.289   5.979  10.557 -0.5320 -0.0306 -0.5744
  395MOL0     H53285   3.327   5.590  10.387 -0.9305  1.0222  2.1479
  395MOL0     H53286   3.564   5.362  10.336 -1.7282 -1.0655 -1.2192
  395MOL0     H53287   3.510   5.350  10.510 -1.6622  0.2675  0.2322
  395MOL0     H53288   3.400   5.384  10.381 -2.0238 -0.9990  4.2796
  395MOL0     H53289   3.861   5.341  10.707  0.5651 -1.4227 -1.1736
  395MOL0     H53290   4.053   5.222  10.779 -0.1695 -0.6790 -0.6126
  395MOL0     H53291   4.477   5.216  10.688 -2.8165 -1.4061 -0.8102
  395MOL0     H53292   4.462   5.395  10.700  0.7962  1.9799  2.6163
  395MOL0     H53293   4.477   5.379  10.941  1.6798  0.4179 -0.0390
  395MOL0     H53294   4.474   5.211  10.934 -4.9607  3.3979  1.9241
  395MOL0     H53295   4.691   5.401  10.805 -0.0681 -1.2788 -1.2351
  395MOL0     H53296   4.699   5.220  10.826  1.5489 -0.1049  0.3369
  395MOL0     H53297   4.719   5.408  11.051 -4.1123  1.2577 -2.4336
  395MOL0     H53298   4.701   5.235  11.072  1.1935 -0.7354 -0.2764
  395MOL0     H53299   4.906   5.335  10.881 -0.5739 -1.4669 -0.5776
  395MOL0     H53300   4.909   5.189  10.961 -4.7856 -2.2884  2.6980
  395MOL0     H53301   4.927   5.448  11.114 -1.9871 -1.2515  1.4280
  395MOL0     H53302   4.955   5.286  11.185  1.2640 -1.9067 -0.1356
  395MOL0     H53303   5.126   5.384  10.977 -2.6532  0.4676 -1.0133
  395MOL0     H53304   5.151   5.246  11.095 -1.3912 -0.5518  0.1329
  395MOL0     H53305   5.203   5.431  11.270 -0.4412  2.2576  1.0960
  395MOL0     H53306   5.157   5.554  11.155 -4.7809 -1.0711 -1.7930
  395MOL0     H53307   4.317   5.522  10.638 -0.2582 -0.9673  0.3483
  395MOL0     H53308   4.132   5.653  10.550  3.4888 -0.8461 -1.2598
  395MOL0     H53309   3.756   5.784  10.528  2.1424 -1.7350 -2.1028
  395MOL0     H53310   3.573   5.935  10.473 -2.1345  0.0552  0.6179
  395MOL0     H53311   1.555   6.104  11.132  0.8900 -2.8910 -1.9541
  395MOL0     H53312   1.314   6.138  11.050 -1.0327  5.0088  1.2335
  395MOL0     H53313   1.025   6.217  10.777 -0.3987  0.3435 -2.9372
  395MOL0     H53314   0.787   6.205  10.698 -2.3794 -0.5532  1.2623
  395MOL0     H53315   0.619   5.856  10.517  0.1444  0.6862 -0.8108
  395MOL0     H53316   0.592   5.810  10.692  0.9824 -0.5044 -2.1960
  395MOL0     H53317   0.426   6.011  10.524  2.1972  0.6493  0.5380
  395MOL0     H53318   0.405   5.972  10.696  1.9513  0.7151  0.1934
  395MOL0     H53319   0.229   5.858  10.599 -0.0920 -0.1012  1.4693
  395MOL0     H53320   0.352   5.733  10.630 -3.7423 -2.4848 -1.8845
  395MOL0     H53321   0.432   5.768  10.384 -0.5181 -0.0494  0.5417
  395MOL0     H53322   0.267   5.840  10.376  0.1944  0.8726  1.5815
  395MOL0     H53323   0.202   5.419  10.434 -0.5355  0.4475  0.8723
  395MOL0     H53324   0.826   5.784  10.662 -3.5415  1.2930  0.3863
  395MOL0     H53325   1.059   5.791  10.764  0.6564  0.5290  1.1103
  396MOL0     O53326   8.871   3.461   1.825 -0.1864  0.1521  0.2999
  396MOL0     C53327   8.795   3.512   1.746  0.6597  0.1968 -0.5363
  396MOL0     O53328   8.818   3.524   1.609  0.2291 -0.2000  0.3477
  396MOL0     C53329   8.938   3.490   1.561 -0.7981 -0.9751 -0.3831
  396MOL0     C53330   9.028   3.592   1.525  0.3879  0.4418  0.5608
  396MOL0     C53331   9.148   3.554   1.459  0.4220 -0.7094 -0.8079
  396MOL0     C53332   9.177   3.416   1.442  0.5666  0.2704  0.8082
  396MOL0     O53333   9.296   3.384   1.392  0.6912 -0.0464  1.0243
  396MOL0     C53334   9.357   3.260   1.424  0.4800 -0.1392 -0.3086
  396MOL0     C53335   9.502   3.253   1.386 -0.2655 -0.6183  0.4805
  396MOL0     C53336   9.587   3.156   1.466  0.2149  0.9943 -0.5219
  396MOL0     C53337   9.728   3.123   1.408 -0.6903 -0.0176 -0.0666
  396MOL0     C53338   9.820   3.246   1.418 -0.0854  0.5513  0.0949
  396MOL0     C53339   9.927   3.251   1.312 -0.0754  0.7596  0.2736
  396MOL0     C53340  10.033   3.140   1.325 -0.3844 -0.8485 -0.2133
  396MOL0     C53341  10.096   3.159   1.467 -0.0928  0.5512 -0.3276
  396MOL0     N53342  10.208   3.063   1.482  0.2094 -0.2486 -0.1543
  396MOL0     C53343  10.335   3.054   1.416  0.0661 -0.3565  0.7075
  396MOL0     C53344  10.389   2.941   1.466 -0.4125 -0.1973  0.0894
  396MOL0     C53345  10.517   2.889   1.430  0.3253  1.0872  0.1711
  396MOL0     C53346  10.646   2.970   1.479 -0.4962  0.4730  0.0500
  396MOL0     C53347  10.643   3.046   1.610 -0.0227  0.0441  0.0452
  396MOL0     C53348  10.526   3.152   1.636  0.4417 -0.3229  0.1647
  396MOL0     O53349  10.519   3.259   1.539 -0.0570  0.5341 -0.3361
  396MOL0     C53350  10.441   3.371   1.571  0.0285  0.7668 -1.0849
  396MOL0     C53351  10.448   3.477   1.483  0.0089 -0.0775  0.7683
  396MOL0     C53352  10.388   3.602   1.509  0.7073  0.3365  0.6424
  396MOL0     C53353  10.423   3.713   1.415 -0.1837 -0.2640 -0.9169
  396MOL0     C53354  10.314   3.621   1.629  0.0337  0.9117  0.0653
  396MOL0     C53355  10.262   3.754   1.681  1.1038  0.7615  0.4493
  396MOL0     O53356  10.335   3.865   1.651 -0.0690 -0.7243  0.3989
  396MOL0     C53357  10.329   3.981   1.718  0.1426  0.4898  0.0261
  396MOL0     C53358  10.280   4.002   1.850 -0.0857  1.2079 -0.8674
  396MOL0     C53359  10.274   4.127   1.905 -0.9502  0.0738  0.0805
  396MOL0     C53360  10.338   4.235   1.830 -0.4515 -0.2832  0.0824
  396MOL0     O53361  10.353   4.364   1.882 -0.8174 -0.2092 -0.1305
  396MOL0     C53362  10.260   4.471   1.839 -0.1399  1.0521  0.6538
  396MOL0     C53363  10.312   4.608   1.892  0.8634  0.3900 -0.1898
  396MOL0     C53364  10.329   4.611   2.032 -0.5298 -1.4660 -0.0254
  396MOL0     C53365  10.345   4.766   2.068  0.0853  0.1062  0.4071
  396MOL0     C53366  10.390   4.796   2.214  0.6004  0.9918 -0.2791
  396MOL0     C53367  10.390   4.944   2.230  0.1346  0.1607 -1.1122
  396MOL0     C53368  10.414   4.966   2.381 -0.2041 -0.2250 -0.0139
  396MOL0     C53369  10.562   4.985   2.403  0.0948  0.5226 -0.6587
  396MOL0    Cl53370  10.566   4.986   2.590  0.4527 -0.0470 -0.4734
  396MOL0     C53371  10.385   4.215   1.704 -0.0328  0.3770  0.4333
  396MOL0     C53372  10.371   4.092   1.645  0.3532  0.4962  0.2408
  396MOL0     O53373  10.156   3.753   1.741 -0.0823 -0.1314 -0.1053
  396MOL0     C53374  10.300   3.506   1.713 -0.6086 -0.0379 -0.0809
  396MOL0     C53375  10.356   3.382   1.684 -0.1361  0.5852 -0.2731
  396MOL0     N53376  10.311   2.879   1.561  0.4871 -1.4095 -0.2934
  396MOL0     N53377  10.206   2.955   1.568 -0.7373 -0.3175  0.0388
  396MOL0     C53378   9.076   3.320   1.465 -0.4625  1.2459 -0.7121
  396MOL0     C53379   8.964   3.351   1.543 -0.2305  0.4695 -1.3568
  396MOL0     C53380   8.654   3.538   1.781 -1.2302  0.4744  0.6909
  396MOL0     C53381   8.609   3.478   1.895 -0.7163 -0.2242  0.6325
  396MOL0     C53382   8.465   3.509   1.918 -0.2049  0.3420 -1.1447
  396MOL0     C53383   8.375   3.587   1.842  0.3950  0.0646  0.5078
  396MOL0     O53384   8.239   3.580   1.871  0.1338 -0.4990  0.5493
  396MOL0     C53385   8.161   3.689   1.825 -0.9424 -0.1311 -0.5456
  396MOL0     C53386   8.076   3.662   1.695 -0.0313 -0.4364 -0.7047
  396MOL0     C53387   7.986   3.788   1.677 -0.2479 -0.5052  0.3092
  396MOL0     C53388   7.848   3.757   1.613 -0.1275  0.3180  0.0111
  396MOL0     C53389   7.758   3.696   1.705  0.2668 -0.0189 -0.5753
  396MOL0     C53390   7.686   3.620   1.777  0.4598  0.6571  1.0580
  396MOL0     C53391   8.437   3.637   1.728  0.5407 -0.1253 -0.5024
  396MOL0     C53392   8.576   3.620   1.700 -0.3509 -0.2555  0.3614
  396MOL0     H53393   9.006   3.696   1.545  0.3087  1.1718 -2.6987
  396MOL0     H53394   9.220   3.631   1.434 -0.1638 -0.6593 -2.5295
  396MOL0     H53395   9.361   3.264   1.534  2.0848  0.5745 -0.3627
  396MOL0     H53396   9.309   3.173   1.380  1.0037 -1.1660  1.0433
  396MOL0     H53397   9.494   3.220   1.282  1.1266  1.6623 -0.4156
  396MOL0     H53398   9.538   3.356   1.379 -2.3195  0.1373  0.3402
  396MOL0     H53399   9.603   3.189   1.569  0.1925  0.8145 -0.4612
  396MOL0     H53400   9.531   3.063   1.479 -0.6881  1.8598  2.8467
  396MOL0     H53401   9.771   3.037   1.462  1.2764  0.6622 -0.4536
  396MOL0     H53402   9.726   3.089   1.304  0.0669 -0.7313  0.1371
  396MOL0     H53403   9.759   3.335   1.402  0.8064  2.2006  4.3106
  396MOL0     H53404   9.859   3.246   1.521 -2.5030 -2.1980  1.1558
  396MOL0     H53405   9.890   3.223   1.213  0.7874 -2.2363  0.6982
  396MOL0     H53406   9.974   3.350   1.313  1.7938 -0.0232 -1.5201
  396MOL0     H53407   9.978   3.046   1.310  0.8976 -1.8114  0.7487
  396MOL0     H53408  10.104   3.167   1.247  0.6340 -3.0833 -0.1554
  396MOL0     H53409  10.026   3.125   1.544  0.3328  2.1482  0.7935
  396MOL0     H53410  10.128   3.262   1.481 -0.2715  0.4371  0.9796
  396MOL0     H53411  10.381   3.133   1.357  0.2136  0.5541  1.9841
  396MOL0     H53412  10.527   2.781   1.444  2.1946  1.2911  0.6787
  396MOL0     H53413  10.516   2.896   1.320  2.8865  0.8616  0.0695
  396MOL0     H53414  10.664   3.037   1.394  0.0792 -2.7812 -2.6076
  396MOL0     H53415  10.737   2.910   1.471  1.3737  3.1537 -0.1727
  396MOL0     H53416  10.736   3.103   1.619 -0.5921  1.1056 -0.5919
  396MOL0     H53417  10.641   2.976   1.693 -0.8015  0.0152  0.0012
  396MOL0     H53418  10.547   3.191   1.736  2.9679  1.3871 -0.9232
  396MOL0     H53419  10.424   3.114   1.648  0.6597 -1.7141 -1.7960
  396MOL0     H53420  10.514   3.459   1.399 -0.0327  0.5889  0.5827
  396MOL0     H53421  10.474   3.669   1.328 -0.8483 -1.3719 -0.7663
  396MOL0     H53422  10.341   3.764   1.364  0.8768  2.5709  0.0136
  396MOL0     H53423  10.490   3.786   1.462 -1.6765 -0.2095  1.2746
  396MOL0     H53424  10.247   3.916   1.907 -0.9890  1.4419 -1.0303
  396MOL0     H53425  10.234   4.143   2.005 -2.0413  1.7819 -0.5830
  396MOL0     H53426  10.261   4.455   1.731  2.0597 -3.0766  1.0661
  396MOL0     H53427  10.166   4.432   1.878  1.9529 -4.2027  1.2718
  396MOL0     H53428  10.417   4.626   1.867  0.7629  2.2891  0.6087
  396MOL0     H53429  10.250   4.689   1.853  0.6565 -0.9482 -2.9087
  396MOL0     H53430  10.424   4.561   2.055 -1.1325 -2.9709 -0.6448
  396MOL0     H53431  10.244   4.569   2.087 -0.2770 -3.4377 -1.0091
  396MOL0     H53432  10.413   4.816   1.999 -3.5032  2.4435 -1.7927
  396MOL0     H53433  10.243   4.804   2.056 -0.3456 -0.2932  2.4270
  396MOL0     H53434  10.483   4.739   2.225 -1.5266 -3.2821 -2.0847
  396MOL0     H53435  10.308   4.748   2.269 -0.3933  1.9708 -0.8749
  396MOL0     H53436  10.463   5.000   2.170 -1.4578  4.4842  0.6209
  396MOL0     H53437  10.294   4.984   2.196  0.2546  1.3108 -0.1450
  396MOL0     H53438  10.391   4.876   2.439  1.5222 -0.9198 -0.3571
  396MOL0     H53439  10.356   5.054   2.411 -2.9894 -2.1274  0.5223
  396MOL0     H53440  10.605   5.072   2.352 -0.2835 -0.2166 -2.3302
  396MOL0     H53441  10.609   4.893   2.367 -1.9675 -0.4970 -0.9265
  396MOL0     H53442  10.438   4.294   1.651  0.9107  1.0265  2.2650
  396MOL0     H53443  10.418   4.071   1.550 -3.9474  1.2974 -2.3272
  396MOL0     H53444  10.250   3.515   1.809 -2.8602  2.6685 -1.3643
  396MOL0     H53445  10.339   3.294   1.745  4.2881 -0.5590 -0.3852
  396MOL0     H53446   9.082   3.212   1.459 -3.3485  0.7839  1.9049
  396MOL0     H53447   8.889   3.278   1.572  1.2981  0.5657  4.0833
  396MOL0     H53448   8.673   3.417   1.958  0.4231  0.4214  0.1239
  396MOL0     H53449   8.414   3.468   2.004  0.4684  0.8870 -0.4708
  396MOL0     H53450   8.097   3.717   1.909  0.9313  0.6331  0.6908
  396MOL0     H53451   8.217   3.782   1.810 -0.2610 -0.0511  2.0850
  396MOL0     H53452   8.004   3.579   1.703 -0.9974 -0.0098 -3.7874
  396MOL0     H53453   8.134   3.636   1.606  4.4277 -1.0833  2.0672
  396MOL0     H53454   8.047   3.846   1.608  0.1109 -0.8804  0.3027
  396MOL0     H53455   7.969   3.845   1.769  0.5504 -0.6580  0.5570
  396MOL0     H53456   7.852   3.688   1.529 -1.3199  1.3074 -0.9004
  396MOL0     H53457   7.806   3.853   1.579 -0.0050  0.7454  1.0229
  396MOL0     H53458   7.627   3.568   1.849  1.9204  0.6788  2.3122
  396MOL0     H53459   8.377   3.701   1.664  1.0205 -0.8128 -1.6634
  396MOL0     H53460   8.634   3.665   1.620  1.3171 -2.6715  0.1140
  397MOL0     O53461   0.723   5.024   8.680 -0.0620  0.1127 -0.5171
  397MOL0     C53462   0.638   4.966   8.746 -0.1472 -0.6163 -0.3342
  397MOL0     O53463   0.610   4.831   8.750 -0.7019  0.5136 -0.3697
  397MOL0     C53464   0.680   4.744   8.671  0.6039 -0.0571 -0.1925
  397MOL0     C53465   0.660   4.745   8.534  0.1966  0.4543  0.1969
  397MOL0     C53466   0.732   4.655   8.454  0.1014 -0.2525  0.1276
  397MOL0     C53467   0.838   4.583   8.511  0.5548 -0.3190  0.6026
  397MOL0     O53468   0.908   4.509   8.419 -0.5051 -0.4646  0.1643
  397MOL0     C53469   0.956   4.577   8.305 -0.0362 -0.0563 -0.2423
  397MOL0     C53470   1.115   4.576   8.321 -0.5474 -0.1544  0.2305
  397MOL0     C53471   1.173   4.434   8.323  0.3713 -0.3062 -0.0948
  397MOL0     C53472   1.326   4.431   8.309 -0.7736  0.7368  0.2176
  397MOL0     C53473   1.392   4.457   8.444 -0.5295 -0.8216 -0.3685
  397MOL0     C53474   1.538   4.411   8.450  0.1242  0.3893 -0.3694
  397MOL0     C53475   1.603   4.430   8.587 -0.0866  0.4082 -0.6683
  397MOL0     C53476   1.757   4.381   8.589  0.1748  0.2497 -0.2900
  397MOL0     N53477   1.827   4.408   8.717 -0.5246 -0.6273 -0.4252
  397MOL0     C53478   1.833   4.324   8.823  0.1062 -0.7133 -0.0336
  397MOL0     C53479   1.918   4.384   8.914 -0.5735 -0.1166  0.0675
  397MOL0     C53480   1.970   4.317   9.041  0.6311  0.3437 -0.4545
  397MOL0     C53481   2.098   4.236   8.994 -0.1743 -1.0178 -0.0619
  397MOL0     C53482   2.077   4.099   8.927 -0.6099 -0.2656 -0.3917
  397MOL0     C53483   2.010   4.008   9.030  0.2690 -0.0722 -0.8898
  397MOL0     O53484   1.900   3.940   8.973  0.8764  0.3043 -0.2935
  397MOL0     C53485   1.766   3.980   9.010  0.2198 -0.8103  0.2820
  397MOL0     C53486   1.735   4.018   9.145 -0.2486  0.5294  0.6895
  397MOL0     C53487   1.620   4.088   9.186  0.5747  0.0074  1.3337
  397MOL0     C53488   1.599   4.102   9.333  0.0687  0.0271 -0.0754
  397MOL0     C53489   1.537   4.144   9.078  0.1120 -0.8794 -0.5386
  397MOL0     C53490   1.417   4.227   9.100  0.2094  0.4764  0.5692
  397MOL0     O53491   1.400   4.346   9.031 -0.9963  0.1000 -0.3546
  397MOL0     C53492   1.280   4.414   9.050  0.3889 -0.6148 -0.2176
  397MOL0     C53493   1.169   4.373   8.981  0.3071 -0.0864  0.0537
  397MOL0     C53494   1.048   4.447   8.990 -0.2614  0.0763 -0.3445
  397MOL0     C53495   1.042   4.563   9.075 -0.4719  0.9311  0.3332
  397MOL0     O53496   0.929   4.638   9.106 -0.5233 -0.5300 -0.0258
  397MOL0     C53497   0.804   4.563   9.101 -1.0231 -0.0063  1.0072
  397MOL0     C53498   0.698   4.651   9.152 -0.6487  0.3081 -0.3256
  397MOL0     C53499   0.562   4.576   9.143 -0.1066 -0.6697 -0.0723
  397MOL0     C53500   0.458   4.676   9.189  0.6467 -1.1435 -0.1495
  397MOL0     C53501   0.314   4.622   9.171  0.3842 -0.6903  0.7664
  397MOL0     C53502   0.199   4.730   9.150  0.0795  0.4681 -0.9590
  397MOL0     C53503   0.168   4.801   9.280 -1.1633 -0.0853 -0.9251
  397MOL0     C53504   0.037   4.858   9.290  1.1814  0.1073  0.0908
  397MOL0    Cl53505   0.020   4.959   9.437 -0.0641 -0.2297  0.1060
  397MOL0     C53506   1.157   4.591   9.155 -0.4788  0.1995 -0.3599
  397MOL0     C53507   1.273   4.514   9.141  0.1433  0.1864  0.0539
  397MOL0     O53508   1.345   4.175   9.179 -0.1343 -0.3600  0.2385
  397MOL0     C53509   1.579   4.123   8.946 -0.0310 -0.6350  1.0300
  397MOL0     C53510   1.679   4.035   8.910 -0.0943  0.7873  0.4058
  397MOL0     N53511   1.936   4.515   8.875  0.1932  0.1619 -0.2581
  397MOL0     N53512   1.883   4.523   8.756 -0.0728  0.1078  0.2379
  397MOL0     C53513   0.852   4.581   8.644  0.2031 -0.3027  0.8685
  397MOL0     C53514   0.778   4.662   8.730  0.1634 -0.3979  0.9278
  397MOL0     C53515   0.544   5.051   8.819  0.1093  0.6853 -1.6825
  397MOL0     C53516   0.551   5.187   8.817  0.4172  0.1716  0.2301
  397MOL0     C53517   0.452   5.263   8.888 -0.9002  0.0917  0.0337
  397MOL0     C53518   0.347   5.196   8.957  0.2339 -0.3763 -0.3858
  397MOL0     O53519   0.271   5.267   9.044  0.2632 -0.4098  0.4783
  397MOL0     C53520   0.133   5.240   9.070 -0.5630  0.1969  0.4802
  397MOL0     C53521   0.053   5.359   9.117 -0.5557  0.6631  0.7043
  397MOL0     C53522   0.049   5.465   9.003 -0.6057  0.3622 -0.1373
  397MOL0     C53523   0.047   5.607   9.046 -0.0467  0.7688 -0.9523
  397MOL0     C53524  -0.085   5.636   9.113  0.6151  0.7233  0.0897
  397MOL0     C53525  -0.197   5.667   9.164 -0.3810  0.1869 -0.8008
  397MOL0     C53526   0.336   5.059   8.956  0.1016 -0.3843 -0.6094
  397MOL0     C53527   0.431   4.991   8.887 -0.6808  0.5636 -0.3588
  397MOL0     H53528   0.584   4.803   8.482 -1.5770 -1.4104  0.6224
  397MOL0     H53529   0.709   4.642   8.349 -0.8800 -1.5086  0.4610
  397MOL0     H53530   0.919   4.528   8.215 -2.4255  0.8332  0.1853
  397MOL0     H53531   0.934   4.684   8.295  1.2851  0.1944 -0.6318
  397MOL0     H53532   1.155   4.629   8.234 -1.8129  0.3397 -0.0655
  397MOL0     H53533   1.137   4.631   8.413  0.5440 -2.5892  1.5211
  397MOL0     H53534   1.155   4.379   8.416  3.7724 -0.3414  0.6678
  397MOL0     H53535   1.127   4.386   8.236  1.3384 -0.3127 -0.6137
  397MOL0     H53536   1.347   4.326   8.286 -0.3815  0.3368  2.2150
  397MOL0     H53537   1.357   4.487   8.220  2.2544 -2.0577 -0.7035
  397MOL0     H53538   1.395   4.565   8.463  1.4454 -1.1868  1.9828
  397MOL0     H53539   1.331   4.421   8.527  0.7370  1.8328  1.9256
  397MOL0     H53540   1.530   4.303   8.437 -0.4967  0.4003 -0.1067
  397MOL0     H53541   1.603   4.458   8.375  0.4079  0.7246  0.0826
  397MOL0     H53542   1.604   4.534   8.622 -0.6431 -0.1786  1.2625
  397MOL0     H53543   1.557   4.375   8.669  3.8868 -0.6765  1.0973
  397MOL0     H53544   1.814   4.427   8.507  0.0645 -1.2162 -1.2201
  397MOL0     H53545   1.760   4.273   8.573 -0.2753  0.3275 -0.9127
  397MOL0     H53546   1.804   4.220   8.826  1.0248 -1.0411 -1.5122
  397MOL0     H53547   2.000   4.399   9.107 -3.2391  0.6671  1.1919
  397MOL0     H53548   1.896   4.256   9.093  1.3344  0.5476  0.8248
  397MOL0     H53549   2.168   4.212   9.075 -0.3350 -3.4718 -0.5765
  397MOL0     H53550   2.152   4.293   8.918  3.0810 -0.0409  2.6929
  397MOL0     H53551   2.170   4.052   8.895 -0.5548 -1.8242  1.8261
  397MOL0     H53552   2.010   4.114   8.842 -2.2236 -3.8130  0.0925
  397MOL0     H53553   1.981   4.071   9.114 -1.7200 -1.8139 -0.1661
  397MOL0     H53554   2.088   3.942   9.070  2.8558  4.0051  1.3861
  397MOL0     H53555   1.802   3.984   9.223 -1.8087 -1.7221  1.1552
  397MOL0     H53556   1.545   4.195   9.354 -0.9888 -0.8602  1.2640
  397MOL0     H53557   1.543   4.018   9.375  3.1738 -1.4252  1.4803
  397MOL0     H53558   1.694   4.091   9.386  0.5298  1.6982 -0.5053
  397MOL0     H53559   1.167   4.291   8.910  3.9454 -0.0344 -0.3219
  397MOL0     H53560   0.959   4.417   8.936 -0.2716  0.8884 -0.7781
  397MOL0     H53561   0.784   4.533   8.998 -1.5163  0.1722  1.0445
  397MOL0     H53562   0.809   4.474   9.164 -0.2028  0.6441  1.8850
  397MOL0     H53563   0.718   4.681   9.255 -3.7925  1.7951 -0.0114
  397MOL0     H53564   0.691   4.742   9.091 -0.6549  0.2822 -0.3640
  397MOL0     H53565   0.553   4.490   9.210 -0.4567 -0.4081  0.2233
  397MOL0     H53566   0.540   4.544   9.041 -2.6723  2.1383 -0.5421
  397MOL0     H53567   0.484   4.690   9.295  0.6086 -3.6826  0.2691
  397MOL0     H53568   0.470   4.776   9.147 -0.5841 -1.3127 -0.9472
  397MOL0     H53569   0.292   4.550   9.251 -1.4163 -2.2211 -1.0204
  397MOL0     H53570   0.322   4.558   9.083  1.0318 -1.0318  1.0637
  397MOL0     H53571   0.227   4.813   9.084  1.1025  1.1273  0.2549
  397MOL0     H53572   0.108   4.682   9.111 -0.9472  0.8308  0.8561
  397MOL0     H53573   0.250   4.865   9.312 -3.9567  2.1756  2.4932
  397MOL0     H53574   0.179   4.726   9.360 -0.5016  2.7095  1.8166
  397MOL0     H53575  -0.028   4.770   9.286  1.6903 -0.2569 -0.3336
  397MOL0     H53576   0.008   4.926   9.209  0.4448 -2.2786 -1.7587
  397MOL0     H53577   1.141   4.667   9.231 -2.2561 -0.8316  0.3417
  397MOL0     H53578   1.367   4.543   9.186  1.3023  1.6991 -3.0275
  397MOL0     H53579   1.530   4.175   8.864  1.3035 -0.2368  0.4453
  397MOL0     H53580   1.702   4.033   8.804 -1.1296  3.0482  0.0728
  397MOL0     H53581   0.939   4.524   8.673  0.2013 -1.9303 -2.0022
  397MOL0     H53582   0.804   4.658   8.836 -2.4092 -0.3240  1.6128
  397MOL0     H53583   0.626   5.243   8.764  0.2003  0.8306  0.6122
  397MOL0     H53584   0.459   5.371   8.891  0.9199  0.0442  3.3674
  397MOL0     H53585   0.083   5.202   8.981  3.6020  2.2160 -3.1218
  397MOL0     H53586   0.130   5.164   9.149 -1.1170 -0.6863 -0.3572
  397MOL0     H53587   0.090   5.401   9.210  0.0660 -2.6206  2.0726
  397MOL0     H53588  -0.050   5.327   9.136  0.0021 -2.0475 -0.3625
  397MOL0     H53589  -0.042   5.446   8.946 -0.0764 -0.3751 -0.7439
  397MOL0     H53590   0.133   5.463   8.933 -1.2102 -0.2956 -0.8555
  397MOL0     H53591   0.073   5.680   8.969  3.2471  3.0144  1.9580
  397MOL0     H53592   0.125   5.631   9.119  0.9441  1.0932 -2.0806
  397MOL0     H53593  -0.296   5.695   9.192 -0.5771 -1.1290 -0.1120
  397MOL0     H53594   0.261   5.022   9.025 -3.8387  4.0811 -1.9691
  397MOL0     H53595   0.433   4.883   8.896  2.9682  0.3695 -1.6414
  398MOL0     O53596   7.974   0.386   4.399  0.3651  0.1193  0.0702
  398MOL0     C53597   7.981   0.410   4.282  0.2163  0.7697 -0.4088
  398MOL0     O53598   8.063   0.336   4.195 -0.0440  0.6686  0.1228
  398MOL0     C53599   8.126   0.222   4.234 -0.6579 -0.1816  0.2335
  398MOL0     C53600   8.092   0.129   4.323 -0.7571  0.2061  0.0696
  398MOL0     C53601   8.155   0.008   4.332 -0.4639  0.3985 -0.2185
  398MOL0     C53602   8.263  -0.020   4.250 -0.4186 -1.0917  0.0125
  398MOL0     O53603   8.330  -0.143   4.274  0.8359 -0.7223 -0.3695
  398MOL0     C53604   8.437  -0.194   4.195 -0.1906 -0.0405  0.4602
  398MOL0     C53605   8.557  -0.227   4.284  0.1243  1.4500 -0.0407
  398MOL0     C53606   8.693  -0.261   4.213 -0.3783 -0.0531 -0.5015
  398MOL0     C53607   8.694  -0.405   4.150 -0.0031  0.2197 -0.1870
  398MOL0     C53608   8.837  -0.436   4.091  0.2455  0.1477  0.7966
  398MOL0     C53609   8.828  -0.593   4.062 -0.5103  0.2778  0.0465
  398MOL0     C53610   8.972  -0.657   4.040 -0.9044 -0.4341 -0.8700
  398MOL0     C53611   9.056  -0.576   3.944 -0.4839 -0.2106 -0.3653
  398MOL0     N53612   9.186  -0.628   3.913  0.2792 -0.0924  0.5987
  398MOL0     C53613   9.284  -0.643   3.999 -0.1146  0.4731 -1.1491
  398MOL0     C53614   9.399  -0.646   3.921 -0.6946 -0.0887 -0.9206
  398MOL0     C53615   9.545  -0.645   3.951 -1.6228 -0.5970  0.2242
  398MOL0     C53616   9.578  -0.692   4.090 -0.1044 -0.0123 -0.7799
  398MOL0     C53617   9.704  -0.627   4.149  0.2686  1.0711  0.2810
  398MOL0     C53618   9.829  -0.677   4.076 -0.2494 -0.2068  0.1509
  398MOL0     O53619   9.947  -0.665   4.159  0.3908  0.2566  0.4968
  398MOL0     C53620  10.065  -0.683   4.098 -0.1561 -0.6833  0.3886
  398MOL0     C53621  10.151  -0.771   4.161  0.3392 -0.0140  0.7957
  398MOL0     C53622  10.274  -0.799   4.114 -0.1654  0.1744 -0.3816
  398MOL0     C53623  10.363  -0.903   4.182 -0.0323 -0.3747 -0.3920
  398MOL0     C53624  10.320  -0.737   3.990 -0.8873 -0.7149  0.2081
  398MOL0     C53625  10.449  -0.758   3.923  0.9707  0.1670  0.5694
  398MOL0     O53626  10.445  -0.731   3.788 -0.3350 -0.1041 -0.0492
  398MOL0     C53627  10.556  -0.756   3.698 -0.4709 -0.7343 -0.1588
  398MOL0     C53628  10.650  -0.860   3.718  0.6456  0.0990  0.4743
  398MOL0     C53629  10.738  -0.886   3.619 -0.6252  0.2579  0.3591
  398MOL0     C53630  10.753  -0.805   3.506  0.6044 -0.0536 -0.1276
  398MOL0     O53631  10.843  -0.825   3.408 -0.9595 -0.8254  0.1632
  398MOL0     C53632  10.893  -0.955   3.378 -0.1378  0.3353 -0.3643
  398MOL0     C53633  11.016  -1.004   3.451  0.2560 -0.6277  0.0126
  398MOL0     C53634  11.132  -0.906   3.419 -0.7418 -0.3242 -0.8218
  398MOL0     C53635  11.165  -0.819   3.542 -0.6128  0.7837  0.3745
  398MOL0     C53636  11.277  -0.719   3.489  0.2548 -0.2160  1.0600
  398MOL0     C53637  11.332  -0.637   3.610  0.0510 -0.1962  0.4443
  398MOL0     C53638  11.440  -0.545   3.548 -0.3662 -0.1412  0.1564
  398MOL0     C53639  11.482  -0.436   3.651  0.1903 -0.4226  0.2078
  398MOL0    Cl53640  11.358  -0.314   3.722 -0.2162  0.1661 -0.2152
  398MOL0     C53641  10.676  -0.702   3.492  0.0933 -1.0016 -0.4553
  398MOL0     C53642  10.579  -0.674   3.586  0.4991 -0.3444  0.0694
  398MOL0     O53643  10.547  -0.793   3.986  0.3968 -0.5284  0.5976
  398MOL0     C53644  10.238  -0.632   3.936  0.1895  1.0752 -0.8075
  398MOL0     C53645  10.108  -0.614   3.985  0.2564 -0.2066 -0.2621
  398MOL0     N53646   9.360  -0.636   3.788  0.4142  0.0596 -0.5049
  398MOL0     N53647   9.233  -0.625   3.786  0.4500  0.3267 -0.4813
  398MOL0     C53648   8.319   0.082   4.174 -0.6092 -0.5044  0.5718
  398MOL0     C53649   8.250   0.204   4.169  0.1408  0.0316 -1.2580
  398MOL0     C53650   7.922   0.541   4.235  0.5075  0.0724 -1.0842
  398MOL0     C53651   7.920   0.565   4.099 -0.4025  0.2814 -0.4532
  398MOL0     C53652   7.860   0.686   4.049 -0.3860 -0.0115  0.1123
  398MOL0     C53653   7.808   0.783   4.131  1.0207  0.1996  0.4612
  398MOL0     O53654   7.744   0.903   4.101  0.6040  0.0704 -0.0367
  398MOL0     C53655   7.697   0.920   3.966  0.6818 -0.8865 -0.9214
  398MOL0     C53656   7.641   1.065   3.942 -0.6287  0.6799 -0.5174
  398MOL0     C53657   7.520   1.100   4.035  0.1717 -0.2305  0.4491
  398MOL0     C53658   7.498   1.248   4.022  0.1098 -1.0867  0.1612
  398MOL0     C53659   7.352   1.274   4.016  0.1238  0.2459  0.0208
  398MOL0     C53660   7.236   1.294   4.010  1.6019 -0.8452  0.1979
  398MOL0     C53661   7.817   0.760   4.268 -0.5448  0.6660 -0.0338
  398MOL0     C53662   7.877   0.641   4.324 -0.2104  0.0579 -0.0713
  398MOL0     H53663   7.997   0.135   4.376  0.2576  4.2335  1.8306
  398MOL0     H53664   8.100  -0.067   4.388 -2.7529  1.2533 -1.1800
  398MOL0     H53665   8.389  -0.278   4.144  1.3912 -0.8853  0.2985
  398MOL0     H53666   8.476  -0.123   4.121  0.5498 -2.8566 -2.0798
  398MOL0     H53667   8.586  -0.139   4.341 -1.3861  2.4047 -0.7012
  398MOL0     H53668   8.525  -0.307   4.352 -0.1808  1.6371  0.0365
  398MOL0     H53669   8.704  -0.186   4.134 -1.3382 -0.1626 -0.7490
  398MOL0     H53670   8.767  -0.257   4.294 -2.9045 -0.5445  2.0080
  398MOL0     H53671   8.677  -0.473   4.233  0.6264  0.6747  0.3249
  398MOL0     H53672   8.614  -0.410   4.076 -0.1735  1.8159 -0.1585
  398MOL0     H53673   8.854  -0.373   4.003 -1.8684  0.8667  0.8391
  398MOL0     H53674   8.916  -0.421   4.165 -0.1939  0.3255  1.2335
  398MOL0     H53675   8.765  -0.643   4.137 -0.6894  1.8330  0.9669
  398MOL0     H53676   8.777  -0.612   3.967 -1.0658 -0.7153  0.5193
  398MOL0     H53677   9.013  -0.644   4.140 -2.7460 -2.7891  0.2869
  398MOL0     H53678   8.961  -0.762   4.012 -1.0152 -1.1832  1.7080
  398MOL0     H53679   9.074  -0.485   4.001 -3.0143 -1.3810  2.5910
  398MOL0     H53680   9.007  -0.550   3.849 -1.2131  1.1854  0.3748
  398MOL0     H53681   9.281  -0.647   4.107  1.3513 -2.5086 -1.1096
  398MOL0     H53682   9.597  -0.716   3.887 -3.6278 -5.2315  3.1865
  398MOL0     H53683   9.574  -0.540   3.947 -0.1248 -1.0044 -0.0338
  398MOL0     H53684   9.589  -0.801   4.089 -2.9463 -0.3670 -1.7317
  398MOL0     H53685   9.498  -0.664   4.159 -0.6657 -0.2144 -1.3386
  398MOL0     H53686   9.710  -0.651   4.256  0.1370  1.6345  0.4212
  398MOL0     H53687   9.679  -0.520   4.145  0.9504  1.1898 -2.5327
  398MOL0     H53688   9.853  -0.636   3.977  1.3468  1.6775  1.2550
  398MOL0     H53689   9.816  -0.784   4.059  1.7919 -0.3522 -0.7706
  398MOL0     H53690  10.106  -0.805   4.254 -1.6056  1.6045  0.5132
  398MOL0     H53691  10.295  -0.946   4.256 -0.4627  2.2003  0.8138
  398MOL0     H53692  10.390  -0.977   4.106 -0.7343  0.8218 -1.8456
  398MOL0     H53693  10.444  -0.857   4.238 -0.4463 -1.1117  0.8637
  398MOL0     H53694  10.633  -0.926   3.803 -5.6550 -0.6470 -0.8672
  398MOL0     H53695  10.809  -0.968   3.611  0.3907  1.2927 -5.3514
  398MOL0     H53696  10.813  -1.027   3.399 -0.5209  0.0968 -2.4457
  398MOL0     H53697  10.916  -0.961   3.271 -2.5495  2.1663 -1.0875
  398MOL0     H53698  10.992  -1.020   3.557  0.2356 -0.4637  0.0330
  398MOL0     H53699  11.049  -1.101   3.412  1.2352  0.5588 -2.3027
  398MOL0     H53700  11.095  -0.832   3.347 -0.3683  1.2437  0.5614
  398MOL0     H53701  11.211  -0.967   3.375 -0.3787 -1.4345  1.2519
  398MOL0     H53702  11.074  -0.770   3.577 -1.6203 -1.7188  1.5360
  398MOL0     H53703  11.205  -0.882   3.622 -0.1640 -1.5042 -1.5243
  398MOL0     H53704  11.237  -0.651   3.413 -1.9060 -1.3401  1.1104
  398MOL0     H53705  11.358  -0.778   3.444  0.9024  1.7963 -0.5503
  398MOL0     H53706  11.245  -0.580   3.644 -0.8174  0.3681 -2.4933
  398MOL0     H53707  11.377  -0.704   3.685  1.0398 -1.0210 -0.8535
  398MOL0     H53708  11.397  -0.505   3.456  1.2193  0.7040 -0.2586
  398MOL0     H53709  11.531  -0.601   3.527  0.1020  1.0741 -1.2160
  398MOL0     H53710  11.564  -0.374   3.615 -1.7233  2.4286  0.4846
  398MOL0     H53711  11.537  -0.489   3.729 -0.2354  0.0882  0.8578
  398MOL0     H53712  10.697  -0.638   3.407  2.6964  1.0975  1.5500
  398MOL0     H53713  10.520  -0.585   3.570  3.8481  1.9524 -0.4250
  398MOL0     H53714  10.278  -0.585   3.848  0.4539 -1.6673 -2.2639
  398MOL0     H53715  10.036  -0.537   3.957 -2.0732 -1.0436  2.7947
  398MOL0     H53716   8.412   0.084   4.117 -0.2832 -1.2522  1.0662
  398MOL0     H53717   8.292   0.278   4.102 -2.4067  1.4874 -1.3570
  398MOL0     H53718   7.954   0.494   4.025 -0.1491 -0.1913  0.1170
  398MOL0     H53719   7.859   0.702   3.942  0.0501  1.2784  0.2906
  398MOL0     H53720   7.764   0.903   3.881  0.1919 -1.5758 -1.1879
  398MOL0     H53721   7.614   0.849   3.954 -1.0246 -0.0141  3.7084
  398MOL0     H53722   7.608   1.062   3.838 -1.7660  0.2735 -0.1645
  398MOL0     H53723   7.718   1.140   3.959 -1.1435  0.6689  2.3427
  398MOL0     H53724   7.552   1.084   4.139  0.9767  1.3216  0.4686
  398MOL0     H53725   7.430   1.048   4.001  0.4790  1.0381 -2.5791
  398MOL0     H53726   7.561   1.294   3.946  0.6336  1.9694  2.2613
  398MOL0     H53727   7.527   1.284   4.121  0.2610  0.4010 -0.4020
  398MOL0     H53728   7.130   1.306   4.008  1.5478 -1.4372 -1.8777
  398MOL0     H53729   7.784   0.833   4.341 -0.8306 -1.4790  2.1106
  398MOL0     H53730   7.869   0.636   4.432  1.4039  3.8360  0.3670
  399MOL0     O53731   7.172   1.687   8.973 -0.3743  0.4657 -0.1523
  399MOL0     C53732   7.150   1.760   9.068  0.1025  0.2202  0.7484
  399MOL0     O53733   7.084   1.722   9.187 -0.1610  0.6546  0.1552
  399MOL0     C53734   7.059   1.590   9.200  0.1199  0.3419  0.1188
  399MOL0     C53735   7.127   1.470   9.151  0.3052 -0.2084 -0.0080
  399MOL0     C53736   7.081   1.346   9.187 -0.0310 -0.0310  0.1750
  399MOL0     C53737   6.987   1.327   9.288 -0.0367  0.1448 -0.2084
  399MOL0     O53738   6.954   1.197   9.342 -0.3330 -0.4780 -0.1560
  399MOL0     C53739   6.947   1.181   9.478 -0.2482 -0.3421 -0.1527
  399MOL0     C53740   6.812   1.136   9.506 -0.1478  0.5606 -0.9398
  399MOL0     C53741   6.784   1.094   9.656  1.0790  0.3969  0.4998
  399MOL0     C53742   6.628   1.099   9.682 -0.5421  0.7002 -0.0351
  399MOL0     C53743   6.603   1.024   9.809  0.2063  0.8147  0.2843
  399MOL0     C53744   6.517   1.092   9.909  0.1040 -0.2792  0.0135
  399MOL0     C53745   6.379   1.125   9.879  0.6709  0.3833 -0.4953
  399MOL0     C53746   6.292   1.004   9.845  0.1947  0.2106 -0.1313
  399MOL0     N53747   6.148   1.040   9.820  0.1624  0.0076  0.6505
  399MOL0     C53748   6.100   1.067   9.690 -0.3453 -0.4512 -0.2687
  399MOL0     C53749   5.967   1.069   9.706 -1.0299 -0.3805 -0.1310
  399MOL0     C53750   5.855   1.072   9.611  0.0658 -0.5080  0.3797
  399MOL0     C53751   5.883   0.975   9.490 -0.1436 -0.3139 -0.5004
  399MOL0     C53752   5.780   0.954   9.387 -0.0310  0.0529  0.5057
  399MOL0     C53753   5.846   0.895   9.265 -0.6601  0.2701 -0.1619
  399MOL0     O53754   5.766   0.911   9.144 -0.2675 -0.5093 -0.6893
  399MOL0     C53755   5.829   0.904   9.021  0.3677  0.2626  0.3411
  399MOL0     C53756   5.758   0.957   8.919 -0.9017 -0.3946 -0.1484
  399MOL0     C53757   5.810   0.968   8.795 -0.9623 -0.6004  1.0975
  399MOL0     C53758   5.720   1.050   8.691  0.1324  0.1393  0.4590
  399MOL0     C53759   5.934   0.904   8.761  0.1130  0.7410  0.5484
  399MOL0     C53760   5.991   0.897   8.623  0.1470  0.4105  0.4314
  399MOL0     O53761   6.110   0.825   8.613 -0.1416 -0.3379  0.4419
  399MOL0     C53762   6.191   0.836   8.506  0.4675 -0.7112 -0.0164
  399MOL0     C53763   6.243   0.718   8.446  0.6188 -0.0453  0.3519
  399MOL0     C53764   6.332   0.727   8.342 -0.1676  0.3522  0.3495
  399MOL0     C53765   6.377   0.839   8.279  0.6755 -0.7296 -1.1034
  399MOL0     O53766   6.466   0.853   8.169  0.4785  0.1245  0.4372
  399MOL0     C53767   6.566   0.749   8.137  0.1504 -0.0194  0.4886
  399MOL0     C53768   6.668   0.800   8.032 -1.2175  0.2029  0.7673
  399MOL0     C53769   6.603   0.830   7.901 -0.9367  0.4056  0.4691
  399MOL0     C53770   6.587   0.982   7.885  1.1112  0.6167 -1.1580
  399MOL0     C53771   6.539   1.019   7.748 -0.3020 -0.7010  0.1841
  399MOL0     C53772   6.481   1.158   7.739 -1.0408 -0.2602 -0.7425
  399MOL0     C53773   6.415   1.182   7.599 -1.0153  1.3793 -0.0429
  399MOL0     C53774   6.406   1.329   7.556 -0.2943 -0.1335  0.8410
  399MOL0    Cl53775   6.557   1.410   7.512 -0.7571  0.2229  0.0891
  399MOL0     C53776   6.318   0.959   8.331  0.4285  0.7161  0.0714
  399MOL0     C53777   6.226   0.960   8.437 -0.3434  1.0501 -0.0206
  399MOL0     O53778   5.935   0.956   8.530  0.4920  0.0944  0.2679
  399MOL0     C53779   6.004   0.844   8.867  0.2535  0.0022  0.0782
  399MOL0     C53780   5.951   0.846   8.994  0.3370  1.3654  0.6326
  399MOL0     N53781   5.937   1.049   9.845  0.0648 -0.3528 -0.3460
  399MOL0     N53782   6.049   1.035   9.912 -0.2521 -0.3883 -0.1815
  399MOL0     C53783   6.914   1.440   9.335  0.5725  0.9264 -0.5672
  399MOL0     C53784   6.955   1.572   9.302  0.4599 -0.3765 -0.1153
  399MOL0     C53785   7.201   1.903   9.058 -0.5044 -0.1251  0.5625
  399MOL0     C53786   7.149   1.988   9.145  0.3824  0.3063 -0.4692
  399MOL0     C53787   7.191   2.121   9.158 -0.0106  0.6500  0.2777
  399MOL0     C53788   7.295   2.166   9.071  0.8294  0.1292 -0.1500
  399MOL0     O53789   7.339   2.298   9.066 -0.6142 -0.2216 -0.8343
  399MOL0     C53790   7.430   2.343   9.167  0.0141 -0.3782  0.1737
  399MOL0     C53791   7.573   2.341   9.106 -0.3757  0.1891 -0.4012
  399MOL0     C53792   7.670   2.446   9.161  1.1162  0.2015 -0.2083
  399MOL0     C53793   7.808   2.440   9.090  0.3305  0.9033 -0.2797
  399MOL0     C53794   7.922   2.469   9.181  0.7345  0.6652  0.2531
  399MOL0     C53795   8.017   2.484   9.257  0.3259  0.1555 -0.1726
  399MOL0     C53796   7.350   2.076   8.981 -0.8409 -0.7439  0.5836
  399MOL0     C53797   7.303   1.942   8.970 -0.2671 -0.4087  0.1499
  399MOL0     H53798   7.214   1.479   9.087  0.4212  0.5744  0.2507
  399MOL0     H53799   7.130   1.261   9.141 -4.2521 -0.5512 -4.1151
  399MOL0     H53800   7.022   1.105   9.503  0.4344 -0.3821 -2.1633
  399MOL0     H53801   6.970   1.269   9.538 -0.2240 -0.4618  0.0164
  399MOL0     H53802   6.749   1.225   9.493 -3.4599 -0.8646  3.0353
  399MOL0     H53803   6.782   1.064   9.430  3.5035 -0.4756 -1.5976
  399MOL0     H53804   6.815   0.990   9.673  0.8300  0.2681  0.1944
  399MOL0     H53805   6.828   1.165   9.726 -1.8958  1.2827  1.5779
  399MOL0     H53806   6.598   1.202   9.703 -1.6696  0.5136 -0.6542
  399MOL0     H53807   6.564   1.060   9.603 -2.3181 -0.0698  1.7033
  399MOL0     H53808   6.560   0.929   9.775 -5.1773  2.9867  0.0287
  399MOL0     H53809   6.700   1.008   9.857 -0.1419  0.8094  0.9885
  399MOL0     H53810   6.522   1.020   9.992  0.4425 -1.0783 -0.6835
  399MOL0     H53811   6.568   1.184   9.937  0.1538 -0.2931 -0.0309
  399MOL0     H53812   6.341   1.172   9.969  2.4885  1.7329 -0.3675
  399MOL0     H53813   6.380   1.200   9.799 -0.2329 -0.3838 -1.2560
  399MOL0     H53814   6.291   0.941   9.934 -0.1522 -2.1688 -1.7043
  399MOL0     H53815   6.343   0.964   9.756 -1.4033  0.9101 -1.4217
  399MOL0     H53816   6.156   1.046   9.600  1.1145  0.1420  0.4728
  399MOL0     H53817   5.768   1.034   9.666 -1.1118  1.7883  0.2040
  399MOL0     H53818   5.829   1.170   9.570  0.0909 -0.6145  0.1072
  399MOL0     H53819   5.927   0.879   9.518  2.0799  1.2256  1.7669
  399MOL0     H53820   5.962   1.034   9.443 -0.9819  0.1109 -1.3982
  399MOL0     H53821   5.732   1.047   9.355 -0.2836 -0.7690 -1.7576
  399MOL0     H53822   5.702   0.891   9.429 -2.1574  1.9030 -0.4759
  399MOL0     H53823   5.875   0.790   9.276 -0.8513  0.1821 -0.4705
  399MOL0     H53824   5.943   0.944   9.251  0.4148 -1.5490  0.6894
  399MOL0     H53825   5.656   0.992   8.934 -0.2275  1.5799  0.1394
  399MOL0     H53826   5.616   1.071   8.716  0.7892 -0.0901  3.8737
  399MOL0     H53827   5.759   1.152   8.677  0.9382 -0.0608  1.1631
  399MOL0     H53828   5.718   0.991   8.600 -0.3873 -1.3948  1.4325
  399MOL0     H53829   6.233   0.621   8.493 -1.5791  0.4438  1.0025
  399MOL0     H53830   6.371   0.633   8.304 -3.0547 -0.4182 -1.0340
  399MOL0     H53831   6.611   0.708   8.228  2.8870  0.3133 -0.5994
  399MOL0     H53832   6.530   0.657   8.090  3.9259 -2.0769  1.1806
  399MOL0     H53833   6.737   0.877   8.069  1.0290 -1.0426 -0.5662
  399MOL0     H53834   6.729   0.711   8.013 -0.0141  1.4352 -1.4738
  399MOL0     H53835   6.503   0.787   7.903 -1.2947  1.0147 -1.8671
  399MOL0     H53836   6.652   0.787   7.813 -0.2420  2.7056 -0.3419
  399MOL0     H53837   6.505   1.008   7.952  3.9546 -1.4751  3.6364
  399MOL0     H53838   6.680   1.023   7.924 -0.0650 -0.2543  2.9874
  399MOL0     H53839   6.459   0.950   7.719 -1.3413  0.1855  0.8593
  399MOL0     H53840   6.622   0.995   7.681  0.1825 -0.8858  0.8399
  399MOL0     H53841   6.400   1.145   7.811  0.6712 -3.2518  0.8555
  399MOL0     H53842   6.560   1.227   7.767  0.3034 -1.3094 -1.7578
  399MOL0     H53843   6.313   1.143   7.611  0.7208 -2.9412  2.6985
  399MOL0     H53844   6.467   1.130   7.518  2.0233  2.9383  0.7608
  399MOL0     H53845   6.360   1.376   7.643 -0.3050 -0.3145  0.9343
  399MOL0     H53846   6.334   1.336   7.473 -1.3730 -1.6019  1.6152
  399MOL0     H53847   6.348   1.057   8.295 -0.3070  0.8208 -0.2713
  399MOL0     H53848   6.185   1.057   8.465 -2.6140 -0.3729  2.0696
  399MOL0     H53849   6.088   0.778   8.850  0.2580 -0.0311  0.2319
  399MOL0     H53850   6.004   0.798   9.075  0.9516  2.2588  0.7853
  399MOL0     H53851   6.835   1.409   9.403  1.1790  0.6173  0.0088
  399MOL0     H53852   6.899   1.657   9.341 -0.9352 -0.7031 -1.3351
  399MOL0     H53853   7.064   1.957   9.204 -0.9382  0.9397 -1.9634
  399MOL0     H53854   7.144   2.175   9.239  0.7125 -1.4560  2.1934
  399MOL0     H53855   7.398   2.445   9.191  0.3001  0.7226 -3.5823
  399MOL0     H53856   7.422   2.279   9.256 -1.1987 -1.3141 -0.5637
  399MOL0     H53857   7.566   2.358   8.998  3.3888 -0.4412 -0.8763
  399MOL0     H53858   7.620   2.242   9.114  2.4539  1.4906  0.0872
  399MOL0     H53859   7.687   2.423   9.266 -1.4192  1.4372  0.5382
  399MOL0     H53860   7.615   2.540   9.156  0.6413  0.2084  3.0255
  399MOL0     H53861   7.793   2.503   9.002 -2.1261 -1.0322 -1.3927
  399MOL0     H53862   7.829   2.346   9.037  2.9503  2.3124 -1.9296
  399MOL0     H53863   8.092   2.497   9.332  0.7149 -3.0235  0.1103
  399MOL0     H53864   7.416   2.124   8.909 -3.5335 -0.2780 -1.7816
  399MOL0     H53865   7.342   1.872   8.896 -1.1344 -1.2180  0.4498
  400MOL0     O53866   4.995   2.689   6.773 -0.4430 -1.2757  0.2763
  400MOL0     C53867   5.051   2.584   6.807  0.0899  0.9078 -0.1118
  400MOL0     O53868   5.018   2.454   6.768  0.7557 -0.5177 -0.9486
  400MOL0     C53869   4.907   2.418   6.687  1.0244  0.3116 -0.3888
  400MOL0     C53870   4.920   2.318   6.593 -0.3387 -0.2622  0.1657
  400MOL0     C53871   4.824   2.279   6.507  0.2498  0.4898  0.6779
  400MOL0     C53872   4.698   2.345   6.506 -0.1088  1.3104  0.4681
  400MOL0     O53873   4.596   2.307   6.425 -0.1335 -0.4255  0.6376
  400MOL0     C53874   4.616   2.260   6.287 -0.5106 -0.4042  0.1185
  400MOL0     C53875   4.678   2.367   6.193 -0.1131 -0.9227  0.5934
  400MOL0     C53876   4.658   2.319   6.044 -0.7643  1.1111  0.7535
  400MOL0     C53877   4.753   2.204   5.999 -0.3477 -0.0680 -0.7761
  400MOL0     C53878   4.720   2.178   5.853 -0.1701  0.2787  0.3428
  400MOL0     C53879   4.826   2.230   5.755  0.1109 -0.0478 -0.3226
  400MOL0     C53880   4.767   2.219   5.611  0.4375 -0.5469 -0.6006
  400MOL0     C53881   4.836   2.327   5.523 -0.1938  0.5432  0.5467
  400MOL0     N53882   4.828   2.280   5.387  0.4119  0.4027  0.3680
  400MOL0     C53883   4.916   2.190   5.338 -0.3703 -0.0746  0.1085
  400MOL0     C53884   4.879   2.189   5.205  0.4780  0.2837 -0.4870
  400MOL0     C53885   4.959   2.112   5.109 -0.2714 -0.2179  0.1711
  400MOL0     C53886   4.917   1.969   5.062 -0.2706 -1.5178 -0.2715
  400MOL0     C53887   4.771   1.969   4.991 -0.4217  0.3585 -0.3007
  400MOL0     C53888   4.732   1.838   4.914  0.3688 -0.7879 -0.8171
  400MOL0     O53889   4.594   1.845   4.877 -0.4887 -1.2202  0.2237
  400MOL0     C53890   4.529   1.742   4.813  1.3445 -0.3316  0.2424
  400MOL0     C53891   4.386   1.751   4.816 -0.3431 -0.3466  0.8397
  400MOL0     C53892   4.303   1.649   4.761 -0.1198  0.3097  0.4643
  400MOL0     C53893   4.156   1.672   4.775  0.7492 -0.6590  0.5446
  400MOL0     C53894   4.356   1.524   4.707  0.2776  0.0441  1.1823
  400MOL0     C53895   4.278   1.418   4.646  0.7654  0.1722 -0.1269
  400MOL0     O53896   4.346   1.346   4.548  0.1426  0.3555 -0.7319
  400MOL0     C53897   4.301   1.217   4.515  0.2439 -0.3269 -0.8315
  400MOL0     C53898   4.221   1.210   4.405  0.5272  0.5434 -0.0509
  400MOL0     C53899   4.187   1.083   4.361 -0.1773  0.5047  1.0732
  400MOL0     C53900   4.220   0.968   4.435 -0.7634 -0.7663  0.0866
  400MOL0     O53901   4.190   0.840   4.387  0.5719 -0.1089  0.5427
  400MOL0     C53902   4.258   0.713   4.425 -0.2126  0.0092  0.3928
  400MOL0     C53903   4.170   0.614   4.498  0.8441 -0.3534  0.0039
  400MOL0     C53904   4.134   0.681   4.632  0.2751  0.0721 -0.6336
  400MOL0     C53905   4.056   0.596   4.737  0.7077  0.2813  0.6749
  400MOL0     C53906   3.908   0.587   4.681 -0.3263  0.1461  0.6852
  400MOL0     C53907   3.831   0.487   4.765 -0.1597 -0.5333 -1.1604
  400MOL0     C53908   3.686   0.476   4.705 -0.2979  0.7661  0.4678
  400MOL0     C53909   3.599   0.578   4.784 -0.1549  0.3537  0.6328
  400MOL0    Cl53910   3.438   0.604   4.722  0.2078  0.3155  0.2800
  400MOL0     C53911   4.303   0.985   4.543 -0.3802 -0.5143 -0.4224
  400MOL0     C53912   4.338   1.106   4.591 -0.6888  0.5767 -0.0911
  400MOL0     O53913   4.164   1.390   4.688  0.0701  0.3295  0.7616
  400MOL0     C53914   4.495   1.532   4.691  0.1237  0.3889  0.8598
  400MOL0     C53915   4.581   1.640   4.736 -0.2793  0.0510 -0.1020
  400MOL0     N53916   4.769   2.269   5.184 -0.1124 -0.2855  0.1763
  400MOL0     N53917   4.742   2.331   5.293 -0.1094  0.0961  0.1772
  400MOL0     C53918   4.678   2.452   6.589 -0.0711  0.5234  0.2931
  400MOL0     C53919   4.787   2.495   6.671 -0.0349 -0.2921  0.2530
  400MOL0     C53920   5.160   2.602   6.906 -0.5041  0.1460  0.3849
  400MOL0     C53921   5.138   2.673   7.022 -0.0467  0.2742 -0.7212
  400MOL0     C53922   5.245   2.690   7.110  0.6145 -0.9220  0.0867
  400MOL0     C53923   5.371   2.632   7.081  0.0250  0.8914 -0.6814
  400MOL0     O53924   5.478   2.642   7.162 -0.2292  0.4661  0.6565
  400MOL0     C53925   5.453   2.666   7.304 -0.6347  0.0833  0.0573
  400MOL0     C53926   5.449   2.817   7.341 -0.2580 -0.5656  0.1922
  400MOL0     C53927   5.429   2.845   7.493 -0.0268 -0.1225 -1.2186
  400MOL0     C53928   5.395   2.991   7.518 -0.4101 -0.3839 -0.1501
  400MOL0     C53929   5.398   3.009   7.664  0.6428  0.0510 -0.1043
  400MOL0     C53930   5.385   3.047   7.779  0.3288 -0.1271 -0.0901
  400MOL0     C53931   5.383   2.549   6.971  0.5879 -0.8856  0.7899
  400MOL0     C53932   5.275   2.531   6.880 -0.5170 -0.5084  0.0957
  400MOL0     H53933   5.017   2.269   6.602  0.5924  1.5477  0.3559
  400MOL0     H53934   4.833   2.187   6.450  2.6913  0.7805  0.4820
  400MOL0     H53935   4.668   2.165   6.277  0.3659 -0.1412  1.7265
  400MOL0     H53936   4.517   2.244   6.243 -2.5323  0.9978  3.6490
  400MOL0     H53937   4.631   2.466   6.197  0.0452 -0.8776  3.3297
  400MOL0     H53938   4.785   2.382   6.210 -0.4188  0.6020  1.3468
  400MOL0     H53939   4.557   2.283   6.025  0.0428 -1.7611  1.4923
  400MOL0     H53940   4.688   2.411   5.993  1.7995  1.2040  2.2703
  400MOL0     H53941   4.859   2.226   6.017 -0.5809  0.6793 -0.2715
  400MOL0     H53942   4.720   2.119   6.060  1.6574  0.8473  1.7359
  400MOL0     H53943   4.703   2.074   5.825 -1.1323  0.4422  0.2930
  400MOL0     H53944   4.624   2.223   5.825 -0.0431  0.0363 -0.5170
  400MOL0     H53945   4.866   2.330   5.777  0.5027  0.3710 -2.6729
  400MOL0     H53946   4.919   2.173   5.761  0.8053  0.9967 -0.8328
  400MOL0     H53947   4.787   2.115   5.582  1.7503 -0.1865 -1.0521
  400MOL0     H53948   4.659   2.236   5.600  0.5704  0.7079 -0.1357
  400MOL0     H53949   4.944   2.332   5.541  0.1369  2.7017 -1.5774
  400MOL0     H53950   4.783   2.422   5.526 -0.9815  0.2743 -2.1645
  400MOL0     H53951   4.983   2.124   5.392 -2.9902 -2.0044  1.2064
  400MOL0     H53952   4.959   2.163   5.012 -1.4361 -0.8511 -0.1839
  400MOL0     H53953   5.061   2.122   5.147  0.5215  3.3396 -2.3258
  400MOL0     H53954   4.907   1.905   5.150 -1.5400  0.8965  1.4456
  400MOL0     H53955   5.007   1.942   5.006  2.4723  2.1945  1.9638
  400MOL0     H53956   4.759   2.053   4.921  1.4452 -0.1381 -1.2896
  400MOL0     H53957   4.701   1.987   5.073  1.9703  1.3637  1.6459
  400MOL0     H53958   4.744   1.758   4.987 -1.7816  1.1981  1.9452
  400MOL0     H53959   4.798   1.832   4.827  0.0556 -2.4109 -0.9666
  400MOL0     H53960   4.339   1.838   4.860 -2.7050 -1.2517  0.2327
  400MOL0     H53961   4.109   1.660   4.677 -1.2432  0.1688  1.3239
  400MOL0     H53962   4.115   1.598   4.844  1.1088 -2.8781 -1.5011
  400MOL0     H53963   4.124   1.767   4.820  0.8747 -1.1534  1.7130
  400MOL0     H53964   4.184   1.294   4.346  0.4497 -0.7606 -1.9204
  400MOL0     H53965   4.140   1.075   4.264 -0.1642 -0.3015  1.1326
  400MOL0     H53966   4.297   0.667   4.334 -0.5377 -0.3049  0.4116
  400MOL0     H53967   4.343   0.734   4.491 -1.6597  0.7537  2.1258
  400MOL0     H53968   4.082   0.597   4.435  0.7131 -0.8012  0.3040
  400MOL0     H53969   4.222   0.520   4.518  1.6315  0.2247  0.7427
  400MOL0     H53970   4.076   0.771   4.609  2.5728  1.5043 -1.1540
  400MOL0     H53971   4.233   0.697   4.675 -0.4012 -1.5430  1.7164
  400MOL0     H53972   4.099   0.496   4.730 -2.0008 -0.8533 -1.3450
  400MOL0     H53973   4.064   0.631   4.841 -1.7567 -3.6797  2.4635
  400MOL0     H53974   3.916   0.555   4.577  0.9143  1.5299  0.3232
  400MOL0     H53975   3.858   0.683   4.692 -0.1009  0.3438  0.0129
  400MOL0     H53976   3.878   0.388   4.765  0.9963 -0.0404  1.0274
  400MOL0     H53977   3.824   0.519   4.869 -2.9723 -0.2354 -1.3757
  400MOL0     H53978   3.661   0.371   4.726  0.1898  1.0563  2.7058
  400MOL0     H53979   3.679   0.502   4.599  1.8009 -2.3257 -0.5802
  400MOL0     H53980   3.652   0.674   4.794  2.4717 -0.9349 -0.0651
  400MOL0     H53981   3.587   0.534   4.883  2.3745 -1.0692  0.3906
  400MOL0     H53982   4.336   0.908   4.612  2.0084  3.3111  3.1934
  400MOL0     H53983   4.385   1.118   4.688 -2.9115 -2.4087  1.5464
  400MOL0     H53984   4.556   1.456   4.642 -1.2870 -0.1767 -0.0914
  400MOL0     H53985   4.687   1.635   4.714 -0.6616 -2.8561 -1.9201
  400MOL0     H53986   4.574   2.479   6.602  0.6252  2.2855  3.1648
  400MOL0     H53987   4.774   2.583   6.733 -0.5623  1.1173 -1.7681
  400MOL0     H53988   5.045   2.727   7.038 -1.3102 -2.3838  2.1301
  400MOL0     H53989   5.232   2.759   7.192 -1.2810 -0.7831 -0.2670
  400MOL0     H53990   5.356   2.625   7.332 -0.3644 -0.4864  0.1886
  400MOL0     H53991   5.529   2.609   7.360  1.4897 -0.6626 -3.2803
  400MOL0     H53992   5.379   2.872   7.278  0.8873  2.3669  1.3297
  400MOL0     H53993   5.547   2.860   7.319 -0.1218 -1.4808 -1.1194
  400MOL0     H53994   5.525   2.822   7.540  1.2707  1.7805 -2.7562
  400MOL0     H53995   5.350   2.784   7.538  1.1124  0.0699  1.1772
  400MOL0     H53996   5.300   3.027   7.477 -0.8915  0.5848  1.6868
  400MOL0     H53997   5.480   3.051   7.487 -1.0743 -0.2077 -1.7105
  400MOL0     H53998   5.368   3.071   7.882 -0.7279  3.7798 -1.0068
  400MOL0     H53999   5.480   2.506   6.949  1.1954  0.6497  0.3225
  400MOL0     H54000   5.297   2.471   6.793 -0.4779 -0.9913  0.4373
  401MOL0     O54001   0.610   3.498  11.261 -0.0268  0.3508  0.3491
  401MOL0     C54002   0.596   3.604  11.193 -0.6265  0.3817  0.3602
  401MOL0     O54003   0.484   3.657  11.161  0.7488 -0.1254 -0.4642
  401MOL0     C54004   0.369   3.579  11.140 -0.7417  0.3407  0.5847
  401MOL0     C54005   0.236   3.624  11.163 -0.9238 -0.0347  0.3478
  401MOL0     C54006   0.133   3.550  11.122  0.4998 -0.7361 -0.0752
  401MOL0     C54007   0.154   3.422  11.067  0.1610  0.5148  0.1334
  401MOL0     O54008   0.040   3.338  11.048  0.3026  0.1428 -0.1772
  401MOL0     C54009  -0.061   3.375  10.951  0.4160  0.4735 -0.3291
  401MOL0     C54010  -0.195   3.302  10.992  0.1513 -0.4528 -0.1668
  401MOL0     C54011  -0.301   3.310  10.879 -0.4552  0.1039  0.8681
  401MOL0     C54012  -0.432   3.264  10.923  1.1100  0.2126 -1.0237
  401MOL0     C54013  -0.547   3.279  10.825 -0.3312 -0.2789  1.1138
  401MOL0     C54014  -0.624   3.422  10.821 -0.0984  0.8248  0.5076
  401MOL0     C54015  -0.538   3.546  10.816 -0.1456 -0.1519  0.3960
  401MOL0     C54016  -0.613   3.677  10.822 -1.1642 -0.1474  0.1572
  401MOL0     N54017  -0.688   3.701  10.701 -0.7242 -0.1348 -0.3183
  401MOL0     C54018  -0.823   3.661  10.693 -0.4154  0.1284 -0.2277
  401MOL0     C54019  -0.842   3.677  10.558 -0.1771 -0.1381 -0.1394
  401MOL0     C54020  -0.958   3.645  10.474  0.3202 -0.0922  0.5121
  401MOL0     C54021  -1.026   3.777  10.429 -0.6457 -0.6276 -0.0998
  401MOL0     C54022  -1.143   3.729  10.338  0.6623 -0.3193 -0.4707
  401MOL0     C54023  -1.132   3.612  10.244  1.2509  0.2951  0.7025
  401MOL0     O54024  -1.254   3.612  10.164 -0.8161  0.2365 -0.8997
  401MOL0     C54025  -1.276   3.515  10.070 -0.3779 -0.9250 -0.3781
  401MOL0     C54026  -1.194   3.402  10.041  0.1354 -0.1339  0.4573
  401MOL0     C54027  -1.232   3.292   9.956  0.0106 -0.0473  0.2424
  401MOL0     C54028  -1.127   3.183   9.920 -0.7973 -0.1345  0.3409
  401MOL0     C54029  -1.362   3.288   9.900 -0.1015 -0.7468  0.4491
  401MOL0     C54030  -1.418   3.188   9.809  0.7858 -0.6200 -0.6289
  401MOL0     O54031  -1.539   3.214   9.757  0.3620 -0.4227 -0.4107
  401MOL0     C54032  -1.584   3.162   9.640  0.1291 -0.2789  0.7977
  401MOL0     C54033  -1.719   3.166   9.604 -0.4162  0.0848 -0.0911
  401MOL0     C54034  -1.755   3.120   9.478 -0.1090 -1.1459 -1.2994
  401MOL0     C54035  -1.669   3.062   9.388  0.0896  0.4248  0.4810
  401MOL0     O54036  -1.713   3.035   9.264 -0.4711 -0.1692 -0.4629
  401MOL0     C54037  -1.615   3.011   9.162  0.0675  0.9800 -0.2869
  401MOL0     C54038  -1.677   3.061   9.033  0.2426 -1.1004  0.4200
  401MOL0     C54039  -1.759   2.945   8.980 -0.1144 -0.8560  0.6467
  401MOL0     C54040  -1.837   2.972   8.855 -0.3898  0.1180  0.4077
  401MOL0     C54041  -1.963   2.887   8.847  0.5908 -1.0195  0.2509
  401MOL0     C54042  -2.035   2.887   8.713  0.3210  0.6069  1.3954
  401MOL0     C54043  -2.164   2.786   8.723  0.3653 -0.2227  0.4355
  401MOL0     C54044  -2.223   2.766   8.576  0.0705  0.4475 -0.7277
  401MOL0    Cl54045  -2.176   2.608   8.497  0.3590  0.3301  0.1082
  401MOL0     C54046  -1.538   3.032   9.434 -0.8638 -0.1229 -0.3395
  401MOL0     C54047  -1.492   3.108   9.548  0.2947  0.4921  1.4055
  401MOL0     O54048  -1.359   3.080   9.794  0.0760 -0.1204 -0.5931
  401MOL0     C54049  -1.439   3.400   9.926  0.2529 -0.9188 -0.7542
  401MOL0     C54050  -1.401   3.510  10.008 -0.0333  0.2607  0.0151
  401MOL0     N54051  -0.726   3.726  10.494 -0.0821  0.1501 -0.5415
  401MOL0     N54052  -0.630   3.733  10.587  0.7195  0.0825 -0.0053
  401MOL0     C54053   0.281   3.381  11.034  0.3928 -0.2409  0.5272
  401MOL0     C54054   0.389   3.452  11.071  0.4906 -0.5973  0.8997
  401MOL0     C54055   0.717   3.682  11.185  0.1430 -0.1956  0.0372
  401MOL0     C54056   0.841   3.625  11.155 -0.2318 -0.3277 -0.4874
  401MOL0     C54057   0.951   3.700  11.131 -0.2116  0.3399 -0.6252
  401MOL0     C54058   0.948   3.834  11.128  0.7416 -0.3094 -0.1806
  401MOL0     O54059   1.059   3.897  11.085  0.5972  0.0479  0.5701
  401MOL0     C54060   1.050   4.042  11.069 -0.4277 -0.1121 -0.2088
  401MOL0     C54061   1.176   4.092  11.000 -0.3251  0.2970  0.7868
  401MOL0     C54062   1.193   4.058  10.851 -0.4618  0.3257 -0.4776
  401MOL0     C54063   1.331   4.094  10.813 -0.1602 -1.1097  0.2101
  401MOL0     C54064   1.361   4.064  10.671 -0.0998 -0.8327 -0.0384
  401MOL0     C54065   1.385   4.054  10.554 -0.3454 -0.2987 -0.4008
  401MOL0     C54066   0.824   3.898  11.167  0.4024 -0.0965 -0.3509
  401MOL0     C54067   0.711   3.817  11.193  0.3573 -1.0693 -0.8438
  401MOL0     H54068   0.218   3.717  11.216  3.5486  1.4710 -0.2747
  401MOL0     H54069   0.029   3.574  11.142  0.5364 -0.8560  0.2590
  401MOL0     H54070  -0.092   3.479  10.956  0.9527  0.6727 -1.0189
  401MOL0     H54071  -0.015   3.347  10.856 -2.1323 -3.2206 -0.6839
  401MOL0     H54072  -0.173   3.203  11.032 -1.6513  0.2652  2.8821
  401MOL0     H54073  -0.230   3.356  11.080  0.4157 -0.9404  0.2371
  401MOL0     H54074  -0.304   3.414  10.844 -1.5459  0.4537  1.9151
  401MOL0     H54075  -0.256   3.255  10.796 -0.1633  1.0290  0.4061
  401MOL0     H54076  -0.435   3.161  10.959 -1.0743 -0.0118 -1.6799
  401MOL0     H54077  -0.473   3.322  11.007 -3.2313  1.4446 -3.6721
  401MOL0     H54078  -0.516   3.256  10.723  1.8630 -0.1580  1.7118
  401MOL0     H54079  -0.623   3.204  10.850 -0.6907  0.4320  2.2197
  401MOL0     H54080  -0.701   3.432  10.744  1.1917  1.6508 -0.7416
  401MOL0     H54081  -0.677   3.427  10.916  0.9808 -1.5282  1.2887
  401MOL0     H54082  -0.477   3.538  10.907 -1.7721  2.7585  1.8798
  401MOL0     H54083  -0.474   3.534  10.728  0.8258 -1.5366  1.2399
  401MOL0     H54084  -0.542   3.759  10.832 -1.2773 -0.0718  0.3416
  401MOL0     H54085  -0.675   3.681  10.912  0.0430 -3.3668  1.2661
  401MOL0     H54086  -0.891   3.618  10.766 -1.0446 -2.1930 -2.0496
  401MOL0     H54087  -0.919   3.583  10.393  1.7934 -0.0795  1.1832
  401MOL0     H54088  -1.037   3.590  10.525 -0.3620  0.8384  0.4887
  401MOL0     H54089  -0.966   3.849  10.372 -0.0408  0.1167  1.4163
  401MOL0     H54090  -1.060   3.829  10.518  1.4807 -3.0416  2.3060
  401MOL0     H54091  -1.166   3.817  10.278 -1.3233 -0.6635 -0.2614
  401MOL0     H54092  -1.219   3.707  10.414  2.2261 -0.9384  0.9967
  401MOL0     H54093  -1.135   3.511  10.286 -0.3993 -0.8254 -1.9067
  401MOL0     H54094  -1.041   3.620  10.184  0.6867  0.3444 -0.1499
  401MOL0     H54095  -1.091   3.402  10.076  1.0049  1.2013 -1.8315
  401MOL0     H54096  -1.159   3.086   9.958 -2.5063  0.1762 -0.2234
  401MOL0     H54097  -1.129   3.180   9.811 -0.9530  0.6499  0.3151
  401MOL0     H54098  -1.028   3.214   9.956 -0.2142  0.3108 -1.5226
  401MOL0     H54099  -1.795   3.226   9.654  1.8225  2.2065  0.9816
  401MOL0     H54100  -1.862   3.131   9.466 -0.2247 -1.0133 -0.2572
  401MOL0     H54101  -1.523   3.066   9.182  0.1884  1.4895 -2.1137
  401MOL0     H54102  -1.601   2.903   9.155  0.3454  1.0439 -0.7116
  401MOL0     H54103  -1.724   3.158   9.048  2.2948  0.1988 -0.9686
  401MOL0     H54104  -1.594   3.061   8.961 -1.7667 -0.5216 -2.0316
  401MOL0     H54105  -1.827   2.904   9.055 -0.0806  0.9985  1.7540
  401MOL0     H54106  -1.692   2.863   8.955  1.9121  2.0996 -5.5413
  401MOL0     H54107  -1.867   3.077   8.862 -4.7228 -1.0619  4.2961
  401MOL0     H54108  -1.778   2.957   8.764 -1.4333  1.1248 -0.4622
  401MOL0     H54109  -2.035   2.920   8.923  1.3818  1.1927  0.1202
  401MOL0     H54110  -1.934   2.782   8.859 -3.0727 -2.1671  0.2141
  401MOL0     H54111  -2.074   2.989   8.703 -1.0690  0.3409  3.6060
  401MOL0     H54112  -1.966   2.849   8.636 -0.8231  0.0562  0.6254
  401MOL0     H54113  -2.239   2.829   8.790  0.0369  0.4620 -0.3601
  401MOL0     H54114  -2.146   2.681   8.748 -3.0548 -1.0761 -0.2840
  401MOL0     H54115  -2.206   2.855   8.514  0.0946  1.7431  1.0444
  401MOL0     H54116  -2.331   2.765   8.597  0.1877  0.7601 -0.0836
  401MOL0     H54117  -1.463   2.982   9.372  1.8149 -1.9873  3.9224
  401MOL0     H54118  -1.385   3.110   9.564  0.1668  0.8814  2.2479
  401MOL0     H54119  -1.540   3.408   9.889  0.9451  0.9837 -2.4497
  401MOL0     H54120  -1.472   3.588  10.035 -0.2995  0.7201 -1.8980
  401MOL0     H54121   0.287   3.288  10.979 -0.1513  0.0811 -0.0878
  401MOL0     H54122   0.484   3.412  11.037  0.1943 -0.0999 -0.5717
  401MOL0     H54123   0.847   3.518  11.166 -2.2116 -0.5550 -1.2726
  401MOL0     H54124   1.049   3.660  11.107  0.0582  1.8501 -2.3181
  401MOL0     H54125   0.957   4.075  11.022 -1.0402  1.3823  1.9145
  401MOL0     H54126   1.053   4.083  11.170 -0.0644 -1.0570  0.1717
  401MOL0     H54127   1.258   4.050  11.059 -0.3236 -1.9567 -0.6871
  401MOL0     H54128   1.179   4.200  11.015 -0.4726  0.1639  1.8966
  401MOL0     H54129   1.120   4.122  10.800  0.4375  1.3794 -0.4731
  401MOL0     H54130   1.171   3.954  10.827 -0.6167  0.1576  0.3673
  401MOL0     H54131   1.403   4.049  10.882 -1.8303 -0.1793  2.6788
  401MOL0     H54132   1.350   4.200  10.831 -0.3302 -1.3040  1.6471
  401MOL0     H54133   1.411   4.038  10.451  1.6396 -1.0225  0.1712
  401MOL0     H54134   0.799   4.003  11.174 -0.6604 -0.4191  1.2968
  401MOL0     H54135   0.618   3.865  11.219  1.3503  1.7753 -2.0694
  402MOL0     O54136   8.887   4.558   0.520  0.1064 -0.4300 -0.8213
  402MOL0     C54137   8.776   4.553   0.577  0.4087  1.3627  0.3165
  402MOL0     O54138   8.658   4.509   0.520 -0.1042 -0.4737 -0.0079
  402MOL0     C54139   8.668   4.458   0.396  0.2105  0.6051 -0.2615
  402MOL0     C54140   8.650   4.317   0.373  0.5647 -0.5055 -0.9590
  402MOL0     C54141   8.639   4.257   0.246 -0.1863  0.4070  0.0147
  402MOL0     C54142   8.650   4.345   0.134  0.8566 -0.2609 -0.7126
  402MOL0     O54143   8.635   4.292   0.012  0.3311  0.7916  0.0788
  402MOL0     C54144   8.747   4.307  -0.077  0.9225 -0.5486 -0.1435
  402MOL0     C54145   8.738   4.187  -0.170 -0.7120 -0.1359  0.2420
  402MOL0     C54146   8.618   4.193  -0.261  1.0777 -0.0206  0.1093
  402MOL0     C54147   8.613   4.080  -0.354 -0.1719 -0.5526 -0.1556
  402MOL0     C54148   8.505   4.125  -0.461 -0.2236  0.3415  0.8624
  402MOL0     C54149   8.470   4.033  -0.578  0.0162  0.6250 -0.3965
  402MOL0     C54150   8.456   4.112  -0.711  0.2126  0.5012 -1.4059
  402MOL0     C54151   8.328   4.199  -0.719 -0.0008  0.2473 -0.2939
  402MOL0     N54152   8.222   4.150  -0.806  0.9305  0.6935  0.1865
  402MOL0     C54153   8.098   4.097  -0.768 -0.3790  0.0183 -0.5097
  402MOL0     C54154   8.046   4.052  -0.878  1.2263  0.2815  0.5905
  402MOL0     C54155   7.927   3.974  -0.904  0.1767  0.1293  0.2860
  402MOL0     C54156   7.816   4.065  -0.945 -0.5037  0.1698  0.0871
  402MOL0     C54157   7.749   4.157  -0.849 -0.0336 -0.2017 -0.0378
  402MOL0     C54158   7.683   4.082  -0.731 -0.3664  1.1098  0.1979
  402MOL0     O54159   7.604   4.181  -0.671  0.3761  0.6701 -0.2102
  402MOL0     C54160   7.532   4.146  -0.554  1.2404  0.6139  0.0326
  402MOL0     C54161   7.494   4.248  -0.463  0.1934 -0.4606 -1.1697
  402MOL0     C54162   7.420   4.217  -0.344  0.7033 -0.0477 -0.1746
  402MOL0     C54163   7.391   4.319  -0.246  0.4494 -0.1213  0.2334
  402MOL0     C54164   7.387   4.082  -0.315 -0.9597 -0.2727 -0.0627
  402MOL0     C54165   7.316   4.031  -0.191  0.6275 -0.4425  1.6575
  402MOL0     O54166   7.239   4.121  -0.117 -0.2991  0.5589  0.1897
  402MOL0     C54167   7.187   4.088   0.002 -0.7192  0.2746  0.1193
  402MOL0     C54168   7.251   4.014   0.102 -0.2623 -0.0120 -0.1631
  402MOL0     C54169   7.186   3.974   0.218  0.0592  0.2086  0.5870
  402MOL0     C54170   7.052   4.009   0.238 -0.5115  0.8151 -0.3543
  402MOL0     O54171   6.978   3.981   0.351 -0.2974  0.0332  0.3213
  402MOL0     C54172   6.970   3.844   0.401 -0.7293  0.8072  0.0331
  402MOL0     C54173   6.907   3.831   0.541 -0.2369  0.3184  0.6284
  402MOL0     C54174   6.872   3.688   0.592 -0.4654 -0.1678  0.4400
  402MOL0     C54175   6.795   3.707   0.721  0.0076 -0.8784  0.1734
  402MOL0     C54176   6.879   3.742   0.840  0.4271  0.5017 -0.3892
  402MOL0     C54177   6.785   3.746   0.966 -1.0475 -0.9668  0.1906
  402MOL0     C54178   6.863   3.782   1.090 -0.1233  0.0438 -1.0655
  402MOL0     C54179   6.919   3.922   1.074  0.3730  0.4366 -0.6524
  402MOL0    Cl54180   7.032   3.937   1.213  0.4136 -0.3802  0.1492
  402MOL0     C54181   6.992   4.093   0.144  0.1426  0.6168  0.3714
  402MOL0     C54182   7.054   4.129   0.026  1.3007 -0.1215 -0.1146
  402MOL0     O54183   7.325   3.911  -0.175 -0.1118  0.1281 -0.0238
  402MOL0     C54184   7.424   3.982  -0.407  1.1747  0.3336  0.3960
  402MOL0     C54185   7.488   4.009  -0.527 -0.2317  0.6619  0.2197
  402MOL0     N54186   8.136   4.083  -0.982  0.0958  0.1469 -0.0863
  402MOL0     N54187   8.234   4.144  -0.939 -0.1231 -0.4033  1.2332
  402MOL0     C54188   8.679   4.485   0.159 -0.7415  0.0015  0.2651
  402MOL0     C54189   8.692   4.537   0.285  1.0339  0.0654 -0.0809
  402MOL0     C54190   8.765   4.600   0.718  0.1420 -0.6466  0.4962
  402MOL0     C54191   8.870   4.648   0.788 -0.5430 -0.7235  0.1297
  402MOL0     C54192   8.874   4.671   0.928 -0.6116 -0.4359  0.1548
  402MOL0     C54193   8.754   4.647   0.999 -1.5686 -0.3406  0.5904
  402MOL0     O54194   8.744   4.666   1.132  0.4741 -0.0832 -0.1710
  402MOL0     C54195   8.864   4.700   1.201 -0.3076 -0.0998 -1.3120
  402MOL0     C54196   8.820   4.725   1.344  0.7186 -0.2735  0.2218
  402MOL0     C54197   8.751   4.588   1.388 -0.1912 -0.0293  0.5944
  402MOL0     C54198   8.687   4.600   1.523 -0.3357 -0.2407 -0.2231
  402MOL0     C54199   8.781   4.609   1.633  0.1552 -0.2170 -0.2751
  402MOL0     C54200   8.862   4.602   1.731 -0.5065 -0.5768  0.6354
  402MOL0     C54201   8.639   4.598   0.932 -0.2735 -0.2856 -0.0075
  402MOL0     C54202   8.648   4.580   0.791  0.8411  0.6991 -0.5721
  402MOL0     H54203   8.618   4.251   0.453 -5.5318  0.8583 -1.7709
  402MOL0     H54204   8.635   4.149   0.237 -1.4387  0.4874 -0.6201
  402MOL0     H54205   8.736   4.403  -0.128 -1.1454  0.1829  1.5390
  402MOL0     H54206   8.847   4.308  -0.035  1.2974 -0.2131 -1.0201
  402MOL0     H54207   8.832   4.169  -0.223  0.0984 -3.6876  2.5758
  402MOL0     H54208   8.732   4.103  -0.101 -0.8360  0.6203  1.1737
  402MOL0     H54209   8.527   4.204  -0.202 -0.0160 -1.1291 -1.3119
  402MOL0     H54210   8.632   4.281  -0.324  2.0816 -0.3727 -0.1753
  402MOL0     H54211   8.714   4.065  -0.395 -1.0817  0.3830 -2.9957
  402MOL0     H54212   8.585   3.989  -0.300 -1.6386  0.9486  1.7593
  402MOL0     H54213   8.408   4.135  -0.410 -0.0127  2.6940  0.9384
  402MOL0     H54214   8.535   4.216  -0.513  0.5355 -0.3616  0.0492
  402MOL0     H54215   8.551   3.959  -0.591 -2.6667 -2.3538 -1.4963
  402MOL0     H54216   8.382   3.973  -0.556  1.1823 -1.5022 -1.1826
  402MOL0     H54217   8.541   4.179  -0.726  2.4116 -1.7378  0.2043
  402MOL0     H54218   8.455   4.041  -0.794 -2.1498 -0.2219 -0.8540
  402MOL0     H54219   8.365   4.291  -0.766  2.9881 -1.1451 -0.9341
  402MOL0     H54220   8.288   4.231  -0.623 -2.4608  3.6452 -2.2160
  402MOL0     H54221   8.069   4.088  -0.663  0.3334 -1.0406 -0.3895
  402MOL0     H54222   7.949   3.905  -0.986  1.0302 -0.7042  1.1921
  402MOL0     H54223   7.902   3.918  -0.813  1.2629  0.5598  0.8690
  402MOL0     H54224   7.738   4.004  -0.990 -1.3945  0.5016  1.1391
  402MOL0     H54225   7.865   4.128  -1.020  2.1534 -0.2734  1.3253
  402MOL0     H54226   7.668   4.209  -0.901  1.0576 -0.3233 -1.9543
  402MOL0     H54227   7.823   4.229  -0.813  0.5129 -0.8299  0.1048
  402MOL0     H54228   7.753   4.042  -0.657  0.3382  0.5970 -0.7203
  402MOL0     H54229   7.624   4.002  -0.778  1.0033  0.5602 -0.6470
  402MOL0     H54230   7.508   4.353  -0.485 -1.4630 -0.2621 -1.4297
  402MOL0     H54231   7.282   4.332  -0.248  0.5190  0.5127 -2.8308
  402MOL0     H54232   7.444   4.286  -0.156  0.4421  0.4115  0.4367
  402MOL0     H54233   7.436   4.417  -0.262 -0.1331 -0.0984 -1.3565
  402MOL0     H54234   7.353   3.977   0.099 -1.1151 -2.7601  1.0772
  402MOL0     H54235   7.234   3.906   0.287  2.7776 -0.5416 -1.8312
  402MOL0     H54236   6.898   3.794   0.335 -2.9693  0.4894  2.5285
  402MOL0     H54237   7.054   3.775   0.394 -0.0243  1.6747 -0.2786
  402MOL0     H54238   6.986   3.863   0.609  1.0660  0.5550 -0.9367
  402MOL0     H54239   6.827   3.905   0.552 -0.5442  0.5303 -2.1945
  402MOL0     H54240   6.961   3.626   0.603 -0.2222 -1.0391 -4.1974
  402MOL0     H54241   6.804   3.631   0.528 -0.9579 -3.0418  3.2816
  402MOL0     H54242   6.714   3.781   0.711  0.2665 -0.5877  0.2096
  402MOL0     H54243   6.738   3.615   0.737 -0.9654 -0.4800 -0.8721
  402MOL0     H54244   6.938   3.831   0.814 -0.5037  0.9750 -0.9131
  402MOL0     H54245   6.945   3.657   0.861 -1.0197 -0.7087 -0.6060
  402MOL0     H54246   6.696   3.809   0.955  1.1652  2.9554  2.1672
  402MOL0     H54247   6.747   3.646   0.987  0.6358 -1.6694  0.0466
  402MOL0     H54248   6.924   3.697   1.122 -0.7277  0.3726  1.0924
  402MOL0     H54249   6.795   3.783   1.176 -0.7301  0.2968 -1.5409
  402MOL0     H54250   6.840   3.998   1.085 -0.4927 -0.5852  0.6050
  402MOL0     H54251   6.985   3.944   0.990  0.1598  1.4283 -0.5804
  402MOL0     H54252   6.892   4.126   0.173  0.0602 -0.3209  1.2351
  402MOL0     H54253   7.009   4.192  -0.050 -1.9837 -1.4392  0.5666
  402MOL0     H54254   7.401   3.877  -0.394  1.2784  0.2361 -0.1746
  402MOL0     H54255   7.514   3.924  -0.590  0.2714 -1.1795  2.7454
  402MOL0     H54256   8.685   4.539   0.065  1.6395 -1.2929 -0.4231
  402MOL0     H54257   8.721   4.640   0.301  0.9547  0.1274 -0.3454
  402MOL0     H54258   8.955   4.668   0.724  0.2880 -4.2672 -0.1205
  402MOL0     H54259   8.961   4.704   0.983 -0.6992 -2.2060  1.4309
  402MOL0     H54260   8.941   4.623   1.208 -0.2544 -0.1439 -2.2552
  402MOL0     H54261   8.914   4.789   1.163  2.7744 -0.4258  1.5370
  402MOL0     H54262   8.760   4.815   1.360 -2.8299 -2.7508  2.2251
  402MOL0     H54263   8.906   4.735   1.411  1.5437 -0.9650 -0.6988
  402MOL0     H54264   8.836   4.520   1.403 -0.0172  0.0868  0.1409
  402MOL0     H54265   8.683   4.535   1.322 -0.5732 -1.0008  1.7200
  402MOL0     H54266   8.627   4.510   1.540 -0.5910  0.2904  1.9988
  402MOL0     H54267   8.623   4.689   1.527 -1.1951 -0.9017  2.1781
  402MOL0     H54268   8.945   4.619   1.797 -0.0084 -2.4171  0.5296
  402MOL0     H54269   8.547   4.580   0.986 -0.3785 -4.3664 -1.1720
  402MOL0     H54270   8.568   4.542   0.728  2.6829 -0.2432 -2.4999
  403MOL0     O54271   8.114   2.818  10.921 -0.3439 -0.3273  0.0657
  403MOL0     C54272   8.064   2.712  10.924 -0.4503 -0.3403 -0.4918
  403MOL0     O54273   8.034   2.637  10.816  0.3889 -0.3028 -1.0788
  403MOL0     C54274   8.107   2.649  10.701  0.4781 -0.4311 -0.0150
  403MOL0     C54275   8.042   2.652  10.581 -0.8158 -0.2949  0.8286
  403MOL0     C54276   8.104   2.685  10.462  0.6833  0.9425  0.5435
  403MOL0     C54277   8.242   2.684  10.462 -0.6138 -1.0145  0.2375
  403MOL0     O54278   8.301   2.682  10.335 -0.6982 -0.4468  0.8310
  403MOL0     C54279   8.441   2.646  10.319 -0.4545  0.1220  0.5910
  403MOL0     C54280   8.461   2.615  10.168  0.6965 -0.0264 -0.1534
  403MOL0     C54281   8.384   2.495  10.106 -0.0967 -0.1779 -0.2101
  403MOL0     C54282   8.382   2.509   9.945  0.6112 -1.1275  1.1901
  403MOL0     C54283   8.261   2.579   9.887 -0.2661  0.6700 -0.9071
  403MOL0     C54284   8.121   2.514   9.897 -1.1448 -0.9411  0.0146
  403MOL0     C54285   8.075   2.435   9.773  1.1379  0.0657 -0.1105
  403MOL0     C54286   8.160   2.313   9.752 -0.0602  0.1769  0.5242
  403MOL0     N54287   8.099   2.244   9.643 -0.5652  0.5377  0.3981
  403MOL0     C54288   8.143   2.226   9.511  0.9822 -0.4264  0.4543
  403MOL0     C54289   8.044   2.145   9.454  0.3345 -0.2327 -0.0893
  403MOL0     C54290   8.027   2.100   9.319 -0.9197  0.3685 -0.3705
  403MOL0     C54291   7.884   2.059   9.297  0.2685 -0.0211 -0.9747
  403MOL0     C54292   7.854   1.997   9.154  0.5784 -0.6702 -0.9241
  403MOL0     C54293   7.947   1.890   9.105 -0.7326  0.3628  0.0676
  403MOL0     O54294   7.947   1.785   9.199  0.1458 -0.9170  0.2112
  403MOL0     C54295   7.851   1.685   9.184  0.2283  0.1472  0.0919
  403MOL0     C54296   7.811   1.634   9.055  0.5788 -0.3823  0.6267
  403MOL0     C54297   7.714   1.532   9.040 -0.0974 -0.0935  0.4520
  403MOL0     C54298   7.659   1.495   8.905 -1.1481 -0.4757 -0.2671
  403MOL0     C54299   7.656   1.480   9.157 -0.2466 -0.8296  0.6000
  403MOL0     C54300   7.555   1.368   9.161  0.5998 -1.1994 -0.3548
  403MOL0     O54301   7.557   1.280   9.263 -0.2561 -0.4325 -0.2631
  403MOL0     C54302   7.475   1.171   9.262 -0.3788 -0.5799  0.4517
  403MOL0     C54303   7.416   1.131   9.384 -0.2778  0.1466 -0.4188
  403MOL0     C54304   7.321   1.023   9.393  0.2694 -0.4263 -0.1618
  403MOL0     C54305   7.281   0.954   9.275  0.4135  0.4644 -0.2833
  403MOL0     O54306   7.199   0.845   9.288  0.0270 -0.2207 -0.2380
  403MOL0     C54307   7.092   0.844   9.200  0.2355  0.6409 -0.0540
  403MOL0     C54308   6.988   0.739   9.239 -0.6815 -0.5230 -0.2453
  403MOL0     C54309   6.891   0.796   9.336 -0.0046  1.0157  0.4107
  403MOL0     C54310   6.788   0.689   9.388  0.1506  0.0060  0.1049
  403MOL0     C54311   6.687   0.770   9.475 -0.5366  0.3825  0.0615
  403MOL0     C54312   6.598   0.667   9.542  0.1472  0.3654  0.0819
  403MOL0     C54313   6.460   0.726   9.599  0.3538  0.0400  0.1853
  403MOL0     C54314   6.331   0.660   9.539 -0.7725 -0.6090  0.2637
  403MOL0    Cl54315   6.191   0.759   9.585  0.2598 -0.1734 -0.3140
  403MOL0     C54316   7.348   0.986   9.149 -1.0971 -0.5051 -0.6431
  403MOL0     C54317   7.433   1.097   9.144  0.4185 -0.1990  0.7397
  403MOL0     O54318   7.460   1.384   9.086 -0.6590  0.1235  0.0138
  403MOL0     C54319   7.692   1.530   9.282  1.0847  0.6820 -0.3354
  403MOL0     C54320   7.775   1.637   9.289  0.0893  0.7876 -1.1333
  403MOL0     N54321   7.954   2.112   9.554 -0.1341 -0.5837 -0.2378
  403MOL0     N54322   7.996   2.158   9.665  0.1016  0.2584  0.9505
  403MOL0     C54323   8.317   2.682  10.581  0.7931  0.0367 -0.2124
  403MOL0     C54324   8.250   2.663  10.705  0.6601 -0.4192  0.1757
  403MOL0     C54325   8.038   2.670  11.056 -0.4766  0.9763 -0.1382
  403MOL0     C54326   7.996   2.537  11.068  0.8700  0.1650 -0.4217
  403MOL0     C54327   7.959   2.500  11.198 -0.3235  0.0560 -1.5100
  403MOL0     C54328   7.996   2.569  11.316  1.2049  0.4077  0.2120
  403MOL0     O54329   7.969   2.500  11.434 -0.2082  0.7062 -1.0797
  403MOL0     C54330   8.005   2.554  11.566 -0.2712 -0.3512 -0.0068
  403MOL0     C54331   7.948   2.452  11.661 -1.0018 -0.3175 -0.1072
  403MOL0     C54332   7.795   2.421  11.664  0.0948 -0.1319 -0.2177
  403MOL0     C54333   7.751   2.352  11.529  0.6075 -0.8801  0.0862
  403MOL0     C54334   7.607   2.320  11.529 -0.6563 -0.1518 -0.2054
  403MOL0     C54335   7.510   2.254  11.536  1.0242  1.1667  0.5102
  403MOL0     C54336   8.053   2.692  11.293 -0.4111  0.5281 -0.8488
  403MOL0     C54337   8.072   2.749  11.168 -0.3709 -0.2876  0.2183
  403MOL0     H54338   7.936   2.628  10.580 -1.0707  0.6410 -1.6756
  403MOL0     H54339   8.054   2.702  10.367 -0.1385 -0.0954  0.7761
  403MOL0     H54340   8.516   2.725  10.329  0.3003 -0.8728  4.7216
  403MOL0     H54341   8.468   2.552  10.367  1.1353 -1.1502 -2.5001
  403MOL0     H54342   8.434   2.710  10.119  0.2387 -0.7950 -1.4339
  403MOL0     H54343   8.567   2.598  10.148  1.6035  3.3187  1.1607
  403MOL0     H54344   8.448   2.408  10.123 -0.0558 -0.3367 -1.1311
  403MOL0     H54345   8.290   2.486  10.160  0.2493  1.3834  0.7093
  403MOL0     H54346   8.471   2.564   9.913  0.8024 -2.7410 -1.3275
  403MOL0     H54347   8.389   2.420   9.881  0.4704 -1.5271  1.7140
  403MOL0     H54348   8.263   2.679   9.931  2.0748  0.4705 -0.3937
  403MOL0     H54349   8.287   2.592   9.781 -5.2051  0.9158 -2.3319
  403MOL0     H54350   8.108   2.457   9.990  0.1964 -0.3948  0.5519
  403MOL0     H54351   8.052   2.598   9.908  0.0227 -0.0892  1.0272
  403MOL0     H54352   7.967   2.417   9.777  1.1640  0.0153  0.6686
  403MOL0     H54353   8.076   2.496   9.682 -0.0883 -3.5803 -2.8269
  403MOL0     H54354   8.170   2.245   9.837  2.8199 -1.1238 -0.7380
  403MOL0     H54355   8.258   2.343   9.715 -0.0187 -0.7697 -0.1443
  403MOL0     H54356   8.222   2.278   9.457 -0.4956  2.7570  1.1354
  403MOL0     H54357   8.043   2.186   9.253 -1.4154 -1.4197 -2.9555
  403MOL0     H54358   8.098   2.020   9.297  1.1748  2.2547 -0.8161
  403MOL0     H54359   7.833   2.155   9.303  1.0810  0.4036 -0.8279
  403MOL0     H54360   7.843   1.989   9.370  0.0860  0.1884 -0.8755
  403MOL0     H54361   7.864   2.086   9.091  2.2704  0.3586  0.7072
  403MOL0     H54362   7.750   1.962   9.154 -0.0875  1.1574 -0.1070
  403MOL0     H54363   8.051   1.922   9.092  0.0241 -0.0274  3.7916
  403MOL0     H54364   7.921   1.862   9.003  2.8989 -3.0420 -0.1723
  403MOL0     H54365   7.869   1.666   8.969  2.5432 -1.5945  1.4164
  403MOL0     H54366   7.738   1.498   8.830 -0.5200 -1.6643  0.2992
  403MOL0     H54367   7.612   1.396   8.907 -1.8888 -0.1437  2.3861
  403MOL0     H54368   7.577   1.562   8.879 -1.1084 -0.9167 -1.5620
  403MOL0     H54369   7.441   1.203   9.462  1.1138  0.9052 -1.5078
  403MOL0     H54370   7.285   0.998   9.493  0.0472 -2.2592 -0.6641
  403MOL0     H54371   7.033   0.936   9.203 -1.8585 -0.6747  0.3718
  403MOL0     H54372   7.122   0.839   9.094 -0.0957  1.3578 -0.1880
  403MOL0     H54373   6.923   0.716   9.154 -0.8824  2.0964 -0.8717
  403MOL0     H54374   7.045   0.650   9.269  1.8818  1.5374  1.4820
  403MOL0     H54375   6.840   0.877   9.283 -0.8710  2.4439  3.2242
  403MOL0     H54376   6.930   0.856   9.418 -0.8673  0.8161  0.9869
  403MOL0     H54377   6.750   0.638   9.299  2.2330 -0.4696 -0.5781
  403MOL0     H54378   6.838   0.609   9.443  0.9627 -0.1132 -0.7729
  403MOL0     H54379   6.633   0.850   9.423 -0.6694  0.3268  0.1127
  403MOL0     H54380   6.741   0.828   9.551  0.2847  0.2740 -0.4302
  403MOL0     H54381   6.569   0.586   9.474 -0.9754 -0.4997  1.5383
  403MOL0     H54382   6.643   0.621   9.630  1.0302  1.8726  0.4651
  403MOL0     H54383   6.450   0.827   9.558 -0.3114 -1.0841 -2.6604
  403MOL0     H54384   6.454   0.722   9.708 -0.7382  2.0479  0.2427
  403MOL0     H54385   6.322   0.558   9.578  1.9970 -0.5937  1.0935
  403MOL0     H54386   6.334   0.646   9.431  4.6053 -0.2653  0.1227
  403MOL0     H54387   7.333   0.932   9.056  0.6303  0.2149 -1.3835
  403MOL0     H54388   7.467   1.141   9.051  0.2061 -1.4769  0.0308
  403MOL0     H54389   7.667   1.484   9.377  2.1572 -1.1359 -0.8652
  403MOL0     H54390   7.790   1.698   9.377  0.4064  2.1195 -2.0664
  403MOL0     H54391   8.425   2.684  10.572  0.8206 -2.1998 -1.0407
  403MOL0     H54392   8.311   2.666  10.795 -0.2571  0.8254  0.7773
  403MOL0     H54393   7.965   2.476  10.984  2.3677 -2.6678  0.9742
  403MOL0     H54394   7.911   2.407  11.227 -1.5992  2.3467  5.6437
  403MOL0     H54395   8.111   2.576  11.577  0.0370 -1.8368  0.1540
  403MOL0     H54396   7.950   2.645  11.594  0.0920 -0.1024 -0.0942
  403MOL0     H54397   7.977   2.465  11.766 -1.2313 -2.2046  0.2264
  403MOL0     H54398   8.015   2.368  11.637  2.1272  1.7567  0.6845
  403MOL0     H54399   7.748   2.519  11.678  0.5835  0.4438 -2.2869
  403MOL0     H54400   7.771   2.356  11.749 -2.3247  1.0408  0.1031
  403MOL0     H54401   7.810   2.263  11.506  1.9764 -0.1754  0.7423
  403MOL0     H54402   7.765   2.422  11.446 -1.1415  1.0974  1.3595
  403MOL0     H54403   7.418   2.202  11.553  1.4953 -0.3640 -1.2204
  403MOL0     H54404   8.078   2.746  11.384 -1.7242  0.8963 -0.6978
  403MOL0     H54405   8.111   2.850  11.153 -1.2423  0.2088  1.2058
  404MOL0     O54406   6.327   8.880   2.946 -0.7616 -0.2064  0.7381
  404MOL0     C54407   6.238   8.797   2.907 -0.4615 -0.4510 -0.4737
  404MOL0     O54408   6.224   8.748   2.778  1.1513 -0.3947 -0.3358
  404MOL0     C54409   6.333   8.765   2.700  0.5612 -0.4204 -1.1186
  404MOL0     C54410   6.337   8.862   2.607 -0.6489 -0.6139  0.8688
  404MOL0     C54411   6.452   8.897   2.534  0.6503  0.5971  0.3250
  404MOL0     C54412   6.554   8.800   2.530 -0.3131  0.6163  0.4493
  404MOL0     O54413   6.672   8.811   2.451 -0.9454 -0.1304  0.1657
  404MOL0     C54414   6.708   8.938   2.423 -0.5826 -0.7355  0.2078
  404MOL0     C54415   6.852   8.928   2.372  0.6866 -0.1142  0.3469
  404MOL0     C54416   6.843   8.860   2.238  0.0048 -0.4944  0.5221
  404MOL0     C54417   6.974   8.813   2.177  0.2215  0.5638 -0.6798
  404MOL0     C54418   6.951   8.694   2.081 -0.3946 -0.6208 -0.2822
  404MOL0     C54419   7.068   8.652   1.996  0.3596 -0.7787  0.5872
  404MOL0     C54420   7.090   8.756   1.885  0.1227  0.5291  0.8084
  404MOL0     C54421   7.218   8.709   1.812  0.0259 -1.0511 -0.1784
  404MOL0     N54422   7.297   8.815   1.736  0.4746 -0.5222  0.3631
  404MOL0     C54423   7.427   8.805   1.680 -0.0080 -0.3396 -0.4806
  404MOL0     C54424   7.456   8.927   1.611  0.2322  0.6652 -0.9170
  404MOL0     C54425   7.587   8.980   1.553  1.0044 -0.3508 -0.3477
  404MOL0     C54426   7.579   9.018   1.410 -0.3488  0.2695  0.1099
  404MOL0     C54427   7.720   9.055   1.357  0.0703  0.1062 -1.3997
  404MOL0     C54428   7.725   9.046   1.205 -0.8090 -0.1795  0.3136
  404MOL0     O54429   7.734   8.915   1.146  0.1456  0.1802 -0.0225
  404MOL0     C54430   7.840   8.899   1.060  0.5221  0.2252 -0.3483
  404MOL0     C54431   7.819   8.876   0.929  0.1330 -0.7530  0.3366
  404MOL0     C54432   7.923   8.832   0.845  0.3787 -0.2171  0.7679
  404MOL0     C54433   7.880   8.785   0.708  0.1016 -0.8707  0.2143
  404MOL0     C54434   8.049   8.814   0.903 -0.4726  0.0275  0.4921
  404MOL0     C54435   8.166   8.741   0.836 -0.4518 -0.0294  0.5116
  404MOL0     O54436   8.293   8.791   0.866  0.5155 -0.2798 -0.4240
  404MOL0     C54437   8.398   8.710   0.896  0.0312 -0.0510 -0.3927
  404MOL0     C54438   8.398   8.590   0.978  0.0571  0.4834  0.6978
  404MOL0     C54439   8.515   8.520   1.000 -0.3946 -0.0944 -0.7970
  404MOL0     C54440   8.637   8.569   0.962  0.4898 -0.4644 -0.2930
  404MOL0     O54441   8.760   8.515   0.995  0.5012  0.3782  0.8099
  404MOL0     C54442   8.769   8.390   1.066  0.0745  0.3934  0.4713
  404MOL0     C54443   8.768   8.405   1.217  0.2880  0.0187 -0.1235
  404MOL0     C54444   8.882   8.499   1.254 -1.1267 -0.1540 -0.5677
  404MOL0     C54445   8.878   8.540   1.401 -0.3302  0.0539 -0.2864
  404MOL0     C54446   8.792   8.672   1.408  0.3331  0.0876  0.2495
  404MOL0     C54447   8.768   8.719   1.550  0.5687 -0.1690 -0.7843
  404MOL0     C54448   8.700   8.619   1.643  0.2350  0.5366 -0.2775
  404MOL0     C54449   8.668   8.665   1.783 -0.4602 -0.3057  1.1182
  404MOL0    Cl54450   8.522   8.763   1.775  0.2106  0.3527  0.2125
  404MOL0     C54451   8.637   8.696   0.897 -0.2616 -0.3654 -0.3947
  404MOL0     C54452   8.521   8.767   0.861  0.1250 -0.0440 -0.1501
  404MOL0     O54453   8.146   8.633   0.791  0.0324  0.1804  0.2466
  404MOL0     C54454   8.078   8.849   1.041  0.0913 -0.4659  0.9443
  404MOL0     C54455   7.970   8.892   1.114  0.6907  0.3230 -0.5316
  404MOL0     N54456   7.336   9.004   1.614  0.4721  0.1365 -0.3169
  404MOL0     N54457   7.248   8.933   1.683 -0.4527 -0.0673 -0.5316
  404MOL0     C54458   6.546   8.689   2.616  0.5599 -1.0292 -1.2065
  404MOL0     C54459   6.432   8.672   2.701  0.7541  0.0059 -0.5385
  404MOL0     C54460   6.145   8.738   2.998 -0.0096  0.2674 -0.6696
  404MOL0     C54461   6.179   8.733   3.132 -0.5718  0.1725  0.3901
  404MOL0     C54462   6.105   8.659   3.228  0.9449 -0.0905 -0.8468
  404MOL0     C54463   5.987   8.590   3.196  0.3837 -0.1306  0.3077
  404MOL0     O54464   5.918   8.504   3.274  0.7102  0.0367 -0.4397
  404MOL0     C54465   5.900   8.551   3.411  0.4609 -0.0930 -0.9118
  404MOL0     C54466   5.741   8.563   3.420  0.0159  0.8228  0.2077
  404MOL0     C54467   5.673   8.423   3.433 -0.4259  0.2447  0.2119
  404MOL0     C54468   5.516   8.428   3.421  0.6382 -0.1803  0.0810
  404MOL0     C54469   5.466   8.543   3.505 -0.4369  0.1826  0.5509
  404MOL0     C54470   5.408   8.640   3.552  0.3393 -0.2340  0.0516
  404MOL0     C54471   5.951   8.605   3.064  0.6958  0.3768 -0.2945
  404MOL0     C54472   6.025   8.671   2.963  0.4404  0.8925  0.0915
  404MOL0     H54473   6.246   8.919   2.588 -1.2779 -1.2823  1.7737
  404MOL0     H54474   6.455   8.992   2.481  0.8235 -0.0910 -0.9124
  404MOL0     H54475   6.648   8.976   2.340  1.5486  0.2277 -0.9794
  404MOL0     H54476   6.712   9.000   2.513 -0.4554  0.2208 -0.4390
  404MOL0     H54477   6.888   9.031   2.382  2.1771 -0.5471 -0.2289
  404MOL0     H54478   6.906   8.871   2.448  2.0110 -0.2086 -0.6234
  404MOL0     H54479   6.792   8.764   2.253  0.4358 -1.0594 -1.4073
  404MOL0     H54480   6.786   8.922   2.169 -2.2297 -0.6836  2.1077
  404MOL0     H54481   7.025   8.894   2.124  1.1843  0.1981 -0.3451
  404MOL0     H54482   7.055   8.771   2.238  2.5989  2.1584 -2.5513
  404MOL0     H54483   6.908   8.612   2.139  2.6343 -1.7956  0.4915
  404MOL0     H54484   6.879   8.735   2.010 -0.3463 -2.6392 -1.5616
  404MOL0     H54485   7.160   8.661   2.053  1.0484  1.4774 -0.7485
  404MOL0     H54486   7.056   8.551   1.957 -0.2008 -0.1669 -0.9196
  404MOL0     H54487   7.003   8.768   1.820 -0.1866  2.7611  1.5597
  404MOL0     H54488   7.105   8.853   1.933 -0.3777  1.5722 -1.0413
  404MOL0     H54489   7.190   8.633   1.739 -1.4207  0.9651 -1.8299
  404MOL0     H54490   7.283   8.660   1.885  1.4666  0.8878 -0.1108
  404MOL0     H54491   7.494   8.724   1.704  0.8452  0.6260  0.5410
  404MOL0     H54492   7.613   9.076   1.599 -4.3755  2.8195 -2.8820
  404MOL0     H54493   7.665   8.909   1.579  1.3894 -0.1562 -0.9535
  404MOL0     H54494   7.509   9.102   1.398 -2.4268 -1.2997  0.6781
  404MOL0     H54495   7.535   8.935   1.355 -0.1358 -0.2189  0.6679
  404MOL0     H54496   7.800   8.989   1.390  0.9743  0.1133 -3.4441
  404MOL0     H54497   7.750   9.157   1.380  1.9121 -1.0494  1.9684
  404MOL0     H54498   7.797   9.119   1.167 -2.5994  2.7597  2.1199
  404MOL0     H54499   7.633   9.090   1.165  0.4036  2.1509 -0.1113
  404MOL0     H54500   7.720   8.875   0.885  1.0676 -0.9487 -1.9209
  404MOL0     H54501   7.772   8.793   0.699  0.3047  0.0469 -2.7149
  404MOL0     H54502   7.920   8.850   0.629  0.7944 -1.0297  0.4209
  404MOL0     H54503   7.911   8.684   0.681 -0.9333 -1.1633  0.0878
  404MOL0     H54504   8.296   8.557   0.999 -0.0780  1.0413  0.9330
  404MOL0     H54505   8.497   8.422   1.044  0.4005 -0.8954 -2.1746
  404MOL0     H54506   8.687   8.322   1.039 -1.1883  1.7989  0.6227
  404MOL0     H54507   8.865   8.353   1.028 -1.1990 -0.2044 -2.4398
  404MOL0     H54508   8.670   8.444   1.245 -0.7265  0.1425 -3.4169
  404MOL0     H54509   8.793   8.304   1.251  1.9479 -0.1763 -1.7463
  404MOL0     H54510   8.884   8.587   1.188 -0.6718 -0.6663 -1.2536
  404MOL0     H54511   8.981   8.465   1.222  0.5026  2.6089  1.0181
  404MOL0     H54512   8.854   8.454   1.464 -0.9410 -1.3375 -2.3475
  404MOL0     H54513   8.979   8.574   1.428 -0.2269  1.2977 -2.1108
  404MOL0     H54514   8.696   8.656   1.360 -1.6069 -1.2734  4.1462
  404MOL0     H54515   8.845   8.747   1.349 -0.3700  0.4883  0.1217
  404MOL0     H54516   8.865   8.755   1.587 -0.0509 -1.5891  2.5907
  404MOL0     H54517   8.699   8.804   1.548 -0.0330 -0.6634 -1.4409
  404MOL0     H54518   8.753   8.523   1.641  1.3446  1.1398 -1.7042
  404MOL0     H54519   8.608   8.588   1.593  0.5433 -0.3869 -0.2915
  404MOL0     H54520   8.753   8.728   1.809 -0.6581  1.0097 -1.1514
  404MOL0     H54521   8.649   8.583   1.854  1.4696  0.9603  3.2594
  404MOL0     H54522   8.734   8.742   0.878 -1.4754  2.5219 -0.0363
  404MOL0     H54523   8.530   8.864   0.814  1.3931 -0.3187 -0.5264
  404MOL0     H54524   8.168   8.821   1.096 -0.6100 -1.5033  1.6052
  404MOL0     H54525   7.985   8.905   1.221 -0.8746 -0.2908 -0.2109
  404MOL0     H54526   6.633   8.624   2.620  0.5064 -1.0381  0.3901
  404MOL0     H54527   6.423   8.588   2.769 -1.1656 -1.2899 -2.2966
  404MOL0     H54528   6.277   8.773   3.156  0.1462 -1.0761 -0.3464
  404MOL0     H54529   6.148   8.632   3.323  2.8412 -1.0600 -1.9104
  404MOL0     H54530   5.957   8.491   3.482 -1.5278 -0.6028  0.3447
  404MOL0     H54531   5.937   8.653   3.419 -0.3408  0.0957  0.8135
  404MOL0     H54532   5.720   8.618   3.327  2.2083  0.6033 -0.4980
  404MOL0     H54533   5.716   8.623   3.508  0.4991 -0.6554  1.3903
  404MOL0     H54534   5.697   8.389   3.534  1.9688 -0.0106 -0.3880
  404MOL0     H54535   5.708   8.344   3.366 -0.6961 -0.4656  0.8935
  404MOL0     H54536   5.477   8.335   3.462  2.3558 -0.5852  0.8760
  404MOL0     H54537   5.482   8.432   3.317  0.6180  0.7494  0.1128
  404MOL0     H54538   5.349   8.723   3.587  1.6023 -1.3441  5.8163
  404MOL0     H54539   5.870   8.547   3.021  0.0288  2.5665 -2.1951
  404MOL0     H54540   5.984   8.674   2.863  2.8755 -0.0947 -0.9824
  405MOL0     O54541   5.018   3.238   4.011  0.7267 -0.1093  0.3025
  405MOL0     C54542   5.094   3.306   4.080 -0.0328 -0.3093  0.0604
  405MOL0     O54543   5.125   3.281   4.207  0.3586 -0.9880  0.0498
  405MOL0     C54544   5.045   3.201   4.284  0.0630  0.2572 -0.1308
  405MOL0     C54545   5.098   3.114   4.377  0.8621  0.4625  0.0276
  405MOL0     C54546   5.019   3.033   4.460 -0.0428 -0.2508 -0.7989
  405MOL0     C54547   4.877   3.035   4.453  0.3272 -0.0609 -0.8952
  405MOL0     O54548   4.787   2.965   4.536 -0.3382  0.0787 -0.0419
  405MOL0     C54549   4.830   2.829   4.529 -0.4753 -0.1850 -0.3989
  405MOL0     C54550   4.707   2.746   4.561  0.6264 -0.5363  0.0440
  405MOL0     C54551   4.610   2.774   4.440  0.0698 -1.2313 -0.5309
  405MOL0     C54552   4.504   2.671   4.401 -0.2258 -0.4428  0.3533
  405MOL0     C54553   4.425   2.719   4.270 -0.5000  0.5400  0.1790
  405MOL0     C54554   4.504   2.722   4.140  0.5702 -0.5060 -0.4883
  405MOL0     C54555   4.406   2.740   4.027  0.3602 -0.6091  1.0242
  405MOL0     C54556   4.340   2.891   4.020 -1.6636  0.5396 -0.0357
  405MOL0     N54557   4.245   2.903   3.905 -1.0310  0.8283 -0.4184
  405MOL0     C54558   4.119   2.863   3.914  0.0059  0.5551  0.3379
  405MOL0     C54559   4.077   2.852   3.782 -0.3627  0.0178 -0.1633
  405MOL0     C54560   3.940   2.812   3.756  0.5400  0.3582 -0.1127
  405MOL0     C54561   3.895   2.874   3.620 -0.3445  0.9889 -0.5938
  405MOL0     C54562   3.754   2.857   3.585  0.0098  0.6175  0.1154
  405MOL0     C54563   3.720   2.926   3.449  0.4139 -0.1963  0.0441
  405MOL0     O54564   3.764   2.837   3.351 -0.4169 -0.5267 -0.0647
  405MOL0     C54565   3.796   2.881   3.227  0.6962  0.0142 -0.0014
  405MOL0     C54566   3.857   2.795   3.142 -0.2475  0.4085 -0.3128
  405MOL0     C54567   3.882   2.828   3.009 -0.2166  0.0156 -0.0097
  405MOL0     C54568   3.938   2.711   2.930 -0.7090  0.2781  0.8100
  405MOL0     C54569   3.855   2.961   2.955 -0.0660 -0.5612  0.2237
  405MOL0     C54570   3.880   2.996   2.811  0.0995  0.2066  0.2197
  405MOL0     O54571   3.922   3.129   2.789 -0.2456  0.6608 -0.2908
  405MOL0     C54572   3.991   3.155   2.669  0.3254 -0.1572  0.7392
  405MOL0     C54573   3.938   3.150   2.537 -0.1843 -1.2532  0.4410
  405MOL0     C54574   4.012   3.183   2.420 -0.0419  0.4635  0.1792
  405MOL0     C54575   4.145   3.230   2.434  1.0889  0.0871  0.0094
  405MOL0     O54576   4.236   3.267   2.338  0.6184  0.1029 -0.4459
  405MOL0     C54577   4.195   3.300   2.208  0.3165  0.4948 -0.6809
  405MOL0     C54578   4.309   3.290   2.113  0.2811 -0.2149 -0.2813
  405MOL0     C54579   4.261   3.319   1.965  0.0717  0.5538  0.1025
  405MOL0     C54580   4.333   3.214   1.865 -0.2446 -0.0772 -0.9683
  405MOL0     C54581   4.276   3.237   1.709 -0.8915 -0.1052 -1.5291
  405MOL0     C54582   4.326   3.123   1.613  0.2572  0.9334 -0.3504
  405MOL0     C54583   4.280   3.153   1.467  0.4441  0.2163  0.1343
  405MOL0     C54584   4.370   3.101   1.363  0.2213  0.2290 -0.1118
  405MOL0    Cl54585   4.508   3.198   1.369 -0.2074  0.0676  0.1183
  405MOL0     C54586   4.199   3.245   2.555  0.4585 -0.0620  0.1369
  405MOL0     C54587   4.133   3.199   2.673 -0.1552  0.8746  0.3108
  405MOL0     O54588   3.867   2.911   2.719 -0.5812 -0.1787 -0.1339
  405MOL0     C54589   3.791   3.052   3.039 -0.1577  1.6227  0.2420
  405MOL0     C54590   3.755   3.008   3.169 -0.6839  0.4515 -0.6152
  405MOL0     N54591   4.181   2.883   3.699  0.4881  0.9395  0.0475
  405MOL0     N54592   4.278   2.913   3.775  1.0739  0.5537 -0.8004
  405MOL0     C54593   4.829   3.123   4.366 -0.1109  0.0384  0.6504
  405MOL0     C54594   4.901   3.214   4.286 -0.3804  0.8216 -0.2521
  405MOL0     C54595   5.168   3.420   4.021  0.4417  0.8332  0.4713
  405MOL0     C54596   5.233   3.507   4.102 -0.7441 -0.7790 -0.5784
  405MOL0     C54597   5.292   3.622   4.054  0.5656  0.2905  0.9146
  405MOL0     C54598   5.306   3.648   3.924  1.3340 -0.1639  0.2607
  405MOL0     O54599   5.369   3.759   3.883 -0.0163  0.1564 -0.7087
  405MOL0     C54600   5.404   3.769   3.745  0.5394  1.1101  0.4415
  405MOL0     C54601   5.510   3.873   3.721  1.2160  0.4982 -0.4407
  405MOL0     C54602   5.437   4.006   3.727 -0.3446  0.7400  0.1338
  405MOL0     C54603   5.538   4.117   3.729 -0.3962  0.0162  0.6172
  405MOL0     C54604   5.458   4.237   3.698  0.2498 -1.2044  0.6145
  405MOL0     C54605   5.390   4.341   3.682 -0.0922 -0.2220  0.3325
  405MOL0     C54606   5.230   3.563   3.839 -0.0186 -0.6581 -0.6042
  405MOL0     C54607   5.155   3.454   3.886  0.1106 -0.4961 -0.1918
  405MOL0     H54608   5.206   3.112   4.386  0.9197  1.5407 -0.2959
  405MOL0     H54609   5.067   2.965   4.529 -1.1642  0.8831  1.1962
  405MOL0     H54610   4.878   2.803   4.435  0.1975  0.5395 -0.2643
  405MOL0     H54611   4.901   2.802   4.608 -0.0674  0.2017 -0.6235
  405MOL0     H54612   4.743   2.643   4.566  1.6555 -0.5013 -3.7918
  405MOL0     H54613   4.668   2.771   4.660 -1.2136  0.4909 -0.8831
  405MOL0     H54614   4.552   2.864   4.460  1.1216 -0.7133  0.3063
  405MOL0     H54615   4.660   2.798   4.346 -1.7111  1.4661 -0.8976
  405MOL0     H54616   4.547   2.580   4.358  0.7101  0.4659 -0.7284
  405MOL0     H54617   4.441   2.648   4.487 -0.6148 -0.4087  0.0829
  405MOL0     H54618   4.337   2.654   4.264  1.6508 -2.5137  0.0370
  405MOL0     H54619   4.382   2.819   4.286 -1.9009  0.3701 -2.0086
  405MOL0     H54620   4.567   2.811   4.125 -1.0969  0.3452 -3.0557
  405MOL0     H54621   4.566   2.633   4.141  0.8507 -0.3790 -2.5392
  405MOL0     H54622   4.441   2.709   3.928 -2.0815 -2.4842  0.6575
  405MOL0     H54623   4.327   2.668   4.049 -1.3240  0.7881 -0.1940
  405MOL0     H54624   4.412   2.971   4.036  0.4629 -1.6209  1.9531
  405MOL0     H54625   4.289   2.900   4.116 -0.3377 -3.3193  1.1965
  405MOL0     H54626   4.068   2.871   4.009  2.3505  0.0140  1.7329
  405MOL0     H54627   3.929   2.704   3.753 -1.3267  0.4996 -3.4371
  405MOL0     H54628   3.878   2.840   3.843 -0.8393 -0.5795 -0.7577
  405MOL0     H54629   3.958   2.817   3.551  0.5516 -0.2432  1.1805
  405MOL0     H54630   3.917   2.981   3.630 -2.1222  1.2754  0.7541
  405MOL0     H54631   3.690   2.898   3.664  1.0980  2.2733  0.1931
  405MOL0     H54632   3.718   2.754   3.591 -3.0062  1.5718  0.2442
  405MOL0     H54633   3.766   3.025   3.444 -1.7772  0.8497 -0.9478
  405MOL0     H54634   3.612   2.939   3.436  0.2803  1.1930  2.0056
  405MOL0     H54635   3.880   2.695   3.178  1.4561  1.2804  1.1664
  405MOL0     H54636   3.952   2.622   2.991  0.0022 -1.9949 -2.3997
  405MOL0     H54637   3.889   2.686   2.835  1.1456  0.2685 -0.2103
  405MOL0     H54638   4.030   2.739   2.876 -1.8497  2.9911  0.1036
  405MOL0     H54639   3.832   3.136   2.521  0.0186 -0.4251 -2.0189
  405MOL0     H54640   3.970   3.165   2.321 -0.3463 -0.7256  0.5127
  405MOL0     H54641   4.118   3.228   2.178  0.0125 -0.1200  1.4029
  405MOL0     H54642   4.150   3.399   2.196  0.5686  0.4381 -2.3059
  405MOL0     H54643   4.386   3.361   2.144  0.8381 -1.2888  0.9152
  405MOL0     H54644   4.349   3.189   2.121 -1.7342 -1.0574 -0.2989
  405MOL0     H54645   4.287   3.421   1.935  1.2470  0.0329 -0.7193
  405MOL0     H54646   4.152   3.308   1.966  0.2281 -1.2102  0.6737
  405MOL0     H54647   4.438   3.244   1.858 -0.5500  1.0436 -0.8665
  405MOL0     H54648   4.321   3.109   1.895  0.9669  0.1995  0.6926
  405MOL0     H54649   4.305   3.333   1.666 -2.0004  1.1116  0.2643
  405MOL0     H54650   4.167   3.241   1.715 -0.8936 -1.7659  1.6459
  405MOL0     H54651   4.435   3.126   1.617  0.3997  1.4571 -2.9355
  405MOL0     H54652   4.303   3.019   1.638 -0.0862  0.7584 -1.3475
  405MOL0     H54653   4.271   3.262   1.467 -3.2308  0.0681  2.5739
  405MOL0     H54654   4.177   3.120   1.458 -0.5830  3.5175 -2.7807
  405MOL0     H54655   4.318   3.093   1.267 -1.2859  0.0252  0.6807
  405MOL0     H54656   4.409   3.003   1.393  0.0959  0.6035  1.3596
  405MOL0     H54657   4.301   3.282   2.566  0.6558 -0.9741  1.6550
  405MOL0     H54658   4.181   3.201   2.770  0.7900 -3.3090  0.1077
  405MOL0     H54659   3.780   3.151   2.997  1.5455  1.5931 -0.3303
  405MOL0     H54660   3.695   3.075   3.230  2.5436  0.1629  3.2969
  405MOL0     H54661   4.721   3.122   4.372 -0.4333  3.3231 -1.8271
  405MOL0     H54662   4.854   3.301   4.241 -3.3578  0.0677  1.1332
  405MOL0     H54663   5.223   3.497   4.210  2.1486  3.4440  0.3418
  405MOL0     H54664   5.331   3.704   4.113 -0.7989  1.9513 -0.4065
  405MOL0     H54665   5.437   3.675   3.700 -0.6164  1.3032 -0.8619
  405MOL0     H54666   5.311   3.798   3.697  0.0986 -2.5158 -1.2339
  405MOL0     H54667   5.572   3.865   3.631  0.1461  2.1082 -1.3743
  405MOL0     H54668   5.578   3.874   3.806  2.9163  1.0260 -1.7335
  405MOL0     H54669   5.371   4.012   3.814 -0.1666 -2.3813  0.5985
  405MOL0     H54670   5.381   4.013   3.634 -0.6314  2.4297  0.4169
  405MOL0     H54671   5.608   4.101   3.646  1.6920  0.6568  2.1809
  405MOL0     H54672   5.580   4.139   3.827 -2.8569 -1.0030  1.9933
  405MOL0     H54673   5.350   4.439   3.667  4.1018  1.6309 -0.3205
  405MOL0     H54674   5.228   3.580   3.732  3.7901 -1.1565 -0.8630
  405MOL0     H54675   5.096   3.391   3.820 -1.0456 -1.2802  1.5018
  406MOL0     O54676  10.724  10.477   5.769 -0.5690 -0.1140  0.0091
  406MOL0     C54677  10.801  10.475   5.675  0.0601 -0.2908 -1.0740
  406MOL0     O54678  10.764  10.481   5.548  0.0705  0.6021  0.3434
  406MOL0     C54679  10.637  10.453   5.525  0.6852 -1.2652  0.3125
  406MOL0     C54680  10.545  10.558   5.515  0.6479 -0.1691 -0.2859
  406MOL0     C54681  10.400  10.540   5.507 -0.0294  0.6759 -0.2037
  406MOL0     C54682  10.356  10.410   5.495  0.5721  0.5576  0.8003
  406MOL0     O54683  10.222  10.370   5.482 -0.0474 -0.4003 -0.1878
  406MOL0     C54684  10.181  10.401   5.348 -0.8008 -0.2754 -0.4545
  406MOL0     C54685  10.035  10.437   5.364 -0.9564 -0.7885  0.1767
  406MOL0     C54686   9.932  10.324   5.376 -0.0539 -0.8185 -0.0769
  406MOL0     C54687   9.795  10.367   5.386 -0.0766 -0.5516  0.4862
  406MOL0     C54688   9.681  10.259   5.403 -0.1483  0.3145  1.0008
  406MOL0     C54689   9.557  10.339   5.423 -0.1652  0.2767 -0.7616
  406MOL0     C54690   9.447  10.260   5.352 -0.1342 -0.0488  0.2796
  406MOL0     C54691   9.308  10.317   5.373 -0.9453  0.5212  0.3806
  406MOL0     N54692   9.291  10.447   5.322  0.4138  0.0805 -0.0510
  406MOL0     C54693   9.256  10.555   5.398  0.0425 -0.3826  0.2635
  406MOL0     C54694   9.218  10.648   5.310  0.8418 -0.4047  1.2154
  406MOL0     C54695   9.164  10.787   5.339 -0.2352  0.5364  0.5040
  406MOL0     C54696   9.230  10.836   5.463 -0.4546  0.3090  0.1894
  406MOL0     C54697   9.177  10.973   5.496 -0.8991  0.5042 -0.4056
  406MOL0     C54698   9.205  11.079   5.391  0.2099  0.4250  0.5698
  406MOL0     O54699   9.344  11.114   5.408 -0.0024 -0.1952  0.6195
  406MOL0     C54700   9.381  11.232   5.359  0.9469  0.2212 -0.7525
  406MOL0     C54701   9.293  11.321   5.288 -0.1059  0.0303 -0.3565
  406MOL0     C54702   9.349  11.451   5.242  0.2042  0.1172 -0.6042
  406MOL0     C54703   9.265  11.534   5.156  0.4173  0.0554 -0.9506
  406MOL0     C54704   9.467  11.494   5.301  0.7639 -0.4383  0.8824
  406MOL0     C54705   9.512  11.640   5.298  0.3507  0.3429  0.0094
  406MOL0     O54706   9.424  11.737   5.249 -0.2945 -0.2878 -0.0163
  406MOL0     C54707   9.456  11.872   5.245  0.7523 -0.3917 -0.3064
  406MOL0     C54708   9.575  11.930   5.221  0.0311  0.6881  1.3161
  406MOL0     C54709   9.609  12.064   5.231  0.5436 -0.1450 -0.1071
  406MOL0     C54710   9.496  12.141   5.259  0.5213 -0.2212 -0.0096
  406MOL0     O54711   9.490  12.277   5.278 -0.2540  0.5997 -0.3784
  406MOL0     C54712   9.592  12.326   5.365  0.3456  0.1254  0.2164
  406MOL0     C54713   9.525  12.436   5.446  0.4404  0.2681 -0.4326
  406MOL0     C54714   9.443  12.385   5.558 -0.3929 -0.6747  0.6258
  406MOL0     C54715   9.489  12.458   5.687  0.6925  0.7887  0.1265
  406MOL0     C54716   9.450  12.367   5.801  0.0842  0.3855 -0.4987
  406MOL0     C54717   9.301  12.351   5.826 -0.8298 -0.1663 -0.3482
  406MOL0     C54718   9.225  12.480   5.860 -0.6005  0.3338 -0.1052
  406MOL0     C54719   9.076  12.454   5.892 -0.4370  0.0428  0.4861
  406MOL0    Cl54720   9.050  12.398   6.052  0.3787  0.1889  0.0489
  406MOL0     C54721   9.371  12.087   5.288  0.4199  0.3660 -0.4201
  406MOL0     C54722   9.355  11.950   5.281 -0.0553  0.0796  1.2080
  406MOL0     O54723   9.630  11.661   5.343 -0.4269 -0.7559 -0.0244
  406MOL0     C54724   9.551  11.399   5.371 -0.3911  0.3231  0.7532
  406MOL0     C54725   9.513  11.265   5.394 -0.4351 -1.3531 -0.6882
  406MOL0     N54726   9.253  10.604   5.186  0.4967 -0.0474 -0.3123
  406MOL0     N54727   9.295  10.484   5.196  0.3509  1.1974  0.0890
  406MOL0     C54728  10.445  10.302   5.487 -0.3951 -0.5181  1.0778
  406MOL0     C54729  10.585  10.325   5.500  0.1812 -0.6010 -0.3237
  406MOL0     C54730  10.951  10.480   5.712  0.1640 -0.1246 -0.9599
  406MOL0     C54731  11.001  10.482   5.845 -0.1496  0.1666  0.4601
  406MOL0     C54732  11.132  10.494   5.878  0.0590  0.2845 -0.5666
  406MOL0     C54733  11.231  10.507   5.787  0.5950  0.9197  0.1333
  406MOL0     O54734  11.361  10.525   5.834  0.6656  0.2382  0.5961
  406MOL0     C54735  11.460  10.512   5.733 -0.3013  0.6182 -0.4522
  406MOL0     C54736  11.593  10.491   5.792  0.7136 -0.7560 -0.3861
  406MOL0     C54737  11.707  10.464   5.683  0.0109 -0.5192  0.3042
  406MOL0     C54738  11.674  10.341   5.593  0.2372  0.0498  0.2021
  406MOL0     C54739  11.645  10.224   5.672 -0.1170  1.0687  0.8103
  406MOL0     C54740  11.628  10.122   5.741  0.2919 -0.7655 -0.1046
  406MOL0     C54741  11.185  10.503   5.652 -0.4477 -0.0304  0.7784
  406MOL0     C54742  11.057  10.488   5.618 -0.4207  0.2459 -0.1397
  406MOL0     H54743  10.586  10.659   5.518 -0.1517  0.1526  2.0360
  406MOL0     H54744  10.324  10.618   5.508  0.1495  0.8524  0.3638
  406MOL0     H54745  10.241  10.486   5.314  1.9154 -2.3906 -1.3843
  406MOL0     H54746  10.197  10.319   5.277 -1.4435  0.9273 -2.0586
  406MOL0     H54747  10.032  10.494   5.457 -1.8873 -1.2840  0.4521
  406MOL0     H54748  10.005  10.498   5.278  0.5698  0.9526  0.7892
  406MOL0     H54749   9.938  10.264   5.284 -2.8543  0.0230 -0.9222
  406MOL0     H54750   9.949  10.255   5.459  1.3918 -1.7476 -1.1008
  406MOL0     H54751   9.791  10.424   5.479  1.6621  0.6010 -0.1008
  406MOL0     H54752   9.773  10.443   5.311  1.2597 -1.1454 -0.5625
  406MOL0     H54753   9.675  10.214   5.304 -2.5004  1.2947  0.6128
  406MOL0     H54754   9.705  10.185   5.480 -2.1765 -0.7224  0.7134
  406MOL0     H54755   9.551  10.346   5.532  1.8125 -1.6082 -0.4643
  406MOL0     H54756   9.565  10.442   5.388  1.8113  0.1318 -0.8272
  406MOL0     H54757   9.456  10.269   5.244 -5.1556  1.1264 -0.2845
  406MOL0     H54758   9.451  10.154   5.379  1.8812  0.5387  2.8281
  406MOL0     H54759   9.294  10.326   5.481 -2.2676 -2.5469  0.5701
  406MOL0     H54760   9.231  10.254   5.327 -3.6937  3.0918  1.1348
  406MOL0     H54761   9.247  10.566   5.506 -2.8998  1.2426 -0.0429
  406MOL0     H54762   9.186  10.848   5.252  2.6062 -1.0165  0.0398
  406MOL0     H54763   9.056  10.781   5.356 -0.4622 -1.6721 -1.2684
  406MOL0     H54764   9.338  10.835   5.448 -0.4596 -0.6436  0.1297
  406MOL0     H54765   9.218  10.767   5.547  1.6250  0.3535  0.5670
  406MOL0     H54766   9.221  11.000   5.593 -1.9893 -0.8070  0.4842
  406MOL0     H54767   9.073  10.966   5.527 -0.4358  2.4380  1.9650
  406MOL0     H54768   9.137  11.164   5.406  0.0798  0.2118  1.2369
  406MOL0     H54769   9.172  11.055   5.290  0.4788  2.3440 -0.0084
  406MOL0     H54770   9.196  11.286   5.258 -1.6375  0.9908  2.9512
  406MOL0     H54771   9.202  11.593   5.223 -0.5709 -2.7733  0.8321
  406MOL0     H54772   9.306  11.609   5.089  0.2955  0.7034 -0.3096
  406MOL0     H54773   9.203  11.468   5.095 -1.4518 -1.9284  2.7310
  406MOL0     H54774   9.649  11.851   5.211 -1.5749 -1.3123  3.8366
  406MOL0     H54775   9.715  12.089   5.226  0.5704  0.0450  1.0452
  406MOL0     H54776   9.640  12.243   5.418  0.5374  1.2538  1.8541
  406MOL0     H54777   9.670  12.370   5.303  0.3065 -0.8424 -0.5436
  406MOL0     H54778   9.603  12.509   5.472 -1.1364  3.5481 -3.9480
  406MOL0     H54779   9.452  12.487   5.382 -1.2636  0.3064  1.4662
  406MOL0     H54780   9.467  12.278   5.564 -0.4339 -0.6300  1.8402
  406MOL0     H54781   9.338  12.407   5.538 -0.2752  1.4810  2.1335
  406MOL0     H54782   9.597  12.469   5.702  0.4309  2.9274  0.8384
  406MOL0     H54783   9.443  12.557   5.686 -3.2258 -0.8623 -0.0164
  406MOL0     H54784   9.502  12.411   5.887  0.5102 -2.7531  0.9990
  406MOL0     H54785   9.485  12.264   5.789 -2.4513 -0.4681 -1.0554
  406MOL0     H54786   9.248  12.306   5.742 -2.7162  0.3445  0.5210
  406MOL0     H54787   9.284  12.292   5.917  0.6491  0.6539  0.5022
  406MOL0     H54788   9.229  12.550   5.775  1.2902  1.9567  1.2297
  406MOL0     H54789   9.268  12.534   5.945 -0.7739  1.0835 -0.4857
  406MOL0     H54790   9.023  12.398   5.814  0.1972  2.1596 -1.5727
  406MOL0     H54791   9.044  12.558   5.885 -1.4075 -0.2995 -0.5440
  406MOL0     H54792   9.285  12.147   5.315 -2.8007 -3.2743 -1.6075
  406MOL0     H54793   9.261  11.902   5.303 -0.7547  1.2619  0.8837
  406MOL0     H54794   9.642  11.428   5.423  1.1491 -1.7177 -0.6519
  406MOL0     H54795   9.577  11.192   5.442  1.8704 -0.3294 -2.0394
  406MOL0     H54796  10.402  10.210   5.450  2.5923 -1.7486  0.3974
  406MOL0     H54797  10.654  10.249   5.466  1.3471  1.3261 -2.4992
  406MOL0     H54798  10.924  10.477   5.922  0.5791  0.8969  1.2499
  406MOL0     H54799  11.169  10.500   5.980  0.1951 -1.1839 -0.5098
  406MOL0     H54800  11.449  10.427   5.665 -0.8749  0.3749 -0.0615
  406MOL0     H54801  11.455  10.599   5.666  0.4369  0.6671 -0.4508
  406MOL0     H54802  11.588  10.403   5.856  3.8651 -1.5165 -1.0020
  406MOL0     H54803  11.614  10.580   5.853 -1.2862  0.5432 -1.4827
  406MOL0     H54804  11.803  10.459   5.735  0.2708 -1.8012 -0.2531
  406MOL0     H54805  11.710  10.556   5.626  0.1439 -1.3533 -1.0742
  406MOL0     H54806  11.755  10.329   5.521  1.1183  1.0393  1.0084
  406MOL0     H54807  11.589  10.352   5.524  0.4906 -1.3692 -0.3777
  406MOL0     H54808  11.593  10.030   5.783  1.0704 -0.8396  0.4029
  406MOL0     H54809  11.266  10.505   5.580 -0.9452 -2.1911  0.0958
  406MOL0     H54810  11.028  10.479   5.513 -1.7212 -1.5084  0.3106
  407MOL0     O54811   4.420   8.530   5.809  0.6192 -0.3592  0.7010
  407MOL0     C54812   4.533   8.549   5.857  0.5064 -0.6233  0.4111
  407MOL0     O54813   4.604   8.667   5.845 -0.4884 -0.2621 -0.0282
  407MOL0     C54814   4.557   8.783   5.792 -0.0583 -0.7307 -0.8596
  407MOL0     C54815   4.422   8.830   5.784  0.0893  0.2963  0.7658
  407MOL0     C54816   4.395   8.953   5.739  0.6773  0.0378 -0.3960
  407MOL0     C54817   4.491   9.040   5.680 -1.6907  0.1719 -0.4837
  407MOL0     O54818   4.458   9.167   5.654  0.1335 -0.4361 -0.1200
  407MOL0     C54819   4.554   9.273   5.662 -0.4224  0.2390  0.5519
  407MOL0     C54820   4.588   9.312   5.522  0.2155 -0.3564  0.1977
  407MOL0     C54821   4.718   9.387   5.505 -0.3295 -0.3359 -0.4970
  407MOL0     C54822   4.748   9.444   5.365  0.2236  0.1537 -0.1925
  407MOL0     C54823   4.886   9.514   5.375  0.4618 -0.0186 -0.0719
  407MOL0     C54824   4.926   9.594   5.256 -0.5364  0.3887 -0.1715
  407MOL0     C54825   4.835   9.709   5.215  0.0973  0.3248  0.4919
  407MOL0     C54826   4.904   9.821   5.130  0.1283  0.4160  0.3549
  407MOL0     N54827   4.814   9.921   5.079 -0.2630  0.1203 -0.9471
  407MOL0     C54828   4.717   9.986   5.158 -0.0559 -0.0421 -0.3104
  407MOL0     C54829   4.660  10.069   5.076  0.2275 -0.0930 -0.1443
  407MOL0     C54830   4.530  10.143   5.109 -0.4354  0.4978  0.2843
  407MOL0     C54831   4.560  10.279   5.160 -0.1981  0.0913  0.2727
  407MOL0     C54832   4.580  10.375   5.049  0.2736  0.7264 -0.3338
  407MOL0     C54833   4.544  10.513   5.109  0.1198  1.4319  1.0585
  407MOL0     O54834   4.622  10.532   5.231 -0.6993  0.0590  0.0724
  407MOL0     C54835   4.653  10.664   5.258 -1.0809 -0.0932 -0.3862
  407MOL0     C54836   4.591  10.782   5.214 -0.5710 -0.1996  1.0270
  407MOL0     C54837   4.622  10.903   5.271  0.1820 -0.4246  0.5783
  407MOL0     C54838   4.531  11.024   5.235  0.3180 -0.9623 -0.0606
  407MOL0     C54839   4.729  10.913   5.360 -0.7792 -0.1200  0.3547
  407MOL0     C54840   4.778  11.037   5.416  0.3013  0.5582 -0.2021
  407MOL0     O54841   4.821  11.029   5.545  0.2916  0.1029 -0.4416
  407MOL0     C54842   4.900  11.119   5.618 -0.1019  0.6810 -0.3518
  407MOL0     C54843   4.898  11.078   5.756 -0.9074  0.2107  0.0172
  407MOL0     C54844   4.973  11.154   5.853 -0.6313  0.4341  0.0697
  407MOL0     C54845   5.041  11.269   5.815  0.6581  0.2286  0.2104
  407MOL0     O54846   5.094  11.352   5.919  0.1265 -0.1750 -0.0818
  407MOL0     C54847   5.144  11.480   5.883  1.1077 -0.1231  0.0833
  407MOL0     C54848   5.162  11.569   6.016  0.5957  0.3045  0.3302
  407MOL0     C54849   5.041  11.662   6.025  0.7841  0.1444  0.1775
  407MOL0     C54850   4.916  11.578   6.067 -0.8828  0.2882  0.3908
  407MOL0     C54851   4.789  11.659   6.089  0.3462 -0.1828 -0.3467
  407MOL0     C54852   4.673  11.574   6.151  0.0616  0.1878 -0.2910
  407MOL0     C54853   4.622  11.465   6.048 -0.4082  0.0723  0.4546
  407MOL0     C54854   4.499  11.402   6.108  0.3042  0.1754 -0.7686
  407MOL0    Cl54855   4.509  11.361   6.297  0.1440 -0.4053  0.3879
  407MOL0     C54856   5.062  11.286   5.673  0.0547  0.7506  0.5768
  407MOL0     C54857   4.987  11.213   5.577  0.0251 -0.3913 -0.8975
  407MOL0     O54858   4.795  11.131   5.346  0.2883  0.0168 -0.3893
  407MOL0     C54859   4.786  10.792   5.409  0.3562  0.3714 -0.0770
  407MOL0     C54860   4.742  10.671   5.361 -0.2681 -0.2901 -0.1077
  407MOL0     N54861   4.725  10.060   4.957 -0.2105 -0.3638 -0.4414
  407MOL0     N54862   4.817   9.981   4.955 -0.6016  0.6490 -0.4515
  407MOL0     C54863   4.625   8.991   5.666 -0.2125 -0.0839 -0.4942
  407MOL0     C54864   4.655   8.865   5.726 -0.3303 -0.5442 -0.3663
  407MOL0     C54865   4.608   8.427   5.899  0.1045 -0.2425 -0.2300
  407MOL0     C54866   4.734   8.442   5.969  0.3933 -0.1156  1.0521
  407MOL0     C54867   4.800   8.339   6.034  0.3982 -1.0445 -0.1902
  407MOL0     C54868   4.747   8.216   6.038  0.6990  0.8888  0.3109
  407MOL0     O54869   4.832   8.120   6.096  0.5350  0.7546 -0.3673
  407MOL0     C54870   4.779   7.989   6.121 -0.1101 -0.4453  1.1290
  407MOL0     C54871   4.777   7.896   5.999  0.5401 -0.2062 -0.2242
  407MOL0     C54872   4.914   7.853   5.959 -0.0350  0.1530 -0.5237
  407MOL0     C54873   4.911   7.750   5.846  0.6652  0.9242 -0.3498
  407MOL0     C54874   4.795   7.658   5.835 -0.2169 -0.1385 -0.0093
  407MOL0     C54875   4.703   7.583   5.816 -0.1154 -0.6386  0.4219
  407MOL0     C54876   4.613   8.199   5.991 -0.2434 -0.3003  0.6906
  407MOL0     C54877   4.549   8.300   5.916  0.4872 -0.3786 -0.5707
  407MOL0     H54878   4.334   8.777   5.819  2.5819 -4.0419  1.2454
  407MOL0     H54879   4.294   8.992   5.728 -0.3409 -2.0751  0.8698
  407MOL0     H54880   4.508   9.353   5.721  1.2956 -0.7968  3.4719
  407MOL0     H54881   4.647   9.249   5.715  0.5963  3.3458  0.4049
  407MOL0     H54882   4.590   9.223   5.459  2.0750 -0.9352  1.0012
  407MOL0     H54883   4.511   9.378   5.481 -0.5842  1.8403  4.5966
  407MOL0     H54884   4.713   9.467   5.579 -2.3134 -1.4835  0.7056
  407MOL0     H54885   4.801   9.320   5.532 -1.3064 -1.0662  0.8179
  407MOL0     H54886   4.745   9.362   5.293  1.0431 -0.2483  0.2241
  407MOL0     H54887   4.671   9.521   5.351 -2.8753 -2.8295 -0.8832
  407MOL0     H54888   4.890   9.582   5.461  4.6159 -0.7530  0.5428
  407MOL0     H54889   4.957   9.433   5.398 -1.2195 -0.8834  2.5883
  407MOL0     H54890   5.027   9.627   5.283  0.0080  0.3644 -2.0006
  407MOL0     H54891   4.946   9.536   5.166 -0.7063 -2.0587  1.2972
  407MOL0     H54892   4.750   9.663   5.164  1.7974 -1.9165 -0.5018
  407MOL0     H54893   4.802   9.771   5.299  0.1319  0.4447  0.4175
  407MOL0     H54894   4.932   9.784   5.030  1.3914  0.9449  0.4878
  407MOL0     H54895   4.990   9.861   5.184  0.4740 -1.2485  1.1141
  407MOL0     H54896   4.689   9.955   5.258  3.1181 -1.4341  0.2768
  407MOL0     H54897   4.476  10.135   5.014  0.9371 -1.1903 -0.4324
  407MOL0     H54898   4.465  10.087   5.177  2.2816 -0.0880  2.6082
  407MOL0     H54899   4.643  10.286   5.231 -2.2815  0.0976  2.9075
  407MOL0     H54900   4.464  10.316   5.199  0.1777  0.5447  0.7801
  407MOL0     H54901   4.502  10.354   4.975  0.8121 -3.1307  0.0395
  407MOL0     H54902   4.684  10.368   5.017  0.8408  1.6423  1.2016
  407MOL0     H54903   4.436  10.520   5.127 -0.0978  0.0622  0.4692
  407MOL0     H54904   4.565  10.584   5.028 -1.2206 -0.0861 -0.7116
  407MOL0     H54905   4.519  10.774   5.133  0.6484  0.9372 -0.1942
  407MOL0     H54906   4.489  11.077   5.321 -0.7277  0.9277 -1.6374
  407MOL0     H54907   4.579  11.105   5.180 -2.3425  1.8667  1.4859
  407MOL0     H54908   4.447  10.988   5.174 -1.1888  0.4118  1.0948
  407MOL0     H54909   4.828  11.002   5.789 -1.5446  1.1889  1.0227
  407MOL0     H54910   4.961  11.145   5.960  1.7926 -2.6444  0.2120
  407MOL0     H54911   5.240  11.480   5.830  1.6625  2.0558  0.9600
  407MOL0     H54912   5.069  11.523   5.816  0.1050  1.0973  1.8974
  407MOL0     H54913   5.180  11.507   6.105 -0.2127 -1.2802 -0.5545
  407MOL0     H54914   5.243  11.642   6.014  0.9813 -0.0649  1.3725
  407MOL0     H54915   5.026  11.724   5.936 -0.9582 -1.6027 -0.8350
  407MOL0     H54916   5.064  11.734   6.105  2.1964  0.6094 -0.6187
  407MOL0     H54917   4.896  11.496   5.997  3.8783 -0.6288 -0.2294
  407MOL0     H54918   4.933  11.523   6.160 -1.0236 -1.7930 -0.7451
  407MOL0     H54919   4.767  11.694   5.988  1.5353  1.9319  0.0867
  407MOL0     H54920   4.800  11.749   6.150 -1.3490  0.7719 -1.3752
  407MOL0     H54921   4.698  11.514   6.239 -3.1931 -1.8416 -0.6126
  407MOL0     H54922   4.579  11.628   6.165 -0.7458 -1.0682 -0.7179
  407MOL0     H54923   4.699  11.388   6.038  0.5825  0.5357  3.4046
  407MOL0     H54924   4.595  11.513   5.953 -2.8198 -2.6450 -0.3816
  407MOL0     H54925   4.486  11.310   6.050 -2.7686  0.4900 -0.7363
  407MOL0     H54926   4.410  11.461   6.084  0.1348  0.0999 -0.3388
  407MOL0     H54927   5.135  11.361   5.642  2.8180 -1.8353  0.3292
  407MOL0     H54928   4.994  11.250   5.475 -1.5375  1.4549 -0.3970
  407MOL0     H54929   4.864  10.776   5.483  1.0390 -0.8787 -1.0163
  407MOL0     H54930   4.776  10.577   5.404  0.4914 -0.2763 -0.6477
  407MOL0     H54931   4.694   9.059   5.617 -2.0768  2.5905  0.3748
  407MOL0     H54932   4.753   8.818   5.729  0.5606  1.1798 -1.2460
  407MOL0     H54933   4.790   8.534   5.954  0.6447 -0.2465  1.1745
  407MOL0     H54934   4.895   8.362   6.082  0.4328  1.6763 -1.3901
  407MOL0     H54935   4.835   7.940   6.201 -0.1735 -2.2927  0.1024
  407MOL0     H54936   4.672   8.003   6.142 -0.1829 -0.3316  0.6977
  407MOL0     H54937   4.727   7.944   5.914 -0.0146 -3.0141 -1.6109
  407MOL0     H54938   4.725   7.802   6.019  1.8588 -0.7917  0.5450
  407MOL0     H54939   4.946   7.805   6.051  1.0239  2.9495  0.6803
  407MOL0     H54940   4.993   7.925   5.934  2.5766 -1.7291  1.7242
  407MOL0     H54941   4.985   7.677   5.881 -0.6721 -0.0630  0.4885
  407MOL0     H54942   4.953   7.794   5.755  0.9395  0.4803 -0.4474
  407MOL0     H54943   4.610   7.539   5.786 -1.0990  2.4444 -1.6117
  407MOL0     H54944   4.555   8.108   6.000 -1.4336  0.4768  1.0545
  407MOL0     H54945   4.451   8.270   5.882 -0.8060 -0.0865  2.6010
  408MOL0     O54946   1.643   8.346   1.033 -0.2858 -0.5811 -0.0829
  408MOL0     C54947   1.722   8.418   0.969 -0.3041  0.9591  0.6368
  408MOL0     O54948   1.728   8.553   0.982  0.5036  0.5969  1.3159
  408MOL0     C54949   1.682   8.609   1.096  0.1861  0.1542 -0.6382
  408MOL0     C54950   1.606   8.731   1.080 -0.1264  0.0287 -0.2284
  408MOL0     C54951   1.549   8.789   1.195  1.3003  0.1624 -1.5015
  408MOL0     C54952   1.568   8.739   1.330  1.1239  0.4967  0.3515
  408MOL0     O54953   1.525   8.810   1.443 -0.2717  0.1868 -0.4948
  408MOL0     C54954   1.402   8.886   1.445 -0.0408 -0.1494 -0.7054
  408MOL0     C54955   1.347   8.894   1.595  0.1204  0.4006  0.2621
  408MOL0     C54956   1.232   8.998   1.594 -0.1841  0.5401  0.0119
  408MOL0     C54957   1.173   9.011   1.740  0.1750  0.8937  0.5197
  408MOL0     C54958   1.248   9.115   1.826  0.7257 -0.5768  0.3528
  408MOL0     C54959   1.207   9.133   1.964 -0.1251 -0.7318 -0.0308
  408MOL0     C54960   1.299   9.057   2.054 -0.3356 -0.8472 -0.2022
  408MOL0     C54961   1.438   9.118   2.081  0.0190  0.1430  0.9274
  408MOL0     N54962   1.522   9.035   2.167 -0.0140  0.1856 -0.7567
  408MOL0     C54963   1.576   8.916   2.135 -0.4989 -0.5913 -0.0413
  408MOL0     C54964   1.650   8.885   2.243 -0.0302  0.1376  1.1580
  408MOL0     C54965   1.710   8.753   2.259 -0.8906 -0.1519 -0.0483
  408MOL0     C54966   1.646   8.672   2.372 -0.7606  0.9744  0.5935
  408MOL0     C54967   1.708   8.532   2.367  0.1083 -0.3310 -0.4901
  408MOL0     C54968   1.666   8.448   2.485  0.1559  0.1294 -0.3195
  408MOL0     O54969   1.538   8.393   2.454  0.3592  0.2351 -0.3404
  408MOL0     C54970   1.488   8.316   2.555 -0.1398 -0.2887 -0.2597
  408MOL0     C54971   1.372   8.246   2.527  0.2267  0.1445 -0.1815
  408MOL0     C54972   1.306   8.167   2.626 -0.4790  0.7539  0.1188
  408MOL0     C54973   1.186   8.083   2.579  0.0274 -0.2776 -0.8745
  408MOL0     C54974   1.351   8.171   2.762  0.0832  1.2406  0.0660
  408MOL0     C54975   1.274   8.112   2.873  0.2874  0.3348 -1.0151
  408MOL0     O54976   1.137   8.130   2.868  0.1626 -0.8924 -0.6863
  408MOL0     C54977   1.058   8.050   2.944 -0.0186  0.4437  0.0526
  408MOL0     C54978   0.945   7.985   2.882  0.1149  0.2184 -0.1631
  408MOL0     C54979   0.848   7.910   2.952 -0.1789 -0.2782 -0.4452
  408MOL0     C54980   0.854   7.909   3.088  0.3033  0.0912 -0.8845
  408MOL0     O54981   0.774   7.836   3.174  0.1942  0.3627 -0.0016
  408MOL0     C54982   0.659   7.766   3.117 -0.2709  0.4228 -0.3705
  408MOL0     C54983   0.595   7.689   3.229 -0.1052 -0.8642 -0.2322
  408MOL0     C54984   0.488   7.591   3.169 -0.3694 -1.1957  0.2796
  408MOL0     C54985   0.355   7.654   3.116  0.7852 -0.3118  0.7992
  408MOL0     C54986   0.285   7.578   3.010  0.1648 -0.2892  0.3285
  408MOL0     C54987   0.253   7.426   3.047 -0.9333 -0.1839  0.6951
  408MOL0     C54988   0.113   7.390   3.063  0.2768  0.3764 -0.1145
  408MOL0     C54989   0.044   7.487   3.177  0.4938  0.8204  1.1386
  408MOL0    Cl54990   0.101   7.497   3.343 -0.6423 -0.3387 -0.6719
  408MOL0     C54991   0.958   7.972   3.150  0.1321 -0.5211 -0.5345
  408MOL0     C54992   1.056   8.043   3.080 -0.7665 -0.3293 -0.0798
  408MOL0     O54993   1.341   8.052   2.966 -0.1235  0.2922  0.5139
  408MOL0     C54994   1.475   8.234   2.787  0.4422  1.4589  0.3577
  408MOL0     C54995   1.544   8.297   2.687 -0.8587 -0.3653  0.4011
  408MOL0     N54996   1.656   8.997   2.324  0.0429 -0.6483  0.3261
  408MOL0     N54997   1.573   9.078   2.283 -1.0622 -0.6551 -0.0849
  408MOL0     C54998   1.653   8.631   1.344  1.3989  0.3852 -0.2281
  408MOL0     C54999   1.710   8.565   1.233 -0.0781  0.0887  0.2299
  408MOL0     C55000   1.803   8.350   0.859 -0.3348  0.4293  0.1851
  408MOL0     C55001   1.931   8.406   0.824  0.3383 -0.1246  0.1739
  408MOL0     C55002   2.011   8.352   0.722  0.3221  0.3864 -0.8976
  408MOL0     C55003   1.963   8.244   0.646  0.5234  0.5056  0.6600
  408MOL0     O55004   2.046   8.224   0.539  0.0152  0.3038 -0.5580
  408MOL0     C55005   2.034   8.101   0.468  0.2345  0.0016 -0.8746
  408MOL0     C55006   2.145   8.095   0.369  0.6199 -0.5320  0.6691
  408MOL0     C55007   2.279   8.034   0.417 -0.3013  1.3327 -0.6740
  408MOL0     C55008   2.283   7.884   0.471  0.4985 -0.4662  0.0575
  408MOL0     C55009   2.295   7.794   0.362 -0.6804  0.5564 -0.0763
  408MOL0     C55010   2.302   7.724   0.259  1.0651 -0.4213 -0.4244
  408MOL0     C55011   1.847   8.170   0.686  0.4881 -0.1061  0.1910
  408MOL0     C55012   1.769   8.228   0.794  0.2648 -0.0298 -0.3213
  408MOL0     H55013   1.600   8.784   0.985 -3.7461  1.5178  0.6532
  408MOL0     H55014   1.499   8.885   1.183 -2.8559 -1.5300  0.2726
  408MOL0     H55015   1.412   8.985   1.400  0.8323 -0.8738 -2.1541
  408MOL0     H55016   1.316   8.850   1.389 -0.2458  0.0927 -0.5515
  408MOL0     H55017   1.316   8.800   1.640 -0.5952 -0.1335 -1.2603
  408MOL0     H55018   1.421   8.943   1.659 -1.7248  1.8978  1.3538
  408MOL0     H55019   1.280   9.094   1.572 -0.5567  0.3720 -1.6872
  408MOL0     H55020   1.156   8.963   1.523  0.3672 -0.3656 -0.1597
  408MOL0     H55021   1.069   9.042   1.722 -0.4728 -2.2896 -2.4616
  408MOL0     H55022   1.163   8.915   1.792  0.4990  0.0385 -0.9245
  408MOL0     H55023   1.350   9.075   1.821  0.0824 -2.1477 -1.4793
  408MOL0     H55024   1.237   9.212   1.775 -0.1337 -0.0322  1.5287
  408MOL0     H55025   1.191   9.236   1.997  1.1311 -1.5765  3.6392
  408MOL0     H55026   1.104   9.096   1.978  0.2476 -1.4992  0.8296
  408MOL0     H55027   1.247   9.056   2.150  2.8524  2.5768  1.8144
  408MOL0     H55028   1.320   8.959   2.010 -0.1961  0.7463 -4.1389
  408MOL0     H55029   1.407   9.217   2.113  0.1801  0.6469 -0.4069
  408MOL0     H55030   1.496   9.126   1.989  3.3682  0.0498  2.8960
  408MOL0     H55031   1.549   8.856   2.049  2.1017  1.4479 -2.4462
  408MOL0     H55032   1.715   8.692   2.169 -0.2997  0.0173 -0.1311
  408MOL0     H55033   1.814   8.770   2.288 -1.4412 -0.2192  2.1328
  408MOL0     H55034   1.538   8.674   2.359 -0.9841  2.3242  2.2632
  408MOL0     H55035   1.660   8.720   2.470  0.1613  1.2948  0.3180
  408MOL0     H55036   1.816   8.550   2.371  0.2318 -0.5977 -2.0177
  408MOL0     H55037   1.696   8.485   2.269 -0.7773  2.9582 -2.1057
  408MOL0     H55038   1.669   8.507   2.578 -0.1817  0.4338 -0.5021
  408MOL0     H55039   1.744   8.373   2.503  0.7686  0.9211  0.4710
  408MOL0     H55040   1.346   8.250   2.421 -0.3157  3.7766 -0.0615
  408MOL0     H55041   1.172   7.994   2.642 -2.1265 -0.7523 -1.9253
  408MOL0     H55042   1.095   8.143   2.588 -1.7644 -2.8481 -0.3773
  408MOL0     H55043   1.194   8.046   2.477  1.0374  0.5651 -1.1146
  408MOL0     H55044   0.941   7.991   2.774 -0.3550  0.2555 -0.1451
  408MOL0     H55045   0.760   7.873   2.900 -0.0140 -1.1623 -0.1144
  408MOL0     H55046   0.585   7.836   3.076  1.2789  1.2221 -1.9343
  408MOL0     H55047   0.693   7.698   3.038  0.7078 -2.2065  2.1477
  408MOL0     H55048   0.668   7.625   3.279  1.2920 -1.1614 -2.5062
  408MOL0     H55049   0.548   7.762   3.295 -0.0752 -1.5838  0.6071
  408MOL0     H55050   0.475   7.505   3.236 -0.3249 -2.0478 -0.7924
  408MOL0     H55051   0.540   7.550   3.082  2.0256 -1.6762  1.8318
  408MOL0     H55052   0.280   7.664   3.195  0.3990  0.0188  0.4010
  408MOL0     H55053   0.376   7.754   3.078 -2.7927  1.4407  2.9115
  408MOL0     H55054   0.345   7.578   2.919  1.7903 -1.0566  1.3478
  408MOL0     H55055   0.187   7.618   2.981 -1.7870 -5.4376 -1.3703
  408MOL0     H55056   0.300   7.359   2.974 -0.4059  0.9101  0.0097
  408MOL0     H55057   0.316   7.412   3.135  0.6131  0.2926 -0.2891
  408MOL0     H55058   0.111   7.287   3.101  3.8997 -1.3545 -3.7871
  408MOL0     H55059   0.059   7.399   2.968  1.6954  0.7012 -0.9093
  408MOL0     H55060  -0.064   7.470   3.182  0.4402  1.3574  2.1633
  408MOL0     H55061   0.037   7.587   3.133 -1.1404 -0.1335 -0.9306
  408MOL0     H55062   0.975   7.956   3.256  0.0554 -2.9794 -0.8470
  408MOL0     H55063   1.129   8.093   3.144 -1.8445 -0.8159  1.6052
  408MOL0     H55064   1.521   8.225   2.885  0.4263 -1.5777  0.1575
  408MOL0     H55065   1.634   8.346   2.725  1.4672 -0.7907 -3.9400
  408MOL0     H55066   1.676   8.594   1.444 -2.3587  2.5010  1.6312
  408MOL0     H55067   1.761   8.470   1.245 -0.4411 -0.0381  0.7993
  408MOL0     H55068   1.966   8.491   0.881  2.9310  0.5238 -2.1859
  408MOL0     H55069   2.107   8.401   0.704  0.1431  1.1463  0.1531
  408MOL0     H55070   2.027   8.019   0.540  0.2381  1.6891  1.1265
  408MOL0     H55071   1.938   8.090   0.416  0.0444  1.3770 -0.8514
  408MOL0     H55072   2.166   8.188   0.316  2.8630 -0.2885  1.8511
  408MOL0     H55073   2.111   8.030   0.288  0.0213 -0.9986  1.2823
  408MOL0     H55074   2.313   8.092   0.503 -1.1589  0.1361  0.5212
  408MOL0     H55075   2.359   8.040   0.343  1.4678 -0.1584  0.9953
  408MOL0     H55076   2.195   7.862   0.533 -1.5465  2.5619 -1.5684
  408MOL0     H55077   2.370   7.866   0.536 -1.1310 -1.7142  2.0493
  408MOL0     H55078   2.319   7.647   0.186  0.7905 -0.9389  0.0489
  408MOL0     H55079   1.810   8.086   0.628 -0.2187  2.8984 -4.2368
  408MOL0     H55080   1.674   8.187   0.826  0.9202 -0.9468  0.4968
  409MOL0     O55081   7.682   7.271  10.856  0.1508  0.3179  0.8749
  409MOL0     C55082   7.567   7.234  10.858  0.4223 -0.2864 -0.1670
  409MOL0     O55083   7.485   7.246  10.972  0.0957  0.1816 -0.0734
  409MOL0     C55084   7.535   7.278  11.092  0.8420  0.7671 -0.3309
  409MOL0     C55085   7.595   7.183  11.166 -0.0107 -0.2646 -0.2760
  409MOL0     C55086   7.641   7.216  11.295  0.6773 -0.0903  1.0060
  409MOL0     C55087   7.646   7.350  11.341  0.5457 -0.2965  0.0377
  409MOL0     O55088   7.684   7.371  11.471  0.9789 -0.6716  0.0152
  409MOL0     C55089   7.735   7.498  11.513  0.4372 -0.1270 -0.1827
  409MOL0     C55090   7.819   7.490  11.646  0.2682 -0.2246  0.3030
  409MOL0     C55091   7.934   7.396  11.646  0.4603 -0.4074  0.2459
  409MOL0     C55092   7.997   7.385  11.786 -0.8323  0.0189 -0.6340
  409MOL0     C55093   8.119   7.294  11.811  0.6650  0.1546 -0.0052
  409MOL0     C55094   8.064   7.149  11.828 -0.0380  0.0741  0.1112
  409MOL0     C55095   8.172   7.037  11.858 -0.3595 -0.6068 -0.0598
  409MOL0     C55096   8.280   7.024  11.747 -0.4049  0.2141  0.4248
  409MOL0     N55097   8.338   6.893  11.755 -0.1239 -0.4076  0.3163
  409MOL0     C55098   8.295   6.783  11.696 -0.1830 -0.4826  0.1546
  409MOL0     C55099   8.404   6.701  11.693  0.3683 -0.1536 -0.6108
  409MOL0     C55100   8.412   6.560  11.636 -0.9090 -0.0731  0.6730
  409MOL0     C55101   8.402   6.462  11.755  0.3315  0.6808  0.4237
  409MOL0     C55102   8.255   6.419  11.779 -0.8056 -0.3571 -0.3156
  409MOL0     C55103   8.233   6.336  11.915 -0.0349 -0.4756 -0.3182
  409MOL0     O55104   8.092   6.308  11.913  0.3301  0.5433 -1.0469
  409MOL0     C55105   8.024   6.259  12.023 -1.0939  0.7710  0.4478
  409MOL0     C55106   7.883   6.248  12.022  0.3616  0.3201 -0.9407
  409MOL0     C55107   7.809   6.176  12.129 -0.3206  0.1313 -0.1694
  409MOL0     C55108   7.661   6.152  12.114  0.8063 -1.1060 -0.0298
  409MOL0     C55109   7.892   6.113  12.232 -0.4261 -0.0591  0.1789
  409MOL0     C55110   7.840   6.014  12.330  0.7253 -0.1046 -0.1068
  409MOL0     O55111   7.936   5.958  12.416 -0.5370 -1.0612  0.4434
  409MOL0     C55112   7.880   5.878  12.514 -0.6939 -0.3013 -0.2032
  409MOL0     C55113   7.814   5.766  12.479 -1.3678  0.9009 -0.5393
  409MOL0     C55114   7.773   5.687  12.591  0.2081  0.4054  0.3792
  409MOL0     C55115   7.804   5.723  12.723  0.1721  1.0633  0.2257
  409MOL0     O55116   7.771   5.637  12.822 -0.1013 -0.5268 -0.5428
  409MOL0     C55117   7.750   5.675  12.964 -0.2041 -0.8078  1.1845
  409MOL0     C55118   7.689   5.548  13.032  0.3088 -1.1513  0.4127
  409MOL0     C55119   7.797   5.443  13.032 -1.0710  0.3963 -0.3797
  409MOL0     C55120   7.748   5.310  13.094 -0.1376  0.0021 -0.0841
  409MOL0     C55121   7.855   5.210  13.117  0.2660 -0.1745  0.7187
  409MOL0     C55122   7.895   5.213  13.267  0.3183 -0.0720  0.3374
  409MOL0     C55123   7.789   5.140  13.357 -1.2139 -0.1690 -0.4532
  409MOL0     C55124   7.768   4.989  13.321 -0.8382 -1.0329  0.2681
  409MOL0    Cl55125   7.921   4.902  13.339  0.2765  0.4820 -0.4912
  409MOL0     C55126   7.888   5.832  12.754  0.4598 -1.4937 -0.2708
  409MOL0     C55127   7.918   5.915  12.639 -0.7885  0.5265  0.7582
  409MOL0     O55128   7.717   5.995  12.335 -0.0358  1.0687 -0.3153
  409MOL0     C55129   8.027   6.138  12.232 -0.2549 -0.7978 -0.5537
  409MOL0     C55130   8.093   6.212  12.134 -0.0387  0.5502  0.5264
  409MOL0     N55131   8.506   6.765  11.757  0.0478  0.2386  0.0829
  409MOL0     N55132   8.464   6.876  11.792 -0.0460 -0.3821  0.1789
  409MOL0     C55133   7.592   7.447  11.252 -0.4327  0.7677 -0.4713
  409MOL0     C55134   7.529   7.411  11.135  0.2640 -0.6100  0.0750
  409MOL0     C55135   7.506   7.190  10.721  0.6454 -0.0310  0.0312
  409MOL0     C55136   7.372   7.224  10.686 -0.3296  0.6531  0.1727
  409MOL0     C55137   7.331   7.193  10.549  0.2640 -0.2969  1.0979
  409MOL0     C55138   7.411   7.135  10.456 -0.3049 -0.1540 -0.9562
  409MOL0     O55139   7.388   7.096  10.333 -0.1549  0.6835  0.3382
  409MOL0     C55140   7.261   7.097  10.273 -0.0122  0.3545 -0.2142
  409MOL0     C55141   7.270   7.034  10.130  0.1893 -0.5690  0.3985
  409MOL0     C55142   7.349   6.902  10.138  0.9291 -0.0742 -0.1189
  409MOL0     C55143   7.282   6.788  10.049 -0.8254 -0.1039 -0.9410
  409MOL0     C55144   7.369   6.666  10.039  0.0988 -0.5211 -0.2661
  409MOL0     C55145   7.446   6.570  10.049  1.0079 -0.3335  0.3106
  409MOL0     C55146   7.542   7.122  10.492  0.6959 -0.1829  0.5276
  409MOL0     C55147   7.590   7.137  10.620  1.1018 -0.7936 -0.7964
  409MOL0     H55148   7.621   7.084  11.130  0.5781 -0.1981 -0.0450
  409MOL0     H55149   7.681   7.144  11.365 -0.7631 -1.2841  0.6397
  409MOL0     H55150   7.795   7.526  11.426 -0.3970  2.0959 -0.1012
  409MOL0     H55151   7.647   7.562  11.525 -2.1437 -3.0148 -2.1729
  409MOL0     H55152   7.860   7.588  11.671  0.8894 -0.2424 -0.6113
  409MOL0     H55153   7.744   7.460  11.721 -0.2743 -0.1536 -0.2022
  409MOL0     H55154   7.900   7.296  11.619 -0.2463 -0.9413  2.8400
  409MOL0     H55155   7.998   7.435  11.566 -1.0244  0.6154 -0.5033
  409MOL0     H55156   8.037   7.483  11.814  0.5527 -0.2676 -1.5282
  409MOL0     H55157   7.917   7.365  11.859  1.9005 -0.8247  2.3691
  409MOL0     H55158   8.192   7.303  11.730 -2.3595 -1.1519 -3.1110
  409MOL0     H55159   8.163   7.319  11.907  0.1196  1.1133  0.0044
  409MOL0     H55160   8.005   7.152  11.920  0.6503 -4.3239  0.9311
  409MOL0     H55161   7.996   7.132  11.744  1.0697 -1.1497 -0.5870
  409MOL0     H55162   8.209   7.065  11.957 -2.4861  3.5635 -0.2387
  409MOL0     H55163   8.127   6.937  11.859 -2.7049  0.4090  1.2636
  409MOL0     H55164   8.366   7.087  11.772  1.4189 -0.5250 -3.2981
  409MOL0     H55165   8.232   7.039  11.650 -3.0201 -0.9054  1.4534
  409MOL0     H55166   8.198   6.761  11.652  0.3296 -1.5721 -0.4847
  409MOL0     H55167   8.332   6.533  11.567 -0.5805 -0.9426  0.6088
  409MOL0     H55168   8.500   6.548  11.572 -0.9861 -0.0866  0.5692
  409MOL0     H55169   8.426   6.515  11.847  0.4472  0.3039  0.6129
  409MOL0     H55170   8.463   6.373  11.736 -0.2293  0.4818 -0.5055
  409MOL0     H55171   8.216   6.353  11.700  0.1359 -0.2529 -0.8849
  409MOL0     H55172   8.193   6.508  11.794 -1.5703 -0.5080 -2.2653
  409MOL0     H55173   8.247   6.390  12.009  3.1263 -3.6223  1.2348
  409MOL0     H55174   8.297   6.247  11.918  2.0722  0.9982  1.9049
  409MOL0     H55175   7.828   6.314  11.955  1.3191  4.5835  2.0219
  409MOL0     H55176   7.620   6.195  12.207  0.3822 -1.3336 -0.1092
  409MOL0     H55177   7.616   6.189  12.022 -1.9476 -0.1337  1.5668
  409MOL0     H55178   7.634   6.047  12.101 -1.4704 -0.6002  0.1078
  409MOL0     H55179   7.800   5.733  12.376  0.1416  0.1339 -0.5221
  409MOL0     H55180   7.720   5.594  12.575 -0.3965  0.4368  2.0318
  409MOL0     H55181   7.841   5.712  13.011  2.0785 -0.5845 -2.9413
  409MOL0     H55182   7.667   5.746  12.961  1.8275  1.6501 -1.4710
  409MOL0     H55183   7.665   5.581  13.133 -0.3735  0.0912 -0.1284
  409MOL0     H55184   7.599   5.520  12.977 -1.0290  0.0082  1.9354
  409MOL0     H55185   7.883   5.479  13.090 -0.1762 -0.4395 -1.1639
  409MOL0     H55186   7.838   5.403  12.939 -1.1015 -1.7047  0.4719
  409MOL0     H55187   7.702   5.344  13.187  0.2419  4.4603 -1.2735
  409MOL0     H55188   7.674   5.259  13.032 -2.2567 -0.2118  2.4651
  409MOL0     H55189   7.943   5.219  13.053  3.2742  2.6913  4.7475
  409MOL0     H55190   7.815   5.111  13.094  2.3884 -0.7539 -0.8004
  409MOL0     H55191   7.989   5.157  13.270 -0.2797 -1.1132  0.2943
  409MOL0     H55192   7.905   5.318  13.294  0.4205  0.2190 -0.7813
  409MOL0     H55193   7.692   5.191  13.354 -0.4935  1.2028 -2.5966
  409MOL0     H55194   7.826   5.154  13.459 -0.2028 -2.6379 -0.4185
  409MOL0     H55195   7.734   4.970  13.219 -1.0313  0.6895 -0.0197
  409MOL0     H55196   7.697   4.941  13.389  0.2449 -2.2784  0.5628
  409MOL0     H55197   7.922   5.864  12.852  0.7778  2.0713 -1.3970
  409MOL0     H55198   7.972   6.008  12.653 -0.7820  0.1452  3.9807
  409MOL0     H55199   8.094   6.093  12.304 -0.5593 -2.0219 -0.9956
  409MOL0     H55200   8.200   6.215  12.152  0.3343  0.5851 -1.4539
  409MOL0     H55201   7.599   7.551  11.281 -0.6925  0.4498  0.8020
  409MOL0     H55202   7.500   7.492  11.069 -0.6748 -1.5806 -0.7300
  409MOL0     H55203   7.298   7.268  10.753  0.0001 -1.4706  2.0438
  409MOL0     H55204   7.226   7.208  10.526  0.3159  1.5724  1.8552
  409MOL0     H55205   7.191   7.045  10.339  0.5495  1.4325  1.2741
  409MOL0     H55206   7.220   7.198  10.265 -1.2007  0.0713  1.8152
  409MOL0     H55207   7.328   7.102  10.067  2.0017 -2.1691  0.2427
  409MOL0     H55208   7.173   7.021  10.081  0.6116  0.9097 -0.8908
  409MOL0     H55209   7.344   6.867  10.242  3.1441  0.5172  0.2384
  409MOL0     H55210   7.455   6.908  10.111  1.5900 -1.0761  2.0459
  409MOL0     H55211   7.265   6.840   9.954 -0.2211  4.2832  1.1022
  409MOL0     H55212   7.184   6.763  10.091 -0.9990 -0.3165 -1.4670
  409MOL0     H55213   7.520   6.497  10.076  0.2316 -1.1565  0.2608
  409MOL0     H55214   7.618   7.092  10.419  0.3124  1.6760 -0.7109
  409MOL0     H55215   7.696   7.116  10.628  0.7047 -2.3866  0.8775
  410MOL0     O55216   4.477   7.583   3.652 -0.2297 -0.1874  0.6610
  410MOL0     C55217   4.355   7.586   3.629 -0.5850  0.7324  0.3796
  410MOL0     O55218   4.287   7.649   3.532 -0.1455  0.1606  0.6090
  410MOL0     C55219   4.352   7.717   3.440 -0.8469 -0.3274  0.2614
  410MOL0     C55220   4.437   7.827   3.467 -0.2417 -0.4603  0.3716
  410MOL0     C55221   4.494   7.891   3.359 -0.7075  0.7448  0.5846
  410MOL0     C55222   4.489   7.839   3.227  0.2159 -0.2021  0.3966
  410MOL0     O55223   4.561   7.889   3.124 -0.0637 -0.6345 -0.3463
  410MOL0     C55224   4.645   7.997   3.158  0.8446 -0.3136  0.9966
  410MOL0     C55225   4.554   8.122   3.170 -0.4441 -0.4180 -0.2461
  410MOL0     C55226   4.482   8.155   3.046  0.7576 -0.8094 -0.6610
  410MOL0     C55227   4.404   8.288   3.062 -0.0597  0.0616 -0.0100
  410MOL0     C55228   4.317   8.333   2.938  0.0651 -0.5065 -0.1446
  410MOL0     C55229   4.218   8.223   2.894  0.2574  0.4322  0.0750
  410MOL0     C55230   4.127   8.176   3.015 -0.3522  0.1266  0.7473
  410MOL0     C55231   4.033   8.069   2.951  0.8752 -0.2565 -0.8842
  410MOL0     N55232   3.957   8.019   3.061 -0.4634 -0.3590  0.0132
  410MOL0     C55233   3.992   7.923   3.152  0.4797  0.2800 -0.1814
  410MOL0     C55234   3.878   7.899   3.214  0.0256  0.8631 -1.2714
  410MOL0     C55235   3.867   7.803   3.334  0.1377  0.2764 -1.1159
  410MOL0     C55236   3.916   7.655   3.306  0.8274 -0.8856 -0.2919
  410MOL0     C55237   3.852   7.532   3.371  0.9372  0.4442 -0.6007
  410MOL0     C55238   3.698   7.524   3.352 -0.9189 -0.3388  0.3286
  410MOL0     O55239   3.665   7.469   3.227 -0.1984 -0.1451 -0.0599
  410MOL0     C55240   3.656   7.330   3.216 -0.4544 -0.2923 -0.4358
  410MOL0     C55241   3.643   7.283   3.086 -0.1008 -0.4840 -0.3512
  410MOL0     C55242   3.616   7.148   3.057  0.1115  1.1296 -0.5326
  410MOL0     C55243   3.618   7.115   2.901  0.0567  0.1440 -0.8104
  410MOL0     C55244   3.611   7.050   3.163  0.8979  0.0896 -0.6911
  410MOL0     C55245   3.577   6.911   3.143 -0.5787  0.1117  0.4329
  410MOL0     O55246   3.584   6.827   3.247  0.8862 -0.2595 -0.7842
  410MOL0     C55247   3.586   6.687   3.228  1.0808  0.1834  0.2185
  410MOL0     C55248   3.478   6.612   3.194  0.6883 -0.1465  0.5173
  410MOL0     C55249   3.483   6.467   3.196  0.1130  0.1010 -0.4017
  410MOL0     C55250   3.597   6.400   3.223 -0.2479 -0.4371  0.1968
  410MOL0     O55251   3.609   6.270   3.214  0.4680  0.4602  0.4431
  410MOL0     C55252   3.721   6.217   3.154 -0.6592  0.0014 -0.0290
  410MOL0     C55253   3.723   6.069   3.187 -0.0351  1.1721 -0.2394
  410MOL0     C55254   3.828   6.000   3.087  0.3739  0.3290  0.0633
  410MOL0     C55255   3.837   5.849   3.100 -0.6358  0.3076 -0.3803
  410MOL0     C55256   3.981   5.802   3.060  0.0023 -0.4256  0.6940
  410MOL0     C55257   3.992   5.653   3.015  0.2453 -0.2721 -0.4838
  410MOL0     C55258   3.926   5.544   3.115 -1.0312 -0.3043  0.6835
  410MOL0     C55259   3.892   5.409   3.044  0.6382 -0.4569 -0.1306
  410MOL0    Cl55260   3.738   5.434   2.957 -0.0971  0.1429  0.2596
  410MOL0     C55261   3.707   6.479   3.275  0.4729  0.5791 -0.0633
  410MOL0     C55262   3.698   6.618   3.274 -0.5596 -0.8050 -0.2306
  410MOL0     O55263   3.535   6.877   3.033  0.3145 -0.0992  0.2128
  410MOL0     C55264   3.640   7.101   3.293  0.5726  0.9455  0.3834
  410MOL0     C55265   3.660   7.239   3.324  0.9435  0.0228  0.3833
  410MOL0     N55266   3.779   7.994   3.174 -0.1359  1.2384  0.0666
  410MOL0     N55267   3.837   8.073   3.097  0.4211 -0.4278  0.1734
  410MOL0     C55268   4.402   7.723   3.210 -1.1300 -0.6825 -0.5722
  410MOL0     C55269   4.338   7.666   3.316 -0.2114 -0.3302  1.0949
  410MOL0     C55270   4.275   7.484   3.711 -0.9347 -0.6892  0.8127
  410MOL0     C55271   4.300   7.475   3.847 -1.1626 -1.4470  0.7635
  410MOL0     C55272   4.215   7.394   3.930 -0.8288 -0.4964  0.8484
  410MOL0     C55273   4.114   7.320   3.870 -0.1573 -0.4052 -0.0464
  410MOL0     O55274   4.024   7.243   3.935 -0.4606  0.3962 -0.0086
  410MOL0     C55275   4.043   7.212   4.077 -0.2663 -0.3276  0.3146
  410MOL0     C55276   4.165   7.122   4.083  0.6516  0.7639  0.2065
  410MOL0     C55277   4.175   7.063   4.218 -0.6145 -0.0213 -0.0879
  410MOL0     C55278   4.259   6.935   4.201  0.4868  0.1100  0.0588
  410MOL0     C55279   4.397   6.964   4.176  0.2433  0.3024 -0.9721
  410MOL0     C55280   4.515   6.989   4.154 -0.0566  0.0735  0.5308
  410MOL0     C55281   4.093   7.321   3.734 -0.4547  0.8452 -0.5412
  410MOL0     C55282   4.165   7.408   3.652 -0.0988  0.1940 -0.1141
  410MOL0     H55283   4.450   7.852   3.572 -0.2910 -2.1401  0.8072
  410MOL0     H55284   4.569   7.963   3.390  1.4310 -1.6608  1.3428
  410MOL0     H55285   4.708   7.987   3.247  3.1486  0.7064 -0.4333
  410MOL0     H55286   4.716   7.998   3.076 -1.5445  1.5668 -1.2203
  410MOL0     H55287   4.479   8.103   3.247  0.0675 -2.1326 -0.1091
  410MOL0     H55288   4.612   8.208   3.203  1.8547 -2.8341  2.6267
  410MOL0     H55289   4.547   8.158   2.958  1.4330 -0.6853 -0.1589
  410MOL0     H55290   4.410   8.075   3.023 -3.0003  2.2522 -0.6176
  410MOL0     H55291   4.338   8.289   3.150  1.9445 -1.1573  1.5875
  410MOL0     H55292   4.474   8.367   3.091  2.4827 -1.6955 -1.0032
  410MOL0     H55293   4.266   8.424   2.972 -0.2961 -0.7080 -0.1385
  410MOL0     H55294   4.373   8.352   2.847  0.5602 -0.0445  0.2456
  410MOL0     H55295   4.165   8.278   2.816  1.0785  1.7642  0.4306
  410MOL0     H55296   4.279   8.145   2.849  1.1541  1.0420  0.2203
  410MOL0     H55297   4.188   8.143   3.099  1.1762 -0.3525 -0.4969
  410MOL0     H55298   4.067   8.254   3.062 -1.0579 -0.1021  0.2461
  410MOL0     H55299   4.093   7.986   2.910  0.8917 -1.8772  2.1489
  410MOL0     H55300   3.963   8.113   2.880 -1.6921 -3.1422 -0.3793
  410MOL0     H55301   4.091   7.880   3.162  0.9104  0.5776 -2.5765
  410MOL0     H55302   3.926   7.833   3.421 -1.6821 -2.3035  1.1502
  410MOL0     H55303   3.762   7.792   3.361  0.4680 -2.9481 -0.7902
  410MOL0     H55304   4.025   7.651   3.320  1.2325  3.5826 -0.8094
  410MOL0     H55305   3.903   7.630   3.201 -0.9643 -2.0867  0.1752
  410MOL0     H55306   3.882   7.533   3.476 -0.5945  0.3750 -0.1278
  410MOL0     H55307   3.903   7.443   3.336 -0.9322 -2.0645  2.4861
  410MOL0     H55308   3.659   7.624   3.374  0.4882  1.1650 -3.1891
  410MOL0     H55309   3.661   7.476   3.443  1.6940 -0.3930  1.4522
  410MOL0     H55310   3.667   7.349   3.002 -0.3498  1.3571  0.9687
  410MOL0     H55311   3.665   7.193   2.842  0.5496  0.1773 -0.3856
  410MOL0     H55312   3.681   7.030   2.873  0.4328  1.1523 -3.1680
  410MOL0     H55313   3.515   7.106   2.864 -0.4482  0.5758  0.4201
  410MOL0     H55314   3.392   6.658   3.146  1.6423 -0.9179 -2.0968
  410MOL0     H55315   3.393   6.419   3.158 -0.8741  1.6601 -0.1209
  410MOL0     H55316   3.722   6.239   3.047 -0.6800  3.1216  0.5170
  410MOL0     H55317   3.814   6.263   3.190 -0.9918  1.3673 -0.8178
  410MOL0     H55318   3.762   6.050   3.287  2.2517  1.6176 -1.0044
  410MOL0     H55319   3.631   6.010   3.181  0.4248  0.4211 -0.0049
  410MOL0     H55320   3.926   6.045   3.101  1.9885 -1.5395 -3.8808
  410MOL0     H55321   3.803   6.019   2.982 -2.1829 -0.9601  0.3358
  410MOL0     H55322   3.814   5.838   3.206 -0.0172 -0.6107 -0.3341
  410MOL0     H55323   3.761   5.795   3.043 -0.0600  0.4517 -1.2965
  410MOL0     H55324   4.051   5.831   3.139 -2.4401  1.7069  2.2432
  410MOL0     H55325   3.996   5.860   2.968  0.3800 -2.5187 -0.6303
  410MOL0     H55326   3.957   5.628   2.914 -1.4725 -0.7585  0.1946
  410MOL0     H55327   4.101   5.639   3.005  0.2751  1.6625 -4.6519
  410MOL0     H55328   3.840   5.576   3.174  1.1324  1.0786  3.2813
  410MOL0     H55329   4.002   5.514   3.187 -1.4595 -1.4882  0.6793
  410MOL0     H55330   3.871   5.332   3.119 -0.3444  2.1590  2.4756
  410MOL0     H55331   3.975   5.375   2.982  0.6744 -0.7547  0.0777
  410MOL0     H55332   3.785   6.418   3.319 -0.2122 -2.2438 -2.4190
  410MOL0     H55333   3.793   6.662   3.304  0.9479 -2.5804 -2.0637
  410MOL0     H55334   3.652   7.032   3.376  0.8275  0.0444 -0.3838
  410MOL0     H55335   3.671   7.281   3.423  3.0761 -0.5489  0.4375
  410MOL0     H55336   4.396   7.676   3.112 -2.2763 -2.6656  0.3894
  410MOL0     H55337   4.292   7.568   3.305  1.8059 -1.3850  1.6558
  410MOL0     H55338   4.390   7.529   3.872 -1.5352  0.4327 -1.6527
  410MOL0     H55339   4.224   7.401   4.038  0.3990  1.1897  0.6787
  410MOL0     H55340   4.057   7.298   4.143  4.0540 -2.2585  2.2878
  410MOL0     H55341   3.954   7.160   4.115 -0.0496  0.7616  2.4838
  410MOL0     H55342   4.262   7.169   4.064  2.1081 -1.0276  2.5935
  410MOL0     H55343   4.149   7.045   4.006 -1.6878  1.4767 -0.0940
  410MOL0     H55344   4.072   7.035   4.244 -1.2728 -1.1948 -3.4566
  410MOL0     H55345   4.208   7.134   4.295 -1.0600 -0.7143  0.7570
  410MOL0     H55346   4.233   6.871   4.116  0.5325  1.5117 -1.0507
  410MOL0     H55347   4.250   6.878   4.294 -2.0360 -0.2074 -0.2935
  410MOL0     H55348   4.617   7.002   4.125  0.3668 -0.5049  1.7267
  410MOL0     H55349   4.006   7.272   3.690 -0.8711  1.1259 -0.0474
  410MOL0     H55350   4.134   7.424   3.549  1.3836  2.3228 -0.2783
  411MOL0     O55351   0.989   3.346   5.826  0.2696  1.1914  0.0793
  411MOL0     C55352   0.900   3.284   5.775 -0.2590 -0.1711 -0.7623
  411MOL0     O55353   0.909   3.154   5.748  0.1138 -0.1980 -1.2649
  411MOL0     C55354   1.015   3.070   5.759 -1.0710  0.3602 -0.6333
  411MOL0     C55355   0.988   2.936   5.805  0.1339 -0.1301  0.4312
  411MOL0     C55356   1.092   2.851   5.826  0.0281  0.4479 -0.4133
  411MOL0     C55357   1.227   2.882   5.812 -0.0034  0.1440  0.3615
  411MOL0     O55358   1.341   2.800   5.823  0.2729  0.6635  0.5379
  411MOL0     C55359   1.321   2.661   5.852 -0.1484  0.0609 -0.1564
  411MOL0     C55360   1.447   2.590   5.837 -0.1236  0.8225 -0.0788
  411MOL0     C55361   1.445   2.453   5.887  0.1373  0.1482  0.2441
  411MOL0     C55362   1.587   2.383   5.865 -0.4585 -0.9974 -1.0132
  411MOL0     C55363   1.593   2.241   5.915  0.1591 -0.0469 -0.4433
  411MOL0     C55364   1.641   2.222   6.058 -0.0479 -0.6946 -0.6564
  411MOL0     C55365   1.657   2.068   6.094  0.4830 -0.3995 -0.1234
  411MOL0     C55366   1.655   2.021   6.243 -0.6935  0.3859 -0.7364
  411MOL0     N55367   1.711   1.884   6.231 -0.5541 -0.2148 -0.6799
  411MOL0     C55368   1.649   1.766   6.209  0.3398  0.7432 -0.8426
  411MOL0     C55369   1.745   1.672   6.203  0.8393 -0.5973  0.4607
  411MOL0     C55370   1.721   1.526   6.186  0.2953 -0.1227  0.2317
  411MOL0     C55371   1.807   1.454   6.072 -0.3540  0.5873 -0.6287
  411MOL0     C55372   1.774   1.301   6.087  0.0688 -0.6332  0.7126
  411MOL0     C55373   1.684   1.256   5.970  0.2462  0.2895  0.6387
  411MOL0     O55374   1.555   1.312   6.000 -0.0183  0.0726  1.0780
  411MOL0     C55375   1.458   1.322   5.896 -0.5669  1.1629  0.3825
  411MOL0     C55376   1.353   1.415   5.911  0.8367  1.2820  0.2371
  411MOL0     C55377   1.254   1.421   5.813  0.5143  0.9468  0.3535
  411MOL0     C55378   1.153   1.531   5.824 -0.4545 -0.5679 -0.3060
  411MOL0     C55379   1.265   1.335   5.697  0.6015  0.7324  0.7053
  411MOL0     C55380   1.170   1.317   5.588 -0.0090  0.3327  0.0907
  411MOL0     O55381   1.190   1.214   5.503 -0.5703  0.1319  0.4118
  411MOL0     C55382   1.115   1.195   5.389  0.3886  0.7310  0.1315
  411MOL0     C55383   1.163   1.165   5.267 -0.3689 -0.1079  0.5888
  411MOL0     C55384   1.074   1.136   5.163 -0.1036 -0.3758  0.6395
  411MOL0     C55385   0.938   1.139   5.181  0.0590  0.6261 -0.0309
  411MOL0     O55386   0.863   1.133   5.064  0.4251  0.0095 -0.6078
  411MOL0     C55387   0.750   1.041   5.064  0.1513  0.0203  0.9866
  411MOL0     C55388   0.699   1.018   4.922  0.2242 -0.0319 -0.3399
  411MOL0     C55389   0.590   0.910   4.924  0.0777 -0.4742  0.1823
  411MOL0     C55390   0.464   0.960   5.008  0.0263 -0.3957 -0.3838
  411MOL0     C55391   0.388   0.840   5.053 -0.6851 -1.1697  0.3452
  411MOL0     C55392   0.344   0.758   4.932  0.0975  0.1668 -0.3074
  411MOL0     C55393   0.259   0.640   4.981 -0.0037 -0.5705  0.0936
  411MOL0     C55394   0.211   0.550   4.867  1.0309  0.6604 -0.3822
  411MOL0    Cl55395   0.135   0.401   4.932  0.0364 -0.5327 -0.0023
  411MOL0     C55396   0.883   1.156   5.309  0.1926  0.6064  1.1673
  411MOL0     C55397   0.973   1.174   5.416 -0.8716 -0.7236  0.7558
  411MOL0     O55398   1.075   1.389   5.594  0.5466 -0.4770 -0.9603
  411MOL0     C55399   1.374   1.250   5.683 -0.1477 -1.0321  0.2760
  411MOL0     C55400   1.476   1.253   5.773  0.4545 -0.5667  0.3913
  411MOL0     N55401   1.873   1.737   6.226  0.0904  0.2622  0.6336
  411MOL0     N55402   1.843   1.859   6.245  0.1456  0.2752 -0.2185
  411MOL0     C55403   1.253   3.005   5.753 -0.5134  0.8383 -0.1831
  411MOL0     C55404   1.151   3.104   5.731 -0.5774  0.6154 -0.7206
  411MOL0     C55405   0.780   3.364   5.741  0.5550 -0.0580  1.1117
  411MOL0     C55406   0.770   3.503   5.757 -0.5912  0.3163 -0.2945
  411MOL0     C55407   0.656   3.567   5.708 -0.2884  0.5075  0.9280
  411MOL0     C55408   0.556   3.505   5.639  0.5530 -0.7762 -0.2565
  411MOL0     O55409   0.469   3.570   5.549 -0.2034 -0.1115  0.5655
  411MOL0     C55410   0.475   3.711   5.514 -0.0797 -0.4284  0.2930
  411MOL0     C55411   0.599   3.744   5.425 -0.0506 -0.4011 -0.8865
  411MOL0     C55412   0.571   3.856   5.335 -0.7236 -0.2257  0.1366
  411MOL0     C55413   0.455   3.842   5.238  0.0059  0.4179 -0.1197
  411MOL0     C55414   0.473   3.930   5.129  0.0503  0.5735 -0.3376
  411MOL0     C55415   0.471   4.002   5.041 -0.2092 -0.1074  0.1608
  411MOL0     C55416   0.561   3.368   5.628  0.1574  0.4749 -0.8922
  411MOL0     C55417   0.665   3.293   5.692 -0.0206 -0.1691  0.7770
  411MOL0     H55418   0.887   2.898   5.816 -0.5220  1.1019 -0.9718
  411MOL0     H55419   1.062   2.753   5.864 -2.7350  1.4542  0.2325
  411MOL0     H55420   1.284   2.640   5.953  1.6760 -0.1673  0.4916
  411MOL0     H55421   1.254   2.612   5.781 -0.1951 -2.6927  1.6717
  411MOL0     H55422   1.480   2.574   5.734 -2.1736  0.3393 -0.7252
  411MOL0     H55423   1.522   2.642   5.896 -0.2503 -0.4813  1.2995
  411MOL0     H55424   1.427   2.460   5.995  1.5531  0.9559  0.4434
  411MOL0     H55425   1.370   2.389   5.840 -0.3434 -1.0378  2.4614
  411MOL0     H55426   1.616   2.366   5.761 -3.5921 -3.2586 -1.6453
  411MOL0     H55427   1.660   2.453   5.907 -2.8342  0.4264  1.0688
  411MOL0     H55428   1.501   2.186   5.893 -1.4306  2.8787 -1.7219
  411MOL0     H55429   1.668   2.195   5.850  0.4625  3.6936 -3.0577
  411MOL0     H55430   1.737   2.272   6.076 -1.4118  1.1211  2.5228
  411MOL0     H55431   1.575   2.264   6.134  0.9518 -1.0941  0.4608
  411MOL0     H55432   1.582   2.005   6.047 -0.9826 -0.4336  2.1101
  411MOL0     H55433   1.751   2.057   6.039  0.5551  0.8665 -0.2772
  411MOL0     H55434   1.552   2.028   6.278 -0.8393  3.9397 -1.5084
  411MOL0     H55435   1.709   2.087   6.312  1.1780 -1.1893 -0.6055
  411MOL0     H55436   1.546   1.731   6.208  0.5162 -0.0581  1.9689
  411MOL0     H55437   1.732   1.476   6.282 -0.7905 -1.1438 -0.1636
  411MOL0     H55438   1.615   1.513   6.167 -0.2882  3.0960  0.6731
  411MOL0     H55439   1.910   1.472   6.102 -0.0094 -2.2857  0.1794
  411MOL0     H55440   1.787   1.492   5.971  0.0985 -2.2748 -1.8897
  411MOL0     H55441   1.730   1.280   6.184 -1.1746 -2.4056 -0.1803
  411MOL0     H55442   1.863   1.239   6.073  0.1164 -0.2012 -1.2261
  411MOL0     H55443   1.678   1.147   5.960  0.4894  0.0626  2.5886
  411MOL0     H55444   1.725   1.301   5.879  1.5159 -1.5693  0.2349
  411MOL0     H55445   1.328   1.468   6.003 -1.1643  0.6834  0.0858
  411MOL0     H55446   1.157   1.575   5.923  0.5909 -0.2278 -0.4883
  411MOL0     H55447   1.159   1.594   5.735 -0.7375 -0.5024 -0.2824
  411MOL0     H55448   1.048   1.499   5.822 -1.0698  1.3835 -0.5046
  411MOL0     H55449   1.270   1.162   5.250 -0.3761  0.2757  0.4701
  411MOL0     H55450   1.118   1.124   5.065 -1.7074 -0.4146 -0.1044
  411MOL0     H55451   0.786   0.946   5.104 -1.6156 -0.2401  2.0546
  411MOL0     H55452   0.671   1.091   5.121 -2.6049 -2.3640 -0.4961
  411MOL0     H55453   0.663   1.114   4.883  0.5899  0.2852  0.0957
  411MOL0     H55454   0.790   0.997   4.866  2.7774  0.2414  3.3587
  411MOL0     H55455   0.639   0.824   4.971  2.3352  1.4088  1.4973
  411MOL0     H55456   0.561   0.884   4.822 -3.1991 -1.2230  1.1800
  411MOL0     H55457   0.478   1.026   5.094 -0.9066  2.6664 -2.3960
  411MOL0     H55458   0.406   1.012   4.931 -1.3739 -1.8820 -0.3640
  411MOL0     H55459   0.307   0.870   5.121  0.2896  0.2754  0.9019
  411MOL0     H55460   0.457   0.785   5.118  0.5871 -1.1637 -0.9566
  411MOL0     H55461   0.281   0.812   4.861 -1.1957 -1.4476 -0.4728
  411MOL0     H55462   0.432   0.721   4.878  0.3595 -1.5607  1.2035
  411MOL0     H55463   0.169   0.678   5.030  0.4744  0.9760 -0.1702
  411MOL0     H55464   0.312   0.582   5.058  0.7988  1.4341  1.1074
  411MOL0     H55465   0.294   0.523   4.800 -0.1491 -4.1359 -0.2471
  411MOL0     H55466   0.141   0.605   4.803  0.2258 -0.1598 -0.2279
  411MOL0     H55467   0.775   1.158   5.319 -0.1497 -2.3780 -0.7528
  411MOL0     H55468   0.943   1.185   5.520 -0.6980 -2.1796  0.9871
  411MOL0     H55469   1.397   1.195   5.593 -0.9308 -0.6421 -0.1771
  411MOL0     H55470   1.559   1.185   5.764  0.2577 -1.1322  2.2646
  411MOL0     H55471   1.360   3.023   5.751 -0.6936  1.9343 -1.1286
  411MOL0     H55472   1.188   3.203   5.706 -0.5023  0.8008  0.0904
  411MOL0     H55473   0.849   3.556   5.810  0.4321 -2.6842  1.4068
  411MOL0     H55474   0.650   3.674   5.720  1.0960  0.6687  0.2967
  411MOL0     H55475   0.383   3.736   5.461  0.3291 -0.6920 -0.5551
  411MOL0     H55476   0.477   3.760   5.612  1.6901  0.7303 -0.2700
  411MOL0     H55477   0.604   3.656   5.360 -1.4337 -1.2388  0.0756
  411MOL0     H55478   0.687   3.763   5.487 -0.9325  0.1898  0.2113
  411MOL0     H55479   0.663   3.862   5.277  0.7367  2.1803  2.4865
  411MOL0     H55480   0.563   3.942   5.403  1.2676 -1.1751  1.6782
  411MOL0     H55481   0.360   3.860   5.288  0.1399  2.4113 -0.5042
  411MOL0     H55482   0.444   3.736   5.213 -1.7491  0.1213  1.6828
  411MOL0     H55483   0.477   4.062   4.952 -4.1020 -0.8195 -0.7531
  411MOL0     H55484   0.473   3.324   5.581 -1.1507  0.5507  1.3318
  411MOL0     H55485   0.666   3.185   5.700 -0.3290 -0.4426 -1.8740
  412MOL0     O55486  10.967   8.287   8.615 -0.3747 -0.4520  0.0310
  412MOL0     C55487  11.051   8.380   8.615  0.5652 -0.5891  0.0803
  412MOL0     O55488  11.034   8.498   8.551  0.5671  0.2408  0.1490
  412MOL0     C55489  10.928   8.529   8.470  0.5153 -0.8311  0.0707
  412MOL0     C55490  10.793   8.472   8.480 -0.7099 -0.0420 -0.2886
  412MOL0     C55491  10.689   8.516   8.404 -0.2051  0.9619 -0.0629
  412MOL0     C55492  10.715   8.608   8.299 -0.5805  0.3567 -0.6199
  412MOL0     O55493  10.610   8.650   8.228  0.7932 -0.4518 -0.0284
  412MOL0     C55494  10.620   8.742   8.126 -0.0976 -0.0208  0.0868
  412MOL0     C55495  10.499   8.757   8.045  0.1345  0.5959 -0.0233
  412MOL0     C55496  10.523   8.843   7.913 -0.0183 -0.4157  0.5634
  412MOL0     C55497  10.406   8.827   7.807 -0.4682  0.2339 -1.3347
  412MOL0     C55498  10.423   8.910   7.676 -0.0240 -0.3806  0.4624
  412MOL0     C55499  10.304   8.870   7.586  0.1178  0.1496  0.0404
  412MOL0     C55500  10.165   8.929   7.630 -0.4914 -0.1157  0.2476
  412MOL0     C55501  10.086   8.976   7.505 -0.1245 -0.5876  0.3713
  412MOL0     N55502   9.951   8.999   7.548 -0.3908 -0.0188  0.4453
  412MOL0     C55503   9.859   8.896   7.572  0.0778 -0.3056 -0.1641
  412MOL0     C55504   9.739   8.962   7.584 -0.6987  0.8573  0.2226
  412MOL0     C55505   9.602   8.889   7.611  0.2655 -0.0224 -0.6345
  412MOL0     C55506   9.488   8.949   7.529 -0.4721  0.1309  0.0364
  412MOL0     C55507   9.353   8.887   7.568 -0.2040 -0.3217  0.4440
  412MOL0     C55508   9.243   8.964   7.490  0.9200  0.1955  0.1941
  412MOL0     O55509   9.252   8.939   7.343  0.2116  0.2414  0.7290
  412MOL0     C55510   9.123   8.916   7.291 -0.0824 -1.1410  0.8271
  412MOL0     C55511   9.053   8.801   7.332 -0.3806 -0.3090 -0.3497
  412MOL0     C55512   8.924   8.773   7.292  0.2268  0.4732 -0.7815
  412MOL0     C55513   8.857   8.650   7.356  0.2917  0.1407  0.0811
  412MOL0     C55514   8.851   8.874   7.224  0.3087 -0.0175 -0.4629
  412MOL0     C55515   8.721   8.848   7.160  0.6844  0.4346 -0.6198
  412MOL0     O55516   8.644   8.961   7.143 -0.7717  0.0240  0.1919
  412MOL0     C55517   8.516   8.957   7.096  0.2511 -0.7266 -0.0353
  412MOL0     C55518   8.463   9.069   7.047  0.8152 -0.7985  0.1677
  412MOL0     C55519   8.332   9.083   6.996 -0.1526  0.4803  0.0451
  412MOL0     C55520   8.246   8.975   7.019  0.0108  0.1890 -0.4366
  412MOL0     O55521   8.110   8.979   6.998  0.0017 -0.6981 -0.1150
  412MOL0     C55522   8.043   9.108   7.016  0.9197 -0.0053  0.9053
  412MOL0     C55523   7.908   9.081   7.094 -0.4260 -0.1334  0.0482
  412MOL0     C55524   7.813   9.005   7.010 -0.2373  0.2064  0.8842
  412MOL0     C55525   7.687   9.004   7.096 -0.3239  0.0935  0.0567
  412MOL0     C55526   7.580   8.898   7.039 -0.6335  0.5709  0.4796
  412MOL0     C55527   7.433   8.908   7.093 -0.2779 -0.2866 -0.0904
  412MOL0     C55528   7.367   9.039   7.069 -0.7618  0.5189  0.3190
  412MOL0     C55529   7.361   9.078   6.922  0.3662 -0.0688 -0.1464
  412MOL0    Cl55530   7.221   9.187   6.881 -0.0639 -0.1645 -0.1113
  412MOL0     C55531   8.290   8.857   7.065  0.2600  0.0775 -0.3667
  412MOL0     C55532   8.428   8.847   7.104  0.1914 -0.3522  0.0391
  412MOL0     O55533   8.693   8.732   7.132  0.1151 -0.1193  0.6674
  412MOL0     C55534   8.925   8.983   7.177 -0.5893  0.7530 -0.4440
  412MOL0     C55535   9.054   9.009   7.220 -1.4890 -0.7867  0.4001
  412MOL0     N55536   9.757   9.094   7.573 -0.8593 -0.3533  0.1815
  412MOL0     N55537   9.880   9.117   7.557 -0.1706 -0.0835  0.1025
  412MOL0     C55538  10.838   8.663   8.292 -0.0934 -0.8035  0.5735
  412MOL0     C55539  10.942   8.632   8.375 -0.5840  0.0254 -1.1537
  412MOL0     C55540  11.183   8.374   8.684 -1.3498  0.2938 -0.7605
  412MOL0     C55541  11.238   8.249   8.714 -0.3915  0.5924 -0.3532
  412MOL0     C55542  11.360   8.245   8.784 -0.6117  0.4056 -0.4288
  412MOL0     C55543  11.413   8.358   8.846  0.4337 -0.0036 -1.2187
  412MOL0     O55544  11.522   8.358   8.929  0.7299  0.0359 -0.0425
  412MOL0     C55545  11.601   8.243   8.954  0.2792 -0.0831 -0.3914
  412MOL0     C55546  11.703   8.206   8.845 -0.5660  0.0607  0.0356
  412MOL0     C55547  11.792   8.318   8.802  1.0519  1.2396 -0.2970
  412MOL0     C55548  11.890   8.282   8.688  0.0133  0.0502 -0.5029
  412MOL0     C55549  12.002   8.378   8.663  0.9080 -0.8635  0.2195
  412MOL0     C55550  12.107   8.435   8.647 -0.3797 -0.5168 -0.4675
  412MOL0     C55551  11.358   8.484   8.808  0.2199  0.6369  0.4339
  412MOL0     C55552  11.253   8.486   8.720  0.7127  0.4048  0.2263
  412MOL0     H55553  10.761   8.401   8.556 -0.3677  1.2516  1.0928
  412MOL0     H55554  10.592   8.471   8.424 -0.0147  1.8958  3.7756
  412MOL0     H55555  10.657   8.840   8.156  0.5545 -0.8499  2.1877
  412MOL0     H55556  10.695   8.713   8.052  0.6957 -0.4990  1.0479
  412MOL0     H55557  10.466   8.657   8.015 -2.3943  1.3306  0.0334
  412MOL0     H55558  10.427   8.801   8.114  1.0658  1.0872  0.6545
  412MOL0     H55559  10.538   8.949   7.934  1.0422 -0.2664 -0.8346
  412MOL0     H55560  10.612   8.806   7.860 -0.0450 -2.0153  1.5639
  412MOL0     H55561  10.389   8.721   7.786  1.6316  0.1755 -3.0277
  412MOL0     H55562  10.323   8.863   7.869  0.6672 -2.1982  1.9060
  412MOL0     H55563  10.435   9.019   7.676 -0.9081 -0.1975 -2.5002
  412MOL0     H55564  10.515   8.871   7.632 -0.1339 -1.1606  0.9105
  412MOL0     H55565  10.331   8.884   7.481 -0.5650 -2.9589 -0.6760
  412MOL0     H55566  10.285   8.762   7.591 -1.2061  0.1720 -2.6476
  412MOL0     H55567  10.103   8.857   7.684  1.5138 -3.6087 -1.6994
  412MOL0     H55568  10.172   9.026   7.680 -2.3063 -1.1542  2.7091
  412MOL0     H55569  10.100   8.912   7.417  1.5116 -0.2078  0.3257
  412MOL0     H55570  10.132   9.067   7.466 -0.6783 -1.4038 -2.4311
  412MOL0     H55571   9.886   8.791   7.566  0.6870 -0.0894 -2.0118
  412MOL0     H55572   9.609   8.781   7.595 -1.5053 -1.7651  6.6334
  412MOL0     H55573   9.589   8.899   7.720 -0.0012  1.4323 -0.7793
  412MOL0     H55574   9.502   8.934   7.422 -0.9186  0.2486 -0.0380
  412MOL0     H55575   9.492   9.051   7.567 -0.1197 -1.0510  3.5526
  412MOL0     H55576   9.343   8.895   7.677 -0.8914  1.1325  0.3075
  412MOL0     H55577   9.355   8.781   7.542  0.9885  0.2321 -1.9617
  412MOL0     H55578   9.267   9.070   7.506 -0.6869  0.4050  1.4423
  412MOL0     H55579   9.144   8.943   7.532  0.0914  2.0571 -0.7362
  412MOL0     H55580   9.100   8.747   7.413 -2.1500 -1.0627  0.2258
  412MOL0     H55581   8.835   8.580   7.275  1.2113 -1.3818  1.0790
  412MOL0     H55582   8.909   8.594   7.435 -2.2566  0.3892  2.0822
  412MOL0     H55583   8.766   8.690   7.401 -0.2571  1.7941 -2.3283
  412MOL0     H55584   8.532   9.152   7.032 -2.5753  2.7324  2.1780
  412MOL0     H55585   8.299   9.179   6.956  0.0404  0.9453  0.9697
  412MOL0     H55586   8.105   9.174   7.077  1.8181 -0.0649  0.0859
  412MOL0     H55587   8.023   9.161   6.923 -0.6684 -2.5558 -0.3347
  412MOL0     H55588   7.926   9.016   7.180 -3.0967 -0.9598  0.0461
  412MOL0     H55589   7.870   9.178   7.126  3.1149  1.2992  0.4747
  412MOL0     H55590   7.849   8.902   7.000 -0.4608  0.0804  1.3687
  412MOL0     H55591   7.791   9.044   6.910  4.0590 -0.8636 -0.7188
  412MOL0     H55592   7.715   8.971   7.196  0.7453 -0.5894 -0.4443
  412MOL0     H55593   7.644   9.104   7.104 -2.6829 -0.5652 -2.6255
  412MOL0     H55594   7.616   8.803   7.081  1.9132  0.3616 -1.9246
  412MOL0     H55595   7.581   8.905   6.930 -1.1153 -1.8130  0.2551
  412MOL0     H55596   7.384   8.828   7.037  0.8394  0.8067 -2.8018
  412MOL0     H55597   7.422   8.884   7.199 -1.7577 -1.7029 -0.5344
  412MOL0     H55598   7.416   9.115   7.131 -0.4732  0.9000 -0.3474
  412MOL0     H55599   7.264   9.021   7.097 -1.6311  0.1221 -2.7452
  412MOL0     H55600   7.339   8.994   6.857 -1.9559 -0.3047  0.8324
  412MOL0     H55601   7.450   9.133   6.892  0.4263  0.7471  1.3875
  412MOL0     H55602   8.214   8.782   7.081  0.7166  0.2766  3.7717
  412MOL0     H55603   8.455   8.761   7.164 -0.4661 -1.2900 -0.9717
  412MOL0     H55604   8.881   9.049   7.103  3.3286 -0.3574 -4.2219
  412MOL0     H55605   9.104   9.103   7.202  6.6099 -3.5627  3.7049
  412MOL0     H55606  10.858   8.728   8.207  0.3815 -0.2285  1.1144
  412MOL0     H55607  11.035   8.687   8.367 -0.3420  0.1488  1.6110
  412MOL0     H55608  11.191   8.159   8.676  0.5438  1.0749 -2.8881
  412MOL0     H55609  11.403   8.146   8.786  1.1737  1.1296 -1.0521
  412MOL0     H55610  11.664   8.267   9.040  0.8516  1.4496 -1.2082
  412MOL0     H55611  11.540   8.159   8.989  3.4530 -1.2294  2.9502
  412MOL0     H55612  11.660   8.158   8.756 -0.1236 -1.5407  0.6595
  412MOL0     H55613  11.770   8.130   8.886  0.1255  1.4786  1.6372
  412MOL0     H55614  11.839   8.354   8.893 -2.8032  2.4879  1.3895
  412MOL0     H55615  11.723   8.401   8.783  0.5982  1.3715  1.7571
  412MOL0     H55616  11.825   8.285   8.600 -0.3527  1.0044 -0.2165
  412MOL0     H55617  11.933   8.182   8.692 -2.5104 -1.3322 -3.2383
  412MOL0     H55618  12.196   8.489   8.619 -2.6953  2.0072 -3.7626
  412MOL0     H55619  11.386   8.583   8.842  0.1420  1.6446 -2.1769
  412MOL0     H55620  11.214   8.583   8.691  0.6021 -0.2814 -2.0890
  413MOL0     O55621   8.357  10.085   1.849 -0.0507 -0.4530  0.6728
  413MOL0     C55622   8.414  10.150   1.931  0.4360 -0.3258 -0.6049
  413MOL0     O55623   8.346  10.236   2.019  0.0573  0.1991 -0.5405
  413MOL0     C55624   8.204  10.232   2.009 -0.2352  0.5893 -0.6008
  413MOL0     C55625   8.138  10.210   2.132 -0.1434  0.2827  0.2256
  413MOL0     C55626   7.992  10.207   2.133  0.0651  0.7152 -0.2321
  413MOL0     C55627   7.921  10.234   2.020 -0.2892 -0.4783  0.3791
  413MOL0     O55628   7.785  10.238   2.021 -0.7117  0.8755 -0.3962
  413MOL0     C55629   7.711  10.261   1.897 -0.4378  0.3290 -0.3271
  413MOL0     C55630   7.568  10.270   1.939  0.0114  0.0190 -0.4426
  413MOL0     C55631   7.477  10.308   1.826 -0.0478 -0.4833 -0.0897
  413MOL0     C55632   7.331  10.306   1.877 -0.5806 -0.2936 -0.6268
  413MOL0     C55633   7.228  10.358   1.775 -0.2323 -0.0830  0.0590
  413MOL0     C55634   7.089  10.300   1.816 -0.1297 -0.1564  0.0249
  413MOL0     C55635   6.986  10.312   1.704 -0.2552 -1.1003  0.3907
  413MOL0     C55636   7.013  10.213   1.606  0.1841 -0.0191  0.8013
  413MOL0     N55637   6.915  10.224   1.495  0.3410 -0.6470  0.3607
  413MOL0     C55638   6.942  10.237   1.364  0.1030 -0.4899  0.8856
  413MOL0     C55639   6.819  10.226   1.301 -0.0178 -0.2098 -0.0697
  413MOL0     C55640   6.799  10.229   1.155 -0.0200 -0.8572  0.2821
  413MOL0     C55641   6.752  10.099   1.088  0.1816  0.2671  0.2697
  413MOL0     C55642   6.607  10.058   1.114  0.7776  0.2459 -0.1514
  413MOL0     C55643   6.569   9.952   1.010  1.2227 -0.4571 -0.1522
  413MOL0     O55644   6.542   9.997   0.872  0.0066 -0.1490 -1.1618
  413MOL0     C55645   6.432  10.073   0.848 -0.0314  0.1796 -0.3563
  413MOL0     C55646   6.330  10.106   0.942  0.6490 -0.0816  0.0930
  413MOL0     C55647   6.221  10.190   0.904  0.2448  0.3487 -0.5988
  413MOL0     C55648   6.125  10.221   1.013  0.8139 -0.2714 -0.1520
  413MOL0     C55649   6.198  10.238   0.771 -0.6075 -1.0206  0.2705
  413MOL0     C55650   6.097  10.316   0.712 -0.1703  0.8126 -0.0937
  413MOL0     O55651   6.135  10.397   0.611  0.4523 -0.6391 -0.2299
  413MOL0     C55652   6.039  10.485   0.572 -0.0482 -0.6423 -0.3048
  413MOL0     C55653   5.936  10.452   0.477  0.5845  0.4501 -0.1329
  413MOL0     C55654   5.853  10.556   0.429  0.5437  0.7257  0.2171
  413MOL0     C55655   5.862  10.687   0.480  0.2104 -0.4078 -0.2822
  413MOL0     O55656   5.795  10.806   0.448 -0.0287 -0.2459 -0.7749
  413MOL0     C55657   5.750  10.809   0.315 -0.4078  0.7971  0.2584
  413MOL0     C55658   5.669  10.933   0.291 -0.8241  0.2233 -0.4074
  413MOL0     C55659   5.754  11.061   0.288 -1.1544 -0.1407  0.7292
  413MOL0     C55660   5.846  11.081   0.418  0.0518  0.6960  0.3147
  413MOL0     C55661   5.896  11.224   0.429  0.1455  0.9278 -0.0165
  413MOL0     C55662   5.965  11.259   0.560 -0.1382  0.2982  0.1729
  413MOL0     C55663   5.992  11.411   0.568 -0.0634  0.5598  0.3304
  413MOL0     C55664   6.095  11.453   0.669 -0.3284  0.0229  0.3851
  413MOL0    Cl55665   6.045  11.443   0.842 -0.3538  0.2161 -0.2502
  413MOL0     C55666   5.952  10.706   0.581 -0.0675 -0.4300  0.2351
  413MOL0     C55667   6.041  10.611   0.627 -0.5812  0.2285 -0.3135
  413MOL0     O55668   5.989  10.309   0.760  0.3494  0.0371 -0.3536
  413MOL0     C55669   6.303  10.195   0.679 -0.3972 -0.4797  0.2646
  413MOL0     C55670   6.416  10.116   0.716  1.2295  0.5178  0.9991
  413MOL0     N55671   6.726  10.196   1.398  0.1035 -0.4756  0.0479
  413MOL0     N55672   6.784  10.206   1.508 -0.0786 -0.0231  0.2769
  413MOL0     C55673   7.992  10.277   1.903 -0.3813  0.5078 -0.5462
  413MOL0     C55674   8.131  10.281   1.904 -0.2643 -0.6872  0.4533
  413MOL0     C55675   8.566  10.151   1.938 -0.6901 -1.4195  0.3112
  413MOL0     C55676   8.634  10.071   1.847  0.4202 -0.2319  0.0548
  413MOL0     C55677   8.774  10.058   1.851 -0.6796  0.5046  0.2335
  413MOL0     C55678   8.849  10.124   1.951 -0.5994  0.5816  0.1880
  413MOL0     O55679   8.987  10.096   1.964  1.2561  0.9084 -0.0994
  413MOL0     C55680   9.067  10.198   1.996 -1.0693 -1.4761  0.0166
  413MOL0     C55681   9.202  10.192   1.918  0.5470  0.3608 -0.4258
  413MOL0     C55682   9.188  10.260   1.778 -0.9826 -0.0752 -0.4202
  413MOL0     C55683   9.262  10.183   1.674  0.3669 -0.0537 -0.2305
  413MOL0     C55684   9.181  10.061   1.631 -0.6641 -1.0294 -0.6399
  413MOL0     C55685   9.100   9.973   1.607 -0.5063 -0.5754 -0.4458
  413MOL0     C55686   8.780  10.219   2.034  0.3404  0.1053 -0.1563
  413MOL0     C55687   8.640  10.239   2.028 -0.6485  0.7472 -0.6876
  413MOL0     H55688   8.209  10.181   2.209  3.1272  0.6599 -2.4165
  413MOL0     H55689   7.938  10.162   2.216 -2.1237 -0.4045 -2.1179
  413MOL0     H55690   7.748  10.350   1.846  0.0597 -0.1573 -0.8339
  413MOL0     H55691   7.730  10.174   1.833  0.7647 -0.6985  1.3317
  413MOL0     H55692   7.541  10.171   1.977  0.4781 -0.1577 -0.5660
  413MOL0     H55693   7.567  10.344   2.020 -1.8336 -0.8146  0.3849
  413MOL0     H55694   7.509  10.401   1.779 -2.5400 -0.2847 -1.5686
  413MOL0     H55695   7.498  10.227   1.755 -0.5336 -1.7481  1.1796
  413MOL0     H55696   7.296  10.211   1.919 -0.5623  0.1501  0.4352
  413MOL0     H55697   7.339  10.373   1.963  1.6460  2.9595 -3.1374
  413MOL0     H55698   7.229  10.467   1.784  1.4116 -0.2858  3.6762
  413MOL0     H55699   7.260  10.321   1.677 -1.5278 -2.7220  0.5525
  413MOL0     H55700   7.098  10.195   1.847 -1.4483  0.0991  1.3744
  413MOL0     H55701   7.038  10.355   1.895 -0.9828  2.1253 -1.9658
  413MOL0     H55702   6.885  10.299   1.743  1.6325 -2.1458  5.7531
  413MOL0     H55703   6.988  10.410   1.655 -4.2594 -2.7534 -3.7747
  413MOL0     H55704   7.005  10.109   1.641  2.6365 -0.8009 -0.7338
  413MOL0     H55705   7.109  10.244   1.565  0.0008 -0.6200 -0.1131
  413MOL0     H55706   7.036  10.264   1.318  0.3682 -0.4712  1.4342
  413MOL0     H55707   6.731  10.314   1.144 -0.4245 -1.4002 -1.6153
  413MOL0     H55708   6.895  10.252   1.107 -0.4475  2.3696  0.6988
  413MOL0     H55709   6.823  10.023   1.121  0.3416  0.5154  0.4928
  413MOL0     H55710   6.758  10.106   0.979  1.5756 -2.9271  0.0125
  413MOL0     H55711   6.540  10.143   1.101 -3.8686 -2.9824 -0.0425
  413MOL0     H55712   6.601  10.020   1.217  1.9043 -0.6428 -0.3870
  413MOL0     H55713   6.478   9.906   1.049  1.5888  1.3016  3.1678
  413MOL0     H55714   6.646   9.874   1.008  2.8078  1.0390 -0.4062
  413MOL0     H55715   6.340  10.069   1.044  1.8322 -3.6988 -1.1820
  413MOL0     H55716   6.143  10.328   1.025  0.7993 -0.4708  1.9215
  413MOL0     H55717   6.019  10.195   1.005  0.9465 -1.2487  0.9794
  413MOL0     H55718   6.165  10.165   1.098  5.7888 -1.8985 -3.1399
  413MOL0     H55719   5.924  10.353   0.433  4.5770 -0.0666 -0.4951
  413MOL0     H55720   5.777  10.542   0.353  1.7822  2.0285 -1.3539
  413MOL0     H55721   5.830  10.814   0.240  0.0539 -0.5483  0.6201
  413MOL0     H55722   5.682  10.725   0.302 -1.2017  1.1148  2.0837
  413MOL0     H55723   5.624  10.924   0.191 -0.1787 -0.5173 -0.6433
  413MOL0     H55724   5.586  10.924   0.361 -1.9191 -4.7251 -1.9400
  413MOL0     H55725   5.682  11.142   0.277  0.4946  1.0587 -2.9360
  413MOL0     H55726   5.822  11.067   0.203  0.0516 -1.3856  1.5476
  413MOL0     H55727   5.776  11.067   0.501 -2.0225  1.9499 -1.1460
  413MOL0     H55728   5.927  11.008   0.423 -0.4049 -0.2194 -3.1587
  413MOL0     H55729   5.809  11.291   0.423 -0.2678  0.3393 -0.7178
  413MOL0     H55730   5.970  11.238   0.349  1.4593 -2.9398  0.3423
  413MOL0     H55731   5.894  11.233   0.640  1.3696  1.5373  2.0031
  413MOL0     H55732   6.050  11.190   0.569  0.3358  1.0157  1.4614
  413MOL0     H55733   5.904  11.472   0.594 -0.3124 -0.0276  0.8822
  413MOL0     H55734   6.022  11.437   0.466  0.7162 -0.9167  0.1584
  413MOL0     H55735   6.135  11.552   0.647 -0.4532  0.2217  1.0557
  413MOL0     H55736   6.185  11.391   0.658  0.4000  1.0879  0.1264
  413MOL0     H55737   5.959  10.811   0.609  0.7306 -0.5686  0.5995
  413MOL0     H55738   6.125  10.634   0.692 -0.9009 -1.6824  0.8752
  413MOL0     H55739   6.300  10.206   0.571 -1.1324 -4.5593 -0.3004
  413MOL0     H55740   6.490  10.084   0.643  0.5987 -0.1749  0.6550
  413MOL0     H55741   7.944  10.292   1.807  0.6355 -2.5307 -1.6424
  413MOL0     H55742   8.176  10.332   1.820  1.6093 -2.3844  0.3475
  413MOL0     H55743   8.585  10.012   1.770  1.2279 -0.7632 -0.0525
  413MOL0     H55744   8.831   9.994   1.785  1.9322  0.6969  2.1511
  413MOL0     H55745   9.020  10.293   1.968  1.5508 -0.8747 -3.1141
  413MOL0     H55746   9.078  10.198   2.104  0.7344  0.3773 -0.1034
  413MOL0     H55747   9.256  10.097   1.911 -0.9592 -0.5935  0.2901
  413MOL0     H55748   9.268  10.256   1.978  0.2533  0.0359  0.2573
  413MOL0     H55749   9.251  10.349   1.788 -2.2753  0.7376  1.0030
  413MOL0     H55750   9.087  10.283   1.743  0.3447  2.5338 -2.9100
  413MOL0     H55751   9.363  10.171   1.713 -0.5970 -1.0819  2.1218
  413MOL0     H55752   9.273  10.253   1.591 -1.4888  1.7413  0.9354
  413MOL0     H55753   9.028   9.898   1.585 -0.9563 -0.0159 -0.9242
  413MOL0     H55754   8.825  10.287   2.105  0.5077 -1.8927  1.7390
  413MOL0     H55755   8.596  10.317   2.089  0.3945 -1.4150  3.2640
  414MOL0     O55756   8.665   8.049   3.816 -0.0209 -0.4094  0.4802
  414MOL0     C55757   8.624   8.013   3.700 -0.9385 -0.8425 -1.0544
  414MOL0     O55758   8.508   7.950   3.667 -0.3017 -0.3149  0.3410
  414MOL0     C55759   8.419   7.924   3.772 -0.2251  0.9219 -0.0371
  414MOL0     C55760   8.361   8.016   3.865  0.6515 -0.2241 -0.3390
  414MOL0     C55761   8.297   7.972   3.980  0.1168 -0.5196  0.4866
  414MOL0     C55762   8.263   7.838   4.001  0.1172  0.2912 -0.3562
  414MOL0     O55763   8.195   7.792   4.112 -0.8252 -0.0351  0.2653
  414MOL0     C55764   8.110   7.883   4.173  0.7238 -0.2841  0.7362
  414MOL0     C55765   7.992   7.820   4.239  0.5842  0.1029  0.3148
  414MOL0     C55766   7.939   7.915   4.339  0.4270 -1.1343 -0.6205
  414MOL0     C55767   8.021   7.922   4.472 -0.1210  0.8024 -0.5373
  414MOL0     C55768   7.957   8.013   4.579  0.6561 -0.3755  0.1207
  414MOL0     C55769   8.024   8.026   4.720  0.2181 -0.1241  0.6378
  414MOL0     C55770   8.173   8.072   4.722 -0.7633 -0.5506  0.7824
  414MOL0     C55771   8.221   8.114   4.862 -0.8604  0.1294 -1.0762
  414MOL0     N55772   8.191   8.022   4.976  0.5210  0.6035  0.5913
  414MOL0     C55773   8.077   7.994   5.044 -0.1262  0.3530  0.2852
  414MOL0     C55774   8.102   7.915   5.149  0.1604 -0.8323 -0.7294
  414MOL0     C55775   8.019   7.879   5.268  0.4723  0.3401  0.1956
  414MOL0     C55776   8.037   7.743   5.329  0.3052 -0.3892  0.3593
  414MOL0     C55777   8.153   7.752   5.428  0.2462  0.3156  0.9568
  414MOL0     C55778   8.173   7.614   5.473  0.3928  0.3899 -0.1831
  414MOL0     O55779   8.252   7.607   5.592 -0.1005  0.3467 -0.4514
  414MOL0     C55780   8.384   7.629   5.579 -0.7475  0.2273  0.5551
  414MOL0     C55781   8.455   7.652   5.700 -0.8920  0.1691 -0.9775
  414MOL0     C55782   8.590   7.692   5.706  0.2745 -0.4601  0.4653
  414MOL0     C55783   8.642   7.731   5.838  0.7239 -0.5809  0.4785
  414MOL0     C55784   8.649   7.714   5.585  0.5247 -0.0346  0.5118
  414MOL0     C55785   8.788   7.746   5.578 -0.2562 -0.0284  0.4011
  414MOL0     O55786   8.864   7.722   5.688  0.6422 -0.6985  0.6451
  414MOL0     C55787   9.001   7.735   5.697 -0.5329  0.4879 -0.5395
  414MOL0     C55788   9.090   7.739   5.594 -0.3983 -0.1407 -0.4448
  414MOL0     C55789   9.230   7.749   5.614 -0.1751 -0.2700 -0.0158
  414MOL0     C55790   9.276   7.752   5.749  0.9667 -1.0058  0.6944
  414MOL0     O55791   9.409   7.769   5.759  0.4783 -0.8854 -0.2736
  414MOL0     C55792   9.450   7.877   5.848 -1.0975  0.3834  0.7501
  414MOL0     C55793   9.594   7.928   5.831 -0.1024 -0.0160  0.0169
  414MOL0     C55794   9.600   8.028   5.717  0.2989 -0.0031  0.7759
  414MOL0     C55795   9.617   7.953   5.583  0.3664  0.2337 -0.0472
  414MOL0     C55796   9.543   8.015   5.463  0.1094 -0.5131 -0.1301
  414MOL0     C55797   9.571   7.930   5.336  1.0277  0.4121  0.8895
  414MOL0     C55798   9.516   7.998   5.207  0.5868 -0.9350  0.9605
  414MOL0     C55799   9.562   7.916   5.087  0.2403 -0.4316  0.3031
  414MOL0    Cl55800   9.456   7.774   5.077  0.0583 -0.1363 -0.1665
  414MOL0     C55801   9.188   7.734   5.859 -0.5338  0.7818 -0.1820
  414MOL0     C55802   9.054   7.729   5.829 -0.2997  0.3248 -0.7190
  414MOL0     O55803   8.815   7.812   5.477  0.2692  0.5323  0.1948
  414MOL0     C55804   8.585   7.679   5.461 -1.2326 -0.1801  0.6716
  414MOL0     C55805   8.459   7.642   5.456  0.5180 -0.0911 -0.3859
  414MOL0     N55806   8.235   7.880   5.126 -1.1071  0.4175  0.8293
  414MOL0     N55807   8.287   7.945   5.028  0.6892  0.4916 -0.2151
  414MOL0     C55808   8.312   7.755   3.904 -0.5906 -0.3428 -0.6307
  414MOL0     C55809   8.380   7.793   3.790  0.4577 -0.1102  0.4458
  414MOL0     C55810   8.730   8.026   3.598  0.1093  0.3710  1.6337
  414MOL0     C55811   8.695   8.008   3.462  0.4360 -0.0413  0.4177
  414MOL0     C55812   8.786   8.023   3.359 -0.6722 -0.6217  0.1922
  414MOL0     C55813   8.919   8.054   3.393  0.1487 -0.8884 -0.6234
  414MOL0     O55814   9.006   8.067   3.285 -0.0868  0.1459 -0.3217
  414MOL0     C55815   9.144   8.076   3.295  0.6389  0.3907 -0.2965
  414MOL0     C55816   9.196   8.217   3.321 -0.2736 -0.8229  0.7605
  414MOL0     C55817   9.152   8.317   3.211  0.8982 -0.6445  0.7537
  414MOL0     C55818   9.189   8.464   3.237  0.1871  0.9906 -0.7282
  414MOL0     C55819   9.174   8.543   3.115 -0.5631  0.2441  0.1727
  414MOL0     C55820   9.152   8.640   3.038  0.1795  0.7557  0.0117
  414MOL0     C55821   8.949   8.075   3.526 -0.1278 -0.0289  0.2114
  414MOL0     C55822   8.863   8.065   3.630 -0.0986 -0.0500  0.2049
  414MOL0     H55823   8.394   8.119   3.861  2.3332 -0.6744  0.9046
  414MOL0     H55824   8.264   8.049   4.049 -1.8830  0.1376 -1.1136
  414MOL0     H55825   8.153   7.951   4.247 -2.4034  1.9828  0.6671
  414MOL0     H55826   8.077   7.948   4.092 -1.1803 -2.3603 -0.2831
  414MOL0     H55827   7.921   7.791   4.161 -0.4352 -1.1869  1.6543
  414MOL0     H55828   8.014   7.719   4.275  0.2565 -0.4549 -0.9781
  414MOL0     H55829   7.932   8.011   4.287  0.6945 -1.1998 -0.7756
  414MOL0     H55830   7.836   7.882   4.356 -1.2816  2.2396 -3.2537
  414MOL0     H55831   8.033   7.818   4.506 -1.9882  0.3417 -1.1438
  414MOL0     H55832   8.120   7.968   4.464  0.4233 -0.4717 -1.4805
  414MOL0     H55833   7.957   8.115   4.540 -1.4570 -1.1135 -2.0805
  414MOL0     H55834   7.850   7.988   4.587 -0.8976  4.4153 -1.8304
  414MOL0     H55835   7.972   8.100   4.783 -0.5659 -1.6470  1.8546
  414MOL0     H55836   8.018   7.927   4.767 -0.2049 -0.4651 -0.1226
  414MOL0     H55837   8.226   7.984   4.684 -1.5937 -1.8337  2.4271
  414MOL0     H55838   8.195   8.152   4.651 -0.5763 -3.0169 -2.1517
  414MOL0     H55839   8.172   8.210   4.877  2.4277  2.1596 -2.1672
  414MOL0     H55840   8.329   8.130   4.858 -0.5173 -1.0736  1.4969
  414MOL0     H55841   7.976   8.023   5.018 -0.8425 -1.9772  0.2106
  414MOL0     H55842   8.031   7.955   5.345  1.5787 -2.6268  3.1869
  414MOL0     H55843   7.912   7.892   5.246  0.9273  2.6825 -0.9367
  414MOL0     H55844   8.050   7.663   5.255 -4.7390  2.3238 -4.1720
  414MOL0     H55845   7.946   7.715   5.382 -0.5871  1.1721 -0.2874
  414MOL0     H55846   8.119   7.812   5.513 -0.6385 -0.2538  1.0126
  414MOL0     H55847   8.245   7.784   5.377  0.4374 -1.2010  0.2994
  414MOL0     H55848   8.219   7.545   5.401  0.4919 -0.3918  0.6143
  414MOL0     H55849   8.072   7.579   5.499  0.2693  0.9374  0.0878
  414MOL0     H55850   8.386   7.635   5.782 -1.8488 -1.7125 -2.1175
  414MOL0     H55851   8.694   7.826   5.821  2.1833 -1.1154  1.6745
  414MOL0     H55852   8.557   7.747   5.904 -0.6439 -0.2569 -1.2894
  414MOL0     H55853   8.708   7.648   5.864  1.6375 -0.6795 -1.8598
  414MOL0     H55854   9.046   7.728   5.496 -1.0234  0.8465 -0.2925
  414MOL0     H55855   9.309   7.758   5.541 -0.0906  0.5309  0.1697
  414MOL0     H55856   9.382   7.962   5.839 -0.8670  0.5306  0.4312
  414MOL0     H55857   9.433   7.835   5.948 -0.3654  0.1053  0.7629
  414MOL0     H55858   9.623   7.988   5.917  1.1287 -1.3518  0.5832
  414MOL0     H55859   9.669   7.849   5.826  0.4883  0.5988 -1.3434
  414MOL0     H55860   9.687   8.095   5.722  0.8444 -0.5781 -0.6037
  414MOL0     H55861   9.514   8.095   5.703  3.1281  3.9799  0.5174
  414MOL0     H55862   9.725   7.959   5.570  0.3170 -1.6917 -1.9328
  414MOL0     H55863   9.589   7.847   5.587 -2.8828  0.8828 -1.9463
  414MOL0     H55864   9.576   8.119   5.457  0.4682 -0.6129  0.0859
  414MOL0     H55865   9.434   8.025   5.470  0.0693  2.5568 -3.0008
  414MOL0     H55866   9.680   7.922   5.329  1.2706  3.8332 -0.8830
  414MOL0     H55867   9.532   7.828   5.348  4.4298 -0.9165  1.8327
  414MOL0     H55868   9.556   8.097   5.184 -0.9571 -0.7994 -1.4408
  414MOL0     H55869   9.406   7.999   5.210  0.5770 -1.8199  1.2930
  414MOL0     H55870   9.668   7.889   5.085  0.2286 -0.5088  0.6539
  414MOL0     H55871   9.543   7.966   4.992  0.0902 -4.2079 -1.8770
  414MOL0     H55872   9.225   7.718   5.959 -1.5485  1.9770  0.4063
  414MOL0     H55873   8.991   7.765   5.909  0.8186  0.5128  0.0970
  414MOL0     H55874   8.621   7.671   5.359  0.8922  0.6932  1.2907
  414MOL0     H55875   8.418   7.611   5.360 -2.3768 -2.7153  1.4663
  414MOL0     H55876   8.288   7.649   3.907  2.3830 -1.1108 -0.7585
  414MOL0     H55877   8.416   7.723   3.716  1.3800  1.2380 -0.4246
  414MOL0     H55878   8.597   7.980   3.426  1.5331 -0.7769 -2.2424
  414MOL0     H55879   8.756   8.015   3.255 -3.0827 -0.6425  0.8418
  414MOL0     H55880   9.186   8.002   3.365  1.3205  0.9183 -0.1389
  414MOL0     H55881   9.177   8.043   3.196  1.2782  0.6693 -0.1843
  414MOL0     H55882   9.304   8.214   3.334  0.4353  1.2214 -3.0236
  414MOL0     H55883   9.150   8.251   3.414 -1.7177 -0.7536  0.0619
  414MOL0     H55884   9.046   8.310   3.183  0.7081  1.9282  0.5119
  414MOL0     H55885   9.212   8.300   3.121 -1.2227 -0.1855 -0.8260
  414MOL0     H55886   9.292   8.472   3.272  0.6399  1.3509 -2.1010
  414MOL0     H55887   9.130   8.504   3.320  0.1502 -1.4049  0.4847
  414MOL0     H55888   9.136   8.736   2.992 -0.5381  1.1653  1.0777
  414MOL0     H55889   9.046   8.110   3.560 -0.9639  0.9747  1.6744
  414MOL0     H55890   8.904   8.077   3.729  1.3293 -0.0005 -0.3717
  415MOL0     O55891   8.303   6.093   9.286  0.2753 -0.0814 -0.0987
  415MOL0     C55892   8.363   6.195   9.305 -0.4488  0.0998  0.0837
  415MOL0     O55893   8.320   6.292   9.404  1.3083  1.5569  0.3258
  415MOL0     C55894   8.210   6.279   9.486 -0.4963  0.5926 -0.6495
  415MOL0     C55895   8.219   6.259   9.626 -0.3733 -0.5454  0.2572
  415MOL0     C55896   8.106   6.270   9.705 -0.8528  0.2847  1.1631
  415MOL0     C55897   7.977   6.282   9.649 -0.4932 -0.5613  0.0348
  415MOL0     O55898   7.872   6.267   9.742  0.4677 -0.1493  0.3333
  415MOL0     C55899   7.735   6.236   9.703  0.6012  0.5461  0.7835
  415MOL0     C55900   7.667   6.362   9.673  0.0114 -0.2201 -0.1708
  415MOL0     C55901   7.516   6.337   9.663  0.1338 -0.5437  0.6533
  415MOL0     C55902   7.439   6.469   9.630  0.4756 -0.6910  0.5239
  415MOL0     C55903   7.295   6.462   9.612  0.4528  0.4072  1.0027
  415MOL0     C55904   7.216   6.413   9.731  0.0182 -0.3461  0.0895
  415MOL0     C55905   7.076   6.467   9.727 -0.1143 -0.0988  0.2416
  415MOL0     C55906   6.993   6.392   9.833 -0.0880 -0.5941  1.1301
  415MOL0     N55907   6.903   6.484   9.904 -0.2436 -0.2042 -0.3020
  415MOL0     C55908   6.954   6.562  10.003  0.7750  1.0245 -0.0590
  415MOL0     C55909   6.853   6.644  10.024  0.2903 -0.1689  0.8214
  415MOL0     C55910   6.847   6.745  10.135 -1.4572 -0.4236  0.1829
  415MOL0     C55911   6.874   6.880  10.074  0.0442 -1.1431  0.2847
  415MOL0     C55912   6.886   6.989  10.184 -0.4288  0.2556  0.3190
  415MOL0     C55913   6.764   7.019  10.273 -0.3392  0.0664  0.3510
  415MOL0     O55914   6.730   6.922  10.378  0.0693 -0.3922 -0.2008
  415MOL0     C55915   6.605   6.870  10.362  0.3439 -0.1251 -0.4170
  415MOL0     C55916   6.488   6.950  10.353 -1.0540  0.6526 -0.3840
  415MOL0     C55917   6.363   6.884  10.383  0.6437 -0.5812 -0.0326
  415MOL0     C55918   6.239   6.967  10.389  0.6901 -0.2590 -0.1905
  415MOL0     C55919   6.357   6.745  10.415 -0.4733 -0.2159  0.1426
  415MOL0     C55920   6.229   6.677  10.428  0.4288  0.7102 -0.5788
  415MOL0     O55921   6.203   6.599  10.543  0.3627  0.6435 -0.4006
  415MOL0     C55922   6.081   6.547  10.565 -0.1817  0.7952  0.5092
  415MOL0     C55923   5.968   6.614  10.523  0.3827 -0.0220 -0.2312
  415MOL0     C55924   5.845   6.551  10.546 -0.3593 -0.5694  0.6504
  415MOL0     C55925   5.833   6.425  10.609 -0.8645 -0.4760  0.0411
  415MOL0     O55926   5.708   6.374  10.631  0.3614 -0.1845  0.5597
  415MOL0     C55927   5.604   6.441  10.709 -0.7442  0.8668  0.0197
  415MOL0     C55928   5.546   6.348  10.824 -0.5795  0.3830  0.5017
  415MOL0     C55929   5.631   6.372  10.948  0.0388  0.3523 -0.7143
  415MOL0     C55930   5.589   6.274  11.066 -1.5482  0.0872 -1.2078
  415MOL0     C55931   5.457   6.318  11.142  0.7256  0.1173  0.0800
  415MOL0     C55932   5.435   6.268  11.284  0.3241  0.6266 -0.2647
  415MOL0     C55933   5.429   6.110  11.308 -1.2219  0.7991  0.2673
  415MOL0     C55934   5.417   6.066  11.450 -0.0458  0.7406 -1.1560
  415MOL0    Cl55935   5.559   6.097  11.556 -0.1076 -0.3923 -0.0714
  415MOL0     C55936   5.950   6.353  10.645 -0.1633  0.4327 -0.0069
  415MOL0     C55937   6.077   6.417  10.630  0.3439  0.2191 -0.4262
  415MOL0     O55938   6.161   6.671  10.328  0.5296  0.4241 -0.0120
  415MOL0     C55939   6.474   6.670  10.430 -0.1245  0.1044  0.1654
  415MOL0     C55940   6.593   6.742  10.409  0.0845 -0.7607  0.7783
  415MOL0     N55941   6.751   6.628   9.936  0.4117 -0.2765  0.9773
  415MOL0     N55942   6.776   6.522   9.872  0.2039  0.2099  0.7031
  415MOL0     C55943   7.966   6.304   9.511  0.8002  0.0277 -1.4001
  415MOL0     C55944   8.077   6.285   9.430 -0.7182 -0.3060 -1.4653
  415MOL0     C55945   8.483   6.216   9.226  0.3575 -0.7550 -0.0784
  415MOL0     C55946   8.533   6.117   9.143 -0.5019  0.3902  0.3336
  415MOL0     C55947   8.622   6.143   9.038  0.1572 -0.5296 -0.4082
  415MOL0     C55948   8.659   6.276   9.022 -0.8000 -0.0564 -1.3792
  415MOL0     O55949   8.716   6.326   8.909  0.0459 -0.3534 -0.2988
  415MOL0     C55950   8.728   6.251   8.784 -0.3198  0.1916  0.2549
  415MOL0     C55951   8.771   6.346   8.671  0.4534  0.1668 -1.2685
  415MOL0     C55952   8.917   6.398   8.693  0.1294 -0.1981 -0.3709
  415MOL0     C55953   8.958   6.468   8.570  0.2632 -0.4295 -0.2778
  415MOL0     C55954   8.990   6.391   8.449 -0.2651 -0.5524  0.1023
  415MOL0     C55955   9.033   6.355   8.335  0.2270 -0.2386  0.2397
  415MOL0     C55956   8.626   6.373   9.117  0.9429  0.0075 -0.4357
  415MOL0     C55957   8.541   6.340   9.222  0.7572 -0.5904 -0.6816
  415MOL0     H55958   8.320   6.243   9.662 -1.2201 -0.6543  2.7687
  415MOL0     H55959   8.129   6.255   9.809  0.7694  0.7410  0.8912
  415MOL0     H55960   7.734   6.185   9.606  3.3864 -0.0111  0.9680
  415MOL0     H55961   7.684   6.188   9.786  0.1457  0.0968  0.2572
  415MOL0     H55962   7.682   6.427   9.759 -0.8402 -0.3459  0.0773
  415MOL0     H55963   7.712   6.406   9.583 -0.9829  0.6436 -0.2606
  415MOL0     H55964   7.502   6.267   9.581  0.7657 -2.8464  2.3966
  415MOL0     H55965   7.480   6.301   9.760 -2.1193  2.2404  0.9902
  415MOL0     H55966   7.463   6.546   9.703 -3.0256  0.3902  0.7154
  415MOL0     H55967   7.481   6.502   9.535  0.2062  1.9695  1.2534
  415MOL0     H55968   7.262   6.558   9.570  3.0882 -0.0480 -2.6048
  415MOL0     H55969   7.272   6.391   9.533  0.6934 -0.0988  1.3852
  415MOL0     H55970   7.211   6.303   9.727 -1.5327 -0.3472  1.0795
  415MOL0     H55971   7.255   6.456   9.824 -1.2794  1.1836 -0.0355
  415MOL0     H55972   7.073   6.575   9.747  3.1266  0.2900 -0.8090
  415MOL0     H55973   7.026   6.446   9.632  1.1394  1.2806 -0.7656
  415MOL0     H55974   7.066   6.347   9.902  2.1395  1.6222  0.3869
  415MOL0     H55975   6.924   6.317   9.793 -3.0883  2.3625  0.3633
  415MOL0     H55976   7.043   6.552  10.064  0.0103 -0.1310  0.8982
  415MOL0     H55977   6.745   6.741  10.175 -1.3647 -0.1185  0.4548
  415MOL0     H55978   6.924   6.707  10.204  0.1264 -0.3769 -1.4939
  415MOL0     H55979   6.807   6.906   9.992  1.0190  3.2988  0.6662
  415MOL0     H55980   6.971   6.869  10.025  1.1060 -0.9879  2.2549
  415MOL0     H55981   6.910   7.081  10.131 -0.9008  0.6375  0.7580
  415MOL0     H55982   6.977   6.980  10.244  0.0753 -0.3636 -0.5183
  415MOL0     H55983   6.673   7.033  10.215 -2.1901  1.5380  3.3523
  415MOL0     H55984   6.790   7.111  10.327 -0.7821 -0.1725  0.9862
  415MOL0     H55985   6.493   7.058  10.344  1.2464  0.6974  0.5663
  415MOL0     H55986   6.204   6.986  10.491  0.0573 -0.0232 -0.4469
  415MOL0     H55987   6.258   7.058  10.330  0.4025  0.1113  0.2754
  415MOL0     H55988   6.159   6.919  10.333  3.8735 -3.7981 -2.1226
  415MOL0     H55989   5.973   6.704  10.462  1.3144 -0.0925 -0.2765
  415MOL0     H55990   5.758   6.599  10.504 -0.4592 -1.4739 -0.2162
  415MOL0     H55991   5.658   6.526  10.754  3.4714 -1.2562 -0.4875
  415MOL0     H55992   5.523   6.465  10.639 -1.9476  0.0420  1.0947
  415MOL0     H55993   5.444   6.386  10.827 -0.6660  0.1134  1.2176
  415MOL0     H55994   5.545   6.243  10.790  0.9879  1.1648 -2.2569
  415MOL0     H55995   5.612   6.473  10.987 -0.9107  0.3418 -1.1074
  415MOL0     H55996   5.735   6.362  10.918  0.1127  1.9223 -1.0929
  415MOL0     H55997   5.576   6.172  11.027 -0.1775 -1.0186  1.0088
  415MOL0     H55998   5.673   6.267  11.135 -1.4096  2.0857 -1.1186
  415MOL0     H55999   5.368   6.281  11.089 -0.3651  1.8733  0.6105
  415MOL0     H56000   5.458   6.427  11.148  0.9827  0.3975 -3.2697
  415MOL0     H56001   5.515   6.304  11.350  1.6609 -0.8862 -1.0049
  415MOL0     H56002   5.342   6.306  11.326 -1.5439  0.0834 -3.6178
  415MOL0     H56003   5.521   6.063  11.272 -1.8173  0.2817 -0.6223
  415MOL0     H56004   5.346   6.074  11.246  0.2797 -1.0566 -0.7914
  415MOL0     H56005   5.403   5.958  11.452  1.8188  0.4713 -1.0558
  415MOL0     H56006   5.326   6.107  11.495  0.0102  0.0028 -0.3664
  415MOL0     H56007   5.953   6.262  10.705 -0.1194  0.8902  0.6995
  415MOL0     H56008   6.170   6.380  10.673  0.8199  2.3060  0.4644
  415MOL0     H56009   6.485   6.566  10.457 -0.7168 -0.0127 -0.0381
  415MOL0     H56010   6.688   6.693  10.422 -0.4700 -2.3458 -0.7546
  415MOL0     H56011   7.870   6.328   9.467  0.8580  0.0893 -1.4907
  415MOL0     H56012   8.076   6.271   9.323 -1.8062 -0.5976 -1.4299
  415MOL0     H56013   8.507   6.012   9.148  1.3603 -0.1118  0.3377
  415MOL0     H56014   8.669   6.077   8.966  2.4953  2.5421 -1.9355
  415MOL0     H56015   8.800   6.170   8.796  1.0603  0.8272 -2.7946
  415MOL0     H56016   8.629   6.220   8.751 -0.1010  0.4512 -0.6627
  415MOL0     H56017   8.697   6.425   8.660  2.2298  2.2202  0.3840
  415MOL0     H56018   8.780   6.285   8.581  1.5762  0.4072 -1.3366
  415MOL0     H56019   8.979   6.309   8.705  1.7137  0.9770  0.3978
  415MOL0     H56020   8.914   6.464   8.779  1.5648 -0.4501 -0.1050
  415MOL0     H56021   9.049   6.525   8.591  0.0520  0.0886 -0.7250
  415MOL0     H56022   8.891   6.549   8.538  1.2303 -0.0467 -1.4540
  415MOL0     H56023   9.091   6.344   8.245  0.7541 -1.0714  0.6704
  415MOL0     H56024   8.677   6.468   9.111  0.1434  0.6799  1.9598
  415MOL0     H56025   8.512   6.426   9.283  1.3306  1.3555 -3.0130
  416MOL0     O56026   4.125   1.868   8.362 -0.1217  0.0773 -0.1974
  416MOL0     C56027   4.077   1.827   8.256  0.0960  0.7498  0.2160
  416MOL0     O56028   4.094   1.700   8.193 -0.3517 -0.6474  0.2701
  416MOL0     C56029   4.195   1.618   8.230  0.5305  0.7674  0.2602
  416MOL0     C56030   4.222   1.559   8.358  0.4893  0.7516  0.9626
  416MOL0     C56031   4.329   1.477   8.375  0.3242 -0.8018 -0.0633
  416MOL0     C56032   4.398   1.439   8.263 -1.0306  0.6385 -1.3412
  416MOL0     O56033   4.506   1.354   8.297  0.2656 -0.4988  0.1775
  416MOL0     C56034   4.538   1.242   8.213  0.7631 -0.1593 -0.5166
  416MOL0     C56035   4.526   1.118   8.308  0.0563 -0.6064 -0.3400
  416MOL0     C56036   4.521   0.986   8.231  0.0615 -0.6654  0.4275
  416MOL0     C56037   4.648   0.893   8.242 -1.2449 -0.1315  0.0501
  416MOL0     C56038   4.667   0.828   8.384  0.2546 -0.4251  0.8479
  416MOL0     C56039   4.570   0.711   8.395  0.7883  0.2760  0.3577
  416MOL0     C56040   4.599   0.599   8.295 -0.5711 -0.1178  0.6486
  416MOL0     C56041   4.739   0.540   8.301 -0.1192  0.5599 -0.2817
  416MOL0     N56042   4.762   0.469   8.427  0.6102  0.5964 -0.4166
  416MOL0     C56043   4.660   0.395   8.498 -0.7693  0.3971 -0.1160
  416MOL0     C56044   4.731   0.355   8.604  0.0459 -0.4343  0.9974
  416MOL0     C56045   4.665   0.291   8.721  0.5905  0.0590 -1.2135
  416MOL0     C56046   4.551   0.380   8.784 -1.1660  0.6571 -0.2762
  416MOL0     C56047   4.519   0.322   8.920 -0.1641  0.3839 -0.3882
  416MOL0     C56048   4.435   0.198   8.903 -0.5840 -0.4705  0.4850
  416MOL0     O56049   4.301   0.215   8.858 -0.1442 -0.7204  0.1023
  416MOL0     C56050   4.216   0.282   8.948 -1.1780  0.4470 -0.3201
  416MOL0     C56051   4.137   0.383   8.899 -0.8458  0.0028 -0.6562
  416MOL0     C56052   4.040   0.456   8.971  1.3106  0.6734  0.5023
  416MOL0     C56053   3.957   0.559   8.902  0.1052 -0.3390  0.0594
  416MOL0     C56054   4.028   0.431   9.110  0.0587  0.7607  0.6600
  416MOL0     C56055   3.928   0.496   9.193 -0.4797  1.0384  0.5563
  416MOL0     O56056   3.806   0.477   9.151  0.3391 -0.4122  0.0147
  416MOL0     C56057   3.705   0.548   9.215 -0.1369 -0.4924  0.3721
  416MOL0     C56058   3.599   0.488   9.284  0.1839  0.7941  0.2583
  416MOL0     C56059   3.491   0.557   9.337 -0.0895 -0.3451  0.3491
  416MOL0     C56060   3.478   0.692   9.303  0.1658 -0.3731 -0.0573
  416MOL0     O56061   3.373   0.761   9.359  0.2046 -0.2808  0.3467
  416MOL0     C56062   3.286   0.832   9.268  0.6968  0.0785 -1.5318
  416MOL0     C56063   3.215   0.954   9.348  0.5513  0.8259 -0.1416
  416MOL0     C56064   3.104   0.909   9.447 -0.5935 -0.2611 -0.8061
  416MOL0     C56065   3.161   0.905   9.593  1.1567 -0.0748  0.2926
  416MOL0     C56066   3.043   0.875   9.677 -0.0997  0.7817 -0.3353
  416MOL0     C56067   3.067   0.816   9.825 -0.8270 -0.0726 -0.6477
  416MOL0     C56068   3.112   0.933   9.909 -1.0689 -0.1082 -0.1794
  416MOL0     C56069   3.091   0.898  10.062  0.0474 -0.1699  0.4423
  416MOL0    Cl56070   3.188   1.013  10.158 -0.3175  0.0922 -0.3674
  416MOL0     C56071   3.574   0.762   9.225 -0.0682  0.2026 -1.0086
  416MOL0     C56072   3.693   0.691   9.193 -0.2624  0.0611 -1.2674
  416MOL0     O56073   3.963   0.563   9.296  0.2218 -0.5966 -0.0043
  416MOL0     C56074   4.119   0.328   9.164  0.4936  0.0350  0.0504
  416MOL0     C56075   4.209   0.256   9.091  0.4513 -0.2724  0.6548
  416MOL0     N56076   4.857   0.405   8.602 -0.2938 -0.0239  0.6743
  416MOL0     N56077   4.882   0.474   8.494 -0.7441 -0.3495  0.3352
  416MOL0     C56078   4.379   1.494   8.141 -0.9119 -1.4510 -0.1582
  416MOL0     C56079   4.270   1.582   8.118 -1.6339  1.3654  1.2140
  416MOL0     C56080   4.005   1.932   8.177 -0.3562 -0.0816  0.8357
  416MOL0     C56081   3.962   1.909   8.044 -0.2157  0.2511  0.2334
  416MOL0     C56082   3.913   2.012   7.958 -0.1209 -0.0809  0.3902
  416MOL0     C56083   3.900   2.144   8.010 -1.0532  1.1859 -0.7827
  416MOL0     O56084   3.851   2.243   7.933  0.1314  0.0675 -0.5280
  416MOL0     C56085   3.771   2.337   8.006  0.9510 -0.3941 -0.1192
  416MOL0     C56086   3.656   2.384   7.918  0.6158  0.2123 -0.3815
  416MOL0     C56087   3.580   2.269   7.857  0.9465  0.3278 -0.1194
  416MOL0     C56088   3.445   2.289   7.798  0.5933 -0.6870 -0.1354
  416MOL0     C56089   3.419   2.405   7.709 -0.0952  0.1673  0.1345
  416MOL0     C56090   3.410   2.479   7.621 -0.3635  0.2443  0.2448
  416MOL0     C56091   3.938   2.167   8.141  0.1040  0.0940  0.0779
  416MOL0     C56092   3.995   2.065   8.222 -0.8188 -0.6635 -0.2693
  416MOL0     H56093   4.174   1.592   8.450 -0.7487  0.3823  0.4757
  416MOL0     H56094   4.361   1.441   8.473 -1.1635 -2.3312 -0.0809
  416MOL0     H56095   4.462   1.244   8.135  1.9439 -0.1154 -1.7029
  416MOL0     H56096   4.640   1.256   8.177  1.2024 -4.0864 -1.2186
  416MOL0     H56097   4.609   1.129   8.378  1.4577  1.3106 -2.1739
  416MOL0     H56098   4.433   1.128   8.365 -0.4522 -0.6683 -1.1383
  416MOL0     H56099   4.436   0.931   8.273 -0.0363  1.6389  3.5718
  416MOL0     H56100   4.509   1.005   8.124 -0.6503  1.0918  0.7939
  416MOL0     H56101   4.641   0.815   8.165 -2.3750  1.9390 -2.0825
  416MOL0     H56102   4.735   0.957   8.227 -2.0730  0.8202 -0.8952
  416MOL0     H56103   4.771   0.797   8.397 -0.8887 -4.5603  1.6342
  416MOL0     H56104   4.640   0.912   8.449 -0.4305  3.0505 -3.4169
  416MOL0     H56105   4.572   0.666   8.495  1.0333  0.4192  0.4207
  416MOL0     H56106   4.463   0.733   8.392  0.3360 -1.7418  0.2138
  416MOL0     H56107   4.520   0.527   8.316  0.4909 -1.0544  1.6085
  416MOL0     H56108   4.580   0.636   8.194  0.1344  2.3874  1.3676
  416MOL0     H56109   4.808   0.624   8.287  0.4525  0.5747  2.1545
  416MOL0     H56110   4.743   0.470   8.217 -4.2126 -1.4613  0.9605
  416MOL0     H56111   4.558   0.362   8.478  0.2149 -1.6427 -2.2413
  416MOL0     H56112   4.620   0.195   8.695 -0.6963  0.4699 -0.5935
  416MOL0     H56113   4.744   0.263   8.791  0.6533 -1.3414 -1.8115
  416MOL0     H56114   4.466   0.386   8.716 -2.8152  0.6309  1.6917
  416MOL0     H56115   4.587   0.483   8.789  0.0559  0.1847  2.0908
  416MOL0     H56116   4.477   0.398   8.987 -0.2832  0.9445 -1.0873
  416MOL0     H56117   4.609   0.288   8.972  1.3094  2.0578 -1.7298
  416MOL0     H56118   4.426   0.133   8.991 -4.0163 -1.5973 -0.5424
  416MOL0     H56119   4.490   0.133   8.834  0.3609  2.7118 -2.0047
  416MOL0     H56120   4.152   0.400   8.793  1.1921  3.1594  0.0277
  416MOL0     H56121   3.885   0.510   8.836 -1.2226 -1.6559  2.3254
  416MOL0     H56122   3.908   0.619   8.980  2.0893  1.2971  0.1138
  416MOL0     H56123   4.021   0.624   8.842 -0.8765  1.5465  0.9322
  416MOL0     H56124   3.594   0.380   9.295 -1.4750  1.0048  2.1459
  416MOL0     H56125   3.418   0.511   9.403  0.3528 -0.4753  0.7455
  416MOL0     H56126   3.340   0.878   9.185  2.3099  0.9904 -0.0415
  416MOL0     H56127   3.215   0.760   9.225  1.8530 -2.5915  0.6910
  416MOL0     H56128   3.293   1.014   9.396 -1.0675  2.2106  0.8491
  416MOL0     H56129   3.168   1.019   9.274 -1.5675  0.8026  1.1160
  416MOL0     H56130   3.060   0.815   9.413  0.6639 -0.7267 -1.2249
  416MOL0     H56131   3.022   0.981   9.445  0.6841  1.5711  2.9183
  416MOL0     H56132   3.222   0.815   9.606 -0.5215 -1.1455  1.1749
  416MOL0     H56133   3.207   0.998   9.626  1.0400  0.1262 -0.1048
  416MOL0     H56134   2.980   0.801   9.628 -0.2503  1.3054 -0.9467
  416MOL0     H56135   2.984   0.967   9.678 -1.6099 -0.0238  3.7392
  416MOL0     H56136   2.971   0.780   9.865 -0.8628  3.2128  2.8566
  416MOL0     H56137   3.138   0.734   9.833 -0.4703  0.1612 -1.3511
  416MOL0     H56138   3.048   1.021   9.893 -2.6092 -1.0984  0.2721
  416MOL0     H56139   3.215   0.955   9.882 -0.3460 -0.2999  2.1507
  416MOL0     H56140   3.100   0.789  10.068  1.4432 -0.0873  0.3191
  416MOL0     H56141   2.989   0.927  10.086  1.1231  3.9544  0.6749
  416MOL0     H56142   3.552   0.864   9.193 -0.0099  1.2420  1.8737
  416MOL0     H56143   3.776   0.739   9.142  2.0886 -0.3465  1.8024
  416MOL0     H56144   4.108   0.325   9.272 -0.2004 -1.4472 -0.0415
  416MOL0     H56145   4.284   0.184   9.122  0.4414 -0.4728  0.2184
  416MOL0     H56146   4.434   1.455   8.057 -1.4867 -1.5538 -0.4961
  416MOL0     H56147   4.244   1.627   8.022  1.0538 -1.2127 -0.9328
  416MOL0     H56148   3.965   1.805   8.013 -2.7844  0.0656  0.4742
  416MOL0     H56149   3.868   1.987   7.862 -2.9011 -2.1681  2.0804
  416MOL0     H56150   3.725   2.295   8.096  0.6642 -0.7861 -0.4483
  416MOL0     H56151   3.827   2.425   8.039 -0.7203  1.1066 -1.0674
  416MOL0     H56152   3.703   2.447   7.842  1.0445  2.3352  1.5542
  416MOL0     H56153   3.587   2.454   7.966  0.9946  1.2064 -1.2592
  416MOL0     H56154   3.569   2.186   7.927  0.4864  0.0976 -0.4584
  416MOL0     H56155   3.639   2.234   7.772  1.5098  3.6834 -1.2624
  416MOL0     H56156   3.389   2.321   7.886  1.8213  3.3053 -0.6031
  416MOL0     H56157   3.410   2.195   7.753 -1.8313  1.3214 -2.7788
  416MOL0     H56158   3.396   2.532   7.529  1.5353  0.9118  0.3069
  416MOL0     H56159   3.924   2.259   8.197 -1.8997  1.0109 -1.8086
  416MOL0     H56160   4.025   2.085   8.324  0.0403 -2.0300 -0.2242
  417MOL0     O56161   0.312  10.958   4.345  0.6069 -0.1773 -0.1855
  417MOL0     C56162   0.415  10.952   4.407 -1.1662 -0.0984  0.4602
  417MOL0     O56163   0.458  10.846   4.480  0.0260 -0.1638 -0.1891
  417MOL0     C56164   0.416  10.725   4.442  0.1104 -0.0865  0.0123
  417MOL0     C56165   0.307  10.655   4.505 -0.0834  0.0957  0.2369
  417MOL0     C56166   0.264  10.535   4.454  0.3941 -0.5407 -0.3081
  417MOL0     C56167   0.336  10.465   4.353  0.7615 -0.6323  0.0793
  417MOL0     O56168   0.303  10.335   4.314 -0.5602  0.3367  0.1849
  417MOL0     C56169   0.173  10.281   4.346  0.4370 -0.6997  0.3762
  417MOL0     C56170   0.179  10.133   4.310  0.1977  0.2496 -0.3484
  417MOL0     C56171   0.085  10.045   4.404  0.6018  0.9525  0.0487
  417MOL0     C56172  -0.065  10.080   4.385 -0.5022  0.3832 -1.1278
  417MOL0     C56173  -0.152   9.975   4.464 -0.3807 -0.5896  0.3422
  417MOL0     C56174  -0.292  10.022   4.489  0.0258 -0.9383  0.1928
  417MOL0     C56175  -0.313  10.178   4.505 -0.5986  0.6321 -0.1367
  417MOL0     C56176  -0.459  10.213   4.539 -0.4867  0.5644  0.0636
  417MOL0     N56177  -0.478  10.355   4.556  0.1863 -0.2391  1.1221
  417MOL0     C56178  -0.445  10.459   4.480 -0.1908 -0.8872 -0.4865
  417MOL0     C56179  -0.490  10.566   4.548 -0.1946  0.1003  0.2125
  417MOL0     C56180  -0.488  10.712   4.509 -0.2959 -0.1528 -0.1965
  417MOL0     C56181  -0.636  10.761   4.503 -0.7714 -0.5690  0.4179
  417MOL0     C56182  -0.710  10.734   4.366 -0.7662 -0.8068 -0.2566
  417MOL0     C56183  -0.845  10.797   4.366  0.3871  1.8417 -0.1618
  417MOL0     O56184  -0.912  10.708   4.461  0.2389 -0.3107  0.9186
  417MOL0     C56185  -1.044  10.736   4.485  0.3142 -1.0335 -0.4412
  417MOL0     C56186  -1.112  10.850   4.440  0.9827 -0.4543  0.1001
  417MOL0     C56187  -1.243  10.871   4.490 -0.1978 -0.7828  0.5926
  417MOL0     C56188  -1.303  11.006   4.442  0.7859 -0.2099  0.1696
  417MOL0     C56189  -1.317  10.786   4.569 -0.0845  0.5945  0.4766
  417MOL0     C56190  -1.453  10.802   4.616  0.5424  0.8566 -0.2806
  417MOL0     O56191  -1.546  10.810   4.515 -0.0421  0.4417  0.8902
  417MOL0     C56192  -1.672  10.789   4.554  0.9785  0.8534  0.0175
  417MOL0     C56193  -1.715  10.655   4.558  0.3227 -0.3930 -0.0558
  417MOL0     C56194  -1.855  10.627   4.576 -0.3368  0.3200  0.1485
  417MOL0     C56195  -1.947  10.733   4.590  0.5254  0.5960  0.7653
  417MOL0     O56196  -2.079  10.713   4.590 -0.3272  0.6247 -0.1181
  417MOL0     C56197  -2.127  10.715   4.725  0.4754 -0.2025  0.4576
  417MOL0     C56198  -2.274  10.761   4.730 -0.0720 -0.5281  0.7868
  417MOL0     C56199  -2.333  10.752   4.873 -0.2448  0.2499  0.4773
  417MOL0     C56200  -2.476  10.821   4.869 -0.2858  0.2081  0.8141
  417MOL0     C56201  -2.513  10.853   5.018  0.1494  0.3065  0.6745
  417MOL0     C56202  -2.628  10.942   5.032 -0.5399  0.3863 -0.0360
  417MOL0     C56203  -2.631  11.013   5.164 -0.1239  0.1004 -0.7375
  417MOL0     C56204  -2.753  11.100   5.183  0.8840  0.0545  0.4792
  417MOL0    Cl56205  -2.745  11.205   5.331 -0.1624 -0.1906  0.5418
  417MOL0     C56206  -1.898  10.871   4.591  0.6357  0.3812  1.0659
  417MOL0     C56207  -1.760  10.892   4.561  0.2359  1.1178  0.3786
  417MOL0     O56208  -1.476  10.771   4.731 -0.3115 -0.9626 -0.0077
  417MOL0     C56209  -1.247  10.666   4.596  0.3867  0.4065  0.0664
  417MOL0     C56210  -1.114  10.642   4.566  0.0207 -0.3535 -0.9202
  417MOL0     N56211  -0.534  10.525   4.671  0.1333  0.6881  0.5335
  417MOL0     N56212  -0.532  10.393   4.674 -0.0530 -0.1232 -0.0688
  417MOL0     C56213   0.445  10.525   4.301 -0.6052  0.8448  0.3558
  417MOL0     C56214   0.482  10.660   4.330 -0.0785 -0.2172 -0.5653
  417MOL0     C56215   0.511  11.061   4.403 -0.0323 -0.0033  0.0850
  417MOL0     C56216   0.510  11.153   4.303 -0.0740  0.2943 -0.1237
  417MOL0     C56217   0.589  11.269   4.317  0.6469  0.3218 -0.2008
  417MOL0     C56218   0.676  11.292   4.418  0.1138  0.4917  0.0018
  417MOL0     O56219   0.746  11.411   4.419  0.4427  0.5046 -0.2631
  417MOL0     C56220   0.812  11.446   4.546  0.2416  0.1726  0.3434
  417MOL0     C56221   0.845  11.595   4.567  0.1612  0.2085 -0.0606
  417MOL0     C56222   0.809  11.641   4.712  0.4651 -0.2552  0.2267
  417MOL0     C56223   0.923  11.604   4.818  0.9943 -0.4027 -0.2918
  417MOL0     C56224   1.048  11.687   4.815  0.3495  0.7747  0.2603
  417MOL0     C56225   1.154  11.734   4.789  0.0226 -0.6334 -0.5427
  417MOL0     C56226   0.681  11.197   4.518  0.0143  0.9032 -0.3984
  417MOL0     C56227   0.597  11.078   4.512  0.2954 -0.5068 -0.5465
  417MOL0     H56228   0.252  10.707   4.583 -0.6302  1.1495 -0.8281
  417MOL0     H56229   0.173  10.489   4.492  0.2118  0.1411  0.0912
  417MOL0     H56230   0.147  10.288   4.452  0.7292  1.2761  0.3609
  417MOL0     H56231   0.085  10.324   4.298  0.4126 -0.2497  0.8158
  417MOL0     H56232   0.146  10.122   4.207  0.5128  2.3747 -0.7285
  417MOL0     H56233   0.279  10.093   4.323 -0.8446 -2.3646  0.1951
  417MOL0     H56234   0.090   9.942   4.368  1.5265  0.9688  0.1229
  417MOL0     H56235   0.110  10.062   4.509  2.4043  2.0686 -0.5256
  417MOL0     H56236  -0.070  10.183   4.424 -1.6283 -0.0003 -0.2090
  417MOL0     H56237  -0.094  10.079   4.280 -0.0727 -1.6894 -1.2589
  417MOL0     H56238  -0.166   9.877   4.416 -0.6787 -2.0609  3.2066
  417MOL0     H56239  -0.110   9.961   4.564 -0.9466 -1.0412  0.5227
  417MOL0     H56240  -0.336   9.985   4.396 -1.5196  1.7633 -0.2449
  417MOL0     H56241  -0.334   9.975   4.578 -0.5442  0.2304  0.5556
  417MOL0     H56242  -0.238  10.204   4.580  2.0920 -0.0212 -2.4191
  417MOL0     H56243  -0.293  10.236   4.415 -0.9481  3.3145  1.4171
  417MOL0     H56244  -0.484  10.148   4.624 -1.4477 -2.9740 -2.6701
  417MOL0     H56245  -0.521  10.185   4.453 -0.4265  3.8638 -1.2052
  417MOL0     H56246  -0.387  10.467   4.389  0.3135 -0.4548 -0.1354
  417MOL0     H56247  -0.426  10.763   4.582  2.1108 -1.8082 -0.9753
  417MOL0     H56248  -0.450  10.737   4.410  2.1848 -0.8065  0.5305
  417MOL0     H56249  -0.634  10.868   4.522 -1.5716 -0.0744 -1.9785
  417MOL0     H56250  -0.691  10.706   4.580  1.9560 -2.3281  1.2531
  417MOL0     H56251  -0.721  10.626   4.349  0.0053 -1.5250  3.1811
  417MOL0     H56252  -0.650  10.777   4.285  1.2988  1.7576  2.4433
  417MOL0     H56253  -0.889  10.779   4.267 -0.0441 -3.0874  0.6794
  417MOL0     H56254  -0.842  10.896   4.414  1.0109  1.7622 -0.0306
  417MOL0     H56255  -1.077  10.910   4.357  2.3703 -0.8489  0.3793
  417MOL0     H56256  -1.221  11.076   4.425 -1.6241  2.6713 -0.4216
  417MOL0     H56257  -1.358  10.998   4.348  0.4096  1.8846  0.1543
  417MOL0     H56258  -1.369  11.054   4.516  1.2896 -0.7011  0.9504
  417MOL0     H56259  -1.645  10.572   4.550 -1.8825 -2.2723 -0.8551
  417MOL0     H56260  -1.895  10.526   4.576  0.3713 -0.0972  3.4077
  417MOL0     H56261  -2.118  10.617   4.773 -3.1757  0.0466  1.9351
  417MOL0     H56262  -2.060  10.783   4.779 -1.8962  1.8434  0.9898
  417MOL0     H56263  -2.285  10.863   4.693  3.4246  0.6136  2.4444
  417MOL0     H56264  -2.337  10.694   4.671 -1.0311  0.8495  0.1854
  417MOL0     H56265  -2.262  10.793   4.945  0.9826 -0.2409 -0.4183
  417MOL0     H56266  -2.340  10.645   4.896  2.4691 -0.0554  0.2019
  417MOL0     H56267  -2.473  10.916   4.815 -2.4183  0.3055  0.7772
  417MOL0     H56268  -2.558  10.758   4.831  1.1158 -1.1407 -0.0676
  417MOL0     H56269  -2.431  10.913   5.060 -0.1129  3.4453 -2.7571
  417MOL0     H56270  -2.528  10.755   5.063  1.4437 -1.3025 -2.1662
  417MOL0     H56271  -2.613  11.015   4.952 -1.3884  0.5469 -0.0495
  417MOL0     H56272  -2.722  10.888   5.020 -0.7231  0.3650  1.3730
  417MOL0     H56273  -2.540  11.069   5.187 -0.3140 -0.2843  1.1478
  417MOL0     H56274  -2.651  10.931   5.233  0.1954 -3.2463 -4.3061
  417MOL0     H56275  -2.840  11.033   5.185  1.8682 -1.3318 -0.4795
  417MOL0     H56276  -2.778  11.163   5.097  1.2299 -0.0169  0.3238
  417MOL0     H56277  -1.972  10.949   4.595 -1.3659 -1.3370 -0.5291
  417MOL0     H56278  -1.726  10.993   4.543  1.2421  0.7596  0.2073
  417MOL0     H56279  -1.301  10.586   4.646  0.4438 -2.6247 -4.1999
  417MOL0     H56280  -1.068  10.552   4.605  2.9397  0.1259 -2.9286
  417MOL0     H56281   0.499  10.460   4.233 -1.9211  0.8140 -0.6901
  417MOL0     H56282   0.563  10.701   4.271  0.7210 -1.2765 -0.2441
  417MOL0     H56283   0.430  11.157   4.230 -0.3259  2.2798  0.1934
  417MOL0     H56284   0.573  11.329   4.228  1.7385  1.4262  0.3313
  417MOL0     H56285   0.746  11.412   4.626  2.5190  0.2655  2.3844
  417MOL0     H56286   0.909  11.395   4.544 -0.8770 -2.1482 -2.1531
  417MOL0     H56287   0.804  11.653   4.484 -0.7082 -1.2848 -0.7110
  417MOL0     H56288   0.954  11.606   4.569  0.1825  0.1453 -0.7956
  417MOL0     H56289   0.722  11.583   4.745  1.1820 -1.3467  0.2515
  417MOL0     H56290   0.784  11.747   4.716 -1.7488 -0.7531  2.5448
  417MOL0     H56291   0.949  11.499   4.807  2.9852 -0.1038  1.0243
  417MOL0     H56292   0.872  11.623   4.913  2.9099  0.3927  0.6370
  417MOL0     H56293   1.246  11.783   4.769 -0.2591  1.6049  2.8280
  417MOL0     H56294   0.741  11.204   4.609  0.9359 -4.0853 -0.3369
  417MOL0     H56295   0.611  10.999   4.586 -0.6419 -1.1999 -1.0906
  418MOL0     O56296   2.972   9.023   8.596  0.1287 -0.0200  0.1113
  418MOL0     C56297   3.096   9.045   8.586  0.1222  0.4254  0.7332
  418MOL0     O56298   3.188   9.005   8.673 -0.6222 -0.8035 -0.5735
  418MOL0     C56299   3.141   8.994   8.803 -0.5045 -0.0401 -0.5444
  418MOL0     C56300   3.109   8.867   8.839  0.5688  0.1901 -0.5912
  418MOL0     C56301   3.057   8.836   8.968  0.2476  0.0204  0.6409
  418MOL0     C56302   3.028   8.942   9.052 -0.7089 -0.3495 -0.4302
  418MOL0     O56303   2.986   8.907   9.185  0.2413 -0.6344  0.2596
  418MOL0     C56304   2.980   9.017   9.275 -0.5675  0.5006  0.1270
  418MOL0     C56305   2.952   8.949   9.409  0.0103  1.1490 -0.0593
  418MOL0     C56306   2.815   8.879   9.416 -0.4227 -0.2048  0.0420
  418MOL0     C56307   2.795   8.826   9.557 -0.1891  0.9604 -0.6213
  418MOL0     C56308   2.667   8.740   9.573  0.4846 -0.0170  0.2765
  418MOL0     C56309   2.540   8.817   9.547  0.2305 -0.5441 -0.2262
  418MOL0     C56310   2.419   8.736   9.578 -0.2441 -0.2645 -0.2506
  418MOL0     C56311   2.392   8.617   9.487  0.0834  0.1065 -0.4870
  418MOL0     N56312   2.282   8.524   9.519 -0.1890 -0.4870  0.1393
  418MOL0     C56313   2.146   8.538   9.511  0.7212 -0.2599  0.7901
  418MOL0     C56314   2.084   8.437   9.584 -0.9937 -0.6465  0.7946
  418MOL0     C56315   1.943   8.420   9.594  0.2202  0.1265  0.1516
  418MOL0     C56316   1.919   8.278   9.657 -0.2972  0.5239 -0.7670
  418MOL0     C56317   1.774   8.238   9.699 -1.0457  0.1725  0.1707
  418MOL0     C56318   1.693   8.341   9.777 -0.8396  0.5616  0.5129
  418MOL0     O56319   1.620   8.433   9.690  0.1712 -0.5205  0.3490
  418MOL0     C56320   1.503   8.384   9.632 -0.4389 -0.2863  1.4699
  418MOL0     C56321   1.449   8.260   9.635 -0.3423  0.4890 -0.0835
  418MOL0     C56322   1.340   8.223   9.561  1.9898 -0.0833 -0.5323
  418MOL0     C56323   1.279   8.083   9.565 -0.2417  0.4040  0.0794
  418MOL0     C56324   1.283   8.321   9.474 -0.2968 -0.4690  1.3035
  418MOL0     C56325   1.166   8.286   9.383 -0.6940 -0.0881 -1.0173
  418MOL0     O56326   1.039   8.242   9.433 -0.2639  0.2880 -0.6503
  418MOL0     C56327   0.975   8.147   9.356  0.4949  0.4815 -0.4251
  418MOL0     C56328   0.832   8.153   9.358 -0.2683  0.0214  0.1866
  418MOL0     C56329   0.757   8.050   9.289 -0.9133  0.3681 -0.5146
  418MOL0     C56330   0.818   7.948   9.226 -0.5077 -0.2881 -0.1442
  418MOL0     O56331   0.758   7.859   9.141  0.0187  0.3051 -0.2190
  418MOL0     C56332   0.615   7.884   9.109 -0.0244 -0.4307  0.1626
  418MOL0     C56333   0.585   7.811   8.981 -0.3290 -1.2260  0.6206
  418MOL0     C56334   0.451   7.848   8.900  0.4450  0.5638  0.0321
  418MOL0     C56335   0.357   7.723   8.873  0.0989 -0.4066 -0.5288
  418MOL0     C56336   0.261   7.689   9.002 -0.0944 -0.8292 -0.0637
  418MOL0     C56337   0.254   7.540   9.045 -0.8644  0.5518  0.8878
  418MOL0     C56338   0.203   7.521   9.190 -0.0309  0.1478 -0.1945
  418MOL0     C56339   0.245   7.386   9.264  0.1951 -0.8924  0.1368
  418MOL0    Cl56340   0.153   7.268   9.185  0.1230 -0.0722 -0.2453
  418MOL0     C56341   0.957   7.944   9.225  0.8879 -0.2604 -0.4197
  418MOL0     C56342   1.037   8.039   9.288 -0.9845 -0.6002 -0.6094
  418MOL0     O56343   1.190   8.325   9.269 -0.1013  0.5283 -0.5167
  418MOL0     C56344   1.335   8.456   9.467  0.2330  0.5409 -0.1567
  418MOL0     C56345   1.447   8.476   9.543 -0.3538  0.2488 -1.2226
  418MOL0     N56346   2.190   8.374   9.646 -0.7490 -0.1261  1.1222
  418MOL0     N56347   2.300   8.422   9.601  0.4588  0.0081 -0.1451
  418MOL0     C56348   3.068   9.070   9.014 -0.2624 -0.1106 -1.0576
  418MOL0     C56349   3.124   9.094   8.891  0.1073 -0.5069  0.1503
  418MOL0     C56350   3.141   9.081   8.448  0.2210 -0.0129  0.6057
  418MOL0     C56351   3.281   9.100   8.415  0.5160  0.2824  0.1306
  418MOL0     C56352   3.317   9.147   8.287 -0.2648 -0.4922 -0.8592
  418MOL0     C56353   3.226   9.161   8.181 -0.1880  1.5426 -0.6459
  418MOL0     O56354   3.284   9.204   8.060 -0.1377 -0.4406 -0.4358
  418MOL0     C56355   3.208   9.309   8.000  0.1661 -0.0235  0.1286
  418MOL0     C56356   3.292   9.366   7.879 -0.3939  0.9974  0.1069
  418MOL0     C56357   3.329   9.247   7.780 -0.5911 -0.3165  0.6391
  418MOL0     C56358   3.476   9.222   7.768 -0.7063 -1.1265 -0.5190
  418MOL0     C56359   3.492   9.111   7.677 -0.0356 -0.3234 -0.0343
  418MOL0     C56360   3.495   9.007   7.615 -0.0737 -0.7107 -0.2507
  418MOL0     C56361   3.092   9.129   8.215 -0.5845  0.2408  1.4858
  418MOL0     C56362   3.050   9.101   8.340 -0.2166  0.5481 -0.6333
  418MOL0     H56363   3.116   8.794   8.759  0.0638  1.4548 -1.8338
  418MOL0     H56364   3.015   8.738   8.989 -1.4427  0.4662 -0.4712
  418MOL0     H56365   3.071   9.078   9.275 -0.6814  0.6720 -0.0110
  418MOL0     H56366   2.895   9.084   9.258 -1.6985 -0.8493  0.3233
  418MOL0     H56367   3.029   8.872   9.422 -1.6215 -0.3898  1.0382
  418MOL0     H56368   2.947   9.021   9.491 -3.5737  1.6736 -0.6194
  418MOL0     H56369   2.732   8.951   9.406 -1.8369 -1.1956  3.3560
  418MOL0     H56370   2.806   8.798   9.343  0.1357  0.7282 -1.0973
  418MOL0     H56371   2.877   8.757   9.577 -0.9784 -0.2129 -1.3081
  418MOL0     H56372   2.799   8.909   9.627  1.1508 -0.2316  0.7788
  418MOL0     H56373   2.678   8.646   9.517  0.6718  0.2630 -0.1618
  418MOL0     H56374   2.651   8.706   9.676  0.8971  4.8168  2.1788
  418MOL0     H56375   2.529   8.912   9.601 -0.3274 -0.5349 -0.3493
  418MOL0     H56376   2.532   8.855   9.445  0.4996  0.9253  0.2689
  418MOL0     H56377   2.429   8.703   9.682  0.5829 -2.6397 -1.0352
  418MOL0     H56378   2.334   8.804   9.567  0.8736  2.0245  3.4700
  418MOL0     H56379   2.484   8.558   9.482  0.7051  1.0698 -0.6314
  418MOL0     H56380   2.380   8.668   9.391  2.1911 -0.3919 -1.0823
  418MOL0     H56381   2.085   8.613   9.462 -1.3988 -1.7191  1.0784
  418MOL0     H56382   1.900   8.501   9.654  2.9360  0.9633  1.1072
  418MOL0     H56383   1.889   8.433   9.500  2.5296  2.0519 -0.9879
  418MOL0     H56384   1.973   8.271   9.751 -2.9763  1.4994  0.9738
  418MOL0     H56385   1.956   8.208   9.581  0.5836  0.4084 -0.2344
  418MOL0     H56386   1.780   8.147   9.760  2.3835 -0.0896 -0.3569
  418MOL0     H56387   1.716   8.212   9.611  0.1489  0.0665 -0.6150
  418MOL0     H56388   1.759   8.400   9.841 -0.2566  0.6805 -0.1791
  418MOL0     H56389   1.628   8.287   9.845  0.1545  0.3668  1.3365
  418MOL0     H56390   1.495   8.185   9.698 -0.7711 -1.1618 -1.6372
  418MOL0     H56391   1.276   8.044   9.463 -1.1372 -1.7199  0.8619
  418MOL0     H56392   1.333   8.017   9.633 -0.1603  0.3198 -0.0694
  418MOL0     H56393   1.176   8.077   9.601 -0.4108 -0.9678 -0.5585
  418MOL0     H56394   0.793   8.246   9.400  2.3990  1.2284  0.2307
  418MOL0     H56395   0.650   8.064   9.281 -0.7198  1.8889 -0.7074
  418MOL0     H56396   0.539   7.850   9.181  1.1748 -4.1160 -0.0916
  418MOL0     H56397   0.591   7.989   9.092  4.0793  1.1347  2.5576
  418MOL0     H56398   0.664   7.826   8.907  0.7448 -2.3202  1.4954
  418MOL0     H56399   0.605   7.705   9.001  2.8145 -1.0452 -0.8675
  418MOL0     H56400   0.483   7.886   8.803 -1.1629 -0.9504 -1.1575
  418MOL0     H56401   0.394   7.927   8.950 -2.2344  0.5635 -2.6640
  418MOL0     H56402   0.299   7.749   8.784  0.9499 -1.2506 -1.3466
  418MOL0     H56403   0.422   7.637   8.854 -0.3560 -0.7663 -0.4731
  418MOL0     H56404   0.159   7.725   8.988  0.3405  0.3240 -0.3626
  418MOL0     H56405   0.297   7.739   9.092 -1.3105 -0.3677  0.1924
  418MOL0     H56406   0.193   7.480   8.977  0.1070 -0.7435  1.1157
  418MOL0     H56407   0.353   7.492   9.046 -0.3966  1.4655  2.2616
  418MOL0     H56408   0.095   7.534   9.197  0.0603  0.5089  0.6262
  418MOL0     H56409   0.255   7.596   9.250  4.2010 -0.5366 -2.5828
  418MOL0     H56410   0.212   7.379   9.368  0.1906  0.2653  0.2283
  418MOL0     H56411   0.353   7.373   9.252  0.2822  0.7192 -1.3269
  418MOL0     H56412   1.001   7.858   9.175  0.8537 -0.9106  0.6399
  418MOL0     H56413   1.144   8.025   9.272 -0.8326  0.5293 -0.6747
  418MOL0     H56414   1.294   8.532   9.401 -3.9778 -0.1467  1.3469
  418MOL0     H56415   1.505   8.568   9.538  1.4010 -0.4459  2.5394
  418MOL0     H56416   3.043   9.153   9.079  0.3262 -3.1045  3.5028
  418MOL0     H56417   3.144   9.197   8.865  2.5150 -1.3401 -1.6991
  418MOL0     H56418   3.356   9.081   8.491  3.2433  1.8341 -1.9912
  418MOL0     H56419   3.420   9.166   8.260  0.3169 -0.5387  1.1660
  418MOL0     H56420   3.115   9.268   7.958  1.4314 -0.4868 -2.4166
  418MOL0     H56421   3.176   9.387   8.070  0.5390 -0.6203  0.9821
  418MOL0     H56422   3.379   9.427   7.906  0.3167  0.1913 -0.2970
  418MOL0     H56423   3.231   9.436   7.821  0.2594  2.5096  1.1765
  418MOL0     H56424   3.285   9.270   7.683 -0.1503  3.3553  1.1646
  418MOL0     H56425   3.274   9.157   7.809 -2.2882  0.9784  1.7091
  418MOL0     H56426   3.525   9.201   7.863 -1.1108  0.0123 -0.0470
  418MOL0     H56427   3.528   9.311   7.733 -0.3991 -1.0946  0.0089
  418MOL0     H56428   3.507   8.912   7.568 -2.3316 -1.2784  0.1849
  418MOL0     H56429   3.012   9.132   8.142  0.1303 -1.1339  0.6080
  418MOL0     H56430   2.946   9.077   8.354  0.0145 -1.5022 -2.0165
  419MOL0     O56431   2.397   7.508   1.081 -0.1237 -0.2474  0.0759
  419MOL0     C56432   2.324   7.418   1.104 -0.4696  1.7233  0.6318
  419MOL0     O56433   2.346   7.288   1.076 -0.3091 -0.1584  0.0989
  419MOL0     C56434   2.481   7.254   1.043  0.0901 -1.3070  0.5756
  419MOL0     C56435   2.519   7.220   0.913  0.6230  0.1397 -0.3644
  419MOL0     C56436   2.651   7.175   0.885  0.5334 -0.0888 -0.2633
  419MOL0     C56437   2.746   7.162   0.992 -0.6249  0.4293 -0.1448
  419MOL0     O56438   2.860   7.095   0.975 -0.5939  0.7538 -0.7108
  419MOL0     C56439   2.965   7.108   1.072  0.2242  0.0642 -0.2712
  419MOL0     C56440   3.105   7.084   1.007  0.6083 -0.0278 -0.5295
  419MOL0     C56441   3.125   6.951   0.945 -1.1214  0.2681 -0.0775
  419MOL0     C56442   3.259   6.935   0.867  0.3412 -0.2791  0.9348
  419MOL0     C56443   3.283   6.787   0.824  0.3307  0.2185  0.5590
  419MOL0     C56444   3.259   6.671   0.933 -0.8353 -0.0353 -0.0291
  419MOL0     C56445   3.348   6.541   0.906 -0.0141 -0.4458  0.1458
  419MOL0     C56446   3.350   6.446   1.027  0.3435 -0.1874  0.0914
  419MOL0     N56447   3.436   6.323   0.994 -0.2781  0.1076  0.2909
  419MOL0     C56448   3.574   6.314   0.982 -0.6584 -0.2755 -0.1254
  419MOL0     C56449   3.602   6.180   0.987  0.7633  0.2494  0.7370
  419MOL0     C56450   3.738   6.107   0.958 -0.1079  0.1080 -0.0778
  419MOL0     C56451   3.797   6.167   0.831 -0.4625 -0.6051  0.1679
  419MOL0     C56452   3.948   6.148   0.811  0.1146 -0.0370 -0.2458
  419MOL0     C56453   3.997   6.006   0.837 -0.3554  1.0608 -0.2503
  419MOL0     O56454   3.991   5.944   0.968 -0.2217  0.9518 -0.0642
  419MOL0     C56455   4.072   5.831   0.992 -0.3290  0.5038  0.5370
  419MOL0     C56456   4.151   5.758   0.907 -0.1769  0.9583 -0.4257
  419MOL0     C56457   4.237   5.654   0.952 -0.4734  0.1499  0.2839
  419MOL0     C56458   4.328   5.589   0.852 -0.4512  0.2867  0.8149
  419MOL0     C56459   4.234   5.619   1.093 -0.2402  0.7125 -0.1608
  419MOL0     C56460   4.308   5.505   1.159 -0.2046  0.1580 -0.4012
  419MOL0     O56461   4.301   5.508   1.293 -0.0904  1.1564  0.3268
  419MOL0     C56462   4.389   5.455   1.376  0.2842  0.1354  0.7027
  419MOL0     C56463   4.378   5.490   1.508  1.3172 -0.2281  0.4982
  419MOL0     C56464   4.456   5.442   1.605 -1.7371 -0.7883 -0.4090
  419MOL0     C56465   4.568   5.359   1.582 -0.0304 -1.0566  0.1555
  419MOL0     O56466   4.640   5.302   1.682 -0.4754 -0.5802 -0.1734
  419MOL0     C56467   4.778   5.333   1.698 -0.0666 -0.9829 -0.2918
  419MOL0     C56468   4.881   5.227   1.699 -0.7116  0.3172  0.3190
  419MOL0     C56469   5.035   5.263   1.706  0.1822  0.3011  1.6096
  419MOL0     C56470   5.115   5.140   1.754 -0.5574  0.1041 -0.1211
  419MOL0     C56471   5.259   5.172   1.772  0.4290 -0.5076 -0.8008
  419MOL0     C56472   5.335   5.062   1.845  0.4123 -0.4763 -0.1775
  419MOL0     C56473   5.478   5.115   1.859 -0.0476  1.0578 -0.2341
  419MOL0     C56474   5.570   5.001   1.910  0.0363  0.0775  0.0089
  419MOL0    Cl56475   5.747   5.045   1.881  0.2656  0.1443 -0.5668
  419MOL0     C56476   4.591   5.315   1.446  0.3077  0.1627 -0.1168
  419MOL0     C56477   4.496   5.362   1.347 -0.2155 -0.8805 -0.0755
  419MOL0     O56478   4.375   5.435   1.094 -0.3331  0.4156  0.0654
  419MOL0     C56479   4.137   5.689   1.173 -0.1973  0.0927 -0.2008
  419MOL0     C56480   4.058   5.786   1.121  0.0135 -0.5212 -0.6229
  419MOL0     N56481   3.481   6.110   0.971  0.5131 -1.1750  0.5948
  419MOL0     N56482   3.385   6.198   0.972 -0.0969  0.5602  0.2350
  419MOL0     C56483   2.705   7.209   1.121  1.0546  0.2046  0.0030
  419MOL0     C56484   2.571   7.252   1.147 -0.0464 -1.2499  0.6638
  419MOL0     C56485   2.186   7.460   1.149  0.4383 -0.3425  0.6315
  419MOL0     C56486   2.097   7.363   1.200  0.2662  0.8813 -0.0198
  419MOL0     C56487   1.968   7.393   1.234 -0.2899 -0.1395  0.2615
  419MOL0     C56488   1.919   7.524   1.234  0.1094  0.1885 -0.4389
  419MOL0     O56489   1.790   7.564   1.267  0.3856  0.5089  0.0286
  419MOL0     C56490   1.703   7.469   1.334  0.0180 -0.1772 -0.6014
  419MOL0     C56491   1.575   7.545   1.369  1.2662  1.2509  0.1220
  419MOL0     C56492   1.496   7.482   1.491 -0.3751  0.3704  1.0761
  419MOL0     C56493   1.433   7.578   1.602 -0.4285 -0.1349  0.1871
  419MOL0     C56494   1.385   7.704   1.552  0.9970 -0.6888 -1.1968
  419MOL0     C56495   1.342   7.811   1.508  1.2148 -0.3194  0.4894
  419MOL0     C56496   2.001   7.617   1.175 -0.0859 -0.0270 -0.0986
  419MOL0     C56497   2.137   7.593   1.135  0.4537  1.0401 -0.6921
  419MOL0     H56498   2.445   7.245   0.837 -0.0138 -0.4501  0.0549
  419MOL0     H56499   2.668   7.122   0.791  1.6521  2.0721 -1.3562
  419MOL0     H56500   2.966   7.203   1.126 -0.9967 -0.5802  0.9347
  419MOL0     H56501   2.951   7.033   1.150 -0.8874  1.5398  1.0005
  419MOL0     H56502   3.119   7.159   0.929  1.7216 -1.3400 -1.6391
  419MOL0     H56503   3.179   7.095   1.087 -1.5521 -0.5342  1.6888
  419MOL0     H56504   3.109   6.876   1.023 -2.5011 -2.0296 -2.4021
  419MOL0     H56505   3.044   6.937   0.873 -1.1790  1.4373 -0.2464
  419MOL0     H56506   3.247   7.005   0.784 -3.5886 -2.6556 -0.8149
  419MOL0     H56507   3.345   6.961   0.929  0.2119 -2.2114  2.0189
  419MOL0     H56508   3.221   6.755   0.739 -1.7201 -1.1399  2.4538
  419MOL0     H56509   3.388   6.791   0.793  1.1230 -0.5706  2.9826
  419MOL0     H56510   3.286   6.719   1.027  1.1965  2.1123 -1.6002
  419MOL0     H56511   3.153   6.645   0.945 -1.2313  2.3830  2.8348
  419MOL0     H56512   3.305   6.502   0.813  2.7924 -2.8138 -0.3203
  419MOL0     H56513   3.444   6.584   0.878  1.4842 -2.9063  1.1243
  419MOL0     H56514   3.252   6.402   1.045  0.8750 -1.0279  1.0481
  419MOL0     H56515   3.382   6.511   1.110 -0.0962  0.5890 -0.3360
  419MOL0     H56516   3.647   6.394   0.984 -2.0710  1.0572  0.9022
  419MOL0     H56517   3.800   6.132   1.045 -0.1573 -0.4192  0.1078
  419MOL0     H56518   3.737   5.998   0.952 -2.2598 -0.0448  1.8301
  419MOL0     H56519   3.781   6.272   0.809  0.8912 -0.8133 -2.1762
  419MOL0     H56520   3.737   6.113   0.757 -0.7194 -1.6977  1.1401
  419MOL0     H56521   4.010   6.214   0.872  0.2091  0.8132 -1.2438
  419MOL0     H56522   3.964   6.179   0.708 -2.7681  0.6314 -0.5634
  419MOL0     H56523   4.104   6.019   0.819  0.1873 -0.6457  1.4137
  419MOL0     H56524   3.940   5.939   0.773  1.8469 -0.9742 -0.2187
  419MOL0     H56525   4.162   5.793   0.805  0.5827  0.4099 -0.5418
  419MOL0     H56526   4.359   5.662   0.777 -3.1285  1.5929  0.8820
  419MOL0     H56527   4.426   5.556   0.889  0.2207 -2.5811 -2.9779
  419MOL0     H56528   4.275   5.510   0.799 -0.8419 -0.2275  1.9334
  419MOL0     H56529   4.286   5.543   1.531  2.3974  1.2311  1.5853
  419MOL0     H56530   4.437   5.469   1.708  0.6665 -0.0559 -0.0971
  419MOL0     H56531   4.816   5.395   1.616  1.3254 -2.0580 -0.4967
  419MOL0     H56532   4.775   5.386   1.794 -1.1232  2.3108 -1.9737
  419MOL0     H56533   4.859   5.150   1.773 -1.0003  1.2290  1.2031
  419MOL0     H56534   4.868   5.171   1.606 -2.2660 -0.1221  0.7833
  419MOL0     H56535   5.054   5.347   1.774 -0.0521  1.1592  0.6242
  419MOL0     H56536   5.083   5.295   1.614  3.8035  0.7695  3.4875
  419MOL0     H56537   5.076   5.108   1.851 -2.1427  2.4814  0.0857
  419MOL0     H56538   5.105   5.060   1.680  2.1162 -0.1974 -0.2836
  419MOL0     H56539   5.267   5.266   1.827  0.9935 -0.9661 -0.0877
  419MOL0     H56540   5.290   5.200   1.671 -0.8688 -0.0607 -1.1060
  419MOL0     H56541   5.294   5.039   1.944  0.0078  0.9794  0.0153
  419MOL0     H56542   5.341   4.971   1.784  0.2841 -2.1693  2.1810
  419MOL0     H56543   5.465   5.207   1.917  1.3857  0.8113  0.5221
  419MOL0     H56544   5.513   5.138   1.759 -0.4880 -0.8241 -0.8657
  419MOL0     H56545   5.549   4.914   1.849 -5.7882  0.7086  0.5611
  419MOL0     H56546   5.558   4.989   2.018 -1.7853 -1.8123 -0.3508
  419MOL0     H56547   4.661   5.233   1.431 -0.4447 -0.8436  1.5885
  419MOL0     H56548   4.518   5.343   1.242 -3.1965 -2.0861 -0.5847
  419MOL0     H56549   4.125   5.672   1.280 -0.7255  1.8772  0.0535
  419MOL0     H56550   3.982   5.833   1.182 -1.6196  0.9248 -3.6027
  419MOL0     H56551   2.774   7.203   1.204  2.9625  1.3342 -1.4270
  419MOL0     H56552   2.530   7.281   1.243 -1.3228 -0.9679  0.0552
  419MOL0     H56553   2.133   7.262   1.217 -1.4836 -0.0838 -1.8055
  419MOL0     H56554   1.910   7.309   1.271  2.0994 -3.0960 -2.1461
  419MOL0     H56555   1.686   7.379   1.273  0.0295 -2.3987  2.4641
  419MOL0     H56556   1.754   7.432   1.423 -1.2223 -3.5128 -1.1253
  419MOL0     H56557   1.504   7.546   1.285  0.1837 -1.2186  0.9141
  419MOL0     H56558   1.607   7.643   1.405 -1.2921  1.2953  2.6194
  419MOL0     H56559   1.546   7.400   1.544 -0.3387  0.7675  1.6736
  419MOL0     H56560   1.405   7.433   1.456 -0.1187 -0.3113  1.3427
  419MOL0     H56561   1.510   7.604   1.675  0.8754  0.3565 -1.3058
  419MOL0     H56562   1.349   7.530   1.653  1.0567 -0.1554  2.7723
  419MOL0     H56563   1.302   7.908   1.487  2.3791  0.0486 -0.1422
  419MOL0     H56564   1.964   7.719   1.169  1.4866  0.7479  1.9307
  419MOL0     H56565   2.207   7.667   1.099  1.6294 -0.7494 -2.2704
  420MOL0     O56566   1.568  11.319   6.074  0.3941  0.3433 -0.1662
  420MOL0     C56567   1.633  11.290   6.176  0.6402 -0.0843 -0.7096
  420MOL0     O56568   1.587  11.301   6.306 -0.5773  0.3406  0.1155
  420MOL0     C56569   1.481  11.377   6.335  0.0237 -0.5616 -0.2493
  420MOL0     C56570   1.462  11.512   6.308  0.1436  0.3031 -0.5586
  420MOL0     C56571   1.329  11.571   6.333  0.6488  0.1085 -0.3768
  420MOL0     C56572   1.231  11.506   6.403 -0.5266  0.6400  0.3066
  420MOL0     O56573   1.111  11.563   6.436  0.1770 -0.4935 -0.2156
  420MOL0     C56574   0.989  11.534   6.366 -1.1183 -1.0951  0.9721
  420MOL0     C56575   0.882  11.636   6.367 -1.0269 -0.8443  0.4724
  420MOL0     C56576   0.824  11.650   6.513  0.5464  0.0310  0.9368
  420MOL0     C56577   0.753  11.784   6.512 -0.7415 -0.1130  0.0142
  420MOL0     C56578   0.680  11.802   6.646 -0.2840 -0.3866 -0.3079
  420MOL0     C56579   0.531  11.759   6.624  0.2992  1.1050 -0.3730
  420MOL0     C56580   0.447  11.771   6.757  0.4047  0.7204 -0.6015
  420MOL0     C56581   0.300  11.734   6.740  0.2848  0.9239  0.1623
  420MOL0     N56582   0.277  11.590   6.742  0.0435 -0.1825 -0.5257
  420MOL0     C56583   0.290  11.519   6.855 -0.2231 -0.1107  0.1252
  420MOL0     C56584   0.236  11.394   6.824 -0.6304 -0.0187 -0.3772
  420MOL0     C56585   0.238  11.292   6.926 -0.1595  0.5349 -0.6536
  420MOL0     C56586   0.104  11.256   6.991  0.2178  0.4534 -0.4383
  420MOL0     C56587   0.021  11.381   7.020  0.5829  0.5642 -0.0553
  420MOL0     C56588  -0.054  11.361   7.149  0.3257  0.0931 -1.2915
  420MOL0     O56589  -0.106  11.231   7.174 -0.4572  0.0882  0.4934
  420MOL0     C56590  -0.152  11.191   7.295 -0.6157  0.3778 -0.1567
  420MOL0     C56591  -0.154  11.055   7.333  0.5228  0.0348  0.5228
  420MOL0     C56592  -0.199  11.016   7.460  0.7615  0.1780  0.7517
  420MOL0     C56593  -0.192  10.863   7.486 -0.3056 -0.8747 -0.8571
  420MOL0     C56594  -0.256  11.109   7.555 -0.1600 -0.7072  0.2004
  420MOL0     C56595  -0.298  11.078   7.695  0.7695 -0.9881  0.0812
  420MOL0     O56596  -0.391  11.169   7.749  0.1315  0.6599  0.6831
  420MOL0     C56597  -0.416  11.170   7.889 -0.0475 -0.4904  0.1815
  420MOL0     C56598  -0.526  11.227   7.942 -0.3490  0.1014 -0.0233
  420MOL0     C56599  -0.551  11.227   8.078 -0.4625 -0.2299 -0.0440
  420MOL0     C56600  -0.462  11.163   8.176 -0.2612 -0.9962  0.4744
  420MOL0     O56601  -0.493  11.157   8.308  0.2195 -0.4369  0.5078
  420MOL0     C56602  -0.425  11.059   8.401  0.8013  0.1713  0.7368
  420MOL0     C56603  -0.476  11.067   8.548  0.5492 -0.6204 -0.4904
  420MOL0     C56604  -0.461  11.208   8.612  0.6258 -0.7422  0.0486
  420MOL0     C56605  -0.435  11.209   8.758  1.2470  0.1289 -0.6956
  420MOL0     C56606  -0.422  11.354   8.816  0.4752 -1.1891 -1.1203
  420MOL0     C56607  -0.446  11.371   8.974  0.5459  0.8095  0.2352
  420MOL0     C56608  -0.321  11.334   9.060 -0.1984 -0.2830 -0.2130
  420MOL0     C56609  -0.311  11.181   9.091  0.9490 -0.8234 -0.1054
  420MOL0    Cl56610  -0.411  11.124   9.234 -0.0685 -0.0117  0.2763
  420MOL0     C56611  -0.341  11.114   8.122 -0.6280  0.7403  0.7665
  420MOL0     C56612  -0.323  11.116   7.981  0.8432 -0.4024  0.3834
  420MOL0     O56613  -0.269  10.968   7.750  0.2121 -0.4990 -0.6919
  420MOL0     C56614  -0.251  11.242   7.506  0.1855  0.6174 -0.0016
  420MOL0     C56615  -0.201  11.284   7.384 -0.2329 -0.1888  0.0306
  420MOL0     N56616   0.183  11.396   6.704 -0.1977  0.3677  1.0824
  420MOL0     N56617   0.218  11.512   6.654 -0.5605 -0.8298 -0.0522
  420MOL0     C56618   1.270  11.375   6.450  0.3375 -0.4752 -0.1331
  420MOL0     C56619   1.396  11.314   6.420  0.6573  0.1967  0.5324
  420MOL0     C56620   1.767  11.233   6.161  0.6619  0.8601  0.3887
  420MOL0     C56621   1.845  11.204   6.274 -0.2356 -0.1299  0.9932
  420MOL0     C56622   1.962  11.127   6.261 -0.4199 -0.3921 -0.5918
  420MOL0     C56623   2.016  11.078   6.137  0.7723  0.6399 -0.0123
  420MOL0     O56624   2.132  11.003   6.141 -0.1496 -0.1801 -0.1082
  420MOL0     C56625   2.244  11.037   6.056  0.1246  0.0494  0.0511
  420MOL0     C56626   2.312  10.906   5.990  0.9567  0.1004 -0.7684
  420MOL0     C56627   2.422  10.944   5.892  0.2892  1.0743 -0.1739
  420MOL0     C56628   2.467  10.813   5.814 -0.0261  0.4144 -0.0259
  420MOL0     C56629   2.358  10.782   5.727  0.3031 -1.0294 -0.8939
  420MOL0     C56630   2.257  10.752   5.674 -0.2644 -0.4410 -0.0650
  420MOL0     C56631   1.935  11.110   6.027 -0.5492 -0.5848  0.0566
  420MOL0     C56632   1.817  11.190   6.036 -0.1984  0.1469 -0.1954
  420MOL0     H56633   1.535  11.574   6.258  0.0697  0.3059 -0.6628
  420MOL0     H56634   1.307  11.676   6.313  2.6644  0.3809 -1.4055
  420MOL0     H56635   1.021  11.515   6.263 -1.1741 -0.8944  0.9165
  420MOL0     H56636   0.958  11.443   6.417  1.5406 -0.3488  4.2424
  420MOL0     H56637   0.918  11.734   6.336  0.2651 -0.6836  2.3436
  420MOL0     H56638   0.808  11.597   6.295  1.5953  1.1648 -3.7132
  420MOL0     H56639   0.759  11.565   6.528 -0.3012 -0.6886 -4.6051
  420MOL0     H56640   0.906  11.637   6.585  0.4591  0.3625  1.0979
  420MOL0     H56641   0.824  11.864   6.489  0.6451 -0.9528  1.2161
  420MOL0     H56642   0.675  11.777   6.436  0.1641 -0.3926 -0.9100
  420MOL0     H56643   0.728  11.742   6.724  3.5844  1.5959 -0.9051
  420MOL0     H56644   0.672  11.909   6.668 -3.8074 -0.6483  0.1645
  420MOL0     H56645   0.478  11.820   6.550 -1.7301 -0.9273 -0.6734
  420MOL0     H56646   0.533  11.658   6.582 -2.4720 -0.2210  2.3398
  420MOL0     H56647   0.498  11.703   6.826  2.5301  0.3860 -2.3927
  420MOL0     H56648   0.451  11.873   6.797 -1.3986 -0.1760  2.1586
  420MOL0     H56649   0.252  11.769   6.648 -1.1120  0.4456  0.6917
  420MOL0     H56650   0.253  11.773   6.831  1.6932  0.5956  1.0778
  420MOL0     H56651   0.332  11.545   6.952 -0.0182  1.0565 -0.2682
  420MOL0     H56652   0.286  11.196   6.904 -0.3368  0.2750  0.0476
  420MOL0     H56653   0.295  11.332   7.010 -0.1202 -4.2929  1.9759
  420MOL0     H56654   0.129  11.201   7.082  1.6066  2.5942  0.5495
  420MOL0     H56655   0.047  11.192   6.923 -0.0139 -1.0577  1.1088
  420MOL0     H56656  -0.052  11.381   6.939  1.8530  1.8074 -1.2606
  420MOL0     H56657   0.070  11.478   7.010  0.3385  0.8273  1.1277
  420MOL0     H56658  -0.143  11.424   7.143  0.9178  1.8518  3.6728
  420MOL0     H56659   0.004  11.391   7.237 -2.0529 -1.1528  0.8318
  420MOL0     H56660  -0.119  10.979   7.264  3.4255 -0.6055  2.5443
  420MOL0     H56661  -0.279  10.828   7.541 -0.4501  3.2837  2.0432
  420MOL0     H56662  -0.179  10.811   7.391  2.6374  0.1175 -1.1108
  420MOL0     H56663  -0.101  10.846   7.543  0.6965  0.5334 -1.9528
  420MOL0     H56664  -0.600  11.269   7.874  0.9641 -1.1856 -2.3574
  420MOL0     H56665  -0.651  11.256   8.107 -0.3930  0.5871 -0.6018
  420MOL0     H56666  -0.431  10.961   8.354  0.3383  1.0647 -1.1736
  420MOL0     H56667  -0.317  11.079   8.401  0.6492  1.1511 -0.4373
  420MOL0     H56668  -0.581  11.038   8.545  1.5367 -4.7289 -1.3357
  420MOL0     H56669  -0.433  10.995   8.617 -0.7168  0.1033  1.1338
  420MOL0     H56670  -0.550  11.268   8.596  0.9844  0.1890  1.3804
  420MOL0     H56671  -0.382  11.258   8.554  0.2632 -1.7411 -1.3678
  420MOL0     H56672  -0.514  11.149   8.805  2.0386  0.3335  0.9889
  420MOL0     H56673  -0.351  11.143   8.783 -0.2327 -1.8471 -0.6459
  420MOL0     H56674  -0.501  11.415   8.770  0.8122  2.4112  2.5968
  420MOL0     H56675  -0.328  11.403   8.790  1.8311 -3.3563 -0.5588
  420MOL0     H56676  -0.474  11.474   8.996 -0.1765  0.4474  1.0661
  420MOL0     H56677  -0.531  11.314   9.012 -1.4532  1.6568 -2.5731
  420MOL0     H56678  -0.339  11.377   9.160  0.9033 -2.9384  1.2389
  420MOL0     H56679  -0.227  11.373   9.023  0.6924  1.0733  3.1069
  420MOL0     H56680  -0.205  11.156   9.098  0.9159 -1.1840 -0.8599
  420MOL0     H56681  -0.351  11.123   9.008  0.5650 -0.7427  0.0209
  420MOL0     H56682  -0.264  11.072   8.186  0.1390 -1.2157 -1.3139
  420MOL0     H56683  -0.227  11.079   7.949  0.2585 -1.8380  0.2175
  420MOL0     H56684  -0.267  11.305   7.593 -1.3738 -0.7470  0.7521
  420MOL0     H56685  -0.214  11.390   7.368  1.2648  0.0987  0.5852
  420MOL0     H56686   1.206  11.323   6.521 -3.0667  0.4935 -2.2437
  420MOL0     H56687   1.402  11.210   6.448 -1.7515 -0.2128 -0.1642
  420MOL0     H56688   1.813  11.217   6.377 -1.4691 -1.2607  0.7842
  420MOL0     H56689   2.022  11.084   6.341  3.6289  1.2089 -2.5060
  420MOL0     H56690   2.201  11.099   5.978 -1.2247 -2.9258 -1.7310
  420MOL0     H56691   2.324  11.087   6.112 -0.5422  1.7051 -0.4032
  420MOL0     H56692   2.231  10.853   5.939  1.6883 -2.2846  0.3861
  420MOL0     H56693   2.352  10.838   6.066  0.1197  0.0059 -0.4011
  420MOL0     H56694   2.508  10.987   5.943  0.7961 -1.5882  1.3965
  420MOL0     H56695   2.385  11.015   5.817 -1.4896  0.5006  0.1242
  420MOL0     H56696   2.483  10.726   5.878  1.5968  0.7353  0.0462
  420MOL0     H56697   2.553  10.826   5.749  0.0093  2.3491  0.3318
  420MOL0     H56698   2.172  10.727   5.615 -0.2786  2.7464 -1.5661
  420MOL0     H56699   1.970  11.074   5.930  1.2313 -0.1252  0.4875
  420MOL0     H56700   1.764  11.206   5.943 -2.3004  4.1790  1.4580
  421MOL0     O56701   4.831   6.906  10.009  0.1854 -1.1956 -0.7026
  421MOL0     C56702   4.910   7.003  10.019 -1.4113 -0.4021 -0.0495
  421MOL0     O56703   4.888   7.129   9.979  1.2321  0.6119 -0.0040
  421MOL0     C56704   4.757   7.159   9.943  0.4192 -0.9181  0.2265
  421MOL0     C56705   4.742   7.264   9.852 -0.2143 -0.3231  0.5432
  421MOL0     C56706   4.609   7.311   9.823 -0.0314  0.2629 -0.5610
  421MOL0     C56707   4.488   7.261   9.885 -0.3371 -0.1784  1.0709
  421MOL0     O56708   4.369   7.297   9.825  0.8475 -0.4701 -0.6357
  421MOL0     C56709   4.315   7.214   9.724 -0.1427 -0.0861 -0.9706
  421MOL0     C56710   4.416   7.162   9.617  0.3035 -0.1895 -0.6465
  421MOL0     C56711   4.459   7.279   9.527 -0.2786 -0.1637  0.0687
  421MOL0     C56712   4.507   7.224   9.385 -0.7141 -1.0649  0.3037
  421MOL0     C56713   4.555   7.351   9.301  0.5860  0.7524  0.3895
  421MOL0     C56714   4.615   7.313   9.170 -0.4345  0.1839  0.5502
  421MOL0     C56715   4.662   7.435   9.094  0.6828  0.4420  0.1754
  421MOL0     C56716   4.767   7.391   8.992  0.7941  0.1327  0.7819
  421MOL0     N56717   4.847   7.504   8.952  0.0891 -0.4542  0.1996
  421MOL0     C56718   4.802   7.625   8.893  0.2070 -0.4570 -0.3808
  421MOL0     C56719   4.912   7.699   8.865  0.2735  0.2605 -0.1763
  421MOL0     C56720   4.921   7.845   8.800 -0.4219  0.2610  1.1023
  421MOL0     C56721   4.996   7.948   8.889 -0.1791  1.3520  0.3265
  421MOL0     C56722   4.969   8.092   8.834 -0.5781  0.6866 -0.4866
  421MOL0     C56723   5.022   8.205   8.915  0.3532 -0.5350 -0.6762
  421MOL0     O56724   4.976   8.328   8.865  0.1008  0.1363  0.3895
  421MOL0     C56725   5.061   8.418   8.800  0.2811 -0.8294 -0.3856
  421MOL0     C56726   5.143   8.371   8.703  0.0696  0.0466 -0.3493
  421MOL0     C56727   5.235   8.450   8.637 -0.3039 -0.1227 -0.1679
  421MOL0     C56728   5.327   8.378   8.529  0.9707  0.2588 -0.0445
  421MOL0     C56729   5.240   8.589   8.678  0.2289  1.1876  1.3008
  421MOL0     C56730   5.336   8.683   8.628  0.4308  0.1583 -0.3375
  421MOL0     O56731   5.359   8.793   8.702 -0.1548 -0.7779  0.5223
  421MOL0     C56732   5.437   8.892   8.648  0.4827 -0.2957  0.8422
  421MOL0     C56733   5.573   8.892   8.643 -0.0938  0.5812 -0.0716
  421MOL0     C56734   5.649   8.988   8.575  0.3157  0.9435  0.7971
  421MOL0     C56735   5.579   9.074   8.491 -0.1412 -0.3157 -0.2792
  421MOL0     O56736   5.640   9.164   8.401 -0.1620 -0.1849 -0.6237
  421MOL0     C56737   5.734   9.116   8.310 -0.4123  0.5226 -0.0925
  421MOL0     C56738   5.849   9.216   8.319  0.0176 -0.5807  0.1469
  421MOL0     C56739   5.963   9.169   8.231 -0.5493 -0.2253 -0.6982
  421MOL0     C56740   6.083   9.265   8.234  0.2395  0.0831  0.5875
  421MOL0     C56741   6.210   9.204   8.166  0.4900 -0.0916 -0.6922
  421MOL0     C56742   6.311   9.315   8.119  0.0914  2.0042  0.2236
  421MOL0     C56743   6.460   9.273   8.079 -0.0599  0.0139  0.2443
  421MOL0     C56744   6.535   9.180   8.175 -0.1474 -0.0614  0.6248
  421MOL0    Cl56745   6.710   9.149   8.117  0.3000  0.1679 -0.4103
  421MOL0     C56746   5.439   9.074   8.493 -0.4405 -0.8021 -0.8371
  421MOL0     C56747   5.370   8.990   8.576  0.8826 -0.9533 -0.0743
  421MOL0     O56748   5.390   8.660   8.524 -0.2649  1.3392  0.4301
  421MOL0     C56749   5.161   8.629   8.777 -1.0586  0.5141  0.4825
  421MOL0     C56750   5.063   8.555   8.835 -0.2957  0.4820  0.4574
  421MOL0     N56751   5.022   7.620   8.902  0.0957 -0.6103  0.0138
  421MOL0     N56752   4.984   7.517   8.970  0.7035  0.2140  0.3135
  421MOL0     C56753   4.513   7.162   9.976  0.6877 -0.5935  0.4003
  421MOL0     C56754   4.639   7.106  10.008  0.1767  0.6307 -0.8323
  421MOL0     C56755   5.047   6.980  10.067  0.3933 -1.2777 -0.1061
  421MOL0     C56756   5.143   7.077  10.054 -0.7325 -1.2546  0.1176
  421MOL0     C56757   5.268   7.066  10.115  1.5679 -0.1786  0.5647
  421MOL0     C56758   5.303   6.945  10.170  0.7370  0.1276  0.2527
  421MOL0     O56759   5.416   6.945  10.238 -0.6937  0.1842 -0.1935
  421MOL0     C56760   5.486   6.824  10.236 -0.2905 -0.2664  0.2775
  421MOL0     C56761   5.630   6.869  10.212  0.8852  0.6592 -0.3573
  421MOL0     C56762   5.691   6.970  10.322  0.5708  0.1581  0.4775
  421MOL0     C56763   5.833   6.990  10.277 -0.1086  1.0772 -0.2743
  421MOL0     C56764   5.885   7.105  10.342  0.1070 -0.3677 -1.1614
  421MOL0     C56765   5.953   7.199  10.378  0.3612  0.0121  0.4928
  421MOL0     C56766   5.216   6.834  10.161  0.3885  1.0513 -0.0218
  421MOL0     C56767   5.087   6.856  10.130 -0.4087  0.4297  0.3673
  421MOL0     H56768   4.833   7.304   9.809  0.7467 -2.5966  0.3052
  421MOL0     H56769   4.595   7.404   9.769 -0.3821  2.1369  2.5425
  421MOL0     H56770   4.273   7.125   9.772  0.1882 -0.4121 -1.2789
  421MOL0     H56771   4.234   7.260   9.668 -0.5108  1.7355  0.9201
  421MOL0     H56772   4.507   7.113   9.653  0.6719 -1.5580 -3.2499
  421MOL0     H56773   4.360   7.086   9.562  0.0203 -0.6632  0.2709
  421MOL0     H56774   4.385   7.359   9.515 -0.3994 -0.3021 -0.1133
  421MOL0     H56775   4.552   7.320   9.569  1.3286 -2.2082 -1.2479
  421MOL0     H56776   4.585   7.149   9.397  1.0474  0.7249  0.6656
  421MOL0     H56777   4.422   7.183   9.329  1.8450 -1.9185 -3.2932
  421MOL0     H56778   4.466   7.414   9.295 -1.4504 -2.0273 -0.7960
  421MOL0     H56779   4.636   7.394   9.360  0.7283 -1.9714  2.4084
  421MOL0     H56780   4.701   7.250   9.197  1.5539  0.2070 -4.6352
  421MOL0     H56781   4.545   7.254   9.109 -0.7658  0.7676  0.3541
  421MOL0     H56782   4.578   7.488   9.050  1.0557 -0.2860 -1.5322
  421MOL0     H56783   4.722   7.489   9.168  3.7815 -2.2644 -0.1291
  421MOL0     H56784   4.713   7.355   8.904  1.4362 -0.9493  0.8057
  421MOL0     H56785   4.830   7.309   9.030 -0.0536  0.0505  2.0642
  421MOL0     H56786   4.698   7.649   8.873  0.3647 -0.9003 -1.8546
  421MOL0     H56787   4.980   7.841   8.707  0.2225  0.3999  1.4938
  421MOL0     H56788   4.823   7.889   8.780 -0.2641 -0.6941 -2.3715
  421MOL0     H56789   5.101   7.933   8.865 -0.6611  0.0915 -1.1886
  421MOL0     H56790   4.974   7.931   8.995  1.3548 -1.6581  0.2683
  421MOL0     H56791   4.861   8.095   8.846 -0.4523 -0.3814  1.2858
  421MOL0     H56792   4.992   8.115   8.730 -0.2479  2.1594 -0.1111
  421MOL0     H56793   5.129   8.201   8.937  0.4666  2.2571 -0.3274
  421MOL0     H56794   4.976   8.215   9.014  1.8223  3.5243 -0.2310
  421MOL0     H56795   5.140   8.266   8.677  0.9190 -1.4164  4.4019
  421MOL0     H56796   5.262   8.308   8.477 -0.9375 -0.2109  2.7696
  421MOL0     H56797   5.378   8.445   8.459  0.8672 -2.8464 -3.3757
  421MOL0     H56798   5.409   8.328   8.582  1.2772  3.6880  3.1370
  421MOL0     H56799   5.631   8.820   8.699  0.7585  0.3958 -1.1514
  421MOL0     H56800   5.758   8.982   8.571  0.3163  1.1142 -2.7261
  421MOL0     H56801   5.771   9.014   8.322  1.9588  0.9226 -3.0080
  421MOL0     H56802   5.696   9.124   8.208  1.2371  2.5788 -0.6054
  421MOL0     H56803   5.811   9.310   8.277 -1.8783 -0.9614  0.8859
  421MOL0     H56804   5.881   9.224   8.423  1.5838 -2.5739 -0.1267
  421MOL0     H56805   5.939   9.158   8.124  0.0013  0.4533 -0.9009
  421MOL0     H56806   5.999   9.073   8.269  1.6048  0.1730 -1.5935
  421MOL0     H56807   6.044   9.354   8.183  1.5146 -0.4728 -1.4834
  421MOL0     H56808   6.107   9.305   8.333 -0.1506  1.0086  0.3200
  421MOL0     H56809   6.185   9.135   8.084  1.9614 -2.7260  0.9328
  421MOL0     H56810   6.258   9.132   8.233 -0.5008 -2.3315 -2.2355
  421MOL0     H56811   6.272   9.365   8.030 -1.3384  0.0942 -0.3167
  421MOL0     H56812   6.329   9.391   8.195  1.5891  6.4456 -4.1065
  421MOL0     H56813   6.523   9.362   8.074  0.3259 -0.3247 -1.3887
  421MOL0     H56814   6.455   9.232   7.977 -1.4586  2.2064 -0.6334
  421MOL0     H56815   6.475   9.089   8.173 -2.5529  1.4229 -0.2283
  421MOL0     H56816   6.539   9.216   8.279  1.7749 -0.8534  0.8623
  421MOL0     H56817   5.390   9.154   8.440  0.2124  0.4738  0.4106
  421MOL0     H56818   5.264   9.004   8.595  0.9165 -0.2191 -0.3890
  421MOL0     H56819   5.182   8.728   8.816  0.8063 -0.9811  3.6869
  421MOL0     H56820   5.001   8.591   8.917  0.7940 -0.7628  1.8744
  421MOL0     H56821   4.427   7.125  10.031  0.3897  1.5580  1.5256
  421MOL0     H56822   4.628   7.038  10.092  0.1431  1.1680 -0.3970
  421MOL0     H56823   5.131   7.174  10.005 -2.2976 -1.6785 -0.3955
  421MOL0     H56824   5.333   7.152  10.111  3.0294 -1.1757  1.4976
  421MOL0     H56825   5.480   6.778  10.335 -4.5395 -0.6806  0.0531
  421MOL0     H56826   5.452   6.747  10.165  0.4329 -0.1432 -0.2083
  421MOL0     H56827   5.640   6.916  10.114 -1.3115 -2.2486 -2.1228
  421MOL0     H56828   5.689   6.778  10.207 -0.6948 -0.3915 -0.8977
  421MOL0     H56829   5.682   6.938  10.426 -2.2278 -0.5482  0.1173
  421MOL0     H56830   5.639   7.065  10.307 -2.6114 -1.7011 -1.5788
  421MOL0     H56831   5.834   7.002  10.169 -2.0183 -1.3739 -0.6428
  421MOL0     H56832   5.899   6.903  10.291  0.9901  1.3301 -3.1765
  421MOL0     H56833   6.022   7.276  10.407 -0.0358  1.2787 -1.6927
  421MOL0     H56834   5.237   6.735  10.201 -0.3718  1.6414  1.9686
  421MOL0     H56835   5.010   6.780  10.137 -0.6588  0.7422  1.0560
  422MOL0     O56836   0.654  10.429  10.636 -0.0104 -0.8787  0.0068
  422MOL0     C56837   0.756  10.425  10.702 -0.4164 -0.3786 -0.0305
  422MOL0     O56838   0.755  10.458  10.841  0.5941  0.3374 -0.2111
  422MOL0     C56839   0.631  10.487  10.905  0.0491  0.1128 -0.4556
  422MOL0     C56840   0.562  10.382  10.962  0.6713  0.0100 -0.3596
  422MOL0     C56841   0.430  10.395  11.023 -1.2022 -0.4684 -0.0007
  422MOL0     C56842   0.387  10.532  11.044  0.1377 -0.3030 -0.8759
  422MOL0     O56843   0.277  10.564  11.111 -0.2610 -0.0269  0.7921
  422MOL0     C56844   0.145  10.497  11.082 -0.4762 -0.4347 -0.5466
  422MOL0     C56845   0.073  10.474  11.208  0.7000  0.7482 -0.7150
  422MOL0     C56846   0.127  10.348  11.283 -0.4450  0.9333  0.1056
  422MOL0     C56847   0.015  10.290  11.358 -0.1515  0.2765  0.5101
  422MOL0     C56848   0.067  10.200  11.474 -0.2805  0.1874  0.5230
  422MOL0     C56849  -0.045  10.130  11.548 -0.0362  0.1870  0.5123
  422MOL0     C56850   0.003  10.045  11.659 -0.3162 -0.0535 -1.3325
  422MOL0     C56851   0.047  10.114  11.794  0.3016  0.1603  0.7492
  422MOL0     N56852  -0.071  10.159  11.876 -0.0400 -0.0901 -0.0891
  422MOL0     C56853  -0.124  10.290  11.879  0.2972  0.4265  0.4787
  422MOL0     C56854  -0.246  10.277  11.952 -0.3650  0.5983  0.5759
  422MOL0     C56855  -0.356  10.378  11.989 -0.0509 -0.0126 -0.2390
  422MOL0     C56856  -0.494  10.335  11.962  1.1303 -0.6196  0.5512
  422MOL0     C56857  -0.514  10.323  11.810  0.1376  1.4663  0.5120
  422MOL0     C56858  -0.658  10.331  11.755  0.2215  0.1193 -0.3491
  422MOL0     O56859  -0.651  10.277  11.623  0.0727  0.5962  0.3481
  422MOL0     C56860  -0.747  10.320  11.528 -0.8224 -0.4574  0.3502
  422MOL0     C56861  -0.716  10.283  11.397  0.4959 -0.5914 -0.0483
  422MOL0     C56862  -0.802  10.317  11.288  0.3758  0.1660 -0.3310
  422MOL0     C56863  -0.763  10.277  11.151 -0.2481  0.5087 -0.1680
  422MOL0     C56864  -0.923  10.392  11.313 -0.8295 -0.8123  0.2098
  422MOL0     C56865  -1.021  10.447  11.216  0.4614 -0.4788 -0.5796
  422MOL0     O56866  -1.110  10.553  11.258 -0.8893  0.4655  0.5299
  422MOL0     C56867  -1.214  10.586  11.173 -0.4375 -0.1817  0.1575
  422MOL0     C56868  -1.190  10.642  11.047  1.0800  0.1841  0.3285
  422MOL0     C56869  -1.289  10.708  10.971 -0.4017 -0.1284 -0.1393
  422MOL0     C56870  -1.421  10.713  11.027  0.4055 -0.4145  0.9601
  422MOL0     O56871  -1.528  10.780  10.964  0.3617 -0.2087 -0.1767
  422MOL0     C56872  -1.504  10.909  10.915 -0.7168  0.2628 -0.1049
  422MOL0     C56873  -1.640  10.975  10.886 -0.7270 -0.6329 -0.1775
  422MOL0     C56874  -1.726  10.894  10.800  1.4675 -0.1015 -1.0805
  422MOL0     C56875  -1.868  10.948  10.775 -0.0475 -0.1599 -0.3838
  422MOL0     C56876  -1.950  10.853  10.689  0.1327 -0.2007  0.2414
  422MOL0     C56877  -2.087  10.926  10.659  0.1101  0.3788 -0.1537
  422MOL0     C56878  -2.194  10.824  10.611 -0.6826  0.7593 -0.8541
  422MOL0     C56879  -2.329  10.875  10.572  0.1413  1.1935  0.8338
  422MOL0    Cl56880  -2.387  11.006  10.686  0.1576  0.4293 -0.4066
  422MOL0     C56881  -1.450  10.636  11.140  0.7548 -0.1751 -0.1876
  422MOL0     C56882  -1.348  10.573  11.215  0.3091  0.0479  0.3855
  422MOL0     O56883  -1.031  10.385  11.113 -0.0962 -0.0144  0.7674
  422MOL0     C56884  -0.932  10.439  11.445 -0.2419  1.4091  0.0436
  422MOL0     C56885  -0.851  10.400  11.554 -0.4722 -0.4232  0.2705
  422MOL0     N56886  -0.256  10.147  11.990  0.5275 -0.0265 -0.9175
  422MOL0     N56887  -0.152  10.079  11.949 -0.0140 -0.8196  0.2800
  422MOL0     C56888   0.470  10.642  11.006 -0.2575 -0.3659  0.1003
  422MOL0     C56889   0.583  10.615  10.925  0.2604 -0.1217 -0.1695
  422MOL0     C56890   0.887  10.400  10.635 -0.2531  0.5522 -0.5302
  422MOL0     C56891   1.003  10.373  10.713  0.5064 -0.3064  0.7256
  422MOL0     C56892   1.121  10.361  10.637 -0.5519 -0.5398  1.4291
  422MOL0     C56893   1.126  10.369  10.497 -1.0745  0.0417 -0.1981
  422MOL0     O56894   1.241  10.354  10.423  0.8634 -0.2162 -0.7358
  422MOL0     C56895   1.354  10.425  10.450 -0.5491 -0.0397  0.4830
  422MOL0     C56896   1.468  10.328  10.500 -0.0362 -0.3026  0.1245
  422MOL0     C56897   1.610  10.394  10.500 -0.1158  0.2944 -0.0415
  422MOL0     C56898   1.699  10.269  10.523 -0.2469  1.3719  0.1575
  422MOL0     C56899   1.708  10.185  10.401  0.4294 -0.2715 -0.3341
  422MOL0     C56900   1.713  10.126  10.295  2.1741 -0.2600 -1.0109
  422MOL0     C56901   1.007  10.390  10.418  0.1393 -0.4134  0.2225
  422MOL0     C56902   0.888  10.403  10.498  0.5754  0.4570 -0.0840
  422MOL0     H56903   0.606  10.282  10.959  2.8086  0.8665  0.2377
  422MOL0     H56904   0.352  10.326  11.054 -1.5827  0.1415  0.4184
  422MOL0     H56905   0.075  10.556  11.022  4.0629  3.7937 -2.4393
  422MOL0     H56906   0.162  10.406  11.024  1.4916  0.2543 -1.1653
  422MOL0     H56907   0.071  10.563  11.273  2.1475  0.3992 -0.1587
  422MOL0     H56908  -0.027  10.458  11.167  1.1004 -0.0811 -1.3831
  422MOL0     H56909   0.170  10.272  11.217  0.6219  0.3160  1.4598
  422MOL0     H56910   0.210  10.376  11.348  0.3409  0.3610 -0.6249
  422MOL0     H56911  -0.045  10.370  11.403 -0.1974 -0.3617  1.6280
  422MOL0     H56912  -0.058  10.229  11.304  1.4694 -2.8621  1.6045
  422MOL0     H56913   0.118  10.119  11.421  0.2703  2.0121 -1.9563
  422MOL0     H56914   0.125  10.255  11.548  0.8080  1.5183 -1.2319
  422MOL0     H56915  -0.113  10.208  11.585 -1.1570 -0.1178 -0.8083
  422MOL0     H56916  -0.101  10.082  11.467  0.4229  2.0334 -1.0036
  422MOL0     H56917  -0.081   9.978  11.684  1.7762 -3.5607 -2.8743
  422MOL0     H56918   0.084   9.985  11.616 -0.6757  0.2183 -2.4264
  422MOL0     H56919   0.101  10.208  11.784  0.4766  0.1995  1.9650
  422MOL0     H56920   0.115  10.042  11.841  2.4042  0.5811 -1.4501
  422MOL0     H56921  -0.094  10.384  11.836 -0.0977 -0.6788 -2.4115
  422MOL0     H56922  -0.345  10.386  12.097 -0.6765 -0.7424 -0.1166
  422MOL0     H56923  -0.336  10.472  11.936 -1.0700 -0.4463 -1.4648
  422MOL0     H56924  -0.555  10.412  12.009  0.2742 -1.4694  0.8535
  422MOL0     H56925  -0.504  10.238  12.013 -0.7456 -1.4825 -1.3142
  422MOL0     H56926  -0.468  10.227  11.784 -0.4771  1.5535 -1.0387
  422MOL0     H56927  -0.450  10.399  11.764  3.6590 -1.9111 -0.7739
  422MOL0     H56928  -0.678  10.439  11.752 -0.1993  0.0775  0.7832
  422MOL0     H56929  -0.734  10.292  11.823  1.2633  2.9469  2.6829
  422MOL0     H56930  -0.624  10.232  11.370  0.3541 -0.0068 -1.7978
  422MOL0     H56931  -0.663  10.234  11.161 -0.1509  0.5202 -1.0785
  422MOL0     H56932  -0.826  10.209  11.094 -0.4190  0.0461  0.5497
  422MOL0     H56933  -0.756  10.371  11.096  0.3581 -0.8431 -2.5121
  422MOL0     H56934  -1.090  10.660  11.009  0.9728 -3.1840 -1.9863
  422MOL0     H56935  -1.260  10.762  10.881 -1.1591  0.3483 -0.1093
  422MOL0     H56936  -1.447  10.972  10.984 -1.8102  1.1479  0.0193
  422MOL0     H56937  -1.452  10.907  10.819 -1.0043 -1.7455 -0.2530
  422MOL0     H56938  -1.677  11.018  10.979  1.9057 -0.7765  1.0153
  422MOL0     H56939  -1.623  11.068  10.830  0.9974 -1.9478 -1.9653
  422MOL0     H56940  -1.742  10.794  10.840  4.5474 -0.4585 -0.4813
  422MOL0     H56941  -1.678  10.887  10.702  0.9515  2.3216 -1.5784
  422MOL0     H56942  -1.921  10.950  10.870 -0.6666 -0.4729 -0.7127
  422MOL0     H56943  -1.858  11.047  10.729  1.8967  0.2823  0.8919
  422MOL0     H56944  -1.960  10.759  10.745 -3.1937 -0.3141 -0.3304
  422MOL0     H56945  -1.901  10.819  10.598 -2.3279 -3.1239 -0.1543
  422MOL0     H56946  -2.120  10.969  10.754 -1.0185 -0.1421 -0.2889
  422MOL0     H56947  -2.089  10.998  10.577 -1.5703 -0.0142 -0.5062
  422MOL0     H56948  -2.203  10.754  10.695  1.1872  0.0991 -1.1581
  422MOL0     H56949  -2.150  10.764  10.531 -1.0898  2.3497 -2.3384
  422MOL0     H56950  -2.400  10.792  10.574  2.1162 -0.6544 -1.1155
  422MOL0     H56951  -2.322  10.923  10.474 -0.2679  0.7908  0.6040
  422MOL0     H56952  -1.554  10.625  11.171  0.9215 -3.4148 -0.4574
  422MOL0     H56953  -1.378  10.513  11.300  0.8754 -3.6508 -1.7891
  422MOL0     H56954  -1.010  10.511  11.467  0.2844  2.2900 -0.8792
  422MOL0     H56955  -0.883  10.441  11.650 -0.2198  0.6653 -0.0966
  422MOL0     H56956   0.442  10.739  11.047  2.6344 -0.6320  3.1383
  422MOL0     H56957   0.622  10.699  10.869 -1.4098 -0.0400 -1.2597
  422MOL0     H56958   1.009  10.381  10.821 -0.9926  2.8686  0.6991
  422MOL0     H56959   1.215  10.341  10.687  0.3979 -0.9464 -0.4434
  422MOL0     H56960   1.395  10.464  10.357 -1.0653 -3.7759 -1.4913
  422MOL0     H56961   1.340  10.507  10.522 -0.0766  1.6897 -1.2978
  422MOL0     H56962   1.448  10.239  10.441 -3.8422 -0.1985  1.0330
  422MOL0     H56963   1.450  10.289  10.601  1.3629 -0.6031  0.2815
  422MOL0     H56964   1.624  10.460  10.587  0.4982  0.9625 -0.6326
  422MOL0     H56965   1.641  10.453  10.413  2.6790 -0.4089  0.3922
  422MOL0     H56966   1.656  10.201  10.597  1.0853 -3.2317 -2.8436
  422MOL0     H56967   1.797  10.295  10.562  0.3542 -0.1825 -0.2406
  422MOL0     H56968   1.714  10.065  10.207  3.6635 -0.2918 -0.9945
  422MOL0     H56969   0.990  10.373  10.312  0.0532 -2.6093  0.5361
  422MOL0     H56970   0.798  10.427  10.443  0.2033  0.5040  0.5442
  423MOL0     O56971   0.169   1.074   4.941  1.0533  0.3145 -0.0244
  423MOL0     C56972   0.086   1.137   5.004  0.1604  0.9449  1.2046
  423MOL0     O56973   0.094   1.181   5.135 -0.6734  0.0963  0.1248
  423MOL0     C56974   0.186   1.129   5.224 -0.9514  0.2282 -0.2810
  423MOL0     C56975   0.183   1.008   5.285 -0.3773  0.5704  0.4489
  423MOL0     C56976   0.296   0.968   5.361 -0.2238  0.7818  1.2770
  423MOL0     C56977   0.413   1.044   5.370  0.4912  0.3095  0.6139
  423MOL0     O56978   0.524   1.010   5.448  0.0863  0.0866 -0.4017
  423MOL0     C56979   0.541   0.872   5.481 -0.5705  0.3299  0.3214
  423MOL0     C56980   0.678   0.825   5.507 -0.5503  0.0220 -0.0826
  423MOL0     C56981   0.774   0.822   5.381 -0.2023  0.0517  0.2521
  423MOL0     C56982   0.900   0.738   5.418  0.3607  0.8791 -0.1465
  423MOL0     C56983   1.025   0.822   5.387 -0.1816  0.3277  0.2287
  423MOL0     C56984   1.145   0.729   5.410 -0.8832  0.2667  0.7789
  423MOL0     C56985   1.264   0.815   5.461  0.2527  0.2603  0.4637
  423MOL0     C56986   1.389   0.735   5.484 -0.2733 -0.5693 -0.3089
  423MOL0     N56987   1.494   0.808   5.563  1.3882  0.1064 -0.4492
  423MOL0     C56988   1.623   0.776   5.560  0.3855  0.9517 -0.3071
  423MOL0     C56989   1.691   0.871   5.635  0.5467  0.5821 -0.1182
  423MOL0     C56990   1.835   0.912   5.637  0.8519  0.3301  0.5074
  423MOL0     C56991   1.912   0.790   5.690 -0.3906 -0.4384 -0.2346
  423MOL0     C56992   1.947   0.676   5.587 -0.3907 -0.6028 -0.0927
  423MOL0     C56993   2.054   0.576   5.634 -0.3445  0.5789 -0.2595
  423MOL0     O56994   2.168   0.643   5.686 -0.3334  0.2913  0.3420
  423MOL0     C56995   2.280   0.562   5.693 -0.9072  0.1713 -0.0058
  423MOL0     C56996   2.401   0.623   5.705 -0.0290  0.8471  0.2710
  423MOL0     C56997   2.527   0.552   5.692  0.4107  0.1442 -0.3761
  423MOL0     C56998   2.647   0.630   5.731 -0.5511  0.7362  0.3840
  423MOL0     C56999   2.530   0.413   5.677 -0.5747  0.3487 -0.4391
  423MOL0     C57000   2.656   0.332   5.683 -0.4630 -0.3457 -0.2742
  423MOL0     O57001   2.765   0.380   5.617 -0.2885 -0.1989  0.8660
  423MOL0     C57002   2.892   0.354   5.670  0.6497 -0.2316  0.1206
  423MOL0     C57003   2.927   0.389   5.798  0.6792  0.3783  0.0749
  423MOL0     C57004   3.057   0.379   5.836 -1.1220  0.1406  0.8181
  423MOL0     C57005   3.156   0.337   5.738  0.0102  0.3605 -0.8363
  423MOL0     O57006   3.283   0.316   5.772  0.2829  0.2289  0.5956
  423MOL0     C57007   3.349   0.413   5.856  1.0032  0.0098 -0.1282
  423MOL0     C57008   3.503   0.397   5.887 -0.7565 -0.1457 -0.1060
  423MOL0     C57009   3.530   0.248   5.919  0.2964  0.6111 -0.9080
  423MOL0     C57010   3.674   0.235   5.956  0.4822 -0.0832 -0.0933
  423MOL0     C57011   3.718   0.089   5.974  1.0094  0.4475 -0.1763
  423MOL0     C57012   3.865   0.084   6.010 -0.2843  1.0887  0.2659
  423MOL0     C57013   3.908  -0.063   6.047 -0.9095  0.5227 -0.6164
  423MOL0     C57014   4.064  -0.087   6.070 -0.3966  0.0466 -0.6932
  423MOL0    Cl57015   4.106  -0.256   6.052  0.2488 -0.4636 -0.2137
  423MOL0     C57016   3.123   0.298   5.616  0.3401  1.3603 -0.4010
  423MOL0     C57017   2.989   0.310   5.578 -1.1861  0.4178  0.0686
  423MOL0     O57018   2.663   0.243   5.767 -0.4869  0.0706 -0.2449
  423MOL0     C57019   2.408   0.353   5.679  0.9131 -0.3010 -0.0318
  423MOL0     C57020   2.292   0.429   5.698 -0.1197 -0.0759 -0.2398
  423MOL0     N57021   1.592   0.938   5.701 -0.1545 -0.7338  0.0958
  423MOL0     N57022   1.473   0.901   5.659 -0.8338 -0.1673  0.2806
  423MOL0     C57023   0.403   1.176   5.338 -0.0521  0.0792  0.1527
  423MOL0     C57024   0.295   1.214   5.260 -0.6185  0.8652 -0.8548
  423MOL0     C57025  -0.047   1.136   4.943  0.7269  0.0788 -0.6137
  423MOL0     C57026  -0.052   1.158   4.804  0.8400  0.3213  0.4603
  423MOL0     C57027  -0.177   1.188   4.741  0.4585  0.1782 -1.1420
  423MOL0     C57028  -0.293   1.155   4.804  0.1948  0.6979 -0.6262
  423MOL0     O57029  -0.399   1.142   4.720  0.0100  0.0885 -0.1351
  423MOL0     C57030  -0.512   1.068   4.768 -0.4867  0.0538 -0.0214
  423MOL0     C57031  -0.633   1.078   4.678  0.1927 -0.0739  0.2495
  423MOL0     C57032  -0.715   1.196   4.697  0.6480  0.4783  0.3270
  423MOL0     C57033  -0.863   1.166   4.658  0.2040  0.4855  0.4676
  423MOL0     C57034  -0.890   1.099   4.526 -0.2477  0.2177  0.6129
  423MOL0     C57035  -0.911   1.032   4.424 -1.3961 -0.2546 -0.3984
  423MOL0     C57036  -0.287   1.130   4.944  0.5739 -0.0662 -0.6942
  423MOL0     C57037  -0.164   1.123   5.010 -0.3487  0.4525  0.3796
  423MOL0     H57038   0.093   0.948   5.284  0.6227 -1.0097 -0.9281
  423MOL0     H57039   0.287   0.874   5.415  1.4320 -0.9232 -1.1473
  423MOL0     H57040   0.471   0.839   5.558 -0.7864 -2.5611 -0.9605
  423MOL0     H57041   0.498   0.818   5.395 -0.3532  0.0555  0.3840
  423MOL0     H57042   0.719   0.886   5.588 -0.5795  3.7341 -2.6086
  423MOL0     H57043   0.671   0.723   5.545 -0.5794  0.4350  1.0518
  423MOL0     H57044   0.720   0.777   5.297 -0.5275  1.3800 -0.2667
  423MOL0     H57045   0.790   0.927   5.356 -0.8154  0.1214  0.1230
  423MOL0     H57046   0.890   0.715   5.525  0.5431 -0.9099 -0.4758
  423MOL0     H57047   0.895   0.640   5.370  2.3646 -0.5318  2.2628
  423MOL0     H57048   1.015   0.861   5.285  0.2516 -3.7014 -1.5462
  423MOL0     H57049   1.015   0.900   5.463 -0.2676 -0.2568  0.8229
  423MOL0     H57050   1.108   0.664   5.490 -1.9886  1.9017  1.6554
  423MOL0     H57051   1.161   0.665   5.322  1.4814 -0.6635  1.8041
  423MOL0     H57052   1.279   0.908   5.405 -1.6303  0.6500  0.5520
  423MOL0     H57053   1.230   0.850   5.559 -1.4942  1.0183 -0.3651
  423MOL0     H57054   1.424   0.693   5.389  0.3874 -0.6487 -0.0393
  423MOL0     H57055   1.366   0.651   5.550  0.0548  0.1946  0.8181
  423MOL0     H57056   1.652   0.687   5.505 -3.4713 -0.3186 -0.6389
  423MOL0     H57057   1.883   0.937   5.542  0.6425 -1.4799 -0.1146
  423MOL0     H57058   1.844   0.999   5.702 -0.0642 -0.4466  1.7169
  423MOL0     H57059   1.862   0.758   5.782 -1.0248  0.7504 -0.1437
  423MOL0     H57060   2.010   0.832   5.713  0.1755 -0.7913 -1.8973
  423MOL0     H57061   1.977   0.718   5.491 -1.8867 -1.8199 -1.1340
  423MOL0     H57062   1.853   0.621   5.580  0.9824 -3.2141  0.7126
  423MOL0     H57063   2.090   0.526   5.543 -0.9542 -0.9232  0.2903
  423MOL0     H57064   2.014   0.501   5.703 -0.4595  0.7054 -0.1900
  423MOL0     H57065   2.394   0.731   5.710 -2.5922  0.6856  2.5651
  423MOL0     H57066   2.633   0.737   5.748 -1.8029  0.3760  1.7336
  423MOL0     H57067   2.689   0.582   5.820 -0.3771 -0.9010 -0.5405
  423MOL0     H57068   2.722   0.623   5.651  3.4718  1.6178  3.7360
  423MOL0     H57069   2.854   0.412   5.876 -1.8555 -3.2786 -0.9070
  423MOL0     H57070   3.089   0.400   5.938 -0.1096  0.4061  0.4537
  423MOL0     H57071   3.329   0.516   5.825  1.8618 -0.2215 -1.5247
  423MOL0     H57072   3.298   0.404   5.952 -3.3133 -1.7621 -2.2915
  423MOL0     H57073   3.549   0.435   5.795 -2.4293  2.9951  0.2158
  423MOL0     H57074   3.532   0.460   5.971 -0.2778 -0.4475 -0.0405
  423MOL0     H57075   3.500   0.182   5.837  2.2070 -2.8374  0.9384
  423MOL0     H57076   3.473   0.221   6.008  0.7249  1.3241 -0.4078
  423MOL0     H57077   3.741   0.262   5.874  0.4405  0.5090  0.0678
  423MOL0     H57078   3.692   0.294   6.047 -2.1992 -0.2984  0.6468
  423MOL0     H57079   3.695   0.026   5.887  0.0977 -0.2944  0.5901
  423MOL0     H57080   3.656   0.049   6.054  0.3624  1.8127  0.0325
  423MOL0     H57081   3.929   0.121   5.930 -1.4228 -3.6741 -3.2851
  423MOL0     H57082   3.879   0.131   6.108  2.0740 -0.0670  0.5641
  423MOL0     H57083   3.873  -0.127   5.965 -0.0552  1.6336 -1.8837
  423MOL0     H57084   3.856  -0.092   6.138  0.7078  1.7220  0.7600
  423MOL0     H57085   4.110  -0.045   6.160  2.0277 -1.6314 -1.0716
  423MOL0     H57086   4.112  -0.033   5.988  0.1484 -1.8705 -1.7005
  423MOL0     H57087   3.205   0.258   5.557  1.0667  3.1378 -0.6614
  423MOL0     H57088   2.958   0.275   5.480  2.4499 -1.5114 -0.5814
  423MOL0     H57089   2.403   0.245   5.681 -1.5575 -0.2403 -0.4659
  423MOL0     H57090   2.199   0.373   5.712 -0.9971  1.6189  1.0423
  423MOL0     H57091   0.485   1.247   5.344 -0.1331  0.1733  0.1451
  423MOL0     H57092   0.298   1.309   5.208  0.3024  0.1952 -2.0672
  423MOL0     H57093   0.044   1.163   4.753  0.2918 -0.6073 -0.6906
  423MOL0     H57094  -0.174   1.205   4.634  0.7811  0.5696 -1.0736
  423MOL0     H57095  -0.467   0.968   4.761  2.0776  1.2077 -1.0834
  423MOL0     H57096  -0.553   1.071   4.869 -0.5867 -4.8391  0.3308
  423MOL0     H57097  -0.694   0.988   4.691 -0.0010  0.3105  2.3257
  423MOL0     H57098  -0.599   1.076   4.573 -0.6309 -2.1306 -0.0322
  423MOL0     H57099  -0.670   1.271   4.632 -0.4362 -0.5316 -1.6606
  423MOL0     H57100  -0.714   1.232   4.801 -1.9072 -1.5870  1.1597
  423MOL0     H57101  -0.920   1.259   4.651  1.1976  1.0240 -1.1310
  423MOL0     H57102  -0.907   1.098   4.731  1.2315 -0.5985  0.1063
  423MOL0     H57103  -0.907   0.983   4.329  0.9672 -0.4427 -0.2582
  423MOL0     H57104  -0.381   1.113   4.996  1.7919  2.7757  2.8800
  423MOL0     H57105  -0.168   1.121   5.118 -1.0329 -0.7935  0.3564
  424MOL0     O57106   0.424   1.151   7.015 -0.1986 -0.4887  0.5003
  424MOL0     C57107   0.442   1.192   6.901 -0.6058  0.0659 -0.2038
  424MOL0     O57108   0.352   1.179   6.801 -0.4471 -0.1380 -0.0255
  424MOL0     C57109   0.228   1.117   6.807  0.7885  1.0435  0.7650
  424MOL0     C57110   0.190   1.055   6.690  0.9145 -1.3728 -0.3231
  424MOL0     C57111   0.065   0.985   6.687  0.1422  0.3310 -0.3377
  424MOL0     C57112  -0.004   0.955   6.803 -0.7989 -0.7090  0.4041
  424MOL0     O57113  -0.110   0.871   6.795 -0.0788 -0.3850 -0.5911
  424MOL0     C57114  -0.235   0.905   6.863  0.5211 -1.1980 -0.0561
  424MOL0     C57115  -0.340   0.803   6.830 -0.5850 -0.4135  0.5876
  424MOL0     C57116  -0.306   0.665   6.877  0.4731  0.2401  0.1306
  424MOL0     C57117  -0.317   0.634   7.030  0.0312  0.4233  0.4124
  424MOL0     C57118  -0.461   0.618   7.069 -0.5652  0.3951  0.0532
  424MOL0     C57119  -0.476   0.582   7.214  0.7749 -0.3795 -0.4444
  424MOL0     C57120  -0.629   0.580   7.265 -0.3257 -0.3069  0.3249
  424MOL0     C57121  -0.685   0.715   7.310  1.0149  1.1419  0.2776
  424MOL0     N57122  -0.827   0.692   7.347  0.6160  0.5640 -0.5819
  424MOL0     C57123  -0.881   0.632   7.458  0.1575  0.4257 -0.3901
  424MOL0     C57124  -1.015   0.638   7.453 -0.9560 -1.0466 -0.2295
  424MOL0     C57125  -1.116   0.581   7.549 -0.4298 -0.0832  1.2053
  424MOL0     C57126  -1.107   0.654   7.683  0.4140  0.2433 -0.2890
  424MOL0     C57127  -1.196   0.574   7.785  0.1011  1.2150  0.2738
  424MOL0     C57128  -1.343   0.564   7.732  0.6757  0.3788  0.2774
  424MOL0     O57129  -1.405   0.693   7.719 -0.0588 -0.7084 -0.2448
  424MOL0     C57130  -1.541   0.711   7.702  0.6587 -0.4716  0.3265
  424MOL0     C57131  -1.590   0.843   7.740  0.1072  0.3988 -0.7085
  424MOL0     C57132  -1.724   0.890   7.730  0.3502  0.5593 -0.1363
  424MOL0     C57133  -1.741   1.035   7.767  0.9153 -0.7984 -0.6664
  424MOL0     C57134  -1.821   0.794   7.682 -1.4604 -0.0035 -0.7850
  424MOL0     C57135  -1.967   0.822   7.685 -0.4002 -0.1705 -0.2848
  424MOL0     O57136  -2.002   0.960   7.695  0.8175  0.0251  0.6329
  424MOL0     C57137  -2.128   1.012   7.683 -0.4740  0.8229  0.0541
  424MOL0     C57138  -2.245   0.937   7.667 -0.0130  0.3927 -0.4274
  424MOL0     C57139  -2.365   1.009   7.639 -0.1014 -0.0300 -1.1076
  424MOL0     C57140  -2.368   1.149   7.608 -0.2803  0.4626  0.6889
  424MOL0     O57141  -2.478   1.221   7.565 -0.6217  0.2185  0.7404
  424MOL0     C57142  -2.606   1.177   7.599  0.3348 -0.4994  0.6407
  424MOL0     C57143  -2.632   1.220   7.745  0.5712 -0.2200  0.7157
  424MOL0     C57144  -2.661   1.370   7.746  0.2819 -0.5411  0.6039
  424MOL0     C57145  -2.699   1.421   7.889 -0.3564  1.2461  0.1741
  424MOL0     C57146  -2.735   1.564   7.873  0.1680 -0.6925 -0.5898
  424MOL0     C57147  -2.800   1.631   7.991  0.1098  0.4741 -0.6293
  424MOL0     C57148  -2.836   1.784   7.982  0.4870 -0.6729  0.0728
  424MOL0     C57149  -2.902   1.822   7.847 -0.1808 -0.5736 -0.2839
  424MOL0    Cl57150  -3.048   1.730   7.801  0.0517 -0.1852  0.6810
  424MOL0     C57151  -2.249   1.209   7.618 -0.4802  0.7624  0.1624
  424MOL0     C57152  -2.135   1.152   7.664 -0.4415  0.6485 -0.2909
  424MOL0     O57153  -2.036   0.723   7.693  0.7983 -0.7826  0.1940
  424MOL0     C57154  -1.771   0.669   7.629 -0.0293  0.0934 -0.1379
  424MOL0     C57155  -1.634   0.629   7.632  0.3749 -0.0621 -0.0849
  424MOL0     N57156  -1.044   0.704   7.343  0.1623  0.1297  0.0570
  424MOL0     N57157  -0.936   0.733   7.273  0.2142  0.1328  0.1326
  424MOL0     C57158   0.045   1.015   6.924  0.3031  0.4346  0.8579
  424MOL0     C57159   0.147   1.100   6.919 -1.5031  0.2733  0.4695
  424MOL0     C57160   0.575   1.261   6.874  0.5871 -0.5066 -1.3850
  424MOL0     C57161   0.675   1.258   6.974 -0.2836  0.6651 -0.2283
  424MOL0     C57162   0.808   1.287   6.954  0.0383 -0.4494  0.0068
  424MOL0     C57163   0.849   1.347   6.832 -0.5022 -0.0896  1.1128
  424MOL0     O57164   0.970   1.408   6.812  0.3464  0.4970  0.0573
  424MOL0     C57165   1.079   1.352   6.884 -0.3408  0.9392  0.0714
  424MOL0     C57166   1.105   1.211   6.831  0.0506  0.0077 -0.1935
  424MOL0     C57167   1.254   1.162   6.862  0.1882  0.4381 -0.4701
  424MOL0     C57168   1.256   1.091   7.002 -0.2355 -0.2115 -0.0093
  424MOL0     C57169   1.160   0.977   7.002 -0.0382  0.1129  0.5315
  424MOL0     C57170   1.076   0.887   6.996 -0.3124 -1.0161 -0.1395
  424MOL0     C57171   0.750   1.357   6.732 -0.4201  0.5602 -0.7685
  424MOL0     C57172   0.612   1.316   6.751 -0.0432 -0.2907 -0.7847
  424MOL0     H57173   0.259   1.056   6.607  1.0438  0.9850 -0.2592
  424MOL0     H57174   0.048   0.940   6.590  0.7679 -3.4561  1.1447
  424MOL0     H57175  -0.218   0.914   6.970 -1.1880 -0.9231  0.2208
  424MOL0     H57176  -0.260   1.009   6.838 -2.9071 -1.0212  3.1531
  424MOL0     H57177  -0.441   0.832   6.862 -1.4431 -0.9067 -1.5595
  424MOL0     H57178  -0.361   0.814   6.723  1.2027 -2.4911 -0.0400
  424MOL0     H57179  -0.368   0.591   6.826  0.3616  1.9353 -2.3895
  424MOL0     H57180  -0.204   0.639   6.847  0.8188  0.1949  1.2902
  424MOL0     H57181  -0.272   0.534   7.038 -2.4157 -0.6898  1.4550
  424MOL0     H57182  -0.274   0.713   7.093  1.0292 -0.4918  0.9169
  424MOL0     H57183  -0.516   0.710   7.045 -1.4550 -0.0661  0.3083
  424MOL0     H57184  -0.504   0.541   7.004  0.1334  0.9176 -1.0809
  424MOL0     H57185  -0.431   0.483   7.228 -1.0707 -1.0119  1.4959
  424MOL0     H57186  -0.423   0.651   7.280 -0.4679  0.1472  0.0189
  424MOL0     H57187  -0.696   0.544   7.187  1.6095 -1.5146 -0.8693
  424MOL0     H57188  -0.638   0.509   7.348 -0.7968  0.6201  1.0824
  424MOL0     H57189  -0.690   0.776   7.220 -0.0845  1.8686  0.8052
  424MOL0     H57190  -0.619   0.766   7.381 -0.4175 -1.1409  3.5581
  424MOL0     H57191  -0.830   0.602   7.549  0.1627 -2.5538 -1.2978
  424MOL0     H57192  -1.209   0.597   7.493  0.8665  4.2201 -0.0780
  424MOL0     H57193  -1.112   0.471   7.551  0.4873 -0.2022 -1.9970
  424MOL0     H57194  -1.144   0.756   7.670 -0.2763 -0.3002 -3.4703
  424MOL0     H57195  -1.012   0.662   7.735 -1.2387 -1.2755  3.3087
  424MOL0     H57196  -1.188   0.613   7.887  2.6554 -1.6223  1.2668
  424MOL0     H57197  -1.157   0.473   7.797  0.2490  0.7501 -3.1985
  424MOL0     H57198  -1.409   0.502   7.795  0.8572 -1.7520 -1.5233
  424MOL0     H57199  -1.356   0.520   7.633 -1.7530 -1.1523  1.1858
  424MOL0     H57200  -1.507   0.898   7.783  1.3649  0.1860 -2.7185
  424MOL0     H57201  -1.810   1.082   7.696  3.3476  0.0397 -2.5894
  424MOL0     H57202  -1.793   1.020   7.862 -0.0501 -0.0848 -1.0665
  424MOL0     H57203  -1.652   1.096   7.781  0.6018 -0.8709  2.3128
  424MOL0     H57204  -2.252   0.829   7.668  1.3014  0.2915 -0.4674
  424MOL0     H57205  -2.459   0.956   7.635 -1.3841  2.2165 -2.0969
  424MOL0     H57206  -2.675   1.219   7.526  0.7212  0.3822  0.7685
  424MOL0     H57207  -2.618   1.071   7.579 -0.0134  0.1052 -2.9295
  424MOL0     H57208  -2.722   1.168   7.778  1.5938 -1.4823  1.6270
  424MOL0     H57209  -2.552   1.187   7.813 -0.9790 -3.7020  1.0831
  424MOL0     H57210  -2.753   1.381   7.687 -1.1140 -1.9606  2.3975
  424MOL0     H57211  -2.583   1.436   7.708 -0.7222 -0.1370 -0.8264
  424MOL0     H57212  -2.784   1.361   7.924 -0.2072 -1.0484 -2.9836
  424MOL0     H57213  -2.608   1.413   7.948 -0.5212  0.5747  0.3524
  424MOL0     H57214  -2.813   1.566   7.796 -0.7881  2.7439  0.2603
  424MOL0     H57215  -2.649   1.623   7.841 -0.2572 -0.4138 -1.2362
  424MOL0     H57216  -2.894   1.579   8.011  0.3913  0.2425  0.1449
  424MOL0     H57217  -2.738   1.625   8.081 -2.6226 -5.5097  1.4120
  424MOL0     H57218  -2.748   1.847   7.995  1.1472 -1.5467 -0.0021
  424MOL0     H57219  -2.921   1.788   8.051  0.2389 -3.8921  0.1267
  424MOL0     H57220  -2.825   1.796   7.774  0.0764 -0.9774  0.1256
  424MOL0     H57221  -2.940   1.925   7.846 -3.5317 -1.6727 -1.7391
  424MOL0     H57222  -2.250   1.313   7.587 -1.8096  0.3226 -1.4094
  424MOL0     H57223  -2.049   1.216   7.683 -0.7708  0.9558  0.1803
  424MOL0     H57224  -1.852   0.610   7.586 -1.7739  1.0597  1.6775
  424MOL0     H57225  -1.606   0.530   7.600 -0.9937  0.0703 -1.8344
  424MOL0     H57226   0.008   0.997   7.025  0.2661  0.3580  0.8304
  424MOL0     H57227   0.172   1.141   7.016  1.5956  2.3303 -1.0187
  424MOL0     H57228   0.651   1.216   7.072  3.1763 -2.0135 -0.3407
  424MOL0     H57229   0.881   1.268   7.032  1.7997 -2.5806 -2.0122
  424MOL0     H57230   1.164   1.419   6.866  0.3846  0.8141  2.6506
  424MOL0     H57231   1.062   1.354   6.992 -2.0782 -2.8330  0.0092
  424MOL0     H57232   1.104   1.211   6.722  1.2292  3.1118 -0.2963
  424MOL0     H57233   1.026   1.142   6.863 -2.1451  2.0719 -0.8800
  424MOL0     H57234   1.331   1.239   6.872  0.9483 -0.3042 -0.4940
  424MOL0     H57235   1.287   1.085   6.791 -2.2546 -0.5665 -0.6236
  424MOL0     H57236   1.236   1.161   7.084  1.0172 -1.3214  1.2927
  424MOL0     H57237   1.359   1.057   7.010 -0.0039  0.5963  0.5053
  424MOL0     H57238   0.999   0.813   7.001 -0.4651 -1.1173 -2.8236
  424MOL0     H57239   0.770   1.404   6.636  0.3785  2.5093  0.2825
  424MOL0     H57240   0.540   1.333   6.671  0.1351  1.5661 -0.5924
  425MOL0     O57241   6.659   9.121   4.390  0.0594  0.3605  1.0633
  425MOL0     C57242   6.739   9.195   4.438 -0.2813  0.4794 -0.0419
  425MOL0     O57243   6.744   9.238   4.566 -0.3846  0.2807 -0.3841
  425MOL0     C57244   6.650   9.188   4.657  0.4566 -0.1421 -0.7532
  425MOL0     C57245   6.521   9.165   4.634  0.0020 -0.0300 -0.1398
  425MOL0     C57246   6.429   9.132   4.734 -0.1385  0.0249 -0.7823
  425MOL0     C57247   6.460   9.118   4.873 -0.0930  0.5526  0.3114
  425MOL0     O57248   6.356   9.071   4.955  0.2705 -0.2228  0.3671
  425MOL0     C57249   6.382   9.090   5.091  0.3067 -0.1235 -0.1450
  425MOL0     C57250   6.267   9.047   5.190 -0.4521 -0.7734  1.0328
  425MOL0     C57251   6.314   9.011   5.329  1.1749  1.4997 -0.5785
  425MOL0     C57252   6.376   9.127   5.416  0.3701 -1.1043 -0.0320
  425MOL0     C57253   6.459   9.080   5.539  0.3601 -0.0265 -0.5667
  425MOL0     C57254   6.499   9.199   5.619  0.7379 -0.2921  0.5837
  425MOL0     C57255   6.586   9.164   5.743  0.1865 -0.5696 -0.3185
  425MOL0     C57256   6.721   9.133   5.700 -0.7730 -0.1349  0.0889
  425MOL0     N57257   6.815   9.121   5.807 -0.4767  0.9138  0.0855
  425MOL0     C57258   6.887   9.210   5.872 -0.8739 -0.7275 -1.2098
  425MOL0     C57259   6.936   9.148   5.986  0.3707 -0.3263 -0.1094
  425MOL0     C57260   7.001   9.213   6.100  0.6883 -0.3035 -0.7945
  425MOL0     C57261   6.973   9.157   6.231  0.1458  0.4813  0.4640
  425MOL0     C57262   7.010   9.265   6.331 -0.7817 -0.1538  0.3663
  425MOL0     C57263   6.980   9.209   6.472 -0.8461 -0.3078 -0.4447
  425MOL0     O57264   7.039   9.076   6.500  0.2250 -0.5803 -0.0873
  425MOL0     C57265   7.175   9.066   6.506  0.0421 -0.5437 -0.1454
  425MOL0     C57266   7.270   9.172   6.535 -0.7411  0.7494 -0.0320
  425MOL0     C57267   7.404   9.143   6.566 -0.2981  0.4395  0.4182
  425MOL0     C57268   7.498   9.255   6.609 -0.7701 -0.6621 -0.6830
  425MOL0     C57269   7.445   8.997   6.566 -0.6112 -1.4287 -0.0236
  425MOL0     C57270   7.580   8.936   6.599 -0.5903  0.0424 -0.7177
  425MOL0     O57271   7.588   8.804   6.591  0.2999  0.3055 -1.0248
  425MOL0     C57272   7.698   8.738   6.652  0.6676 -0.3170 -0.7970
  425MOL0     C57273   7.677   8.654   6.761  0.1171 -0.6665  0.2321
  425MOL0     C57274   7.774   8.576   6.819 -1.1376  0.9222 -0.7907
  425MOL0     C57275   7.907   8.598   6.773  0.2486  1.3260  0.3269
  425MOL0     O57276   8.017   8.530   6.825  0.6869 -0.1216 -0.2516
  425MOL0     C57277   8.018   8.463   6.951 -0.8124 -0.2149 -0.7353
  425MOL0     C57278   7.983   8.537   7.079 -0.0663  0.4912  0.4122
  425MOL0     C57279   8.091   8.531   7.194 -0.4832  0.5281  0.4186
  425MOL0     C57280   8.120   8.392   7.242 -0.0060 -0.5796  1.2102
  425MOL0     C57281   8.205   8.409   7.371  0.3368 -0.0576  0.1570
  425MOL0     C57282   8.336   8.480   7.360  0.6234  0.4098  0.7031
  425MOL0     C57283   8.368   8.526   7.502 -0.0405  0.5486 -0.0267
  425MOL0     C57284   8.511   8.595   7.485 -0.2247  0.4545 -0.6465
  425MOL0    Cl57285   8.553   8.721   7.617  0.5891 -0.3042  0.3016
  425MOL0     C57286   7.927   8.675   6.662  0.1303 -0.2984 -0.5276
  425MOL0     C57287   7.825   8.748   6.601  0.3104  0.2174 -0.1410
  425MOL0     O57288   7.665   9.003   6.649  0.3500 -0.3425 -0.1071
  425MOL0     C57289   7.349   8.908   6.528 -0.0984 -0.7953  0.4520
  425MOL0     C57290   7.227   8.948   6.513  0.4265 -0.6316  0.2861
  425MOL0     N57291   6.921   9.009   5.965 -0.3501  0.1791  0.1573
  425MOL0     N57292   6.846   8.999   5.864 -0.1838 -0.0962  0.2622
  425MOL0     C57293   6.602   9.135   4.898 -0.7822  0.5108 -0.3395
  425MOL0     C57294   6.691   9.172   4.789  0.0209  0.4513 -0.7179
  425MOL0     C57295   6.845   9.231   4.345 -0.7848 -0.1295 -0.2859
  425MOL0     C57296   6.972   9.277   4.391 -0.4370 -0.1990 -0.2427
  425MOL0     C57297   7.058   9.336   4.302  0.5133 -0.1296 -1.2737
  425MOL0     C57298   7.018   9.366   4.169  0.3651 -0.3434 -0.2246
  425MOL0     O57299   7.108   9.432   4.094 -0.3843  0.2997  0.6294
  425MOL0     C57300   7.085   9.437   3.950  0.2894 -0.4289 -0.5249
  425MOL0     C57301   7.120   9.310   3.876  0.4605  0.4260  0.0205
  425MOL0     C57302   7.119   9.318   3.720 -0.1098  0.0772  0.3846
  425MOL0     C57303   7.040   9.209   3.648 -0.6184 -0.4204 -0.3274
  425MOL0     C57304   6.904   9.227   3.670 -0.4198  0.5588 -0.0399
  425MOL0     C57305   6.791   9.255   3.708  0.3658  0.1409  0.6858
  425MOL0     C57306   6.892   9.319   4.121 -0.1569 -0.3113 -0.4540
  425MOL0     C57307   6.818   9.235   4.208  0.1614 -0.6373  0.1672
  425MOL0     H57308   6.493   9.198   4.535  1.2853 -0.6999 -0.7513
  425MOL0     H57309   6.327   9.118   4.699 -0.8093 -1.2099  1.4266
  425MOL0     H57310   6.478   9.051   5.124  0.6575  1.6770  1.1097
  425MOL0     H57311   6.400   9.194   5.121 -0.3667  0.2082 -0.8534
  425MOL0     H57312   6.197   9.131   5.194  0.1418 -0.2541  0.7334
  425MOL0     H57313   6.217   8.961   5.146  1.2316  0.7432 -4.6860
  425MOL0     H57314   6.223   8.978   5.381  1.5448 -0.1064 -0.9005
  425MOL0     H57315   6.377   8.923   5.312  1.3913  1.1485  1.7838
  425MOL0     H57316   6.443   9.184   5.352  0.3641  0.1233  1.0115
  425MOL0     H57317   6.295   9.195   5.444  0.2302 -0.4047 -2.0218
  425MOL0     H57318   6.388   9.022   5.598  1.7077  1.1144  2.3719
  425MOL0     H57319   6.540   9.018   5.500  0.1528 -0.7394  0.1051
  425MOL0     H57320   6.559   9.263   5.554  0.8353  0.0874  1.0373
  425MOL0     H57321   6.409   9.260   5.636 -0.2557 -0.4607 -3.2498
  425MOL0     H57322   6.595   9.257   5.799 -0.8644  0.3461 -1.6104
  425MOL0     H57323   6.541   9.087   5.806 -1.6003 -0.2975 -1.1762
  425MOL0     H57324   6.766   9.219   5.648  1.6399 -0.0971  2.0154
  425MOL0     H57325   6.724   9.052   5.627  0.3640 -1.6163  1.6753
  425MOL0     H57326   6.878   9.316   5.854 -0.4731 -0.2022  1.2620
  425MOL0     H57327   7.109   9.204   6.086  1.0032 -0.1477  1.2746
  425MOL0     H57328   6.976   9.319   6.092 -0.1562 -0.0682  2.9377
  425MOL0     H57329   7.041   9.073   6.248 -0.9492 -1.0619 -2.2418
  425MOL0     H57330   6.869   9.127   6.242  0.2369  0.9904  3.7035
  425MOL0     H57331   6.960   9.361   6.316 -0.8195 -0.0249  1.2505
  425MOL0     H57332   7.115   9.291   6.316 -1.6468  3.3258 -0.5892
  425MOL0     H57333   6.871   9.193   6.471 -0.4822 -3.3977  0.0776
  425MOL0     H57334   7.004   9.289   6.542  1.2294  0.5215 -2.0030
  425MOL0     H57335   7.230   9.270   6.557 -0.4302  0.3947  2.4632
  425MOL0     H57336   7.476   9.294   6.708 -0.6179  2.6004 -1.8141
  425MOL0     H57337   7.605   9.233   6.604 -0.5896  0.1548 -0.4246
  425MOL0     H57338   7.480   9.334   6.536  0.6121 -1.8593 -2.3990
  425MOL0     H57339   7.574   8.651   6.797 -0.3555 -2.3357 -1.1367
  425MOL0     H57340   7.741   8.509   6.898 -3.2192 -1.2668 -3.2930
  425MOL0     H57341   7.944   8.383   6.939 -1.2344  0.4028 -2.5892
  425MOL0     H57342   8.120   8.422   6.959  0.0363  2.0529  4.7653
  425MOL0     H57343   7.978   8.646   7.070  1.2154  0.5438  0.2054
  425MOL0     H57344   7.887   8.503   7.119  0.9046 -1.1681  1.4137
  425MOL0     H57345   8.051   8.599   7.269 -0.5155  1.8946 -0.7918
  425MOL0     H57346   8.181   8.573   7.147 -1.9994 -0.1826 -3.5596
  425MOL0     H57347   8.025   8.350   7.276  0.1209  0.3886  2.8919
  425MOL0     H57348   8.173   8.331   7.168  0.5680 -2.6545  3.2009
  425MOL0     H57349   8.214   8.309   7.414  2.5717 -0.0277 -0.0924
  425MOL0     H57350   8.140   8.476   7.428  0.3128  1.5347 -1.6502
  425MOL0     H57351   8.417   8.414   7.327  0.9827  1.0701  0.2332
  425MOL0     H57352   8.340   8.567   7.294  2.4403 -0.4283 -0.3567
  425MOL0     H57353   8.375   8.443   7.573  0.7072  0.9912  0.4299
  425MOL0     H57354   8.292   8.596   7.538  0.3485  0.6735  0.5618
  425MOL0     H57355   8.526   8.635   7.385  0.4494 -2.3491 -1.7556
  425MOL0     H57356   8.584   8.519   7.512 -1.3876 -0.7895 -0.9045
  425MOL0     H57357   8.028   8.689   6.623 -0.2375  3.2615 -0.5228
  425MOL0     H57358   7.850   8.815   6.519  0.8067  0.0626 -0.1201
  425MOL0     H57359   7.366   8.801   6.528 -3.8851 -1.5453  2.2736
  425MOL0     H57360   7.146   8.875   6.508  0.4740 -0.6006 -2.0455
  425MOL0     H57361   6.644   9.123   4.998  0.6634  2.2034 -0.6999
  425MOL0     H57362   6.796   9.187   4.812 -0.6779  1.2330  2.4238
  425MOL0     H57363   7.000   9.292   4.494  1.5385  3.8664 -1.1891
  425MOL0     H57364   7.150   9.376   4.345 -0.4045  0.0523  0.6227
  425MOL0     H57365   6.980   9.457   3.929  0.8163  2.7910 -0.6096
  425MOL0     H57366   7.127   9.532   3.913 -4.5105  3.3224  2.3762
  425MOL0     H57367   7.054   9.232   3.915  0.3135 -0.5180 -1.9961
  425MOL0     H57368   7.223   9.298   3.912  0.0432  1.8771  1.8736
  425MOL0     H57369   7.220   9.308   3.680 -0.0105 -2.6805  1.1465
  425MOL0     H57370   7.078   9.416   3.694 -0.9152 -0.1785  0.6550
  425MOL0     H57371   7.073   9.109   3.677  2.0569  0.0356 -1.4537
  425MOL0     H57372   7.048   9.214   3.539 -3.4155 -4.5169 -0.9528
  425MOL0     H57373   6.689   9.282   3.724 -0.3800  0.9715 -4.0746
  425MOL0     H57374   6.847   9.319   4.022 -1.0859  1.7278 -0.0832
  425MOL0     H57375   6.728   9.186   4.172 -0.3624 -0.5047  1.2467
  426MOL0     O57376  10.215   5.947  11.066  0.2583 -0.2061  0.6778
  426MOL0     C57377  10.309   6.007  11.115  0.4501  0.3955 -0.8294
  426MOL0     O57378  10.304   6.135  11.176  0.0094  0.9644 -0.2016
  426MOL0     C57379  10.192   6.207  11.154 -0.8465  0.0287 -0.1160
  426MOL0     C57380  10.093   6.215  11.253  0.1973  0.8011 -0.4203
  426MOL0     C57381   9.988   6.311  11.254 -0.0386 -0.5697  0.5372
  426MOL0     C57382   9.984   6.400  11.139 -0.7777 -0.2950 -1.1090
  426MOL0     O57383   9.886   6.495  11.110  0.0310  0.3818  0.4477
  426MOL0     C57384   9.777   6.514  11.196  1.1041  0.0813 -0.4305
  426MOL0     C57385   9.656   6.437  11.142  0.2025 -0.2158 -0.4047
  426MOL0     C57386   9.562   6.397  11.254 -0.0771  0.4002  0.0730
  426MOL0     C57387   9.482   6.267  11.220 -0.3767 -0.1108  0.4121
  426MOL0     C57388   9.446   6.183  11.351 -0.4833 -0.6520 -0.1685
  426MOL0     C57389   9.324   6.242  11.431 -0.2138 -0.8328  0.9784
  426MOL0     C57390   9.238   6.131  11.490  0.0980 -0.3412 -0.2231
  426MOL0     C57391   9.148   6.050  11.395 -0.0893 -0.5460  0.7483
  426MOL0     N57392   9.058   5.964  11.468  0.8262  0.2269  0.6775
  426MOL0     C57393   8.943   5.912  11.413 -0.5561 -0.7585  0.2758
  426MOL0     C57394   8.862   5.868  11.510  0.1986  0.2575 -0.3447
  426MOL0     C57395   8.718   5.807  11.508 -0.4781  0.3868 -0.0022
  426MOL0     C57396   8.697   5.703  11.386  0.0378 -1.0548 -0.1416
  426MOL0     C57397   8.560   5.644  11.393 -0.4489 -0.3799  0.2231
  426MOL0     C57398   8.555   5.512  11.316  0.9759 -0.0181  0.4599
  426MOL0     O57399   8.421   5.462  11.319  0.3792  0.5769  0.1258
  426MOL0     C57400   8.375   5.405  11.430 -0.4792  1.1412  0.4688
  426MOL0     C57401   8.244   5.414  11.448 -0.0742  0.0072  1.1435
  426MOL0     C57402   8.168   5.365  11.559  0.3660  0.3633  0.6954
  426MOL0     C57403   8.020   5.368  11.552 -0.1744 -1.0966  0.6650
  426MOL0     C57404   8.241   5.304  11.664 -0.1352  0.3116 -0.1509
  426MOL0     C57405   8.179   5.241  11.781 -0.2537  0.2412 -0.2495
  426MOL0     O57406   8.242   5.143  11.855  0.8666  0.5644 -0.3219
  426MOL0     C57407   8.215   5.119  11.995 -0.2135 -0.8134  1.0883
  426MOL0     C57408   8.185   5.213  12.093  0.3400 -0.1884  0.0184
  426MOL0     C57409   8.175   5.175  12.228 -0.4298 -0.2175 -0.3826
  426MOL0     C57410   8.205   5.054  12.270 -0.1830  0.1766 -0.4177
  426MOL0     O57411   8.204   5.046  12.403  0.4092 -0.2430 -0.0064
  426MOL0     C57412   8.135   4.934  12.446  0.2621  0.5654 -0.6673
  426MOL0     C57413   8.054   4.984  12.564 -0.6090  0.5865  0.6098
  426MOL0     C57414   7.996   4.886  12.651 -0.8862  0.0551 -0.2547
  426MOL0     C57415   8.075   4.755  12.661 -0.6012  0.0351 -0.7986
  426MOL0     C57416   8.002   4.641  12.726  0.4666 -0.6831  0.2883
  426MOL0     C57417   7.976   4.671  12.872  0.4872  0.3954  0.1001
  426MOL0     C57418   7.904   4.564  12.948 -0.1827  0.3922  0.2043
  426MOL0     C57419   7.856   4.605  13.088 -0.1254  0.4741  0.2122
  426MOL0    Cl57420   7.754   4.746  13.061 -0.0850 -0.4148 -0.3016
  426MOL0     C57421   8.235   4.957  12.177  0.7195  0.0444 -1.2907
  426MOL0     C57422   8.234   4.988  12.043 -0.2125 -0.5644 -0.8792
  426MOL0     O57423   8.073   5.290  11.820  0.1662 -0.0385  0.1709
  426MOL0     C57424   8.377   5.293  11.649 -0.4061 -0.6149  0.3649
  426MOL0     C57425   8.448   5.351  11.537 -0.1323 -0.4215  0.6294
  426MOL0     N57426   8.938   5.871  11.621 -0.0268  0.0349 -0.3183
  426MOL0     N57427   9.050   5.935  11.605 -0.2542  0.7093  0.4659
  426MOL0     C57428  10.082   6.393  11.042  0.7525  0.7240  0.6894
  426MOL0     C57429  10.190   6.303  11.056  0.0651 -0.0177 -0.5186
  426MOL0     C57430  10.435   5.941  11.128  0.2894  0.8545  0.0844
  426MOL0     C57431  10.535   5.969  11.227 -0.0593  0.1347 -0.1729
  426MOL0     C57432  10.660   5.914  11.234  0.7982  0.2332  0.3021
  426MOL0     C57433  10.691   5.812  11.149 -0.1118  0.8874 -0.1123
  426MOL0     O57434  10.810   5.741  11.156 -0.1927  0.2224 -0.1858
  426MOL0     C57435  10.855   5.704  11.285  0.3449 -0.4543  0.4950
  426MOL0     C57436  10.896   5.559  11.295 -0.1006  0.8448  0.7307
  426MOL0     C57437  11.008   5.515  11.199 -0.0954  0.1029  0.5147
  426MOL0     C57438  11.072   5.386  11.260 -0.4646  0.6142  0.0932
  426MOL0     C57439  11.171   5.328  11.169  0.2766 -0.6226 -0.1852
  426MOL0     C57440  11.240   5.260  11.097  0.6249 -0.5947  0.4680
  426MOL0     C57441  10.587   5.774  11.060 -0.9383  0.1431 -0.2783
  426MOL0     C57442  10.468   5.847  11.036 -0.3188 -0.5932 -0.1781
  426MOL0     H57443  10.106   6.155  11.342  1.5724 -0.8767 -1.6967
  426MOL0     H57444   9.912   6.326  11.330  1.1147  3.0812  1.1555
  426MOL0     H57445   9.797   6.492  11.301 -1.0132 -1.7761 -0.3427
  426MOL0     H57446   9.756   6.621  11.192 -2.6163 -0.4812  0.6719
  426MOL0     H57447   9.590   6.489  11.073 -1.6926 -0.2978  1.2571
  426MOL0     H57448   9.681   6.346  11.088 -2.8820 -1.1818 -0.3918
  426MOL0     H57449   9.621   6.379  11.345 -0.3969 -0.9616  0.0272
  426MOL0     H57450   9.492   6.480  11.267 -0.0245  0.4082  0.3094
  426MOL0     H57451   9.393   6.289  11.160 -0.4758 -0.2874  0.4934
  426MOL0     H57452   9.541   6.199  11.158 -2.5521 -0.3126 -1.5722
  426MOL0     H57453   9.418   6.092  11.297 -1.2992  1.3725 -3.4436
  426MOL0     H57454   9.540   6.179  11.407 -0.3161  0.6539 -0.3388
  426MOL0     H57455   9.374   6.296  11.512  3.5819 -0.9825 -1.0353
  426MOL0     H57456   9.266   6.312  11.371  1.7215  1.5237  1.6995
  426MOL0     H57457   9.294   6.063  11.555 -0.8541 -0.7767  0.1434
  426MOL0     H57458   9.173   6.182  11.561  0.2652  0.7888 -0.8634
  426MOL0     H57459   9.194   5.996  11.312 -0.6952  0.8085 -0.5070
  426MOL0     H57460   9.086   6.116  11.333  0.6332 -0.9591 -0.4455
  426MOL0     H57461   8.915   5.911  11.308  0.9805 -0.4658 -0.1608
  426MOL0     H57462   8.696   5.753  11.600 -1.8032  1.7583  0.5277
  426MOL0     H57463   8.638   5.881  11.499 -2.8604 -2.1416 -1.1551
  426MOL0     H57464   8.773   5.626  11.398  1.7568  0.1726 -2.3081
  426MOL0     H57465   8.718   5.752  11.290 -0.5995  0.5919  0.5190
  426MOL0     H57466   8.482   5.714  11.363 -1.0883 -1.0691  0.2633
  426MOL0     H57467   8.544   5.621  11.498 -1.6749  1.7942  0.5600
  426MOL0     H57468   8.624   5.446  11.370 -0.1106  0.7712  2.9388
  426MOL0     H57469   8.568   5.509  11.207 -0.6394  1.6817  0.1718
  426MOL0     H57470   8.183   5.444  11.364  2.6056  4.2171  0.4224
  426MOL0     H57471   7.973   5.288  11.609 -1.7181 -1.0741 -0.4855
  426MOL0     H57472   7.983   5.458  11.604 -1.4543 -1.5172  0.5231
  426MOL0     H57473   7.988   5.348  11.449 -4.0875  1.8593  1.0678
  426MOL0     H57474   8.165   5.313  12.056 -0.0375 -0.4068 -0.3811
  426MOL0     H57475   8.158   5.265  12.285 -1.2659  2.5561 -4.6104
  426MOL0     H57476   8.060   4.890  12.380  0.1387  0.4367 -0.4436
  426MOL0     H57477   8.210   4.855  12.464 -0.0711  0.4595  0.3010
  426MOL0     H57478   8.126   5.035  12.627  0.1784 -0.6299  0.7358
  426MOL0     H57479   7.980   5.058  12.531 -0.5508  0.8410  1.0413
  426MOL0     H57480   7.896   4.857  12.618 -0.2104 -2.7568 -0.0394
  426MOL0     H57481   7.999   4.920  12.755  0.4967 -0.0392 -0.2392
  426MOL0     H57482   8.092   4.723  12.558  1.1293  2.5695 -1.3784
  426MOL0     H57483   8.165   4.774  12.720 -1.3131 -2.0070  1.1039
  426MOL0     H57484   8.064   4.551  12.729  2.5666  0.7277  1.4548
  426MOL0     H57485   7.903   4.617  12.686  0.7795 -1.2406 -0.1599
  426MOL0     H57486   8.073   4.693  12.919  0.6988 -1.4972  0.6297
  426MOL0     H57487   7.904   4.752  12.858  1.3720  1.0883 -0.6076
  426MOL0     H57488   7.974   4.480  12.954 -0.6843 -0.1076 -0.7304
  426MOL0     H57489   7.815   4.527  12.895 -1.3405 -0.4104  2.5518
  426MOL0     H57490   7.936   4.635  13.157 -1.2673  1.7940  1.0209
  426MOL0     H57491   7.799   4.533  13.147 -1.4761  0.7419 -0.7176
  426MOL0     H57492   8.263   4.858  12.211  1.5811  0.5634 -0.4472
  426MOL0     H57493   8.257   4.907  11.975  4.0876  1.2425 -1.9141
  426MOL0     H57494   8.429   5.256  11.737 -2.0524 -1.5058  0.9871
  426MOL0     H57495   8.557   5.343  11.541 -0.1556 -0.2706  1.6241
  426MOL0     H57496  10.097   6.466  10.963  0.3868  1.6599  1.4566
  426MOL0     H57497  10.266   6.283  10.981  2.7238  1.3892  1.6348
  426MOL0     H57498  10.507   6.048  11.295 -1.7372 -1.9207  1.6621
  426MOL0     H57499  10.742   5.956  11.292  1.8824 -0.3200 -0.7577
  426MOL0     H57500  10.933   5.773  11.317 -0.9951  1.0131  0.7298
  426MOL0     H57501  10.780   5.729  11.361 -2.4765 -0.0836 -2.1973
  426MOL0     H57502  10.806   5.501  11.272  2.1143 -2.0052 -1.4090
  426MOL0     H57503  10.924   5.552  11.400  3.9451  0.9712 -0.1861
  426MOL0     H57504  11.084   5.594  11.195 -1.2714  1.2383 -0.2221
  426MOL0     H57505  10.981   5.496  11.094 -1.2712 -0.4627  0.9063
  426MOL0     H57506  10.999   5.305  11.263 -0.3168  0.5189  1.4761
  426MOL0     H57507  11.131   5.413  11.348 -0.4019  2.5171 -0.4865
  426MOL0     H57508  11.291   5.186  11.038  1.6507 -1.2044  2.0302
  426MOL0     H57509  10.602   5.686  10.999 -1.0538 -0.7705  0.9798
  426MOL0     H57510  10.399   5.814  10.959  0.2320 -1.3951 -0.3432
  427MOL0     O57511   0.994   2.197   6.382  0.0735 -0.3742  0.3297
  427MOL0     C57512   1.005   2.219   6.259  0.1491 -0.1586  0.1797
  427MOL0     O57513   1.031   2.129   6.163  0.0025  1.0502  0.3377
  427MOL0     C57514   1.091   2.010   6.192 -0.3971 -0.7833  0.1415
  427MOL0     C57515   1.016   1.912   6.259  0.2775  0.1096  0.8945
  427MOL0     C57516   1.071   1.781   6.278 -0.2387 -0.8800 -1.0472
  427MOL0     C57517   1.202   1.744   6.222 -0.0496 -0.8389  0.6932
  427MOL0     O57518   1.257   1.616   6.248 -0.5655  0.6558  0.1402
  427MOL0     C57519   1.195   1.530   6.341 -0.3260  0.2115 -0.1618
  427MOL0     C57520   1.285   1.406   6.365  0.2409 -0.2963 -0.5889
  427MOL0     C57521   1.418   1.452   6.424  0.1380  0.5529 -0.4160
  427MOL0     C57522   1.409   1.495   6.570  0.2602  0.1887  0.0106
  427MOL0     C57523   1.539   1.524   6.640 -0.5642  1.1490  0.4684
  427MOL0     C57524   1.479   1.567   6.774 -0.7077 -0.2127  0.1850
  427MOL0     C57525   1.596   1.644   6.848  1.2093 -0.1288  0.5322
  427MOL0     C57526   1.568   1.671   6.993  0.0899  0.1855 -0.5180
  427MOL0     N57527   1.585   1.542   7.066  0.6654  0.6052  0.1017
  427MOL0     C57528   1.701   1.517   7.138 -0.2129  0.4832 -0.1568
  427MOL0     C57529   1.687   1.393   7.191  0.0896  0.2331 -0.3330
  427MOL0     C57530   1.796   1.311   7.273  0.3076 -0.3114 -0.2792
  427MOL0     C57531   1.742   1.190   7.347 -1.2103 -0.4881  0.4358
  427MOL0     C57532   1.726   1.058   7.265  0.4420  0.1904  0.8887
  427MOL0     C57533   1.627   0.948   7.320  0.4944 -0.0497 -0.6313
  427MOL0     O57534   1.545   0.882   7.222 -0.1803 -0.1501 -1.0841
  427MOL0     C57535   1.445   0.800   7.270 -0.4417  0.5228  0.7538
  427MOL0     C57536   1.436   0.762   7.403  0.8265 -0.4211  1.1502
  427MOL0     C57537   1.327   0.673   7.432  0.5218  0.7485  0.5427
  427MOL0     C57538   1.326   0.610   7.573  0.5484  0.5353 -0.0556
  427MOL0     C57539   1.233   0.629   7.346  1.0278 -0.5551 -0.3456
  427MOL0     C57540   1.112   0.543   7.375  0.4334  0.3284  0.2971
  427MOL0     O57541   1.123   0.451   7.471 -0.0421  0.2225  0.4401
  427MOL0     C57542   1.015   0.372   7.490  0.1530  0.1335  0.4878
  427MOL0     C57543   0.939   0.390   7.606 -0.2863 -0.0453 -0.4965
  427MOL0     C57544   0.837   0.307   7.637  0.4958  0.4774  0.3441
  427MOL0     C57545   0.804   0.205   7.553  0.1361  0.0035 -0.8187
  427MOL0     O57546   0.701   0.126   7.584  0.5698  0.0953  0.2608
  427MOL0     C57547   0.685   0.049   7.703  0.5167 -0.1498 -0.3743
  427MOL0     C57548   0.680  -0.097   7.657  0.2417 -0.3742  0.0860
  427MOL0     C57549   0.804  -0.146   7.592  0.0638 -0.0475 -0.7825
  427MOL0     C57550   0.795  -0.301   7.583 -0.1558  0.2367  0.4366
  427MOL0     C57551   0.937  -0.358   7.551  0.1333 -0.4233  0.7323
  427MOL0     C57552   1.017  -0.271   7.454  0.2304 -0.7315 -0.2043
  427MOL0     C57553   1.150  -0.327   7.406 -0.9230 -0.0733  0.2936
  427MOL0     C57554   1.246  -0.359   7.529 -0.2600  0.1815  0.0424
  427MOL0    Cl57555   1.189  -0.521   7.605  0.3813  0.3557  0.1695
  427MOL0     C57556   0.865   0.187   7.437  0.3349  0.2627  0.3136
  427MOL0     C57557   0.979   0.267   7.400  0.7886  0.2988  0.3078
  427MOL0     O57558   1.015   0.562   7.299 -0.5346  0.5815  0.4195
  427MOL0     C57559   1.250   0.675   7.213  0.1825 -0.5305  0.0695
  427MOL0     C57560   1.352   0.763   7.173 -0.2926  1.0288  0.1318
  427MOL0     N57561   1.570   1.341   7.145  0.2077 -0.0874 -0.1711
  427MOL0     N57562   1.516   1.427   7.065 -0.0251 -0.9437 -0.0151
  427MOL0     C57563   1.276   1.849   6.158 -0.9791 -0.4631 -0.0315
  427MOL0     C57564   1.225   1.984   6.151  0.1945 -0.3839 -0.4410
  427MOL0     C57565   0.955   2.347   6.216  0.3467 -0.0874  0.7599
  427MOL0     C57566   0.972   2.375   6.079 -0.9778 -0.4409 -0.1901
  427MOL0     C57567   0.920   2.491   6.021  1.0726  0.8033 -0.3765
  427MOL0     C57568   0.857   2.587   6.102  0.3698  0.9353  0.4332
  427MOL0     O57569   0.803   2.690   6.025  0.2635  0.4573 -0.0015
  427MOL0     C57570   0.749   2.798   6.104  0.5502 -0.8842  0.2038
  427MOL0     C57571   0.615   2.858   6.040 -0.2335  0.2500  0.5809
  427MOL0     C57572   0.600   3.005   6.084 -0.7899 -0.7805  0.0506
  427MOL0     C57573   0.719   3.091   6.046  0.7302  0.7574 -0.1478
  427MOL0     C57574   0.664   3.228   6.035 -0.2600 -0.4209  0.0569
  427MOL0     C57575   0.614   3.338   6.033 -0.0179  0.0975 -0.4558
  427MOL0     C57576   0.855   2.560   6.240  0.6820  0.5016 -0.0046
  427MOL0     C57577   0.892   2.442   6.299  0.2593 -0.0244  1.1122
  427MOL0     H57578   0.913   1.941   6.277  0.1528 -1.2822  2.8172
  427MOL0     H57579   1.008   1.706   6.324  0.9125 -1.6601 -0.7097
  427MOL0     H57580   1.170   1.562   6.443  0.0994 -1.4639  0.4915
  427MOL0     H57581   1.104   1.483   6.302 -0.9110  1.8959 -0.9249
  427MOL0     H57582   1.229   1.340   6.431  0.8720  0.3683  0.6659
  427MOL0     H57583   1.304   1.349   6.274  2.5941  0.2122 -0.5002
  427MOL0     H57584   1.480   1.362   6.428 -2.4684 -1.3569  0.4692
  427MOL0     H57585   1.469   1.525   6.361 -0.8090 -1.5488 -3.8713
  427MOL0     H57586   1.354   1.589   6.572  2.8154  1.9135 -2.7654
  427MOL0     H57587   1.348   1.421   6.623 -2.2888  1.5041 -0.8916
  427MOL0     H57588   1.606   1.438   6.653 -0.6651  0.8897 -0.6790
  427MOL0     H57589   1.580   1.602   6.575 -2.2912  0.5111 -1.4775
  427MOL0     H57590   1.405   1.647   6.760  1.2877  1.4790 -1.3114
  427MOL0     H57591   1.455   1.472   6.821  0.2104 -0.9976 -0.8861
  427MOL0     H57592   1.688   1.585   6.847 -0.4499 -3.0946  3.4682
  427MOL0     H57593   1.594   1.743   6.800 -0.9793 -0.5603 -0.3725
  427MOL0     H57594   1.466   1.701   7.018 -0.0717 -1.3262  0.7524
  427MOL0     H57595   1.639   1.742   7.036 -1.7649  0.0587  3.0801
  427MOL0     H57596   1.785   1.581   7.161 -0.4624  0.3106  1.3243
  427MOL0     H57597   1.881   1.282   7.210  2.1247  0.9341  1.4557
  427MOL0     H57598   1.821   1.379   7.355  0.6722  0.4716 -1.0134
  427MOL0     H57599   1.639   1.219   7.371 -1.9335 -0.6175 -2.1978
  427MOL0     H57600   1.814   1.170   7.427  0.8030 -3.5350 -1.9369
  427MOL0     H57601   1.819   1.008   7.237 -0.1318 -0.9628  0.9616
  427MOL0     H57602   1.684   1.092   7.170 -0.7486  1.6993  1.8939
  427MOL0     H57603   1.565   1.001   7.393  1.1873  1.1355 -0.8641
  427MOL0     H57604   1.681   0.868   7.371  1.7548  0.9827 -0.2827
  427MOL0     H57605   1.505   0.804   7.476  1.5487 -2.0279  1.4188
  427MOL0     H57606   1.374   0.511   7.569  1.8513  1.1707 -0.9077
  427MOL0     H57607   1.388   0.674   7.636  2.1241  0.0772 -1.0812
  427MOL0     H57608   1.226   0.602   7.617  0.7297  0.4896  0.3467
  427MOL0     H57609   0.965   0.477   7.665  1.3176 -0.3810 -0.6509
  427MOL0     H57610   0.789   0.343   7.728  1.6463  2.5369  0.2028
  427MOL0     H57611   0.769   0.061   7.772  0.1874  0.6953 -0.0996
  427MOL0     H57612   0.597   0.068   7.765 -0.9902 -4.3156 -0.9267
  427MOL0     H57613   0.654  -0.168   7.736 -1.3373  0.4970  0.3882
  427MOL0     H57614   0.594  -0.092   7.589  0.4842 -1.1308 -0.2900
  427MOL0     H57615   0.888  -0.133   7.661 -0.6691 -3.0859  0.8677
  427MOL0     H57616   0.816  -0.101   7.493 -1.0492  1.3015 -0.3369
  427MOL0     H57617   0.765  -0.352   7.675  0.7021 -2.2848 -0.5937
  427MOL0     H57618   0.731  -0.336   7.502  0.4977 -0.2848  0.1334
  427MOL0     H57619   0.930  -0.458   7.508  0.1984 -0.0948 -0.0517
  427MOL0     H57620   0.992  -0.352   7.646 -1.3102 -1.0481  1.6359
  427MOL0     H57621   0.955  -0.234   7.372 -0.1188 -1.4621 -0.2777
  427MOL0     H57622   1.036  -0.181   7.512  0.5584  0.5243 -2.1580
  427MOL0     H57623   1.201  -0.248   7.351 -0.7479 -1.0297 -0.9711
  427MOL0     H57624   1.135  -0.418   7.347 -5.0861 -0.7978  2.1056
  427MOL0     H57625   1.237  -0.276   7.599  1.4985  1.2170 -0.8873
  427MOL0     H57626   1.352  -0.361   7.504 -0.3534  0.4942 -0.4135
  427MOL0     H57627   0.815   0.128   7.361 -0.2793  2.5172 -1.1178
  427MOL0     H57628   1.013   0.254   7.297 -1.6991  1.9020 -0.8166
  427MOL0     H57629   1.172   0.651   7.141 -0.5632  0.2932  0.5798
  427MOL0     H57630   1.358   0.774   7.066 -0.1237  3.1315  0.3151
  427MOL0     H57631   1.371   1.825   6.112 -0.7134 -1.1015  0.8256
  427MOL0     H57632   1.275   2.072   6.113 -0.3017  1.8384  3.5484
  427MOL0     H57633   1.031   2.312   6.013  2.3966  2.8560 -0.6173
  427MOL0     H57634   0.920   2.503   5.913  0.2302  0.3661 -0.4389
  427MOL0     H57635   0.722   2.764   6.204 -0.3093  3.7007  1.7831
  427MOL0     H57636   0.820   2.880   6.116 -1.7592  1.0009  1.9171
  427MOL0     H57637   0.523   2.804   6.063  0.5425 -0.0902  3.2481
  427MOL0     H57638   0.627   2.854   5.931  1.8172  0.2387  0.7647
  427MOL0     H57639   0.585   3.007   6.193  0.1885  0.9813  0.1809
  427MOL0     H57640   0.515   3.049   6.032 -0.3663 -1.6289 -1.4320
  427MOL0     H57641   0.760   3.055   5.951 -1.8529 -0.4320 -0.8992
  427MOL0     H57642   0.796   3.093   6.123  4.4078 -2.0332 -3.3350
  427MOL0     H57643   0.580   3.440   6.038  2.7935  1.0706  2.8418
  427MOL0     H57644   0.810   2.630   6.309  2.3272  2.0922 -0.4704
  427MOL0     H57645   0.878   2.427   6.405  2.3243  0.1175  1.4356
  428MOL0     O57646   2.434  10.036   5.665 -0.0063  0.4672  0.1678
  428MOL0     C57647   2.383  10.104   5.756  0.6568 -0.0633  0.1321
  428MOL0     O57648   2.347  10.244   5.747  0.1810  0.5887  0.4270
  428MOL0     C57649   2.398  10.305   5.634  0.0589  0.2082  0.5971
  428MOL0     C57650   2.301  10.335   5.534 -0.1423  0.0444  0.0732
  428MOL0     C57651   2.325  10.418   5.423 -0.1984  0.5186  0.2034
  428MOL0     C57652   2.457  10.466   5.413 -0.2599 -0.4951 -0.1859
  428MOL0     O57653   2.503  10.542   5.303  0.4355  0.4864  0.2163
  428MOL0     C57654   2.602  10.473   5.219 -0.0408 -1.0682 -0.2997
  428MOL0     C57655   2.632  10.560   5.100  0.2214 -1.0269 -0.7840
  428MOL0     C57656   2.760  10.524   5.024  0.5748 -0.5393 -0.5731
  428MOL0     C57657   2.743  10.390   4.937  0.8894 -0.4728 -0.5252
  428MOL0     C57658   2.829  10.379   4.804 -0.6508 -0.1536 -0.6859
  428MOL0     C57659   2.767  10.272   4.714  0.3437  0.2291  0.1098
  428MOL0     C57660   2.790  10.125   4.768 -0.8009  0.0069  0.1803
  428MOL0     C57661   2.854  10.028   4.669 -0.0883 -0.3553  0.4975
  428MOL0     N57662   2.769   9.987   4.556  0.2383  0.0470 -0.2965
  428MOL0     C57663   2.633   9.979   4.551  0.2461 -0.1565 -0.4267
  428MOL0     C57664   2.601   9.930   4.426 -1.1114 -0.9874 -0.0948
  428MOL0     C57665   2.470   9.870   4.390 -0.7512 -0.2945 -0.2292
  428MOL0     C57666   2.456   9.894   4.243  0.6838 -0.3294  0.1232
  428MOL0     C57667   2.326   9.861   4.197  0.7070  1.3474  0.9300
  428MOL0     C57668   2.318   9.862   4.044  0.1749 -0.3988 -0.2975
  428MOL0     O57669   2.186   9.888   3.987  0.2469  0.5032 -0.3424
  428MOL0     C57670   2.089   9.787   3.986 -0.1170 -0.8286 -0.3708
  428MOL0     C57671   2.119   9.660   4.017  0.3299 -0.2068  0.6012
  428MOL0     C57672   2.021   9.553   3.999 -0.6794 -0.5917  0.1158
  428MOL0     C57673   2.063   9.410   4.018 -0.0504  0.0974  0.4132
  428MOL0     C57674   1.887   9.584   3.966 -0.2072 -0.1833  0.2030
  428MOL0     C57675   1.773   9.490   3.954  0.4100 -0.0131 -0.3118
  428MOL0     O57676   1.656   9.543   3.903  0.4673  0.5792 -1.4841
  428MOL0     C57677   1.540   9.477   3.885  0.0745 -0.1352  0.5390
  428MOL0     C57678   1.446   9.476   3.986  0.5327  0.5748 -1.3770
  428MOL0     C57679   1.329   9.400   3.983  0.0048  0.3670  0.5634
  428MOL0     C57680   1.307   9.329   3.867 -0.4424 -0.5272 -0.0357
  428MOL0     O57681   1.177   9.289   3.851  0.0817  1.0910  0.1732
  428MOL0     C57682   1.150   9.171   3.768 -0.5406 -0.8542  0.1702
  428MOL0     C57683   1.043   9.097   3.844  0.1707 -0.1526  0.3341
  428MOL0     C57684   0.905   9.088   3.780  0.0941 -0.2584 -0.8705
  428MOL0     C57685   0.800   8.999   3.860 -0.2138 -0.1167  0.1259
  428MOL0     C57686   0.674   9.008   3.763  0.9310  0.1825  0.7346
  428MOL0     C57687   0.547   8.939   3.838 -0.2741 -0.1133  0.6730
  428MOL0     C57688   0.420   8.971   3.756 -0.5183 -0.5389  0.0381
  428MOL0     C57689   0.292   8.969   3.837 -0.2609  0.1355 -0.2709
  428MOL0    Cl57690   0.301   8.812   3.925  0.8758  0.4704  0.1352
  428MOL0     C57691   1.401   9.341   3.759  0.3169 -0.4919  0.4703
  428MOL0     C57692   1.518   9.415   3.768 -0.7248  0.7834  0.6468
  428MOL0     O57693   1.782   9.372   3.986  0.3562  0.2811 -0.2198
  428MOL0     C57694   1.860   9.719   3.951  0.2351 -0.2870  0.6819
  428MOL0     C57695   1.962   9.823   3.948  0.3694  0.0724  0.3753
  428MOL0     N57696   2.723   9.927   4.353  0.3890 -0.0366  0.3954
  428MOL0     N57697   2.815   9.973   4.428 -1.1197 -0.3417 -0.1147
  428MOL0     C57698   2.556  10.426   5.509 -0.0558 -0.3763  0.0077
  428MOL0     C57699   2.524  10.347   5.615 -0.7136  0.5048  0.6253
  428MOL0     C57700   2.323  10.021   5.869  0.6465  0.1805 -0.4014
  428MOL0     C57701   2.295  10.082   5.991 -0.1527 -0.0482  0.8933
  428MOL0     C57702   2.258  10.018   6.107 -0.3606 -0.1176  0.0522
  428MOL0     C57703   2.222   9.882   6.097  0.5195  0.3064 -0.1494
  428MOL0     O57704   2.181   9.800   6.203  0.8056  0.4915  0.1411
  428MOL0     C57705   2.165   9.848   6.341  0.2926 -0.2736  0.6526
  428MOL0     C57706   2.217   9.749   6.434 -0.4909 -0.0429 -0.7094
  428MOL0     C57707   2.371   9.723   6.434  0.5294 -0.1165 -0.3580
  428MOL0     C57708   2.443   9.850   6.477  0.0990 -0.0381 -0.1520
  428MOL0     C57709   2.589   9.838   6.475 -0.0324  0.4563 -0.1569
  428MOL0     C57710   2.708   9.829   6.470 -0.3089  0.1959  0.4031
  428MOL0     C57711   2.248   9.815   5.975 -0.2534  0.6376  0.6349
  428MOL0     C57712   2.311   9.877   5.869  0.0859 -0.7833  0.5713
  428MOL0     H57713   2.203  10.290   5.544  0.4172 -1.9288 -2.2711
  428MOL0     H57714   2.247  10.447   5.353 -1.3503 -1.2390  0.6940
  428MOL0     H57715   2.697  10.464   5.271 -0.9431  0.4153  1.7629
  428MOL0     H57716   2.572  10.373   5.186  0.5263 -1.2997 -0.1187
  428MOL0     H57717   2.541  10.570   5.039 -0.2882  2.2751  0.2818
  428MOL0     H57718   2.651  10.662   5.136 -0.2652 -1.1473 -0.1655
  428MOL0     H57719   2.779  10.610   4.959 -4.1604 -1.0357 -3.0061
  428MOL0     H57720   2.842  10.500   5.093 -0.1000  0.6381  0.6815
  428MOL0     H57721   2.761  10.301   4.998 -0.0115 -0.2152  0.1380
  428MOL0     H57722   2.636  10.384   4.915  0.9356 -0.9902 -0.6206
  428MOL0     H57723   2.828  10.475   4.752 -0.5530  0.5073  0.4884
  428MOL0     H57724   2.932  10.360   4.836 -0.2597  0.2331 -1.6811
  428MOL0     H57725   2.658  10.282   4.723 -0.4453 -1.8305 -4.5157
  428MOL0     H57726   2.805  10.275   4.612  2.3895 -1.1646  0.7743
  428MOL0     H57727   2.849  10.110   4.859  0.2260 -3.5197 -0.9233
  428MOL0     H57728   2.697  10.087   4.811 -0.8995 -2.6203 -2.0834
  428MOL0     H57729   2.889   9.941   4.726  4.4588  0.9567  0.1081
  428MOL0     H57730   2.943  10.074   4.626  1.1533 -0.5292  2.7239
  428MOL0     H57731   2.561   9.979   4.632  1.0994  0.7379  0.3438
  428MOL0     H57732   2.473   9.762   4.407  4.8980 -0.4142 -0.2080
  428MOL0     H57733   2.398   9.930   4.447  1.6911  2.4597  0.1904
  428MOL0     H57734   2.529   9.832   4.190  1.3885  3.2680 -3.6808
  428MOL0     H57735   2.489   9.994   4.215  3.3997 -1.9955 -3.4734
  428MOL0     H57736   2.257   9.933   4.242 -0.6057 -1.8330  4.6139
  428MOL0     H57737   2.304   9.758   4.228 -0.7246  0.6901 -1.9571
  428MOL0     H57738   2.353   9.765   4.007 -1.3747 -0.4599 -1.7155
  428MOL0     H57739   2.382   9.943   4.009 -0.2245  1.1161  2.1758
  428MOL0     H57740   2.217   9.629   4.051 -1.3314 -4.9387  1.8752
  428MOL0     H57741   2.002   9.370   4.100 -0.1317  0.5826  0.5910
  428MOL0     H57742   2.044   9.348   3.930  0.8552  1.6796 -0.9284
  428MOL0     H57743   2.169   9.393   4.038  0.7056 -0.1205 -3.2324
  428MOL0     H57744   1.460   9.512   4.087 -1.1701 -0.4490 -0.7282
  428MOL0     H57745   1.253   9.398   4.061 -1.0513  1.6660 -0.3914
  428MOL0     H57746   1.126   9.209   3.668 -1.1304 -0.9733  0.2646
  428MOL0     H57747   1.232   9.098   3.762  0.4496  0.0522  1.9304
  428MOL0     H57748   1.082   8.995   3.853  3.4146  0.5164 -3.5570
  428MOL0     H57749   1.027   9.148   3.940  5.0134  0.2836  1.1537
  428MOL0     H57750   0.904   9.062   3.673 -0.8525 -1.2018 -0.6428
  428MOL0     H57751   0.874   9.193   3.781 -1.4853 -0.6551  2.1813
  428MOL0     H57752   0.826   8.892   3.866  1.5934  0.2349 -0.6601
  428MOL0     H57753   0.778   9.039   3.959  1.2418  0.5916  0.1902
  428MOL0     H57754   0.684   8.962   3.664  0.4588  2.0470 -0.2153
  428MOL0     H57755   0.656   9.114   3.746 -0.3826  0.1226  1.6506
  428MOL0     H57756   0.560   8.831   3.850  0.1294 -0.1724 -0.2339
  428MOL0     H57757   0.542   8.999   3.929 -2.1006  2.6900 -1.1046
  428MOL0     H57758   0.411   8.888   3.685  3.5994 -0.8319 -0.4154
  428MOL0     H57759   0.431   9.070   3.710  0.5387 -0.9776 -0.7017
  428MOL0     H57760   0.197   8.966   3.781 -0.9740 -3.0535  0.8897
  428MOL0     H57761   0.293   9.053   3.907  2.6841 -2.2309  2.8274
  428MOL0     H57762   1.376   9.295   3.664  0.3488 -0.8262  0.6212
  428MOL0     H57763   1.582   9.406   3.680 -2.7891 -4.4893 -0.7610
  428MOL0     H57764   1.760   9.747   3.921  0.8586 -0.3630 -1.6600
  428MOL0     H57765   1.937   9.928   3.940  2.2721  0.4110 -2.2807
  428MOL0     H57766   2.659  10.460   5.507  0.8948 -2.9903  0.5838
  428MOL0     H57767   2.611  10.326   5.676 -1.5662  0.9322  2.0562
  428MOL0     H57768   2.330  10.185   5.997 -1.2609  0.6279 -2.3511
  428MOL0     H57769   2.247  10.071   6.201  1.4529 -2.0292  1.4395
  428MOL0     H57770   2.212   9.945   6.359 -0.1188 -0.5436  3.7175
  428MOL0     H57771   2.058   9.864   6.358  0.3521  2.8130 -1.1306
  428MOL0     H57772   2.161   9.663   6.396  0.3951 -0.6089 -0.7770
  428MOL0     H57773   2.182   9.777   6.533  0.3328  1.8202 -0.9113
  428MOL0     H57774   2.407   9.684   6.339 -1.0395  0.5438 -1.2580
  428MOL0     H57775   2.403   9.651   6.510  1.7199 -1.3871 -1.9888
  428MOL0     H57776   2.406   9.880   6.576 -0.3159 -0.3576 -0.2057
  428MOL0     H57777   2.422   9.929   6.406  1.8096 -1.0674 -1.8971
  428MOL0     H57778   2.814   9.829   6.457 -0.3481 -3.3029 -1.2188
  428MOL0     H57779   2.235   9.707   5.976  1.2305  0.3731 -1.3386
  428MOL0     H57780   2.331   9.828   5.775 -0.4961  1.2827 -0.6887
  429MOL0     O57781   0.704   5.060   1.974  0.4433 -0.5736 -0.1937
  429MOL0     C57782   0.686   4.974   2.064 -1.0631 -0.3557  0.9455
  429MOL0     O57783   0.787   4.934   2.153 -0.2074  0.3414 -0.2053
  429MOL0     C57784   0.911   4.989   2.147  0.4108 -0.7394  0.1525
  429MOL0     C57785   0.999   4.924   2.229  0.3284  0.5456  0.3133
  429MOL0     C57786   1.127   4.975   2.247  0.0219 -0.7039  0.0868
  429MOL0     C57787   1.173   5.094   2.192  0.3902  0.6042 -0.3837
  429MOL0     O57788   1.293   5.144   2.229  0.2409  0.3104  0.6730
  429MOL0     C57789   1.366   5.211   2.121  0.6688 -0.4230 -0.4277
  429MOL0     C57790   1.516   5.225   2.145  0.3906 -0.2504  0.1992
  429MOL0     C57791   1.575   5.263   2.008 -0.4650  0.0096  0.4078
  429MOL0     C57792   1.727   5.290   2.023 -0.0410 -0.1728 -0.0306
  429MOL0     C57793   1.791   5.334   1.892  1.0919 -0.4739 -0.7452
  429MOL0     C57794   1.723   5.462   1.818  0.4598  0.4501 -0.8106
  429MOL0     C57795   1.800   5.510   1.689 -0.1607  0.1168  0.1364
  429MOL0     C57796   1.849   5.654   1.686 -0.8515 -0.4729 -0.3978
  429MOL0     N57797   1.966   5.690   1.781  0.3991 -0.2888  0.2956
  429MOL0     C57798   1.964   5.782   1.884 -0.8862 -0.3029  0.7812
  429MOL0     C57799   2.092   5.807   1.914  1.1591 -0.6887  0.0463
  429MOL0     C57800   2.133   5.914   2.009  0.4049  0.2928  0.3163
  429MOL0     C57801   2.127   5.873   2.156 -0.2702 -0.0731  0.4650
  429MOL0     C57802   2.195   5.972   2.247  0.1825  0.2864 -0.2787
  429MOL0     C57803   2.137   6.111   2.229 -0.7387 -0.7959  0.4841
  429MOL0     O57804   2.171   6.198   2.341 -0.1915 -0.1221  0.0816
  429MOL0     C57805   2.298   6.211   2.391 -0.0707 -0.0350 -0.1743
  429MOL0     C57806   2.417   6.205   2.323  0.0230  0.3888  1.0129
  429MOL0     C57807   2.542   6.238   2.379 -0.1177  0.1928 -0.9660
  429MOL0     C57808   2.657   6.215   2.285  0.6465  0.4638  0.4580
  429MOL0     C57809   2.537   6.294   2.511  0.7057 -0.1964 -0.5931
  429MOL0     C57810   2.654   6.315   2.588 -0.5861  0.7081  0.4010
  429MOL0     O57811   2.636   6.382   2.697 -0.0147 -0.3561  0.7650
  429MOL0     C57812   2.732   6.382   2.797 -0.0996  0.3236 -0.7567
  429MOL0     C57813   2.742   6.269   2.885 -1.0021  0.1447  1.5184
  429MOL0     C57814   2.806   6.275   3.005 -1.1420  0.0581 -0.0792
  429MOL0     C57815   2.886   6.380   3.040 -0.1866  0.1783  1.0218
  429MOL0     O57816   2.948   6.366   3.151  0.3474 -0.0515 -0.3080
  429MOL0     C57817   3.057   6.451   3.190 -0.9450  0.5020 -0.5504
  429MOL0     C57818   3.075   6.462   3.344  0.4482 -0.8975 -0.9257
  429MOL0     C57819   3.179   6.557   3.392 -0.8476  0.2343 -0.3904
  429MOL0     C57820   3.165   6.706   3.343  0.2573  0.9941 -0.2350
  429MOL0     C57821   3.263   6.803   3.423  0.7170  0.6112 -0.5153
  429MOL0     C57822   3.265   6.931   3.352 -0.6747  0.0413 -0.2409
  429MOL0     C57823   3.348   7.029   3.433  0.0546  0.5192  0.6736
  429MOL0     C57824   3.267   7.124   3.524  0.1168  1.2244  0.5126
  429MOL0    Cl57825   3.340   7.134   3.685 -0.1684  0.0940  0.1441
  429MOL0     C57826   2.871   6.495   2.958  0.5198  0.3655  0.3238
  429MOL0     C57827   2.797   6.499   2.834 -0.0841 -0.9796 -0.3307
  429MOL0     O57828   2.751   6.235   2.573  0.4485 -0.0465  0.3418
  429MOL0     C57829   2.412   6.291   2.580 -1.1521 -0.2103 -1.0507
  429MOL0     C57830   2.306   6.248   2.523  0.0731  0.3531 -0.1201
  429MOL0     N57831   2.176   5.740   1.832  0.5456  0.1022 -0.5118
  429MOL0     N57832   2.097   5.666   1.752  0.3972 -0.6203 -0.7079
  429MOL0     C57833   1.084   5.157   2.103 -0.0289  0.4762  0.1506
  429MOL0     C57834   0.958   5.108   2.077 -0.7877 -0.3048 -0.2871
  429MOL0     C57835   0.562   4.891   2.047 -0.4720 -0.0491  0.2935
  429MOL0     C57836   0.466   4.912   1.958  0.7806  0.1004 -1.1534
  429MOL0     C57837   0.359   4.824   1.951  0.9872 -0.1029 -0.0419
  429MOL0     C57838   0.347   4.715   2.030 -0.3435 -0.2284  0.5819
  429MOL0     O57839   0.252   4.616   2.028  0.1562  0.2125 -0.1746
  429MOL0     C57840   0.117   4.650   2.022  0.0268  0.4839 -0.5427
  429MOL0     C57841   0.069   4.624   1.878  0.1538 -0.0987  0.2744
  429MOL0     C57842   0.036   4.736   1.785 -0.1796  0.2018  0.1850
  429MOL0     C57843  -0.017   4.690   1.648 -0.9252 -0.3459 -0.5371
  429MOL0     C57844   0.089   4.620   1.568 -0.1713 -0.4000 -0.6812
  429MOL0     C57845   0.172   4.559   1.496  0.1270  0.2965  0.2739
  429MOL0     C57846   0.437   4.705   2.130  0.9007 -0.0499 -0.0056
  429MOL0     C57847   0.552   4.785   2.135  0.9929  0.3410  0.6803
  429MOL0     H57848   0.967   4.840   2.291  2.1811  0.2304  0.8888
  429MOL0     H57849   1.206   4.930   2.306  1.9349  0.9334 -1.0811
  429MOL0     H57850   1.358   5.152   2.029  2.7357  0.5292 -1.2717
  429MOL0     H57851   1.326   5.312   2.112  1.2078 -0.3040 -1.6263
  429MOL0     H57852   1.552   5.301   2.215  1.1400  1.1536 -1.6182
  429MOL0     H57853   1.544   5.121   2.163 -0.6593 -0.7747 -1.0745
  429MOL0     H57854   1.560   5.181   1.936 -1.1500 -1.9068  2.6283
  429MOL0     H57855   1.522   5.353   1.975  2.5133  2.7633  2.5048
  429MOL0     H57856   1.728   5.365   2.102 -4.4861 -0.5760  0.6769
  429MOL0     H57857   1.782   5.200   2.051  2.2620  1.1708 -0.0049
  429MOL0     H57858   1.894   5.364   1.914 -0.4676  4.2336  1.6244
  429MOL0     H57859   1.791   5.244   1.830  0.9206 -1.3471  0.4865
  429MOL0     H57860   1.622   5.432   1.791  0.5435 -1.5507  0.8596
  429MOL0     H57861   1.714   5.545   1.889  0.3588  0.6434 -1.0483
  429MOL0     H57862   1.881   5.436   1.686 -0.7818 -0.6296  1.0291
  429MOL0     H57863   1.734   5.490   1.604 -1.6594 -2.3876  1.7363
  429MOL0     H57864   1.771   5.726   1.711 -1.1029 -0.2372 -1.7635
  429MOL0     H57865   1.887   5.670   1.584 -0.4347 -0.5758 -0.2607
  429MOL0     H57866   1.868   5.808   1.927 -0.6080 -1.8245  2.4346
  429MOL0     H57867   2.238   5.938   1.992  0.1818  0.2005 -1.3271
  429MOL0     H57868   2.079   6.006   1.985  1.5092  0.5273 -1.4387
  429MOL0     H57869   2.169   5.772   2.166  0.0405 -0.0816 -0.7447
  429MOL0     H57870   2.020   5.868   2.178 -0.5746  1.8014 -0.4193
  429MOL0     H57871   2.302   5.973   2.225 -0.4781  0.0455 -4.2151
  429MOL0     H57872   2.173   5.950   2.352 -0.8683  4.9378  0.7197
  429MOL0     H57873   2.029   6.108   2.216 -0.5370 -2.9796 -1.4460
  429MOL0     H57874   2.181   6.154   2.138  3.6932  0.6018  2.9409
  429MOL0     H57875   2.413   6.181   2.217  2.2364 -1.5627  1.2900
  429MOL0     H57876   2.753   6.196   2.335  1.4405  1.2894 -0.7039
  429MOL0     H57877   2.634   6.128   2.223 -0.0460 -0.6559  2.2021
  429MOL0     H57878   2.670   6.298   2.215 -0.2524  0.2727  0.0598
  429MOL0     H57879   2.682   6.179   2.874 -1.7537  0.2934  3.7931
  429MOL0     H57880   2.806   6.181   3.060 -1.2672  0.2694  0.2832
  429MOL0     H57881   3.155   6.426   3.147  1.2565  2.5540  2.7577
  429MOL0     H57882   3.046   6.550   3.144  0.1587  0.8143 -0.2006
  429MOL0     H57883   2.981   6.494   3.391  1.0711  0.5524 -0.6161
  429MOL0     H57884   3.101   6.361   3.378 -0.3610 -1.3924 -1.7318
  429MOL0     H57885   3.279   6.518   3.374 -0.4074  0.1349  2.0538
  429MOL0     H57886   3.180   6.555   3.501  1.9103 -2.3049 -0.3458
  429MOL0     H57887   3.182   6.714   3.235  1.2201 -1.1190 -0.2964
  429MOL0     H57888   3.061   6.734   3.363  0.5421  1.1445  1.1341
  429MOL0     H57889   3.361   6.756   3.435  0.2350  0.2198  3.4459
  429MOL0     H57890   3.220   6.806   3.524 -0.8508  0.0753 -1.1413
  429MOL0     H57891   3.332   6.909   3.269 -1.3016  2.1224 -1.3655
  429MOL0     H57892   3.168   6.971   3.320 -0.1690  0.8864 -0.7354
  429MOL0     H57893   3.402   7.089   3.359  2.7692 -0.5982  1.5867
  429MOL0     H57894   3.427   6.982   3.493  1.4846  2.2202  0.2292
  429MOL0     H57895   3.168   7.086   3.549  0.3088  0.8719  0.7474
  429MOL0     H57896   3.259   7.213   3.461  2.7605 -1.2065 -3.7396
  429MOL0     H57897   2.906   6.593   2.988 -0.1837  1.0906 -1.0923
  429MOL0     H57898   2.789   6.582   2.764 -2.7157 -1.9675 -1.3615
  429MOL0     H57899   2.413   6.339   2.677  2.2332 -0.2531 -0.9496
  429MOL0     H57900   2.213   6.253   2.579 -0.4655 -2.9681 -0.5029
  429MOL0     H57901   1.121   5.243   2.048 -0.5179 -0.4763 -1.7385
  429MOL0     H57902   0.908   5.170   2.002  1.9870  2.6603  0.0882
  429MOL0     H57903   0.474   4.995   1.888 -0.6709  0.4764 -0.8994
  429MOL0     H57904   0.281   4.849   1.880  1.6910 -1.6619 -1.4268
  429MOL0     H57905   0.067   4.571   2.080  0.1497 -1.5015 -2.9807
  429MOL0     H57906   0.112   4.752   2.062  1.1894 -0.4204  2.1607
  429MOL0     H57907  -0.019   4.561   1.891 -0.9823  1.5086  0.6372
  429MOL0     H57908   0.141   4.551   1.838  0.8540 -0.5536  2.2295
  429MOL0     H57909   0.121   4.801   1.763 -1.5729  1.6901 -0.9706
  429MOL0     H57910  -0.038   4.802   1.831 -0.3489  0.5296 -0.5410
  429MOL0     H57911  -0.066   4.778   1.604  0.8376  1.8765  1.6461
  429MOL0     H57912  -0.093   4.614   1.666 -0.4015 -0.3619  1.9156
  429MOL0     H57913   0.234   4.497   1.435 -0.2332  0.7432 -0.5747
  429MOL0     H57914   0.429   4.639   2.216 -0.0399  1.6893  1.3110
  429MOL0     H57915   0.615   4.763   2.220  1.0585  1.7974  1.0262
  430MOL0     O57916   1.211   0.826   1.319 -0.2227  0.1505 -0.0838
  430MOL0     C57917   1.211   0.711   1.277  0.2528 -0.1754  1.3219
  430MOL0     O57918   1.306   0.607   1.303  0.7421 -0.1416  0.5022
  430MOL0     C57919   1.401   0.616   1.405  0.7777 -0.1781  0.9200
  430MOL0     C57920   1.447   0.739   1.462  0.6631 -0.4431 -0.9384
  430MOL0     C57921   1.538   0.726   1.568  0.6377 -0.6350 -0.4648
  430MOL0     C57922   1.594   0.602   1.612 -0.3625 -0.2158  0.5796
  430MOL0     O57923   1.694   0.594   1.704 -0.1311  0.1698 -0.4043
  430MOL0     C57924   1.799   0.692   1.677 -0.6222 -0.2663  0.4110
  430MOL0     C57925   1.942   0.645   1.736 -0.0115  0.1131  0.3116
  430MOL0     C57926   2.041   0.761   1.729 -0.6552 -0.9727 -0.1351
  430MOL0     C57927   2.125   0.755   1.608  0.9412 -0.0384  0.0781
  430MOL0     C57928   2.170   0.896   1.575 -0.0021  0.7352  0.8518
  430MOL0     C57929   2.262   0.888   1.447  0.0172  0.1153  0.1402
  430MOL0     C57930   2.410   0.917   1.495 -0.0212 -0.6152  0.2846
  430MOL0     C57931   2.517   0.882   1.398  0.0087 -0.0964 -0.3430
  430MOL0     N57932   2.571   0.743   1.415 -0.2477 -0.6062  0.4247
  430MOL0     C57933   2.704   0.715   1.412  0.6065 -0.0034  0.9609
  430MOL0     C57934   2.708   0.585   1.444  1.0973 -0.0360 -0.1520
  430MOL0     C57935   2.840   0.510   1.460  0.0694 -0.3403 -0.4945
  430MOL0     C57936   2.905   0.528   1.596  1.3696  0.3432  0.2579
  430MOL0     C57937   2.995   0.423   1.645 -1.4403  0.1986 -0.2597
  430MOL0     C57938   3.095   0.376   1.532  0.4246 -0.0245  0.4667
  430MOL0     O57939   3.194   0.469   1.503  0.0491  0.2356  0.0283
  430MOL0     C57940   3.272   0.435   1.395 -0.6959  0.1793 -0.5537
  430MOL0     C57941   3.237   0.370   1.275  0.7062  0.7635 -0.1804
  430MOL0     C57942   3.314   0.354   1.163 -0.8733  0.1551  0.0653
  430MOL0     C57943   3.267   0.282   1.038 -0.2108 -0.9418  0.8067
  430MOL0     C57944   3.452   0.401   1.180  0.0053 -0.5669 -0.9735
  430MOL0     C57945   3.557   0.411   1.073  0.1391  0.1103  0.2057
  430MOL0     O57946   3.670   0.467   1.126  0.0140  0.3121 -0.2907
  430MOL0     C57947   3.790   0.450   1.062 -0.5732  0.1378 -0.3131
  430MOL0     C57948   3.811   0.466   0.921 -0.2852  0.2802  0.1912
  430MOL0     C57949   3.940   0.469   0.863  0.0054 -0.0665  0.7096
  430MOL0     C57950   4.050   0.436   0.942 -0.2082 -0.5136 -0.0625
  430MOL0     O57951   4.169   0.418   0.881 -0.8658 -0.5413 -0.2286
  430MOL0     C57952   4.246   0.305   0.919 -0.3823 -0.1107  0.0666
  430MOL0     C57953   4.285   0.213   0.799 -0.8334 -0.1514  0.3748
  430MOL0     C57954   4.431   0.217   0.776  0.5096 -0.5166  0.5781
  430MOL0     C57955   4.485   0.355   0.740  0.4752  0.3934  0.1736
  430MOL0     C57956   4.641   0.339   0.744 -0.2719 -0.0935 -0.1037
  430MOL0     C57957   4.720   0.440   0.662  0.6128 -0.5356 -1.1309
  430MOL0     C57958   4.746   0.567   0.741 -0.4070  0.4935  0.3422
  430MOL0     C57959   4.858   0.645   0.675 -0.3579 -0.1988  0.5381
  430MOL0    Cl57960   4.788   0.756   0.548  0.3766  0.5836 -0.1390
  430MOL0     C57961   4.032   0.422   1.076  0.4133  0.4495  0.6591
  430MOL0     C57962   3.907   0.436   1.139 -0.3869 -0.0474 -0.2043
  430MOL0     O57963   3.560   0.330   0.980 -0.0589 -0.6414 -0.1756
  430MOL0     C57964   3.484   0.471   1.303 -0.0668  0.1554 -0.4313
  430MOL0     C57965   3.397   0.478   1.401  0.2992  0.2623 -0.0703
  430MOL0     N57966   2.569   0.541   1.463 -0.3894  0.1289  0.0491
  430MOL0     N57967   2.493   0.642   1.460  0.0096  0.0912 -0.3245
  430MOL0     C57968   1.554   0.481   1.557  0.1463  0.7823  1.0454
  430MOL0     C57969   1.458   0.496   1.451  0.0325 -0.0624 -1.1755
  430MOL0     C57970   1.100   0.671   1.193 -0.2966 -0.2583 -0.4795
  430MOL0     C57971   0.984   0.754   1.175 -0.6561 -0.0029  0.1966
  430MOL0     C57972   0.874   0.714   1.102 -0.1571 -0.1283  0.7340
  430MOL0     C57973   0.868   0.584   1.048  1.1925 -0.0614  0.4989
  430MOL0     O57974   0.762   0.568   0.963  0.1995  0.3448  0.8637
  430MOL0     C57975   0.713   0.430   0.938 -0.5635 -0.2433  0.2425
  430MOL0     C57976   0.582   0.440   0.878 -0.5583  0.2862  0.0274
  430MOL0     C57977   0.476   0.512   0.958  0.7582  0.3432 -0.3423
  430MOL0     C57978   0.429   0.432   1.080  0.1563  0.3883  0.4961
  430MOL0     C57979   0.348   0.512   1.167  0.3032  0.1115  0.5402
  430MOL0     C57980   0.278   0.564   1.254  0.1304  0.1483 -0.5166
  430MOL0     C57981   0.978   0.502   1.066 -0.0722  0.9479  1.1994
  430MOL0     C57982   1.083   0.544   1.139 -0.1748 -0.3238  0.2048
  430MOL0     H57983   1.410   0.838   1.436  1.0148  0.2541  1.0516
  430MOL0     H57984   1.570   0.821   1.611 -5.5405  0.3957  3.1177
  430MOL0     H57985   1.795   0.711   1.569 -5.1814  2.2273  0.8136
  430MOL0     H57986   1.768   0.783   1.727 -0.6166  0.6662 -1.2181
  430MOL0     H57987   1.919   0.619   1.840 -1.6587  1.4184  0.3275
  430MOL0     H57988   1.960   0.553   1.679 -2.0026 -1.0465  1.4074
  430MOL0     H57989   1.984   0.855   1.728  1.4442  0.3732 -0.0115
  430MOL0     H57990   2.108   0.763   1.815 -0.6181  1.0503 -0.1594
  430MOL0     H57991   2.217   0.698   1.622 -0.1782 -1.9021  0.0900
  430MOL0     H57992   2.064   0.710   1.529  0.0879 -0.0375  0.7210
  430MOL0     H57993   2.078   0.952   1.556 -2.1745 -1.4461  3.9279
  430MOL0     H57994   2.219   0.955   1.653  1.4324  1.9087 -0.8553
  430MOL0     H57995   2.252   0.792   1.396  1.2617 -0.0976  0.2711
  430MOL0     H57996   2.236   0.964   1.372 -1.5761  1.5952  2.0712
  430MOL0     H57997   2.413   1.025   1.512  1.7133 -0.6831  0.5112
  430MOL0     H57998   2.424   0.868   1.591 -0.5400 -2.1552 -0.3873
  430MOL0     H57999   2.598   0.951   1.425 -0.2469  0.1083 -0.0906
  430MOL0     H58000   2.496   0.892   1.291  2.6553  1.7034 -0.8024
  430MOL0     H58001   2.788   0.778   1.387  2.2665 -1.2145  3.1161
  430MOL0     H58002   2.809   0.406   1.454 -1.8703  0.1121  0.8884
  430MOL0     H58003   2.904   0.556   1.384 -0.0201 -2.8879 -2.2431
  430MOL0     H58004   2.840   0.559   1.678  1.8085 -2.5366  1.8171
  430MOL0     H58005   2.977   0.611   1.591  4.3198 -1.7629  2.9977
  430MOL0     H58006   2.937   0.336   1.678 -0.9754 -1.3515 -3.1849
  430MOL0     H58007   3.060   0.454   1.727  0.9020 -1.9846 -1.1741
  430MOL0     H58008   3.039   0.352   1.440  0.3008 -0.4879  0.6627
  430MOL0     H58009   3.152   0.286   1.556  0.1355  0.1599  1.8862
  430MOL0     H58010   3.144   0.316   1.270  1.0367  0.0173  1.3215
  430MOL0     H58011   3.309   0.318   0.943 -0.4414 -0.7509  0.7748
  430MOL0     H58012   3.284   0.175   1.049 -0.0541 -0.9938  0.1129
  430MOL0     H58013   3.160   0.302   1.024 -0.1651 -0.2682  1.3505
  430MOL0     H58014   3.726   0.491   0.857 -1.8363 -1.8472  1.2515
  430MOL0     H58015   3.955   0.502   0.760 -0.0035 -2.7769 -0.2419
  430MOL0     H58016   4.338   0.353   0.952 -0.9882  1.3444 -0.3103
  430MOL0     H58017   4.194   0.239   0.990 -1.3682  1.6807  1.0860
  430MOL0     H58018   4.254   0.110   0.821  0.3535  0.1280  3.9165
  430MOL0     H58019   4.225   0.245   0.713  0.8614  2.0822 -0.0417
  430MOL0     H58020   4.449   0.146   0.695 -2.6552 -2.1774  1.1676
  430MOL0     H58021   4.482   0.191   0.870 -0.8082  2.2856  2.1981
  430MOL0     H58022   4.451   0.365   0.636 -0.2441 -1.9128  0.1415
  430MOL0     H58023   4.452   0.440   0.800 -3.3394 -1.7581  1.4401
  430MOL0     H58024   4.677   0.244   0.704 -2.6199 -0.0932 -2.5021
  430MOL0     H58025   4.676   0.336   0.847 -1.5918  0.0813  0.3691
  430MOL0     H58026   4.813   0.393   0.628  1.4389  1.3643 -1.6331
  430MOL0     H58027   4.666   0.470   0.572  0.5783  0.1818 -0.8784
  430MOL0     H58028   4.766   0.546   0.847  0.6284 -0.5262 -0.0299
  430MOL0     H58029   4.657   0.629   0.752 -0.0249  0.9888  0.6944
  430MOL0     H58030   4.941   0.584   0.639 -0.9136 -1.2366  0.9648
  430MOL0     H58031   4.901   0.703   0.757 -1.3846 -1.4679  2.0483
  430MOL0     H58032   4.124   0.412   1.132  0.4970  1.5252  0.7350
  430MOL0     H58033   3.905   0.432   1.247 -0.7727  0.2291 -0.2010
  430MOL0     H58034   3.576   0.518   1.336 -0.5472  1.2863 -0.6673
  430MOL0     H58035   3.428   0.541   1.484  1.0776 -0.1807 -0.0178
  430MOL0     H58036   1.604   0.387   1.577 -1.4137 -0.3162  0.0740
  430MOL0     H58037   1.420   0.409   1.398 -1.6358  0.5312 -1.0015
  430MOL0     H58038   0.976   0.849   1.228 -2.6786 -1.2965  2.3646
  430MOL0     H58039   0.792   0.784   1.089 -0.5716 -0.6993  0.1991
  430MOL0     H58040   0.784   0.381   0.870 -0.3570 -0.8532  0.8883
  430MOL0     H58041   0.722   0.381   1.035  5.8802  0.5441  0.5237
  430MOL0     H58042   0.543   0.339   0.863 -3.0356  1.1548  0.1362
  430MOL0     H58043   0.595   0.491   0.782  1.0072 -1.2606 -0.6400
  430MOL0     H58044   0.388   0.516   0.893 -0.5971 -3.3133  1.0124
  430MOL0     H58045   0.507   0.614   0.983 -2.1964  1.2603  0.0192
  430MOL0     H58046   0.517   0.393   1.132 -0.8440 -1.5774  0.8359
  430MOL0     H58047   0.374   0.343   1.048  1.5555  0.2514 -1.7007
  430MOL0     H58048   0.215   0.604   1.331  1.2311 -0.1097  0.5560
  430MOL0     H58049   0.979   0.401   1.026  1.6552  1.5596 -0.4171
  430MOL0     H58050   1.168   0.478   1.155  0.1868  0.0232 -0.2755
  431MOL0     O58051   4.570   1.140   1.470 -0.3290 -0.2884  0.4718
  431MOL0     C58052   4.461   1.130   1.526 -0.3972  0.6009 -0.3457
  431MOL0     O58053   4.339   1.129   1.464 -1.0254 -0.5595  0.5664
  431MOL0     C58054   4.323   1.143   1.328  0.2066  0.2157  0.0469
  431MOL0     C58055   4.423   1.099   1.237  0.6218 -0.6318  0.2102
  431MOL0     C58056   4.401   1.108   1.100  0.3761  0.2361 -0.3233
  431MOL0     C58057   4.281   1.148   1.051 -0.4687 -0.5987 -0.4173
  431MOL0     O58058   4.285   1.177   0.922 -0.1108 -0.5200 -0.0349
  431MOL0     C58059   4.166   1.177   0.838  0.3129  0.1232 -0.1367
  431MOL0     C58060   4.187   1.091   0.710 -0.7509  0.5102 -0.3235
  431MOL0     C58061   4.166   0.943   0.745 -1.1933 -0.5519  0.2665
  431MOL0     C58062   4.208   0.847   0.632 -0.0079 -0.6039  0.9172
  431MOL0     C58063   4.195   0.697   0.675 -0.2960 -0.4886 -0.1442
  431MOL0     C58064   4.179   0.591   0.565 -0.2149 -0.0380 -0.1400
  431MOL0     C58065   4.052   0.606   0.479 -0.2595  0.0678  0.0743
  431MOL0     C58066   4.021   0.496   0.383 -0.0200 -0.0092 -0.2577
  431MOL0     N58067   3.977   0.374   0.445  0.5526  0.3256 -0.3613
  431MOL0     C58068   3.857   0.360   0.510  0.5221 -0.1200  0.7474
  431MOL0     C58069   3.869   0.245   0.581  0.0885  0.8308  0.1500
  431MOL0     C58070   3.778   0.184   0.697 -0.0971  0.5637  0.1370
  431MOL0     C58071   3.749   0.039   0.675  0.0559 -0.2349 -0.6191
  431MOL0     C58072   3.626   0.001   0.585  0.0205  0.4801 -0.9242
  431MOL0     C58073   3.488   0.031   0.652 -0.5336 -0.2686 -0.0161
  431MOL0     O58074   3.398   0.083   0.545 -0.1869 -0.0782  0.0503
  431MOL0     C58075   3.426   0.211   0.499 -0.2281  0.8161 -0.2074
  431MOL0     C58076   3.424   0.310   0.593  0.6058 -0.2860 -0.1024
  431MOL0     C58077   3.475   0.445   0.573 -0.2248  0.3761 -0.9237
  431MOL0     C58078   3.470   0.542   0.692 -0.4009  0.3882 -0.2696
  431MOL0     C58079   3.517   0.479   0.445 -0.2535 -1.0250 -0.4467
  431MOL0     C58080   3.587   0.610   0.412 -0.9845  0.3510 -1.1873
  431MOL0     O58081   3.557   0.726   0.473 -0.3616 -0.2690  0.6152
  431MOL0     C58082   3.651   0.824   0.470 -0.1334 -0.4342  0.8968
  431MOL0     C58083   3.682   0.879   0.341 -0.1011 -0.1656  1.0117
  431MOL0     C58084   3.784   0.975   0.333  0.2655 -0.7980 -0.2932
  431MOL0     C58085   3.865   1.006   0.444 -0.7927  0.0874 -0.0217
  431MOL0     O58086   3.964   1.100   0.432  0.2698  0.4288 -0.3706
  431MOL0     C58087   4.041   1.109   0.308 -0.3153 -0.3671  0.6178
  431MOL0     C58088   4.187   1.142   0.349  0.0781 -0.2329 -0.6864
  431MOL0     C58089   4.263   1.196   0.229 -0.3873  0.5666  0.6511
  431MOL0     C58090   4.274   1.100   0.108 -0.3503 -0.7455 -0.2918
  431MOL0     C58091   4.394   1.129   0.013  0.2040  0.4015  0.4173
  431MOL0     C58092   4.392   1.028  -0.101 -0.2175 -0.2103 -0.6804
  431MOL0     C58093   4.404   0.885  -0.073  0.1070  1.1259 -0.4997
  431MOL0     C58094   4.549   0.853  -0.015 -0.3893 -0.1121 -0.1647
  431MOL0    Cl58095   4.596   0.899   0.160 -0.3784  0.3416  0.2830
  431MOL0     C58096   3.827   0.960   0.577 -0.0399  0.4826  1.1682
  431MOL0     C58097   3.716   0.867   0.592 -0.6181  0.3779  0.7538
  431MOL0     O58098   3.680   0.591   0.331  0.3538 -0.2191 -0.0317
  431MOL0     C58099   3.525   0.366   0.353  0.3973  0.4519  0.1729
  431MOL0     C58100   3.473   0.236   0.371 -0.8868  0.4434  0.5502
  431MOL0     N58101   3.990   0.183   0.552 -0.1900  0.0964  0.3206
  431MOL0     N58102   4.058   0.271   0.478  0.1767 -0.4824  0.0213
  431MOL0     C58103   4.171   1.166   1.133  0.9699  0.1121 -0.5730
  431MOL0     C58104   4.197   1.171   1.275  0.5790 -0.3681  0.2371
  431MOL0     C58105   4.466   1.114   1.676  0.0851  0.2439  0.3546
  431MOL0     C58106   4.368   1.050   1.752  0.2808  0.6567 -0.3539
  431MOL0     C58107   4.388   1.031   1.890 -0.2729 -0.8985  0.3717
  431MOL0     C58108   4.502   1.080   1.959  0.9530 -0.2640  0.0568
  431MOL0     O58109   4.520   1.085   2.096  0.1930  0.0075  0.5580
  431MOL0     C58110   4.421   1.022   2.169  0.2074 -0.7412  1.0548
  431MOL0     C58111   4.458   1.055   2.313  0.5471  0.5815 -0.3593
  431MOL0     C58112   4.351   0.990   2.405 -0.4879  0.1728 -0.1638
  431MOL0     C58113   4.401   0.926   2.531 -0.1892  0.1054 -0.0573
  431MOL0     C58114   4.434   0.784   2.513 -0.6433 -0.6898 -0.8515
  431MOL0     C58115   4.446   0.658   2.518  0.4973  0.3525  0.3369
  431MOL0     C58116   4.600   1.146   1.882 -1.1110 -0.1502 -0.8828
  431MOL0     C58117   4.589   1.155   1.741  0.7073 -0.1456  0.7764
  431MOL0     H58118   4.518   1.057   1.268  1.3528 -0.1821 -1.3187
  431MOL0     H58119   4.483   1.092   1.030 -0.9822 -0.9636 -1.6998
  431MOL0     H58120   4.079   1.133   0.888  1.5383 -1.6764  0.4603
  431MOL0     H58121   4.135   1.277   0.805 -0.2505 -1.0428 -3.5746
  431MOL0     H58122   4.109   1.121   0.639  0.4885  0.3197 -1.8359
  431MOL0     H58123   4.282   1.126   0.667  0.0719  2.2629  2.6649
  431MOL0     H58124   4.229   0.926   0.833 -3.2536  1.0600  2.1570
  431MOL0     H58125   4.063   0.918   0.772 -0.6761 -0.5181  2.4451
  431MOL0     H58126   4.143   0.865   0.546  0.8147 -3.2192 -0.3571
  431MOL0     H58127   4.314   0.855   0.608 -0.0847 -1.5877  0.2094
  431MOL0     H58128   4.286   0.670   0.730 -0.8543  0.9105  1.5508
  431MOL0     H58129   4.119   0.689   0.754 -0.5992 -2.1771 -0.5576
  431MOL0     H58130   4.276   0.605   0.518 -0.5677  1.5309 -0.4389
  431MOL0     H58131   4.170   0.490   0.607 -2.8014 -0.0256 -0.4716
  431MOL0     H58132   3.967   0.618   0.546 -1.6676 -4.1837 -0.6501
  431MOL0     H58133   4.062   0.698   0.421  2.6387  0.4586  0.9795
  431MOL0     H58134   4.106   0.467   0.321  0.4881 -0.5532  0.6735
  431MOL0     H58135   3.939   0.539   0.324  0.5657  1.8687  0.2502
  431MOL0     H58136   3.767   0.421   0.517 -0.6714 -1.4454 -1.5823
  431MOL0     H58137   3.823   0.198   0.796  1.1424 -0.4202 -0.2555
  431MOL0     H58138   3.686   0.242   0.699  0.8487  2.1229  1.5874
  431MOL0     H58139   3.713  -0.003   0.770 -1.1743  1.7076 -0.1767
  431MOL0     H58140   3.840  -0.013   0.642 -1.4216 -1.2822 -3.4081
  431MOL0     H58141   3.620  -0.105   0.560  2.0638  0.6748 -2.4629
  431MOL0     H58142   3.636   0.054   0.490  0.0856  1.9870 -0.1183
  431MOL0     H58143   3.497   0.094   0.740 -1.7494  0.6252 -0.4973
  431MOL0     H58144   3.449  -0.063   0.693 -0.6988 -0.7446 -1.2109
  431MOL0     H58145   3.399   0.273   0.691  0.4854 -3.3661 -1.1866
  431MOL0     H58146   3.402   0.623   0.662 -3.7865 -2.2849 -0.3779
  431MOL0     H58147   3.432   0.514   0.790  4.1364  2.2237  2.3485
  431MOL0     H58148   3.571   0.582   0.707 -1.2903  2.4285  0.6564
  431MOL0     H58149   3.615   0.854   0.259  1.5339  1.4504 -0.9279
  431MOL0     H58150   3.796   1.014   0.233 -1.4820 -0.5991 -0.4544
  431MOL0     H58151   4.034   1.024   0.239 -4.4543 -1.7411  2.4573
  431MOL0     H58152   4.002   1.195   0.254 -0.0451 -0.1025  0.8392
  431MOL0     H58153   4.182   1.217   0.428 -3.3866 -3.3842  2.5106
  431MOL0     H58154   4.234   1.060   0.404  1.6584  2.1321  1.7712
  431MOL0     H58155   4.365   1.208   0.266 -0.5689  1.8502  0.7996
  431MOL0     H58156   4.223   1.292   0.195  1.6949  1.0942 -0.4916
  431MOL0     H58157   4.286   0.999   0.148 -4.5692  0.0210  3.7299
  431MOL0     H58158   4.182   1.111   0.051 -0.4427 -1.3436 -0.2617
  431MOL0     H58159   4.490   1.113   0.063  0.7319  1.9445 -0.0395
  431MOL0     H58160   4.380   1.231  -0.023 -1.8198  0.0143 -0.0553
  431MOL0     H58161   4.288   1.034  -0.134 -1.0714  2.7563  2.0750
  431MOL0     H58162   4.466   1.055  -0.177  1.2695 -0.7730  0.5269
  431MOL0     H58163   4.399   0.820  -0.161  0.3581 -0.2592  0.4741
  431MOL0     H58164   4.332   0.844  -0.001 -0.0109 -0.7139 -1.5912
  431MOL0     H58165   4.626   0.910  -0.068  2.0060 -1.4655  1.6605
  431MOL0     H58166   4.576   0.749  -0.038 -0.8486  0.4523 -3.8053
  431MOL0     H58167   3.890   0.992   0.659  1.8798  1.3957 -0.5565
  431MOL0     H58168   3.697   0.814   0.684  0.1683 -1.2721  0.0048
  431MOL0     H58169   3.565   0.372   0.253 -1.7512 -2.5227 -1.0274
  431MOL0     H58170   3.496   0.159   0.298  3.2356  0.8589  1.1517
  431MOL0     H58171   4.078   1.213   1.102 -0.0216 -0.7740  0.9675
  431MOL0     H58172   4.118   1.175   1.349 -1.6940 -2.7357 -1.8848
  431MOL0     H58173   4.283   1.000   1.707  0.3847 -2.2566  2.3388
  431MOL0     H58174   4.318   0.970   1.946  1.0356 -3.4648 -0.6012
  431MOL0     H58175   4.325   1.062   2.135  0.2019  0.2616  2.1372
  431MOL0     H58176   4.420   0.914   2.158 -2.9936 -0.6585 -0.2988
  431MOL0     H58177   4.468   1.160   2.342  0.8895  0.6686 -0.7803
  431MOL0     H58178   4.552   1.001   2.327  0.7338  1.4083  1.8909
  431MOL0     H58179   4.300   0.918   2.341  0.7353 -1.1442  0.2845
  431MOL0     H58180   4.283   1.059   2.457 -0.2875 -0.2616  0.6912
  431MOL0     H58181   4.326   0.944   2.608 -0.7388  0.3707 -0.6454
  431MOL0     H58182   4.494   0.978   2.559 -0.0405 -0.2830  0.1771
  431MOL0     H58183   4.447   0.551   2.519 -0.3587  0.2457 -2.1750
  431MOL0     H58184   4.690   1.181   1.934  0.4851 -2.1800 -2.1505
  431MOL0     H58185   4.679   1.190   1.692 -1.3718  3.1911 -1.0251
  432MOL0     O58186   8.721   8.410  10.882  0.7183  0.5142  0.7071
  432MOL0     C58187   8.725   8.534  10.859 -0.4386 -0.1617  0.0974
  432MOL0     O58188   8.749   8.628  10.956  0.3924 -0.0622 -0.0422
  432MOL0     C58189   8.708   8.588  11.086 -0.0599 -0.0813  0.8185
  432MOL0     C58190   8.578   8.544  11.110 -0.4304  0.1101  0.2109
  432MOL0     C58191   8.541   8.523  11.237  0.9067  1.1642  0.5373
  432MOL0     C58192   8.626   8.535  11.350 -0.0300 -0.2038  0.1802
  432MOL0     O58193   8.582   8.497  11.476  0.1033 -0.2997 -0.5643
  432MOL0     C58194   8.648   8.386  11.533 -0.8129  0.7513 -0.3352
  432MOL0     C58195   8.556   8.281  11.597 -1.4620 -0.0146  0.2344
  432MOL0     C58196   8.449   8.224  11.510  0.3061  0.1640  0.4312
  432MOL0     C58197   8.352   8.147  11.608  0.0205  0.3222 -0.7566
  432MOL0     C58198   8.262   8.053  11.532  0.0636 -0.9993  1.1437
  432MOL0     C58199   8.200   7.945  11.616  0.7710  0.4509 -1.2288
  432MOL0     C58200   8.069   7.864  11.552  0.7097  0.4655 -0.2678
  432MOL0     C58201   7.946   7.949  11.530 -0.1871 -0.0849  1.0103
  432MOL0     N58202   7.838   7.884  11.464  0.7966  0.9940  0.8346
  432MOL0     C58203   7.845   7.871  11.327 -0.3010 -0.0562  0.7608
  432MOL0     C58204   7.723   7.831  11.293 -0.9098 -0.1026  0.0547
  432MOL0     C58205   7.667   7.811  11.152 -0.1919  0.3157 -0.9207
  432MOL0     C58206   7.513   7.794  11.148 -0.5560 -0.6616  0.6310
  432MOL0     C58207   7.447   7.932  11.159  0.0892  0.5330  0.3373
  432MOL0     C58208   7.293   7.932  11.125 -0.6017  0.2229  0.5480
  432MOL0     O58209   7.287   7.845  11.008  0.5712  0.4525 -0.8483
  432MOL0     C58210   7.205   7.862  10.897 -0.9331 -0.3684  0.0042
  432MOL0     C58211   7.242   7.785  10.785  0.1924 -0.1915  0.8714
  432MOL0     C58212   7.168   7.787  10.665 -0.0000 -0.7899 -0.0740
  432MOL0     C58213   7.216   7.705  10.550  0.6592  0.1689 -0.8323
  432MOL0     C58214   7.055   7.868  10.662  0.5690 -0.4400 -0.0324
  432MOL0     C58215   6.953   7.856  10.548  0.3429  1.1757 -0.3809
  432MOL0     O58216   6.945   7.964  10.463  0.8515  0.4996 -0.1018
  432MOL0     C58217   6.866   7.950  10.358 -0.5562  0.2885  0.0706
  432MOL0     C58218   6.741   7.893  10.359  0.1906 -0.4754  0.4078
  432MOL0     C58219   6.661   7.889  10.245  0.7331  0.5705 -0.1666
  432MOL0     C58220   6.717   7.937  10.125  0.0854 -0.5956  0.0475
  432MOL0     O58221   6.622   7.938  10.027 -0.6139  0.2225  0.2880
  432MOL0     C58222   6.665   7.948   9.892 -0.7639 -0.4995 -0.0035
  432MOL0     C58223   6.551   7.896   9.803 -0.1472 -0.2965  0.1163
  432MOL0     C58224   6.579   7.918   9.657  0.1315 -0.2285 -0.5148
  432MOL0     C58225   6.472   7.855   9.573 -0.5772 -0.2113 -0.5786
  432MOL0     C58226   6.516   7.845   9.426 -0.6716 -0.5180  0.5357
  432MOL0     C58227   6.529   7.976   9.349 -0.3495 -0.4951  0.5262
  432MOL0     C58228   6.414   8.066   9.380 -1.0202  0.0014 -0.2533
  432MOL0     C58229   6.280   8.017   9.329 -0.1206  0.4926 -0.1216
  432MOL0    Cl58230   6.284   7.943   9.177  0.2392  0.8093  0.3521
  432MOL0     C58231   6.848   7.989  10.120 -0.5964  1.3306  0.2345
  432MOL0     C58232   6.925   7.990  10.239 -0.7178 -0.5895 -0.3632
  432MOL0     O58233   6.895   7.750  10.531 -0.1263 -0.4315  0.1731
  432MOL0     C58234   7.023   7.948  10.771  0.5085 -1.0704  0.2166
  432MOL0     C58235   7.101   7.947  10.885  0.3692 -0.0564 -0.6829
  432MOL0     N58236   7.656   7.799  11.413 -0.0049  0.1994  0.0071
  432MOL0     N58237   7.730   7.825  11.514 -0.2793 -0.5760  0.5401
  432MOL0     C58238   8.759   8.585  11.327  0.2546  0.2639 -0.2357
  432MOL0     C58239   8.801   8.603  11.193 -1.1405 -0.4169 -0.2381
  432MOL0     C58240   8.711   8.576  10.717 -0.2575 -0.1722  1.5190
  432MOL0     C58241   8.734   8.708  10.663  0.7352 -0.9084  0.1875
  432MOL0     C58242   8.720   8.736  10.523  0.2402  1.2780  0.5715
  432MOL0     C58243   8.682   8.636  10.435 -0.4723  0.2300 -0.5674
  432MOL0     O58244   8.680   8.672  10.300  0.0716 -0.7392 -0.1812
  432MOL0     C58245   8.688   8.570  10.196 -0.6603 -0.5106 -0.5061
  432MOL0     C58246   8.568   8.500  10.148  0.6506 -0.0038 -0.3467
  432MOL0     C58247   8.582   8.405  10.028  0.0163  0.2754  0.3843
  432MOL0     C58248   8.437   8.344   9.995  0.7048 -0.3625  0.5558
  432MOL0     C58249   8.454   8.213   9.922  1.1906 -0.7005  0.0402
  432MOL0     C58250   8.459   8.106   9.863 -0.4192  0.3738  0.0004
  432MOL0     C58251   8.640   8.509  10.484  0.0833 -1.1069 -0.5548
  432MOL0     C58252   8.653   8.485  10.623  0.0461 -0.0795 -0.4883
  432MOL0     H58253   8.518   8.522  11.023 -0.5297  0.5081  0.1740
  432MOL0     H58254   8.446   8.480  11.264  0.4366  0.8322 -1.4600
  432MOL0     H58255   8.716   8.338  11.463 -2.0260 -2.7133  0.6445
  432MOL0     H58256   8.713   8.423  11.613 -2.1129  0.3582  0.9618
  432MOL0     H58257   8.617   8.199  11.635  3.1226  2.6567 -0.6399
  432MOL0     H58258   8.505   8.336  11.676  0.4959  0.8039  0.9835
  432MOL0     H58259   8.401   8.297  11.444  0.3138  0.9150  1.2339
  432MOL0     H58260   8.493   8.152  11.440  0.7505 -0.6911  1.5646
  432MOL0     H58261   8.415   8.091  11.678  1.8687  4.5217  1.3028
  432MOL0     H58262   8.299   8.221  11.668 -1.9306 -2.5289  1.2663
  432MOL0     H58263   8.176   8.112  11.500  0.1059 -1.3789  0.3042
  432MOL0     H58264   8.328   8.017  11.452  1.5183  4.9278 -0.7843
  432MOL0     H58265   8.271   7.870  11.651 -0.9649  0.8686  4.1146
  432MOL0     H58266   8.168   7.994  11.709  2.9495  3.3682 -1.8641
  432MOL0     H58267   8.100   7.811  11.461 -0.0519 -2.2598  0.9669
  432MOL0     H58268   8.037   7.792  11.628  1.7119  0.6281  0.3220
  432MOL0     H58269   7.974   8.040  11.476 -1.4141 -0.4401 -0.2902
  432MOL0     H58270   7.900   7.999  11.616  0.4423  2.0831  0.1447
  432MOL0     H58271   7.926   7.901  11.262 -0.1877 -0.9351  0.4851
  432MOL0     H58272   7.702   7.892  11.086 -2.8242  1.1178 -1.4724
  432MOL0     H58273   7.711   7.724  11.103 -0.4644  1.2796 -3.0000
  432MOL0     H58274   7.476   7.725  11.225  1.1199  0.6969  2.7787
  432MOL0     H58275   7.498   7.746  11.051  0.5819 -0.1417  0.1707
  432MOL0     H58276   7.491   7.994  11.080  0.7792  0.0785  0.3599
  432MOL0     H58277   7.456   7.983  11.255  0.1807 -1.4375  1.4211
  432MOL0     H58278   7.274   8.034  11.092 -1.7569 -0.5674 -1.4311
  432MOL0     H58279   7.239   7.905  11.216 -0.4213 -1.7054  0.1406
  432MOL0     H58280   7.332   7.727  10.803  0.5522  0.1135  0.1301
  432MOL0     H58281   7.184   7.750  10.456 -1.8716  2.6084  1.0321
  432MOL0     H58282   7.324   7.688  10.558  0.4921 -0.1220  3.7670
  432MOL0     H58283   7.175   7.603  10.553  4.1995 -1.4173 -1.2368
  432MOL0     H58284   6.690   7.846  10.443 -1.1939 -0.9679 -0.6763
  432MOL0     H58285   6.560   7.848  10.240  0.7911  0.5747 -3.1234
  432MOL0     H58286   6.689   8.052   9.867 -2.8412 -0.1386 -0.7019
  432MOL0     H58287   6.757   7.890   9.882  0.0403  0.8526 -0.7671
  432MOL0     H58288   6.547   7.788   9.820  4.3261 -0.5319  0.8713
  432MOL0     H58289   6.459   7.947   9.834 -0.8718  0.2682 -2.6805
  432MOL0     H58290   6.680   7.878   9.642 -1.1838 -3.5984 -1.1845
  432MOL0     H58291   6.570   8.027   9.649 -1.2766 -0.4327 -2.3477
  432MOL0     H58292   6.470   7.748   9.594 -1.3358  0.1518  1.3997
  432MOL0     H58293   6.376   7.899   9.603 -1.2940 -3.1826  1.9610
  432MOL0     H58294   6.444   7.781   9.374  1.6190 -4.5339  1.8610
  432MOL0     H58295   6.612   7.795   9.414 -0.8171 -0.3067 -2.2030
  432MOL0     H58296   6.622   8.032   9.367 -0.9825  0.6144  0.4651
  432MOL0     H58297   6.524   7.948   9.244  0.5921 -2.6089  0.9888
  432MOL0     H58298   6.436   8.160   9.329  3.8993  0.4843  2.1656
  432MOL0     H58299   6.412   8.084   9.488 -0.9121  1.2886 -0.4455
  432MOL0     H58300   6.218   8.106   9.314 -3.5173 -0.6731  4.5444
  432MOL0     H58301   6.223   7.949   9.394 -0.7058 -0.1304 -1.2583
  432MOL0     H58302   6.900   8.012  10.027  0.4610  1.0299  0.7330
  432MOL0     H58303   7.024   8.034  10.240 -1.1140  0.3717  1.5390
  432MOL0     H58304   6.932   8.007  10.760  1.4997  1.1325  2.7677
  432MOL0     H58305   7.056   8.007  10.964  0.3912  0.1504 -0.8281
  432MOL0     H58306   8.828   8.581  11.411 -1.0339  2.2918  0.9886
  432MOL0     H58307   8.907   8.625  11.179 -0.9917  0.3997  1.8002
  432MOL0     H58308   8.774   8.784  10.729  1.3217 -0.1171 -1.0352
  432MOL0     H58309   8.743   8.836  10.489  3.8465 -0.3116 -2.4228
  432MOL0     H58310   8.734   8.620  10.110 -0.8410 -0.5296 -0.6134
  432MOL0     H58311   8.752   8.490  10.232 -0.1626  0.0566 -0.1144
  432MOL0     H58312   8.492   8.576  10.128 -0.0398  0.3902  3.0681
  432MOL0     H58313   8.524   8.440  10.228 -0.4182  0.3746 -0.6285
  432MOL0     H58314   8.658   8.329  10.047  2.3938  2.9080  2.4558
  432MOL0     H58315   8.619   8.441   9.931 -3.3051 -0.5060 -1.3223
  432MOL0     H58316   8.369   8.413   9.944 -2.5125 -2.4850  1.6861
  432MOL0     H58317   8.386   8.330  10.091  1.1934  0.2289  0.9077
  432MOL0     H58318   8.471   8.009   9.818 -0.5047  0.2111  0.3271
  432MOL0     H58319   8.571   8.441  10.436 -1.5964 -1.8334  2.6016
  432MOL0     H58320   8.608   8.391  10.654 -0.5136  0.7344  1.2619
  433MOL0     O58321   7.926   9.250   3.040  0.4713 -0.6334  0.5594
  433MOL0     C58322   7.941   9.325   3.137 -0.5731  0.6248  0.6274
  433MOL0     O58323   7.992   9.457   3.136  0.2829  0.3439  0.9840
  433MOL0     C58324   8.047   9.520   3.028 -0.6438 -0.5077  0.6966
  433MOL0     C58325   8.070   9.459   2.900  0.1923 -0.3628 -0.2381
  433MOL0     C58326   8.110   9.534   2.789 -0.3823  0.6167  0.4589
  433MOL0     C58327   8.161   9.662   2.812 -0.8628 -0.3593  0.8028
  433MOL0     O58328   8.212   9.731   2.704 -0.0253 -0.7276  0.1542
  433MOL0     C58329   8.331   9.682   2.639 -0.5178 -0.0215  0.8212
  433MOL0     C58330   8.355   9.768   2.511 -0.4155 -0.1563  0.8304
  433MOL0     C58331   8.504   9.746   2.461 -0.0227 -0.7101 -0.4440
  433MOL0     C58332   8.535   9.828   2.340 -0.1769 -0.1755  0.1915
  433MOL0     C58333   8.537   9.984   2.350  0.5647  0.2780 -0.3361
  433MOL0     C58334   8.667  10.032   2.412  0.0629  0.3158  0.1694
  433MOL0     C58335   8.799   9.984   2.336 -0.4875  0.3630 -0.6203
  433MOL0     C58336   8.922  10.063   2.401  0.3948 -0.5966  0.0834
  433MOL0     N58337   9.043   9.979   2.399 -0.7547 -0.0191  0.0145
  433MOL0     C58338   9.084   9.929   2.277 -0.6419 -0.9471  0.0232
  433MOL0     C58339   9.201   9.860   2.303 -0.5042  0.4910 -0.3761
  433MOL0     C58340   9.269   9.773   2.197  0.1594 -1.1793  0.3412
  433MOL0     C58341   9.370   9.857   2.126  0.1261  0.0353  0.8648
  433MOL0     C58342   9.451   9.771   2.021  0.1946  0.4741  0.5281
  433MOL0     C58343   9.568   9.693   2.095  0.4036  1.0222  1.3339
  433MOL0     O58344   9.669   9.785   2.152 -0.0030  0.6370 -0.0761
  433MOL0     C58345   9.801   9.741   2.175 -0.8028 -0.6444  0.4740
  433MOL0     C58346   9.890   9.835   2.210 -0.7586  0.3207  0.3201
  433MOL0     C58347  10.029   9.812   2.218 -0.9186 -0.0864 -1.3681
  433MOL0     C58348  10.117   9.924   2.256  0.8579  0.2789 -0.1042
  433MOL0     C58349  10.075   9.674   2.187 -0.4638 -1.1220 -0.6456
  433MOL0     C58350  10.219   9.639   2.159 -0.3431  0.0072  0.0647
  433MOL0     O58351  10.242   9.532   2.075  0.6878  0.4437  0.3095
  433MOL0     C58352  10.344   9.529   1.980  0.4968 -0.0692 -0.0290
  433MOL0     C58353  10.362   9.411   1.915 -0.1433 -0.2424  0.5372
  433MOL0     C58354  10.463   9.406   1.814 -0.3487 -1.1174 -0.1722
  433MOL0     C58355  10.558   9.517   1.794 -0.2163 -0.0052  0.0619
  433MOL0     O58356  10.666   9.520   1.709 -0.7421 -0.2984  0.3953
  433MOL0     C58357  10.619   9.498   1.568 -0.1648  0.4222 -0.1047
  433MOL0     C58358  10.729   9.525   1.470  0.8677  0.9125 -0.7236
  433MOL0     C58359  10.754   9.676   1.460 -0.3410 -0.8276  0.7564
  433MOL0     C58360  10.641   9.755   1.387 -0.0967  0.1425  0.0633
  433MOL0     C58361  10.683   9.902   1.366 -0.1178  0.0190 -0.6814
  433MOL0     C58362  10.575   9.994   1.326  0.0165  0.1324  0.1971
  433MOL0     C58363  10.452  10.017   1.411 -0.1750 -0.1440  0.0373
  433MOL0     C58364  10.360  10.117   1.366 -0.9133 -0.1265 -0.4871
  433MOL0    Cl58365  10.322  10.088   1.195  0.5849  0.3315 -0.0932
  433MOL0     C58366  10.540   9.625   1.868  0.4119 -0.0165  0.0049
  433MOL0     C58367  10.437   9.636   1.960 -0.4174 -0.4783 -0.1715
  433MOL0     O58368  10.304   9.717   2.198 -0.5315  0.3636 -0.5555
  433MOL0     C58369   9.979   9.580   2.148  0.4253  0.1760  0.7582
  433MOL0     C58370   9.843   9.616   2.144 -0.3646 -0.2732 -0.6622
  433MOL0     N58371   9.224   9.863   2.450  0.3291  0.8460  0.7779
  433MOL0     N58372   9.128   9.936   2.495  0.2410  0.6418 -0.4762
  433MOL0     C58373   8.139   9.730   2.933  0.3632  1.0195  0.3448
  433MOL0     C58374   8.079   9.659   3.038  0.0740  0.1800 -0.3213
  433MOL0     C58375   7.909   9.273   3.269  0.5930  0.2396 -0.2870
  433MOL0     C58376   7.894   9.362   3.375  0.5240  0.6441  0.3732
  433MOL0     C58377   7.872   9.302   3.503 -0.8851  0.6369  0.9367
  433MOL0     C58378   7.876   9.164   3.531 -0.5958  0.0819 -0.0615
  433MOL0     O58379   7.872   9.107   3.656  0.9103  0.0326 -0.1923
  433MOL0     C58380   7.833   9.187   3.766  0.1214  0.1865 -0.5360
  433MOL0     C58381   7.856   9.102   3.894  0.3664 -0.0644  0.0688
  433MOL0     C58382   7.769   8.985   3.894  0.1083 -0.0240  0.7807
  433MOL0     C58383   7.761   8.936   4.034  0.2832  0.5008 -0.8954
  433MOL0     C58384   7.878   8.863   4.093 -1.0902 -0.2119 -0.9682
  433MOL0     C58385   7.986   8.827   4.139 -0.4195  0.5238  1.2912
  433MOL0     C58386   7.883   9.079   3.421  0.0570  0.0410  0.1524
  433MOL0     C58387   7.898   9.131   3.294 -0.3003  0.6251  0.0384
  433MOL0     H58388   8.046   9.356   2.873 -0.1121 -0.5383  0.6659
  433MOL0     H58389   8.083   9.497   2.691 -4.8190 -2.4535  2.5141
  433MOL0     H58390   8.414   9.694   2.710  2.4526 -2.7086 -1.8900
  433MOL0     H58391   8.327   9.577   2.608  2.3162  0.5371 -1.9531
  433MOL0     H58392   8.277   9.737   2.440 -2.8782  1.0646  2.8539
  433MOL0     H58393   8.347   9.877   2.524  1.0872  0.4045 -2.0507
  433MOL0     H58394   8.580   9.760   2.540 -0.5059 -2.0554  0.3068
  433MOL0     H58395   8.514   9.637   2.455  2.8668 -0.5878  0.5540
  433MOL0     H58396   8.626   9.796   2.289  1.3279  0.0137  2.6412
  433MOL0     H58397   8.453   9.798   2.274  0.4103 -0.5081 -0.3903
  433MOL0     H58398   8.528  10.035   2.254 -0.3916  4.0252  1.5652
  433MOL0     H58399   8.448  10.015   2.407  1.0542 -3.1393  2.6588
  433MOL0     H58400   8.661  10.141   2.410  2.1735  0.4509 -0.1417
  433MOL0     H58401   8.662  10.005   2.518  1.3934 -0.3947  0.0709
  433MOL0     H58402   8.818   9.877   2.350  1.2880  0.8000  0.7471
  433MOL0     H58403   8.800  10.003   2.228 -0.9042 -2.4535 -1.1918
  433MOL0     H58404   8.894  10.085   2.505  1.8573  1.4504  0.1108
  433MOL0     H58405   8.944  10.163   2.363  2.7280  0.0893  2.7950
  433MOL0     H58406   9.045   9.947   2.177 -3.1062  6.2678  1.6712
  433MOL0     H58407   9.318   9.684   2.240  1.6862  0.0732  1.2990
  433MOL0     H58408   9.191   9.740   2.128 -0.7411 -1.5688  1.5068
  433MOL0     H58409   9.441   9.901   2.196  0.4786  0.3357  0.3242
  433MOL0     H58410   9.319   9.943   2.080  0.0231 -0.6035 -0.2648
  433MOL0     H58411   9.497   9.846   1.956 -0.3291  1.1198  0.8922
  433MOL0     H58412   9.382   9.714   1.958  0.4380  0.7931 -0.0362
  433MOL0     H58413   9.611   9.632   2.015 -0.9988  1.8106 -0.0738
  433MOL0     H58414   9.530   9.623   2.170 -0.5009 -0.1841 -0.1751
  433MOL0     H58415   9.854   9.936   2.231 -0.3838  0.7006 -0.8165
  433MOL0     H58416  10.178   9.942   2.168  0.6163 -0.4646 -0.4319
  433MOL0     H58417  10.062  10.013   2.289  2.0717  0.7781  0.6388
  433MOL0     H58418  10.183   9.889   2.336  0.3930 -2.0451 -0.6782
  433MOL0     H58419  10.304   9.320   1.929  1.0567 -1.2513 -0.7155
  433MOL0     H58420  10.482   9.310   1.767  0.1789 -1.4030  0.5958
  433MOL0     H58421  10.601   9.390   1.565 -2.3734  0.7123 -3.9280
  433MOL0     H58422  10.526   9.548   1.539  0.2160 -0.5625 -3.4197
  433MOL0     H58423  10.822   9.480   1.507  0.0947  0.6350  0.9875
  433MOL0     H58424  10.696   9.473   1.380  1.3692  0.0154 -0.4001
  433MOL0     H58425  10.849   9.689   1.409 -0.4524  1.2467  0.9920
  433MOL0     H58426  10.768   9.709   1.564 -1.1468 -0.6161  0.8059
  433MOL0     H58427  10.615   9.707   1.293 -0.2978 -0.8930  0.6369
  433MOL0     H58428  10.549   9.756   1.446  1.0820  3.2138  2.1231
  433MOL0     H58429  10.763   9.906   1.290  3.4693 -4.9584  2.2285
  433MOL0     H58430  10.732   9.925   1.461 -1.6834 -2.9938  0.9574
  433MOL0     H58431  10.634  10.086   1.320  0.0799  0.1914  1.5488
  433MOL0     H58432  10.545   9.964   1.225 -0.0759  0.0197  0.2584
  433MOL0     H58433  10.497  10.048   1.506 -0.1334  0.4132 -0.1647
  433MOL0     H58434  10.389   9.930   1.433 -2.3469  2.0114  3.1080
  433MOL0     H58435  10.405  10.217   1.369 -0.9335 -0.0753 -1.6943
  433MOL0     H58436  10.278  10.128   1.438  0.0938  2.8542  0.3675
  433MOL0     H58437  10.597   9.717   1.857 -1.8452  1.2291 -2.4783
  433MOL0     H58438  10.441   9.729   2.016  0.0755 -0.1745 -0.6961
  433MOL0     H58439  10.011   9.483   2.111 -0.9454 -0.2105  0.5508
  433MOL0     H58440   9.775   9.535   2.121 -0.8741 -0.3338  0.9123
  433MOL0     H58441   8.170   9.834   2.930  2.4413  0.4186 -1.4038
  433MOL0     H58442   8.048   9.708   3.130  3.0555  0.2822  0.7128
  433MOL0     H58443   7.908   9.470   3.375 -1.7963  1.1003 -2.9530
  433MOL0     H58444   7.865   9.372   3.585  0.2407 -0.0408  1.6321
  433MOL0     H58445   7.896   9.274   3.784  0.5340 -0.4726  1.3667
  433MOL0     H58446   7.727   9.213   3.766  0.2041  1.2235  3.5311
  433MOL0     H58447   7.828   9.174   3.971  1.0820  3.1864 -2.4367
  433MOL0     H58448   7.963   9.078   3.892  0.6696  1.2169 -1.5039
  433MOL0     H58449   7.812   8.905   3.833 -0.1307  1.2303 -1.1387
  433MOL0     H58450   7.671   9.003   3.848  2.2504  0.4710 -4.2647
  433MOL0     H58451   7.691   8.852   4.038  2.8778 -1.7404  0.2529
  433MOL0     H58452   7.714   8.999   4.110 -0.1859 -0.6362 -0.2163
  433MOL0     H58453   8.085   8.789   4.153  1.2243  2.9386 -2.3500
  433MOL0     H58454   7.882   8.973   3.444  0.7753  0.1308  0.6496
  433MOL0     H58455   7.912   9.060   3.213 -1.4649 -1.9647  2.0111
  434MOL0     O58456  10.413   5.906   2.534  0.1322  0.4190 -0.5794
  434MOL0     C58457  10.308   5.960   2.555  1.3334 -0.3832  0.3995
  434MOL0     O58458  10.280   6.066   2.651  0.3615 -0.4302 -0.5685
  434MOL0     C58459  10.384   6.099   2.731 -0.6622  0.2779  0.9973
  434MOL0     C58460  10.381   6.084   2.866 -0.2277  0.1663 -0.1435
  434MOL0     C58461  10.481   6.139   2.950  0.3034 -0.5192  0.0442
  434MOL0     C58462  10.596   6.202   2.898 -0.1452 -0.0284  0.9601
  434MOL0     O58463  10.689   6.237   2.993  0.2150 -0.5296  0.1125
  434MOL0     C58464  10.810   6.291   2.942 -0.1578 -0.3337  0.4223
  434MOL0     C58465  10.909   6.277   3.053 -0.5059  0.7879  0.3818
  434MOL0     C58466  11.058   6.307   3.021 -1.1605  0.5097 -0.3424
  434MOL0     C58467  11.144   6.319   3.141  0.6600  0.6464  0.2236
  434MOL0     C58468  11.290   6.355   3.115 -0.0329  0.3169  0.4983
  434MOL0     C58469  11.329   6.505   3.114 -0.4895  0.5058 -0.0276
  434MOL0     C58470  11.475   6.509   3.092 -0.7151 -0.8574 -0.7791
  434MOL0     C58471  11.530   6.653   3.069  0.5280  0.3638 -0.1725
  434MOL0     N58472  11.473   6.760   3.151  0.5396  0.5055 -0.1453
  434MOL0     C58473  11.514   6.791   3.284 -0.9248 -0.2795  0.6536
  434MOL0     C58474  11.425   6.878   3.323 -0.5814 -0.4381 -0.7177
  434MOL0     C58475  11.439   6.941   3.456  0.5270  0.0584 -0.3786
  434MOL0     C58476  11.481   7.095   3.465  0.5583  0.0137  0.1158
  434MOL0     C58477  11.480   7.141   3.607 -0.0701  0.6456  0.7883
  434MOL0     C58478  11.493   7.286   3.625 -0.3899 -0.4598  0.6221
  434MOL0     O58479  11.638   7.310   3.613 -0.6615 -0.2929 -0.3090
  434MOL0     C58480  11.687   7.399   3.700 -0.6748  0.2744 -0.4464
  434MOL0     C58481  11.793   7.364   3.787  0.6663  0.0471 -0.6184
  434MOL0     C58482  11.843   7.454   3.888 -0.2152 -1.1345  0.8355
  434MOL0     C58483  11.956   7.409   3.966  0.5424 -0.5916 -0.6656
  434MOL0     C58484  11.790   7.586   3.888  0.9056  0.1040 -0.5779
  434MOL0     C58485  11.838   7.690   3.987 -0.5901 -0.5481 -0.5237
  434MOL0     O58486  11.796   7.813   3.960  0.6457 -0.1204  0.3711
  434MOL0     C58487  11.820   7.912   4.051  0.3706 -0.1128  1.1609
  434MOL0     C58488  11.714   7.992   4.099 -0.1439  0.9555  0.0267
  434MOL0     C58489  11.733   8.098   4.178  0.4596 -1.5237 -0.2521
  434MOL0     C58490  11.864   8.149   4.213  0.3082  0.6447 -0.6741
  434MOL0     O58491  11.868   8.260   4.294 -0.3604 -0.5043  0.7725
  434MOL0     C58492  11.997   8.293   4.359  0.5639  0.5202  0.5595
  434MOL0     C58493  12.001   8.234   4.494 -0.6501  0.4021  0.3626
  434MOL0     C58494  11.905   8.306   4.591 -0.0143  0.2943 -0.0904
  434MOL0     C58495  11.814   8.211   4.660  0.1209 -0.1541 -0.4809
  434MOL0     C58496  11.687   8.284   4.718 -0.4601 -0.0511 -0.9343
  434MOL0     C58497  11.607   8.193   4.803  0.9674 -0.8348  0.6799
  434MOL0     C58498  11.667   8.116   4.924  0.0066 -0.4200 -1.3436
  434MOL0     C58499  11.687   8.205   5.052 -0.2477  1.2782  0.4843
  434MOL0    Cl58500  11.558   8.317   5.098  0.4207 -0.2372  0.0482
  434MOL0     C58501  11.973   8.080   4.153 -0.2871 -0.6350  0.3739
  434MOL0     C58502  11.948   7.960   4.078  0.0130 -0.0050  0.7515
  434MOL0     O58503  11.884   7.661   4.091  0.3446  0.3344 -0.8260
  434MOL0     C58504  11.697   7.615   3.790  0.1757 -0.0736 -0.4390
  434MOL0     C58505  11.642   7.523   3.699 -0.4018 -0.1750 -0.2867
  434MOL0     N58506  11.333   6.908   3.224 -0.2674 -0.9577  0.3592
  434MOL0     N58507  11.362   6.836   3.118  0.7638 -0.0678  0.1998
  434MOL0     C58508  10.604   6.218   2.752  0.8852 -0.3645 -0.7128
  434MOL0     C58509  10.495   6.162   2.673  0.4672 -1.0422 -0.4399
  434MOL0     C58510  10.197   5.914   2.459  0.8554 -0.0117 -0.6321
  434MOL0     C58511  10.212   5.801   2.377  0.2173 -0.3055 -0.1536
  434MOL0     C58512  10.096   5.759   2.305  0.0121  0.4970  0.7535
  434MOL0     C58513   9.978   5.833   2.301  0.0453  0.4687  0.2259
  434MOL0     O58514   9.887   5.778   2.212  1.0919  0.4020  0.2271
  434MOL0     C58515   9.751   5.815   2.208  0.5435  0.2737  0.7646
  434MOL0     C58516   9.721   5.910   2.097  0.6659  0.3443  1.1168
  434MOL0     C58517   9.769   5.860   1.962 -0.1935  0.7801  0.8449
  434MOL0     C58518   9.725   5.962   1.856  0.3230  0.1153  0.4673
  434MOL0     C58519   9.781   5.927   1.724  0.3851  1.1320 -0.0335
  434MOL0     C58520   9.835   5.890   1.623 -0.0063  0.4229 -0.4935
  434MOL0     C58521   9.962   5.933   2.385  1.3582 -1.1231  0.5722
  434MOL0     C58522  10.071   5.968   2.473 -0.0270 -0.2215  0.1841
  434MOL0     H58523  10.310   6.020   2.917 -0.2955  0.4830  0.1618
  434MOL0     H58524  10.487   6.135   3.058 -0.8300  0.9896  0.1841
  434MOL0     H58525  10.844   6.242   2.851 -1.0233  6.1673 -4.0924
  434MOL0     H58526  10.788   6.391   2.904  0.0406  0.0416  1.2645
  434MOL0     H58527  10.882   6.326   3.147 -1.0773 -2.0035  1.7878
  434MOL0     H58528  10.910   6.170   3.079  1.3770  0.7651  0.3416
  434MOL0     H58529  11.103   6.227   2.961  0.7052 -0.4260  2.1346
  434MOL0     H58530  11.059   6.400   2.964 -0.6325 -0.1947 -1.5239
  434MOL0     H58531  11.106   6.386   3.218 -0.6477 -2.1036  2.1417
  434MOL0     H58532  11.153   6.218   3.182 -0.0197  1.4344  2.5039
  434MOL0     H58533  11.336   6.308   3.202 -0.5761  2.0401  1.7632
  434MOL0     H58534  11.341   6.311   3.028  2.7935 -0.2889  2.3248
  434MOL0     H58535  11.282   6.561   3.033 -0.2450 -0.1362 -0.6177
  434MOL0     H58536  11.311   6.551   3.212  0.0584  0.5689  0.0453
  434MOL0     H58537  11.528   6.462   3.176 -0.6858 -2.6391 -1.7473
  434MOL0     H58538  11.506   6.445   3.009 -0.9608 -2.4489  0.3149
  434MOL0     H58539  11.504   6.668   2.963  1.8943 -0.2138 -0.6025
  434MOL0     H58540  11.638   6.642   3.076  0.3613  0.0517  3.2624
  434MOL0     H58541  11.597   6.754   3.344  0.2837  1.7806  0.3517
  434MOL0     H58542  11.342   6.924   3.504 -0.5951  2.8999 -1.4416
  434MOL0     H58543  11.521   6.886   3.503 -0.0582  0.4061  1.0822
  434MOL0     H58544  11.410   7.154   3.406  0.9139  2.0362  1.6275
  434MOL0     H58545  11.577   7.116   3.417  1.2389  3.2000  2.5778
  434MOL0     H58546  11.552   7.096   3.676 -0.8440 -2.2058 -0.1490
  434MOL0     H58547  11.383   7.115   3.650  0.2539 -1.7936  0.1466
  434MOL0     H58548  11.441   7.320   3.715 -2.0015 -0.4969 -0.2659
  434MOL0     H58549  11.435   7.337   3.548  0.8061  1.0186  0.6405
  434MOL0     H58550  11.829   7.262   3.783  0.4242 -0.0948  0.3691
  434MOL0     H58551  12.037   7.481   3.978 -0.1566  0.0402  0.3144
  434MOL0     H58552  11.918   7.380   4.064  0.2313 -0.3975 -0.7289
  434MOL0     H58553  11.989   7.312   3.927  0.1588 -0.2883 -1.8050
  434MOL0     H58554  11.614   7.952   4.089  0.3423 -0.7444  1.3331
  434MOL0     H58555  11.656   8.157   4.227  3.9284  1.4437  2.0539
  434MOL0     H58556  12.088   8.258   4.309  0.4272  1.8205 -0.6856
  434MOL0     H58557  12.002   8.401   4.374 -0.9301  0.6751  0.0615
  434MOL0     H58558  11.982   8.127   4.486  1.3253 -0.0074  0.7092
  434MOL0     H58559  12.101   8.244   4.537 -1.9332  0.4252  3.6908
  434MOL0     H58560  11.842   8.376   4.536 -1.5641 -0.5353  0.5694
  434MOL0     H58561  11.951   8.379   4.659  0.1086  0.9307 -0.8512
  434MOL0     H58562  11.773   8.141   4.586 -1.5619 -3.1858  2.9940
  434MOL0     H58563  11.867   8.158   4.739 -0.2030  5.1048  3.8774
  434MOL0     H58564  11.625   8.322   4.636 -2.0181 -0.2064  0.1270
  434MOL0     H58565  11.711   8.375   4.774 -3.4806 -1.1881  2.5626
  434MOL0     H58566  11.517   8.251   4.826 -0.5885 -3.0086  0.3953
  434MOL0     H58567  11.581   8.119   4.727 -1.3234  3.1407 -2.8581
  434MOL0     H58568  11.768   8.080   4.900  0.6099  0.7645 -0.7144
  434MOL0     H58569  11.606   8.027   4.942  0.3989 -0.2934  0.9471
  434MOL0     H58570  11.765   8.272   5.013  1.1501 -1.9253 -2.7620
  434MOL0     H58571  11.717   8.143   5.137  1.5581  0.3947 -0.7255
  434MOL0     H58572  12.076   8.110   4.161 -0.4304  0.3577 -1.0996
  434MOL0     H58573  12.028   7.905   4.029 -1.9629 -2.3196 -0.1254
  434MOL0     H58574  11.660   7.716   3.775  0.7062  0.2432  0.3104
  434MOL0     H58575  11.567   7.551   3.626 -1.7408 -2.3650  0.1651
  434MOL0     H58576  10.688   6.275   2.714  2.2461 -1.1057  1.0460
  434MOL0     H58577  10.498   6.178   2.566  0.4352  1.6497 -0.1268
  434MOL0     H58578  10.302   5.739   2.379 -1.1215 -2.3276  1.1820
  434MOL0     H58579  10.099   5.673   2.239 -3.9977  1.5582 -1.0739
  434MOL0     H58580   9.681   5.734   2.185  1.9263 -1.1900  1.4875
  434MOL0     H58581   9.725   5.868   2.300  0.9718 -0.6556  1.4387
  434MOL0     H58582   9.785   5.996   2.118  0.5959  0.3483  1.3123
  434MOL0     H58583   9.614   5.935   2.102  0.7798  0.5507  4.4018
  434MOL0     H58584   9.726   5.765   1.928  0.0329  1.0376 -0.1703
  434MOL0     H58585   9.877   5.860   1.977 -0.4960 -0.0981  3.7833
  434MOL0     H58586   9.763   6.063   1.875 -1.5001  2.0411 -4.4732
  434MOL0     H58587   9.618   5.981   1.840  0.6470  0.2085 -1.8584
  434MOL0     H58588   9.884   5.863   1.531  0.1296 -1.1289  0.0095
  434MOL0     H58589   9.873   5.994   2.393  0.7916 -1.6780 -1.0282
  434MOL0     H58590  10.069   6.052   2.542 -0.2319 -2.0118  2.4628
  435MOL0     O58591  10.623  10.263   7.325  0.1711  0.4133  0.1019
  435MOL0     C58592  10.582  10.188   7.417  0.1129  0.1075  0.5770
  435MOL0     O58593  10.527  10.057   7.403  0.0476 -0.4025  0.2043
  435MOL0     C58594  10.520   9.990   7.285 -0.2917 -0.2293 -0.1976
  435MOL0     C58595  10.561   9.855   7.282  0.0549 -1.1873 -0.9244
  435MOL0     C58596  10.536   9.778   7.170  0.4148 -0.6258 -0.5940
  435MOL0     C58597  10.463   9.818   7.062 -0.0002 -0.1514 -0.4464
  435MOL0     O58598  10.429   9.737   6.956  0.5933 -0.3010 -0.2723
  435MOL0     C58599  10.519   9.626   6.929  0.3740  0.0415 -0.3541
  435MOL0     C58600  10.498   9.594   6.779  0.4467 -0.1971  0.6152
  435MOL0     C58601  10.354   9.549   6.742 -0.4592  0.4944  0.0203
  435MOL0     C58602  10.323   9.401   6.800  0.0610  0.6713  0.3285
  435MOL0     C58603  10.243   9.335   6.688 -0.9678  0.3358 -0.6194
  435MOL0     C58604  10.197   9.195   6.726  0.0738 -0.5573 -0.3422
  435MOL0     C58605  10.158   9.110   6.605 -0.5385  0.4413 -0.1785
  435MOL0     C58606  10.109   8.966   6.644  0.1860 -0.4342  1.1865
  435MOL0     N58607  10.075   8.888   6.522  0.4952 -0.2429  0.4279
  435MOL0     C58608  10.085   8.751   6.496  0.7369  0.2269 -0.6059
  435MOL0     C58609  10.059   8.742   6.359 -0.7377  0.8509 -0.4745
  435MOL0     C58610  10.081   8.624   6.272 -0.0154 -0.7889 -0.7270
  435MOL0     C58611   9.937   8.603   6.191 -0.0169 -0.0461 -0.0311
  435MOL0     C58612   9.955   8.483   6.106  0.3378  0.5101 -0.1564
  435MOL0     C58613   9.828   8.424   6.046  1.5491  0.6077  1.0658
  435MOL0     O58614   9.742   8.523   6.006 -0.0193 -0.3244  1.0116
  435MOL0     C58615   9.624   8.499   5.941 -0.5593  0.3694  0.1356
  435MOL0     C58616   9.563   8.602   5.870 -0.5996 -0.7207 -0.3862
  435MOL0     C58617   9.458   8.586   5.782  0.4309 -1.0845 -0.1057
  435MOL0     C58618   9.403   8.714   5.718  0.1094 -0.5682 -0.0617
  435MOL0     C58619   9.400   8.461   5.766  0.8749  0.3362  0.8829
  435MOL0     C58620   9.295   8.420   5.658 -0.0524 -0.2412 -0.3604
  435MOL0     O58621   9.297   8.287   5.629  0.9560  0.0214  0.6470
  435MOL0     C58622   9.219   8.235   5.528 -0.3909  0.2381  0.8000
  435MOL0     C58623   9.133   8.125   5.549 -0.5314 -0.3001 -0.6551
  435MOL0     C58624   9.077   8.055   5.442 -0.3463 -0.4781 -0.0999
  435MOL0     C58625   9.111   8.089   5.310 -0.6721 -0.6332  0.2205
  435MOL0     O58626   9.082   8.021   5.198  0.6765  0.0967 -0.1904
  435MOL0     C58627   9.059   7.880   5.213 -0.3493  0.1319 -0.1938
  435MOL0     C58628   9.084   7.797   5.092 -0.3213 -0.0788 -0.4699
  435MOL0     C58629   9.029   7.655   5.109 -0.5767 -0.3860 -0.2611
  435MOL0     C58630   9.007   7.600   4.962  0.3132  0.3771  0.4465
  435MOL0     C58631   8.963   7.450   4.933  0.3311  0.2708  0.7591
  435MOL0     C58632   8.943   7.411   4.786  0.3041 -0.5136 -0.0125
  435MOL0     C58633   8.913   7.267   4.749 -0.1023 -0.9840 -0.9759
  435MOL0     C58634   8.786   7.200   4.807 -0.3666 -1.0597  0.2042
  435MOL0    Cl58635   8.741   7.036   4.754 -0.1773  0.1887  0.0308
  435MOL0     C58636   9.195   8.196   5.290 -0.6384  0.5588  0.4447
  435MOL0     C58637   9.256   8.264   5.395  0.5223  0.3539  0.1821
  435MOL0     O58638   9.214   8.495   5.609  0.0415 -1.3388 -0.2315
  435MOL0     C58639   9.462   8.358   5.842  0.8096 -0.1252  0.2822
  435MOL0     C58640   9.574   8.370   5.929  0.1995  0.0013  0.7815
  435MOL0     N58641  10.035   8.868   6.312 -0.0575 -0.9028  0.0958
  435MOL0     N58642  10.048   8.958   6.403 -0.1016  0.2623 -0.6808
  435MOL0     C58643  10.417   9.953   7.061  0.7677 -1.0333 -0.6727
  435MOL0     C58644  10.454  10.039   7.175 -1.0228  0.1842 -0.5448
  435MOL0     C58645  10.583  10.251   7.548  0.8105 -0.9805  0.5099
  435MOL0     C58646  10.618  10.385   7.568  0.2771 -0.6483  0.0301
  435MOL0     C58647  10.631  10.448   7.693 -0.3108  0.3241 -0.2175
  435MOL0     C58648  10.605  10.367   7.804  0.4001  0.5293  0.6622
  435MOL0     O58649  10.630  10.407   7.934  0.9816  0.3238 -0.0820
  435MOL0     C58650  10.765  10.394   7.980 -0.4929  0.5102  0.0779
  435MOL0     C58651  10.784  10.291   8.080 -0.1991  0.1816  0.8256
  435MOL0     C58652  10.714  10.310   8.212  0.2868  1.1567 -0.8084
  435MOL0     C58653  10.791  10.415   8.308  1.1935  0.4471  0.7100
  435MOL0     C58654  10.921  10.364   8.357  0.7270  0.8801  0.2943
  435MOL0     C58655  11.022  10.298   8.374  0.3513  0.0105  0.3366
  435MOL0     C58656  10.567  10.234   7.785  0.0632  0.3007  0.0649
  435MOL0     C58657  10.550  10.173   7.657 -0.6411 -0.6912 -0.4042
  435MOL0     H58658  10.601   9.811   7.372  0.6815 -0.6425 -0.9252
  435MOL0     H58659  10.558   9.671   7.172  1.3303 -0.4940 -1.9088
  435MOL0     H58660  10.620   9.664   6.948 -0.8430  1.9064  3.3962
  435MOL0     H58661  10.497   9.539   6.992  1.2433 -0.0839 -0.2130
  435MOL0     H58662  10.548   9.669   6.716 -0.9562 -2.5693 -3.7034
  435MOL0     H58663  10.557   9.504   6.758  1.8397  1.0646 -1.3214
  435MOL0     H58664  10.287   9.628   6.777 -0.8949  0.8748 -1.5667
  435MOL0     H58665  10.362   9.555   6.633 -3.0979 -1.8082 -0.4217
  435MOL0     H58666  10.415   9.345   6.819 -0.7306  0.0290  2.5248
  435MOL0     H58667  10.266   9.395   6.893 -0.3707  0.3694  0.0495
  435MOL0     H58668  10.152   9.393   6.674 -1.4382  0.6199  2.8668
  435MOL0     H58669  10.317   9.328   6.607  1.6390  0.7071  1.5961
  435MOL0     H58670  10.279   9.141   6.773  0.4373 -1.4896 -1.9993
  435MOL0     H58671  10.108   9.209   6.789  0.2869 -1.4289  0.1655
  435MOL0     H58672  10.083   9.157   6.540 -1.6358 -1.3013 -0.2466
  435MOL0     H58673  10.250   9.100   6.547 -0.5404 -1.3164  0.0490
  435MOL0     H58674  10.034   8.983   6.722  1.1659  0.6412  1.9258
  435MOL0     H58675  10.188   8.918   6.702 -1.2715 -1.1645  2.6308
  435MOL0     H58676  10.118   8.669   6.559  0.3058  0.1231 -0.5098
  435MOL0     H58677  10.164   8.645   6.205  0.1614  0.9612 -0.0266
  435MOL0     H58678  10.101   8.530   6.324  2.1060  0.0195  0.0151
  435MOL0     H58679   9.905   8.685   6.126 -2.2256 -2.5672 -2.4170
  435MOL0     H58680   9.857   8.588   6.264 -0.1064 -0.1932 -0.1572
  435MOL0     H58681  10.000   8.398   6.158  0.5642  0.5906 -0.2193
  435MOL0     H58682  10.028   8.513   6.030 -0.3691  0.9060 -0.6957
  435MOL0     H58683   9.778   8.348   6.107 -0.3512  1.1721  0.2959
  435MOL0     H58684   9.864   8.379   5.952 -0.8168 -2.3216  1.3910
  435MOL0     H58685   9.602   8.703   5.866 -1.2481 -0.4864 -3.5863
  435MOL0     H58686   9.466   8.803   5.728 -0.9990  0.4900 -2.0322
  435MOL0     H58687   9.380   8.697   5.613  2.1845  0.1673 -0.6924
  435MOL0     H58688   9.308   8.751   5.758  0.0522 -0.8238  0.0399
  435MOL0     H58689   9.115   8.088   5.650 -0.6822  0.7796 -0.2759
  435MOL0     H58690   9.015   7.969   5.460 -0.0086 -0.6819  0.1033
  435MOL0     H58691   9.122   7.841   5.293  2.3740  2.0496 -1.2663
  435MOL0     H58692   8.950   7.871   5.222 -0.5326 -1.8849 -3.2052
  435MOL0     H58693   9.048   7.834   4.996 -0.3850  0.1454 -0.3608
  435MOL0     H58694   9.191   7.773   5.090 -0.3329 -1.8028  4.4473
  435MOL0     H58695   8.935   7.665   5.164  0.5047  0.7156  1.4825
  435MOL0     H58696   9.092   7.591   5.171 -0.8619 -0.4375 -0.0232
  435MOL0     H58697   8.932   7.669   4.921  1.6078  0.9501 -1.0639
  435MOL0     H58698   9.106   7.622   4.919  1.6053 -2.4382  1.7609
  435MOL0     H58699   8.883   7.413   4.997 -0.4464 -0.3151 -0.5122
  435MOL0     H58700   9.045   7.384   4.964  0.2100 -0.1486  0.1941
  435MOL0     H58701   8.859   7.466   4.743  0.1292 -0.4373  0.4190
  435MOL0     H58702   9.038   7.433   4.736 -1.7608  3.0764 -2.8773
  435MOL0     H58703   9.002   7.211   4.782 -0.6783 -3.2262 -2.9144
  435MOL0     H58704   8.908   7.277   4.640 -1.2075 -1.6996 -1.0117
  435MOL0     H58705   8.708   7.273   4.784  0.6403  0.8581  2.4015
  435MOL0     H58706   8.804   7.202   4.915 -1.8491 -2.4748  0.5270
  435MOL0     H58707   9.220   8.234   5.191 -2.1204  1.1665  0.2838
  435MOL0     H58708   9.327   8.343   5.372  0.1628  0.5526 -0.2481
  435MOL0     H58709   9.412   8.261   5.834 -3.2890  1.7003  1.1321
  435MOL0     H58710   9.618   8.285   5.980  0.7370 -0.3703 -0.2659
  435MOL0     H58711  10.368  10.003   6.978  0.0760  0.3615  0.5368
  435MOL0     H58712  10.422  10.143   7.177 -2.1371 -0.1496 -0.3266
  435MOL0     H58713  10.640  10.451   7.484  0.8925 -1.1242 -0.1963
  435MOL0     H58714  10.648  10.555   7.704 -1.6837  0.3508  2.6438
  435MOL0     H58715  10.833  10.383   7.895  0.0009 -1.3743  0.6654
  435MOL0     H58716  10.792  10.491   8.023 -1.0075  0.4163  0.6255
  435MOL0     H58717  10.891  10.272   8.095  0.4568  0.4051 -2.7665
  435MOL0     H58718  10.758  10.192   8.041 -1.2853  1.1980 -1.1389
  435MOL0     H58719  10.705  10.209   8.255 -0.5342  0.8373 -1.6862
  435MOL0     H58720  10.610  10.343   8.202 -0.4251  0.7738  3.2483
  435MOL0     H58721  10.724  10.438   8.391 -1.1840 -1.3155 -0.6179
  435MOL0     H58722  10.796  10.511   8.255 -1.1381 -0.8205 -2.0519
  435MOL0     H58723  11.109  10.249   8.413 -0.9467 -0.9188  2.2322
  435MOL0     H58724  10.552  10.191   7.884 -1.5355 -1.0841 -0.7255
  435MOL0     H58725  10.509  10.074   7.641  0.9116 -1.1677 -1.6972
  436MOL0     O58726   8.471   9.824   6.215  0.2442 -0.1479 -0.4849
  436MOL0     C58727   8.438   9.894   6.120 -0.4066 -0.6343 -0.2356
  436MOL0     O58728   8.430   9.862   5.992  0.2449  0.2208  0.3953
  436MOL0     C58729   8.500   9.745   5.956  1.1033 -0.2747  0.4687
  436MOL0     C58730   8.624   9.754   5.898 -0.6520  0.2239 -0.2518
  436MOL0     C58731   8.690   9.633   5.851  1.6301 -0.3876 -0.1341
  436MOL0     C58732   8.629   9.511   5.877 -0.1896  0.0638 -0.4453
  436MOL0     O58733   8.688   9.392   5.844  0.6999 -0.7010  0.2818
  436MOL0     C58734   8.756   9.393   5.712  1.0264  0.0621 -0.4356
  436MOL0     C58735   8.768   9.248   5.681 -0.3767  0.1131 -0.2729
  436MOL0     C58736   8.842   9.153   5.780  0.3589 -0.5105 -0.6870
  436MOL0     C58737   8.841   9.012   5.732 -0.3190 -0.1593  0.9843
  436MOL0     C58738   8.942   8.928   5.811  0.8554 -0.0389 -0.0141
  436MOL0     C58739   8.977   8.804   5.734 -0.3617 -0.2865 -0.0233
  436MOL0     C58740   8.850   8.709   5.719 -0.7082  0.8664 -0.2296
  436MOL0     C58741   8.885   8.581   5.644 -1.1307  1.0167 -0.6412
  436MOL0     N58742   8.789   8.530   5.541  0.4255  0.0795  0.6315
  436MOL0     C58743   8.823   8.431   5.457 -0.7329  0.4273  0.2253
  436MOL0     C58744   8.722   8.425   5.363 -0.6710 -0.3855  0.1863
  436MOL0     C58745   8.724   8.351   5.236  0.5092 -0.3187  0.6360
  436MOL0     C58746   8.850   8.378   5.146  0.8638  1.1134 -0.2071
  436MOL0     C58747   8.856   8.316   5.005 -0.9171  1.0076  0.2863
  436MOL0     C58748   8.819   8.163   5.009 -0.3968  0.1833 -0.1222
  436MOL0     O58749   8.850   8.107   4.883  0.0926 -0.0448 -0.4687
  436MOL0     C58750   8.775   8.009   4.835  0.0807 -0.6172 -0.0997
  436MOL0     C58751   8.764   7.888   4.905  1.0411  1.0560  0.2107
  436MOL0     C58752   8.690   7.778   4.852 -0.5571 -0.6994 -0.6648
  436MOL0     C58753   8.673   7.657   4.940 -0.3674 -1.2472  0.8406
  436MOL0     C58754   8.640   7.788   4.714 -0.7150 -0.1693  0.0801
  436MOL0     C58755   8.577   7.675   4.642  0.2398 -0.6771  0.1973
  436MOL0     O58756   8.567   7.692   4.507 -0.1973  0.3996 -0.3548
  436MOL0     C58757   8.509   7.605   4.418  0.2884  0.4831 -0.5103
  436MOL0     C58758   8.573   7.586   4.294 -0.6656 -0.1776 -0.5872
  436MOL0     C58759   8.527   7.488   4.206 -0.1889 -1.0517  0.3721
  436MOL0     C58760   8.414   7.414   4.227  0.6855 -0.1302 -0.8405
  436MOL0     O58761   8.369   7.314   4.144 -0.3812  0.8270 -0.2951
  436MOL0     C58762   8.474   7.250   4.060  0.4595 -0.2078  0.0565
  436MOL0     C58763   8.404   7.129   3.995  0.1890  0.7964 -0.4907
  436MOL0     C58764   8.498   7.035   3.909  0.5935 -1.3261  0.4544
  436MOL0     C58765   8.410   6.973   3.797  0.3139  0.7722 -0.0488
  436MOL0     C58766   8.483   6.858   3.726  0.7527  0.7333  0.2621
  436MOL0     C58767   8.602   6.899   3.650 -0.0268 -0.3284 -0.5790
  436MOL0     C58768   8.669   6.774   3.604 -0.5121  0.3106  1.0716
  436MOL0     C58769   8.814   6.796   3.556  0.2058 -0.7340 -0.0855
  436MOL0    Cl58770   8.902   6.814   3.708 -0.2454  0.2552 -0.5077
  436MOL0     C58771   8.336   7.458   4.342 -0.4759  0.5934 -1.1954
  436MOL0     C58772   8.384   7.536   4.442 -0.6147 -0.4619 -0.2613
  436MOL0     O58773   8.546   7.572   4.705 -0.5402  0.8678 -0.5825
  436MOL0     C58774   8.656   7.909   4.653 -0.0885 -0.3869 -0.2129
  436MOL0     C58775   8.704   8.019   4.721 -0.5402 -0.0898  0.4565
  436MOL0     N58776   8.619   8.508   5.396 -0.1365  0.0612 -1.0041
  436MOL0     N58777   8.663   8.572   5.505  0.0644 -0.0526  0.1305
  436MOL0     C58778   8.497   9.508   5.929  0.6561  0.3473  1.0023
  436MOL0     C58779   8.427   9.621   5.963 -0.4005 -0.5914 -1.0346
  436MOL0     C58780   8.385  10.031   6.151  0.5163 -0.2273  0.4498
  436MOL0     C58781   8.405  10.139   6.062 -0.1392  0.0999  0.1392
  436MOL0     C58782   8.359  10.271   6.091  0.5547 -0.1271 -0.3779
  436MOL0     C58783   8.287  10.288   6.208  0.6604  0.6122 -0.1992
  436MOL0     O58784   8.241  10.415   6.240 -0.2090  0.7895 -0.3837
  436MOL0     C58785   8.209  10.450   6.371  0.2161 -0.0056  0.1166
  436MOL0     C58786   8.179  10.597   6.377 -0.4052 -0.4679  0.4822
  436MOL0     C58787   8.129  10.633   6.516 -0.6684  0.7773  0.1077
  436MOL0     C58788   8.138  10.786   6.538  0.0115 -0.0814 -0.2081
  436MOL0     C58789   8.017  10.852   6.469  1.2231  0.4128  0.3709
  436MOL0     C58790   7.918  10.904   6.426 -1.1327  0.3162  0.2938
  436MOL0     C58791   8.264  10.173   6.294  0.5127  0.2453 -0.2686
  436MOL0     C58792   8.316  10.050   6.269 -0.5198 -0.4267  0.2122
  436MOL0     H58793   8.664   9.854   5.885 -0.0620  0.2989  1.8431
  436MOL0     H58794   8.793   9.643   5.818  1.1714  2.9152 -0.9972
  436MOL0     H58795   8.699   9.439   5.631  2.3505  0.3155 -1.2380
  436MOL0     H58796   8.849   9.451   5.715  1.1505 -0.1619  0.6744
  436MOL0     H58797   8.665   9.214   5.664  0.8560 -3.0796 -2.2063
  436MOL0     H58798   8.818   9.234   5.585 -1.9618  0.8035 -1.2617
  436MOL0     H58799   8.946   9.181   5.798 -0.1858  0.9924  0.4086
  436MOL0     H58800   8.790   9.154   5.876 -1.0811 -0.2602 -1.4387
  436MOL0     H58801   8.737   8.983   5.752 -0.0772 -0.4860  1.8023
  436MOL0     H58802   8.878   9.016   5.629  0.7124  1.6445  1.3786
  436MOL0     H58803   9.033   8.982   5.835  2.2793 -2.2408 -0.1677
  436MOL0     H58804   8.881   8.891   5.894 -0.8937  0.9192 -0.8035
  436MOL0     H58805   9.018   8.829   5.636 -2.1354  1.7368 -0.3160
  436MOL0     H58806   9.057   8.750   5.786 -0.0579  1.0167  0.9050
  436MOL0     H58807   8.808   8.687   5.818  0.4838 -0.4162  0.0242
  436MOL0     H58808   8.777   8.764   5.659  2.6731  0.6876 -5.0969
  436MOL0     H58809   8.874   8.504   5.722 -0.9142  1.3599 -0.2686
  436MOL0     H58810   8.984   8.577   5.597 -1.0493 -0.5071 -0.4031
  436MOL0     H58811   8.917   8.377   5.462 -0.7155  0.5468  2.5549
  436MOL0     H58812   8.719   8.244   5.260  2.3122  0.1679  3.5696
  436MOL0     H58813   8.641   8.378   5.170  1.1131  1.8816  0.7198
  436MOL0     H58814   8.940   8.341   5.196 -0.5555 -0.0411  1.6044
  436MOL0     H58815   8.862   8.486   5.148  0.8761  1.1154 -0.3962
  436MOL0     H58816   8.955   8.332   4.963 -0.9226 -1.4603 -0.8496
  436MOL0     H58817   8.780   8.358   4.938  0.7492 -0.5379 -2.8079
  436MOL0     H58818   8.713   8.157   5.033  0.2564  0.5152  3.5464
  436MOL0     H58819   8.872   8.101   5.082 -2.1310 -3.4039 -1.6768
  436MOL0     H58820   8.823   7.871   4.994  1.2393 -0.5967 -0.2148
  436MOL0     H58821   8.725   7.574   4.891 -2.5237 -2.1466 -0.0822
  436MOL0     H58822   8.719   7.656   5.039  1.1649 -1.3459  0.1518
  436MOL0     H58823   8.569   7.632   4.963 -2.1899  2.4217 -2.1535
  436MOL0     H58824   8.662   7.632   4.253  0.4555 -1.0471  0.7578
  436MOL0     H58825   8.581   7.491   4.112  1.7635 -2.5260  1.3698
  436MOL0     H58826   8.506   7.324   3.986 -4.4614  4.9755  2.3277
  436MOL0     H58827   8.559   7.214   4.118 -0.3894 -0.3558  1.2471
  436MOL0     H58828   8.360   7.070   4.076  2.1399  0.0346  0.0707
  436MOL0     H58829   8.319   7.155   3.931  0.3338  0.3631 -0.8693
  436MOL0     H58830   8.542   6.954   3.968 -1.6996 -2.9629  0.0767
  436MOL0     H58831   8.583   7.087   3.865  0.7148 -1.5511  0.4172
  436MOL0     H58832   8.318   6.941   3.847  0.7392 -0.7707 -0.1923
  436MOL0     H58833   8.379   7.039   3.716  0.0591 -1.0747 -1.5448
  436MOL0     H58834   8.404   6.818   3.661 -0.4472  0.0780  2.0154
  436MOL0     H58835   8.511   6.785   3.803 -0.4321 -1.1037 -0.9612
  436MOL0     H58836   8.574   6.962   3.565 -1.7293 -1.0870 -0.6175
  436MOL0     H58837   8.661   6.958   3.721 -0.8517  1.1819 -1.1129
  436MOL0     H58838   8.608   6.723   3.528  0.6502 -0.1195  0.4016
  436MOL0     H58839   8.678   6.710   3.692 -1.5342 -1.0222  0.2380
  436MOL0     H58840   8.814   6.890   3.501  1.0693  0.0941  1.2963
  436MOL0     H58841   8.843   6.707   3.499  0.3691 -3.3416  3.6511
  436MOL0     H58842   8.245   7.405   4.366 -0.5114  1.7360  1.4631
  436MOL0     H58843   8.344   7.550   4.541 -0.6847  1.6475 -0.5414
  436MOL0     H58844   8.624   7.921   4.550  0.4525 -0.0912 -0.3547
  436MOL0     H58845   8.717   8.116   4.673  2.6433 -0.4916  0.2883
  436MOL0     H58846   8.462   9.406   5.934  2.0299 -0.2272 -0.3011
  436MOL0     H58847   8.337   9.610   6.022 -0.7805 -0.2812 -1.5524
  436MOL0     H58848   8.445  10.125   5.962 -0.2214 -0.8638  0.2308
  436MOL0     H58849   8.377  10.366   6.041 -0.8769  1.2313  1.5690
  436MOL0     H58850   8.123  10.384   6.388 -0.4165  0.9572  0.7633
  436MOL0     H58851   8.290  10.426   6.441  0.4095  0.5597  0.0860
  436MOL0     H58852   8.114  10.636   6.299  0.9746  0.5339 -0.2231
  436MOL0     H58853   8.270  10.653   6.355 -0.6284 -0.4175 -0.3234
  436MOL0     H58854   8.193  10.592   6.595 -0.2991  2.7045  0.8719
  436MOL0     H58855   8.024  10.605   6.523 -0.2564 -2.7592 -3.9739
  436MOL0     H58856   8.227  10.837   6.500 -0.3807  1.1294  0.4321
  436MOL0     H58857   8.128  10.803   6.646  0.4523  0.6388 -0.2788
  436MOL0     H58858   7.846  10.974   6.388 -1.8412  0.0983  1.1970
  436MOL0     H58859   8.220  10.189   6.392  3.1532 -0.3289  1.1170
  436MOL0     H58860   8.294   9.958   6.323  0.2439 -2.1576 -2.2891
  437MOL0     O58861   1.127   5.405   7.557  0.1501  0.1253 -0.1067
  437MOL0     C58862   1.222   5.479   7.526 -0.1737 -0.0737 -0.3553
  437MOL0     O58863   1.211   5.605   7.484  0.0008  0.5406  0.2409
  437MOL0     C58864   1.080   5.652   7.494  0.6790 -0.0035  0.4150
  437MOL0     C58865   1.048   5.741   7.592 -0.9159  0.4191  0.8582
  437MOL0     C58866   0.916   5.788   7.598 -0.8041  0.5318 -0.1363
  437MOL0     C58867   0.816   5.763   7.505 -0.2625 -0.0473 -0.6425
  437MOL0     O58868   0.690   5.816   7.518 -0.1557 -0.2677 -0.0702
  437MOL0     C58869   0.606   5.747   7.611 -0.3508  0.4751 -0.6827
  437MOL0     C58870   0.517   5.841   7.690 -0.0923 -0.2879  0.1844
  437MOL0     C58871   0.382   5.781   7.720  0.7312  0.2355 -0.5143
  437MOL0     C58872   0.273   5.884   7.769 -0.0288 -0.1059  0.3122
  437MOL0     C58873   0.269   6.008   7.680  0.2160 -1.2659 -0.1980
  437MOL0     C58874   0.141   6.097   7.700  0.8187 -0.1240  0.2673
  437MOL0     C58875   0.132   6.140   7.848 -0.1325  0.2424 -0.7406
  437MOL0     C58876   0.016   6.220   7.884  0.0520 -0.0620 -0.6426
  437MOL0     N58877   0.006   6.342   7.808 -0.7245 -0.0430  0.8711
  437MOL0     C58878   0.093   6.453   7.819 -0.5846 -0.1194  0.4785
  437MOL0     C58879   0.047   6.534   7.719 -0.1461 -0.0206 -0.1692
  437MOL0     C58880   0.104   6.671   7.678 -0.2851  0.3001  0.2478
  437MOL0     C58881   0.157   6.642   7.539  0.4016  0.3725 -0.8432
  437MOL0     C58882   0.206   6.755   7.463  0.4158 -0.5370 -0.1410
  437MOL0     C58883   0.299   6.865   7.523  0.9454 -0.4219  0.5302
  437MOL0     O58884   0.391   6.809   7.620  0.5855 -0.2255 -0.2413
  437MOL0     C58885   0.524   6.781   7.580 -0.0428 -0.8154 -0.6474
  437MOL0     C58886   0.620   6.764   7.678 -0.4343  0.3107  0.6493
  437MOL0     C58887   0.754   6.730   7.647 -0.0992  0.1030  0.2028
  437MOL0     C58888   0.853   6.729   7.762 -0.1485  0.6369 -0.1668
  437MOL0     C58889   0.792   6.708   7.511  0.2598  0.8155 -0.9612
  437MOL0     C58890   0.929   6.683   7.460  0.6656  1.5375 -1.1698
  437MOL0     O58891   0.945   6.635   7.332  0.1554  1.0176 -0.3073
  437MOL0     C58892   1.067   6.647   7.261  0.5724  0.2231 -0.4672
  437MOL0     C58893   1.177   6.566   7.288 -0.8207 -0.2654  0.1713
  437MOL0     C58894   1.290   6.579   7.208 -0.1465 -0.6277  0.6660
  437MOL0     C58895   1.283   6.674   7.096  0.4895  0.5261  0.5173
  437MOL0     O58896   1.383   6.682   7.000  0.5316  0.3998 -0.6763
  437MOL0     C58897   1.467   6.799   6.998 -0.0799  0.8510  0.0343
  437MOL0     C58898   1.571   6.810   7.108  0.6073 -0.4528  0.2614
  437MOL0     C58899   1.685   6.703   7.078 -0.2125  0.4239 -0.0266
  437MOL0     C58900   1.804   6.723   7.180 -0.6046  0.1884  0.2882
  437MOL0     C58901   1.886   6.597   7.184  0.6235 -0.3713  0.6904
  437MOL0     C58902   1.966   6.598   7.317 -0.6488  0.3251 -1.4045
  437MOL0     C58903   2.052   6.476   7.319 -0.4104  0.9147 -0.8583
  437MOL0     C58904   1.976   6.346   7.360 -0.1616 -0.9312  0.4699
  437MOL0    Cl58905   1.920   6.271   7.219 -0.2811 -0.3291  0.3932
  437MOL0     C58906   1.176   6.764   7.075  0.2957  0.5377  0.1072
  437MOL0     C58907   1.067   6.750   7.159 -0.3414 -0.5849 -0.2984
  437MOL0     O58908   1.026   6.721   7.529  0.0127  0.0727  0.6971
  437MOL0     C58909   0.683   6.719   7.420 -0.9786  0.1092  0.5039
  437MOL0     C58910   0.558   6.761   7.457  0.3976  1.0850 -0.3607
  437MOL0     N58911  -0.069   6.483   7.662 -0.4345  0.3647  0.4716
  437MOL0     N58912  -0.086   6.368   7.714  0.6926  0.4730  0.0993
  437MOL0     C58913   0.861   5.678   7.398  0.9208  0.1493  0.7593
  437MOL0     C58914   0.986   5.615   7.391 -0.2459  0.3213 -0.5289
  437MOL0     C58915   1.365   5.428   7.532  0.1060 -0.4707  0.0281
  437MOL0     C58916   1.383   5.294   7.542 -0.1315 -0.2365  0.0664
  437MOL0     C58917   1.506   5.231   7.535 -0.1461 -0.1337  0.0883
  437MOL0     C58918   1.620   5.304   7.514 -0.0498  0.1779 -0.6387
  437MOL0     O58919   1.742   5.256   7.498  0.3603  0.1620 -0.2113
  437MOL0     C58920   1.764   5.117   7.522  0.1445 -0.0574 -0.2145
  437MOL0     C58921   1.788   5.046   7.385 -1.1989  0.3761 -0.3571
  437MOL0     C58922   1.670   5.034   7.290 -0.6904 -0.3223  0.0366
  437MOL0     C58923   1.694   4.952   7.153 -0.0902 -0.4729 -0.6118
  437MOL0     C58924   1.585   5.000   7.067  0.5933  0.8229  0.6338
  437MOL0     C58925   1.486   5.025   7.001 -0.2005  0.8165 -1.0637
  437MOL0     C58926   1.609   5.445   7.501  0.3660 -0.2544  0.3241
  437MOL0     C58927   1.477   5.513   7.509 -0.1102  0.0066 -0.4930
  437MOL0     H58928   1.126   5.775   7.659  0.8415 -2.2945  0.3470
  437MOL0     H58929   0.899   5.855   7.681 -1.0057  1.6557 -1.0620
  437MOL0     H58930   0.547   5.666   7.569 -0.6892 -0.6736  1.7913
  437MOL0     H58931   0.674   5.694   7.679 -1.2979  0.8252  0.5873
  437MOL0     H58932   0.566   5.870   7.783 -3.3063  0.9125  1.6425
  437MOL0     H58933   0.515   5.932   7.629  1.6347 -0.9811 -0.9985
  437MOL0     H58934   0.354   5.718   7.636  1.3902  0.5588 -0.9825
  437MOL0     H58935   0.391   5.719   7.810 -1.4334 -0.7905 -0.9494
  437MOL0     H58936   0.180   5.826   7.766  0.1412 -0.3153 -1.5573
  437MOL0     H58937   0.306   5.918   7.868  1.9307  0.4378 -0.4884
  437MOL0     H58938   0.359   6.066   7.702 -1.1490  1.0471 -0.3590
  437MOL0     H58939   0.272   5.978   7.575 -1.3934  3.0382 -1.7077
  437MOL0     H58940   0.138   6.173   7.622  1.9289 -2.4509 -2.2274
  437MOL0     H58941   0.057   6.029   7.681  1.2151 -0.8054  0.9130
  437MOL0     H58942   0.142   6.049   7.908  2.0322  0.4303 -0.7135
  437MOL0     H58943   0.227   6.191   7.869 -1.8614  3.6968 -0.7283
  437MOL0     H58944   0.010   6.257   7.986 -4.6713 -2.3984  0.2209
  437MOL0     H58945  -0.080   6.173   7.860 -0.2593  1.0077 -1.6474
  437MOL0     H58946   0.177   6.461   7.887 -1.6659 -0.0480  1.8476
  437MOL0     H58947   0.026   6.746   7.664  0.0844  0.4785 -1.0029
  437MOL0     H58948   0.172   6.704   7.757  2.8411  3.0509 -3.1939
  437MOL0     H58949   0.076   6.604   7.476  0.5872  0.6443 -1.2457
  437MOL0     H58950   0.238   6.569   7.543 -0.7869 -1.0276 -1.2680
  437MOL0     H58951   0.126   6.802   7.405 -0.9759 -0.7733  1.5181
  437MOL0     H58952   0.264   6.701   7.387  1.4283 -1.1994  1.0619
  437MOL0     H58953   0.242   6.940   7.578 -0.5301 -1.9669  1.1937
  437MOL0     H58954   0.335   6.912   7.431 -4.7327  2.8425 -0.4986
  437MOL0     H58955   0.616   6.804   7.779  1.9744  0.5434  0.7074
  437MOL0     H58956   0.792   6.725   7.853 -1.3004 -0.8819 -0.9452
  437MOL0     H58957   0.929   6.652   7.755  2.0881  2.4864  1.8755
  437MOL0     H58958   0.900   6.828   7.764 -0.5837  0.8437  0.3208
  437MOL0     H58959   1.179   6.491   7.367  1.9059  1.5779  2.0227
  437MOL0     H58960   1.374   6.514   7.229  0.8237  0.1211 -0.7023
  437MOL0     H58961   1.512   6.812   6.899 -1.7698  1.2274 -0.7170
  437MOL0     H58962   1.398   6.883   7.009 -1.2037  0.7590 -4.4865
  437MOL0     H58963   1.598   6.915   7.095 -3.1212  0.3864 -1.9196
  437MOL0     H58964   1.528   6.804   7.208 -0.4997 -4.2506 -0.2822
  437MOL0     H58965   1.711   6.698   6.972  0.3233 -1.4405  0.1521
  437MOL0     H58966   1.649   6.605   7.109  0.5056 -0.0415 -0.6337
  437MOL0     H58967   1.867   6.808   7.153 -2.5767  1.4319 -0.6281
  437MOL0     H58968   1.771   6.752   7.281  0.8384  1.8504  0.3270
  437MOL0     H58969   1.938   6.577   7.090  0.1798 -2.3103  0.8196
  437MOL0     H58970   1.818   6.511   7.189 -0.3985  0.4730  4.0771
  437MOL0     H58971   2.030   6.687   7.315 -1.2816  0.9133  1.2820
  437MOL0     H58972   1.902   6.610   7.405 -0.2549  1.7774 -1.2908
  437MOL0     H58973   2.124   6.484   7.401  0.1984 -1.1214 -1.1371
  437MOL0     H58974   2.109   6.472   7.226 -2.2082  3.6058 -2.2044
  437MOL0     H58975   1.899   6.344   7.438  0.4370 -0.3802  1.0870
  437MOL0     H58976   2.055   6.280   7.399  1.2263  0.8808  0.8590
  437MOL0     H58977   1.181   6.844   7.002 -2.6411 -1.2230 -2.2757
  437MOL0     H58978   0.989   6.824   7.147 -0.2387 -0.2898  0.7171
  437MOL0     H58979   0.703   6.710   7.313 -0.1181 -0.6322  0.7201
  437MOL0     H58980   0.489   6.755   7.373  3.1996  1.2267 -2.8253
  437MOL0     H58981   0.789   5.640   7.327 -1.2132 -1.4948  3.5832
  437MOL0     H58982   1.005   5.541   7.315 -1.8792 -1.6047  0.8236
  437MOL0     H58983   1.297   5.232   7.564  0.2770 -1.1354 -0.7954
  437MOL0     H58984   1.513   5.125   7.559  1.4188  0.0868  0.7052
  437MOL0     H58985   1.856   5.107   7.579 -0.4672 -1.2813  0.6052
  437MOL0     H58986   1.692   5.059   7.581  2.4366 -3.3693 -0.4264
  437MOL0     H58987   1.838   4.950   7.399  3.1458  2.1429 -2.0291
  437MOL0     H58988   1.866   5.104   7.335  1.7775 -3.8805 -1.0950
  437MOL0     H58989   1.641   5.137   7.266 -1.8300 -0.1220  2.0038
  437MOL0     H58990   1.581   5.003   7.345 -2.3278  0.4365 -2.0563
  437MOL0     H58991   1.689   4.843   7.165 -1.5456 -0.1671  3.1191
  437MOL0     H58992   1.790   4.981   7.110 -0.2280  3.0068  1.1137
  437MOL0     H58993   1.395   5.044   6.947 -0.3520  0.9603 -0.7591
  437MOL0     H58994   1.702   5.498   7.479 -0.8331  2.3537  1.1059
  437MOL0     H58995   1.482   5.621   7.499  3.8761 -0.0792 -1.1441
  438MOL0     O58996   7.962   5.283   7.679  0.3736  0.1332  0.0153
  438MOL0     C58997   8.000   5.182   7.741 -0.2288 -0.7404 -0.5375
  438MOL0     O58998   8.051   5.185   7.874  0.0036 -0.8310  0.0989
  438MOL0     C58999   8.088   5.305   7.918  0.6493 -0.2632 -0.6361
  438MOL0     C59000   8.221   5.350   7.897 -0.1018 -0.2057 -0.2317
  438MOL0     C59001   8.263   5.476   7.937 -0.4535 -0.5649  0.7568
  438MOL0     C59002   8.176   5.554   8.012 -0.1193  0.3338 -0.0803
  438MOL0     O59003   8.198   5.688   8.038 -0.1892  0.5247  1.4675
  438MOL0     C59004   8.327   5.730   8.073 -0.5346 -0.3433 -0.7483
  438MOL0     C59005   8.336   5.874   8.105 -0.8351 -0.3787  0.3188
  438MOL0     C59006   8.313   5.959   7.979  0.0642  0.0753 -0.1357
  438MOL0     C59007   8.369   6.099   7.996  0.6488 -0.4359  0.5489
  438MOL0     C59008   8.361   6.187   7.866 -0.1261 -0.3696 -0.1371
  438MOL0     C59009   8.215   6.218   7.828 -0.4693 -0.4447  0.0449
  438MOL0     C59010   8.195   6.333   7.735  0.0265  0.1057 -0.2661
  438MOL0     C59011   8.270   6.300   7.601 -0.0403  0.0424 -0.0478
  438MOL0     N59012   8.264   6.423   7.518 -0.3911 -0.4654 -0.6286
  438MOL0     C59013   8.373   6.484   7.456 -0.2003  0.3347 -0.3406
  438MOL0     C59014   8.322   6.591   7.389  0.0027  0.2779 -0.1427
  438MOL0     C59015   8.403   6.669   7.301  0.2561  1.0450  0.5724
  438MOL0     C59016   8.493   6.594   7.212 -0.0810  0.5312  0.0976
  438MOL0     C59017   8.412   6.485   7.133  0.0398 -1.4537 -0.1975
  438MOL0     C59018   8.497   6.399   7.037  0.0439  0.0531 -0.1493
  438MOL0     O59019   8.603   6.339   7.108 -0.8276  0.3796 -0.1237
  438MOL0     C59020   8.577   6.252   7.210 -0.2735 -0.3193 -0.2279
  438MOL0     C59021   8.474   6.158   7.211  0.2209  0.2799  0.8665
  438MOL0     C59022   8.445   6.073   7.321 -0.4218  0.6664 -0.0594
  438MOL0     C59023   8.321   5.990   7.313  0.4358  0.0193  0.3425
  438MOL0     C59024   8.516   6.085   7.445  1.0650 -0.1949 -0.0887
  438MOL0     C59025   8.495   5.996   7.558 -0.4838 -0.0730 -0.0264
  438MOL0     O59026   8.598   5.916   7.571 -0.9145  0.8493 -0.2669
  438MOL0     C59027   8.605   5.812   7.667  0.3176 -0.3553 -0.2175
  438MOL0     C59028   8.658   5.841   7.793 -0.2610  0.0548 -0.4333
  438MOL0     C59029   8.670   5.737   7.894  0.0347 -0.7658  0.2888
  438MOL0     C59030   8.636   5.602   7.862  0.0642  0.1482  0.4551
  438MOL0     O59031   8.641   5.497   7.956  0.4719  0.3801  0.4639
  438MOL0     C59032   8.722   5.493   8.073 -0.2554 -0.2749  0.0068
  438MOL0     C59033   8.725   5.356   8.130  0.0999  0.2923 -0.0285
  438MOL0     C59034   8.617   5.320   8.228  0.7515 -0.3131  0.6938
  438MOL0     C59035   8.485   5.332   8.162  0.6610  0.4730  0.0452
  438MOL0     C59036   8.394   5.215   8.198 -0.1614  0.5160 -0.3974
  438MOL0     C59037   8.407   5.091   8.103 -0.2118 -0.4138 -0.6468
  438MOL0     C59038   8.411   4.949   8.179  0.2406 -0.9964 -0.3958
  438MOL0     C59039   8.446   4.833   8.091 -0.1539 -1.1446 -0.4205
  438MOL0    Cl59040   8.318   4.766   7.985  0.0999  0.2156 -0.1312
  438MOL0     C59041   8.592   5.576   7.731 -0.9913  0.4038 -0.3053
  438MOL0     C59042   8.586   5.673   7.636  0.3948 -0.1226 -0.2416
  438MOL0     O59043   8.389   5.993   7.615  0.2303  0.5899  0.2115
  438MOL0     C59044   8.616   6.182   7.439 -0.4754 -0.5473  0.0681
  438MOL0     C59045   8.654   6.255   7.321  0.4173  0.2498  0.3676
  438MOL0     N59046   8.189   6.592   7.400 -0.1246  1.0538  0.6826
  438MOL0     N59047   8.153   6.491   7.477  0.8835  0.5642 -0.8653
  438MOL0     C59048   8.053   5.502   8.049  0.1154  0.6686 -0.5018
  438MOL0     C59049   8.006   5.380   8.002  0.1770  0.5850 -0.5874
  438MOL0     C59050   7.992   5.041   7.693 -0.3041 -0.5696  0.7947
  438MOL0     C59051   7.956   5.020   7.561 -0.0618  0.4025  0.3806
  438MOL0     C59052   7.952   4.894   7.509 -0.0973  0.3756  0.1206
  438MOL0     C59053   7.968   4.784   7.589  0.0976  0.4594 -0.5324
  438MOL0     O59054   7.953   4.651   7.554 -0.0470 -0.2347 -0.8747
  438MOL0     C59055   7.865   4.628   7.441  0.0401  0.2557 -0.2358
  438MOL0     C59056   7.793   4.495   7.452  0.2755 -0.3495  0.5443
  438MOL0     C59057   7.705   4.488   7.568 -0.1182  0.0830  0.2924
  438MOL0     C59058   7.578   4.578   7.554  0.1529 -0.7028 -0.1635
  438MOL0     C59059   7.495   4.522   7.454 -0.5951  0.4343 -0.1937
  438MOL0     C59060   7.428   4.486   7.361 -0.3552 -0.1011  0.0991
  438MOL0     C59061   8.019   4.799   7.719  0.8722 -0.2908  0.0254
  438MOL0     C59062   8.025   4.931   7.769  0.8129 -0.2342 -0.9217
  438MOL0     H59063   8.293   5.298   7.834  1.8370 -1.6659  2.9363
  438MOL0     H59064   8.362   5.506   7.903 -0.4020  0.1221  1.4829
  438MOL0     H59065   8.359   5.674   8.162  0.3144 -4.3139 -3.2935
  438MOL0     H59066   8.404   5.707   7.999  2.9882  0.4399  2.3218
  438MOL0     H59067   8.262   5.898   8.182  0.7117  2.1510  1.1591
  438MOL0     H59068   8.440   5.894   8.133 -0.4899 -0.3838 -0.9095
  438MOL0     H59069   8.367   5.908   7.900  0.2358  0.0933 -0.0299
  438MOL0     H59070   8.207   5.973   7.955 -0.2027 -1.8177 -0.1682
  438MOL0     H59071   8.338   6.152   8.086  1.3263  0.5951  0.1939
  438MOL0     H59072   8.478   6.099   8.012  0.3045 -1.0568  3.3604
  438MOL0     H59073   8.405   6.287   7.871 -2.6985  1.0651 -2.7965
  438MOL0     H59074   8.421   6.142   7.787  0.8052 -1.0981  0.9520
  438MOL0     H59075   8.166   6.133   7.780 -0.4010 -0.7732  0.5534
  438MOL0     H59076   8.152   6.243   7.914 -1.3853  1.4081 -1.0942
  438MOL0     H59077   8.088   6.347   7.714  0.0955  1.7966  0.3238
  438MOL0     H59078   8.229   6.427   7.780  0.2193  1.1153 -2.4070
  438MOL0     H59079   8.215   6.224   7.544 -0.1296  0.5424 -0.6384
  438MOL0     H59080   8.374   6.275   7.626  0.0338  2.8217  3.1758
  438MOL0     H59081   8.480   6.464   7.462 -0.3092  0.1130  2.0563
  438MOL0     H59082   8.347   6.725   7.226  2.1045  0.7212 -1.1473
  438MOL0     H59083   8.458   6.750   7.350 -0.6786  2.7032 -0.9985
  438MOL0     H59084   8.571   6.551   7.275  2.5575  0.0891 -3.1762
  438MOL0     H59085   8.544   6.652   7.134  1.3785 -1.7910 -0.8073
  438MOL0     H59086   8.335   6.538   7.078  1.6154  1.6371  0.3800
  438MOL0     H59087   8.373   6.416   7.209  0.9319 -0.4766  1.1922
  438MOL0     H59088   8.537   6.467   6.961 -0.3534 -2.2084 -2.5169
  438MOL0     H59089   8.434   6.329   6.983  0.8518 -0.4471 -0.4587
  438MOL0     H59090   8.410   6.149   7.124  3.4346  0.2595 -1.6523
  438MOL0     H59091   8.337   5.884   7.334 -0.8927 -0.5312 -1.2069
  438MOL0     H59092   8.243   6.023   7.383  0.5275 -3.2126  2.1683
  438MOL0     H59093   8.272   5.990   7.215  0.5786 -0.2759  0.2705
  438MOL0     H59094   8.701   5.941   7.798  2.6465 -0.9668 -2.3370
  438MOL0     H59095   8.711   5.772   7.988  0.7725 -0.3135 -0.1976
  438MOL0     H59096   8.816   5.529   8.029  1.2374 -1.6371  1.9004
  438MOL0     H59097   8.688   5.575   8.136  2.4368  1.3759 -0.5239
  438MOL0     H59098   8.714   5.279   8.054 -1.8088 -1.8577  2.2479
  438MOL0     H59099   8.809   5.330   8.195 -0.1839 -2.3161 -0.5707
  438MOL0     H59100   8.617   5.390   8.313 -0.5535  0.1413  0.3417
  438MOL0     H59101   8.642   5.220   8.264 -1.3332 -0.8459  0.7614
  438MOL0     H59102   8.429   5.426   8.171 -0.2861 -0.1131  0.3941
  438MOL0     H59103   8.488   5.318   8.053 -3.7319 -2.4478  0.0343
  438MOL0     H59104   8.291   5.246   8.219 -0.1219  0.7076 -0.4817
  438MOL0     H59105   8.417   5.184   8.300 -4.9479  0.9120  1.0470
  438MOL0     H59106   8.328   5.088   8.027  0.3847 -0.3673 -1.2807
  438MOL0     H59107   8.493   5.102   8.037 -0.7884 -1.0841 -1.5302
  438MOL0     H59108   8.316   4.936   8.232  0.3720  1.1814  0.4688
  438MOL0     H59109   8.486   4.941   8.258 -2.3036 -5.1478  1.9787
  438MOL0     H59110   8.472   4.755   8.164 -5.1101  0.9254  4.2440
  438MOL0     H59111   8.526   4.855   8.020 -1.7540 -3.3593 -3.1605
  438MOL0     H59112   8.565   5.471   7.717 -1.1222 -0.0345  2.5161
  438MOL0     H59113   8.549   5.662   7.534  0.6539  0.8443 -0.4492
  438MOL0     H59114   8.671   6.195   7.532  1.4508 -2.7311 -0.6832
  438MOL0     H59115   8.746   6.312   7.309 -0.2876  1.2081 -0.6785
  438MOL0     H59116   7.983   5.572   8.094  1.2351  2.0072 -0.7678
  438MOL0     H59117   7.915   5.328   8.029  0.7919  0.2357  0.9282
  438MOL0     H59118   7.939   5.107   7.497 -0.8142  0.7915  1.0916
  438MOL0     H59119   7.921   4.885   7.405 -2.9893  0.4353  0.8951
  438MOL0     H59120   7.783   4.698   7.421 -2.6337 -1.8275  2.3624
  438MOL0     H59121   7.915   4.620   7.344 -0.7533 -2.1770 -0.5262
  438MOL0     H59122   7.869   4.417   7.458 -0.1016 -0.6975  0.8588
  438MOL0     H59123   7.741   4.471   7.359  1.9084 -0.7523 -0.3081
  438MOL0     H59124   7.767   4.502   7.658  2.2176  0.7530 -1.3130
  438MOL0     H59125   7.668   4.386   7.583 -0.2276  0.0607 -0.1119
  438MOL0     H59126   7.603   4.682   7.531  1.6700 -0.6159  1.5911
  438MOL0     H59127   7.534   4.585   7.654  1.3672 -0.8909  0.4003
  438MOL0     H59128   7.369   4.451   7.280 -2.2672  1.7496  0.6029
  438MOL0     H59129   8.031   4.714   7.785  2.2749 -0.1728 -0.0468
  438MOL0     H59130   8.045   4.942   7.875 -0.4964  2.8169 -0.8893
  439MOL0     O59131   2.362   6.398   6.360  0.0702  0.4640  0.1755
  439MOL0     C59132   2.279   6.443   6.280  0.5725  0.7644  0.2971
  439MOL0     O59133   2.250   6.577   6.265  0.4223  0.1382 -0.0929
  439MOL0     C59134   2.325   6.662   6.343 -0.3256  0.0119 -0.8521
  439MOL0     C59135   2.264   6.752   6.428 -0.7466  0.0010  0.0765
  439MOL0     C59136   2.336   6.844   6.493 -0.9682  0.0806 -0.3563
  439MOL0     C59137   2.473   6.850   6.480 -0.9087  1.0276  0.4452
  439MOL0     O59138   2.535   6.953   6.544 -0.1751 -0.0277 -0.3805
  439MOL0     C59139   2.591   7.052   6.456  0.3469 -0.1939  0.2290
  439MOL0     C59140   2.616   7.195   6.524 -0.3205 -0.5680 -0.3352
  439MOL0     C59141   2.495   7.242   6.608  0.4250 -0.7611  0.2000
  439MOL0     C59142   2.522   7.380   6.648 -0.5741 -0.8866  0.9638
  439MOL0     C59143   2.390   7.447   6.705  0.9276  0.2762 -0.7205
  439MOL0     C59144   2.419   7.594   6.742 -0.7636 -1.0828  0.0610
  439MOL0     C59145   2.302   7.642   6.830 -0.6061 -0.8746  0.1004
  439MOL0     C59146   2.325   7.781   6.878 -0.1383  0.0903 -0.0122
  439MOL0     N59147   2.316   7.883   6.772 -0.0416 -0.9756  0.6018
  439MOL0     C59148   2.219   7.925   6.683 -0.4235 -0.3016 -0.1362
  439MOL0     C59149   2.281   8.010   6.593 -0.1773 -0.2878  0.3164
  439MOL0     C59150   2.211   8.094   6.491  0.5029  0.1654  0.5405
  439MOL0     C59151   2.113   8.015   6.398 -0.7850  0.0235  0.2113
  439MOL0     C59152   2.180   7.947   6.281  0.5964  0.3876 -1.0098
  439MOL0     C59153   2.088   7.876   6.189  0.4821 -0.2074  0.0457
  439MOL0     O59154   2.029   7.753   6.250 -0.9585 -0.7826 -0.1890
  439MOL0     C59155   1.921   7.690   6.192 -0.9306  1.2611 -0.0739
  439MOL0     C59156   1.882   7.559   6.224 -0.8485  0.0186  0.5638
  439MOL0     C59157   1.759   7.498   6.183  0.0352 -0.7053 -0.4228
  439MOL0     C59158   1.738   7.348   6.220  0.6160 -1.0297  1.5720
  439MOL0     C59159   1.676   7.569   6.083  0.0226  0.1759 -0.4642
  439MOL0     C59160   1.554   7.509   6.028 -0.1473 -0.1773 -0.3956
  439MOL0     O59161   1.485   7.429   6.113  0.2356 -0.1153  0.0499
  439MOL0     C59162   1.364   7.386   6.049  0.2746 -1.3497 -0.0016
  439MOL0     C59163   1.348   7.285   5.949  0.0498  0.3009  0.3553
  439MOL0     C59164   1.222   7.259   5.900 -0.5901 -0.5470  0.3204
  439MOL0     C59165   1.109   7.327   5.948 -0.6291 -0.3957  0.4289
  439MOL0     O59166   0.985   7.293   5.907  0.3778 -0.2659 -0.1183
  439MOL0     C59167   0.884   7.279   6.008  0.1879  0.7513 -0.3135
  439MOL0     C59168   0.760   7.242   5.935 -0.3284  0.9399 -0.1583
  439MOL0     C59169   0.729   7.083   5.929 -0.4036 -0.8347 -0.0132
  439MOL0     C59170   0.845   7.005   5.874 -0.2672 -0.0120 -0.5137
  439MOL0     C59171   0.837   6.850   5.891  0.3029  0.4320 -0.9062
  439MOL0     C59172   0.710   6.783   5.838 -0.6772 -0.9948  0.2490
  439MOL0     C59173   0.692   6.806   5.692 -0.1718 -0.1383 -0.4842
  439MOL0     C59174   0.788   6.737   5.594 -0.4728  0.2785  0.7749
  439MOL0    Cl59175   0.745   6.792   5.427 -0.5065  0.0378  0.1065
  439MOL0     C59176   1.122   7.433   6.041 -0.3438  0.2016 -0.0072
  439MOL0     C59177   1.249   7.455   6.092  0.2340 -0.6148  0.1007
  439MOL0     O59178   1.524   7.547   5.916  0.4871 -0.1149 -0.4678
  439MOL0     C59179   1.729   7.695   6.042 -0.3660  0.5781 -0.1600
  439MOL0     C59180   1.836   7.753   6.097 -0.0389  0.3149  0.1951
  439MOL0     N59181   2.413   8.036   6.635  0.1549 -0.5044  0.5439
  439MOL0     N59182   2.431   7.957   6.738 -0.8995  0.0794  0.9949
  439MOL0     C59183   2.544   6.767   6.391 -0.5374  0.3651  0.9017
  439MOL0     C59184   2.468   6.677   6.320  0.3326  0.9980 -0.1710
  439MOL0     C59185   2.194   6.352   6.210  0.2837  0.3508 -0.0022
  439MOL0     C59186   2.068   6.387   6.166 -0.4694 -0.6320  0.1694
  439MOL0     C59187   1.989   6.300   6.087  0.1745 -0.1245  0.9863
  439MOL0     C59188   2.031   6.165   6.049  0.8628  0.7198 -0.0493
  439MOL0     O59189   1.953   6.067   5.987 -0.0286  0.0188 -0.0026
  439MOL0     C59190   1.817   6.093   5.949  0.7505  0.4885  0.4232
  439MOL0     C59191   1.742   5.970   5.882  0.0789 -0.2220  0.5762
  439MOL0     C59192   1.739   5.840   5.957  0.0012  0.5165 -0.1988
  439MOL0     C59193   1.604   5.787   5.997 -0.2913  0.3331 -0.4682
  439MOL0     C59194   1.620   5.662   6.077 -0.5053 -0.4473  0.4179
  439MOL0     C59195   1.626   5.551   6.127  0.2013 -0.3297 -0.2844
  439MOL0     C59196   2.160   6.133   6.090 -0.2860  0.0827 -0.3933
  439MOL0     C59197   2.239   6.228   6.165  0.0387  0.5072 -0.4326
  439MOL0     H59198   2.158   6.756   6.448 -0.7099  0.1612  0.2463
  439MOL0     H59199   2.286   6.922   6.549  2.7127  2.2847  0.2287
  439MOL0     H59200   2.684   7.015   6.412 -0.0163  0.3398 -1.0423
  439MOL0     H59201   2.523   7.069   6.372  0.4299  1.5379  0.4719
  439MOL0     H59202   2.711   7.187   6.578  0.2158  0.2173 -1.1327
  439MOL0     H59203   2.631   7.278   6.455 -3.0754  1.9485  1.8491
  439MOL0     H59204   2.406   7.239   6.545 -0.3948 -3.1403  1.3778
  439MOL0     H59205   2.475   7.176   6.692 -5.1711 -1.4664 -1.2971
  439MOL0     H59206   2.612   7.382   6.709  0.6569  0.0778 -0.7918
  439MOL0     H59207   2.550   7.445   6.564 -3.2921  3.0080  2.7463
  439MOL0     H59208   2.308   7.453   6.633 -1.8691  2.8462  2.3655
  439MOL0     H59209   2.352   7.384   6.787 -0.5501 -1.9822 -2.9801
  439MOL0     H59210   2.514   7.588   6.796 -0.4589  3.9731  0.5537
  439MOL0     H59211   2.431   7.660   6.656 -0.8525 -0.2195  0.7022
  439MOL0     H59212   2.212   7.642   6.768  0.8417 -1.2221 -2.1019
  439MOL0     H59213   2.294   7.569   6.912 -1.3134 -0.1529  0.6860
  439MOL0     H59214   2.422   7.787   6.927 -0.2206  0.2804  0.1295
  439MOL0     H59215   2.250   7.804   6.955  1.0869  0.8216  1.0079
  439MOL0     H59216   2.117   7.889   6.676 -2.1675  4.1478 -0.8706
  439MOL0     H59217   2.157   8.163   6.556 -1.6438  0.5301 -1.4764
  439MOL0     H59218   2.280   8.157   6.434  1.6762 -1.6001 -0.0606
  439MOL0     H59219   2.048   8.092   6.357  1.7102  1.9125 -0.4464
  439MOL0     H59220   2.053   7.944   6.457  1.1582 -2.7102 -0.9102
  439MOL0     H59221   2.241   7.862   6.315  0.9007  2.0275  3.2466
  439MOL0     H59222   2.239   8.029   6.241 -0.3419  2.4142  1.4990
  439MOL0     H59223   2.140   7.880   6.093 -0.2204  2.9694 -0.3080
  439MOL0     H59224   2.003   7.944   6.176 -0.7427 -1.8708 -1.1103
  439MOL0     H59225   1.941   7.500   6.293 -2.8385 -0.4441  1.9773
  439MOL0     H59226   1.645   7.351   6.277 -0.1465  3.0547  0.4815
  439MOL0     H59227   1.736   7.285   6.130  3.2207  0.6746  0.1821
  439MOL0     H59228   1.823   7.300   6.269  2.5164  2.0799  1.5938
  439MOL0     H59229   1.434   7.225   5.924  1.8662  0.5738  4.9707
  439MOL0     H59230   1.205   7.185   5.822 -0.1410  0.1373 -0.4503
  439MOL0     H59231   0.909   7.192   6.071 -2.4506  0.8482  0.9925
  439MOL0     H59232   0.877   7.369   6.070  2.4897  1.8136 -1.4537
  439MOL0     H59233   0.677   7.301   5.978  0.0038  1.2615  0.0502
  439MOL0     H59234   0.762   7.269   5.829  1.1657 -3.6737 -1.4943
  439MOL0     H59235   0.634   7.072   5.875  0.4437  0.1280 -1.8135
  439MOL0     H59236   0.707   7.054   6.032 -5.0517  2.4391  0.2393
  439MOL0     H59237   0.854   7.024   5.767  0.1361 -0.0389 -0.4854
  439MOL0     H59238   0.935   7.033   5.929  0.2724  0.2675 -1.5185
  439MOL0     H59239   0.847   6.826   5.997 -2.6051 -1.2989 -0.9003
  439MOL0     H59240   0.927   6.804   5.849  1.0046  1.5434 -0.6492
  439MOL0     H59241   0.708   6.674   5.850  1.5923 -1.1831 -0.6629
  439MOL0     H59242   0.626   6.835   5.886  1.1718  2.2347  0.2645
  439MOL0     H59243   0.686   6.915   5.681 -0.1579 -0.3447 -3.2910
  439MOL0     H59244   0.591   6.781   5.659 -0.1321 -0.5612 -0.2932
  439MOL0     H59245   0.761   6.632   5.604 -0.1205  0.3807  4.7647
  439MOL0     H59246   0.894   6.752   5.617  0.2553 -0.0008 -2.0394
  439MOL0     H59247   1.044   7.503   6.067  0.7512  0.8776  1.7039
  439MOL0     H59248   1.266   7.528   6.171 -0.5098  0.5768 -0.8163
  439MOL0     H59249   1.684   7.738   5.953 -0.0431  0.8304 -0.2059
  439MOL0     H59250   1.874   7.842   6.046 -0.6310 -0.7700 -2.2949
  439MOL0     H59251   2.648   6.790   6.370 -0.0986 -1.1489  1.3120
  439MOL0     H59252   2.514   6.605   6.254  0.9847  3.6344 -2.7826
  439MOL0     H59253   2.024   6.483   6.191  1.0471 -0.5483  3.0059
  439MOL0     H59254   1.900   6.333   6.034  1.1485  1.0724  0.0552
  439MOL0     H59255   1.757   6.134   6.030 -1.7330 -2.5008  0.2710
  439MOL0     H59256   1.828   6.167   5.869  0.2571 -0.9195 -0.9954
  439MOL0     H59257   1.779   5.938   5.784  2.0731 -2.6190  2.0049
  439MOL0     H59258   1.643   6.005   5.850 -0.8011 -1.9170  1.3331
  439MOL0     H59259   1.813   5.848   6.037  1.7182 -1.4765 -1.4862
  439MOL0     H59260   1.791   5.768   5.893 -1.6791 -4.5111  3.4792
  439MOL0     H59261   1.551   5.766   5.904  1.5321 -4.0535 -0.7960
  439MOL0     H59262   1.542   5.856   6.054 -0.5185 -0.6834  0.5490
  439MOL0     H59263   1.624   5.462   6.185 -2.7241  1.9018  3.4918
  439MOL0     H59264   2.186   6.034   6.054 -1.3164 -0.0901 -0.7077
  439MOL0     H59265   2.340   6.203   6.194  0.0794 -0.4770 -1.3166
  440MOL0     O59266   2.992   8.269  10.617  0.2212 -0.0390  0.2775
  440MOL0     C59267   2.898   8.324  10.674  1.0993 -0.2986 -0.5306
  440MOL0     O59268   2.896   8.376  10.801 -0.2201  0.4601 -0.3976
  440MOL0     C59269   3.008   8.372  10.880  0.1836 -0.6013 -0.0859
  440MOL0     C59270   3.034   8.494  10.951  1.0161 -0.8110  0.2082
  440MOL0     C59271   3.149   8.505  11.033 -0.5556  0.4213  0.4238
  440MOL0     C59272   3.228   8.403  11.063 -0.0838 -0.8240 -0.0896
  440MOL0     O59273   3.340   8.426  11.141  0.5506 -0.6802 -0.0153
  440MOL0     C59274   3.386   8.313  11.221  0.3366  0.1890 -0.2498
  440MOL0     C59275   3.267   8.269  11.320 -0.2793 -0.2829  0.7909
  440MOL0     C59276   3.298   8.144  11.406  0.6392  0.2912 -0.5453
  440MOL0     C59277   3.274   8.167  11.555 -0.3516 -0.3628  0.2782
  440MOL0     C59278   3.356   8.082  11.652 -0.1875 -0.1000 -0.9222
  440MOL0     C59279   3.346   8.124  11.796  0.3522  0.7472  0.9378
  440MOL0     C59280   3.442   8.044  11.885  0.1370  0.2211  0.5309
  440MOL0     C59281   3.591   8.056  11.860 -0.0800  0.0421  0.1142
  440MOL0     N59282   3.656   8.178  11.906  0.7197 -0.1374 -0.2868
  440MOL0     C59283   3.621   8.306  11.871  0.2000  0.2679  0.6804
  440MOL0     C59284   3.714   8.391  11.919  0.2848  1.0105 -0.6559
  440MOL0     C59285   3.698   8.538  11.925 -0.0880  0.1931 -0.4845
  440MOL0     C59286   3.691   8.606  11.785  0.0899  0.2738  0.3908
  440MOL0     C59287   3.744   8.748  11.775  0.8742  0.3542 -0.2192
  440MOL0     C59288   3.876   8.764  11.692  0.1167  0.1363  1.0399
  440MOL0     O59289   3.933   8.893  11.697  0.1252 -0.1909 -0.6462
  440MOL0     C59290   3.885   8.985  11.615 -0.0654 -0.2951  0.0984
  440MOL0     C59291   3.959   9.105  11.607 -0.0309  0.3623  0.6605
  440MOL0     C59292   3.919   9.215  11.523 -0.1905  0.6508  0.1722
  440MOL0     C59293   3.988   9.345  11.535  0.1523 -0.2657 -0.8050
  440MOL0     C59294   3.812   9.193  11.437  0.8597 -0.3347  0.6572
  440MOL0     C59295   3.750   9.289  11.334 -0.0969 -0.2381  0.0314
  440MOL0     O59296   3.685   9.232  11.233 -0.6037 -0.1587 -1.0410
  440MOL0     C59297   3.638   9.316  11.134 -1.0114 -0.0247 -0.3099
  440MOL0     C59298   3.504   9.333  11.113  0.0908 -0.6374  0.1638
  440MOL0     C59299   3.456   9.416  11.009 -0.3211 -0.9128 -0.4077
  440MOL0     C59300   3.543   9.474  10.917 -1.3413 -0.3283 -0.7283
  440MOL0     O59301   3.489   9.558  10.822 -0.3558 -0.7724 -0.3865
  440MOL0     C59302   3.546   9.584  10.695 -0.1659  0.3785 -0.4327
  440MOL0     C59303   3.446   9.663  10.607 -0.1219  0.5996  0.1036
  440MOL0     C59304   3.504   9.720  10.468  0.1196  0.2384 -0.9927
  440MOL0     C59305   3.654   9.734  10.466  1.0402  0.5810  0.6801
  440MOL0     C59306   3.698   9.798  10.330 -0.0186  0.6177 -1.1248
  440MOL0     C59307   3.853   9.807  10.319  1.1746 -0.1267 -0.6097
  440MOL0     C59308   3.901   9.671  10.274  0.0637  0.3397  0.2437
  440MOL0     C59309   4.035   9.693  10.201  0.2047 -0.0643  0.6933
  440MOL0    Cl59310   4.166   9.782  10.285  0.0575  0.5438 -0.1702
  440MOL0     C59311   3.683   9.448  10.930  0.5705  0.8167  1.1819
  440MOL0     C59312   3.720   9.369  11.035 -0.5218 -0.0899 -0.8481
  440MOL0     O59313   3.771   9.406  11.340  0.1051  0.3976 -0.1343
  440MOL0     C59314   3.739   9.072  11.435 -0.6515  1.0614 -1.3567
  440MOL0     C59315   3.787   8.968  11.520 -0.0949 -0.3106  0.4013
  440MOL0     N59316   3.802   8.323  11.993  0.9182 -0.0477  0.8447
  440MOL0     N59317   3.764   8.201  11.986  0.3802  0.3146  0.1501
  440MOL0     C59318   3.192   8.281  11.002  0.3077  1.3345  0.4007
  440MOL0     C59319   3.077   8.264  10.920 -0.0395 -0.1448 -0.4670
  440MOL0     C59320   2.782   8.333  10.593 -0.8296  1.6241  0.6088
  440MOL0     C59321   2.654   8.355  10.652  0.7624  0.0692 -0.6525
  440MOL0     C59322   2.544   8.386  10.578  0.0918 -0.2064 -0.1673
  440MOL0     C59323   2.548   8.372  10.434 -0.1486 -0.8963 -0.4479
  440MOL0     O59324   2.444   8.412  10.351  0.3845 -0.1227  0.9005
  440MOL0     C59325   2.346   8.508  10.404  0.3106  0.1550  1.0117
  440MOL0     C59326   2.214   8.454  10.474 -0.4185 -0.3903 -0.1131
  440MOL0     C59327   2.108   8.407  10.378  0.3917 -0.0198  0.0266
  440MOL0     C59328   1.968   8.361  10.431 -0.9624 -0.2373 -0.6162
  440MOL0     C59329   1.914   8.458  10.528 -0.3734  0.0023  0.6030
  440MOL0     C59330   1.876   8.552  10.593  0.1146  0.4748  0.1089
  440MOL0     C59331   2.670   8.318  10.379 -0.0086  0.1911  0.2907
  440MOL0     C59332   2.785   8.312  10.455  0.1862 -1.2587  1.1824
  440MOL0     H59333   2.970   8.581  10.945 -0.5032 -1.8750  0.3429
  440MOL0     H59334   3.179   8.595  11.086  0.1811 -0.0588  0.8421
  440MOL0     H59335   3.410   8.227  11.159 -2.3788 -1.8391  1.2781
  440MOL0     H59336   3.473   8.340  11.282 -2.2595  2.2690  2.9281
  440MOL0     H59337   3.242   8.357  11.380  0.2524  0.3746  0.0804
  440MOL0     H59338   3.175   8.247  11.266 -0.6047 -2.6857  2.2082
  440MOL0     H59339   3.229   8.064  11.376 -0.5609  0.9635  0.3374
  440MOL0     H59340   3.392   8.097  11.376 -1.4732 -1.6483 -5.1200
  440MOL0     H59341   3.306   8.270  11.575 -2.4533  0.8062 -1.6902
  440MOL0     H59342   3.165   8.172  11.570 -0.3856 -0.2708  0.0221
  440MOL0     H59343   3.331   7.976  11.645 -0.4895 -0.4328  3.1119
  440MOL0     H59344   3.461   8.099  11.626  0.6526 -1.2899  1.4476
  440MOL0     H59345   3.356   8.232  11.809 -2.2885  0.8748  2.7916
  440MOL0     H59346   3.242   8.104  11.825  0.1134  0.1862 -0.2208
  440MOL0     H59347   3.427   8.072  11.990 -0.2965  0.2078  0.4764
  440MOL0     H59348   3.408   7.940  11.895 -1.7566  0.8330  0.8559
  440MOL0     H59349   3.612   8.031  11.756  0.9648 -2.1676  0.7924
  440MOL0     H59350   3.632   7.973  11.919 -0.3003 -0.4883 -0.4625
  440MOL0     H59351   3.549   8.351  11.804 -1.5844 -0.7773  1.8392
  440MOL0     H59352   3.609   8.564  11.982 -1.8155 -2.8195 -1.5645
  440MOL0     H59353   3.793   8.567  11.971  0.4221  0.2320 -1.5292
  440MOL0     H59354   3.587   8.616  11.751  0.3181 -1.5721 -0.9694
  440MOL0     H59355   3.748   8.548  11.712  1.2898  2.9196 -0.9110
  440MOL0     H59356   3.773   8.783  11.875 -2.5634  0.1730  0.9789
  440MOL0     H59357   3.660   8.815  11.758  0.0256  0.2104  2.8151
  440MOL0     H59358   3.855   8.739  11.588  0.9415  2.2672  0.3220
  440MOL0     H59359   3.951   8.699  11.739  2.1059 -0.6102 -2.7801
  440MOL0     H59360   4.053   9.118  11.660  1.3786 -0.5470 -1.4503
  440MOL0     H59361   4.090   9.329  11.569  0.5620  2.1409 -0.7849
  440MOL0     H59362   3.997   9.398  11.440  0.7081  1.1710  0.0234
  440MOL0     H59363   3.944   9.415  11.607  2.4326  0.1045  0.3251
  440MOL0     H59364   3.438   9.282  11.183 -0.7410  0.8967  0.5304
  440MOL0     H59365   3.348   9.429  11.003 -0.2495  1.2377  1.6064
  440MOL0     H59366   3.639   9.638  10.715 -0.4770 -0.4744  4.9184
  440MOL0     H59367   3.581   9.491  10.649  2.4446  1.4270 -0.7367
  440MOL0     H59368   3.377   9.587  10.570 -1.6527  1.7724  0.4301
  440MOL0     H59369   3.389   9.738  10.662 -1.6758  1.7434 -2.8575
  440MOL0     H59370   3.453   9.816  10.463 -1.6542 -0.5157  0.7802
  440MOL0     H59371   3.478   9.666  10.377  1.7668  1.4099 -2.2032
  440MOL0     H59372   3.682   9.786  10.558 -0.9135 -1.2104  2.4047
  440MOL0     H59373   3.693   9.632  10.471 -0.1833  0.1514  2.1501
  440MOL0     H59374   3.645   9.893  10.341 -3.1537 -1.2136  0.9505
  440MOL0     H59375   3.659   9.735  10.250  3.1314 -1.1845 -1.4426
  440MOL0     H59376   3.891   9.877  10.245  2.0896 -0.5142 -0.5158
  440MOL0     H59377   3.895   9.821  10.419  3.7274 -0.2351 -1.6052
  440MOL0     H59378   3.831   9.624  10.204  0.0418  2.2865 -1.1004
  440MOL0     H59379   3.899   9.603  10.359  0.3292 -0.5474 -0.4391
  440MOL0     H59380   4.025   9.759  10.115  3.5246 -1.2951 -0.7863
  440MOL0     H59381   4.086   9.603  10.164  1.0448  1.5569 -2.3945
  440MOL0     H59382   3.762   9.476  10.861 -0.3370  1.8321  0.5260
  440MOL0     H59383   3.829   9.359  11.034 -0.4761 -1.5194  3.0723
  440MOL0     H59384   3.653   9.047  11.374 -0.1538 -0.0662 -1.6316
  440MOL0     H59385   3.721   8.881  11.514  1.8001 -1.8239  0.6902
  440MOL0     H59386   3.245   8.187  11.018 -1.5359  0.3974  1.3047
  440MOL0     H59387   3.039   8.174  10.872 -1.0066  0.3141 -0.5940
  440MOL0     H59388   2.650   8.357  10.760  2.3446  1.1429 -0.5790
  440MOL0     H59389   2.458   8.407  10.641  1.9121 -1.9553  3.2473
  440MOL0     H59390   2.383   8.571  10.486 -1.0788  2.6151 -0.1289
  440MOL0     H59391   2.315   8.582  10.330  0.4004  1.5722  2.3263
  440MOL0     H59392   2.162   8.529  10.535  1.4168  0.5043  0.4135
  440MOL0     H59393   2.243   8.373  10.541  0.5774  3.3306  4.5247
  440MOL0     H59394   2.158   8.333  10.316 -0.0276  0.7481 -1.2826
  440MOL0     H59395   2.096   8.489  10.307  0.9826  0.0663  0.0245
  440MOL0     H59396   1.970   8.268  10.488 -1.4260  2.4505  4.4090
  440MOL0     H59397   1.899   8.369  10.347 -1.0481 -1.2241 -0.6487
  440MOL0     H59398   1.846   8.629  10.663 -0.8461  1.2552 -1.1281
  440MOL0     H59399   2.654   8.285  10.277 -0.0278  0.5543  0.1740
  440MOL0     H59400   2.876   8.277  10.408  0.2713 -1.4417  1.4823
  441MOL0     O59401   4.282   5.734   5.442  0.8491 -0.3073 -0.0173
  441MOL0     C59402   4.340   5.751   5.551  0.3901 -0.5024  0.2337
  441MOL0     O59403   4.278   5.769   5.675 -0.2294 -0.6100 -0.2057
  441MOL0     C59404   4.139   5.782   5.679  0.0014  0.2702 -0.0850
  441MOL0     C59405   4.078   5.882   5.605  0.7196 -0.1224 -0.0479
  441MOL0     C59406   3.934   5.897   5.622  0.2681  1.0346  0.4888
  441MOL0     C59407   3.860   5.811   5.708 -0.3762 -0.0422  0.6747
  441MOL0     O59408   3.724   5.836   5.724  0.7921 -0.2186 -0.5703
  441MOL0     C59409   3.669   5.796   5.854 -0.4706 -0.0118 -0.0391
  441MOL0     C59410   3.531   5.869   5.866 -0.1813  0.9776 -0.6386
  441MOL0     C59411   3.539   6.003   5.939 -0.8049  0.1202  0.7141
  441MOL0     C59412   3.554   6.120   5.835 -0.6558  0.1396 -0.3567
  441MOL0     C59413   3.529   6.250   5.914 -0.3854  0.2458  0.1579
  441MOL0     C59414   3.631   6.303   6.013 -0.1685 -0.9453 -0.3428
  441MOL0     C59415   3.775   6.309   5.956  0.4221  0.3186  0.9536
  441MOL0     C59416   3.870   6.360   6.058 -0.2505 -0.2569 -0.1773
  441MOL0     N59417   3.852   6.495   6.110  0.2766  0.1697  0.4361
  441MOL0     C59418   3.892   6.606   6.049  0.4096 -0.2040 -0.1589
  441MOL0     C59419   3.859   6.707   6.133  0.3231  0.1926 -0.5875
  441MOL0     C59420   3.897   6.846   6.110 -0.3478  0.4585 -0.6522
  441MOL0     C59421   3.766   6.917   6.065  0.1795 -0.5969  0.5795
  441MOL0     C59422   3.726   7.033   6.163  0.0232  0.5241  0.1083
  441MOL0     C59423   3.591   7.087   6.107 -0.5565  0.5442 -0.3966
  441MOL0     O59424   3.566   7.211   6.164  0.5099  0.3415 -1.0750
  441MOL0     C59425   3.581   7.320   6.088 -0.5193 -0.4210  0.0315
  441MOL0     C59426   3.659   7.423   6.142 -0.1025  0.6931  0.2343
  441MOL0     C59427   3.692   7.537   6.067  0.5023 -0.4584  0.0572
  441MOL0     C59428   3.793   7.635   6.125 -0.8595 -0.6093  0.1151
  441MOL0     C59429   3.628   7.558   5.936  0.3127 -0.3909  0.3766
  441MOL0     C59430   3.644   7.683   5.850 -0.6325  0.1437  1.1542
  441MOL0     O59431   3.531   7.720   5.769  0.0098  0.0115  0.2997
  441MOL0     C59432   3.546   7.839   5.709  0.1953 -0.3844  0.1313
  441MOL0     C59433   3.509   7.840   5.570 -0.7840  0.3317 -0.7255
  441MOL0     C59434   3.501   7.959   5.496  0.0549  0.1029  0.4556
  441MOL0     C59435   3.538   8.078   5.555 -1.0118  0.7149  0.2821
  441MOL0     O59436   3.547   8.187   5.473 -0.0548  0.4639  0.5398
  441MOL0     C59437   3.605   8.318   5.507  0.2959 -0.1027  0.2756
  441MOL0     C59438   3.594   8.413   5.385  0.2768 -0.3855  0.7903
  441MOL0     C59439   3.674   8.550   5.400  0.1173  0.3048 -0.0676
  441MOL0     C59440   3.622   8.651   5.300 -0.4260 -0.6372  0.5173
  441MOL0     C59441   3.699   8.784   5.316 -0.1499  0.0445  0.1842
  441MOL0     C59442   3.662   8.874   5.194 -0.2742 -0.6395  0.1563
  441MOL0     C59443   3.731   9.011   5.206  0.2709 -0.3470  0.2709
  441MOL0     C59444   3.680   9.110   5.105 -0.4145 -0.5975  0.0737
  441MOL0    Cl59445   3.741   9.282   5.128 -0.6335 -0.0274  0.2143
  441MOL0     C59446   3.577   8.080   5.691 -0.2346  0.3882  0.4139
  441MOL0     C59447   3.581   7.962   5.773 -1.0108 -0.1283  0.7266
  441MOL0     O59448   3.759   7.743   5.847 -0.2461 -0.2498 -0.3616
  441MOL0     C59449   3.542   7.453   5.888 -0.1717  0.3076  0.4307
  441MOL0     C59450   3.526   7.332   5.959 -0.4065 -0.4623 -1.3083
  441MOL0     N59451   3.806   6.642   6.249  0.0082  0.2009 -0.1866
  441MOL0     N59452   3.792   6.519   6.224 -0.4149  0.1699 -0.3667
  441MOL0     C59453   3.923   5.710   5.774 -0.4784  0.1098 -0.5216
  441MOL0     C59454   4.063   5.698   5.762 -0.2450  0.4292  0.2219
  441MOL0     C59455   4.481   5.758   5.544  0.4242 -0.7519 -0.6469
  441MOL0     C59456   4.561   5.747   5.422 -0.2782 -0.1911 -1.7351
  441MOL0     C59457   4.705   5.739   5.425  0.3117 -0.3500  1.0624
  441MOL0     C59458   4.770   5.754   5.542 -0.4321 -0.3014 -0.0011
  441MOL0     O59459   4.904   5.756   5.538  1.3447  0.5950  0.2483
  441MOL0     C59460   4.962   5.873   5.584  1.0529 -0.2632 -0.5028
  441MOL0     C59461   5.011   5.945   5.466 -0.3090 -0.4129  0.3547
  441MOL0     C59462   5.087   6.064   5.518 -0.5222  0.0774  1.2267
  441MOL0     C59463   5.149   6.147   5.400  0.0377  0.5817  0.2013
  441MOL0     C59464   5.170   6.274   5.455 -1.0005 -0.8683  0.2692
  441MOL0     C59465   5.186   6.395   5.487  0.2295 -0.4861  0.2328
  441MOL0     C59466   4.701   5.781   5.658  0.3734  0.5170  1.1476
  441MOL0     C59467   4.556   5.774   5.664 -0.6817 -0.9084  0.4934
  441MOL0     H59468   4.132   5.949   5.540  1.0120  2.2135  2.3832
  441MOL0     H59469   3.887   5.974   5.561  0.0104  1.6723  1.4682
  441MOL0     H59470   3.646   5.689   5.856 -0.6130 -0.0532 -2.2182
  441MOL0     H59471   3.726   5.817   5.945  0.4046 -0.7378 -0.4144
  441MOL0     H59472   3.467   5.867   5.777 -0.8420 -3.6498 -0.2739
  441MOL0     H59473   3.488   5.798   5.936  3.0168  1.8399  2.5138
  441MOL0     H59474   3.437   6.010   5.977 -1.8387  0.2284 -1.8803
  441MOL0     H59475   3.627   6.016   6.003 -0.5471  0.9717  0.2034
  441MOL0     H59476   3.654   6.129   5.793 -0.0457 -0.3785  0.9504
  441MOL0     H59477   3.482   6.105   5.753 -0.2567  1.6060 -1.0009
  441MOL0     H59478   3.509   6.315   5.828 -1.5776 -2.8306 -2.0842
  441MOL0     H59479   3.430   6.250   5.961 -1.4775 -1.0636 -1.9776
  441MOL0     H59480   3.601   6.401   6.048  0.4192 -0.9396  0.1547
  441MOL0     H59481   3.630   6.230   6.094  1.0632 -0.8004 -0.1822
  441MOL0     H59482   3.794   6.208   5.919 -0.3186  1.0052 -1.4771
  441MOL0     H59483   3.779   6.385   5.877 -0.5539 -0.3586  0.2441
  441MOL0     H59484   3.975   6.340   6.035  0.5341  1.0988  1.8802
  441MOL0     H59485   3.856   6.295   6.145 -0.2771  1.3279  1.0567
  441MOL0     H59486   3.924   6.612   5.946  1.3955 -0.1891  0.1380
  441MOL0     H59487   3.931   6.891   6.204 -2.6277  1.1169 -0.0852
  441MOL0     H59488   3.975   6.844   6.033  1.7924  0.7640  1.4069
  441MOL0     H59489   3.680   6.849   6.057  0.6353 -0.9104 -3.1560
  441MOL0     H59490   3.778   6.956   5.964 -0.6387 -2.7886 -0.4157
  441MOL0     H59491   3.807   7.107   6.161  1.7615 -1.2169 -3.4278
  441MOL0     H59492   3.720   6.992   6.264 -0.5200 -0.7264 -0.4127
  441MOL0     H59493   3.511   7.018   6.137  0.9400 -0.7309  0.8231
  441MOL0     H59494   3.599   7.093   5.998  0.1037 -1.3376 -0.4803
  441MOL0     H59495   3.708   7.391   6.232  0.1349  1.1139  0.2580
  441MOL0     H59496   3.793   7.625   6.234  2.1906 -2.7667  0.0504
  441MOL0     H59497   3.894   7.616   6.089 -1.1606 -1.6557 -0.2267
  441MOL0     H59498   3.756   7.735   6.100 -2.1329 -0.4910  2.2278
  441MOL0     H59499   3.487   7.751   5.513  0.4807  0.8988 -2.1665
  441MOL0     H59500   3.460   7.956   5.395  0.6669  1.9259  0.1236
  441MOL0     H59501   3.545   8.355   5.590 -3.3486 -6.0235  0.8379
  441MOL0     H59502   3.711   8.307   5.534  0.0887  0.6184  1.4493
  441MOL0     H59503   3.632   8.366   5.295  1.5892  1.3461  0.3945
  441MOL0     H59504   3.493   8.447   5.361  0.5454 -0.3513 -0.3509
  441MOL0     H59505   3.780   8.527   5.383 -0.1648 -2.4969  1.3263
  441MOL0     H59506   3.659   8.580   5.504  0.3442  0.7719 -0.1638
  441MOL0     H59507   3.648   8.614   5.200  0.3604 -0.7957  0.7726
  441MOL0     H59508   3.514   8.667   5.303 -0.3460  0.7905 -1.8000
  441MOL0     H59509   3.808   8.773   5.318 -0.0013  1.2587  1.8628
  441MOL0     H59510   3.684   8.833   5.414  3.9010 -0.3998  1.1890
  441MOL0     H59511   3.690   8.832   5.097 -0.8146  2.7614 -1.6392
  441MOL0     H59512   3.554   8.888   5.198 -0.2620 -0.7427  0.9509
  441MOL0     H59513   3.840   9.007   5.212  0.1758 -1.0327  3.1938
  441MOL0     H59514   3.694   9.069   5.291 -3.5805  0.6771 -1.8338
  441MOL0     H59515   3.571   9.106   5.109 -0.4172  0.1835  2.5702
  441MOL0     H59516   3.705   9.084   5.001 -1.0930 -2.6745  0.3859
  441MOL0     H59517   3.580   8.174   5.744 -1.6539 -0.5532  2.3019
  441MOL0     H59518   3.611   7.970   5.877 -0.6019 -1.7197  0.7576
  441MOL0     H59519   3.504   7.457   5.786  1.3048 -0.0104 -0.1575
  441MOL0     H59520   3.465   7.250   5.920 -2.6313  1.8752 -3.1496
  441MOL0     H59521   3.862   5.634   5.821  0.7238 -1.5090 -1.4905
  441MOL0     H59522   4.127   5.622   5.805 -0.6677 -0.4837 -0.7082
  441MOL0     H59523   4.501   5.737   5.332 -1.9960  1.2930 -0.8293
  441MOL0     H59524   4.761   5.728   5.333 -1.5745 -1.4723 -0.0020
  441MOL0     H59525   4.886   5.933   5.634 -1.8611 -4.7646  1.1502
  441MOL0     H59526   5.035   5.840   5.660  2.3596 -1.6103 -2.2511
  441MOL0     H59527   4.928   5.971   5.400  0.0014 -1.0556 -0.3070
  441MOL0     H59528   5.079   5.890   5.400 -1.1990 -0.2050 -0.7570
  441MOL0     H59529   5.171   6.041   5.584 -2.9050 -1.2726  4.0197
  441MOL0     H59530   5.019   6.133   5.569  3.0511  3.4452  1.9333
  441MOL0     H59531   5.071   6.155   5.325  0.1680  0.2107  0.0264
  441MOL0     H59532   5.246   6.111   5.365  0.1045  0.0331  0.9342
  441MOL0     H59533   5.199   6.500   5.505  1.7332 -1.0173  2.8706
  441MOL0     H59534   4.741   5.775   5.759 -0.5633 -0.6036  1.4888
  441MOL0     H59535   4.506   5.782   5.760  0.4178  2.0038  0.9266
  442MOL0     O59536   7.606   3.930   5.923  0.0213  1.2369 -0.3252
  442MOL0     C59537   7.542   3.827   5.900 -0.7267  0.4909 -0.7004
  442MOL0     O59538   7.470   3.810   5.782  0.0312  0.1845  0.3534
  442MOL0     C59539   7.466   3.903   5.688  0.2105 -0.9769  0.3620
  442MOL0     C59540   7.423   4.037   5.723 -0.9585 -0.1289  0.2273
  442MOL0     C59541   7.413   4.126   5.620  0.0250 -0.0420  0.6766
  442MOL0     C59542   7.450   4.092   5.484  0.1725 -0.1313 -0.7009
  442MOL0     O59543   7.452   4.177   5.379  0.5208 -0.7365  0.1810
  442MOL0     C59544   7.446   4.322   5.410  0.4566 -0.2281 -0.1295
  442MOL0     C59545   7.586   4.369   5.446  0.4649  0.4627 -0.6993
  442MOL0     C59546   7.700   4.327   5.355 -0.0859 -0.1445  0.8127
  442MOL0     C59547   7.683   4.375   5.209  0.2457  0.5050  1.4509
  442MOL0     C59548   7.813   4.339   5.136 -0.3606  0.0327  0.8000
  442MOL0     C59549   7.793   4.346   4.979 -0.7514 -0.0832 -0.6144
  442MOL0     C59550   7.925   4.303   4.923  0.5984  0.2495 -0.6251
  442MOL0     C59551   7.925   4.312   4.768  0.5850 -0.3196  0.0085
  442MOL0     N59552   8.062   4.293   4.710 -0.3351  0.0365  0.1516
  442MOL0     C59553   8.153   4.403   4.669  0.0813  0.7516 -0.2522
  442MOL0     C59554   8.254   4.331   4.612  0.1885  1.0647  0.3546
  442MOL0     C59555   8.377   4.382   4.550  0.5045 -0.1358 -0.0277
  442MOL0     C59556   8.354   4.484   4.446 -0.9091 -1.2644  0.3272
  442MOL0     C59557   8.251   4.435   4.343  0.6995  0.4050  0.5500
  442MOL0     C59558   8.258   4.530   4.223  0.6932  0.6916  1.1045
  442MOL0     O59559   8.145   4.493   4.141 -0.5530  0.5957  0.0026
  442MOL0     C59560   8.134   4.529   4.015  0.1286 -0.8144  0.5346
  442MOL0     C59561   8.037   4.461   3.944  0.1347  0.2088 -0.2570
  442MOL0     C59562   8.019   4.480   3.803 -0.8532 -0.4247 -0.4109
  442MOL0     C59563   7.886   4.424   3.759  0.0797 -0.8465  0.5824
  442MOL0     C59564   8.097   4.575   3.738 -0.7002  0.2445 -0.5028
  442MOL0     C59565   8.077   4.608   3.593  0.3996  0.7320  0.2222
  442MOL0     O59566   8.139   4.716   3.549  0.5211 -0.1843  0.8669
  442MOL0     C59567   8.130   4.734   3.413 -0.2519  0.2879  0.1120
  442MOL0     C59568   8.218   4.675   3.326  0.3769  0.4831 -1.9600
  442MOL0     C59569   8.189   4.684   3.190 -0.2135 -0.5979  0.2708
  442MOL0     C59570   8.074   4.746   3.135  0.3254  0.4450  0.2630
  442MOL0     O59571   8.057   4.727   3.001  0.6407 -0.4216  0.3622
  442MOL0     C59572   7.954   4.809   2.938  0.1586 -0.8546 -0.1484
  442MOL0     C59573   7.952   4.759   2.795 -0.3646  0.2152  0.3523
  442MOL0     C59574   7.860   4.840   2.697  1.0071 -1.0284  0.3976
  442MOL0     C59575   7.721   4.858   2.754  1.4856 -0.1161  0.6955
  442MOL0     C59576   7.633   4.731   2.777  0.0007  0.0975 -0.5788
  442MOL0     C59577   7.586   4.661   2.650  0.3998  0.3115 -0.8247
  442MOL0     C59578   7.550   4.514   2.658 -0.6710  0.6797 -1.3524
  442MOL0     C59579   7.441   4.490   2.758 -0.3488  0.3027  0.8134
  442MOL0    Cl59580   7.407   4.312   2.762  0.2662 -0.4366  0.7215
  442MOL0     C59581   7.992   4.813   3.228  0.0801  0.0199  0.2995
  442MOL0     C59582   8.018   4.808   3.366  0.2260  0.8834  0.4780
  442MOL0     O59583   8.010   4.539   3.518 -0.6016 -0.0018  0.5411
  442MOL0     C59584   8.206   4.638   3.808  0.8255  0.9701 -0.4645
  442MOL0     C59585   8.219   4.616   3.942  0.4455 -0.1100  0.1536
  442MOL0     N59586   8.225   4.196   4.609  0.3956  0.2526  0.7007
  442MOL0     N59587   8.114   4.172   4.667 -0.1273  0.6187  0.5880
  442MOL0     C59588   7.512   3.967   5.457  0.0432  0.6635 -0.4989
  442MOL0     C59589   7.510   3.877   5.562  0.3628  0.5287 -0.2729
  442MOL0     C59590   7.537   3.723   6.001  1.0802 -0.0278  0.5402
  442MOL0     C59591   7.645   3.696   6.090 -0.1205 -0.7559 -0.9458
  442MOL0     C59592   7.626   3.603   6.192 -0.1332 -0.4144  0.0538
  442MOL0     C59593   7.518   3.522   6.196  0.6655  0.0277 -0.1115
  442MOL0     O59594   7.530   3.437   6.309 -0.6468 -0.1939 -0.1774
  442MOL0     C59595   7.423   3.341   6.328  0.6209 -0.3849  0.0415
  442MOL0     C59596   7.440   3.254   6.449  0.4653 -0.2469  0.0073
  442MOL0     C59597   7.570   3.172   6.454 -0.0371  0.3325  0.4473
  442MOL0     C59598   7.575   3.080   6.574 -0.1600  0.1835 -0.2346
  442MOL0     C59599   7.447   2.996   6.588 -0.8969 -1.1017 -0.3394
  442MOL0     C59600   7.364   2.913   6.603  0.1866 -0.2818  0.4232
  442MOL0     C59601   7.425   3.526   6.091 -0.0637 -0.2138  0.0970
  442MOL0     C59602   7.424   3.637   6.000 -0.8784 -0.4242  0.0785
  442MOL0     H59603   7.396   4.061   5.826  3.5310  1.5130  1.2449
  442MOL0     H59604   7.365   4.221   5.645  0.3916 -0.1725  1.9639
  442MOL0     H59605   7.420   4.370   5.316  2.3554 -0.6833 -0.9353
  442MOL0     H59606   7.361   4.345   5.475  1.2990 -0.5804  1.1516
  442MOL0     H59607   7.589   4.477   5.459 -2.6471  0.3815  1.7285
  442MOL0     H59608   7.615   4.323   5.541 -0.4526 -1.9277 -1.5023
  442MOL0     H59609   7.792   4.364   5.402  0.8442 -3.2769  1.7174
  442MOL0     H59610   7.708   4.218   5.367  1.1759  0.0880  2.5200
  442MOL0     H59611   7.599   4.323   5.162  0.5673 -0.0853  1.5132
  442MOL0     H59612   7.670   4.483   5.207 -1.1892  0.3602 -1.2032
  442MOL0     H59613   7.897   4.403   5.164  2.7266 -1.2625 -4.1321
  442MOL0     H59614   7.848   4.236   5.155  2.1616  0.5064 -0.8100
  442MOL0     H59615   7.718   4.279   4.935  0.6211  0.0827 -3.4357
  442MOL0     H59616   7.765   4.446   4.946 -1.4341 -0.7636 -2.2403
  442MOL0     H59617   8.003   4.365   4.967  0.5257 -0.4217  0.4837
  442MOL0     H59618   7.950   4.203   4.961 -2.0701  0.2209  1.2992
  442MOL0     H59619   7.885   4.407   4.733  2.1206  0.3324 -0.0725
  442MOL0     H59620   7.857   4.239   4.725  0.3189  0.3676 -0.7648
  442MOL0     H59621   8.143   4.511   4.669  0.3629  0.7999  1.3145
  442MOL0     H59622   8.435   4.423   4.633  0.2054 -1.1243  0.6879
  442MOL0     H59623   8.425   4.301   4.494  2.4451  0.9940 -0.0729
  442MOL0     H59624   8.453   4.493   4.399 -1.4820 -4.3926 -1.8268
  442MOL0     H59625   8.320   4.579   4.489 -1.6667 -1.6689  0.6244
  442MOL0     H59626   8.147   4.452   4.373 -0.0907 -1.2275 -1.0328
  442MOL0     H59627   8.254   4.331   4.308  0.7843  0.3989  0.5756
  442MOL0     H59628   8.354   4.511   4.175 -0.7969 -1.3949 -1.2718
  442MOL0     H59629   8.238   4.634   4.254  0.1273  0.8663  0.1981
  442MOL0     H59630   7.965   4.395   3.990 -0.7174 -0.0470 -1.8931
  442MOL0     H59631   7.903   4.359   3.672 -0.4969 -0.6220  0.2945
  442MOL0     H59632   7.828   4.362   3.828  1.7623  0.2314  3.0928
  442MOL0     H59633   7.833   4.511   3.719 -0.7290 -0.9717  1.3377
  442MOL0     H59634   8.297   4.615   3.372 -0.2053  0.0188 -1.5512
  442MOL0     H59635   8.256   4.647   3.113 -0.0343  0.6575 -0.2030
  442MOL0     H59636   7.858   4.795   2.988  0.0431 -2.1259 -0.6969
  442MOL0     H59637   7.973   4.917   2.930 -1.2552 -0.5117  0.7633
  442MOL0     H59638   8.053   4.763   2.753 -0.9143  1.5127 -0.9749
  442MOL0     H59639   7.916   4.657   2.807  3.6552 -1.1560  2.1534
  442MOL0     H59640   7.849   4.787   2.601  2.3761 -0.6675  0.0180
  442MOL0     H59641   7.892   4.944   2.694 -0.2845 -0.5778  1.1868
  442MOL0     H59642   7.727   4.926   2.839 -0.3387  0.5905  0.3094
  442MOL0     H59643   7.665   4.925   2.689  0.3452 -1.4991  0.1740
  442MOL0     H59644   7.556   4.767   2.847  0.4024  0.1155 -0.1371
  442MOL0     H59645   7.695   4.663   2.836  0.8370  1.6762  0.4498
  442MOL0     H59646   7.507   4.725   2.608 -1.6615 -1.5903 -0.0589
  442MOL0     H59647   7.670   4.670   2.580  2.3057  0.3870  1.3575
  442MOL0     H59648   7.640   4.471   2.703  1.5072  3.0954 -3.1034
  442MOL0     H59649   7.532   4.479   2.556  1.0243 -2.2648 -0.7713
  442MOL0     H59650   7.354   4.545   2.721  0.9362  2.2304  0.5073
  442MOL0     H59651   7.466   4.525   2.858 -0.2657 -1.9503  1.6337
  442MOL0     H59652   7.907   4.861   3.180  2.6378  2.0419 -2.5505
  442MOL0     H59653   7.963   4.869   3.437 -1.3506  0.7827 -0.6102
  442MOL0     H59654   8.284   4.706   3.774  2.1385  1.3846  3.0022
  442MOL0     H59655   8.310   4.656   3.984  0.8805  0.1997 -1.0424
  442MOL0     H59656   7.551   3.945   5.358  1.9286  2.5271 -0.2631
  442MOL0     H59657   7.542   3.776   5.541  0.5771  0.0670  2.0421
  442MOL0     H59658   7.738   3.750   6.078  0.5353 -1.7407 -0.4637
  442MOL0     H59659   7.707   3.581   6.262  0.1644  1.6979  0.4444
  442MOL0     H59660   7.331   3.399   6.341 -1.4792 -3.8723  2.7085
  442MOL0     H59661   7.409   3.282   6.237  0.8666  0.7893 -0.7647
  442MOL0     H59662   7.343   3.204   6.459 -0.7934  1.7256 -1.4517
  442MOL0     H59663   7.444   3.320   6.536  1.0628  0.8824 -0.8580
  442MOL0     H59664   7.651   3.245   6.463  0.2011  0.0880  0.3029
  442MOL0     H59665   7.570   3.115   6.360 -3.4745 -1.8292  1.5928
  442MOL0     H59666   7.593   3.132   6.669 -1.2694  1.0153 -0.4569
  442MOL0     H59667   7.660   3.012   6.571  0.5097  1.0045 -3.2799
  442MOL0     H59668   7.281   2.848   6.620  0.0899 -0.0800  0.7337
  442MOL0     H59669   7.339   3.460   6.086  0.2021 -0.5109 -0.7262
  442MOL0     H59670   7.347   3.650   5.925 -1.9222 -0.4821  1.1060
  443MOL0     O59671   8.367   0.065   2.136 -0.3606 -0.0691  0.6492
  443MOL0     C59672   8.409   0.002   2.229 -0.1782 -0.5568 -0.5990
  443MOL0     O59673   8.331  -0.020   2.340 -0.6568  0.5162 -0.7826
  443MOL0     C59674   8.205   0.025   2.365 -0.4960 -0.1314  0.8610
  443MOL0     C59675   8.174   0.162   2.328  0.0352 -0.8334 -0.3739
  443MOL0     C59676   8.048   0.212   2.351  0.4131 -0.8065  0.3402
  443MOL0     C59677   7.954   0.129   2.401 -0.0570 -0.1045 -0.0678
  443MOL0     O59678   7.836   0.196   2.423 -0.0093 -0.3702  0.5113
  443MOL0     C59679   7.732   0.128   2.483  0.0913  0.7953 -0.9096
  443MOL0     C59680   7.608   0.206   2.494 -0.0490  0.0008 -0.9577
  443MOL0     C59681   7.472   0.122   2.477  0.5172 -0.0725  0.8403
  443MOL0     C59682   7.463   0.082   2.323 -0.2452  0.2842 -0.2213
  443MOL0     C59683   7.321   0.070   2.279  0.1339  1.1382  0.7457
  443MOL0     C59684   7.246  -0.060   2.309  0.5394 -0.2045  0.1227
  443MOL0     C59685   7.095  -0.059   2.261 -0.4119  0.5146 -0.0204
  443MOL0     C59686   7.047  -0.037   2.122 -0.3307  0.4374 -0.5419
  443MOL0     N59687   6.905  -0.062   2.120  0.2288  0.4091  0.0056
  443MOL0     C59688   6.853  -0.106   1.999 -0.9118 -0.2589 -0.2738
  443MOL0     C59689   6.716  -0.103   2.015 -0.3244  0.3627 -0.4710
  443MOL0     C59690   6.607  -0.138   1.909  0.8208 -0.3632 -1.3361
  443MOL0     C59691   6.649  -0.086   1.771  0.1304  0.0142 -0.6979
  443MOL0     C59692   6.547  -0.128   1.660 -1.0155  0.0294 -1.1824
  443MOL0     C59693   6.561  -0.271   1.616 -0.1325 -0.1771 -0.0778
  443MOL0     O59694   6.691  -0.297   1.565 -0.9271  0.4593  0.3018
  443MOL0     C59695   6.699  -0.309   1.427  0.5511 -0.4526  0.0844
  443MOL0     C59696   6.704  -0.200   1.341 -0.0703  0.1086 -0.0220
  443MOL0     C59697   6.713  -0.207   1.206 -0.2905  0.2817 -0.5939
  443MOL0     C59698   6.711  -0.076   1.130  0.0117  1.1360  0.5315
  443MOL0     C59699   6.732  -0.342   1.144 -0.1964  0.8745  0.1347
  443MOL0     C59700   6.748  -0.360   0.991  0.4714  0.7542 -0.4681
  443MOL0     O59701   6.676  -0.276   0.914 -0.0939  0.4955  0.6736
  443MOL0     C59702   6.722  -0.238   0.788  0.6739 -0.6407  0.3538
  443MOL0     C59703   6.857  -0.239   0.750  0.0033  0.2864 -0.0263
  443MOL0     C59704   6.894  -0.196   0.622  0.5279 -0.1445 -0.4374
  443MOL0     C59705   6.798  -0.158   0.530  0.1838  0.6896  0.1231
  443MOL0     O59706   6.836  -0.109   0.405  0.0812  0.1365 -0.3837
  443MOL0     C59707   6.809  -0.195   0.291 -0.2308  0.1130  0.0744
  443MOL0     C59708   6.894  -0.146   0.177  0.2440  0.4479 -0.2825
  443MOL0     C59709   7.047  -0.141   0.200 -0.5063 -0.7230 -0.6387
  443MOL0     C59710   7.107  -0.272   0.267  1.3556  0.6515  0.7772
  443MOL0     C59711   7.263  -0.281   0.263  0.2162 -0.1104 -0.1472
  443MOL0     C59712   7.322  -0.145   0.303  0.1143 -0.1173  0.5153
  443MOL0     C59713   7.280  -0.085   0.442  0.2786  0.3450 -0.4795
  443MOL0     C59714   7.308   0.063   0.464  0.3144  0.5324 -0.1211
  443MOL0    Cl59715   7.249   0.180   0.334  0.0371 -0.6279  0.2581
  443MOL0     C59716   6.661  -0.172   0.563 -0.3175 -0.6093  0.3030
  443MOL0     C59717   6.629  -0.210   0.695 -0.4645  0.0020 -0.1575
  443MOL0     O59718   6.814  -0.453   0.952 -0.0176 -0.6718  0.2651
  443MOL0     C59719   6.756  -0.449   1.230 -0.2029  0.1330  0.7100
  443MOL0     C59720   6.724  -0.437   1.366  0.0565  1.0726 -0.3031
  443MOL0     N59721   6.687  -0.071   2.151 -0.5333  0.3475 -0.4368
  443MOL0     N59722   6.806  -0.047   2.211 -0.7726 -0.0059  0.5050
  443MOL0     C59723   7.981  -0.004   2.448 -0.6594 -0.3252 -0.1171
  443MOL0     C59724   8.113  -0.045   2.437  0.2093  0.8635  0.8043
  443MOL0     C59725   8.548  -0.050   2.222 -0.6231  0.4031 -0.4380
  443MOL0     C59726   8.608  -0.052   2.101 -0.0014 -0.0233  1.2454
  443MOL0     C59727   8.731  -0.105   2.081 -0.2963 -0.2550  0.6713
  443MOL0     C59728   8.810  -0.144   2.189 -0.7478  0.6008  0.2976
  443MOL0     O59729   8.939  -0.191   2.177  0.2562 -0.1392  0.2916
  443MOL0     C59730   9.006  -0.231   2.063 -0.5067 -1.0873  1.2170
  443MOL0     C59731   9.148  -0.208   2.082 -0.4456  0.2394 -0.3550
  443MOL0     C59732   9.200  -0.060   2.087  1.0662 -0.8124  0.3159
  443MOL0     C59733   9.345  -0.060   2.038  0.2396  0.3771 -0.2816
  443MOL0     C59734   9.395   0.074   2.014  0.8729 -0.1436 -0.2951
  443MOL0     C59735   9.426   0.184   1.989  0.0718 -1.0789  0.5695
  443MOL0     C59736   8.753  -0.152   2.312  0.1124 -0.6275 -0.5262
  443MOL0     C59737   8.620  -0.112   2.329 -0.1357 -0.0540  0.2511
  443MOL0     H59738   8.250   0.223   2.280  1.3193 -0.4373  1.9987
  443MOL0     H59739   8.035   0.316   2.323  1.0722 -0.3820  1.5721
  443MOL0     H59740   7.719   0.034   2.428  1.9026  1.9992 -3.5828
  443MOL0     H59741   7.755   0.097   2.585 -0.9219 -2.2572 -1.4922
  443MOL0     H59742   7.602   0.252   2.593  2.6043 -0.8206 -0.3288
  443MOL0     H59743   7.622   0.282   2.417  1.8233  3.3800  2.3459
  443MOL0     H59744   7.464   0.033   2.540  0.9098 -0.5398  0.2508
  443MOL0     H59745   7.394   0.193   2.505  0.9176  0.8857 -0.3756
  443MOL0     H59746   7.519   0.156   2.266 -0.2631  1.0989  0.7917
  443MOL0     H59747   7.512  -0.015   2.316  0.5020  0.7800 -2.3698
  443MOL0     H59748   7.264   0.148   2.331  1.5239  3.2519 -0.7522
  443MOL0     H59749   7.314   0.070   2.170 -2.3295 -0.7667  0.7830
  443MOL0     H59750   7.300  -0.142   2.261  0.7594  0.9704 -1.7566
  443MOL0     H59751   7.241  -0.067   2.418 -0.0849 -0.2489  0.0932
  443MOL0     H59752   7.063  -0.158   2.294  4.6175 -1.1013  0.9534
  443MOL0     H59753   7.057   0.022   2.325  0.4474  1.4297 -0.6372
  443MOL0     H59754   7.102  -0.110   2.062 -1.9934 -0.7683 -0.6848
  443MOL0     H59755   7.068   0.063   2.084 -4.6836  1.2611 -1.3650
  443MOL0     H59756   6.917  -0.148   1.923 -2.1230  1.0116 -2.0756
  443MOL0     H59757   6.593  -0.246   1.902 -2.9853 -0.0861 -0.2799
  443MOL0     H59758   6.513  -0.102   1.953  0.9623 -1.1545 -0.3576
  443MOL0     H59759   6.749  -0.121   1.747  1.7926  3.2111  0.8851
  443MOL0     H59760   6.636   0.023   1.774 -3.7361 -0.2874  1.3661
  443MOL0     H59761   6.571  -0.059   1.577  5.3452 -3.2974 -2.8309
  443MOL0     H59762   6.447  -0.114   1.700 -1.8144 -0.5444 -2.8969
  443MOL0     H59763   6.486  -0.301   1.542  2.2450 -2.9288 -1.5835
  443MOL0     H59764   6.554  -0.342   1.699  2.8727  1.6573  1.9372
  443MOL0     H59765   6.685  -0.103   1.386 -0.1888  1.2273 -2.3294
  443MOL0     H59766   6.706   0.004   1.205 -0.9236 -1.7438  3.8246
  443MOL0     H59767   6.797  -0.062   1.064 -0.7805 -1.0368 -1.0814
  443MOL0     H59768   6.618  -0.054   1.077  0.5225  2.0957  0.0109
  443MOL0     H59769   6.929  -0.253   0.830  0.6522 -1.3634 -0.8636
  443MOL0     H59770   6.998  -0.192   0.592  1.5573  1.8789  2.9345
  443MOL0     H59771   6.828  -0.303   0.294  2.0002  0.4078 -1.4777
  443MOL0     H59772   6.703  -0.172   0.275 -0.5894 -1.2108  0.3755
  443MOL0     H59773   6.865  -0.188   0.080 -2.1084 -0.7031  0.8169
  443MOL0     H59774   6.851  -0.047   0.160  0.3139  0.1429 -2.5597
  443MOL0     H59775   7.069  -0.063   0.273 -0.3180 -1.4277  0.0711
  443MOL0     H59776   7.099  -0.105   0.111  1.4387  0.0342  0.7291
  443MOL0     H59777   7.062  -0.276   0.367  3.9043  2.4923  2.0959
  443MOL0     H59778   7.051  -0.349   0.212 -0.5749  0.1084  3.2860
  443MOL0     H59779   7.294  -0.312   0.162 -1.6392 -1.8648 -0.2312
  443MOL0     H59780   7.304  -0.355   0.332 -0.3282 -0.2664  0.0125
  443MOL0     H59781   7.430  -0.149   0.285 -0.1946  3.6270 -3.9004
  443MOL0     H59782   7.276  -0.070   0.239 -1.5914 -1.6280 -0.1041
  443MOL0     H59783   7.331  -0.147   0.516 -1.8129 -1.0791 -0.1508
  443MOL0     H59784   7.172  -0.098   0.456  0.5630 -0.0523  1.6052
  443MOL0     H59785   7.416   0.069   0.476  0.1977  0.4542  1.1064
  443MOL0     H59786   7.267   0.079   0.564 -1.0280  0.8711 -0.7011
  443MOL0     H59787   6.590  -0.147   0.485 -0.5699  3.1022  1.5393
  443MOL0     H59788   6.532  -0.235   0.737  0.6242 -0.2149  2.3952
  443MOL0     H59789   6.790  -0.534   1.172  1.6179  1.4183 -0.1762
  443MOL0     H59790   6.737  -0.521   1.433 -1.2335  0.8867 -0.2556
  443MOL0     H59791   7.912  -0.063   2.508  1.7476 -1.5062  1.6463
  443MOL0     H59792   8.143  -0.135   2.490 -3.2472 -0.0913  1.3359
  443MOL0     H59793   8.545  -0.029   2.016 -0.8204  0.4534  1.9638
  443MOL0     H59794   8.762  -0.131   1.980 -0.9892 -0.9526  0.6387
  443MOL0     H59795   8.993  -0.339   2.047 -3.5955 -0.4454 -1.6191
  443MOL0     H59796   8.980  -0.188   1.966  1.2281 -1.1002  0.6956
  443MOL0     H59797   9.201  -0.249   1.995 -0.4297  0.1429 -0.2994
  443MOL0     H59798   9.173  -0.263   2.173  0.0411  3.6271  1.6893
  443MOL0     H59799   9.201  -0.016   2.187  0.0209 -1.2843  0.5494
  443MOL0     H59800   9.131  -0.002   2.026  1.7297 -1.4271 -1.0575
  443MOL0     H59801   9.362  -0.116   1.946  3.0131 -1.5191  1.2254
  443MOL0     H59802   9.417  -0.099   2.111  1.3045  2.3687 -0.1673
  443MOL0     H59803   9.466   0.273   1.946 -1.0101 -0.7791  0.1331
  443MOL0     H59804   8.784  -0.199   2.405 -1.5093 -0.8612 -0.0698
  443MOL0     H59805   8.584  -0.116   2.431 -0.3122  0.5052  0.2187
  444MOL0     O59806  10.964   7.262   7.355  0.5495  0.2195  0.0593
  444MOL0     C59807  10.913   7.157   7.308  0.1416 -0.1478  0.1849
  444MOL0     O59808  10.794   7.094   7.356 -0.2252  0.4491 -0.1762
  444MOL0     C59809  10.759   7.108   7.491 -0.1523  0.2375 -0.7569
  444MOL0     C59810  10.769   7.004   7.588  0.6670 -1.0223 -0.3331
  444MOL0     C59811  10.754   7.042   7.725  0.3659  0.2567 -0.4340
  444MOL0     C59812  10.702   7.159   7.767 -0.1627 -0.6681 -0.4741
  444MOL0     O59813  10.688   7.186   7.902 -0.8774  0.7465 -0.5541
  444MOL0     C59814  10.699   7.320   7.951 -0.0862 -0.5044 -0.7960
  444MOL0     C59815  10.701   7.323   8.104  0.2602  1.0387  0.7683
  444MOL0     C59816  10.565   7.259   8.149 -0.9140  0.6716 -0.7138
  444MOL0     C59817  10.570   7.232   8.303  0.0309  0.5654 -0.4765
  444MOL0     C59818  10.435   7.176   8.352 -0.0403 -0.5825 -0.0601
  444MOL0     C59819  10.302   7.260   8.336 -0.1142 -0.3671  0.8023
  444MOL0     C59820  10.183   7.174   8.385  0.8735 -0.3904 -1.2347
  444MOL0     C59821  10.045   7.238   8.350  0.0132 -0.2653  0.5283
  444MOL0     N59822  10.017   7.244   8.200 -0.3663 -1.0808 -0.1879
  444MOL0     C59823  10.069   7.141   8.117 -0.0454 -0.6484  0.1011
  444MOL0     C59824  10.063   7.194   7.994 -1.3438 -0.0588 -0.6125
  444MOL0     C59825  10.090   7.122   7.867 -1.2090  0.8218  0.3303
  444MOL0     C59826  10.245   7.140   7.834 -0.7286 -1.1866 -0.6594
  444MOL0     C59827  10.294   7.039   7.735  0.2130  0.4320  0.4384
  444MOL0     C59828  10.221   7.050   7.600  0.3439 -0.1090 -0.5899
  444MOL0     O59829  10.272   6.948   7.511  0.1621  0.7049 -0.0523
  444MOL0     C59830  10.331   6.979   7.389  0.3888 -0.8805 -0.2730
  444MOL0     C59831  10.306   6.895   7.285 -0.3332 -0.0077  0.0965
  444MOL0     C59832  10.370   6.912   7.159 -0.3145  0.6695  0.0649
  444MOL0     C59833  10.344   6.804   7.053 -0.2503 -0.1671  0.3187
  444MOL0     C59834  10.459   7.018   7.140 -0.0861 -0.0504  0.6134
  444MOL0     C59835  10.522   7.059   7.013 -0.1623  0.1880  0.9325
  444MOL0     O59836  10.595   7.177   7.013 -0.1929 -0.4723  0.3941
  444MOL0     C59837  10.621   7.231   6.890 -0.0214 -0.7933  0.1034
  444MOL0     C59838  10.521   7.248   6.792 -0.0046 -0.3259  0.1254
  444MOL0     C59839  10.549   7.323   6.679  0.4250 -0.1357 -0.1645
  444MOL0     C59840  10.678   7.372   6.649  0.0638 -0.1396 -0.5144
  444MOL0     O59841  10.700   7.423   6.527 -0.2726 -0.3330 -0.0899
  444MOL0     C59842  10.814   7.371   6.461  0.6681  0.1412  0.3725
  444MOL0     C59843  10.787   7.394   6.310 -0.3909  0.4399  0.9093
  444MOL0     C59844  10.652   7.334   6.263 -0.3074  0.1050  0.4706
  444MOL0     C59845  10.621   7.383   6.129 -0.0256  0.2058  0.1680
  444MOL0     C59846  10.496   7.321   6.078  0.1402  0.3181  1.3587
  444MOL0     C59847  10.468   7.355   5.933 -0.1896 -0.7917 -0.5453
  444MOL0     C59848  10.411   7.490   5.904  0.6676 -0.1153 -0.1696
  444MOL0     C59849  10.255   7.481   5.925 -1.8077 -0.5561  0.0818
  444MOL0    Cl59850  10.147   7.408   5.806 -0.9302 -0.3201  0.0738
  444MOL0     C59851  10.782   7.348   6.744 -0.4420 -0.8793  0.1891
  444MOL0     C59852  10.749   7.279   6.863  0.1039 -0.2202  0.3648
  444MOL0     O59853  10.502   6.993   6.915  0.7068  0.2134  0.3980
  444MOL0     C59854  10.493   7.095   7.256  0.2847 -0.2314 -0.1645
  444MOL0     C59855  10.428   7.073   7.375  0.2322 -0.0080 -0.2860
  444MOL0     N59856  10.033   7.328   8.005 -0.0563  0.3214 -0.5745
  444MOL0     N59857  10.021   7.363   8.134  0.3181  0.6646 -0.2590
  444MOL0     C59858  10.666   7.254   7.664  0.0893 -0.2315  0.5656
  444MOL0     C59859  10.705   7.231   7.525  0.3668 -0.6684 -0.2099
  444MOL0     C59860  10.973   7.123   7.173 -0.0778  0.8620  0.5942
  444MOL0     C59861  11.090   7.179   7.124  0.4146  0.2044 -0.6693
  444MOL0     C59862  11.137   7.143   6.993  0.4603 -0.2774  0.3886
  444MOL0     C59863  11.064   7.061   6.907 -0.4315  0.0226 -0.0909
  444MOL0     O59864  11.115   7.031   6.789  0.0434  0.5944  0.8686
  444MOL0     C59865  11.023   7.046   6.677 -0.4420 -0.2550 -0.9992
  444MOL0     C59866  11.098   7.024   6.543  0.4703 -0.6914  0.0406
  444MOL0     C59867  11.192   7.140   6.516 -0.4807 -0.8462 -0.5540
  444MOL0     C59868  11.252   7.142   6.376 -0.2338 -0.7717 -0.0338
  444MOL0     C59869  11.325   7.267   6.361 -0.8554  0.4307  0.0004
  444MOL0     C59870  11.383   7.376   6.376 -0.3178 -0.2852  0.0892
  444MOL0     C59871  10.946   7.002   6.955  0.1087 -0.8125 -0.6417
  444MOL0     C59872  10.902   7.042   7.082  0.5339 -0.3625  0.3055
  444MOL0     H59873  10.797   6.905   7.555 -3.7430 -2.4335 -0.3871
  444MOL0     H59874  10.784   6.968   7.799 -0.4632  0.5320  0.1948
  444MOL0     H59875  10.786   7.375   7.914 -1.0159  0.6321 -1.3826
  444MOL0     H59876  10.611   7.366   7.905  0.7872 -0.3474 -2.4097
  444MOL0     H59877  10.784   7.259   8.134  1.1928  1.7520 -0.2004
  444MOL0     H59878  10.713   7.422   8.149 -2.9099  1.5113  0.8069
  444MOL0     H59879  10.476   7.319   8.126 -0.9344  0.7625 -0.3908
  444MOL0     H59880  10.546   7.162   8.102 -3.7694  0.9702 -0.3432
  444MOL0     H59881  10.648   7.164   8.338 -0.3194  1.3635  2.0421
  444MOL0     H59882  10.573   7.318   8.371 -1.1589 -1.1688  1.9367
  444MOL0     H59883  10.416   7.086   8.292  2.1351 -0.5052 -0.9494
  444MOL0     H59884  10.451   7.145   8.456  0.5319 -1.8870 -0.5154
  444MOL0     H59885  10.305   7.356   8.390 -1.0849  0.4840 -0.5676
  444MOL0     H59886  10.289   7.271   8.228 -0.9203  1.4698  1.0472
  444MOL0     H59887  10.200   7.072   8.350  1.5836 -0.4608 -0.6964
  444MOL0     H59888  10.184   7.170   8.495 -0.1942 -0.8023 -1.2291
  444MOL0     H59889  10.051   7.334   8.402  0.0671  0.7047 -1.1707
  444MOL0     H59890   9.960   7.175   8.378 -1.8322  0.4445 -2.8500
  444MOL0     H59891  10.097   7.046   8.162  0.7002  0.8301  3.0874
  444MOL0     H59892  10.080   7.014   7.884  0.7098  0.8665  2.2513
  444MOL0     H59893  10.018   7.157   7.793  0.8401 -0.3956 -2.4195
  444MOL0     H59894  10.305   7.117   7.922 -2.3504  1.3398  1.2651
  444MOL0     H59895  10.251   7.243   7.798  1.9114 -1.1157 -0.2547
  444MOL0     H59896  10.267   6.938   7.768 -0.7944 -0.8023 -3.6029
  444MOL0     H59897  10.402   7.049   7.719  0.1258 -0.8010 -1.1664
  444MOL0     H59898  10.227   7.154   7.567 -2.2739  1.3660  2.9245
  444MOL0     H59899  10.115   7.050   7.625  0.6835  2.1459  1.1999
  444MOL0     H59900  10.236   6.815   7.306  1.3600 -1.6003 -0.0849
  444MOL0     H59901  10.273   6.725   7.080  0.6474 -1.5209 -1.0889
  444MOL0     H59902  10.304   6.859   6.967 -0.9039  0.0957  0.7865
  444MOL0     H59903  10.440   6.755   7.030 -0.2926 -2.0349  3.5714
  444MOL0     H59904  10.419   7.213   6.802 -0.6991  1.2379 -1.0093
  444MOL0     H59905  10.460   7.359   6.628 -0.6437  2.3817  3.0948
  444MOL0     H59906  10.901   7.428   6.496 -0.6170  1.1534  2.0900
  444MOL0     H59907  10.828   7.265   6.484 -0.8305  0.1301  1.3155
  444MOL0     H59908  10.792   7.498   6.277 -0.6856  0.2228  0.1720
  444MOL0     H59909  10.860   7.337   6.252  0.1828 -3.3911  4.9061
  444MOL0     H59910  10.565   7.355   6.326  0.2448  0.8276  1.0048
  444MOL0     H59911  10.666   7.225   6.262 -0.7337  0.0545 -0.9058
  444MOL0     H59912  10.609   7.492   6.129 -1.8142  0.0588 -1.3427
  444MOL0     H59913  10.708   7.353   6.069  0.6945  1.0894  0.7244
  444MOL0     H59914  10.418   7.342   6.151 -0.0919 -1.2779  1.6080
  444MOL0     H59915  10.506   7.212   6.082  2.2502  0.2628 -1.7184
  444MOL0     H59916  10.561   7.343   5.876  1.4744 -1.6616  2.1888
  444MOL0     H59917  10.401   7.277   5.894  0.2711 -2.3858  1.6909
  444MOL0     H59918  10.419   7.524   5.800  1.3878  2.4348  0.6364
  444MOL0     H59919  10.451   7.577   5.958 -0.8636 -0.1717  1.1303
  444MOL0     H59920  10.221   7.584   5.942 -0.0626 -0.0805  0.9416
  444MOL0     H59921  10.241   7.426   6.019  1.8668  0.2745  1.2740
  444MOL0     H59922  10.880   7.388   6.721 -1.8688  2.0481 -1.4363
  444MOL0     H59923  10.821   7.264   6.943 -1.6816 -0.3698  2.0122
  444MOL0     H59924  10.565   7.175   7.247  1.3418 -1.1886 -0.3700
  444MOL0     H59925  10.459   7.135   7.458 -3.5113 -1.2566  2.3091
  444MOL0     H59926  10.637   7.352   7.700  3.6220  1.3996 -0.5075
  444MOL0     H59927  10.694   7.299   7.441 -1.7368 -0.4383  0.1860
  444MOL0     H59928  11.138   7.250   7.191  3.0678 -0.3765 -1.8525
  444MOL0     H59929  11.230   7.190   6.962 -0.1168  0.9702  0.4997
  444MOL0     H59930  10.948   6.969   6.695 -1.3892  1.0820  1.2331
  444MOL0     H59931  10.974   7.143   6.688 -0.7873 -0.3417 -1.7580
  444MOL0     H59932  11.027   7.026   6.460 -1.4976  2.9057  1.5501
  444MOL0     H59933  11.147   6.926   6.542  1.9987 -0.1004 -4.5057
  444MOL0     H59934  11.275   7.128   6.588 -2.3253  0.7565  2.0099
  444MOL0     H59935  11.137   7.232   6.537 -0.9497 -1.8787  3.9654
  444MOL0     H59936  11.173   7.144   6.301  0.4158  3.2749 -0.8717
  444MOL0     H59937  11.326   7.063   6.362 -1.7067 -2.1707 -0.1900
  444MOL0     H59938  11.435   7.469   6.387 -0.8538 -0.1876  2.3834
  444MOL0     H59939  10.895   6.926   6.897 -0.5542 -0.3082 -0.7247
  444MOL0     H59940  10.813   6.991   7.118  1.5550 -0.7085  2.4959
  445MOL0     O59941   7.755   2.156   7.672  0.8655  0.4572 -0.4725
  445MOL0     C59942   7.753   2.073   7.584  1.5874 -0.6790 -1.0976
  445MOL0     O59943   7.632   2.018   7.540 -0.2688  0.6275 -0.1382
  445MOL0     C59944   7.516   2.088   7.573  1.1415  0.1782  0.2262
  445MOL0     C59945   7.488   2.223   7.557  0.0417  0.0582  0.5771
  445MOL0     C59946   7.373   2.278   7.610  0.0258  0.7747 -0.0041
  445MOL0     C59947   7.276   2.194   7.673 -1.0241  0.3666 -0.0694
  445MOL0     O59948   7.151   2.231   7.720 -1.1866 -0.1051 -0.7372
  445MOL0     C59949   7.125   2.362   7.769 -1.0652 -0.2620 -0.1247
  445MOL0     C59950   7.169   2.359   7.913  0.3433 -0.2455  1.3017
  445MOL0     C59951   7.162   2.497   7.971 -0.3080 -0.1994 -0.0538
  445MOL0     C59952   7.131   2.482   8.121 -0.1377 -0.3875  0.2389
  445MOL0     C59953   7.092   2.624   8.177  0.4666 -0.1452 -0.2122
  445MOL0     C59954   7.023   2.612   8.313  0.1462 -0.3213 -0.2894
  445MOL0     C59955   6.936   2.732   8.342 -0.7002 -0.4454  0.5213
  445MOL0     C59956   6.923   2.749   8.493  0.0056  0.0997 -0.7367
  445MOL0     N59957   7.036   2.831   8.545  0.5221  0.8851 -0.4415
  445MOL0     C59958   7.176   2.807   8.544  0.6748 -0.4396 -0.3671
  445MOL0     C59959   7.238   2.916   8.603 -0.2981  0.0054 -0.3524
  445MOL0     C59960   7.380   2.971   8.598  0.5067 -0.1741  0.2790
  445MOL0     C59961   7.484   2.888   8.519 -0.4809  0.3113  0.6189
  445MOL0     C59962   7.600   2.984   8.470 -0.1141 -0.4976 -0.3925
  445MOL0     C59963   7.718   2.904   8.419  0.9947  0.1375  1.3576
  445MOL0     O59964   7.793   2.846   8.518 -0.1233 -0.3045 -0.2068
  445MOL0     C59965   7.903   2.919   8.547 -0.3072 -0.1054 -0.0772
  445MOL0     C59966   8.035   2.883   8.504  0.0236 -1.9261 -0.8754
  445MOL0     C59967   8.151   2.933   8.567  0.3125 -0.4124  0.3331
  445MOL0     C59968   8.284   2.871   8.521  0.0622  0.6523  0.6924
  445MOL0     C59969   8.138   3.054   8.648 -0.3471 -0.5268 -0.8227
  445MOL0     C59970   8.261   3.128   8.696 -0.0351  0.5193 -0.9491
  445MOL0     O59971   8.245   3.224   8.792  0.3539  0.3323 -0.8514
  445MOL0     C59972   8.362   3.270   8.849 -1.0120 -0.1073  0.4591
  445MOL0     C59973   8.437   3.170   8.915  0.0793  0.3076  0.4615
  445MOL0     C59974   8.558   3.213   8.980  0.6774  1.8135  0.2519
  445MOL0     C59975   8.592   3.343   8.973 -0.3422 -0.3378 -0.4628
  445MOL0     O59976   8.701   3.393   9.028 -0.9275  0.3728 -0.3289
  445MOL0     C59977   8.816   3.354   8.946 -0.7748  0.2549 -0.7390
  445MOL0     C59978   8.924   3.471   8.959 -0.2958  0.2973  0.1506
  445MOL0     C59979   8.940   3.547   9.095 -0.6599 -0.4174 -0.1199
  445MOL0     C59980   9.088   3.610   9.101  0.3027  0.0169  0.3923
  445MOL0     C59981   9.080   3.722   9.193  0.0140 -0.0766 -1.6940
  445MOL0     C59982   9.086   3.657   9.330  0.3339 -0.0609 -1.1992
  445MOL0     C59983   9.107   3.753   9.445  0.8069  0.3121  0.4942
  445MOL0     C59984   9.140   3.672   9.574 -0.3087  0.9687  0.2264
  445MOL0    Cl59985   9.177   3.787   9.699 -0.0085 -0.3432 -0.4570
  445MOL0     C59986   8.511   3.438   8.911  0.0874 -0.0567  0.0749
  445MOL0     C59987   8.394   3.405   8.840 -0.1228 -0.2820 -0.1118
  445MOL0     O59988   8.360   3.115   8.628 -0.1678 -0.0104  0.7204
  445MOL0     C59989   8.011   3.101   8.678 -0.7327 -0.9183 -1.1770
  445MOL0     C59990   7.891   3.030   8.643 -0.0871 -0.0641  0.6159
  445MOL0     N59991   7.129   2.989   8.645 -0.5763 -0.1760  0.0055
  445MOL0     N59992   7.018   2.952   8.604  0.7688  0.4302 -0.1609
  445MOL0     C59993   7.310   2.053   7.692  0.4080  0.0817 -0.2413
  445MOL0     C59994   7.429   2.003   7.640  0.1742 -0.3034  0.4040
  445MOL0     C59995   7.871   2.006   7.537 -0.2769 -0.1920 -0.3148
  445MOL0     C59996   7.991   2.028   7.610  0.2468 -0.4124  0.3271
  445MOL0     C59997   8.111   1.974   7.575 -0.1222  0.5703  0.4787
  445MOL0     C59998   8.115   1.897   7.465  0.9185 -0.1679  0.1438
  445MOL0     O59999   8.240   1.848   7.438 -0.8532 -0.3048 -0.2424
  445MOL0     C60000   8.273   1.794   7.310 -0.0521 -0.2075 -0.3330
  445MOL0     C60001   8.417   1.741   7.322 -0.4378 -0.6345  0.7051
  445MOL0     C60002   8.426   1.612   7.401 -0.6371 -0.0364  0.0053
  445MOL0     C60003   8.570   1.589   7.450 -0.2993  0.3889  0.5593
  445MOL0     C60004   8.671   1.616   7.336  0.5766  0.0482 -0.8132
  445MOL0     C60005   8.747   1.647   7.241 -0.6195  0.3608 -0.4797
  445MOL0     C60006   7.996   1.865   7.389 -0.5611  0.5675 -0.5570
  445MOL0     C60007   7.871   1.919   7.430 -0.4050 -0.4221  0.1135
  445MOL0     H60008   7.566   2.271   7.499 -0.7800 -0.8099 -1.3523
  445MOL0     H60009   7.357   2.381   7.580  1.0834  0.8148 -0.4554
  445MOL0     H60010   7.171   2.442   7.711 -1.7816 -1.9238 -3.2277
  445MOL0     H60011   7.017   2.368   7.753 -1.4146 -2.3750  0.9863
  445MOL0     H60012   7.094   2.293   7.959 -0.1513 -0.2644  0.4768
  445MOL0     H60013   7.272   2.322   7.916  0.4760 -0.0839 -0.5301
  445MOL0     H60014   7.263   2.539   7.967  0.6743 -2.2109  1.6749
  445MOL0     H60015   7.083   2.560   7.929 -1.5168 -2.3661 -1.2188
  445MOL0     H60016   7.043   2.418   8.127 -2.0592  2.0745 -0.0062
  445MOL0     H60017   7.219   2.441   8.172  0.5665  2.5293  1.5473
  445MOL0     H60018   7.175   2.694   8.192  1.9908 -1.9221  0.0369
  445MOL0     H60019   7.018   2.668   8.109 -2.0546 -1.8372  1.2511
  445MOL0     H60020   6.958   2.525   8.303 -1.7664  0.8922  1.0674
  445MOL0     H60021   7.098   2.600   8.391 -2.7979 -0.6926  2.6825
  445MOL0     H60022   6.987   2.819   8.298 -3.3036  0.3631 -1.1344
  445MOL0     H60023   6.840   2.714   8.294  0.0227 -1.8257 -0.4607
  445MOL0     H60024   6.921   2.647   8.534  1.8893  0.1940 -0.3451
  445MOL0     H60025   6.827   2.796   8.518  0.3009 -0.2308  1.2570
  445MOL0     H60026   7.226   2.725   8.494  1.7318 -1.2827  1.9203
  445MOL0     H60027   7.387   3.072   8.557  3.7198  1.1474  3.5700
  445MOL0     H60028   7.412   2.980   8.702 -1.1305  0.2455  0.7801
  445MOL0     H60029   7.420   2.839   8.445 -0.9512  0.9253  0.6097
  445MOL0     H60030   7.529   2.810   8.582 -2.3701 -0.6896  0.8247
  445MOL0     H60031   7.629   3.040   8.559 -1.7370  0.9688 -0.7376
  445MOL0     H60032   7.564   3.055   8.395 -2.8373 -2.3475 -1.0074
  445MOL0     H60033   7.785   2.970   8.364 -2.0470  0.2969 -2.6057
  445MOL0     H60034   7.678   2.835   8.343 -2.2930  2.2148  0.9904
  445MOL0     H60035   8.039   2.803   8.431  2.2296 -1.8704 -0.8589
  445MOL0     H60036   8.348   2.937   8.463 -0.7571 -0.6503 -1.8436
  445MOL0     H60037   8.341   2.846   8.611  1.0242  0.9366  0.1741
  445MOL0     H60038   8.267   2.779   8.464 -1.1979  1.7601 -0.8301
  445MOL0     H60039   8.420   3.063   8.909 -4.0824  0.8659 -0.8062
  445MOL0     H60040   8.622   3.141   9.029 -0.3945  0.3955 -0.3632
  445MOL0     H60041   8.850   3.257   8.982  1.5327  1.1688 -0.3073
  445MOL0     H60042   8.787   3.334   8.843 -1.4978  2.8417 -1.1120
  445MOL0     H60043   9.019   3.426   8.929 -1.0598 -0.0855 -1.8331
  445MOL0     H60044   8.901   3.548   8.885  3.8005 -0.4239 -2.1213
  445MOL0     H60045   8.935   3.475   9.178  1.1152  0.4028  0.7269
  445MOL0     H60046   8.858   3.619   9.105 -1.7899 -1.5518 -0.8082
  445MOL0     H60047   9.164   3.535   9.124 -1.9832 -2.1925  1.2950
  445MOL0     H60048   9.116   3.641   9.000 -0.2967  0.3855  0.3351
  445MOL0     H60049   8.998   3.795   9.188  0.4804  0.9917  2.5935
  445MOL0     H60050   9.167   3.787   9.192 -1.5794  2.5160  2.5023
  445MOL0     H60051   8.987   3.613   9.348  0.3979 -1.4839 -3.8104
  445MOL0     H60052   9.169   3.586   9.336  0.4114 -0.0002 -1.5251
  445MOL0     H60053   9.020   3.814   9.469  2.9376  3.3134  1.1684
  445MOL0     H60054   9.181   3.832   9.425  0.3927  0.2658 -1.4321
  445MOL0     H60055   9.212   3.590   9.565 -1.5126 -0.8658  4.6742
  445MOL0     H60056   9.046   3.620   9.593  0.2623 -0.2718 -0.2533
  445MOL0     H60057   8.546   3.541   8.905 -0.4379  0.0245 -2.3092
  445MOL0     H60058   8.342   3.475   8.776  0.4723 -0.6796 -1.0588
  445MOL0     H60059   8.005   3.196   8.732  2.3901  0.7068 -3.3611
  445MOL0     H60060   7.796   3.050   8.693 -2.5411 -3.4361 -2.2253
  445MOL0     H60061   7.250   1.979   7.745  2.2956 -1.7281 -0.5119
  445MOL0     H60062   7.457   1.899   7.656 -1.8628 -0.7804  1.1312
  445MOL0     H60063   7.975   2.085   7.701  0.4811 -1.2311  0.8991
  445MOL0     H60064   8.208   2.000   7.618 -0.6957  2.2005  0.8626
  445MOL0     H60065   8.207   1.707   7.301  0.7977 -0.6890 -2.8017
  445MOL0     H60066   8.255   1.858   7.222 -0.4404  0.6401  0.3471
  445MOL0     H60067   8.479   1.813   7.377 -0.7406 -0.8220  1.3041
  445MOL0     H60068   8.470   1.729   7.227  1.5698  1.6131  1.4410
  445MOL0     H60069   8.408   1.530   7.331  2.3440 -0.8748  0.0663
  445MOL0     H60070   8.356   1.604   7.485  0.9608 -0.6714  1.3474
  445MOL0     H60071   8.573   1.490   7.494  0.7935  0.0893 -0.1367
  445MOL0     H60072   8.603   1.652   7.533 -0.7032 -0.0926  1.0902
  445MOL0     H60073   8.807   1.659   7.154 -1.5645  0.3793 -1.1527
  445MOL0     H60074   8.000   1.794   7.306  0.7392  0.5179 -0.4718
  445MOL0     H60075   7.781   1.909   7.370 -1.4107  1.5010  1.2075
  446MOL0     O60076   6.413  10.045   1.402 -0.2206  0.1672  0.4294
  446MOL0     C60077   6.442  10.077   1.519  0.5650 -0.2236 -0.8316
  446MOL0     O60078   6.367  10.166   1.590  0.4352  0.8578 -0.5461
  446MOL0     C60079   6.268  10.222   1.523  0.2443  0.4159  0.0178
  446MOL0     C60080   6.279  10.338   1.449 -0.1885 -0.3722 -0.7047
  446MOL0     C60081   6.165  10.385   1.383 -1.0142 -0.2745 -0.3136
  446MOL0     C60082   6.042  10.330   1.384  0.3574 -0.1854  0.4282
  446MOL0     O60083   5.941  10.399   1.316 -0.7508 -0.3977 -0.4043
  446MOL0     C60084   5.821  10.321   1.296 -0.9747 -0.0579 -0.9384
  446MOL0     C60085   5.731  10.404   1.207 -0.2443 -0.4298  0.5501
  446MOL0     C60086   5.791  10.387   1.065 -0.0088 -0.1017 -0.3615
  446MOL0     C60087   5.699  10.487   0.981 -1.1286 -0.7273  0.2436
  446MOL0     C60088   5.736  10.494   0.833  0.8400 -0.5096  0.4453
  446MOL0     C60089   5.621  10.576   0.750 -0.3995  0.6583  0.4924
  446MOL0     C60090   5.621  10.725   0.792  0.5610 -0.0471 -1.2181
  446MOL0     C60091   5.521  10.808   0.706  0.1139 -0.4802  0.0916
  446MOL0     N60092   5.508  10.948   0.765 -0.0215  0.1092 -0.0912
  446MOL0     C60093   5.619  11.029   0.788  0.8321 -0.2442 -0.9974
  446MOL0     C60094   5.565  11.155   0.807 -0.5078  0.4222  0.5971
  446MOL0     C60095   5.631  11.288   0.834 -0.2225 -1.3588  0.6233
  446MOL0     C60096   5.632  11.376   0.716  0.1910  0.0858 -0.2945
  446MOL0     C60097   5.494  11.414   0.682  0.8106  0.1474  0.6899
  446MOL0     C60098   5.475  11.492   0.552  0.3318  0.8621  1.0159
  446MOL0     O60099   5.538  11.431   0.439 -0.5918 -0.7224 -0.6093
  446MOL0     C60100   5.477  11.333   0.364 -0.3360 -0.1094 -0.2740
  446MOL0     C60101   5.387  11.234   0.399  0.5713 -0.2879  0.0945
  446MOL0     C60102   5.345  11.133   0.315  0.0724  0.5144  0.7385
  446MOL0     C60103   5.239  11.041   0.369  0.7132  0.5501 -0.0057
  446MOL0     C60104   5.390  11.132   0.183  0.3182 -0.7814 -0.7473
  446MOL0     C60105   5.351  11.031   0.078 -0.7109 -0.3205 -0.3008
  446MOL0     O60106   5.349  11.086  -0.045  0.0127 -0.8790  1.2156
  446MOL0     C60107   5.369  11.010  -0.157  0.8290 -1.2465  0.1086
  446MOL0     C60108   5.295  11.043  -0.272  0.5727 -0.1077 -0.5934
  446MOL0     C60109   5.300  10.970  -0.396  0.0894 -0.3542 -0.7310
  446MOL0     C60110   5.396  10.864  -0.406  0.1141 -0.1616 -1.0791
  446MOL0     O60111   5.395  10.792  -0.527 -0.1143 -0.6200 -0.3121
  446MOL0     C60112   5.469  10.671  -0.549 -0.3963  0.3837 -1.0485
  446MOL0     C60113   5.366  10.564  -0.505 -0.8086 -0.2898  1.0525
  446MOL0     C60114   5.408  10.419  -0.543 -0.2750 -0.8453 -0.1745
  446MOL0     C60115   5.303  10.311  -0.528  0.4010 -0.1816  0.3281
  446MOL0     C60116   5.264  10.293  -0.375  0.4804 -0.8226 -0.2773
  446MOL0     C60117   5.125  10.368  -0.358 -0.4305 -0.7628 -0.9618
  446MOL0     C60118   5.060  10.350  -0.219 -0.7125 -1.0840  0.0628
  446MOL0     C60119   5.032  10.199  -0.183  0.2465 -0.6866 -0.0254
  446MOL0    Cl60120   4.932  10.190  -0.052 -0.3099  0.0802 -0.4221
  446MOL0     C60121   5.490  10.847  -0.300  1.1440  0.3145 -0.3498
  446MOL0     C60122   5.470  10.925  -0.183 -0.8804  0.7354 -0.6047
  446MOL0     O60123   5.339  10.910   0.106 -1.3119 -0.5720 -0.0675
  446MOL0     C60124   5.461  11.246   0.140  0.1643 -0.5457  0.1722
  446MOL0     C60125   5.519  11.341   0.227  0.2094 -0.0032 -0.1164
  446MOL0     N60126   5.432  11.136   0.804 -0.2731  0.0126  0.5641
  446MOL0     N60127   5.391  11.011   0.792  0.1955 -0.1225  0.3935
  446MOL0     C60128   6.030  10.212   1.451  0.3357  0.3922 -0.3765
  446MOL0     C60129   6.140  10.161   1.526  1.0882  0.3579 -0.6161
  446MOL0     C60130   6.557  10.012   1.588 -0.3769  0.3113 -0.1898
  446MOL0     C60131   6.619   9.909   1.520 -0.9843  1.0388  0.2282
  446MOL0     C60132   6.733   9.855   1.575  0.7190  0.6696 -0.1521
  446MOL0     C60133   6.795   9.901   1.694  0.2041 -0.3275 -0.1005
  446MOL0     O60134   6.914   9.852   1.752  0.3035 -0.0666  0.1721
  446MOL0     C60135   6.990   9.762   1.668 -1.4665 -0.5972  0.2602
  446MOL0     C60136   6.974   9.607   1.688  0.7345  0.4836  0.0226
  446MOL0     C60137   6.826   9.553   1.677 -0.1927 -0.0865  0.1310
  446MOL0     C60138   6.812   9.422   1.762 -0.2007 -0.4931 -0.9897
  446MOL0     C60139   6.896   9.298   1.727 -0.4353 -0.1657 -0.9397
  446MOL0     C60140   6.966   9.203   1.685 -0.1624 -0.1516 -0.4566
  446MOL0     C60141   6.722  10.006   1.753 -0.0368 -0.2067 -0.1365
  446MOL0     C60142   6.611  10.064   1.702 -0.1452 -0.0003 -0.1494
  446MOL0     H60143   6.362  10.407   1.440 -0.3999  0.0160  0.2057
  446MOL0     H60144   6.181  10.474   1.323 -2.1847  1.1443  1.3532
  446MOL0     H60145   5.850  10.223   1.258  0.7858 -0.2382  0.7859
  446MOL0     H60146   5.785  10.305   1.398  4.2824  1.6208  1.5073
  446MOL0     H60147   5.633  10.356   1.214 -0.3132 -0.2347  0.9538
  446MOL0     H60148   5.727  10.510   1.235  0.7258 -0.5757  1.3323
  446MOL0     H60149   5.893  10.426   1.065 -0.1588  0.3527  1.1646
  446MOL0     H60150   5.790  10.286   1.022 -0.9960 -0.1862 -0.1663
  446MOL0     H60151   5.597  10.472   1.017 -0.0682 -1.6979  3.1843
  446MOL0     H60152   5.730  10.585   1.020 -0.2746 -1.8429  2.5574
  446MOL0     H60153   5.840  10.523   0.815  1.7181 -0.9885  3.9997
  446MOL0     H60154   5.725  10.392   0.793 -2.1983  0.5616 -1.8406
  446MOL0     H60155   5.634  10.583   0.642 -0.7641  0.7161  0.4483
  446MOL0     H60156   5.523  10.529   0.765 -1.2621  2.9007  2.7668
  446MOL0     H60157   5.588  10.735   0.895  1.2084  0.3673 -1.0415
  446MOL0     H60158   5.723  10.764   0.793  0.3975  0.3725 -0.3431
  446MOL0     H60159   5.423  10.759   0.706 -0.3841  0.4633  1.1750
  446MOL0     H60160   5.566  10.824   0.608  0.8448  0.7935  0.6184
  446MOL0     H60161   5.724  11.005   0.797  0.8709  0.2615  0.1841
  446MOL0     H60162   5.574  11.342   0.910  1.1351 -0.4587  1.0492
  446MOL0     H60163   5.735  11.268   0.863 -0.1957 -1.5965  0.3720
  446MOL0     H60164   5.674  11.325   0.629  1.5765 -1.5858  1.2570
  446MOL0     H60165   5.693  11.464   0.737  0.6374  0.2479 -2.1490
  446MOL0     H60166   5.457  11.468   0.769  1.9588 -0.9716  1.9184
  446MOL0     H60167   5.426  11.330   0.663  0.4926  0.8943 -1.9424
  446MOL0     H60168   5.515  11.594   0.565  0.3320  0.8256  1.3248
  446MOL0     H60169   5.368  11.487   0.532  0.4912 -2.0108  0.5868
  446MOL0     H60170   5.346  11.235   0.499  0.9573 -1.3159  0.2817
  446MOL0     H60171   5.188  10.997   0.283  0.4238  3.9870 -1.7601
  446MOL0     H60172   5.287  10.959   0.423  3.6019  2.4156  0.4339
  446MOL0     H60173   5.170  11.097   0.434 -2.3038 -3.8566  1.0744
  446MOL0     H60174   5.234  11.132  -0.270 -2.0119 -1.7785  0.6499
  446MOL0     H60175   5.239  10.988  -0.484  2.7402 -1.7516 -3.0073
  446MOL0     H60176   5.500  10.670  -0.654  1.9671  1.3030 -0.4314
  446MOL0     H60177   5.553  10.657  -0.481 -0.6004 -0.8604 -1.0249
  446MOL0     H60178   5.350  10.577  -0.398  0.5731  1.3711  1.1156
  446MOL0     H60179   5.269  10.590  -0.549 -1.3325  0.4338  2.5895
  446MOL0     H60180   5.497  10.388  -0.489  1.5387  0.5130 -2.1998
  446MOL0     H60181   5.446  10.427  -0.645 -0.5428  2.7404 -0.1480
  446MOL0     H60182   5.218  10.336  -0.592  1.0450  3.0261  0.5799
  446MOL0     H60183   5.361  10.226  -0.566  1.7460 -0.2715  2.4120
  446MOL0     H60184   5.347  10.317  -0.308 -1.0819  2.2143  0.7847
  446MOL0     H60185   5.241  10.187  -0.367  1.4234 -0.8921  3.0954
  446MOL0     H60186   5.146  10.475  -0.369 -0.0894 -0.3896  2.3433
  446MOL0     H60187   5.051  10.338  -0.432 -1.6225 -2.0130  0.6597
  446MOL0     H60188   4.967  10.408  -0.214 -0.7070 -1.0458 -0.2758
  446MOL0     H60189   5.133  10.386  -0.146  0.4512  2.4386 -2.5676
  446MOL0     H60190   5.119  10.134  -0.172  1.7405  1.0275 -1.2032
  446MOL0     H60191   4.985  10.157  -0.273 -2.0667  1.9383 -0.1654
  446MOL0     H60192   5.566  10.770  -0.301 -0.4287 -1.3049 -1.6186
  446MOL0     H60193   5.536  10.912  -0.097  1.0951  2.0058 -1.8409
  446MOL0     H60194   5.483  11.250   0.034 -1.9695  3.1709 -0.3057
  446MOL0     H60195   5.589  11.422   0.210 -0.5174  0.8816  0.9643
  446MOL0     H60196   5.932  10.164   1.445 -0.7707  2.7145 -2.8016
  446MOL0     H60197   6.131  10.071   1.587  2.1882  1.7827  1.8293
  446MOL0     H60198   6.596   9.877   1.419  0.8137 -2.1024  0.6787
  446MOL0     H60199   6.769   9.766   1.524 -0.3682 -0.7973  1.5368
  446MOL0     H60200   6.967   9.786   1.563 -1.1300 -0.3811  0.2330
  446MOL0     H60201   7.097   9.786   1.678 -1.2263 -1.3826 -0.3190
  446MOL0     H60202   7.010   9.588   1.790 -2.4864 -3.6941  0.7023
  446MOL0     H60203   7.049   9.558   1.625  2.0841  1.6826  0.6547
  446MOL0     H60204   6.797   9.544   1.572 -0.8142  0.4210  0.2501
  446MOL0     H60205   6.753   9.625   1.717 -0.4275  0.7632 -1.7317
  446MOL0     H60206   6.710   9.389   1.743 -0.9309  0.2739  1.3796
  446MOL0     H60207   6.834   9.446   1.866  0.2049 -3.2979 -0.3517
  446MOL0     H60208   7.032   9.123   1.659 -1.0664 -1.2582  0.5340
  446MOL0     H60209   6.757  10.032   1.853  1.3965 -1.2739 -0.3344
  446MOL0     H60210   6.561  10.141   1.760  1.4577 -0.1868  1.5892
  447MOL0     O60211   7.604   9.880  11.347 -0.1566  0.9048  0.1113
  447MOL0     C60212   7.562   9.827  11.240 -0.0853  0.4686  0.1377
  447MOL0     O60213   7.572   9.880  11.114  0.2291 -0.4095 -0.4514
  447MOL0     C60214   7.638  10.002  11.105  0.3275  0.0905 -0.4829
  447MOL0     C60215   7.771  10.000  11.066 -0.8322  0.1555 -0.5750
  447MOL0     C60216   7.839  10.120  11.043  0.9667  0.6384  0.2854
  447MOL0     C60217   7.769  10.244  11.055  0.2621  0.4302 -0.3053
  447MOL0     O60218   7.846  10.357  11.054  0.4896  0.4233 -0.0671
  447MOL0     C60219   7.818  10.437  11.168  0.1780  0.2917 -0.8622
  447MOL0     C60220   7.847  10.370  11.302 -0.4547 -0.4955  0.5516
  447MOL0     C60221   8.001  10.329  11.314 -0.0738 -0.6340  0.4176
  447MOL0     C60222   8.040  10.272  11.454 -0.2091  0.3861 -0.6100
  447MOL0     C60223   8.179  10.221  11.454 -0.1162  0.6818  0.3957
  447MOL0     C60224   8.244  10.206  11.584  0.8713  0.0050 -0.6952
  447MOL0     C60225   8.391  10.150  11.559 -0.0887 -1.0314 -0.1757
  447MOL0     C60226   8.470  10.135  11.685 -0.2689 -0.8578 -0.6898
  447MOL0     N60227   8.413  10.039  11.779  0.5537  0.3887 -0.0845
  447MOL0     C60228   8.425   9.903  11.765  0.3326 -0.6673 -1.0181
  447MOL0     C60229   8.367   9.849  11.876  0.9699  0.0357 -0.1196
  447MOL0     C60230   8.349   9.705  11.896  0.3691  0.5505 -0.4805
  447MOL0     C60231   8.227   9.649  11.808 -0.5614  0.3292 -0.1786
  447MOL0     C60232   8.202   9.496  11.844 -0.1021 -0.1435 -0.7690
  447MOL0     C60233   8.113   9.431  11.740  0.0585 -0.2926 -0.2459
  447MOL0     O60234   7.990   9.498  11.744 -0.3498  0.4947  0.7252
  447MOL0     C60235   7.874   9.420  11.723 -0.6471 -0.4134  0.5142
  447MOL0     C60236   7.879   9.297  11.652  0.4195  0.8999 -0.1982
  447MOL0     C60237   7.763   9.219  11.627 -0.1111 -0.1490 -0.4569
  447MOL0     C60238   7.786   9.079  11.571 -0.0335  0.2566 -0.4220
  447MOL0     C60239   7.630   9.253  11.688  0.3420 -0.9108  0.0418
  447MOL0     C60240   7.502   9.183  11.685  0.3137  0.8987 -0.4680
  447MOL0     O60241   7.407   9.211  11.787 -0.2700 -0.1602 -0.4202
  447MOL0     C60242   7.286   9.139  11.795 -0.2514  0.5142 -0.0746
  447MOL0     C60243   7.258   9.008  11.755  1.5568 -0.6995  0.0652
  447MOL0     C60244   7.136   8.951  11.796  0.5909 -0.1144  0.2764
  447MOL0     C60245   7.044   9.028  11.868  0.5655 -0.3106  0.2123
  447MOL0     O60246   6.918   8.979  11.898 -0.3001  0.5141  0.6844
  447MOL0     C60247   6.900   8.838  11.877 -0.5978 -0.1802  0.1164
  447MOL0     C60248   6.761   8.785  11.911 -0.3549 -0.9197  0.2080
  447MOL0     C60249   6.648   8.878  11.856 -0.3295  0.1405 -0.0290
  447MOL0     C60250   6.652   8.889  11.705 -0.0229  1.1515  0.8230
  447MOL0     C60251   6.734   8.993  11.632 -0.2254 -0.9821 -0.5445
  447MOL0     C60252   6.697   9.017  11.490 -0.0320 -0.5636 -0.8646
  447MOL0     C60253   6.786   9.123  11.412  0.8092  0.8106 -0.8582
  447MOL0     C60254   6.711   9.204  11.303  0.0479 -0.4058  0.8558
  447MOL0    Cl60255   6.553   9.285  11.373  0.0052 -0.3506 -0.0487
  447MOL0     C60256   7.072   9.161  11.901  0.3744 -0.7341 -0.0435
  447MOL0     C60257   7.193   9.215  11.863 -0.2460  0.0280  0.2871
  447MOL0     O60258   7.487   9.106  11.592  0.0774 -0.1209 -0.4211
  447MOL0     C60259   7.634   9.374  11.758 -0.1787  0.5849  0.3934
  447MOL0     C60260   7.751   9.453  11.778 -0.2699 -0.0013  0.5656
  447MOL0     N60261   8.331   9.949  11.962  0.6864 -0.9007  0.3183
  447MOL0     N60262   8.351  10.061  11.905 -0.8493 -0.8194  0.2876
  447MOL0     C60263   7.632  10.242  11.086  0.3639  0.7408 -0.3176
  447MOL0     C60264   7.566  10.117  11.106 -0.3023 -0.4824  0.8445
  447MOL0     C60265   7.489   9.702  11.260 -0.1510 -0.9709  1.0697
  447MOL0     C60266   7.414   9.642  11.154  0.6587  0.5774 -0.1979
  447MOL0     C60267   7.339   9.529  11.174 -0.2069  0.5277  0.3518
  447MOL0     C60268   7.345   9.461  11.292  0.1183 -0.4159 -0.2913
  447MOL0     O60269   7.244   9.364  11.302 -0.4455  0.5649  0.3613
  447MOL0     C60270   7.242   9.278  11.419  0.0884  0.2277 -0.3521
  447MOL0     C60271   7.122   9.182  11.411  0.3323 -0.4828 -0.6030
  447MOL0     C60272   7.164   9.079  11.313  0.6858 -0.4659  0.5292
  447MOL0     C60273   7.251   8.961  11.372  0.4910  0.0052 -0.5860
  447MOL0     C60274   7.170   8.868  11.448  0.3409  0.3979  0.5470
  447MOL0     C60275   7.099   8.796  11.507  0.6427 -0.2473 -0.6572
  447MOL0     C60276   7.433   9.502  11.396  0.9630  1.0058  1.0579
  447MOL0     C60277   7.489   9.635  11.382  0.7338  0.7115 -1.1694
  447MOL0     H60278   7.819   9.904  11.079 -2.1563 -0.2056  2.3642
  447MOL0     H60279   7.943  10.117  11.011  1.6706 -0.7361  2.4554
  447MOL0     H60280   7.875  10.530  11.175  0.0789  0.3000 -0.0633
  447MOL0     H60281   7.716  10.477  11.171  1.0805  2.7146  0.0634
  447MOL0     H60282   7.811  10.433  11.384 -0.4736 -0.9131  0.8714
  447MOL0     H60283   7.793  10.275  11.307  1.4321 -1.6602  0.0408
  447MOL0     H60284   8.021  10.256  11.235 -0.8292  0.0983 -0.4791
  447MOL0     H60285   8.062  10.416  11.288 -1.5915  0.1806 -0.5468
  447MOL0     H60286   8.020  10.346  11.531  1.4288  0.3611 -0.1394
  447MOL0     H60287   7.975  10.189  11.484  0.8020 -0.2930 -0.2756
  447MOL0     H60288   8.180  10.122  11.409  1.1605  0.8943 -0.0895
  447MOL0     H60289   8.234  10.281  11.381 -0.7062 -3.9777 -4.4652
  447MOL0     H60290   8.241  10.294  11.649  1.1915  0.4033 -1.2152
  447MOL0     H60291   8.188  10.129  11.638  3.3380  0.3124  2.6528
  447MOL0     H60292   8.390  10.053  11.510 -0.7003 -2.2177  2.0543
  447MOL0     H60293   8.451  10.210  11.490 -0.8989  0.5410  0.4297
  447MOL0     H60294   8.467  10.238  11.721  1.3351 -0.0505 -2.6529
  447MOL0     H60295   8.577  10.117  11.669  1.0128  2.3707  2.7189
  447MOL0     H60296   8.480   9.848  11.689  5.3234 -0.2706  1.8368
  447MOL0     H60297   8.445   9.657  11.876 -1.0548 -3.2971  0.9457
  447MOL0     H60298   8.318   9.686  11.999 -1.0817  3.6659 -0.2111
  447MOL0     H60299   8.269   9.662  11.708  0.4956  2.8617  0.5326
  447MOL0     H60300   8.134   9.705  11.819  0.2851  1.4533  1.8340
  447MOL0     H60301   8.161   9.499  11.945 -0.5829  0.9080 -0.9925
  447MOL0     H60302   8.298   9.442  11.848  0.2072  0.4479  2.7176
  447MOL0     H60303   8.107   9.322  11.747  1.6504 -0.3946  0.0150
  447MOL0     H60304   8.146   9.439  11.636 -0.9076 -1.0009 -0.6150
  447MOL0     H60305   7.962   9.262  11.592 -0.1603  3.1914 -2.5164
  447MOL0     H60306   7.738   9.006  11.637  1.6599 -1.2969 -0.8239
  447MOL0     H60307   7.745   9.080  11.470 -0.4234  0.7487 -0.2620
  447MOL0     H60308   7.892   9.053  11.561 -0.1910 -0.6529  0.1657
  447MOL0     H60309   7.332   8.951  11.699  0.0687 -1.8087 -0.8467
  447MOL0     H60310   7.125   8.845  11.775  0.1289  0.2925 -1.7649
  447MOL0     H60311   6.901   8.822  11.768 -2.4758 -1.0012  0.1872
  447MOL0     H60312   6.982   8.778  11.916 -0.2030 -0.5866 -1.2737
  447MOL0     H60313   6.746   8.687  11.863 -1.2326  0.4041 -2.3857
  447MOL0     H60314   6.759   8.785  12.021  2.4038 -0.5142  0.3317
  447MOL0     H60315   6.639   8.985  11.880  1.4571  0.5146 -0.8781
  447MOL0     H60316   6.558   8.832  11.897  0.4283 -2.0048 -0.6756
  447MOL0     H60317   6.684   8.796  11.658 -2.4218  1.3520 -1.4523
  447MOL0     H60318   6.547   8.899  11.676  0.6074 -0.2266 -2.2846
  447MOL0     H60319   6.841   8.970  11.630  0.1179  0.2016  1.3222
  447MOL0     H60320   6.727   9.079  11.699 -1.9966 -1.5542  0.0641
  447MOL0     H60321   6.714   8.916  11.450  4.1261  0.2227 -1.5401
  447MOL0     H60322   6.592   9.044  11.477 -0.3235 -1.0476  0.3835
  447MOL0     H60323   6.883   9.086  11.379  3.5670  3.4770  3.2278
  447MOL0     H60324   6.821   9.199  11.483 -0.4715  2.3405 -1.7856
  447MOL0     H60325   6.690   9.145  11.214  0.3829  0.4788  0.1813
  447MOL0     H60326   6.774   9.289  11.277 -1.6851  0.7720  0.2619
  447MOL0     H60327   7.002   9.226  11.953 -0.4289 -0.8910 -0.9162
  447MOL0     H60328   7.212   9.322  11.875 -0.3573  0.0136  0.6003
  447MOL0     H60329   7.541   9.417  11.795 -1.2825  1.7110 -3.3025
  447MOL0     H60330   7.749   9.553  11.819 -0.3084  0.4697 -0.5306
  447MOL0     H60331   7.559  10.322  11.094 -0.8070 -0.4866  2.1419
  447MOL0     H60332   7.458  10.118  11.119 -0.8047 -1.2334 -2.4023
  447MOL0     H60333   7.416   9.685  11.054  4.0701  1.6471  0.1795
  447MOL0     H60334   7.276   9.495  11.092  1.8792  0.0642 -1.1479
  447MOL0     H60335   7.340   9.230  11.427 -0.2687 -0.5218 -0.3482
  447MOL0     H60336   7.236   9.342  11.507  0.4672  1.2979 -1.0800
  447MOL0     H60337   7.027   9.232  11.390 -0.3446 -1.7777 -0.7209
  447MOL0     H60338   7.118   9.137  11.511  1.7660  3.2729  1.3135
  447MOL0     H60339   7.222   9.122  11.231 -0.5552 -0.5726 -0.4392
  447MOL0     H60340   7.076   9.036  11.264  0.6228  0.5060 -0.2417
  447MOL0     H60341   7.324   9.003  11.442  0.4333 -2.8195  1.3386
  447MOL0     H60342   7.300   8.918  11.283  0.9820  0.6073 -0.6113
  447MOL0     H60343   7.037   8.726  11.560 -0.3088  0.9041 -0.2290
  447MOL0     H60344   7.436   9.453  11.493  0.5133  1.6565  1.4064
  447MOL0     H60345   7.542   9.669  11.470 -0.8702 -0.2637  0.2324
  448MOL0     O60346  10.832   3.230   2.638  0.1987 -0.4309 -0.3661
  448MOL0     C60347  10.903   3.232   2.738  0.3717 -0.1732 -0.0308
  448MOL0     O60348  10.865   3.205   2.871  0.1764 -1.2603 -0.4615
  448MOL0     C60349  10.745   3.147   2.913 -0.7803  0.2468 -1.0278
  448MOL0     C60350  10.633   3.090   2.837 -0.5882 -1.0177  0.0007
  448MOL0     C60351  10.514   3.051   2.895  0.9548 -0.7637 -0.1473
  448MOL0     C60352  10.499   3.068   3.032  0.2588 -0.4429 -1.0243
  448MOL0     O60353  10.371   3.046   3.088 -0.4526  0.7381 -0.1152
  448MOL0     C60354  10.351   2.989   3.218 -0.7642 -0.2569  1.4013
  448MOL0     C60355  10.330   2.837   3.204  0.6124 -0.4894  0.2489
  448MOL0     C60356  10.442   2.768   3.128 -0.2850 -0.4396 -0.1525
  448MOL0     C60357  10.456   2.629   3.152 -0.6924 -0.2478  0.1284
  448MOL0     C60358  10.559   2.560   3.065  0.0640  0.5610  1.6197
  448MOL0     C60359  10.583   2.406   3.102  1.3767 -0.7362  0.9512
  448MOL0     C60360  10.684   2.328   3.004 -0.2918  0.5515  0.2679
  448MOL0     C60361  10.822   2.369   3.007  0.1912  0.5523 -0.0632
  448MOL0     N60362  10.898   2.354   3.133  0.6799 -0.9176 -0.6437
  448MOL0     C60363  10.898   2.250   3.225  0.2590  1.2268  0.4201
  448MOL0     C60364  10.961   2.297   3.340  0.7315 -0.0008 -0.3899
  448MOL0     C60365  10.991   2.216   3.472  1.1138  0.4342  0.5932
  448MOL0     C60366  11.105   2.110   3.439  0.3227 -1.1280 -0.4706
  448MOL0     C60367  11.240   2.173   3.429  0.8457 -0.2282 -0.3044
  448MOL0     C60368  11.297   2.227   3.561  0.6811  0.0633 -0.1228
  448MOL0     O60369  11.435   2.264   3.562 -0.4342 -0.6640  0.8698
  448MOL0     C60370  11.496   2.377   3.513 -0.5993 -0.2537 -0.0979
  448MOL0     C60371  11.422   2.486   3.465 -0.2682 -0.6063  0.1949
  448MOL0     C60372  11.477   2.609   3.416  0.3973 -0.4770  0.6813
  448MOL0     C60373  11.373   2.716   3.364  0.8289  0.1799 -0.2237
  448MOL0     C60374  11.618   2.623   3.414 -0.0478 -0.1263  0.2696
  448MOL0     C60375  11.694   2.742   3.362  0.0128 -0.3806 -1.3416
  448MOL0     O60376  11.833   2.724   3.364  0.2009 -0.4147 -0.4728
  448MOL0     C60377  11.916   2.836   3.364 -0.1257  0.3072 -0.3835
  448MOL0     C60378  11.963   2.898   3.479 -0.0405 -1.3862  1.0053
  448MOL0     C60379  12.039   3.013   3.478 -0.9349 -0.5085  0.3564
  448MOL0     C60380  12.085   3.070   3.364 -0.0662 -0.1155 -0.4297
  448MOL0     O60381  12.161   3.183   3.361 -0.0535  0.3635  0.6598
  448MOL0     C60382  12.292   3.142   3.313  0.4233 -0.4021 -0.6305
  448MOL0     C60383  12.393   3.251   3.366  1.0272  0.9510 -0.3477
  448MOL0     C60384  12.452   3.222   3.501 -0.1504 -0.1723  0.1963
  448MOL0     C60385  12.349   3.229   3.616 -0.4184  0.4206  0.4405
  448MOL0     C60386  12.401   3.167   3.744 -0.1800  0.6073  0.5257
  448MOL0     C60387  12.528   3.232   3.799 -0.8863 -0.2391  0.2957
  448MOL0     C60388  12.572   3.161   3.920  0.1022  0.3487 -0.4615
  448MOL0     C60389  12.597   3.252   4.035  0.2598  0.1516 -0.0266
  448MOL0    Cl60390  12.732   3.367   4.008 -0.0891 -0.4473  0.0414
  448MOL0     C60391  12.044   3.008   3.241  0.4436 -0.1224 -0.3434
  448MOL0     C60392  11.950   2.899   3.241  0.4016 -0.7329 -0.4149
  448MOL0     O60393  11.640   2.849   3.349 -0.4780 -0.5772 -0.0250
  448MOL0     C60394  11.696   2.506   3.452  0.3562 -0.6579  0.0107
  448MOL0     C60395  11.632   2.394   3.500 -0.1865  0.5643 -0.4881
  448MOL0     N60396  11.012   2.430   3.308  0.4432  0.4380  0.1745
  448MOL0     N60397  10.953   2.463   3.196  0.0024  0.0839  1.1298
  448MOL0     C60398  10.611   3.111   3.110 -0.2149  1.0433 -0.4040
  448MOL0     C60399  10.736   3.140   3.052  0.3006 -1.2871 -0.0858
  448MOL0     C60400  11.041   3.282   2.721  0.7150 -0.0977  0.0126
  448MOL0     C60401  11.085   3.368   2.619  0.1112 -0.1893  1.0137
  448MOL0     C60402  11.216   3.399   2.607  0.3097 -0.0489  0.9545
  448MOL0     C60403  11.303   3.342   2.696 -0.9242  0.3309 -1.0238
  448MOL0     O60404  11.431   3.384   2.712  1.0969 -0.2017  0.3936
  448MOL0     C60405  11.468   3.523   2.682  0.1470  0.3882  0.1444
  448MOL0     C60406  11.564   3.532   2.554  0.2758 -0.2149  0.1816
  448MOL0     C60407  11.697   3.464   2.596  0.3300  0.1805 -0.0637
  448MOL0     C60408  11.827   3.533   2.557  0.3533 -0.6507 -0.6069
  448MOL0     C60409  11.942   3.473   2.634 -0.7254 -0.2567 -0.1441
  448MOL0     C60410  12.016   3.400   2.695  0.2853  0.0558 -0.5725
  448MOL0     C60411  11.269   3.251   2.792  0.3503  0.0475 -0.5218
  448MOL0     C60412  11.129   3.223   2.809 -0.2290 -0.1239  0.1405
  448MOL0     H60413  10.645   3.064   2.732 -1.5848  0.2290 -0.4464
  448MOL0     H60414  10.426   3.022   2.839 -0.5016  2.7322  0.1269
  448MOL0     H60415  10.430   3.013   3.289  1.1462  1.1799 -1.0331
  448MOL0     H60416  10.254   3.017   3.259 -1.6988 -2.7763  1.1311
  448MOL0     H60417  10.330   2.797   3.306  1.7619  2.2763  1.4301
  448MOL0     H60418  10.241   2.819   3.143 -0.1355  3.4428 -0.0801
  448MOL0     H60419  10.435   2.789   3.021  0.8444  2.0061  0.1934
  448MOL0     H60420  10.542   2.806   3.153 -0.9422  2.7481 -1.7694
  448MOL0     H60421  10.487   2.605   3.254 -0.9750 -0.6424  0.1219
  448MOL0     H60422  10.360   2.586   3.122  0.1873 -0.6806 -2.2561
  448MOL0     H60423  10.520   2.562   2.963 -0.0052  0.7869  1.6514
  448MOL0     H60424  10.654   2.613   3.064  0.1387  0.9195 -4.0137
  448MOL0     H60425  10.613   2.421   3.207  2.4416  1.5282  0.3758
  448MOL0     H60426  10.487   2.353   3.100  0.5271  0.7665  0.7717
  448MOL0     H60427  10.673   2.219   3.006 -1.3564  0.5766 -1.8490
  448MOL0     H60428  10.647   2.352   2.904  1.8254  1.3164 -0.3833
  448MOL0     H60429  10.831   2.473   2.977  2.3614  1.1136  2.1871
  448MOL0     H60430  10.866   2.306   2.929 -2.1491  0.5790 -1.5009
  448MOL0     H60431  10.853   2.152   3.215  0.0618  1.4513 -1.2926
  448MOL0     H60432  11.009   2.302   3.536 -3.4001  3.0975 -1.2556
  448MOL0     H60433  10.907   2.163   3.518  1.5907 -1.2457 -0.3824
  448MOL0     H60434  11.075   2.042   3.358  0.9649 -0.9968 -0.8275
  448MOL0     H60435  11.111   2.033   3.516 -0.8850  0.3250  1.1483
  448MOL0     H60436  11.242   2.256   3.358 -5.3901  0.2905 -0.3612
  448MOL0     H60437  11.304   2.097   3.383 -0.0490  0.5213 -2.9814
  448MOL0     H60438  11.294   2.150   3.639  1.9361  1.1338  1.0323
  448MOL0     H60439  11.238   2.312   3.597  1.6431  0.6471  0.0941
  448MOL0     H60440  11.315   2.479   3.446 -0.3673  1.4142 -0.2355
  448MOL0     H60441  11.322   2.758   3.451 -4.6354 -2.0415 -1.9095
  448MOL0     H60442  11.416   2.785   3.290 -0.1090  0.9350 -0.0779
  448MOL0     H60443  11.291   2.666   3.311 -0.7758  0.8013  1.5727
  448MOL0     H60444  11.947   2.854   3.577  2.4598  0.0317  2.1449
  448MOL0     H60445  12.070   3.050   3.575 -2.0556 -2.7356  1.6299
  448MOL0     H60446  12.323   3.044   3.351  2.1409  1.3219  2.8687
  448MOL0     H60447  12.302   3.154   3.205 -0.5871  0.9951 -0.5873
  448MOL0     H60448  12.474   3.244   3.293  0.2976  0.7115 -1.1408
  448MOL0     H60449  12.344   3.348   3.374 -1.9680 -0.5764  1.9351
  448MOL0     H60450  12.529   3.298   3.517  0.2760 -0.7988  1.1785
  448MOL0     H60451  12.518   3.135   3.494  4.3083  3.0422 -2.5831
  448MOL0     H60452  12.306   3.330   3.623 -0.6366  0.3790 -0.2352
  448MOL0     H60453  12.260   3.170   3.592 -0.4841  0.0280  1.6198
  448MOL0     H60454  12.422   3.064   3.712  1.6018  1.2882 -0.6959
  448MOL0     H60455  12.321   3.165   3.818  0.0850  1.6481  0.8531
  448MOL0     H60456  12.613   3.228   3.731 -0.8122 -1.6869  0.4572
  448MOL0     H60457  12.491   3.334   3.816 -1.4774 -0.1662 -1.2952
  448MOL0     H60458  12.662   3.112   3.883  0.2754  0.0232  0.3685
  448MOL0     H60459  12.494   3.089   3.948  0.0388  1.4883  2.6911
  448MOL0     H60460  12.604   3.203   4.132  0.4793 -0.6294 -0.4274
  448MOL0     H60461  12.503   3.303   4.057 -1.2310 -2.6133  0.4019
  448MOL0     H60462  12.050   3.045   3.139 -2.3895  4.0519  0.7343
  448MOL0     H60463  11.917   2.862   3.145 -3.1531  1.3076 -0.1464
  448MOL0     H60464  11.804   2.512   3.455  0.4236  4.1379 -2.2696
  448MOL0     H60465  11.692   2.308   3.528  2.7238  1.4954 -3.3291
  448MOL0     H60466  10.609   3.107   3.219 -0.3615  3.3539 -0.2796
  448MOL0     H60467  10.820   3.160   3.117 -0.7982  0.8183  0.7838
  448MOL0     H60468  11.022   3.421   2.549  3.4357  2.1805 -0.4734
  448MOL0     H60469  11.272   3.453   2.531  0.2809  1.9076  2.2455
  448MOL0     H60470  11.377   3.577   2.653 -1.4391 -1.5111  1.2970
  448MOL0     H60471  11.510   3.575   2.767  0.5397  0.3514 -0.0248
  448MOL0     H60472  11.554   3.634   2.516 -6.8288 -1.6339 -3.4839
  448MOL0     H60473  11.517   3.476   2.473  0.8590 -1.4919  0.7001
  448MOL0     H60474  11.695   3.362   2.557 -3.2884 -0.0968  0.5061
  448MOL0     H60475  11.710   3.446   2.703  0.1560  0.3085 -0.0218
  448MOL0     H60476  11.821   3.639   2.586 -0.1863 -0.9399  0.3943
  448MOL0     H60477  11.841   3.528   2.449 -0.8360  0.2717 -0.8263
  448MOL0     H60478  12.073   3.330   2.753 -2.6979 -2.2881 -0.2327
  448MOL0     H60479  11.331   3.199   2.865 -2.4454  0.2375  2.1803
  448MOL0     H60480  11.091   3.148   2.878 -1.6255  3.5057  3.6730
  449MOL0     O60481   5.173   0.494   3.256 -0.2972  1.1971 -0.5785
  449MOL0     C60482   5.117   0.397   3.300 -0.2821  0.6022  0.0324
  449MOL0     O60483   5.158   0.267   3.285 -0.4921  0.3634 -0.1665
  449MOL0     C60484   5.295   0.256   3.258  0.1184 -0.5689 -0.2977
  449MOL0     C60485   5.329   0.148   3.173 -0.8797 -0.1038 -0.4531
  449MOL0     C60486   5.468   0.111   3.148  0.0761  0.3465 -1.0402
  449MOL0     C60487   5.570   0.181   3.209 -0.0508  0.3312  0.9295
  449MOL0     O60488   5.697   0.135   3.199 -0.2195 -0.4624 -0.1606
  449MOL0     C60489   5.739   0.150   3.060  0.1217  0.5313 -0.5047
  449MOL0     C60490   5.867   0.073   3.033 -0.6256 -0.7406 -1.0409
  449MOL0     C60491   5.975   0.080   3.143  0.0035  0.7725 -0.2703
  449MOL0     C60492   6.096  -0.010   3.121 -0.3409  0.3588 -0.1012
  449MOL0     C60493   6.164  -0.058   3.248 -0.1500  0.1813 -0.5636
  449MOL0     C60494   6.252  -0.185   3.219 -0.7568 -0.1155  0.5394
  449MOL0     C60495   6.302  -0.250   3.344 -0.5524  0.1103  0.7574
  449MOL0     C60496   6.375  -0.146   3.423 -0.1157 -0.8378 -0.1561
  449MOL0     N60497   6.484  -0.203   3.497 -0.2529  0.1141  0.6816
  449MOL0     C60498   6.606  -0.214   3.441  0.0713 -0.5363  0.2110
  449MOL0     C60499   6.697  -0.249   3.530 -0.2519  0.0679  0.0183
  449MOL0     C60500   6.844  -0.252   3.518  0.0682 -0.7445  0.5932
  449MOL0     C60501   6.891  -0.102   3.512  0.2570 -0.3240  0.3986
  449MOL0     C60502   6.845  -0.014   3.638 -0.1806  0.2168  0.3335
  449MOL0     C60503   6.893  -0.081   3.777 -0.0307  0.1422  0.6098
  449MOL0     O60504   7.031  -0.111   3.770 -0.2932  0.4869  0.7063
  449MOL0     C60505   7.108  -0.003   3.754  0.4654 -0.8524 -0.3340
  449MOL0     C60506   7.097   0.121   3.819  0.2328 -0.8182  0.3263
  449MOL0     C60507   7.208   0.213   3.824 -0.5104 -1.0171 -0.9920
  449MOL0     C60508   7.176   0.334   3.909  0.1899  0.0920  0.5761
  449MOL0     C60509   7.319   0.194   3.742 -1.6668  0.4316  0.1736
  449MOL0     C60510   7.441   0.284   3.721  0.3743 -0.4613 -0.5717
  449MOL0     O60511   7.527   0.266   3.609 -0.0403  0.3470 -0.1814
  449MOL0     C60512   7.637   0.348   3.603 -0.6924 -0.2171 -0.3020
  449MOL0     C60513   7.648   0.416   3.483 -0.1015 -0.0228  1.4483
  449MOL0     C60514   7.757   0.502   3.457  0.5332  0.8582 -0.6817
  449MOL0     C60515   7.860   0.507   3.548 -0.3474  0.2355  0.1264
  449MOL0     O60516   7.956   0.591   3.506 -0.4462  0.4088  0.5867
  449MOL0     C60517   8.085   0.598   3.572 -0.5679 -0.1328 -0.6924
  449MOL0     C60518   8.197   0.603   3.464 -0.0891 -0.1895  0.1717
  449MOL0     C60519   8.179   0.524   3.333 -0.8643  0.4453  0.3427
  449MOL0     C60520   8.315   0.472   3.284  0.4953  0.3862 -0.5474
  449MOL0     C60521   8.415   0.569   3.214  0.3154 -0.3991 -0.5091
  449MOL0     C60522   8.539   0.506   3.166  0.6754 -0.5548  1.3529
  449MOL0     C60523   8.635   0.601   3.092 -0.4341 -0.5822  0.1023
  449MOL0     C60524   8.737   0.518   3.019 -0.0966  0.3104  0.1490
  449MOL0    Cl60525   8.844   0.601   2.898 -0.9021  0.2911 -0.4848
  449MOL0     C60526   7.855   0.443   3.660  0.1066  0.6871 -0.4179
  449MOL0     C60527   7.746   0.354   3.691  0.1237  0.1697 -0.3578
  449MOL0     O60528   7.464   0.356   3.823 -0.0329  0.2431 -0.1223
  449MOL0     C60529   7.319   0.069   3.669 -0.5039 -1.3491  0.0674
  449MOL0     C60530   7.213  -0.022   3.672 -0.9442  0.3620 -0.0606
  449MOL0     N60531   6.621  -0.281   3.638  0.3081 -0.5824  0.0805
  449MOL0     N60532   6.492  -0.261   3.618 -0.4285  0.0645 -0.7318
  449MOL0     C60533   5.538   0.295   3.286  0.5180  0.1878 -0.2572
  449MOL0     C60534   5.405   0.331   3.311  0.1680  0.1491 -0.1639
  449MOL0     C60535   4.978   0.415   3.346 -0.9498 -0.0285  0.2136
  449MOL0     C60536   4.926   0.335   3.449 -0.0121  0.0737  0.1082
  449MOL0     C60537   4.800   0.355   3.492 -0.3462  0.5073 -0.2980
  449MOL0     C60538   4.720   0.445   3.435  0.1959 -0.4804  0.0960
  449MOL0     O60539   4.597   0.439   3.498 -0.2791 -0.2091 -0.3011
  449MOL0     C60540   4.496   0.529   3.438 -0.0702 -0.5496  0.3947
  449MOL0     C60541   4.358   0.465   3.444  0.6171  0.2096 -0.0087
  449MOL0     C60542   4.264   0.533   3.340  0.7105  0.4657  0.4933
  449MOL0     C60543   4.123   0.466   3.336 -0.2809 -0.3007  0.9525
  449MOL0     C60544   4.138   0.320   3.313 -0.4535 -0.0472  1.1817
  449MOL0     C60545   4.174   0.206   3.304  0.9443  0.0984 -0.1445
  449MOL0     C60546   4.771   0.542   3.334  0.4533  0.5015 -0.3031
  449MOL0     C60547   4.904   0.518   3.295 -0.0679 -1.3974 -0.8586
  449MOL0     H60548   5.247   0.082   3.147 -1.2727  0.9928 -2.1201
  449MOL0     H60549   5.492   0.018   3.098  1.1181 -1.2103  2.1027
  449MOL0     H60550   5.663   0.123   2.985 -2.2231  1.3288  1.4669
  449MOL0     H60551   5.744   0.259   3.049 -0.4525  0.6460  0.3095
  449MOL0     H60552   5.844  -0.033   3.020  0.7802 -1.0567 -1.1238
  449MOL0     H60553   5.900   0.124   2.942 -0.2411  2.3788  0.6819
  449MOL0     H60554   5.998   0.186   3.160  2.3514  0.4820 -1.1757
  449MOL0     H60555   5.922   0.039   3.229  1.1789 -1.3010 -0.4895
  449MOL0     H60556   6.074  -0.101   3.063  0.1852 -0.1667  0.5167
  449MOL0     H60557   6.172   0.041   3.061  1.8941 -0.8889  1.5519
  449MOL0     H60558   6.216   0.027   3.294 -2.7588  1.8301 -0.4508
  449MOL0     H60559   6.086  -0.095   3.315  0.3361 -1.9813 -1.1049
  449MOL0     H60560   6.202  -0.255   3.152  0.9301  0.3211 -1.2822
  449MOL0     H60561   6.321  -0.141   3.146 -2.9708 -0.9189 -2.1759
  449MOL0     H60562   6.232  -0.297   3.413  0.6401  1.2409  2.8524
  449MOL0     H60563   6.370  -0.326   3.304 -1.0070  1.3226 -2.6068
  449MOL0     H60564   6.315  -0.080   3.486  1.3766  1.7348 -1.2251
  449MOL0     H60565   6.427  -0.074   3.358 -0.3995  1.0507  1.6007
  449MOL0     H60566   6.615  -0.183   3.338 -4.2629  1.1740  0.1414
  449MOL0     H60567   6.894  -0.305   3.599 -1.2974  1.8137  3.2724
  449MOL0     H60568   6.869  -0.310   3.428 -0.1188 -3.3365  2.1161
  449MOL0     H60569   6.843  -0.052   3.427 -0.4290  0.2231  1.0829
  449MOL0     H60570   7.000  -0.101   3.513  0.2895 -1.3288  1.8727
  449MOL0     H60571   6.738   0.010   3.631 -0.5587 -1.5862 -0.6667
  449MOL0     H60572   6.892   0.083   3.620  0.5754 -0.1026  0.5519
  449MOL0     H60573   6.839  -0.173   3.803  2.1470 -0.7131  2.3883
  449MOL0     H60574   6.873  -0.015   3.861 -0.7341 -1.6092  1.8812
  449MOL0     H60575   7.005   0.153   3.867  1.8268  3.1767  1.1351
  449MOL0     H60576   7.068   0.339   3.927 -0.0398  0.5556 -0.8135
  449MOL0     H60577   7.219   0.328   4.010  0.1654 -3.2991  0.4927
  449MOL0     H60578   7.194   0.434   3.870  0.1607  0.7001  2.0384
  449MOL0     H60579   7.578   0.408   3.401  2.9034  2.0053 -1.5830
  449MOL0     H60580   7.755   0.567   3.370  0.1381  0.9597 -0.6019
  449MOL0     H60581   8.103   0.687   3.633 -1.1410 -0.2956 -0.2758
  449MOL0     H60582   8.100   0.512   3.638  1.8634  0.0650 -0.9222
  449MOL0     H60583   8.212   0.710   3.447 -1.9365 -0.3299 -2.9652
  449MOL0     H60584   8.296   0.576   3.503  0.8302  1.4914 -0.8488
  449MOL0     H60585   8.149   0.591   3.253 -0.3766  0.5452  0.2451
  449MOL0     H60586   8.117   0.440   3.368 -1.1515  1.2299  1.8411
  449MOL0     H60587   8.365   0.425   3.369 -1.3991 -1.3400 -0.3091
  449MOL0     H60588   8.302   0.387   3.217  2.1944  1.8358 -2.8985
  449MOL0     H60589   8.446   0.646   3.284  1.3002  0.4447 -1.8304
  449MOL0     H60590   8.362   0.627   3.139  0.7443  1.7543  0.7692
  449MOL0     H60591   8.592   0.466   3.253  2.0306  3.1794  2.4532
  449MOL0     H60592   8.506   0.425   3.100  0.2724  2.2260 -2.1518
  449MOL0     H60593   8.689   0.661   3.165 -0.9750  2.2508 -1.6831
  449MOL0     H60594   8.593   0.662   3.012  1.2963  1.3165  0.5492
  449MOL0     H60595   8.695   0.435   2.962 -1.1270  0.9883 -0.1022
  449MOL0     H60596   8.791   0.481   3.107 -1.2938 -1.8865  0.0427
  449MOL0     H60597   7.927   0.444   3.742 -0.8212  0.5330  0.4105
  449MOL0     H60598   7.753   0.284   3.774  3.7545  1.9142  1.0311
  449MOL0     H60599   7.396   0.029   3.604 -1.3209 -1.1606 -1.0318
  449MOL0     H60600   7.228  -0.104   3.602  2.4156  0.8665 -0.0811
  449MOL0     H60601   5.616   0.354   3.334  0.9726 -0.5109 -0.1341
  449MOL0     H60602   5.396   0.413   3.381 -1.9743  0.9148 -1.2441
  449MOL0     H60603   4.987   0.255   3.490  0.6531  1.7949  2.6767
  449MOL0     H60604   4.756   0.298   3.574 -0.8654  0.9090 -0.2940
  449MOL0     H60605   4.497   0.626   3.489 -2.2306 -0.1740 -0.1841
  449MOL0     H60606   4.520   0.536   3.332  2.5914  2.2692  1.0274
  449MOL0     H60607   4.321   0.479   3.546  2.4712  1.8786  0.4860
  449MOL0     H60608   4.364   0.359   3.418  2.8930  0.4943 -0.9063
  449MOL0     H60609   4.305   0.530   3.239 -3.5611 -1.6115 -1.4380
  449MOL0     H60610   4.250   0.640   3.357  3.1008  1.2274 -1.6997
  449MOL0     H60611   4.074   0.526   3.258 -1.4016 -0.6044  1.4030
  449MOL0     H60612   4.055   0.491   3.417 -0.8110  1.3379  0.0513
  449MOL0     H60613   4.196   0.103   3.289  0.3448  0.1594 -1.7035
  449MOL0     H60614   4.719   0.629   3.295  2.1243  0.8831 -1.7975
  449MOL0     H60615   4.947   0.582   3.219 -2.2241 -0.6751 -1.5307
  450MOL0     O60616   9.524   8.646   2.003  0.3841 -0.1968 -0.0587
  450MOL0     C60617   9.529   8.766   1.983  0.2757 -0.2765 -1.2386
  450MOL0     O60618   9.603   8.860   2.057  0.9290  0.1453  0.1387
  450MOL0     C60619   9.713   8.812   2.129 -0.3120  0.5260 -0.7395
  450MOL0     C60620   9.699   8.809   2.266  0.1931  0.4326  0.3535
  450MOL0     C60621   9.795   8.779   2.355 -0.2778 -0.4846 -0.4752
  450MOL0     C60622   9.916   8.722   2.301 -0.3415 -1.2958  0.0717
  450MOL0     O60623  10.017   8.670   2.374 -0.2422  0.0583 -0.1646
  450MOL0     C60624  10.019   8.677   2.520 -0.7334 -0.5028  0.1920
  450MOL0     C60625   9.947   8.547   2.567 -0.2227 -0.1290 -0.4708
  450MOL0     C60626   9.925   8.543   2.713 -0.6189  0.2524  0.8960
  450MOL0     C60627   9.792   8.603   2.752  0.1611 -0.4626 -0.3134
  450MOL0     C60628   9.761   8.603   2.899 -1.2903  0.2991 -0.2339
  450MOL0     C60629   9.617   8.657   2.916  0.4940  0.0014  1.2433
  450MOL0     C60630   9.593   8.809   2.903  0.6494 -0.4527  0.2267
  450MOL0     C60631   9.447   8.846   2.947  0.4633  0.7260 -0.5901
  450MOL0     N60632   9.418   8.988   2.944 -0.9105 -0.8008  0.1261
  450MOL0     C60633   9.496   9.079   3.014  1.1015 -1.1545 -0.8092
  450MOL0     C60634   9.458   9.197   2.957  0.0601 -1.4311  0.4605
  450MOL0     C60635   9.501   9.337   2.997 -0.2056 -0.0370 -0.1799
  450MOL0     C60636   9.377   9.431   3.020  1.3775  0.1706 -0.2087
  450MOL0     C60637   9.287   9.397   3.136 -0.7927  0.4374 -0.1072
  450MOL0     C60638   9.154   9.457   3.109  0.5125  0.4364  0.3703
  450MOL0     O60639   9.171   9.588   3.050  0.6848  0.2853 -0.0991
  450MOL0     C60640   9.059   9.664   3.034 -0.4160 -0.1776 -0.8286
  450MOL0     C60641   9.077   9.797   3.031  0.3882 -0.8935 -0.0803
  450MOL0     C60642   8.971   9.886   3.005  0.4115  0.9184 -0.2085
  450MOL0     C60643   9.023  10.029   2.998  0.1831  1.0263  0.2220
  450MOL0     C60644   8.841   9.845   3.000  0.6727  1.0950 -0.4673
  450MOL0     C60645   8.730   9.934   2.977  0.2979 -0.1446 -0.2528
  450MOL0     O60646   8.621   9.906   3.055  0.2053  0.0190 -0.0743
  450MOL0     C60647   8.519   9.989   3.035 -0.4319 -0.5391  0.7113
  450MOL0     C60648   8.495  10.092   3.128  0.5888  0.6492  0.0617
  450MOL0     C60649   8.374  10.170   3.124 -0.7304  0.4209 -0.4183
  450MOL0     C60650   8.280  10.144   3.020 -0.5881 -0.4209 -0.9173
  450MOL0     O60651   8.164  10.217   3.012  0.2969  0.3833 -0.4259
  450MOL0     C60652   8.105  10.242   2.891  0.5935  0.6198  0.2968
  450MOL0     C60653   7.973  10.309   2.924  0.0399 -0.2583 -0.5760
  450MOL0     C60654   7.870  10.216   2.997  0.1513  0.1055  0.3211
  450MOL0     C60655   7.745  10.306   3.029 -0.4938  0.3434  0.3166
  450MOL0     C60656   7.630  10.219   3.060  0.3549 -0.2740  0.7454
  450MOL0     C60657   7.554  10.275   3.171  0.0539 -0.5079 -0.0332
  450MOL0     C60658   7.416  10.205   3.183 -0.7087 -0.1794 -0.5361
  450MOL0     C60659   7.432  10.063   3.248  0.1508 -1.1463 -0.1909
  450MOL0    Cl60660   7.437  10.059   3.421 -0.0101  0.0184 -0.0369
  450MOL0     C60661   8.314  10.052   2.925  0.7963  0.3219  0.3919
  450MOL0     C60662   8.435   9.979   2.923  0.1529 -0.1020  0.4406
  450MOL0     O60663   8.742  10.027   2.887 -0.4870  1.5510  0.1366
  450MOL0     C60664   8.815   9.708   3.009 -0.2732 -0.7881 -0.3696
  450MOL0     C60665   8.923   9.621   3.030  0.3672 -0.5162 -0.7786
  450MOL0     N60666   9.348   9.173   2.875  0.4859 -0.4768 -0.9390
  450MOL0     N60667   9.336   9.049   2.865  0.3411 -0.3111  0.2766
  450MOL0     C60668   9.931   8.707   2.161 -0.8290 -0.3372 -0.3563
  450MOL0     C60669   9.828   8.758   2.075  0.0295 -0.2600  0.0892
  450MOL0     C60670   9.440   8.818   1.877 -0.6716  0.0809  0.1582
  450MOL0     C60671   9.329   8.748   1.833 -0.0790  0.4875 -0.3935
  450MOL0     C60672   9.243   8.805   1.745  0.5650 -0.7150  0.4793
  450MOL0     C60673   9.265   8.919   1.672  0.2267  0.2459  0.7192
  450MOL0     O60674   9.169   8.959   1.585  0.0793 -0.2839  0.6777
  450MOL0     C60675   9.190   9.086   1.525  0.1463 -0.1535 -0.2576
  450MOL0     C60676   9.104   9.127   1.405  0.5412  0.5348  0.8663
  450MOL0     C60677   8.970   9.193   1.433  0.1819 -0.0524 -0.2505
  450MOL0     C60678   8.895   9.133   1.554  0.4664  0.4071  0.4520
  450MOL0     C60679   8.756   9.191   1.573 -1.4007  0.5849 -0.2846
  450MOL0     C60680   8.640   9.227   1.579 -0.7330 -0.6928 -0.7543
  450MOL0     C60681   9.388   8.990   1.712 -0.1244  0.3792  0.5297
  450MOL0     C60682   9.474   8.938   1.812 -0.1753  0.8230 -0.7892
  450MOL0     H60683   9.598   8.826   2.302  0.0192  0.0978  0.0283
  450MOL0     H60684   9.775   8.804   2.459  0.0644  1.8367 -0.9140
  450MOL0     H60685  10.123   8.665   2.552 -1.1119  0.0051  1.7073
  450MOL0     H60686   9.982   8.774   2.553 -1.4545 -0.2123 -1.4081
  450MOL0     H60687   9.851   8.536   2.516 -0.3660  2.7092 -1.0126
  450MOL0     H60688  10.006   8.458   2.543 -0.6532 -0.7580  0.7067
  450MOL0     H60689   9.932   8.437   2.740  0.7306  0.3224  0.9076
  450MOL0     H60690  10.010   8.599   2.753  1.2642 -1.8942  0.1126
  450MOL0     H60691   9.785   8.709   2.726 -4.1648 -0.1835  1.2353
  450MOL0     H60692   9.709   8.553   2.701 -0.2415  2.2787 -2.5570
  450MOL0     H60693   9.759   8.500   2.935  1.4919  0.4957  0.7148
  450MOL0     H60694   9.837   8.658   2.955 -0.2012  1.1488 -2.3889
  450MOL0     H60695   9.551   8.612   2.840 -1.0741 -0.4092  2.7868
  450MOL0     H60696   9.568   8.620   3.006 -2.1116 -0.1774 -0.1389
  450MOL0     H60697   9.653   8.874   2.967  0.4300 -0.9732  0.9745
  450MOL0     H60698   9.609   8.840   2.799 -0.7329 -4.3285 -1.3400
  450MOL0     H60699   9.427   8.804   3.046 -0.9067 -3.6762 -2.5034
  450MOL0     H60700   9.375   8.792   2.885 -0.5238  0.0596  1.0708
  450MOL0     H60701   9.560   9.057   3.099  0.1664  3.8942  1.5903
  450MOL0     H60702   9.563   9.333   3.087  0.5249  0.8154 -0.6276
  450MOL0     H60703   9.569   9.368   2.917  0.4255 -0.2009  0.2818
  450MOL0     H60704   9.318   9.419   2.928 -0.1596 -0.2615  0.7986
  450MOL0     H60705   9.405   9.535   3.036 -1.2781  0.8036  0.7922
  450MOL0     H60706   9.333   9.440   3.226  2.3946 -3.6680  0.5744
  450MOL0     H60707   9.272   9.292   3.162 -1.9941  0.4465 -0.7259
  450MOL0     H60708   9.090   9.454   3.198  0.7083  0.5277  0.5145
  450MOL0     H60709   9.106   9.390   3.037  0.7473 -0.5797  1.1250
  450MOL0     H60710   9.181   9.830   3.032  0.2963 -0.5957 -0.4243
  450MOL0     H60711   8.958  10.098   2.943  0.3092 -1.3508 -3.2144
  450MOL0     H60712   9.050  10.060   3.100  1.3491  0.7169  0.0253
  450MOL0     H60713   9.109  10.023   2.931  0.7517  0.7724  0.9661
  450MOL0     H60714   8.579  10.124   3.189  1.6528  1.8199 -1.9039
  450MOL0     H60715   8.358  10.253   3.192 -0.7469  1.4864 -1.6862
  450MOL0     H60716   8.167  10.303   2.825  1.8852  0.5107  1.3730
  450MOL0     H60717   8.095  10.145   2.843  1.4156  0.0906  1.1674
  450MOL0     H60718   8.000  10.389   2.994 -0.0948  2.2002 -3.1701
  450MOL0     H60719   7.921  10.350   2.837  1.3806 -1.7268 -2.1471
  450MOL0     H60720   7.899  10.171   3.092 -2.0426 -0.3278  0.8486
  450MOL0     H60721   7.841  10.141   2.922 -0.5648  0.5077  0.1803
  450MOL0     H60722   7.767  10.371   3.115 -0.5327  0.1992  0.4347
  450MOL0     H60723   7.713  10.362   2.940 -3.0621 -1.8025 -0.2151
  450MOL0     H60724   7.663  10.120   3.091 -0.0545 -1.6444 -2.7473
  450MOL0     H60725   7.567  10.216   2.971  1.7800 -2.2026 -0.2533
  450MOL0     H60726   7.610  10.269   3.264  0.4790 -0.5699 -0.2873
  450MOL0     H60727   7.551  10.381   3.145  3.8453  0.3805  2.3881
  450MOL0     H60728   7.374  10.189   3.083  0.6522 -1.2652 -0.9720
  450MOL0     H60729   7.345  10.260   3.245 -1.8052 -2.1811  0.0472
  450MOL0     H60730   7.515  10.001   3.214  0.9705 -0.1607 -0.0312
  450MOL0     H60731   7.341  10.013   3.212  0.7852 -0.7570 -2.4559
  450MOL0     H60732   8.260  10.039   2.832  3.2891  4.4563 -1.9411
  450MOL0     H60733   8.444   9.906   2.843 -0.6219 -0.5681  0.7694
  450MOL0     H60734   8.718   9.662   2.995 -0.0707 -1.1088 -0.7181
  450MOL0     H60735   8.900   9.515   3.032 -0.3584 -0.3622 -0.4846
  450MOL0     H60736  10.018   8.662   2.116 -1.2251 -3.0749  1.3689
  450MOL0     H60737   9.849   8.750   1.969  2.5165 -1.6042  0.6084
  450MOL0     H60738   9.301   8.654   1.878  1.8388  1.0650  2.2819
  450MOL0     H60739   9.155   8.749   1.712  0.9787  0.2476 -2.5284
  450MOL0     H60740   9.162   9.159   1.601  0.8186 -0.2969  0.1402
  450MOL0     H60741   9.293   9.086   1.487  0.2280  0.0043 -0.0389
  450MOL0     H60742   9.102   9.043   1.335  3.2779  1.2102 -0.1514
  450MOL0     H60743   9.171   9.202   1.362  0.5790  1.6779  2.8245
  450MOL0     H60744   8.898   9.203   1.350  0.9253  4.0612 -0.6349
  450MOL0     H60745   8.984   9.297   1.466 -1.0009 -0.2325  0.9121
  450MOL0     H60746   8.954   9.155   1.643  0.6994 -1.3466  0.7709
  450MOL0     H60747   8.892   9.024   1.540 -3.2938  0.1552  2.1067
  450MOL0     H60748   8.535   9.242   1.587 -0.8500 -2.0431  5.7509
  450MOL0     H60749   9.421   9.078   1.659 -4.2827 -0.3115 -3.8401
  450MOL0     H60750   9.567   8.988   1.840 -1.0640  2.1361 -0.1058
  451MOL0     O60751   8.132  11.375   6.207  0.9112 -0.1381 -0.3734
  451MOL0     C60752   8.057  11.290   6.154 -0.5044  0.4495  0.5150
  451MOL0     O60753   7.926  11.305   6.124 -1.0186 -0.5401  0.0941
  451MOL0     C60754   7.872  11.431   6.150 -0.5299  0.0294  0.5293
  451MOL0     C60755   7.879  11.497   6.276 -0.5802  0.4323  0.5194
  451MOL0     C60756   7.810  11.615   6.295  0.7751 -0.1479  0.5148
  451MOL0     C60757   7.756  11.695   6.191  0.2045 -0.8333  1.0950
  451MOL0     O60758   7.699  11.817   6.223 -0.5976  0.2629 -0.0022
  451MOL0     C60759   7.623  11.878   6.122  0.0304  0.9995 -0.4186
  451MOL0     C60760   7.577  12.013   6.176  0.8875 -1.0053  0.1533
  451MOL0     C60761   7.697  12.109   6.181  0.2909 -0.0244  0.0061
  451MOL0     C60762   7.662  12.248   6.225  1.1805 -0.4341  0.9863
  451MOL0     C60763   7.771  12.339   6.200 -0.1100 -0.1448 -0.1155
  451MOL0     C60764   7.747  12.479   6.261 -0.6178  0.0703 -0.3473
  451MOL0     C60765   7.852  12.582   6.224 -0.2884 -0.2753  0.0880
  451MOL0     C60766   7.824  12.725   6.268  0.7210 -0.5136  0.4015
  451MOL0     N60767   7.944  12.806   6.260 -0.8044  0.0414 -0.2475
  451MOL0     C60768   8.015  12.877   6.359 -0.1267  0.4700 -0.0470
  451MOL0     C60769   8.110  12.943   6.294 -0.9009  0.8828 -0.7420
  451MOL0     C60770   8.224  13.014   6.363  0.4855 -0.4948 -0.7171
  451MOL0     C60771   8.219  13.160   6.312  0.2219  0.0069  0.7161
  451MOL0     C60772   8.290  13.272   6.402 -0.5474  0.2803 -0.1029
  451MOL0     C60773   8.248  13.405   6.358 -0.0823 -0.1019  0.2229
  451MOL0     O60774   8.231  13.478   6.486 -0.4051  0.2339  0.3376
  451MOL0     C60775   8.333  13.521   6.563 -0.4831  0.0864 -0.2304
  451MOL0     C60776   8.304  13.539   6.694  0.1113  0.3808  0.1797
  451MOL0     C60777   8.405  13.576   6.795  1.0233  0.3332 -0.1696
  451MOL0     C60778   8.365  13.570   6.941  0.3390 -0.9874 -0.3788
  451MOL0     C60779   8.534  13.618   6.742  0.4367  0.0473  0.7156
  451MOL0     C60780   8.641  13.646   6.840  0.0969 -0.5761 -0.3671
  451MOL0     O60781   8.646  13.770   6.909 -0.4465 -0.2321 -0.1145
  451MOL0     C60782   8.554  13.867   6.884 -0.4887  0.1729 -0.2797
  451MOL0     C60783   8.533  13.917   6.751 -0.3364 -1.0010 -0.1281
  451MOL0     C60784   8.444  14.021   6.732  0.0862 -0.3465 -0.2891
  451MOL0     C60785   8.362  14.070   6.836 -0.1435 -0.4245  0.2414
  451MOL0     O60786   8.278  14.174   6.807  0.2742  0.2055  1.4406
  451MOL0     C60787   8.205  14.251   6.908  0.6221  0.3443  0.3250
  451MOL0     C60788   8.147  14.364   6.833  0.4212  0.3909  0.0231
  451MOL0     C60789   8.056  14.462   6.907  0.2035 -0.3888 -0.3200
  451MOL0     C60790   8.102  14.529   7.042  1.0563  0.3036 -0.3845
  451MOL0     C60791   8.239  14.597   7.045 -0.4774 -0.0204 -0.2844
  451MOL0     C60792   8.307  14.601   7.184 -0.7585 -0.1815  0.0531
  451MOL0     C60793   8.241  14.701   7.267  0.6629 -0.5507  0.7827
  451MOL0     C60794   8.330  14.743   7.381  0.0967 -0.2781  1.3108
  451MOL0    Cl60795   8.395  14.595   7.463  0.1903 -0.0452 -0.1939
  451MOL0     C60796   8.392  14.018   6.959 -0.2808 -0.2388 -0.0004
  451MOL0     C60797   8.483  13.918   6.989  0.8054  0.5334 -0.4739
  451MOL0     O60798   8.703  13.546   6.882 -0.0020 -0.0876  0.2232
  451MOL0     C60799   8.561  13.603   6.600  0.5132  0.8752 -1.3451
  451MOL0     C60800   8.462  13.568   6.509 -0.5479  0.1570 -0.1127
  451MOL0     N60801   8.089  12.927   6.158  0.7517  0.3074  0.4333
  451MOL0     N60802   8.005  12.835   6.141  0.2394  0.3811  0.1334
  451MOL0     C60803   7.753  11.636   6.064  0.0665  1.1333 -0.1415
  451MOL0     C60804   7.819  11.508   6.045 -0.2980 -0.2966  0.4763
  451MOL0     C60805   8.120  11.160   6.120 -0.1967  0.5177  1.0023
  451MOL0     C60806   8.047  11.052   6.079 -0.0298  0.7641  0.6839
  451MOL0     C60807   8.100  10.930   6.051  0.3191  0.6297  0.4662
  451MOL0     C60808   8.234  10.897   6.079  1.2786  0.9063 -0.4066
  451MOL0     O60809   8.270  10.766   6.046  0.4416 -0.2246 -0.0446
  451MOL0     C60810   8.401  10.722   6.096 -0.9351  0.4580 -0.2651
  451MOL0     C60811   8.488  10.696   5.975 -0.5404 -0.4300  0.1083
  451MOL0     C60812   8.549  10.829   5.901 -0.0987 -0.1153 -0.5688
  451MOL0     C60813   8.643  10.782   5.790  0.2077  0.4177 -0.6729
  451MOL0     C60814   8.682  10.889   5.694  0.0369  1.0464 -0.3477
  451MOL0     C60815   8.700  10.973   5.612 -0.6214  0.0632  0.2221
  451MOL0     C60816   8.314  11.002   6.119 -0.3679 -0.1168  0.8475
  451MOL0     C60817   8.256  11.130   6.128  0.0173  0.4390  0.3637
  451MOL0     H60818   7.944  11.468   6.358  2.6612  2.8344 -0.9543
  451MOL0     H60819   7.806  11.664   6.392  0.3700  3.4231 -1.1809
  451MOL0     H60820   7.672  11.900   6.027  0.4885  2.1863  0.0646
  451MOL0     H60821   7.539  11.810   6.104  0.0025  1.2367 -1.2044
  451MOL0     H60822   7.516  12.069   6.104  1.0202  2.1843  2.3104
  451MOL0     H60823   7.512  12.009   6.264 -1.2561 -1.6235 -1.3964
  451MOL0     H60824   7.770  12.070   6.253 -1.8351 -3.5165  0.5122
  451MOL0     H60825   7.740  12.107   6.080  1.7505 -4.3680  0.4910
  451MOL0     H60826   7.571  12.277   6.172 -0.8324 -2.2443  3.1848
  451MOL0     H60827   7.619  12.238   6.326  0.6570 -3.6253  0.5551
  451MOL0     H60828   7.855  12.297   6.256 -0.2379  1.0853  1.0512
  451MOL0     H60829   7.799  12.360   6.097  3.6101  4.6262  1.4811
  451MOL0     H60830   7.653  12.517   6.219  0.6169  3.8816 -0.0723
  451MOL0     H60831   7.738  12.471   6.369  0.9092 -2.3548 -0.3216
  451MOL0     H60832   7.945  12.542   6.264 -0.5481 -2.6557 -1.4773
  451MOL0     H60833   7.870  12.583   6.117  0.4093  0.8229  0.2068
  451MOL0     H60834   7.799  12.722   6.374 -3.5006 -0.8762 -0.4180
  451MOL0     H60835   7.741  12.772   6.214  0.2093  0.5366  2.0302
  451MOL0     H60836   8.000  12.876   6.466  1.7847  1.8662  0.2802
  451MOL0     H60837   8.208  13.017   6.471 -2.8203 -1.3693 -1.0861
  451MOL0     H60838   8.323  12.974   6.340 -0.1930 -1.2770 -2.4237
  451MOL0     H60839   8.113  13.184   6.310 -0.7564 -3.7714 -0.2974
  451MOL0     H60840   8.265  13.157   6.213  2.7636 -1.0785  1.8273
  451MOL0     H60841   8.398  13.260   6.409 -0.6139  0.0401  0.7376
  451MOL0     H60842   8.249  13.259   6.503  1.8535 -1.5625  0.7385
  451MOL0     H60843   8.153  13.404   6.305 -0.6643 -1.2265  1.2341
  451MOL0     H60844   8.317  13.453   6.288 -1.2355  0.2253 -0.7232
  451MOL0     H60845   8.200  13.519   6.716 -0.2331  2.1595  0.3406
  451MOL0     H60846   8.444  13.531   7.006  1.2297 -1.4382 -1.6701
  451MOL0     H60847   8.343  13.675   6.961 -3.2891 -1.1016 -2.8417
  451MOL0     H60848   8.272  13.517   6.961  1.1937 -1.2732  3.5852
  451MOL0     H60849   8.596  13.883   6.669  2.1171  0.8929  0.8376
  451MOL0     H60850   8.429  14.076   6.639 -0.2030 -0.5876 -0.3875
  451MOL0     H60851   8.124  14.195   6.955  0.0453 -0.5561 -1.6224
  451MOL0     H60852   8.285  14.285   6.974  1.3495 -0.6466 -0.0234
  451MOL0     H60853   8.234  14.419   6.796  0.5527  0.0376 -0.1925
  451MOL0     H60854   8.094  14.333   6.743  1.6536  3.5879 -1.9725
  451MOL0     H60855   7.963  14.411   6.936 -2.1448  2.0054 -3.0096
  451MOL0     H60856   8.025  14.538   6.834  1.2541 -0.3568 -0.7482
  451MOL0     H60857   8.023  14.594   7.080 -0.8056 -2.3769  0.5852
  451MOL0     H60858   8.100  14.450   7.117 -1.0121  1.6302  1.0466
  451MOL0     H60859   8.232  14.695   6.996  1.7194 -1.3144 -3.5345
  451MOL0     H60860   8.302  14.535   6.981 -0.2204 -0.4462  0.3807
  451MOL0     H60861   8.322  14.502   7.229 -0.4703 -0.0989  0.1473
  451MOL0     H60862   8.403  14.651   7.163 -0.5572 -1.1852 -1.5707
  451MOL0     H60863   8.148  14.655   7.303  0.8742  0.5617  2.9428
  451MOL0     H60864   8.210  14.782   7.201 -0.5064 -0.1560  1.7806
  451MOL0     H60865   8.288  14.810   7.456  1.3009  2.6030 -0.4032
  451MOL0     H60866   8.416  14.804   7.351  0.9177 -2.1082 -0.2793
  451MOL0     H60867   8.332  14.051   7.043 -2.4581 -1.4848 -0.9667
  451MOL0     H60868   8.473  13.864   7.083 -1.5752  1.0491 -0.3713
  451MOL0     H60869   8.663  13.605   6.563  1.3120  1.2946  0.6880
  451MOL0     H60870   8.494  13.545   6.408  0.1660  1.6565 -0.2447
  451MOL0     H60871   7.716  11.694   5.980  0.1716  0.8565 -0.3790
  451MOL0     H60872   7.837  11.476   5.943 -1.7061 -1.1337  0.4698
  451MOL0     H60873   7.942  11.062   6.055  0.3557 -0.3347 -1.8173
  451MOL0     H60874   8.037  10.846   6.025  2.4839 -0.8022 -0.5006
  451MOL0     H60875   8.456  10.777   6.173  0.2138 -1.3256  0.2391
  451MOL0     H60876   8.400  10.627   6.150  0.2570  1.5290  1.7787
  451MOL0     H60877   8.444  10.634   5.896  3.5528 -2.5684 -0.7843
  451MOL0     H60878   8.577  10.640   6.008 -0.8391 -1.9438 -1.4923
  451MOL0     H60879   8.594  10.901   5.970 -0.2166 -1.3202  0.8346
  451MOL0     H60880   8.475  10.887   5.846 -0.4035 -1.2065 -1.3415
  451MOL0     H60881   8.588  10.705   5.735 -0.2103  0.0374  0.2516
  451MOL0     H60882   8.734  10.739   5.831  0.7504  1.7750 -0.3983
  451MOL0     H60883   8.696  11.063   5.555  0.7389  0.7632  1.1834
  451MOL0     H60884   8.421  10.988   6.132  0.0102  2.5483  1.0563
  451MOL0     H60885   8.318  11.213   6.163 -1.5618  1.1233  1.6937
  452MOL0     O60886   3.319   6.622   4.064  0.3851 -0.1697  0.2304
  452MOL0     C60887   3.285   6.625   3.948 -0.8752 -0.0481  0.3970
  452MOL0     O60888   3.228   6.727   3.880  0.1697 -0.1574  0.2041
  452MOL0     C60889   3.242   6.852   3.935  0.3711  0.0236 -0.4783
  452MOL0     C60890   3.145   6.944   3.906  0.0905  0.0295 -0.5983
  452MOL0     C60891   3.148   7.077   3.942 -1.1913 -1.0969  0.6796
  452MOL0     C60892   3.255   7.123   4.017 -0.7398  0.3576 -0.7885
  452MOL0     O60893   3.257   7.252   4.049 -0.2046 -0.5997  0.3973
  452MOL0     C60894   3.382   7.310   4.086  0.2125 -0.3712  0.5445
  452MOL0     C60895   3.375   7.465   4.089  0.0559 -0.0879 -1.0795
  452MOL0     C60896   3.510   7.533   4.135 -0.2128  0.2366  0.0491
  452MOL0     C60897   3.502   7.682   4.112 -0.1034  0.0656 -0.4208
  452MOL0     C60898   3.635   7.743   4.155 -0.2357 -0.1115  0.0492
  452MOL0     C60899   3.635   7.892   4.115 -0.7931  0.1348 -0.7236
  452MOL0     C60900   3.769   7.953   4.162 -1.2514  0.0989 -0.4784
  452MOL0     C60901   3.779   8.093   4.085 -0.0419  0.2949 -0.3462
  452MOL0     N60902   3.907   8.166   4.096  0.0735 -0.0382 -0.2160
  452MOL0     C60903   3.997   8.191   3.992 -0.3318  0.0213 -0.1137
  452MOL0     C60904   4.109   8.233   4.052 -0.1136  0.0997 -0.7918
  452MOL0     C60905   4.232   8.274   3.972  0.2683  0.0752  0.6483
  452MOL0     C60906   4.345   8.364   4.041  1.1579 -0.0092  0.1584
  452MOL0     C60907   4.281   8.499   4.089 -0.3534  1.6516 -0.3833
  452MOL0     C60908   4.221   8.593   3.986  0.2320 -0.8665 -0.1682
  452MOL0     O60909   4.114   8.557   3.912 -0.1134  1.0307  0.1230
  452MOL0     C60910   4.069   8.622   3.798  0.3845  0.2071 -0.3671
  452MOL0     C60911   4.129   8.729   3.728 -0.0347  0.6865 -0.7282
  452MOL0     C60912   4.076   8.782   3.610 -0.2282 -0.3864  0.7668
  452MOL0     C60913   4.165   8.871   3.525  0.3094  0.2002  0.0003
  452MOL0     C60914   3.946   8.744   3.564  0.4826  1.1109 -0.5790
  452MOL0     C60915   3.874   8.801   3.448  0.2204  0.6441 -0.7544
  452MOL0     O60916   3.892   8.929   3.415 -0.3261 -0.6764 -0.0356
  452MOL0     C60917   3.829   8.977   3.303  0.8673 -1.5468  0.2923
  452MOL0     C60918   3.884   8.954   3.174  0.9773  0.3180 -0.3173
  452MOL0     C60919   3.808   8.974   3.061  1.0474  0.5563  0.3667
  452MOL0     C60920   3.678   9.041   3.072 -0.1008  0.7581  0.8207
  452MOL0     O60921   3.603   9.083   2.963  0.1960 -0.0191 -0.3953
  452MOL0     C60922   3.607   8.995   2.849  0.4390 -0.1385 -1.2574
  452MOL0     C60923   3.650   9.076   2.720 -1.2274 -0.4798  0.1133
  452MOL0     C60924   3.781   9.147   2.730  0.5838 -0.0980 -0.3107
  452MOL0     C60925   3.796   9.253   2.620  0.2948 -0.2795 -0.2692
  452MOL0     C60926   3.930   9.326   2.600  0.4103 -0.9340  0.1919
  452MOL0     C60927   3.920   9.458   2.520  0.0802  0.3464  0.5831
  452MOL0     C60928   4.055   9.509   2.467 -0.5176 -0.1580  0.1994
  452MOL0     C60929   4.034   9.594   2.344 -0.5274  0.2605 -1.1314
  452MOL0    Cl60930   3.940   9.739   2.372 -0.8231 -0.5190  0.3332
  452MOL0     C60931   3.634   9.087   3.197  0.3705  0.3694  0.0939
  452MOL0     C60932   3.708   9.050   3.317  0.6701 -0.3894  1.0740
  452MOL0     O60933   3.801   8.722   3.381 -0.8815 -0.6540 -0.6033
  452MOL0     C60934   3.888   8.630   3.636  0.3958 -0.1402  0.5814
  452MOL0     C60935   3.948   8.571   3.748  0.4506 -1.2016 -0.3033
  452MOL0     N60936   4.083   8.242   4.189  0.9471  0.6111  0.4615
  452MOL0     N60937   3.958   8.208   4.210  0.0290 -0.2849 -0.3238
  452MOL0     C60938   3.360   7.035   4.041  0.5902 -0.4063  0.2878
  452MOL0     C60939   3.355   6.901   3.995  0.6753  0.1318  0.7699
  452MOL0     C60940   3.312   6.503   3.877  1.3054  0.2281 -0.0147
  452MOL0     C60941   3.317   6.384   3.946 -0.2464 -0.1665  0.3383
  452MOL0     C60942   3.343   6.268   3.861  0.5835  0.0414  0.5734
  452MOL0     C60943   3.370   6.268   3.731  1.1873 -0.3764 -0.4035
  452MOL0     O60944   3.407   6.141   3.671  0.5958 -0.4249 -0.8893
  452MOL0     C60945   3.435   6.129   3.531  0.2804 -0.6047  0.5960
  452MOL0     C60946   3.532   6.010   3.515 -0.1254 -0.1368  0.6248
  452MOL0     C60947   3.669   6.048   3.559  0.0649 -0.1629 -0.6544
  452MOL0     C60948   3.696   6.035   3.715  0.2909  0.7743  0.5446
  452MOL0     C60949   3.694   5.895   3.752 -0.3873  0.0611 -1.0115
  452MOL0     C60950   3.686   5.782   3.795  0.6811  0.1605 -0.3024
  452MOL0     C60951   3.358   6.391   3.660 -1.0040  0.0803 -0.9962
  452MOL0     C60952   3.317   6.505   3.733 -0.5298 -0.3722 -0.1449
  452MOL0     H60953   3.064   6.907   3.844 -1.4706  1.2636  0.6164
  452MOL0     H60954   3.079   7.153   3.906  0.2719 -0.3563 -0.7020
  452MOL0     H60955   3.418   7.277   4.184  2.6102 -1.4376 -0.6311
  452MOL0     H60956   3.462   7.276   4.020 -1.9548  0.3372 -2.7029
  452MOL0     H60957   3.346   7.504   3.991  0.2924 -0.1324 -1.1691
  452MOL0     H60958   3.303   7.500   4.163  0.8192 -1.1455  0.2073
  452MOL0     H60959   3.528   7.515   4.242 -1.0556  2.1294  0.5523
  452MOL0     H60960   3.583   7.487   4.068  2.3042  5.1309 -1.0806
  452MOL0     H60961   3.481   7.702   4.007 -1.9760  0.3581 -0.0173
  452MOL0     H60962   3.419   7.719   4.172  1.5210  2.0909  0.7011
  452MOL0     H60963   3.640   7.725   4.263 -2.3664 -0.0081  0.1936
  452MOL0     H60964   3.729   7.702   4.117  1.0263  1.7749  0.9795
  452MOL0     H60965   3.645   7.906   4.007  2.6683  1.1049 -0.3971
  452MOL0     H60966   3.557   7.955   4.159  0.3439 -0.2333  2.0377
  452MOL0     H60967   3.767   7.972   4.270 -2.4605 -1.3742 -0.2232
  452MOL0     H60968   3.846   7.882   4.131 -0.8164  1.2677 -2.2141
  452MOL0     H60969   3.695   8.156   4.114 -2.6070 -2.5451 -1.0580
  452MOL0     H60970   3.766   8.068   3.979 -2.0428 -1.3380  0.2152
  452MOL0     H60971   3.987   8.191   3.884  0.7774  2.9886 -0.3129
  452MOL0     H60972   4.272   8.179   3.935 -1.9435 -1.5678  2.2022
  452MOL0     H60973   4.194   8.335   3.890  0.9221  2.2625  1.8746
  452MOL0     H60974   4.431   8.373   3.973  1.2715 -1.0200  0.1476
  452MOL0     H60975   4.380   8.309   4.129 -0.1022 -0.5090  0.3562
  452MOL0     H60976   4.369   8.545   4.136  0.7284 -1.0469  0.4406
  452MOL0     H60977   4.214   8.464   4.167 -1.5238  0.2849 -1.9278
  452MOL0     H60978   4.306   8.613   3.920 -0.6273  3.0480 -0.3298
  452MOL0     H60979   4.201   8.685   4.042 -2.2873 -1.4161 -0.0686
  452MOL0     H60980   4.222   8.767   3.769 -1.2701  2.7428  0.3699
  452MOL0     H60981   4.122   8.972   3.524  0.2920  0.1966 -1.6305
  452MOL0     H60982   4.267   8.870   3.565  0.6825 -1.4892 -0.9189
  452MOL0     H60983   4.160   8.849   3.418 -0.2013  3.6532 -0.8334
  452MOL0     H60984   3.983   8.912   3.168  0.4274 -1.1583  0.3880
  452MOL0     H60985   3.840   8.953   2.959  0.6707 -2.0137  0.7160
  452MOL0     H60986   3.670   8.906   2.855  0.2556 -0.2429 -0.8616
  452MOL0     H60987   3.506   8.959   2.829  1.2738 -3.8797  0.4379
  452MOL0     H60988   3.646   9.014   2.630 -0.9772 -1.7526  0.9511
  452MOL0     H60989   3.567   9.144   2.698 -1.6837 -1.1073 -0.1381
  452MOL0     H60990   3.863   9.075   2.729 -0.6720 -1.6140 -2.2341
  452MOL0     H60991   3.791   9.194   2.828 -1.1436 -1.1794  0.4340
  452MOL0     H60992   3.750   9.218   2.528 -1.0526 -1.0067  0.6451
  452MOL0     H60993   3.733   9.332   2.663  3.4121  2.1314  0.2712
  452MOL0     H60994   4.001   9.251   2.565 -1.3628 -3.2999  1.4310
  452MOL0     H60995   3.967   9.365   2.695 -1.5507 -0.3357  0.7584
  452MOL0     H60996   3.872   9.423   2.428 -1.3793  2.6019  0.4232
  452MOL0     H60997   3.862   9.537   2.568 -2.7195 -0.5750 -1.0199
  452MOL0     H60998   4.122   9.426   2.442 -2.0364 -0.2378 -4.7261
  452MOL0     H60999   4.104   9.572   2.541 -0.6200 -0.6561  0.6982
  452MOL0     H61000   3.988   9.531   2.268  1.0128 -0.1845 -1.7218
  452MOL0     H61001   4.130   9.628   2.303 -1.2872  2.0138 -1.5663
  452MOL0     H61002   3.535   9.131   3.202  0.2631  0.2359 -0.7004
  452MOL0     H61003   3.666   9.071   3.415  1.8872  1.0763  1.3238
  452MOL0     H61004   3.798   8.582   3.599  3.0852 -3.9692 -1.6259
  452MOL0     H61005   3.894   8.482   3.779  0.5164 -0.5187  1.9314
  452MOL0     H61006   3.444   7.053   4.107 -1.4147 -3.1552  3.9853
  452MOL0     H61007   3.435   6.831   4.020 -0.6818 -1.9281 -0.3708
  452MOL0     H61008   3.306   6.389   4.054 -0.3212  0.6880  0.2983
  452MOL0     H61009   3.336   6.175   3.916  1.3903 -0.4178 -0.0795
  452MOL0     H61010   3.351   6.123   3.461  0.0333  0.3196  0.8024
  452MOL0     H61011   3.484   6.223   3.503 -1.4068 -0.0472 -0.6675
  452MOL0     H61012   3.528   5.981   3.410  1.9883 -0.5459  0.6215
  452MOL0     H61013   3.486   5.928   3.571 -1.4159  1.2838  1.7294
  452MOL0     H61014   3.685   6.154   3.538 -0.0457 -0.3335 -1.6596
  452MOL0     H61015   3.724   5.970   3.505  0.0276 -0.2928 -0.5068
  452MOL0     H61016   3.624   6.098   3.768 -1.2012  2.3983 -3.0764
  452MOL0     H61017   3.799   6.069   3.731  0.0008  1.2429  1.5191
  452MOL0     H61018   3.669   5.680   3.824 -1.9825  0.0435 -1.9447
  452MOL0     H61019   3.383   6.411   3.556  0.3627 -1.3031 -0.9824
  452MOL0     H61020   3.332   6.600   3.682  1.3668  0.6604  2.1389
  453MOL0     O61021   4.537   5.738   0.041 -0.3716 -0.1640  0.4815
  453MOL0     C61022   4.607   5.665  -0.033  0.0996  0.9557  1.0882
  453MOL0     O61023   4.559   5.581  -0.120  0.0289  0.4242  0.2739
  453MOL0     C61024   4.431   5.557  -0.148 -0.2313 -0.1509 -0.3502
  453MOL0     C61025   4.324   5.609  -0.079 -0.4375  0.3357  0.6638
  453MOL0     C61026   4.195   5.589  -0.132  0.0902  0.1446  0.1735
  453MOL0     C61027   4.171   5.514  -0.248 -0.8637  0.0965  0.7713
  453MOL0     O61028   4.040   5.496  -0.275 -0.1068  0.3233 -0.0185
  453MOL0     C61029   3.992   5.401  -0.365  0.5735  0.6130 -0.4313
  453MOL0     C61030   3.833   5.417  -0.387 -0.9890 -1.2903 -1.4974
  453MOL0     C61031   3.781   5.294  -0.461 -0.2576  0.5888  0.4994
  453MOL0     C61032   3.636   5.295  -0.486  0.1232  0.4608 -0.2653
  453MOL0     C61033   3.597   5.160  -0.554 -0.3599 -0.9483  0.5624
  453MOL0     C61034   3.454   5.180  -0.608  0.6738 -0.9254  0.8135
  453MOL0     C61035   3.388   5.044  -0.652 -0.0471  0.3116 -0.7720
  453MOL0     C61036   3.242   5.042  -0.691  0.1866 -0.2571  0.2590
  453MOL0     N61037   3.211   4.913  -0.759  0.4107 -0.6452  0.4675
  453MOL0     C61038   3.153   4.805  -0.695  0.3790  0.9627 -0.0587
  453MOL0     C61039   3.155   4.707  -0.788 -0.0501  0.3319  0.3433
  453MOL0     C61040   3.151   4.558  -0.757  0.3376 -0.7193 -0.4716
  453MOL0     C61041   3.267   4.530  -0.662 -0.4034  0.6112 -0.2026
  453MOL0     C61042   3.401   4.584  -0.696 -0.2380  0.8426 -0.0252
  453MOL0     C61043   3.505   4.541  -0.603 -0.8908  0.1233 -0.8257
  453MOL0     O61044   3.491   4.586  -0.463  0.4680 -0.4346  0.0047
  453MOL0     C61045   3.613   4.598  -0.404  0.0699 -0.3924  0.3938
  453MOL0     C61046   3.656   4.475  -0.347 -0.1236 -0.4096 -0.1205
  453MOL0     C61047   3.774   4.472  -0.272  0.0482  1.0040 -0.0614
  453MOL0     C61048   3.818   4.339  -0.215  0.6519 -0.4432  0.1446
  453MOL0     C61049   3.847   4.593  -0.246  0.3807  0.4485  0.3274
  453MOL0     C61050   3.973   4.601  -0.170  0.0694  0.5957  0.3901
  453MOL0     O61051   3.995   4.711  -0.097 -0.1261 -0.4001 -0.0216
  453MOL0     C61052   4.107   4.727  -0.010 -0.6215  0.7245  0.3262
  453MOL0     C61053   4.167   4.855  -0.018 -0.3458  0.9726  0.1137
  453MOL0     C61054   4.283   4.882   0.057 -0.0553  0.0894 -0.5836
  453MOL0     C61055   4.339   4.780   0.143  0.2252  0.0323  0.9573
  453MOL0     O61056   4.445   4.811   0.229  0.8960  0.6198  1.1443
  453MOL0     C61057   4.543   4.908   0.192  0.0834 -0.7730  0.9846
  453MOL0     C61058   4.665   4.883   0.277 -0.4452 -0.1584 -0.3147
  453MOL0     C61059   4.756   5.003   0.300 -0.2122 -0.3580  0.3350
  453MOL0     C61060   4.692   5.101   0.391 -0.2908 -0.8908 -0.5178
  453MOL0     C61061   4.790   5.178   0.489 -0.1952  0.3920  0.7129
  453MOL0     C61062   4.868   5.100   0.594  0.1968 -0.3164  0.2340
  453MOL0     C61063   4.776   5.039   0.699  0.4103  0.5474 -0.0703
  453MOL0     C61064   4.867   4.970   0.794  0.2302 -0.7680  0.2703
  453MOL0    Cl61065   4.983   5.075   0.890  0.2329 -0.0740  0.1930
  453MOL0     C61066   4.275   4.660   0.160 -0.1472  0.2184  0.6987
  453MOL0     C61067   4.160   4.638   0.080 -0.8771 -0.6405 -0.1569
  453MOL0     O61068   4.046   4.507  -0.176 -0.1581  0.2564  0.9486
  453MOL0     C61069   3.786   4.715  -0.289 -0.0304  0.8795 -0.4695
  453MOL0     C61070   3.668   4.724  -0.370 -0.1920  0.8346  0.5018
  453MOL0     N61071   3.219   4.746  -0.904 -0.1693 -0.6186 -0.2815
  453MOL0     N61072   3.254   4.868  -0.880  0.6674 -0.3316  0.1002
  453MOL0     C61073   4.288   5.457  -0.307 -0.6160  0.2828  0.5839
  453MOL0     C61074   4.419   5.476  -0.253  0.3473  0.3897  0.2926
  453MOL0     C61075   4.752   5.676  -0.022  0.0021 -0.2279  0.0718
  453MOL0     C61076   4.818   5.785   0.042 -0.0279 -0.2341  0.5109
  453MOL0     C61077   4.954   5.780   0.056 -0.3501 -0.5701 -0.9176
  453MOL0     C61078   5.034   5.679   0.003 -0.2617 -0.8649 -0.3863
  453MOL0     O61079   5.171   5.705  -0.000  0.1788  0.5362  0.8365
  453MOL0     C61080   5.245   5.603   0.065 -0.0825 -0.6456  0.9350
  453MOL0     C61081   5.262   5.639   0.213  0.1214  0.4897 -0.2409
  453MOL0     C61082   5.365   5.755   0.230 -0.1615  0.3277  0.3097
  453MOL0     C61083   5.523   5.741   0.202 -0.3256 -0.0361 -0.6484
  453MOL0     C61084   5.563   5.726   0.067 -0.4156 -0.0250  0.2007
  453MOL0     C61085   5.598   5.712  -0.043  0.6783 -0.5358  0.9622
  453MOL0     C61086   4.969   5.584  -0.071 -0.6060 -0.4947 -0.2787
  453MOL0     C61087   4.832   5.581  -0.089 -0.3127 -0.0898 -0.1860
  453MOL0     H61088   4.325   5.670   0.011 -0.2965  1.8325 -0.3125
  453MOL0     H61089   4.109   5.629  -0.078 -1.0447  0.1734 -1.5625
  453MOL0     H61090   4.037   5.407  -0.465  0.0853  0.3659 -0.6732
  453MOL0     H61091   4.020   5.308  -0.315  0.3098  0.3944 -0.6904
  453MOL0     H61092   3.774   5.437  -0.297 -2.3775  2.1133 -3.0024
  453MOL0     H61093   3.829   5.511  -0.443 -4.9488 -1.2443 -1.3836
  453MOL0     H61094   3.829   5.290  -0.559 -1.5947 -2.0365 -0.1677
  453MOL0     H61095   3.816   5.215  -0.394 -2.4316  0.7368  1.9362
  453MOL0     H61096   3.591   5.312  -0.388  2.0608  2.2905  0.3810
  453MOL0     H61097   3.613   5.386  -0.543 -2.4453 -0.2677 -0.4916
  453MOL0     H61098   3.661   5.141  -0.641 -2.6095  1.0602 -1.6866
  453MOL0     H61099   3.602   5.076  -0.484  0.4990  0.3091  2.0982
  453MOL0     H61100   3.391   5.235  -0.537  3.1789  2.7529  0.5089
  453MOL0     H61101   3.458   5.246  -0.695 -0.3387 -1.4847  0.3266
  453MOL0     H61102   3.438   5.004  -0.740 -1.7955 -0.5957 -1.4084
  453MOL0     H61103   3.384   4.965  -0.576 -0.3533  2.8655  2.0375
  453MOL0     H61104   3.224   5.126  -0.759 -1.9426 -1.0830 -0.2540
  453MOL0     H61105   3.181   5.058  -0.602  3.2342  1.2442  2.2801
  453MOL0     H61106   3.130   4.793  -0.590  2.4564 -1.2360  0.2353
  453MOL0     H61107   3.059   4.535  -0.703  0.4356  0.2135  0.1138
  453MOL0     H61108   3.141   4.499  -0.848 -1.3115  0.9602 -1.4442
  453MOL0     H61109   3.273   4.423  -0.644  0.0724  0.7205  0.3095
  453MOL0     H61110   3.236   4.565  -0.563  0.2125  2.3237 -0.5772
  453MOL0     H61111   3.397   4.692  -0.680  2.1137  1.1628 -1.1768
  453MOL0     H61112   3.416   4.568  -0.803  2.9459  4.7651 -0.4089
  453MOL0     H61113   3.599   4.578  -0.645 -0.8654 -0.6276 -1.4665
  453MOL0     H61114   3.521   4.433  -0.613 -4.0335 -0.2635 -4.1120
  453MOL0     H61115   3.592   4.388  -0.361 -1.8447  0.7383  0.2567
  453MOL0     H61116   3.833   4.344  -0.107  0.9321 -4.4322  0.4436
  453MOL0     H61117   3.731   4.273  -0.227  0.2927  0.3429 -2.0332
  453MOL0     H61118   3.902   4.286  -0.261  2.3517  1.0543  1.3861
  453MOL0     H61119   4.116   4.927  -0.081 -0.3271  3.2085  2.4960
  453MOL0     H61120   4.332   4.979   0.061 -0.4211  0.3656 -1.9927
  453MOL0     H61121   4.566   4.903   0.085  2.1971  1.2886  1.2674
  453MOL0     H61122   4.510   5.011   0.208 -0.3386 -0.6283 -0.6819
  453MOL0     H61123   4.632   4.837   0.370  1.2013 -0.3315  0.2291
  453MOL0     H61124   4.715   4.805   0.218 -1.1222 -0.7004 -0.1769
  453MOL0     H61125   4.780   5.059   0.209  4.3810  0.2118  1.6605
  453MOL0     H61126   4.850   4.967   0.341  0.2970 -3.7563 -3.2554
  453MOL0     H61127   4.638   5.178   0.334 -1.7696 -1.4273  0.1041
  453MOL0     H61128   4.620   5.050   0.455  1.9566 -2.5805  0.8319
  453MOL0     H61129   4.727   5.252   0.539 -2.7282  0.2164 -1.9325
  453MOL0     H61130   4.860   5.237   0.429 -1.2372  0.1253 -0.8265
  453MOL0     H61131   4.938   5.024   0.558  1.9101 -0.0115  2.6468
  453MOL0     H61132   4.918   5.179   0.651 -0.7650 -0.8004  1.8029
  453MOL0     H61133   4.715   4.956   0.662  0.2515  0.3578  0.5959
  453MOL0     H61134   4.716   5.117   0.747  0.6063 -1.1607  3.2382
  453MOL0     H61135   4.919   4.895   0.734 -1.8040  1.0782 -4.2739
  453MOL0     H61136   4.809   4.911   0.865 -0.6503  0.7742  0.9017
  453MOL0     H61137   4.294   4.584   0.236 -1.0627 -0.5373  0.1932
  453MOL0     H61138   4.113   4.541   0.093  2.7588 -2.8711 -1.9319
  453MOL0     H61139   3.845   4.804  -0.268  0.9713 -0.4492  3.2906
  453MOL0     H61140   3.635   4.823  -0.396  0.5693  0.6511 -1.3074
  453MOL0     H61141   4.271   5.405  -0.401 -0.3325 -1.8482  1.6519
  453MOL0     H61142   4.508   5.436  -0.301 -0.7432  0.5450 -2.0074
  453MOL0     H61143   4.762   5.871   0.076  1.5099  0.4248  1.4697
  453MOL0     H61144   5.004   5.861   0.109 -0.8266 -0.0743 -1.2139
  453MOL0     H61145   5.199   5.505   0.052 -0.2242 -1.1082  4.1340
  453MOL0     H61146   5.333   5.606   0.001 -0.5606  1.2434  0.2722
  453MOL0     H61147   5.294   5.553   0.273 -0.1960  0.4887 -0.0743
  453MOL0     H61148   5.165   5.668   0.255 -1.8738  0.7962 -4.4908
  453MOL0     H61149   5.347   5.774   0.336 -1.4740  1.3475 -0.0760
  453MOL0     H61150   5.318   5.842   0.184 -3.3127 -0.4957  1.6880
  453MOL0     H61151   5.550   5.651   0.259 -0.4199  2.1220  3.1466
  453MOL0     H61152   5.568   5.835   0.236 -0.1762  0.2323 -1.5688
  453MOL0     H61153   5.632   5.704  -0.144 -0.7158  2.2865  0.1651
  453MOL0     H61154   5.024   5.515  -0.135 -0.2105 -0.9547  0.5226
  453MOL0     H61155   4.803   5.502  -0.158  0.6141  1.0868 -1.9828
  454MOL0     O61156   3.670  10.989   8.281 -1.0944 -0.1224  0.5041
  454MOL0     C61157   3.668  10.973   8.161  0.4794 -0.6405 -0.7340
  454MOL0     O61158   3.763  11.005   8.063  0.6996 -0.4269 -0.0758
  454MOL0     C61159   3.871  11.055   8.130 -0.0768 -0.0272  0.3424
  454MOL0     C61160   3.994  10.979   8.141  0.3023  0.1234  0.3069
  454MOL0     C61161   4.106  11.031   8.202  0.1991  0.5945  0.5807
  454MOL0     C61162   4.101  11.163   8.240 -0.3072 -0.8977  0.4861
  454MOL0     O61163   4.211  11.229   8.300 -0.5301  0.6028 -0.1208
  454MOL0     C61164   4.337  11.173   8.278  1.0396  0.2929  0.6125
  454MOL0     C61165   4.402  11.190   8.138 -0.3749 -0.7307 -0.2734
  454MOL0     C61166   4.492  11.075   8.108 -1.0858 -0.2029 -0.3005
  454MOL0     C61167   4.568  11.088   7.973  0.3194  0.5811 -0.3603
  454MOL0     C61168   4.685  10.987   7.953 -0.4130 -0.6618  0.6593
  454MOL0     C61169   4.636  10.834   7.968  0.0466  0.6240  0.7161
  454MOL0     C61170   4.759  10.740   7.925  0.1882  0.0862 -0.7330
  454MOL0     C61171   4.809  10.665   8.045 -0.1581 -0.2450 -0.4713
  454MOL0     N61172   4.848  10.762   8.149  0.1380  0.3677 -0.1477
  454MOL0     C61173   4.949  10.857   8.151 -0.3458  0.9208  0.0467
  454MOL0     C61174   4.949  10.909   8.280  0.2976 -0.0480 -0.5052
  454MOL0     C61175   5.006  11.033   8.345  0.1930 -0.1231  1.1871
  454MOL0     C61176   4.929  11.148   8.285 -0.3978  1.2411 -0.4052
  454MOL0     C61177   4.819  11.211   8.372 -0.8950 -0.1167 -0.3992
  454MOL0     C61178   4.751  11.332   8.307 -0.0742  0.1391  0.5246
  454MOL0     O61179   4.733  11.430   8.414  0.6358 -0.3013  0.6368
  454MOL0     C61180   4.606  11.478   8.419 -0.1709  0.0300 -1.2026
  454MOL0     C61181   4.565  11.573   8.329 -0.8799 -0.5551  0.4995
  454MOL0     C61182   4.431  11.618   8.312  0.5160 -0.0270 -1.0514
  454MOL0     C61183   4.396  11.720   8.200 -0.8292 -0.2570  0.1120
  454MOL0     C61184   4.334  11.560   8.402 -0.1048  0.7532  0.5531
  454MOL0     C61185   4.188  11.596   8.407  0.3031 -0.6934 -0.9086
  454MOL0     O61186   4.116  11.551   8.522 -0.5166 -0.1858  0.5644
  454MOL0     C61187   3.981  11.583   8.528  0.1354 -0.2549 -0.5901
  454MOL0     C61188   3.881  11.488   8.521  0.0470  0.0718  0.3092
  454MOL0     C61189   3.745  11.521   8.551 -1.1364  0.5322 -0.1676
  454MOL0     C61190   3.710  11.651   8.599  1.6420  0.9478  0.8184
  454MOL0     O61191   3.574  11.684   8.639 -0.5829  0.5696 -0.7745
  454MOL0     C61192   3.461  11.587   8.606 -0.6766  0.5336 -0.4656
  454MOL0     C61193   3.416  11.534   8.743 -0.0727  1.1253 -0.4654
  454MOL0     C61194   3.312  11.420   8.722  0.1225  0.7297  0.7864
  454MOL0     C61195   3.299  11.317   8.829 -0.8039 -0.2065 -0.4500
  454MOL0     C61196   3.182  11.340   8.925  0.6280  0.7672 -0.5412
  454MOL0     C61197   3.163  11.225   9.027 -0.2309  0.4491  0.1032
  454MOL0     C61198   3.044  11.259   9.107 -0.1712  0.0802  1.1421
  454MOL0     C61199   3.045  11.187   9.246 -0.2876  0.2280  0.9080
  454MOL0    Cl61200   3.175  11.257   9.347  0.0811 -0.4364 -0.0558
  454MOL0     C61201   3.800  11.748   8.589  0.3870 -0.0178  0.6009
  454MOL0     C61202   3.936  11.715   8.549 -0.5903 -0.6709  0.2381
  454MOL0     O61203   4.143  11.666   8.319 -0.0945  0.5757 -0.4158
  454MOL0     C61204   4.381  11.454   8.486 -0.2006 -0.6645 -0.5989
  454MOL0     C61205   4.512  11.416   8.499  0.4015 -0.4220 -0.7381
  454MOL0     N61206   4.852  10.844   8.351  0.4504  0.5814 -0.0958
  454MOL0     N61207   4.800  10.754   8.274 -0.2543  0.2927  0.3732
  454MOL0     C61208   3.987  11.242   8.228  0.2209 -0.8218 -0.6892
  454MOL0     C61209   3.873  11.191   8.170 -0.3071 -0.4776  0.0600
  454MOL0     C61210   3.541  10.924   8.108 -0.4668 -0.8947  0.0839
  454MOL0     C61211   3.511  10.927   7.973 -1.8997 -0.2348  0.6572
  454MOL0     C61212   3.406  10.868   7.914  0.0850 -0.1499  0.0313
  454MOL0     C61213   3.313  10.805   7.996 -0.1920 -0.3130 -0.2608
  454MOL0     O61214   3.215  10.748   7.925 -0.0638  0.6202  0.1407
  454MOL0     C61215   3.118  10.672   7.999 -0.4986 -1.0753  0.2687
  454MOL0     C61216   2.997  10.761   8.026  0.1874 -0.0935  0.0036
  454MOL0     C61217   2.909  10.721   8.153  0.0008 -0.9343 -0.6216
  454MOL0     C61218   2.800  10.810   8.217  0.1141  0.4463  0.2991
  454MOL0     C61219   2.850  10.943   8.250 -0.4926  0.3186 -0.4693
  454MOL0     C61220   2.890  11.052   8.276  0.8127 -1.0635  0.0043
  454MOL0     C61221   3.324  10.804   8.132 -0.2695 -0.4099 -0.0299
  454MOL0     C61222   3.447  10.862   8.187  0.6732  0.1643  0.3881
  454MOL0     H61223   3.995  10.877   8.102 -2.0128  0.6450 -1.3634
  454MOL0     H61224   4.192  10.965   8.206 -0.7737 -0.7230  0.5525
  454MOL0     H61225   4.390  11.237   8.350 -0.2310 -1.3709  3.1745
  454MOL0     H61226   4.359  11.071   8.310  1.9702  0.1160 -0.5101
  454MOL0     H61227   4.324  11.203   8.061  2.4501  1.3676 -3.0322
  454MOL0     H61228   4.453  11.286   8.136  1.6366 -1.7007  1.4548
  454MOL0     H61229   4.570  11.070   8.183 -1.5365  0.3726  0.2226
  454MOL0     H61230   4.434  10.984   8.123 -1.2123 -0.2213 -0.8590
  454MOL0     H61231   4.499  11.064   7.891  0.6805 -0.0825 -0.4772
  454MOL0     H61232   4.601  11.190   7.955 -1.2707  1.0450 -0.8537
  454MOL0     H61233   4.729  10.997   7.853 -0.9960 -1.6257  0.2922
  454MOL0     H61234   4.773  11.015   8.012 -0.0006 -0.0052 -0.2401
  454MOL0     H61235   4.598  10.809   8.068 -1.4775 -2.0703 -0.4241
  454MOL0     H61236   4.554  10.827   7.897  1.5621 -0.0907 -1.0448
  454MOL0     H61237   4.717  10.663   7.860 -1.2564 -0.9092  1.2332
  454MOL0     H61238   4.836  10.803   7.880  0.0932  0.9785  0.2975
  454MOL0     H61239   4.886  10.601   8.001 -0.9752  1.0749 -4.1656
  454MOL0     H61240   4.732  10.592   8.073  0.7540 -1.1463 -0.2586
  454MOL0     H61241   5.006  10.888   8.064 -1.8422  0.8426 -1.0130
  454MOL0     H61242   5.003  11.024   8.454 -2.4043  0.8710  1.2728
  454MOL0     H61243   5.114  11.035   8.328  0.3093 -0.1928  1.8823
  454MOL0     H61244   4.880  11.121   8.191 -0.3477  1.6148 -0.5390
  454MOL0     H61245   5.009  11.221   8.273 -0.2330  0.6657 -4.0193
  454MOL0     H61246   4.858  11.224   8.474  0.6460  1.7507 -1.1699
  454MOL0     H61247   4.733  11.147   8.395 -2.3945  2.0661  0.3518
  454MOL0     H61248   4.651  11.299   8.279 -0.2488 -0.2968  1.6175
  454MOL0     H61249   4.794  11.386   8.223 -5.1365  0.1178 -2.4912
  454MOL0     H61250   4.645  11.618   8.270 -0.9401  0.3469  1.0803
  454MOL0     H61251   4.365  11.817   8.241  0.0561  1.5518 -3.1404
  454MOL0     H61252   4.481  11.745   8.136 -0.5186 -1.0442  0.2153
  454MOL0     H61253   4.307  11.695   8.140 -1.6803  1.4098  0.5956
  454MOL0     H61254   3.924  11.391   8.495  1.6589  0.9433 -0.4810
  454MOL0     H61255   3.678  11.436   8.544  1.2086 -1.7066  2.1116
  454MOL0     H61256   3.371  11.633   8.563 -0.4807  3.4267  1.9028
  454MOL0     H61257   3.487  11.502   8.542  0.9478  1.9869 -1.8232
  454MOL0     H61258   3.499  11.494   8.801  0.1535 -1.0886 -2.1868
  454MOL0     H61259   3.369  11.605   8.812 -0.1820 -1.7763  2.7128
  454MOL0     H61260   3.350  11.371   8.632  3.4079  3.7979  0.2556
  454MOL0     H61261   3.215  11.469   8.703 -0.0314  0.5735  1.1625
  454MOL0     H61262   3.277  11.222   8.780 -1.8301 -0.3473  0.2643
  454MOL0     H61263   3.385  11.300   8.893 -1.1276 -0.3229 -0.0422
  454MOL0     H61264   3.092  11.351   8.864  0.0072  0.9831  0.4148
  454MOL0     H61265   3.183  11.435   8.977  0.2755  0.6802 -0.3776
  454MOL0     H61266   3.146  11.131   8.974  1.4819  0.7843 -1.1445
  454MOL0     H61267   3.250  11.214   9.092 -0.6980  1.2543  0.8674
  454MOL0     H61268   2.956  11.237   9.045  1.5803  0.0161 -1.4704
  454MOL0     H61269   3.056  11.363   9.136  0.0262 -0.0457  1.5071
  454MOL0     H61270   3.063  11.080   9.233  0.0475  0.4513 -0.7064
  454MOL0     H61271   2.958  11.205   9.310 -0.9827 -0.7137  0.2573
  454MOL0     H61272   3.753  11.842   8.619 -1.6722 -1.6692  2.9547
  454MOL0     H61273   4.019  11.783   8.563 -2.2897  1.4557  0.5913
  454MOL0     H61274   4.324  11.400   8.561  1.7483  0.8954  2.1872
  454MOL0     H61275   4.547  11.337   8.565  4.4899  0.8794 -1.1312
  454MOL0     H61276   4.002  11.347   8.251  2.5665 -0.9967 -1.1467
  454MOL0     H61277   3.778  11.245   8.175 -0.0466 -0.1065  1.7291
  454MOL0     H61278   3.581  10.990   7.919 -1.3062  1.2038  2.9699
  454MOL0     H61279   3.391  10.871   7.806  1.6047 -0.5071 -0.2156
  454MOL0     H61280   3.086  10.592   7.931  0.8301 -0.0707 -1.6394
  454MOL0     H61281   3.157  10.619   8.085  1.5985  0.9013  0.6275
  454MOL0     H61282   2.927  10.741   7.944  0.9716 -4.8411  0.2309
  454MOL0     H61283   3.022  10.868   8.026  1.6290 -0.3821 -1.6148
  454MOL0     H61284   2.980  10.700   8.233 -1.2351 -1.2006  0.4411
  454MOL0     H61285   2.874  10.618   8.143  2.3690 -2.0311  1.3111
  454MOL0     H61286   2.774  10.765   8.313 -0.9663  0.5795  0.0867
  454MOL0     H61287   2.718  10.827   8.147  0.5610 -2.8949 -1.2539
  454MOL0     H61288   2.917  11.155   8.287  0.1353 -0.8222 -0.4618
  454MOL0     H61289   3.245  10.767   8.197 -0.7795  5.4921  3.4199
  454MOL0     H61290   3.456  10.873   8.294  1.8097  0.2749  0.2884
  455MOL0     O61291   2.242   3.050   3.100 -0.4901 -0.0588 -0.4194
  455MOL0     C61292   2.281   2.981   3.004  0.0516  0.2412 -0.7111
  455MOL0     O61293   2.390   3.007   2.923 -0.3553  0.4534 -0.1793
  455MOL0     C61294   2.466   3.109   2.955 -0.2119  0.9119 -0.7076
  455MOL0     C61295   2.433   3.236   2.918 -0.6536  1.0541 -0.0041
  455MOL0     C61296   2.513   3.339   2.965 -0.2602  0.4480 -0.5102
  455MOL0     C61297   2.637   3.322   3.038  0.1967  0.2166 -0.2230
  455MOL0     O61298   2.700   3.432   3.094  1.0098 -0.1114 -0.6051
  455MOL0     C61299   2.847   3.439   3.093  0.4825 -0.7903  0.3622
  455MOL0     C61300   2.870   3.486   2.957 -0.3609  0.2965 -0.9017
  455MOL0     C61301   3.017   3.522   2.924  1.0487 -0.1783  0.1313
  455MOL0     C61302   3.102   3.411   2.870  0.1456  1.5405 -0.5652
  455MOL0     C61303   3.248   3.441   2.863 -0.0519 -0.0910 -0.3437
  455MOL0     C61304   3.323   3.311   2.849  0.0554 -0.2727 -0.5172
  455MOL0     C61305   3.480   3.334   2.841 -0.3029  0.1556 -0.1007
  455MOL0     C61306   3.553   3.208   2.782 -0.0914 -0.2206 -0.7091
  455MOL0     N61307   3.541   3.176   2.640  0.7509  0.3483  0.9249
  455MOL0     C61308   3.592   3.056   2.596 -0.0221 -0.1189  0.7599
  455MOL0     C61309   3.563   3.049   2.467  0.7386  0.4021  1.1506
  455MOL0     C61310   3.628   2.955   2.369 -1.1726 -1.5012  0.8131
  455MOL0     C61311   3.540   2.850   2.300 -0.0015 -0.9864 -0.1670
  455MOL0     C61312   3.429   2.909   2.209  0.1176 -0.2649 -0.0080
  455MOL0     C61313   3.319   2.809   2.192  0.2531 -0.1947  0.3490
  455MOL0     O61314   3.357   2.715   2.092 -0.7659  0.6861  0.3112
  455MOL0     C61315   3.357   2.739   1.955  0.3782  0.0270 -0.6498
  455MOL0     C61316   3.309   2.851   1.896  0.3218  0.4653 -1.5233
  455MOL0     C61317   3.318   2.858   1.755  0.1305  0.6820 -0.0038
  455MOL0     C61318   3.265   2.990   1.702 -0.9824 -0.1520  0.7190
  455MOL0     C61319   3.371   2.754   1.665 -0.9302  0.2744 -0.4883
  455MOL0     C61320   3.380   2.757   1.516 -1.0418  0.3433 -0.3491
  455MOL0     O61321   3.459   2.652   1.452 -0.4288 -1.2555 -0.4988
  455MOL0     C61322   3.453   2.667   1.314  0.1313  0.5649  0.2694
  455MOL0     C61323   3.395   2.575   1.231  0.1858  0.0553  0.4274
  455MOL0     C61324   3.415   2.584   1.089  0.3066 -0.6142 -0.1855
  455MOL0     C61325   3.492   2.690   1.037 -0.4122  0.2264  0.7706
  455MOL0     O61326   3.483   2.688   0.902  0.0722 -0.7936 -0.0334
  455MOL0     C61327   3.582   2.752   0.819 -0.0634  0.0849  0.5767
  455MOL0     C61328   3.578   2.725   0.669 -0.3648  0.6465  0.0728
  455MOL0     C61329   3.434   2.716   0.625 -0.0294  0.4156 -0.4141
  455MOL0     C61330   3.435   2.686   0.475 -0.5562  0.1878  0.3528
  455MOL0     C61331   3.298   2.632   0.428  0.3338 -0.0173  0.1093
  455MOL0     C61332   3.270   2.492   0.477  0.3807 -0.1844  0.2868
  455MOL0     C61333   3.155   2.414   0.400 -0.3146  0.0971 -0.2611
  455MOL0     C61334   3.017   2.477   0.410  0.1921 -0.1526  0.1336
  455MOL0    Cl61335   2.944   2.462   0.568  0.3772 -0.0939 -0.2780
  455MOL0     C61336   3.555   2.782   1.124 -1.1655  0.5658  0.9924
  455MOL0     C61337   3.528   2.769   1.259 -0.6960 -0.0514  0.0732
  455MOL0     O61338   3.323   2.839   1.454 -0.4081  0.6588 -0.2022
  455MOL0     C61339   3.427   2.640   1.730  0.5360  0.1545 -0.0092
  455MOL0     C61340   3.418   2.638   1.873 -0.1544 -0.2668 -0.8567
  455MOL0     N61341   3.489   3.162   2.429  0.0130 -0.1111 -0.0398
  455MOL0     N61342   3.476   3.244   2.532 -0.8663  0.7885 -0.2688
  455MOL0     C61343   2.671   3.182   3.056 -0.0325 -0.0397  0.6194
  455MOL0     C61344   2.591   3.081   3.010 -0.3367  0.5406 -0.2946
  455MOL0     C61345   2.187   2.870   2.960 -0.2867  0.1496 -0.0146
  455MOL0     C61346   2.058   2.855   3.014  0.4079  0.5804 -0.1056
  455MOL0     C61347   1.964   2.767   2.970  0.6925  0.3396  0.0748
  455MOL0     C61348   2.007   2.678   2.865  0.7311  0.4025 -0.0096
  455MOL0     O61349   1.929   2.585   2.803 -0.2259 -0.2919 -0.4251
  455MOL0     C61350   1.867   2.494   2.901 -0.5223  0.2020  0.2657
  455MOL0     C61351   1.776   2.390   2.826 -0.4388 -0.3939  0.2625
  455MOL0     C61352   1.649   2.466   2.788 -1.0370  0.1228  0.5414
  455MOL0     C61353   1.557   2.378   2.704  0.6765 -0.3474  0.6727
  455MOL0     C61354   1.495   2.265   2.770 -0.1134  0.3438  0.7668
  455MOL0     C61355   1.429   2.176   2.817 -0.5784  0.0857  0.1148
  455MOL0     C61356   2.131   2.692   2.810 -0.0170 -0.5414  0.0843
  455MOL0     C61357   2.223   2.787   2.854  0.7657 -0.6319 -0.4785
  455MOL0     H61358   2.342   3.247   2.859 -0.5922 -0.2674 -0.3815
  455MOL0     H61359   2.465   3.436   2.953  0.7219  0.8866 -1.0760
  455MOL0     H61360   2.879   3.522   3.157 -2.7453  0.4654  0.5691
  455MOL0     H61361   2.889   3.341   3.117 -1.3961 -2.2470 -1.8283
  455MOL0     H61362   2.833   3.412   2.885 -5.4533 -1.0290  2.5490
  455MOL0     H61363   2.801   3.570   2.940 -1.0647 -0.1787 -0.4585
  455MOL0     H61364   3.014   3.596   2.843 -0.5963 -1.6793 -1.2621
  455MOL0     H61365   3.074   3.561   3.009  2.0781  0.9486 -1.0420
  455MOL0     H61366   3.088   3.319   2.927  0.1009  1.2417 -1.0492
  455MOL0     H61367   3.073   3.389   2.767 -0.7506 -3.2660  0.4931
  455MOL0     H61368   3.272   3.506   2.778 -3.8951  3.0172  0.6351
  455MOL0     H61369   3.268   3.508   2.947 -1.1891  1.5419 -1.3137
  455MOL0     H61370   3.311   3.225   2.915  0.0832  0.2217  0.1428
  455MOL0     H61371   3.282   3.275   2.754 -2.8809 -1.0446  0.9276
  455MOL0     H61372   3.509   3.423   2.784  1.1381  0.8298  1.5641
  455MOL0     H61373   3.523   3.332   2.942 -0.2614  1.5352 -0.0645
  455MOL0     H61374   3.523   3.127   2.850  0.1565  1.3396  1.3824
  455MOL0     H61375   3.660   3.217   2.804 -0.1462 -3.1163  1.3208
  455MOL0     H61376   3.663   2.984   2.635  1.7010 -1.3880 -4.0529
  455MOL0     H61377   3.654   3.027   2.292 -0.5872 -1.6866  0.8344
  455MOL0     H61378   3.721   2.905   2.397 -0.2693 -0.7074 -0.6689
  455MOL0     H61379   3.498   2.794   2.384  1.5506  0.5392  1.7231
  455MOL0     H61380   3.601   2.774   2.250  0.6190  0.8568 -2.3490
  455MOL0     H61381   3.471   2.942   2.113  2.2744 -1.1460  0.5638
  455MOL0     H61382   3.379   2.991   2.262 -0.7648 -0.9084  0.1790
  455MOL0     H61383   3.222   2.853   2.167 -0.1312  0.9184  3.4003
  455MOL0     H61384   3.298   2.754   2.284 -1.9119 -1.6573 -0.9245
  455MOL0     H61385   3.256   2.926   1.953  0.9566 -1.3328  1.6515
  455MOL0     H61386   3.202   2.986   1.612 -0.5700 -2.6522  0.4905
  455MOL0     H61387   3.200   3.039   1.775  1.2622  2.5072  1.1287
  455MOL0     H61388   3.356   3.046   1.679 -1.1622 -0.1312  0.0177
  455MOL0     H61389   3.330   2.493   1.260 -2.0480  0.1509 -3.6420
  455MOL0     H61390   3.368   2.525   1.011  0.0847  0.7057 -1.0857
  455MOL0     H61391   3.566   2.858   0.836 -0.9153 -0.3681  3.0243
  455MOL0     H61392   3.678   2.715   0.856  0.5829  0.2196 -0.8747
  455MOL0     H61393   3.628   2.810   0.621 -3.5740  2.0014 -1.1008
  455MOL0     H61394   3.623   2.630   0.638  0.5735  1.4193 -1.0244
  455MOL0     H61395   3.380   2.810   0.642 -0.1434  0.3790 -0.5719
  455MOL0     H61396   3.376   2.650   0.691 -1.1992 -1.3448 -2.9899
  455MOL0     H61397   3.471   2.775   0.423  0.3687 -0.1370  0.4046
  455MOL0     H61398   3.511   2.612   0.445 -0.9690  0.1582 -0.6683
  455MOL0     H61399   3.307   2.641   0.320  0.7211 -1.0642  0.0408
  455MOL0     H61400   3.220   2.696   0.470 -0.0534  0.3016 -1.0781
  455MOL0     H61401   3.363   2.437   0.462  1.2821  1.4793 -0.4251
  455MOL0     H61402   3.263   2.479   0.585  3.4362 -1.7913  0.4038
  455MOL0     H61403   3.154   2.311   0.437 -0.3448  0.8268  1.9018
  455MOL0     H61404   3.190   2.408   0.296 -1.7921 -0.6995 -0.7470
  455MOL0     H61405   2.957   2.419   0.338 -1.5489 -1.5534  2.5775
  455MOL0     H61406   3.017   2.583   0.383  0.3970 -0.0069  0.6985
  455MOL0     H61407   3.627   2.855   1.088  0.0346 -1.6852 -1.4256
  455MOL0     H61408   3.582   2.842   1.319 -2.8490  0.1417  1.9267
  455MOL0     H61409   3.475   2.563   1.671 -3.4772 -2.9144  0.3489
  455MOL0     H61410   3.476   2.566   1.929 -2.1176 -2.1093 -1.0649
  455MOL0     H61411   2.759   3.165   3.118  0.4304  3.4167  1.1087
  455MOL0     H61412   2.606   2.974   3.019 -3.1242 -0.1364 -2.4646
  455MOL0     H61413   2.023   2.926   3.088 -0.9468 -1.3842  1.2358
  455MOL0     H61414   1.861   2.764   3.005  1.1466 -0.6660  1.4254
  455MOL0     H61415   1.938   2.436   2.961 -1.0379  0.2017  0.8884
  455MOL0     H61416   1.801   2.557   2.961  0.3385  1.2562  0.1279
  455MOL0     H61417   1.741   2.317   2.900 -1.9392  1.2467  1.2623
  455MOL0     H61418   1.838   2.338   2.753  1.2642 -1.3287  2.2581
  455MOL0     H61419   1.685   2.552   2.730 -2.7734  0.7391  0.3326
  455MOL0     H61420   1.587   2.490   2.875 -2.8965 -1.8174 -0.1714
  455MOL0     H61421   1.601   2.347   2.610 -0.4333 -0.6549  0.2340
  455MOL0     H61422   1.489   2.448   2.654  1.8533  0.3885  0.0491
  455MOL0     H61423   1.374   2.089   2.845  0.8683 -0.9346 -0.1252
  455MOL0     H61424   2.173   2.632   2.730  1.0793 -0.2280  0.4016
  455MOL0     H61425   2.320   2.795   2.806  0.8065  2.4408 -0.0594
  456MOL0     O61426  10.482   4.192   7.592 -1.1837  0.3966 -0.4241
  456MOL0     C61427  10.446   4.177   7.711 -0.3414  0.1888  0.0570
  456MOL0     O61428  10.363   4.089   7.772  0.2424 -0.8879  0.3579
  456MOL0     C61429  10.336   3.963   7.718 -0.2451 -0.8666  0.2227
  456MOL0     C61430  10.253   3.883   7.784  0.3919 -0.4389 -0.1919
  456MOL0     C61431  10.229   3.748   7.758  0.0026  0.1588 -0.3876
  456MOL0     C61432  10.287   3.685   7.641  0.1906  0.9175 -0.7654
  456MOL0     O61433  10.280   3.544   7.613  0.3262  0.1898  0.6737
  456MOL0     C61434  10.193   3.459   7.706 -0.3750 -0.1581  0.8576
  456MOL0     C61435  10.190   3.324   7.619 -0.1817 -0.0515 -0.5715
  456MOL0     C61436  10.129   3.193   7.665  0.0923 -0.5547  0.7090
  456MOL0     C61437  10.151   3.170   7.816  0.6558 -1.0170 -0.0597
  456MOL0     C61438  10.114   3.024   7.859 -0.6452  0.0594 -0.0377
  456MOL0     C61439  10.032   3.016   7.981 -0.3590  0.4355 -0.6604
  456MOL0     C61440  10.112   3.011   8.108 -0.0990 -0.9162 -0.3381
  456MOL0     C61441  10.194   2.887   8.143  0.6057  0.1858 -0.5186
  456MOL0     N61442  10.102   2.768   8.164 -0.1407 -0.0202 -0.7344
  456MOL0     C61443  10.000   2.750   8.252  0.1381 -0.8613 -0.4488
  456MOL0     C61444   9.964   2.617   8.238 -0.3725  0.2316 -0.6797
  456MOL0     C61445   9.836   2.557   8.299 -0.5796  0.3340 -0.1246
  456MOL0     C61446   9.821   2.402   8.266  0.6875  0.2279 -0.6456
  456MOL0     C61447   9.714   2.328   8.348  0.1090  0.1021  0.3395
  456MOL0     C61448   9.570   2.376   8.316  0.3359  0.1505  0.1864
  456MOL0     O61449   9.527   2.366   8.174  0.4816  0.2953  0.3160
  456MOL0     C61450   9.541   2.244   8.106  0.3619 -0.5947  0.5334
  456MOL0     C61451   9.450   2.142   8.136  0.0532  0.4208  0.0297
  456MOL0     C61452   9.455   2.021   8.061  0.2996  0.6973 -0.5422
  456MOL0     C61453   9.348   1.917   8.110  0.3936 -0.1295 -0.5228
  456MOL0     C61454   9.552   2.004   7.952  0.4094 -0.0984 -0.6773
  456MOL0     C61455   9.591   1.874   7.881 -1.4934 -0.5936 -0.3235
  456MOL0     O61456   9.659   1.876   7.762  0.6809 -0.1242 -0.0637
  456MOL0     C61457   9.734   1.769   7.719 -0.5492  0.5129  0.8880
  456MOL0     C61458   9.725   1.730   7.578 -0.6877 -0.1694 -0.0043
  456MOL0     C61459   9.807   1.631   7.528 -0.2239 -0.0312 -0.4791
  456MOL0     C61460   9.896   1.557   7.617 -1.3034  0.1737 -0.4224
  456MOL0     O61461   9.976   1.452   7.584 -0.2322  0.0129 -0.2907
  456MOL0     C61462   9.910   1.337   7.529  0.3240  0.2227 -0.1471
  456MOL0     C61463  10.010   1.224   7.565  0.3132  0.6992 -0.9277
  456MOL0     C61464  10.141   1.228   7.486 -0.3074 -0.2300 -0.3864
  456MOL0     C61465  10.251   1.161   7.560  1.2280 -0.7020 -0.1089
  456MOL0     C61466  10.357   1.103   7.483 -0.3380 -0.1953  0.3646
  456MOL0     C61467  10.457   1.025   7.578  0.2850 -0.0401  0.1300
  456MOL0     C61468  10.587   1.009   7.499 -0.7884  0.4630 -0.4280
  456MOL0     C61469  10.695   0.937   7.585 -0.0584 -0.3037 -0.0104
  456MOL0    Cl61470  10.739   1.047   7.724  0.1280 -0.1352  0.1202
  456MOL0     C61471   9.914   1.611   7.756 -0.0979 -0.0504  0.4198
  456MOL0     C61472   9.825   1.715   7.797 -0.4126  0.3871 -0.0668
  456MOL0     O61473   9.573   1.777   7.945  0.1653  0.5262  0.3384
  456MOL0     C61474   9.623   2.119   7.910 -0.5501 -0.3557 -0.1372
  456MOL0     C61475   9.619   2.235   7.990  0.0401  0.5121  0.9209
  456MOL0     N61476  10.025   2.574   8.132 -0.7628  0.1485  0.7122
  456MOL0     N61477  10.102   2.666   8.084 -0.0447  0.6711  0.3206
  456MOL0     C61478  10.357   3.776   7.558 -0.2153  0.3214 -0.8986
  456MOL0     C61479  10.386   3.907   7.597  0.9842  0.0912  1.2256
  456MOL0     C61480  10.513   4.269   7.808 -0.7658  0.9434  0.1660
  456MOL0     C61481  10.526   4.227   7.940  0.1271  0.1161  0.0654
  456MOL0     C61482  10.568   4.322   8.031  0.7977 -0.2005 -0.8525
  456MOL0     C61483  10.598   4.454   7.987  0.0441  0.9598 -0.5042
  456MOL0     O61484  10.631   4.568   8.065  0.2896  0.4984 -0.4536
  456MOL0     C61485  10.539   4.573   8.177 -0.3638  0.4729  0.1614
  456MOL0     C61486  10.490   4.720   8.195 -0.9891  0.0573 -0.0984
  456MOL0     C61487  10.612   4.826   8.206 -0.0466 -1.0234 -0.2955
  456MOL0     C61488  10.567   4.960   8.261 -0.7099 -0.5152  0.2672
  456MOL0     C61489  10.538   4.952   8.404 -0.8083 -0.0584 -0.7919
  456MOL0     C61490  10.516   4.946   8.528 -0.3911  1.7969  1.0097
  456MOL0     C61491  10.599   4.483   7.851  0.6900 -0.3666 -0.3667
  456MOL0     C61492  10.558   4.392   7.761  0.7699 -0.5860 -0.1390
  456MOL0     H61493  10.200   3.927   7.868 -2.8313 -0.4126 -2.0575
  456MOL0     H61494  10.170   3.690   7.828  1.8109 -0.8876  0.3436
  456MOL0     H61495  10.252   3.451   7.798  2.2718  4.9793 -0.0412
  456MOL0     H61496  10.088   3.479   7.726 -0.9940  2.1339 -3.4298
  456MOL0     H61497  10.155   3.340   7.517  0.4430  1.2287 -0.6195
  456MOL0     H61498  10.295   3.294   7.622 -0.8230 -2.5138 -1.0008
  456MOL0     H61499  10.022   3.192   7.643  0.2049 -0.8365  0.1524
  456MOL0     H61500  10.179   3.117   7.604  0.0200  2.1335 -3.1184
  456MOL0     H61501  10.256   3.190   7.841  0.1557  1.5320  0.1986
  456MOL0     H61502  10.089   3.243   7.868  1.6517  0.8990 -1.4564
  456MOL0     H61503  10.041   2.999   7.781 -1.4415 -1.9980  1.2772
  456MOL0     H61504  10.210   2.971   7.856  1.3866  3.2551  2.1012
  456MOL0     H61505   9.973   3.109   7.987 -2.0062 -0.5040  5.8050
  456MOL0     H61506   9.956   2.938   7.972  2.3032 -2.6268  1.0646
  456MOL0     H61507  10.178   3.096   8.090 -1.0515 -0.0895 -0.0009
  456MOL0     H61508  10.045   3.037   8.191 -0.8531 -0.7321 -0.9898
  456MOL0     H61509  10.255   2.909   8.231 -1.1511  1.3644  0.4634
  456MOL0     H61510  10.260   2.859   8.060 -3.5785  1.2996 -4.6311
  456MOL0     H61511   9.951   2.828   8.309  1.3798  0.9560 -1.7398
  456MOL0     H61512   9.855   2.558   8.407  3.4417 -1.6282 -0.6161
  456MOL0     H61513   9.746   2.615   8.278 -1.8438 -0.8771  1.6271
  456MOL0     H61514   9.910   2.340   8.281  0.4033 -0.6368 -2.3012
  456MOL0     H61515   9.802   2.394   8.158  0.8542 -0.9856 -0.5940
  456MOL0     H61516   9.744   2.340   8.452  1.1147 -5.6910  1.0617
  456MOL0     H61517   9.712   2.219   8.336 -2.4507 -0.2318  2.8049
  456MOL0     H61518   9.560   2.475   8.360  2.7801  0.0968  1.0385
  456MOL0     H61519   9.507   2.308   8.374 -1.2872  1.3933 -0.0757
  456MOL0     H61520   9.381   2.150   8.218 -2.0705  0.9941 -1.7248
  456MOL0     H61521   9.276   1.979   8.164 -0.9460 -0.1449 -2.1847
  456MOL0     H61522   9.299   1.863   8.028  0.0226  1.0972 -1.1294
  456MOL0     H61523   9.383   1.842   8.182 -2.6105 -0.0292  1.2236
  456MOL0     H61524   9.662   1.780   7.506  0.4385 -0.0513 -0.9322
  456MOL0     H61525   9.807   1.596   7.425  0.4095 -1.9296  0.1311
  456MOL0     H61526   9.812   1.324   7.576  1.1129 -2.6052  0.9268
  456MOL0     H61527   9.894   1.355   7.423 -1.3330 -1.0700 -0.1577
  456MOL0     H61528  10.030   1.231   7.672 -1.0027 -2.0382 -0.4038
  456MOL0     H61529   9.946   1.136   7.554  2.5078 -1.1198  0.1250
  456MOL0     H61530  10.181   1.328   7.469 -0.8641  1.1429  4.7207
  456MOL0     H61531  10.124   1.174   7.392 -0.0556  1.8040 -1.6523
  456MOL0     H61532  10.287   1.240   7.627 -0.2452 -0.1546  0.0878
  456MOL0     H61533  10.222   1.088   7.636  3.2867 -1.1653  0.2824
  456MOL0     H61534  10.413   1.187   7.439 -2.6341  0.9999 -0.4949
  456MOL0     H61535  10.319   1.042   7.400  1.3149  0.3929 -0.8940
  456MOL0     H61536  10.475   1.073   7.675 -2.7329 -0.4503  1.0098
  456MOL0     H61537  10.409   0.928   7.593 -0.0908  0.1349  0.0687
  456MOL0     H61538  10.637   1.104   7.479  2.6215 -0.9162  0.7537
  456MOL0     H61539  10.568   0.945   7.413  3.9666 -2.1667  0.0846
  456MOL0     H61540  10.793   0.929   7.535  1.9993 -0.5393  3.7147
  456MOL0     H61541  10.673   0.836   7.619  1.1389  0.2186  2.5692
  456MOL0     H61542   9.981   1.566   7.828 -2.3736  0.2680  2.8916
  456MOL0     H61543   9.824   1.744   7.902 -0.0308  4.5825 -1.0484
  456MOL0     H61544   9.694   2.127   7.828  0.2083  1.8938  0.6726
  456MOL0     H61545   9.665   2.326   7.952  0.3773  0.0176  0.1042
  456MOL0     H61546  10.399   3.730   7.469  2.7708  0.7557  0.1785
  456MOL0     H61547  10.458   3.960   7.534 -0.6955 -0.2210 -1.0864
  456MOL0     H61548  10.501   4.124   7.965  0.7869  0.2321  1.2547
  456MOL0     H61549  10.555   4.299   8.137 -0.2970 -0.4356 -1.0329
  456MOL0     H61550  10.449   4.512   8.162 -1.6374  2.1471  0.6083
  456MOL0     H61551  10.584   4.528   8.266 -2.4348  0.9028  1.4994
  456MOL0     H61552  10.430   4.729   8.286 -3.1579 -0.7967 -1.3717
  456MOL0     H61553  10.427   4.756   8.113 -0.9074 -1.2201 -0.7492
  456MOL0     H61554  10.653   4.854   8.109 -1.7798  2.2830 -0.2319
  456MOL0     H61555  10.696   4.784   8.262 -0.0716  0.7593  1.1898
  456MOL0     H61556  10.482   5.002   8.207 -0.3980 -0.4520 -0.1871
  456MOL0     H61557  10.652   5.024   8.233 -0.7864 -1.3224 -1.9826
  456MOL0     H61558  10.502   4.937   8.634  3.2572  0.5211  1.5070
  456MOL0     H61559  10.633   4.582   7.824 -2.3958  1.2866  1.2772
  456MOL0     H61560  10.570   4.421   7.657  1.1227 -1.3591 -0.3195
  457MOL0     O61561  11.207   0.166   1.860  0.2074  0.0030 -0.6916
  457MOL0     C61562  11.295   0.245   1.829  1.2250 -0.6112  0.4173
  457MOL0     O61563  11.329   0.357   1.895 -0.0031  0.4909  0.3597
  457MOL0     C61564  11.235   0.401   1.981 -0.4110 -0.0001  0.1405
  457MOL0     C61565  11.274   0.393   2.126  0.4529  1.2481  0.3458
  457MOL0     C61566  11.174   0.431   2.220 -0.8131  0.0173  1.2195
  457MOL0     C61567  11.048   0.467   2.176 -0.1886 -0.1237  0.0404
  457MOL0     O61568  10.950   0.512   2.257  0.3459  0.4877 -0.2608
  457MOL0     C61569  10.955   0.503   2.401  0.6613  0.2968 -0.1246
  457MOL0     C61570  10.878   0.606   2.479 -0.1391 -0.3778  1.0536
  457MOL0     C61571  10.731   0.611   2.432  0.5739  0.3960  0.2559
  457MOL0     C61572  10.651   0.728   2.495  0.3280  0.1506 -0.2222
  457MOL0     C61573  10.496   0.733   2.450  0.1492 -0.1962 -0.7033
  457MOL0     C61574  10.458   0.881   2.451 -0.3634  0.1346 -0.3646
  457MOL0     C61575  10.311   0.899   2.475  0.2759 -0.0443 -0.1009
  457MOL0     C61576  10.220   0.843   2.356 -1.1874  0.6661 -0.7060
  457MOL0     N61577  10.090   0.866   2.401  0.1569 -0.7648  0.3968
  457MOL0     C61578  10.017   0.981   2.372  0.2849  0.1487 -0.3440
  457MOL0     C61579   9.899   0.958   2.433 -0.0046  1.1342  1.1205
  457MOL0     C61580   9.780   1.052   2.425 -0.1829 -0.1699 -0.6667
  457MOL0     C61581   9.710   1.069   2.567 -0.5370 -0.0899  0.4383
  457MOL0     C61582   9.590   0.968   2.579 -0.1006  0.1831  0.5430
  457MOL0     C61583   9.508   1.005   2.702  0.0588  0.6764  0.2508
  457MOL0     O61584   9.401   0.910   2.706 -0.3657 -0.1117  0.6093
  457MOL0     C61585   9.330   0.903   2.822 -0.3851  0.7166  0.1574
  457MOL0     C61586   9.199   0.950   2.802  0.3331 -0.0920  0.2691
  457MOL0     C61587   9.109   0.951   2.912 -0.4242  0.7309  0.7251
  457MOL0     C61588   8.971   0.981   2.874 -0.3485  0.6322  0.0926
  457MOL0     C61589   9.147   0.895   3.040 -0.2862  0.5645 -0.3980
  457MOL0     C61590   9.054   0.885   3.161 -0.5341 -0.1267 -0.2743
  457MOL0     O61591   9.090   0.816   3.268 -0.8965 -1.0694 -0.5272
  457MOL0     C61592   8.994   0.783   3.362 -0.3638  0.2705 -0.8314
  457MOL0     C61593   8.941   0.654   3.337  0.0695  0.3140 -0.6461
  457MOL0     C61594   8.852   0.600   3.437  0.7703 -0.0190  0.6938
  457MOL0     C61595   8.821   0.668   3.557  0.5957  0.2966  0.3564
  457MOL0     O61596   8.732   0.624   3.657 -0.0490 -0.1867  0.2559
  457MOL0     C61597   8.645   0.512   3.646  0.4340 -0.0112  0.1699
  457MOL0     C61598   8.500   0.536   3.688  0.5150  0.9309  0.2681
  457MOL0     C61599   8.473   0.594   3.833 -1.0488  0.9366 -0.4203
  457MOL0     C61600   8.492   0.482   3.937 -0.5226  0.4362 -0.3922
  457MOL0     C61601   8.475   0.521   4.080  0.9571  0.2104  1.2687
  457MOL0     C61602   8.355   0.612   4.123  0.3216 -0.1145  0.4682
  457MOL0     C61603   8.314   0.586   4.270 -0.2787 -0.5406  0.4107
  457MOL0     C61604   8.226   0.703   4.318  1.1808  0.1270  0.0513
  457MOL0    Cl61605   8.138   0.677   4.475 -0.2369 -0.5846 -0.1092
  457MOL0     C61606   8.880   0.798   3.576  0.1303  0.7902 -0.5151
  457MOL0     C61607   8.958   0.855   3.474 -0.1551  1.2439  0.0308
  457MOL0     O61608   8.946   0.951   3.160 -0.5505 -0.2265 -0.9516
  457MOL0     C61609   9.284   0.843   3.050  0.3003 -0.7861 -0.3124
  457MOL0     C61610   9.367   0.843   2.938 -1.0409  0.3162 -0.4465
  457MOL0     N61611   9.906   0.829   2.499 -0.3889  0.0965  0.0525
  457MOL0     N61612  10.028   0.789   2.483  0.0533 -0.3124 -0.0133
  457MOL0     C61613  11.021   0.479   2.039 -0.4682  0.4207  0.3572
  457MOL0     C61614  11.115   0.453   1.940  0.1489 -0.4004 -0.2936
  457MOL0     C61615  11.384   0.213   1.713 -0.6019 -0.1323  0.1849
  457MOL0     C61616  11.370   0.089   1.655  0.0608  0.4034 -0.4344
  457MOL0     C61617  11.461   0.048   1.565 -0.4703  0.4512 -0.3385
  457MOL0     C61618  11.565   0.128   1.524  0.5705  0.3665 -0.2664
  457MOL0     O61619  11.645   0.075   1.428 -0.0250 -0.3976 -0.2550
  457MOL0     C61620  11.761   0.146   1.380 -0.2325 -0.2748  0.8513
  457MOL0     C61621  11.835   0.070   1.270 -0.8858  0.3171  0.4559
  457MOL0     C61622  11.984   0.119   1.284  0.0781 -0.2062  0.1121
  457MOL0     C61623  12.079   0.076   1.169 -0.0557  0.2629  0.1281
  457MOL0     C61624  12.214   0.135   1.175 -0.3981 -0.0901  0.0195
  457MOL0     C61625  12.330   0.166   1.163 -0.7608  0.1857  0.1360
  457MOL0     C61626  11.587   0.256   1.581  0.3639  0.7981 -0.0281
  457MOL0     C61627  11.489   0.302   1.680 -0.4159  0.1837  0.0730
  457MOL0     H61628  11.375   0.373   2.160 -0.1101 -0.5649  1.0308
  457MOL0     H61629  11.200   0.422   2.325  0.9800 -1.0848  0.7286
  457MOL0     H61630  10.924   0.407   2.444 -0.9470  0.5872 -0.5511
  457MOL0     H61631  11.058   0.532   2.426  0.7228 -2.1141  3.0475
  457MOL0     H61632  10.875   0.590   2.588  0.0175 -0.1717  1.0884
  457MOL0     H61633  10.920   0.705   2.463  0.0568 -0.7862 -1.3527
  457MOL0     H61634  10.723   0.614   2.323 -4.2578  1.6883  0.4195
  457MOL0     H61635  10.692   0.516   2.469  1.3001 -0.3872 -0.9322
  457MOL0     H61636  10.647   0.724   2.604 -0.4133 -1.2312 -0.2785
  457MOL0     H61637  10.702   0.819   2.463 -0.4193  0.3586 -0.8549
  457MOL0     H61638  10.478   0.685   2.353  0.9258 -0.0977 -0.9016
  457MOL0     H61639  10.442   0.677   2.527 -1.3043  0.2590 -1.3546
  457MOL0     H61640  10.507   0.939   2.529  0.8492 -1.5480  0.1931
  457MOL0     H61641  10.473   0.932   2.356 -2.6044  0.5232 -0.5646
  457MOL0     H61642  10.302   0.831   2.561  0.6150  1.1244  0.8927
  457MOL0     H61643  10.299   1.005   2.498 -1.1043  0.1164 -1.4185
  457MOL0     H61644  10.224   0.733   2.354  1.0840  0.7052 -0.5048
  457MOL0     H61645  10.243   0.887   2.259 -4.0111  2.5747 -0.6264
  457MOL0     H61646  10.034   1.061   2.300 -4.3984  0.3339 -1.5530
  457MOL0     H61647   9.822   1.149   2.396  0.3331 -0.1797  0.0129
  457MOL0     H61648   9.706   1.033   2.346  1.7907  0.9788 -2.9282
  457MOL0     H61649   9.662   1.167   2.576 -1.4069 -0.6703  2.5476
  457MOL0     H61650   9.782   1.076   2.648 -0.2858 -3.5795  0.6381
  457MOL0     H61651   9.645   0.874   2.591 -0.6328 -0.8839 -3.8825
  457MOL0     H61652   9.534   0.963   2.486  3.1832 -0.8117 -1.5487
  457MOL0     H61653   9.476   1.109   2.708 -2.2120  0.1298 -1.0804
  457MOL0     H61654   9.567   0.982   2.791 -3.0440 -3.1256  1.5902
  457MOL0     H61655   9.178   0.992   2.704  2.9892  4.3145  1.3220
  457MOL0     H61656   8.939   1.061   2.941  2.7948  2.4272 -0.3757
  457MOL0     H61657   8.947   1.002   2.770 -4.7357 -1.6529  0.3687
  457MOL0     H61658   8.905   0.895   2.889 -2.0802  1.5331 -1.8527
  457MOL0     H61659   8.960   0.592   3.251 -0.7813  0.6144 -1.0641
  457MOL0     H61660   8.807   0.505   3.409  1.0372 -0.3147  1.2340
  457MOL0     H61661   8.650   0.480   3.541  0.7867  0.8852 -0.0961
  457MOL0     H61662   8.688   0.433   3.709  2.5365  0.4904 -0.5425
  457MOL0     H61663   8.460   0.615   3.623 -3.1814 -1.8695 -1.2451
  457MOL0     H61664   8.438   0.447   3.674 -0.6158  2.1081 -3.2302
  457MOL0     H61665   8.368   0.623   3.839 -1.1684  0.3890  0.2273
  457MOL0     H61666   8.533   0.684   3.846  1.4008 -0.6901  0.1862
  457MOL0     H61667   8.413   0.413   3.907 -2.4700  2.6961 -0.7445
  457MOL0     H61668   8.591   0.437   3.929 -0.2315  1.1843 -1.1054
  457MOL0     H61669   8.566   0.579   4.101  0.2469  2.0422 -0.4202
  457MOL0     H61670   8.464   0.429   4.138  0.8694  0.6844  2.0253
  457MOL0     H61671   8.390   0.712   4.097  1.3122  0.0778  2.3628
  457MOL0     H61672   8.264   0.583   4.070 -1.0489  1.6535  1.7308
  457MOL0     H61673   8.396   0.568   4.340 -1.2322 -6.1323  0.5373
  457MOL0     H61674   8.257   0.494   4.284 -0.0556 -0.9663 -1.3142
  457MOL0     H61675   8.156   0.724   4.237  0.8793 -3.3226 -0.7394
  457MOL0     H61676   8.295   0.784   4.340  0.0759  0.6789  1.6409
  457MOL0     H61677   8.877   0.852   3.670  3.0368 -1.0556  0.8166
  457MOL0     H61678   9.023   0.942   3.481  0.1667  1.1622 -1.6309
  457MOL0     H61679   9.325   0.792   3.138  0.3189 -0.4749 -0.1398
  457MOL0     H61680   9.467   0.802   2.946  1.1141  5.2411  3.1155
  457MOL0     H61681  10.929   0.528   2.011 -1.1126 -0.2580  1.2432
  457MOL0     H61682  11.091   0.449   1.835  1.4171  0.8400 -0.6586
  457MOL0     H61683  11.299   0.014   1.689 -0.8506  1.0042 -0.9483
  457MOL0     H61684  11.468  -0.056   1.535 -0.9206  0.3447 -0.0884
  457MOL0     H61685  11.733   0.244   1.341 -0.1221 -1.2378 -1.8624
  457MOL0     H61686  11.832   0.154   1.463  5.4391 -2.0477 -3.2405
  457MOL0     H61687  11.788   0.085   1.173  2.1805 -2.4777 -1.6803
  457MOL0     H61688  11.842  -0.039   1.277  2.6289  0.2986 -1.0920
  457MOL0     H61689  12.013   0.073   1.379 -1.4907  1.1717  1.2997
  457MOL0     H61690  11.996   0.226   1.301  2.8309 -0.5717  0.9421
  457MOL0     H61691  12.034   0.107   1.074 -3.2896 -1.3039  0.9963
  457MOL0     H61692  12.088  -0.033   1.167 -3.5642 -0.2525 -4.3156
  457MOL0     H61693  12.429   0.203   1.147 -0.0793 -0.5085  2.3837
  457MOL0     H61694  11.650   0.327   1.529 -0.8246  1.8189 -0.1351
  457MOL0     H61695  11.498   0.406   1.709  0.4583 -0.3088  1.6744
  458MOL0     O61696   8.356   4.050   8.069 -0.3448  0.1057  0.0949
  458MOL0     C61697   8.261   4.096   8.015 -0.4082 -0.2372  0.3397
  458MOL0     O61698   8.132   4.093   8.052  0.1026 -0.4596 -0.0553
  458MOL0     C61699   8.100   4.030   8.164  0.0844  0.3202 -0.3182
  458MOL0     C61700   8.100   3.892   8.179 -0.5698  0.0227  0.3040
  458MOL0     C61701   8.066   3.831   8.297 -0.1621  0.0355  0.3532
  458MOL0     C61702   8.022   3.899   8.402  0.5192 -0.4796 -0.4626
  458MOL0     O61703   7.987   3.836   8.519  0.0159  0.0625 -0.4964
  458MOL0     C61704   8.020   3.898   8.641  0.3953 -1.4766 -0.1035
  458MOL0     C61705   8.069   3.792   8.746  0.0945 -0.5329  0.3045
  458MOL0     C61706   7.961   3.697   8.799 -0.2241  0.1846  0.3129
  458MOL0     C61707   8.020   3.574   8.853 -0.2385  0.3625 -0.4372
  458MOL0     C61708   7.909   3.495   8.928  0.9442  0.3861  0.1985
  458MOL0     C61709   7.979   3.369   8.984  0.5020 -0.9303  0.6655
  458MOL0     C61710   7.888   3.295   9.082  0.2538 -0.7649 -0.3111
  458MOL0     C61711   7.968   3.172   9.150  0.9814 -0.0857 -0.8807
  458MOL0     N61712   7.963   3.044   9.074 -0.4679  0.5351 -0.9398
  458MOL0     C61713   8.074   2.996   8.999 -0.4612 -0.6173  0.4363
  458MOL0     C61714   8.030   2.874   8.971 -0.8435 -0.2981 -0.2200
  458MOL0     C61715   8.114   2.787   8.880 -0.5045 -0.3006 -0.4902
  458MOL0     C61716   8.117   2.644   8.927 -0.1693 -0.4960 -0.5134
  458MOL0     C61717   8.224   2.558   8.862 -0.5904  0.2403  0.8980
  458MOL0     C61718   8.365   2.597   8.898 -0.8124  0.4982 -0.5058
  458MOL0     O61719   8.417   2.694   8.797 -0.3854 -0.4394  0.3701
  458MOL0     C61720   8.535   2.762   8.821 -0.9926 -0.0891 -0.4255
  458MOL0     C61721   8.606   2.739   8.945  0.2666  0.4361  0.8011
  458MOL0     C61722   8.731   2.795   8.966  0.4963 -0.1248 -0.6792
  458MOL0     C61723   8.792   2.786   9.099  0.1389  0.7671 -0.0883
  458MOL0     C61724   8.797   2.872   8.863 -0.1251 -0.1655  0.4089
  458MOL0     C61725   8.926   2.948   8.877 -0.0458  0.2528 -0.2725
  458MOL0     O61726   8.956   3.017   8.992  0.9871 -0.3694 -0.6337
  458MOL0     C61727   9.072   3.080   9.012  0.6525  0.4330 -0.8220
  458MOL0     C61728   9.151   3.040   9.116  0.2474 -0.2659 -0.2177
  458MOL0     C61729   9.276   3.095   9.137 -0.7001  0.1371 -0.1726
  458MOL0     C61730   9.334   3.183   9.051  0.0365  0.1687  0.0034
  458MOL0     O61731   9.456   3.244   9.064 -0.2097  0.3029  1.0578
  458MOL0     C61732   9.469   3.298   9.196 -0.8059 -0.3488 -0.1387
  458MOL0     C61733   9.494   3.448   9.174 -0.5059 -0.9672 -0.3057
  458MOL0     C61734   9.478   3.525   9.306 -0.5605 -0.2474  0.6612
  458MOL0     C61735   9.506   3.679   9.295 -0.0599 -0.5395 -0.3826
  458MOL0     C61736   9.600   3.739   9.403  0.3391  0.1805  0.0850
  458MOL0     C61737   9.548   3.721   9.544 -0.0345 -0.0406  0.0019
  458MOL0     C61738   9.569   3.847   9.632 -0.2796  0.8108  0.4354
  458MOL0     C61739   9.712   3.893   9.654 -0.7109  0.2743 -0.4902
  458MOL0    Cl61740   9.810   3.754   9.713 -0.2222  0.0187 -0.0135
  458MOL0     C61741   9.257   3.212   8.939  0.1318  0.1345  0.0567
  458MOL0     C61742   9.123   3.171   8.930  0.1417 -0.7333  0.0584
  458MOL0     O61743   9.003   2.931   8.788 -0.3045 -0.1201 -0.6712
  458MOL0     C61744   8.726   2.882   8.745 -0.1353 -0.0972 -0.2808
  458MOL0     C61745   8.592   2.835   8.722 -1.1024  1.3978  0.5581
  458MOL0     N61746   7.918   2.845   9.043  0.5403 -0.9545 -0.6768
  458MOL0     N61747   7.871   2.944   9.102  0.0881  0.4425  0.5529
  458MOL0     C61748   8.007   4.047   8.387 -0.2828 -0.0664  0.0516
  458MOL0     C61749   8.041   4.105   8.273  0.1219  0.6512  0.7461
  458MOL0     C61750   8.286   4.203   7.913 -0.2419  0.3412 -0.0542
  458MOL0     C61751   8.186   4.294   7.869  0.2599  1.1632  0.3692
  458MOL0     C61752   8.211   4.398   7.790 -0.1537 -0.6722 -0.2815
  458MOL0     C61753   8.340   4.420   7.753  0.4461  0.4375 -0.3826
  458MOL0     O61754   8.353   4.531   7.676 -0.5955  0.4203  0.3999
  458MOL0     C61755   8.434   4.515   7.553 -0.6538  0.1960 -0.8338
  458MOL0     C61756   8.354   4.491   7.430  0.2260 -0.0664 -0.2165
  458MOL0     C61757   8.307   4.346   7.428 -0.0876  0.1350 -0.0447
  458MOL0     C61758   8.215   4.323   7.303  1.1568 -0.0884  0.2895
  458MOL0     C61759   8.170   4.183   7.292 -0.6808 -0.6496 -0.0162
  458MOL0     C61760   8.134   4.065   7.282  1.1194 -0.6525 -0.0570
  458MOL0     C61761   8.445   4.332   7.802 -0.1617 -0.0150  0.4652
  458MOL0     C61762   8.417   4.220   7.865  0.1705 -1.1808 -0.5541
  458MOL0     H61763   8.146   3.839   8.096 -0.2047  1.1126 -0.2051
  458MOL0     H61764   8.090   3.725   8.299  0.2712  0.1367  1.2022
  458MOL0     H61765   8.109   3.962   8.631 -1.3379  1.1425  0.1501
  458MOL0     H61766   7.946   3.965   8.685  2.5671  1.6015 -0.7598
  458MOL0     H61767   8.142   3.728   8.694  2.2940  1.3266  0.9062
  458MOL0     H61768   8.116   3.850   8.826 -0.2763  0.1424  0.0363
  458MOL0     H61769   7.909   3.754   8.877 -0.4932  1.2451 -0.6098
  458MOL0     H61770   7.892   3.673   8.718  0.2552  1.5302 -0.5291
  458MOL0     H61771   8.068   3.522   8.769  0.8135  1.9496 -0.8583
  458MOL0     H61772   8.094   3.594   8.931  1.7739 -4.7427 -0.6642
  458MOL0     H61773   7.881   3.551   9.018 -0.5908  0.0464 -0.0303
  458MOL0     H61774   7.822   3.478   8.865  0.0167  3.0740  0.6165
  458MOL0     H61775   8.004   3.304   8.899 -0.6691  0.9334 -1.2097
  458MOL0     H61776   8.075   3.399   9.026 -0.4492  1.3574  1.3403
  458MOL0     H61777   7.862   3.366   9.162  0.4498  1.0792 -1.8126
  458MOL0     H61778   7.801   3.260   9.026 -0.1646 -2.2221  1.1674
  458MOL0     H61779   7.918   3.143   9.242  3.2755 -1.4613  0.0263
  458MOL0     H61780   8.074   3.193   9.168  1.2328 -2.9469  1.7870
  458MOL0     H61781   8.148   3.067   8.961 -1.4240 -1.1705 -2.7396
  458MOL0     H61782   8.074   2.795   8.778  1.1774 -1.7354 -1.3158
  458MOL0     H61783   8.213   2.832   8.874  0.5286 -1.4582  4.0920
  458MOL0     H61784   8.020   2.597   8.906 -1.8901  1.7637  1.8011
  458MOL0     H61785   8.144   2.650   9.033 -1.5364  0.9349 -0.2035
  458MOL0     H61786   8.195   2.561   8.757 -1.4446 -0.1921  1.1150
  458MOL0     H61787   8.225   2.450   8.881  0.1241  0.4151  1.8897
  458MOL0     H61788   8.441   2.519   8.886  1.0123  2.3764 -1.8994
  458MOL0     H61789   8.372   2.639   8.999 -0.8890 -2.6698  0.9568
  458MOL0     H61790   8.562   2.678   9.023 -2.1990  1.4502  0.2867
  458MOL0     H61791   8.760   2.870   9.162  0.3174 -0.1801  1.3053
  458MOL0     H61792   8.743   2.706   9.154 -2.0230  1.2709 -1.1759
  458MOL0     H61793   8.898   2.760   9.098  0.3035  1.2828  1.5993
  458MOL0     H61794   9.120   2.969   9.193 -1.2088 -0.5239 -1.0085
  458MOL0     H61795   9.334   3.080   9.228  0.4238  0.9755 -0.7262
  458MOL0     H61796   9.386   3.278   9.264  0.5913 -1.7514  1.2258
  458MOL0     H61797   9.554   3.259   9.252  1.2310  1.4763 -1.7677
  458MOL0     H61798   9.601   3.467   9.156 -1.0903  4.3896  0.2373
  458MOL0     H61799   9.438   3.501   9.097 -0.9657  0.9622  1.2518
  458MOL0     H61800   9.553   3.485   9.374  1.5543  1.0632 -0.7690
  458MOL0     H61801   9.382   3.494   9.349  0.4040 -4.1010  0.4347
  458MOL0     H61802   9.535   3.702   9.192  0.5393 -1.0063 -0.3230
  458MOL0     H61803   9.413   3.731   9.319 -0.2408 -0.6888 -0.7386
  458MOL0     H61804   9.610   3.846   9.383  0.3845 -0.0842 -1.3895
  458MOL0     H61805   9.699   3.692   9.400 -0.0456 -0.8215  1.6986
  458MOL0     H61806   9.441   3.703   9.533 -0.3514  2.6636 -2.6294
  458MOL0     H61807   9.595   3.634   9.590  2.0687  1.6058  1.1425
  458MOL0     H61808   9.523   3.834   9.730 -0.2456  0.0304  0.3533
  458MOL0     H61809   9.511   3.926   9.583 -2.2469 -0.5518  0.4687
  458MOL0     H61810   9.734   3.974   9.725  0.0531  1.5970 -2.1329
  458MOL0     H61811   9.754   3.934   9.561  3.8367 -0.2316  1.0790
  458MOL0     H61812   9.304   3.275   8.864  2.4748 -0.3743  1.0131
  458MOL0     H61813   9.050   3.215   8.862  1.0473 -1.1955 -1.2552
  458MOL0     H61814   8.770   2.934   8.661  1.0360  0.7386  0.8073
  458MOL0     H61815   8.553   2.861   8.624  4.9852  5.9045 -1.2799
  458MOL0     H61816   7.996   4.119   8.468 -0.1078  1.7175 -1.4368
  458MOL0     H61817   8.035   4.211   8.250 -0.4018  0.5295  0.3013
  458MOL0     H61818   8.081   4.274   7.884  0.7217 -1.9351  0.1583
  458MOL0     H61819   8.135   4.461   7.746  1.6489  0.7550 -1.5019
  458MOL0     H61820   8.479   4.614   7.541 -0.9225  0.7904  2.2129
  458MOL0     H61821   8.521   4.449   7.563 -1.9792 -1.7073 -1.2240
  458MOL0     H61822   8.414   4.507   7.340  2.2899  3.2844  1.5627
  458MOL0     H61823   8.262   4.550   7.425  0.5670  0.3515 -1.9883
  458MOL0     H61824   8.256   4.321   7.521  0.9020  2.8335  1.3146
  458MOL0     H61825   8.391   4.278   7.409 -0.8991 -1.0136  0.3372
  458MOL0     H61826   8.260   4.355   7.209  0.0654 -0.3353 -0.3305
  458MOL0     H61827   8.120   4.378   7.308  0.8497 -0.4419 -1.1293
  458MOL0     H61828   8.087   3.969   7.271 -1.1577  0.6309 -3.4264
  458MOL0     H61829   8.551   4.351   7.783 -0.2054  0.1174  0.3497
  458MOL0     H61830   8.489   4.149   7.904  0.0990 -0.9880 -0.0527
  459MOL0     O61831   3.881   8.401   5.155  0.4750  1.0709  0.8441
  459MOL0     C61832   3.854   8.457   5.053 -0.9275 -0.3805 -0.6119
  459MOL0     O61833   3.782   8.404   4.951 -0.0664  0.8840 -0.9187
  459MOL0     C61834   3.748   8.266   4.958 -0.1293 -0.2875 -0.9068
  459MOL0     C61835   3.851   8.169   4.924  0.3379  0.4233 -0.0372
  459MOL0     C61836   3.819   8.032   4.909 -0.4857 -0.2085 -0.6451
  459MOL0     C61837   3.691   7.986   4.930  0.4712 -0.7445 -0.1993
  459MOL0     O61838   3.677   7.851   4.925 -0.4653 -0.3044 -0.5180
  459MOL0     C61839   3.548   7.793   4.942 -0.2362  0.7515 -0.2782
  459MOL0     C61840   3.564   7.635   4.940 -0.1533  0.1800  0.0775
  459MOL0     C61841   3.421   7.564   4.932 -0.3385  0.0471 -0.0415
  459MOL0     C61842   3.456   7.417   4.923  0.0970 -1.0885  0.3521
  459MOL0     C61843   3.326   7.326   4.916  0.7787  0.8238  0.2804
  459MOL0     C61844   3.371   7.182   4.878  0.1357 -1.0416 -0.1530
  459MOL0     C61845   3.254   7.084   4.907  0.5370 -1.1931  0.0704
  459MOL0     C61846   3.300   6.943   4.885  0.4134 -0.8793 -0.4252
  459MOL0     N61847   3.337   6.932   4.747  0.0816 -0.5547 -0.7743
  459MOL0     C61848   3.259   6.917   4.640  0.4974  0.6902  0.8263
  459MOL0     C61849   3.337   6.876   4.541 -0.8178  0.7563 -0.0855
  459MOL0     C61850   3.286   6.849   4.408 -0.9088 -0.2791  0.7729
  459MOL0     C61851   3.203   6.720   4.394  0.1112  0.4732  0.1997
  459MOL0     C61852   3.066   6.757   4.350  0.3076  0.6640  0.2640
  459MOL0     C61853   3.053   6.836   4.221  0.7298 -0.1879  0.1009
  459MOL0     O61854   2.918   6.810   4.183 -0.3990 -0.6342  0.6114
  459MOL0     C61855   2.898   6.739   4.073  0.9542 -0.5315  0.4309
  459MOL0     C61856   2.797   6.777   3.986  0.3653  0.0555 -0.6420
  459MOL0     C61857   2.763   6.696   3.869 -0.3639  0.5575  0.4590
  459MOL0     C61858   2.648   6.743   3.786 -0.0807 -0.1312  0.8517
  459MOL0     C61859   2.842   6.581   3.848 -0.9587 -0.1059  0.0595
  459MOL0     C61860   2.841   6.490   3.727 -0.6628  0.2154 -0.1051
  459MOL0     O61861   2.860   6.351   3.747 -0.7711 -0.1755  0.0482
  459MOL0     C61862   2.909   6.264   3.651  0.6642  0.1920  0.1126
  459MOL0     C61863   3.014   6.188   3.682 -0.9360  0.6876 -0.4423
  459MOL0     C61864   3.073   6.097   3.587 -0.1879 -0.1259 -1.0811
  459MOL0     C61865   3.023   6.086   3.459 -0.2496 -0.4637  0.1279
  459MOL0     O61866   3.083   5.996   3.374 -0.0194  0.1798  0.1983
  459MOL0     C61867   3.058   6.001   3.233  0.5625 -0.1572  0.0252
  459MOL0     C61868   3.147   6.101   3.161 -0.5680  0.2662 -0.4917
  459MOL0     C61869   3.170   6.086   3.009 -0.0675  0.0169  0.6580
  459MOL0     C61870   3.054   6.020   2.938  0.0787  0.9647  0.3760
  459MOL0     C61871   3.053   6.068   2.795  0.0393 -1.0398  0.1526
  459MOL0     C61872   3.086   5.950   2.704 -0.0886  0.4779  0.3250
  459MOL0     C61873   3.048   5.971   2.552 -0.2377 -0.2480 -0.4554
  459MOL0     C61874   3.004   5.847   2.479 -0.1744 -0.3528  0.1678
  459MOL0    Cl61875   3.147   5.739   2.469 -0.3274 -0.2810  0.0269
  459MOL0     C61876   2.912   6.171   3.427  0.6851  0.0778 -0.6176
  459MOL0     C61877   2.856   6.256   3.517 -0.5894 -0.5919 -0.2723
  459MOL0     O61878   2.852   6.551   3.616  0.0089 -0.1919  0.0328
  459MOL0     C61879   2.945   6.538   3.937  0.0329 -0.5898  1.2078
  459MOL0     C61880   2.965   6.623   4.048  0.8153 -0.9101 -0.8618
  459MOL0     N61881   3.462   6.862   4.589 -0.2889 -0.6538  0.2090
  459MOL0     N61882   3.458   6.891   4.714  0.3652  0.1531  0.0806
  459MOL0     C61883   3.588   8.085   4.957  0.1156 -0.4683 -1.1782
  459MOL0     C61884   3.613   8.222   4.965 -0.3732 -0.0204 -0.9316
  459MOL0     C61885   3.901   8.598   5.031 -0.2436  0.2810 -0.3620
  459MOL0     C61886   3.974   8.668   5.134 -0.0025 -0.1103  0.1356
  459MOL0     C61887   4.009   8.801   5.120  0.4654 -0.6172 -0.5767
  459MOL0     C61888   4.004   8.871   4.993  1.0086  0.4220  0.1480
  459MOL0     O61889   4.056   8.994   4.986 -0.9313 -0.1976 -0.2441
  459MOL0     C61890   4.024   9.083   4.875 -0.1188  0.5625  0.4822
  459MOL0     C61891   4.088   9.222   4.901  0.3434 -0.9335  0.2524
  459MOL0     C61892   4.040   9.319   4.789 -0.0455  0.1108 -0.5667
  459MOL0     C61893   4.106   9.452   4.783 -0.6842  0.4150 -0.9988
  459MOL0     C61894   4.043   9.517   4.670 -0.6189 -0.1787 -0.1157
  459MOL0     C61895   4.018   9.572   4.577 -0.2633  0.1222  0.6977
  459MOL0     C61896   3.935   8.807   4.889 -0.7774 -0.0550 -0.2264
  459MOL0     C61897   3.890   8.670   4.906 -1.1177  0.3771  0.0641
  459MOL0     H61898   3.946   8.212   4.895 -1.4201  2.9136 -2.5276
  459MOL0     H61899   3.884   7.953   4.872 -0.1331  0.0625 -0.6089
  459MOL0     H61900   3.517   7.823   5.042 -1.1723 -3.3388  0.8586
  459MOL0     H61901   3.475   7.830   4.870 -2.5920 -1.8298  0.5963
  459MOL0     H61902   3.633   7.596   4.864 -0.9956 -1.2822  0.0223
  459MOL0     H61903   3.613   7.606   5.034  1.0297  0.7088 -0.3574
  459MOL0     H61904   3.368   7.598   5.021  2.0532  0.6761  1.2537
  459MOL0     H61905   3.357   7.584   4.846 -0.7361 -3.5683 -0.7559
  459MOL0     H61906   3.538   7.394   4.854  2.0673  1.1224  1.7656
  459MOL0     H61907   3.507   7.392   5.017 -1.9784 -2.9825  1.0459
  459MOL0     H61908   3.277   7.315   5.014  0.9044  0.2435  0.2816
  459MOL0     H61909   3.248   7.362   4.849 -0.2799  3.1524  2.5892
  459MOL0     H61910   3.397   7.185   4.772  0.6733 -2.7203 -0.0914
  459MOL0     H61911   3.454   7.153   4.942  1.6681  0.7593 -1.2080
  459MOL0     H61912   3.213   7.096   5.008 -2.2697  1.9791 -1.2737
  459MOL0     H61913   3.175   7.115   4.838 -0.0417  0.7683  1.5274
  459MOL0     H61914   3.216   6.876   4.906  0.3966 -1.4520 -2.2336
  459MOL0     H61915   3.374   6.909   4.958 -1.8878 -0.1280  2.5085
  459MOL0     H61916   3.151   6.922   4.641  0.5344  3.1965 -1.0134
  459MOL0     H61917   3.231   6.940   4.383  0.2584 -0.0754 -1.2552
  459MOL0     H61918   3.368   6.853   4.335 -0.8813  1.2280  0.8570
  459MOL0     H61919   3.193   6.656   4.482 -0.2865  2.2155  1.4675
  459MOL0     H61920   3.248   6.656   4.318 -2.2420  0.4971 -1.3368
  459MOL0     H61921   3.017   6.815   4.428 -2.0703  1.3216 -1.5811
  459MOL0     H61922   3.012   6.663   4.335  1.0131 -0.0994  2.2384
  459MOL0     H61923   3.121   6.814   4.138 -1.8844  0.8534 -2.4830
  459MOL0     H61924   3.065   6.943   4.240  1.9627 -0.6855  2.5071
  459MOL0     H61925   2.749   6.874   3.982  0.5101  0.0856 -2.0640
  459MOL0     H61926   2.555   6.686   3.789 -1.3896  1.9510  2.3692
  459MOL0     H61927   2.628   6.844   3.823  4.1318  1.4538 -0.5999
  459MOL0     H61928   2.689   6.759   3.686 -2.9727  2.1184 -0.1262
  459MOL0     H61929   3.055   6.203   3.782  1.6533  1.8563 -1.5890
  459MOL0     H61930   3.150   6.033   3.629 -1.8786 -0.4831  1.7607
  459MOL0     H61931   3.076   5.902   3.191  0.9614  0.5409 -1.5340
  459MOL0     H61932   2.955   6.030   3.209  0.6656  0.1827 -0.0077
  459MOL0     H61933   3.111   6.203   3.179  0.3291  0.9981 -2.5198
  459MOL0     H61934   3.249   6.089   3.199 -0.2672  1.9705 -0.6659
  459MOL0     H61935   3.260   6.026   2.993  1.5193  1.4857  3.4096
  459MOL0     H61936   3.183   6.187   2.969 -0.7555  0.5144  1.6605
  459MOL0     H61937   3.056   5.913   2.958  3.3250  0.5527 -1.4337
  459MOL0     H61938   2.955   6.059   2.963 -0.1219  1.4024 -1.0100
  459MOL0     H61939   3.123   6.149   2.772  0.4938 -1.3204  0.5326
  459MOL0     H61940   2.953   6.099   2.764 -0.6660 -0.4418  2.7894
  459MOL0     H61941   3.194   5.945   2.723  0.5873  5.3953 -0.7610
  459MOL0     H61942   3.048   5.850   2.725  1.5681 -1.0106 -3.0637
  459MOL0     H61943   3.144   6.008   2.514  0.7357 -2.7261 -0.5497
  459MOL0     H61944   2.963   6.040   2.550 -0.4483 -0.5026 -0.2841
  459MOL0     H61945   2.981   5.872   2.376  3.1019  0.1620 -0.5428
  459MOL0     H61946   2.912   5.809   2.524 -1.1676  1.9515  0.1922
  459MOL0     H61947   2.866   6.164   3.329  0.0948 -0.9001 -0.2843
  459MOL0     H61948   2.769   6.312   3.484 -0.7001 -1.4734 -1.5265
  459MOL0     H61949   3.012   6.455   3.917 -1.2392 -0.7247 -3.5959
  459MOL0     H61950   3.034   6.607   4.131 -1.7009  0.1838  1.6278
  459MOL0     H61951   3.488   8.048   4.974  0.9144 -3.3669 -2.2285
  459MOL0     H61952   3.537   8.293   4.994 -1.4046 -1.3895 -0.2047
  459MOL0     H61953   3.991   8.628   5.234 -1.2232  2.3850  1.4452
  459MOL0     H61954   4.053   8.859   5.201  3.5039 -2.2383 -0.9356
  459MOL0     H61955   4.056   9.056   4.774 -0.5023 -2.3504  1.0464
  459MOL0     H61956   3.915   9.094   4.882 -0.3932 -1.7077  0.4975
  459MOL0     H61957   4.197   9.227   4.909  0.4495  1.2735 -1.3613
  459MOL0     H61958   4.031   9.255   4.988  0.9378  1.5173 -0.2094
  459MOL0     H61959   3.932   9.327   4.805  0.2770  2.4129  0.8992
  459MOL0     H61960   4.060   9.283   4.688 -0.4303 -0.4613 -0.4445
  459MOL0     H61961   4.215   9.440   4.785 -0.8720 -1.5612  2.0968
  459MOL0     H61962   4.084   9.519   4.866  2.2446  0.7975 -0.3959
  459MOL0     H61963   3.993   9.627   4.488 -0.1860  1.3553  1.4086
  459MOL0     H61964   3.926   8.869   4.801  3.7856  1.5499  0.1618
  459MOL0     H61965   3.836   8.629   4.821 -0.0465  1.6401 -1.2764
  460MOL0     O61966   8.921   7.303   8.882 -0.7740 -0.0415 -0.3132
  460MOL0     C61967   8.991   7.343   8.789 -0.1460 -0.4415  0.3056
  460MOL0     O61968   9.117   7.401   8.796  0.4556  0.6185 -0.8388
  460MOL0     C61969   9.152   7.454   8.919 -0.2417 -0.9976 -0.2311
  460MOL0     C61970   9.225   7.376   9.012 -0.3005 -0.2483  0.6824
  460MOL0     C61971   9.261   7.434   9.128 -0.4080 -0.6602 -0.5316
  460MOL0     C61972   9.233   7.560   9.170 -0.2451 -0.2567 -0.1377
  460MOL0     O61973   9.257   7.596   9.295  0.1982 -0.6734  0.2817
  460MOL0     C61974   9.316   7.730   9.320  0.5987  0.0442 -0.0892
  460MOL0     C61975   9.383   7.735   9.454 -0.2579 -0.6075  0.5542
  460MOL0     C61976   9.478   7.620   9.466  0.3172 -0.5496  0.5271
  460MOL0     C61977   9.575   7.635   9.590 -0.4043 -0.2703  0.2783
  460MOL0     C61978   9.504   7.595   9.715 -1.0696  0.3620  0.1833
  460MOL0     C61979   9.472   7.452   9.733 -0.4729  0.7662 -1.0428
  460MOL0     C61980   9.373   7.437   9.852  1.3714  0.8284 -0.1515
  460MOL0     C61981   9.360   7.285   9.881 -0.2948 -0.0550  0.5020
  460MOL0     N61982   9.289   7.262  10.007  0.5205  0.6729  0.2322
  460MOL0     C61983   9.332   7.209  10.128 -0.1202  0.1031  0.3651
  460MOL0     C61984   9.228   7.224  10.211 -0.7442 -0.3349  0.2551
  460MOL0     C61985   9.221   7.183  10.357 -0.6924  0.0133  0.1263
  460MOL0     C61986   9.165   7.293  10.448 -0.9262 -0.0911  1.2777
  460MOL0     C61987   9.174   7.261  10.594  0.5839 -0.4669  0.0272
  460MOL0     C61988   9.147   7.377  10.683  0.1315 -0.8730  0.6416
  460MOL0     O61989   9.146   7.317  10.813  0.8607 -0.2530 -0.1447
  460MOL0     C61990   9.263   7.302  10.893 -0.1688 -0.3378 -0.2535
  460MOL0     C61991   9.254   7.250  11.020  0.5521 -0.4854 -0.7301
  460MOL0     C61992   9.359   7.229  11.104  0.2384 -0.1243 -0.1631
  460MOL0     C61993   9.340   7.164  11.237  0.5298  0.3540 -0.7000
  460MOL0     C61994   9.482   7.281  11.064 -0.6374  0.7824 -0.6073
  460MOL0     C61995   9.604   7.265  11.149 -0.6238  0.2678 -0.7615
  460MOL0     O61996   9.603   7.259  11.287 -0.3641  0.5723 -0.0335
  460MOL0     C61997   9.699   7.267  11.380  0.6758 -0.1124 -0.9209
  460MOL0     C61998   9.823   7.334  11.357 -0.3052  0.6793  0.0831
  460MOL0     C61999   9.918   7.345  11.457 -0.5220 -0.2510 -0.5531
  460MOL0     C62000   9.910   7.284  11.583  0.2408 -1.1202  0.4194
  460MOL0     O62001  10.003   7.295  11.682 -0.1309 -0.4888 -0.8320
  460MOL0     C62002  10.130   7.355  11.655  0.7871  0.0304  0.3464
  460MOL0     C62003  10.226   7.315  11.762  0.1787 -0.9733 -0.7189
  460MOL0     C62004  10.240   7.167  11.762  0.3135 -0.4593  0.3116
  460MOL0     C62005  10.174   7.089  11.878  0.9965 -0.7386  0.8236
  460MOL0     C62006  10.224   6.941  11.887  0.7593 -0.5595 -0.1674
  460MOL0     C62007  10.179   6.839  11.781 -0.2960 -0.9894 -0.2738
  460MOL0     C62008  10.190   6.694  11.814  0.9389 -0.1477  0.6338
  460MOL0     C62009  10.094   6.646  11.920  1.0762  0.7690  0.1409
  460MOL0    Cl62010   9.927   6.717  11.900  0.1624  0.0844 -0.2722
  460MOL0     C62011   9.794   7.216  11.606  1.3542 -0.6002 -0.4822
  460MOL0     C62012   9.688   7.215  11.508  0.4119 -0.3779 -0.2363
  460MOL0     O62013   9.710   7.271  11.084 -0.1779  1.0040 -0.2061
  460MOL0     C62014   9.497   7.341  10.937 -0.5851 -0.2493 -0.2657
  460MOL0     C62015   9.388   7.363  10.857  0.1467 -0.1348 -0.0205
  460MOL0     N62016   9.130   7.304  10.142 -0.1955 -0.4845  0.1182
  460MOL0     N62017   9.161   7.309  10.020 -0.3423 -0.6032  0.0782
  460MOL0     C62018   9.176   7.644   9.070  0.2949 -0.1068 -0.4940
  460MOL0     C62019   9.131   7.596   8.946 -0.1798  0.7736 -0.6124
  460MOL0     C62020   8.923   7.333   8.658  0.0819 -0.0880 -0.8050
  460MOL0     C62021   8.956   7.432   8.559  0.0220  0.4828 -0.7092
  460MOL0     C62022   8.887   7.430   8.431 -0.0408  0.0416 -0.1861
  460MOL0     C62023   8.793   7.332   8.401  0.0636  0.0167  0.2120
  460MOL0     O62024   8.727   7.338   8.280  0.0004  0.1628  0.3584
  460MOL0     C62025   8.706   7.212   8.214 -0.0800 -0.6706 -0.1714
  460MOL0     C62026   8.670   7.217   8.069  0.4644  0.3204 -0.6740
  460MOL0     C62027   8.536   7.279   8.063 -0.1072 -0.4634 -0.2579
  460MOL0     C62028   8.441   7.199   7.966 -0.3722 -0.5250  0.2853
  460MOL0     C62029   8.438   7.064   8.009 -0.6974  0.1597  0.3768
  460MOL0     C62030   8.433   6.958   8.069  0.6890  1.1220 -0.1757
  460MOL0     C62031   8.754   7.243   8.502 -0.3448 -0.3239  0.1876
  460MOL0     C62032   8.813   7.246   8.628 -0.0961 -0.2724 -0.3529
  460MOL0     H62033   9.271   7.281   8.991 -2.9336 -1.2399 -1.1500
  460MOL0     H62034   9.300   7.362   9.199 -0.3347 -0.1861 -0.0879
  460MOL0     H62035   9.386   7.763   9.242  0.9231 -0.1326  0.1213
  460MOL0     H62036   9.239   7.807   9.333 -0.8591 -1.4158  0.2134
  460MOL0     H62037   9.438   7.825   9.484 -1.6037 -0.1703  1.8705
  460MOL0     H62038   9.304   7.729   9.529 -1.4535 -1.6308 -0.7490
  460MOL0     H62039   9.414   7.531   9.472  0.6669 -0.7073  2.6278
  460MOL0     H62040   9.551   7.620   9.384 -1.4387  1.3893 -1.1289
  460MOL0     H62041   9.666   7.575   9.588 -1.7291 -2.4550  1.2996
  460MOL0     H62042   9.605   7.740   9.599  3.0860 -1.2293  1.6428
  460MOL0     H62043   9.566   7.632   9.797  0.8871 -2.7412  0.2507
  460MOL0     H62044   9.408   7.646   9.723 -2.4473 -2.0108 -0.2353
  460MOL0     H62045   9.446   7.400   9.640 -1.4526 -1.9296  0.6116
  460MOL0     H62046   9.566   7.405   9.760 -0.3434  2.0607  0.9559
  460MOL0     H62047   9.397   7.488   9.946 -2.0139  1.0885  0.7257
  460MOL0     H62048   9.274   7.472   9.820  0.7035  0.1239  1.0444
  460MOL0     H62049   9.463   7.249   9.889 -0.5848 -0.6922  1.6987
  460MOL0     H62050   9.306   7.237   9.800  0.5899 -1.8577  0.9314
  460MOL0     H62051   9.430   7.172  10.157 -0.9496 -1.4524  1.3051
  460MOL0     H62052   9.171   7.086  10.368  0.3237 -1.0145 -3.0921
  460MOL0     H62053   9.325   7.170  10.387  0.3469 -1.0272 -3.4051
  460MOL0     H62054   9.061   7.310  10.421  0.2339  2.7172 -2.3461
  460MOL0     H62055   9.217   7.388  10.430 -0.2231 -0.4445  1.3883
  460MOL0     H62056   9.277   7.237  10.622  1.0546 -0.6434 -1.7687
  460MOL0     H62057   9.102   7.180  10.614 -4.4348  3.8782  1.9050
  460MOL0     H62058   9.048   7.415  10.655  0.4146  0.8400  1.7913
  460MOL0     H62059   9.215   7.462  10.668 -0.0769 -1.0814 -1.9459
  460MOL0     H62060   9.153   7.243  11.058  1.5682  0.6023  2.5041
  460MOL0     H62061   9.388   7.066  11.244 -0.8893 -0.4709 -2.1192
  460MOL0     H62062   9.373   7.228  11.320  2.2052  1.5824 -2.2450
  460MOL0     H62063   9.233   7.151  11.254  0.1020  1.1015 -2.5640
  460MOL0     H62064   9.845   7.379  11.261 -0.3833  0.3347 -0.0978
  460MOL0     H62065  10.002   7.408  11.430  1.0522 -0.9807  2.2529
  460MOL0     H62066  10.162   7.313  11.560 -3.7865 -1.6045 -0.7186
  460MOL0     H62067  10.118   7.464  11.655 -1.2750 -0.1269 -2.2382
  460MOL0     H62068  10.320   7.362  11.734 -1.0736  0.3684 -3.0350
  460MOL0     H62069  10.188   7.345  11.861 -2.6478  3.8341 -2.8706
  460MOL0     H62070  10.345   7.136  11.761  0.3436 -0.4113  1.1467
  460MOL0     H62071  10.198   7.125  11.670 -0.6398 -0.3245  0.6782
  460MOL0     H62072  10.184   7.143  11.972 -0.5246  3.2453 -1.1027
  460MOL0     H62073  10.067   7.099  11.859  0.9123 -0.8908  1.2155
  460MOL0     H62074  10.185   6.916  11.986  0.2786  1.5614  0.2129
  460MOL0     H62075  10.333   6.928  11.891  0.7658 -0.1811  1.4929
  460MOL0     H62076  10.074   6.866  11.763 -0.2317  1.1164  1.9834
  460MOL0     H62077  10.241   6.864  11.694 -0.8097 -2.9661 -1.2765
  460MOL0     H62078  10.292   6.657  11.823  1.5201  0.6615 -1.8588
  460MOL0     H62079  10.158   6.646  11.721 -0.0586 -3.8241  2.6502
  460MOL0     H62080  10.141   6.682  12.012 -1.1177 -0.0881  1.6906
  460MOL0     H62081  10.093   6.537  11.923  1.6088  0.7796  2.2476
  460MOL0     H62082   9.764   7.171  11.700 -1.4099  3.7164  1.0445
  460MOL0     H62083   9.589   7.178  11.536  0.5379 -0.2290  0.4396
  460MOL0     H62084   9.595   7.367  10.898 -0.0790  1.9040  2.1629
  460MOL0     H62085   9.398   7.415  10.763  0.0724 -0.6505 -0.3145
  460MOL0     H62086   9.137   7.742   9.094 -1.1288 -0.7984  0.1425
  460MOL0     H62087   9.071   7.653   8.877  1.3956 -2.3670 -5.0328
  460MOL0     H62088   9.035   7.506   8.568 -0.9205  1.3138  1.7341
  460MOL0     H62089   8.927   7.491   8.350  0.3273 -1.0346 -0.8274
  460MOL0     H62090   8.798   7.154   8.226  0.5029  0.5667  2.0283
  460MOL0     H62091   8.610   7.173   8.249 -1.3996  1.4683 -1.1865
  460MOL0     H62092   8.682   7.118   8.022  2.6102 -0.2886  1.0021
  460MOL0     H62093   8.737   7.277   8.007  1.6702 -1.7614 -1.4943
  460MOL0     H62094   8.550   7.381   8.028  1.3482 -0.7881 -0.6830
  460MOL0     H62095   8.479   7.292   8.156  0.7118 -0.5661  0.2668
  460MOL0     H62096   8.473   7.198   7.861 -1.1021  1.1655  0.0119
  460MOL0     H62097   8.341   7.242   7.972 -0.7395 -1.2054 -0.7620
  460MOL0     H62098   8.420   6.863   8.115 -2.1015  1.0246 -0.9881
  460MOL0     H62099   8.673   7.173   8.483  0.3408 -1.2192  0.5022
  460MOL0     H62100   8.767   7.183   8.704 -1.3780  1.2004  0.1358
  461MOL0     O62101   7.849   1.037   4.632  0.7568  0.0641  0.3053
  461MOL0     C62102   7.732   0.994   4.625  0.0859  1.2264  0.4004
  461MOL0     O62103   7.617   1.062   4.581 -0.7872 -0.3998 -0.7465
  461MOL0     C62104   7.617   1.195   4.528 -0.0300 -0.3469 -0.2948
  461MOL0     C62105   7.526   1.242   4.435  0.1671  0.3505  0.0708
  461MOL0     C62106   7.523   1.374   4.377 -1.0632 -0.7359  0.9400
  461MOL0     C62107   7.623   1.465   4.419  0.1770  0.0130 -0.4783
  461MOL0     O62108   7.644   1.589   4.366  0.1591  0.1572 -0.0505
  461MOL0     C62109   7.533   1.665   4.330 -0.2101 -0.4227 -1.0684
  461MOL0     C62110   7.521   1.660   4.176  0.7383 -0.4457 -0.5852
  461MOL0     C62111   7.615   1.735   4.082  0.1169 -0.3749 -0.1456
  461MOL0     C62112   7.622   1.881   4.116 -0.7087  0.1418  0.3532
  461MOL0     C62113   7.731   1.956   4.039 -0.3678 -0.0090 -0.6700
  461MOL0     C62114   7.741   2.109   4.050  0.6547 -0.0064 -0.1178
  461MOL0     C62115   7.619   2.201   4.027 -0.6830 -0.2473  0.5608
  461MOL0     C62116   7.553   2.203   3.890 -1.6047  0.5689  0.0436
  461MOL0     N62117   7.452   2.102   3.875 -0.2595 -1.4588  0.7775
  461MOL0     C62118   7.476   1.976   3.826  0.4469 -0.4279 -0.5013
  461MOL0     C62119   7.353   1.914   3.865 -0.3352  0.4514  0.0932
  461MOL0     C62120   7.320   1.771   3.828 -1.1442  0.5450 -0.1714
  461MOL0     C62121   7.308   1.759   3.677 -0.1468  0.8407  0.1061
  461MOL0     C62122   7.225   1.872   3.609 -0.1381 -0.2849  0.0074
  461MOL0     C62123   7.189   1.858   3.460  0.7519  0.0397  0.0356
  461MOL0     O62124   7.071   1.768   3.449  0.4181 -0.7667  0.3048
  461MOL0     C62125   7.008   1.774   3.335  0.1884 -0.2413 -1.1534
  461MOL0     C62126   6.947   1.894   3.298 -0.5303  1.0920 -0.7219
  461MOL0     C62127   6.892   1.914   3.170  0.1573  0.8923 -0.4641
  461MOL0     C62128   6.851   2.052   3.154  0.2225 -0.0245  0.0548
  461MOL0     C62129   6.904   1.809   3.073 -0.1377  0.0025 -0.3512
  461MOL0     C62130   6.873   1.841   2.929 -0.4082  0.4831  0.4375
  461MOL0     O62131   6.957   1.785   2.840 -0.3047 -0.7314  0.9345
  461MOL0     C62132   6.940   1.789   2.699 -0.0649  0.5376  0.7358
  461MOL0     C62133   6.818   1.800   2.626 -0.0573 -0.8175  0.0618
  461MOL0     C62134   6.814   1.807   2.487  0.2776  0.1231  0.0779
  461MOL0     C62135   6.924   1.791   2.405  0.5264 -0.1911  0.1110
  461MOL0     O62136   6.912   1.814   2.268  0.1489  0.2975  0.0771
  461MOL0     C62137   7.034   1.841   2.199 -0.5245  0.7914 -0.2873
  461MOL0     C62138   7.024   1.864   2.054  0.5835 -0.7912 -1.4166
  461MOL0     C62139   6.951   1.759   1.980  0.4835  0.6417 -0.2239
  461MOL0     C62140   6.923   1.809   1.836 -0.1425 -1.1352 -0.0095
  461MOL0     C62141   7.042   1.786   1.739  0.4613  0.6380  0.2441
  461MOL0     C62142   7.046   1.878   1.620 -0.8080 -0.4663 -0.4909
  461MOL0     C62143   6.961   1.837   1.501  0.2667  0.2415  0.0797
  461MOL0     C62144   6.858   1.944   1.459 -0.2425 -0.0669  0.8954
  461MOL0    Cl62145   6.941   2.096   1.396 -0.2446  0.2072 -0.1181
  461MOL0     C62146   7.045   1.786   2.475  0.2179 -1.1145  0.5852
  461MOL0     C62147   7.054   1.789   2.619 -0.4013 -0.2222  0.4784
  461MOL0     O62148   6.787   1.923   2.910 -0.5351  0.4472  0.0184
  461MOL0     C62149   6.962   1.689   3.109 -2.1202  0.2625  0.4759
  461MOL0     C62150   7.014   1.669   3.239  0.4700 -0.2521 -0.1850
  461MOL0     N62151   7.265   2.007   3.925 -1.0261  0.2198  0.6423
  461MOL0     N62152   7.329   2.110   3.936 -0.5314 -1.2864 -0.3886
  461MOL0     C62153   7.717   1.424   4.511  0.3191  0.0998 -0.6581
  461MOL0     C62154   7.709   1.293   4.562 -0.4400  1.1392 -1.1178
  461MOL0     C62155   7.713   0.852   4.640  0.1354  0.4077  0.7176
  461MOL0     C62156   7.590   0.795   4.628  0.2219 -0.1962 -0.4336
  461MOL0     C62157   7.565   0.660   4.637  0.4200  1.1018  0.2609
  461MOL0     C62158   7.673   0.569   4.662 -0.3001  0.4710 -0.7090
  461MOL0     O62159   7.666   0.428   4.669 -0.8838 -0.2362  0.4034
  461MOL0     C62160   7.571   0.362   4.584  0.5863 -0.5076  0.6985
  461MOL0     C62161   7.644   0.273   4.488 -0.4455 -0.5145 -1.0155
  461MOL0     C62162   7.741   0.177   4.569 -0.5207 -0.3395  0.6808
  461MOL0     C62163   7.738   0.039   4.509  0.3474 -1.2496 -1.0066
  461MOL0     C62164   7.828  -0.063   4.565 -0.6512 -0.3364  0.0425
  461MOL0     C62165   7.886  -0.169   4.587  0.2543  0.0088 -0.0052
  461MOL0     C62166   7.796   0.627   4.696 -0.3190 -0.9472 -0.3813
  461MOL0     C62167   7.817   0.768   4.681 -0.1092  0.8740  0.7519
  461MOL0     H62168   7.458   1.166   4.399  1.1376 -0.8197  0.6400
  461MOL0     H62169   7.448   1.399   4.303  3.1231  0.3841 -3.4952
  461MOL0     H62170   7.442   1.631   4.380  2.3057 -1.4978  3.4395
  461MOL0     H62171   7.543   1.768   4.365  0.1933  0.0605 -2.5346
  461MOL0     H62172   7.520   1.555   4.143 -1.1236 -0.3750 -0.8797
  461MOL0     H62173   7.416   1.689   4.165  1.1206  0.2702 -3.0329
  461MOL0     H62174   7.714   1.692   4.099  1.9137  3.6948  0.8263
  461MOL0     H62175   7.580   1.712   3.981 -0.0240  0.4514 -0.2957
  461MOL0     H62176   7.525   1.923   4.088  0.0972  1.0711 -1.1383
  461MOL0     H62177   7.638   1.904   4.222  1.3994 -1.2658  0.4090
  461MOL0     H62178   7.828   1.917   4.073 -1.1797 -1.5473 -0.0051
  461MOL0     H62179   7.727   1.933   3.932  0.2582  2.6754 -1.3326
  461MOL0     H62180   7.765   2.124   4.156 -2.4516 -1.4643  0.9423
  461MOL0     H62181   7.825   2.143   3.989  0.8716  2.1067  1.2366
  461MOL0     H62182   7.545   2.190   4.107 -2.9412  2.4526 -0.9646
  461MOL0     H62183   7.650   2.304   4.047 -2.2073  0.1513  1.0504
  461MOL0     H62184   7.637   2.176   3.825 -2.2381 -3.1923  0.5491
  461MOL0     H62185   7.517   2.303   3.866  0.6003  0.9795 -1.9956
  461MOL0     H62186   7.555   1.924   3.773  0.9203 -0.1634 -0.0698
  461MOL0     H62187   7.385   1.700   3.879 -2.6866 -0.2317  0.7940
  461MOL0     H62188   7.218   1.742   3.853 -0.1470 -2.9050  0.4269
  461MOL0     H62189   7.254   1.665   3.659 -0.3368  0.6414  1.5429
  461MOL0     H62190   7.409   1.761   3.637 -0.0601  1.3037  0.3458
  461MOL0     H62191   7.285   1.963   3.601 -0.0828 -0.4547 -1.7523
  461MOL0     H62192   7.134   1.894   3.666 -0.7410  0.1734 -1.1042
  461MOL0     H62193   7.268   1.802   3.410  1.0975 -2.6801  3.2470
  461MOL0     H62194   7.175   1.957   3.417 -0.4804 -0.9439 -2.0173
  461MOL0     H62195   6.966   1.979   3.363  0.0897 -1.4204  2.6145
  461MOL0     H62196   6.903   2.093   3.067 -0.9614  1.8699  0.1853
  461MOL0     H62197   6.744   2.062   3.130  0.5400  1.9072 -0.7818
  461MOL0     H62198   6.880   2.111   3.241  2.9174 -1.2483  0.0708
  461MOL0     H62199   6.722   1.806   2.676 -1.2016 -0.2516 -2.0789
  461MOL0     H62200   6.721   1.826   2.434  0.5504  2.2071  0.2551
  461MOL0     H62201   7.086   1.932   2.230 -2.4638  1.2761  1.8071
  461MOL0     H62202   7.097   1.754   2.221 -2.3884 -0.6498 -0.4498
  461MOL0     H62203   6.965   1.955   2.041 -2.1941 -2.8892 -6.0554
  461MOL0     H62204   7.121   1.886   2.009  0.6031  3.5272  0.2909
  461MOL0     H62205   6.852   1.730   2.017  1.4062  0.5213  2.3717
  461MOL0     H62206   7.009   1.667   1.973 -0.3204  0.1435 -0.5028
  461MOL0     H62207   6.832   1.761   1.798 -0.8295  0.9929 -1.2245
  461MOL0     H62208   6.903   1.916   1.842 -2.5813 -1.5116 -0.4335
  461MOL0     H62209   7.052   1.679   1.719  2.8233  1.2122 -2.3035
  461MOL0     H62210   7.135   1.805   1.792 -0.8290 -0.0282  2.9159
  461MOL0     H62211   7.020   1.980   1.648 -0.3158 -0.0811 -1.4099
  461MOL0     H62212   7.150   1.881   1.586 -1.7264  1.5182 -3.4977
  461MOL0     H62213   6.899   1.757   1.541  0.7290  1.3568  3.3265
  461MOL0     H62214   7.017   1.796   1.417 -1.3765 -0.5451 -0.6771
  461MOL0     H62215   6.803   1.970   1.550 -2.0737  0.1769 -0.2172
  461MOL0     H62216   6.782   1.908   1.389  0.6171 -2.8175  1.2766
  461MOL0     H62217   7.141   1.781   2.425  1.3649  0.9229  2.4158
  461MOL0     H62218   7.153   1.783   2.664  0.0378  1.5614 -0.1549
  461MOL0     H62219   6.979   1.608   3.039 -0.4345  1.4799 -0.6143
  461MOL0     H62220   7.084   1.591   3.269  1.1758 -0.2191 -1.6711
  461MOL0     H62221   7.790   1.498   4.540  0.3401 -0.4655  0.8346
  461MOL0     H62222   7.778   1.266   4.642 -0.0138  0.9883 -1.5358
  461MOL0     H62223   7.501   0.852   4.604  0.7696 -0.2469 -2.7804
  461MOL0     H62224   7.465   0.621   4.620 -0.6564  3.0636  1.6573
  461MOL0     H62225   7.501   0.295   4.636  1.2346 -1.7831 -0.0230
  461MOL0     H62226   7.517   0.431   4.518  0.2020  2.5854  3.9410
  461MOL0     H62227   7.703   0.338   4.423 -0.6544  0.5110 -0.2087
  461MOL0     H62228   7.570   0.211   4.437 -2.1763 -2.3963  3.2686
  461MOL0     H62229   7.713   0.165   4.674  1.3242  1.7981  1.5225
  461MOL0     H62230   7.847   0.204   4.560 -0.5826 -0.2868  0.0502
  461MOL0     H62231   7.761   0.065   4.405  0.0550  1.0093 -0.5662
  461MOL0     H62232   7.635   0.002   4.507 -0.2989  0.4690 -1.8170
  461MOL0     H62233   7.938  -0.260   4.607 -1.6897 -1.0475  0.4610
  461MOL0     H62234   7.871   0.552   4.722 -2.5966 -3.2119  0.0800
  461MOL0     H62235   7.911   0.814   4.713 -1.1430  4.1221 -0.4788
  462MOL0     O62236   2.356   0.650   8.295  0.0063  0.3294  0.8288
  462MOL0     C62237   2.470   0.685   8.299 -0.1018  0.0278  0.3580
  462MOL0     O62238   2.554   0.690   8.204 -0.5914  0.6701  0.0270
  462MOL0     C62239   2.527   0.666   8.062 -0.6339  0.4902 -0.0061
  462MOL0     C62240   2.637   0.671   7.973 -0.4674 -0.2303  0.1171
  462MOL0     C62241   2.617   0.635   7.832  1.2695 -0.2871 -0.7178
  462MOL0     C62242   2.494   0.599   7.777  0.7678 -0.8523 -0.2836
  462MOL0     O62243   2.478   0.591   7.641  0.7231  0.3839  0.4470
  462MOL0     C62244   2.355   0.586   7.571 -0.0554  0.1800  0.6571
  462MOL0     C62245   2.308   0.730   7.569 -0.1502  0.0621  0.2548
  462MOL0     C62246   2.177   0.727   7.483 -0.5267  0.1047 -0.2513
  462MOL0     C62247   2.204   0.751   7.338 -0.2810 -1.1682  0.2258
  462MOL0     C62248   2.080   0.752   7.247 -0.5416  0.8665 -0.6412
  462MOL0     C62249   2.130   0.757   7.101 -0.4097 -0.0457  0.9902
  462MOL0     C62250   2.020   0.784   7.001  0.4967  0.4008 -0.2767
  462MOL0     C62251   1.922   0.674   6.964 -0.0787  0.3168  0.5382
  462MOL0     N62252   1.985   0.548   6.956  0.1230  0.8675 -0.2616
  462MOL0     C62253   2.094   0.518   6.881 -0.1382  0.1447  1.2339
  462MOL0     C62254   2.132   0.394   6.925  0.3177 -0.3207  0.5098
  462MOL0     C62255   2.256   0.328   6.876 -0.7960 -0.7199 -0.1261
  462MOL0     C62256   2.351   0.330   6.995  0.4483 -0.0679  0.5728
  462MOL0     C62257   2.492   0.303   6.937 -0.4635  0.0255  0.4480
  462MOL0     C62258   2.597   0.315   7.055  0.9029  0.2356 -0.6851
  462MOL0     O62259   2.729   0.295   7.011  0.2576  0.0105  0.3322
  462MOL0     C62260   2.781   0.164   7.020  0.1721 -0.1989  0.3845
  462MOL0     C62261   2.706   0.049   7.051  0.4452 -0.8947  0.3944
  462MOL0     C62262   2.759  -0.077   7.047 -0.5763  0.6617  1.1852
  462MOL0     C62263   2.660  -0.188   7.070 -0.8909  0.0798 -0.5001
  462MOL0     C62264   2.895  -0.101   7.026 -0.0561 -0.1963 -0.3857
  462MOL0     C62265   2.967  -0.228   7.029  0.4226  0.1305  0.3099
  462MOL0     O62266   3.076  -0.242   6.959 -0.3737 -0.4533 -0.0653
  462MOL0     C62267   3.174  -0.318   7.011 -0.0445 -1.3625 -0.4803
  462MOL0     C62268   3.226  -0.436   6.962 -0.2920  0.7988 -0.2747
  462MOL0     C62269   3.329  -0.495   7.032  0.6746 -0.0942 -0.7804
  462MOL0     C62270   3.376  -0.445   7.155 -0.6240 -0.3624  0.2129
  462MOL0     O62271   3.474  -0.512   7.232 -0.6972 -0.4393 -0.1315
  462MOL0     C62272   3.431  -0.531   7.361  0.7896 -1.1713 -0.7390
  462MOL0     C62273   3.541  -0.563   7.457 -0.2872 -0.3013  0.3366
  462MOL0     C62274   3.629  -0.436   7.462  0.3479 -0.2738 -0.2614
  462MOL0     C62275   3.738  -0.457   7.561 -0.8085 -0.0883  0.1340
  462MOL0     C62276   3.824  -0.326   7.600  1.0472  0.4664  0.3312
  462MOL0     C62277   3.969  -0.364   7.622 -0.0384  0.4523  0.0180
  462MOL0     C62278   4.057  -0.240   7.659 -1.1383 -0.5379 -0.0969
  462MOL0     C62279   4.196  -0.282   7.725 -0.6808  0.3045 -0.0981
  462MOL0    Cl62280   4.272  -0.421   7.652  0.0145 -0.0638  0.6431
  462MOL0     C62281   3.332  -0.320   7.198 -0.6832 -0.3128  0.0421
  462MOL0     C62282   3.239  -0.260   7.124 -0.2301  0.1538  0.8675
  462MOL0     O62283   2.921  -0.324   7.093 -0.0984 -0.3993  0.5764
  462MOL0     C62284   2.977   0.010   7.003  0.1091  0.2064  0.2359
  462MOL0     C62285   2.918   0.138   6.993  0.1045 -0.3681 -0.2654
  462MOL0     N62286   2.039   0.349   7.014 -0.2876 -0.0263  0.1605
  462MOL0     N62287   1.951   0.440   7.025  0.4124 -0.2565 -0.4388
  462MOL0     C62288   2.378   0.602   7.867 -0.3236  0.2509 -0.0152
  462MOL0     C62289   2.401   0.631   8.005  0.0159  0.4753  0.3683
  462MOL0     C62290   2.541   0.705   8.429  0.4777  0.5641  0.1610
  462MOL0     C62291   2.460   0.717   8.546  0.0007  0.6446 -0.8791
  462MOL0     C62292   2.525   0.743   8.666  0.9229  0.0926 -0.0233
  462MOL0     C62293   2.665   0.750   8.680 -0.3559  0.9029 -0.0876
  462MOL0     O62294   2.715   0.788   8.801 -0.5877  0.5673 -0.1330
  462MOL0     C62295   2.858   0.786   8.823 -0.4708 -0.4991 -1.1428
  462MOL0     C62296   2.883   0.696   8.947 -0.1886 -0.1685 -0.6126
  462MOL0     C62297   2.876   0.771   9.079  0.0730 -0.3622  0.1019
  462MOL0     C62298   2.744   0.843   9.103  0.1520 -0.8180 -0.0977
  462MOL0     C62299   2.735   0.886   9.242  0.5535  0.6159  0.4174
  462MOL0     C62300   2.725   0.929   9.354  0.2108 -1.1634 -0.2037
  462MOL0     C62301   2.746   0.744   8.555  0.9459  0.3930 -0.5635
  462MOL0     C62302   2.677   0.728   8.439 -0.3871 -0.1238 -0.1184
  462MOL0     H62303   2.738   0.689   8.008  0.8641 -0.9354 -3.0256
  462MOL0     H62304   2.694   0.633   7.756  1.9244  1.0278 -0.1255
  462MOL0     H62305   2.366   0.546   7.470 -3.2114  3.2491 -1.1496
  462MOL0     H62306   2.282   0.517   7.615 -1.9346  1.6675  0.0250
  462MOL0     H62307   2.285   0.771   7.668  0.7121  0.1703  0.4128
  462MOL0     H62308   2.388   0.793   7.531 -0.4345 -0.1515 -0.7417
  462MOL0     H62309   2.128   0.630   7.499  1.2641 -0.6087  1.1992
  462MOL0     H62310   2.109   0.806   7.514 -0.2488  0.2485 -0.0071
  462MOL0     H62311   2.252   0.849   7.325  2.0549 -2.4007 -1.2158
  462MOL0     H62312   2.267   0.667   7.308  0.2166 -0.7665  0.1191
  462MOL0     H62313   2.023   0.660   7.263  0.7603  0.2784  0.9614
  462MOL0     H62314   2.012   0.830   7.282 -2.2125  0.1017 -1.9909
  462MOL0     H62315   2.187   0.847   7.075  2.6339 -2.2384 -0.6101
  462MOL0     H62316   2.180   0.665   7.069 -1.0815 -0.0182 -0.2135
  462MOL0     H62317   1.965   0.870   7.041  1.9582  0.0584  2.7127
  462MOL0     H62318   2.078   0.823   6.917  0.5604 -0.0047 -0.4223
  462MOL0     H62319   1.873   0.687   6.867  1.9020  0.3510 -0.5161
  462MOL0     H62320   1.842   0.658   7.036  0.3691 -2.0028  0.5949
  462MOL0     H62321   2.138   0.580   6.803 -1.6447 -2.1140 -1.6335
  462MOL0     H62322   2.227   0.228   6.843 -1.1397 -0.6124 -0.1480
  462MOL0     H62323   2.281   0.387   6.787 -2.0841  0.7714  0.4476
  462MOL0     H62324   2.310   0.266   7.074 -2.8121 -1.2260 -1.8464
  462MOL0     H62325   2.352   0.429   7.042 -1.3935  1.0302 -1.5153
  462MOL0     H62326   2.515   0.374   6.857  0.9316  1.6308  2.1945
  462MOL0     H62327   2.490   0.200   6.899 -4.1293 -0.0226  0.3397
  462MOL0     H62328   2.584   0.248   7.141 -0.2943 -0.9887 -1.7780
  462MOL0     H62329   2.581   0.419   7.087 -0.1087  0.5604 -2.1409
  462MOL0     H62330   2.601   0.049   7.078 -0.1542  2.8630 -1.3499
  462MOL0     H62331   2.560  -0.165   7.034 -0.2802 -0.0608 -2.3842
  462MOL0     H62332   2.692  -0.284   7.028 -1.5254 -0.4487  0.1889
  462MOL0     H62333   2.654  -0.220   7.175 -0.0192 -0.1018 -0.4906
  462MOL0     H62334   3.192  -0.478   6.867  0.5242  1.9029 -1.0930
  462MOL0     H62335   3.383  -0.587   7.013  1.5924  0.1487  0.5489
  462MOL0     H62336   3.383  -0.443   7.404  1.7312 -1.9721  2.1933
  462MOL0     H62337   3.362  -0.616   7.370 -0.0061 -0.9360 -3.6543
  462MOL0     H62338   3.490  -0.584   7.552 -2.4260 -0.8055 -0.8572
  462MOL0     H62339   3.587  -0.656   7.422  0.5674  0.4863 -0.6830
  462MOL0     H62340   3.572  -0.349   7.495 -1.2646  0.1109 -3.6662
  462MOL0     H62341   3.666  -0.413   7.362  0.9703  0.7901  0.1941
  462MOL0     H62342   3.697  -0.484   7.658  0.9538  0.9288  1.2066
  462MOL0     H62343   3.795  -0.542   7.523 -0.0355  0.6629 -0.4160
  462MOL0     H62344   3.782  -0.293   7.695  0.7622 -2.2424  1.2291
  462MOL0     H62345   3.815  -0.254   7.518 -3.2827  0.2010  0.3820
  462MOL0     H62346   3.956  -0.433   7.706 -0.3266 -0.6054 -0.8768
  462MOL0     H62347   4.009  -0.411   7.532 -1.9046  0.7972 -1.0287
  462MOL0     H62348   4.006  -0.172   7.728 -2.0861 -1.6258  0.3165
  462MOL0     H62349   4.097  -0.198   7.567 -1.4332 -3.9044 -1.9400
  462MOL0     H62350   4.167  -0.319   7.824 -3.5500 -1.0801 -1.3319
  462MOL0     H62351   4.260  -0.197   7.749 -1.9346  0.6502  2.2853
  462MOL0     H62352   3.348  -0.275   7.295 -0.9930 -0.0899 -0.0112
  462MOL0     H62353   3.191  -0.165   7.148  0.8049  1.2430 -1.1724
  462MOL0     H62354   3.084   0.011   6.985 -0.0400 -2.0842 -1.1983
  462MOL0     H62355   2.983   0.215   6.953  0.7837  0.1975  1.7889
  462MOL0     H62356   2.280   0.583   7.826 -0.3324 -2.9300  1.2384
  462MOL0     H62357   2.316   0.621   8.071  1.0283 -1.0287  1.5157
  462MOL0     H62358   2.352   0.718   8.538  0.0143  0.4683 -1.0826
  462MOL0     H62359   2.464   0.758   8.754 -0.9943  1.1065 -1.4549
  462MOL0     H62360   2.906   0.756   8.729 -0.4258 -1.4896 -0.8117
  462MOL0     H62361   2.910   0.881   8.839 -1.8668  0.4730 -2.1182
  462MOL0     H62362   2.983   0.650   8.949 -0.3079 -0.4557  1.3840
  462MOL0     H62363   2.815   0.610   8.950  2.3071 -2.3431  3.3530
  462MOL0     H62364   2.958   0.842   9.094 -1.7284  1.3902  2.4815
  462MOL0     H62365   2.890   0.705   9.166 -1.5299 -0.0683  0.6128
  462MOL0     H62366   2.672   0.761   9.097 -0.7661 -0.0949  0.5966
  462MOL0     H62367   2.717   0.922   9.032  2.6434 -0.7515 -1.0850
  462MOL0     H62368   2.738   0.972   9.451 -2.7876 -2.5391  0.9485
  462MOL0     H62369   2.847   0.779   8.535  1.4012 -0.4966  0.1168
  462MOL0     H62370   2.727   0.736   8.343 -0.9169  0.9877 -0.3208
  463MOL0     O62371   6.172   4.757   3.442  0.0740 -0.2251 -0.1234
  463MOL0     C62372   6.056   4.765   3.458  0.0875 -0.5166  0.5850
  463MOL0     O62373   6.006   4.788   3.583 -0.2202 -0.6778  0.9813
  463MOL0     C62374   6.079   4.754   3.692  0.4429 -0.2318 -0.5320
  463MOL0     C62375   6.135   4.627   3.700  0.1372 -0.9127  0.3563
  463MOL0     C62376   6.207   4.604   3.818  0.2339  0.5489 -0.4157
  463MOL0     C62377   6.210   4.684   3.922  0.1764 -0.4764 -0.4997
  463MOL0     O62378   6.287   4.641   4.026  0.7753  0.0879 -0.3344
  463MOL0     C62379   6.358   4.738   4.104 -1.4247 -0.5104  0.0332
  463MOL0     C62380   6.496   4.687   4.159 -0.9479  0.2647 -0.4159
  463MOL0     C62381   6.608   4.713   4.063  0.1161  0.3064 -0.1261
  463MOL0     C62382   6.726   4.629   4.110 -0.4245  0.1355 -0.4873
  463MOL0     C62383   6.715   4.472   4.112 -0.6098 -0.4645  0.9282
  463MOL0     C62384   6.828   4.394   4.181 -0.3143  0.2935 -0.0461
  463MOL0     C62385   6.803   4.237   4.182  0.2810 -0.8453  0.1905
  463MOL0     C62386   6.917   4.143   4.231  0.0127 -0.3987 -0.5039
  463MOL0     N62387   7.044   4.165   4.157 -0.0970 -0.8537 -0.9879
  463MOL0     C62388   7.069   4.115   4.035 -0.7337  0.0683  0.2864
  463MOL0     C62389   7.180   4.174   3.990 -0.9999 -0.6152 -0.8294
  463MOL0     C62390   7.235   4.173   3.855  0.4557  0.3075 -0.1587
  463MOL0     C62391   7.141   4.187   3.741 -0.2730  0.1725  0.6666
  463MOL0     C62392   7.079   4.328   3.740 -0.2026  0.4011 -0.6727
  463MOL0     C62393   6.934   4.325   3.791  0.2301  0.0578  0.9222
  463MOL0     O62394   6.869   4.221   3.715 -0.1530 -0.3065  0.9065
  463MOL0     C62395   6.747   4.207   3.769 -0.9442  0.1705  0.3985
  463MOL0     C62396   6.715   4.098   3.848 -0.1510 -0.4335  1.6905
  463MOL0     C62397   6.590   4.095   3.912 -0.6707 -0.1536 -0.8010
  463MOL0     C62398   6.580   3.985   4.016 -0.0992 -0.1365 -1.1771
  463MOL0     C62399   6.487   4.186   3.890 -0.2385 -0.2022 -0.0101
  463MOL0     C62400   6.346   4.186   3.951 -0.2169  0.2084  0.2799
  463MOL0     O62401   6.251   4.280   3.913 -0.7517  0.4243  1.0168
  463MOL0     C62402   6.120   4.268   3.951 -0.2649  0.8995 -0.1221
  463MOL0     C62403   6.066   4.353   4.040  0.2844  0.2224  0.1988
  463MOL0     C62404   5.939   4.325   4.099  0.3554 -0.2740 -0.1437
  463MOL0     C62405   5.864   4.218   4.062 -0.2917  0.0324 -0.7730
  463MOL0     O62406   5.747   4.213   4.128  0.2719  0.3404 -0.2341
  463MOL0     C62407   5.687   4.074   4.141  0.8217 -1.1997 -0.4942
  463MOL0     C62408   5.546   4.107   4.205  0.2813  0.2672 -0.2789
  463MOL0     C62409   5.431   4.091   4.104 -1.1425  0.0202  1.1179
  463MOL0     C62410   5.296   4.043   4.157 -0.7354  0.6317 -0.3165
  463MOL0     C62411   5.244   4.132   4.257  0.1902  0.4857 -0.6006
  463MOL0     C62412   5.117   4.082   4.327 -0.6693  0.3409  0.3233
  463MOL0     C62413   5.075   4.189   4.438 -0.0340  0.2200  0.2764
  463MOL0     C62414   4.923   4.185   4.470 -0.3686 -0.2571  0.2607
  463MOL0    Cl62415   4.902   4.050   4.584  0.4413  0.0948  0.1088
  463MOL0     C62416   5.917   4.131   3.964 -0.6015 -0.0923 -0.8630
  463MOL0     C62417   6.054   4.146   3.924 -1.2180 -0.2644  0.3430
  463MOL0     O62418   6.343   4.109   4.047  1.1345  0.4733 -0.1207
  463MOL0     C62419   6.527   4.294   3.799  1.1701 -0.2204  0.2109
  463MOL0     C62420   6.651   4.307   3.744 -0.5270  1.0537 -0.9697
  463MOL0     N62421   7.207   4.280   4.069  0.0950  0.1766  1.8368
  463MOL0     N62422   7.128   4.276   4.166  0.0625 -0.1697  0.0784
  463MOL0     C62423   6.130   4.796   3.923 -1.0620 -0.0369 -0.2212
  463MOL0     C62424   6.069   4.828   3.805  0.6068 -0.7924 -0.1775
  463MOL0     C62425   5.978   4.781   3.335 -0.8760 -0.0069 -0.4605
  463MOL0     C62426   6.011   4.711   3.219  0.9523 -0.2089  0.0057
  463MOL0     C62427   5.920   4.706   3.110 -0.0971 -1.7670  0.0244
  463MOL0     C62428   5.800   4.780   3.120 -1.2719 -0.4745  0.9882
  463MOL0     O62429   5.707   4.757   3.013 -0.1843 -0.2549  0.0176
  463MOL0     C62430   5.582   4.834   3.008 -0.5819 -1.0329 -0.5118
  463MOL0     C62431   5.472   4.780   3.103  0.3812  0.1429 -0.1207
  463MOL0     C62432   5.425   4.652   3.025  1.3586 -0.5659  0.5927
  463MOL0     C62433   5.293   4.590   3.075 -0.5890  0.0208 -0.2478
  463MOL0     C62434   5.318   4.516   3.202  0.6964 -0.0434 -0.3376
  463MOL0     C62435   5.327   4.480   3.321  1.2536 -0.4029  0.8132
  463MOL0     C62436   5.766   4.852   3.239  0.4638  0.3431  0.1827
  463MOL0     C62437   5.856   4.858   3.342 -0.7283  0.0955 -0.7017
  463MOL0     H62438   6.120   4.554   3.620 -1.9860 -1.2286  0.9741
  463MOL0     H62439   6.258   4.510   3.803 -1.0730  0.0147 -1.7238
  463MOL0     H62440   6.382   4.834   4.059 -1.9116  0.1158  1.0572
  463MOL0     H62441   6.297   4.750   4.195 -1.0000 -2.2691  0.5919
  463MOL0     H62442   6.514   4.751   4.245  1.0524 -2.1022  1.0627
  463MOL0     H62443   6.478   4.583   4.189 -1.4033 -0.0760 -1.7988
  463MOL0     H62444   6.579   4.696   3.959 -1.5173  0.9328  0.2075
  463MOL0     H62445   6.628   4.818   4.082 -2.5690  1.1589 -1.5516
  463MOL0     H62446   6.798   4.653   4.032  0.4918  1.8101  0.8170
  463MOL0     H62447   6.763   4.648   4.211  1.2073 -1.6239 -0.6959
  463MOL0     H62448   6.623   4.451   4.167 -1.5854  2.4399  0.5903
  463MOL0     H62449   6.692   4.434   4.012  2.9855 -3.4734  1.0415
  463MOL0     H62450   6.918   4.412   4.122  2.6934  0.0660  4.1149
  463MOL0     H62451   6.850   4.414   4.286 -2.3346  1.5855  0.2018
  463MOL0     H62452   6.709   4.224   4.236 -1.6031 -0.2137 -2.6909
  463MOL0     H62453   6.777   4.212   4.079 -2.0004  0.3532  0.4181
  463MOL0     H62454   6.879   4.040   4.223 -1.7744  0.0260  1.4496
  463MOL0     H62455   6.931   4.153   4.339  0.9712  2.4315 -0.8160
  463MOL0     H62456   7.016   4.033   3.987  2.2561 -0.7175 -1.9831
  463MOL0     H62457   7.303   4.258   3.842 -0.2571  0.8788 -0.2049
  463MOL0     H62458   7.268   4.072   3.829  0.6424  0.9994 -2.9244
  463MOL0     H62459   7.078   4.097   3.745  3.0457 -2.4214 -0.7298
  463MOL0     H62460   7.193   4.177   3.645 -2.6904  1.3991 -0.8721
  463MOL0     H62461   7.065   4.363   3.637 -0.2130  1.1143 -0.4378
  463MOL0     H62462   7.139   4.400   3.797  2.3333 -0.8848 -1.5272
  463MOL0     H62463   6.884   4.420   3.771  1.1355  0.6923  1.5796
  463MOL0     H62464   6.928   4.305   3.898  0.5097  3.3483  1.6396
  463MOL0     H62465   6.791   4.028   3.880  0.0143  1.4134  6.0963
  463MOL0     H62466   6.587   4.020   4.119  3.9680 -0.3807 -1.1961
  463MOL0     H62467   6.490   3.924   4.010 -0.3776 -0.0654  1.3015
  463MOL0     H62468   6.650   3.904   3.994 -1.9153 -1.5023 -2.2163
  463MOL0     H62469   6.133   4.425   4.086 -0.2434 -0.7692  2.6428
  463MOL0     H62470   5.909   4.385   4.185  1.3060  0.4660 -0.3095
  463MOL0     H62471   5.678   4.028   4.042 -1.0497 -0.1928 -0.8393
  463MOL0     H62472   5.743   4.000   4.198  0.5171 -3.4683 -2.9530
  463MOL0     H62473   5.534   4.035   4.286 -0.4106  1.5556  0.8002
  463MOL0     H62474   5.546   4.208   4.247  1.0911  0.9118 -1.7692
  463MOL0     H62475   5.450   4.013   4.030 -0.6164  1.9552 -0.8809
  463MOL0     H62476   5.419   4.188   4.055 -1.6511 -0.2095  0.7782
  463MOL0     H62477   5.230   4.029   4.071  0.1295 -1.7008 -0.6720
  463MOL0     H62478   5.293   3.946   4.207 -1.8047 -0.4160 -2.2803
  463MOL0     H62479   5.228   4.227   4.206  1.5588  0.6574 -0.7308
  463MOL0     H62480   5.321   4.145   4.333  0.6076  2.5383 -1.3203
  463MOL0     H62481   5.039   4.055   4.256 -0.2520 -0.6631  0.2358
  463MOL0     H62482   5.135   3.987   4.377  2.5903 -0.6720 -2.4066
  463MOL0     H62483   5.097   4.291   4.407  2.2447 -1.2292 -3.5656
  463MOL0     H62484   5.134   4.167   4.527  0.4508  1.0017  0.1576
  463MOL0     H62485   4.863   4.163   4.381  0.6136 -0.3708 -0.3944
  463MOL0     H62486   4.900   4.278   4.522 -2.7465 -0.1221 -0.8987
  463MOL0     H62487   5.875   4.036   3.932  3.0455 -1.6925 -1.4694
  463MOL0     H62488   6.106   4.072   3.862 -0.9058 -0.7917  1.2192
  463MOL0     H62489   6.449   4.368   3.787  1.2551  0.1250  1.5877
  463MOL0     H62490   6.679   4.398   3.692  2.1143  1.2730  0.6625
  463MOL0     H62491   6.133   4.862   4.009  0.5206  1.2558 -1.2085
  463MOL0     H62492   6.006   4.917   3.800 -0.8045 -1.8196 -1.6391
  463MOL0     H62493   6.104   4.654   3.220  1.8131  1.0364  3.1653
  463MOL0     H62494   5.942   4.653   3.018 -4.4550  0.4138 -2.5695
  463MOL0     H62495   5.601   4.936   3.041  0.0071 -1.0634 -0.7570
  463MOL0     H62496   5.548   4.841   2.904 -1.8958 -3.2159 -0.2873
  463MOL0     H62497   5.389   4.851   3.110  1.9839  2.1756 -0.8403
  463MOL0     H62498   5.519   4.760   3.200  1.1187  1.1658 -0.2547
  463MOL0     H62499   5.502   4.575   3.042 -1.2754 -3.1809  1.5280
  463MOL0     H62500   5.412   4.661   2.917  1.3456 -0.1452  0.6278
  463MOL0     H62501   5.241   4.531   3.000 -2.1919  0.5711  0.3852
  463MOL0     H62502   5.227   4.676   3.093 -2.2040 -1.6700  2.7306
  463MOL0     H62503   5.343   4.451   3.423  1.3356 -2.3366  0.2880
  463MOL0     H62504   5.676   4.913   3.240  0.8556  1.0414 -1.7280
  463MOL0     H62505   5.835   4.920   3.429 -1.1053 -0.2204 -0.5650
  464MOL0     O62506  10.133   4.227   2.550 -0.2432  0.8553 -0.4282
  464MOL0     C62507  10.166   4.211   2.428 -0.1079  0.8681  0.0414
  464MOL0     O62508  10.099   4.272   2.326  0.4222  0.4242  0.2190
  464MOL0     C62509   9.995   4.365   2.328  0.5886  0.9360  0.4925
  464MOL0     C62510   9.930   4.394   2.206 -0.2093 -0.1976  0.3664
  464MOL0     C62511   9.833   4.490   2.199  0.3140 -0.2718 -0.5793
  464MOL0     C62512   9.774   4.546   2.321  0.3549  0.6253  0.2587
  464MOL0     O62513   9.667   4.630   2.336  0.9997 -0.3862 -0.1460
  464MOL0     C62514   9.608   4.682   2.216  0.2478  0.1185 -0.0228
  464MOL0     C62515   9.501   4.785   2.261 -0.4274  0.0672  0.9143
  464MOL0     C62516   9.565   4.924   2.292 -0.4237 -0.1970 -0.5175
  464MOL0     C62517   9.489   5.046   2.252  0.8419  0.4312  0.1922
  464MOL0     C62518   9.530   5.180   2.319 -0.0300  0.1082 -0.3941
  464MOL0     C62519   9.438   5.295   2.271  0.8868 -0.2984  0.3343
  464MOL0     C62520   9.291   5.295   2.318 -0.1761 -0.4919  0.8689
  464MOL0     C62521   9.271   5.334   2.465 -0.2792  0.5608 -0.1539
  464MOL0     N62522   9.303   5.220   2.556  0.0846 -0.1958  0.3811
  464MOL0     C62523   9.251   5.087   2.556 -0.0034  0.1522 -0.6908
  464MOL0     C62524   9.320   5.021   2.650  0.1429  1.0498 -0.2190
  464MOL0     C62525   9.287   4.872   2.675 -0.0959 -0.6500  1.1669
  464MOL0     C62526   9.412   4.787   2.678 -1.0027  0.3824  0.1718
  464MOL0     C62527   9.390   4.640   2.717  0.1116  0.4691  1.3788
  464MOL0     C62528   9.495   4.549   2.656 -0.0651 -0.1483 -0.2733
  464MOL0     O62529   9.468   4.411   2.639 -0.4826 -0.4775 -0.4998
  464MOL0     C62530   9.464   4.375   2.510 -0.3124  0.2518  0.9683
  464MOL0     C62531   9.564   4.308   2.452 -0.4487  0.2789  0.4341
  464MOL0     C62532   9.554   4.269   2.314 -0.1274  0.0990  0.2505
  464MOL0     C62533   9.663   4.187   2.259  0.4029  0.0334 -0.1430
  464MOL0     C62534   9.441   4.311   2.236  0.5388  0.3305  0.1531
  464MOL0     C62535   9.418   4.284   2.094 -0.6934 -0.4739 -0.3212
  464MOL0     O62536   9.345   4.385   2.028  0.1176  0.6648  0.0033
  464MOL0     C62537   9.321   4.376   1.888 -0.4996 -1.2002 -0.5663
  464MOL0     C62538   9.193   4.380   1.829  0.4596 -0.0728  0.2269
  464MOL0     C62539   9.185   4.372   1.688  0.0241  0.2388  0.0900
  464MOL0     C62540   9.302   4.382   1.608 -0.0912  1.3948 -0.0114
  464MOL0     O62541   9.275   4.384   1.472  0.0629 -0.3907 -0.5740
  464MOL0     C62542   9.384   4.382   1.382 -0.6321  0.5056  0.2259
  464MOL0     C62543   9.324   4.372   1.250  1.8920 -0.6903 -1.3595
  464MOL0     C62544   9.439   4.356   1.154 -0.1517  0.4396  0.4706
  464MOL0     C62545   9.373   4.330   1.021  0.7608  0.4099  0.2422
  464MOL0     C62546   9.476   4.321   0.913 -0.0473 -0.5406 -0.4777
  464MOL0     C62547   9.425   4.285   0.776 -0.5718  0.6964  1.0774
  464MOL0     C62548   9.552   4.265   0.677  0.5390 -0.5459  0.4369
  464MOL0     C62549   9.505   4.217   0.536 -0.4359  0.2651 -0.3120
  464MOL0    Cl62550   9.414   4.325   0.435 -0.2571 -0.0573  0.0536
  464MOL0     C62551   9.422   4.376   1.677  0.9024 -0.2338  0.6393
  464MOL0     C62552   9.433   4.362   1.809  0.4383  0.1310 -0.6412
  464MOL0     O62553   9.478   4.200   2.035 -0.2297 -0.0592  0.1221
  464MOL0     C62554   9.338   4.386   2.307  0.1586 -1.2799  0.1373
  464MOL0     C62555   9.358   4.413   2.442  0.3770 -0.7707 -0.3885
  464MOL0     N62556   9.393   5.114   2.713 -0.6879 -0.5229 -0.6738
  464MOL0     N62557   9.385   5.235   2.659 -0.2074  0.3409  0.0902
  464MOL0     C62558   9.834   4.511   2.442 -0.1022  0.5304 -0.8191
  464MOL0     C62559   9.950   4.431   2.447  0.6776 -0.4241  0.2258
  464MOL0     C62560  10.264   4.102   2.407 -0.1728  0.5390 -0.1496
  464MOL0     C62561  10.340   4.111   2.293 -0.5897  0.3349  0.3336
  464MOL0     C62562  10.436   4.009   2.256  0.3532 -0.7714  0.4115
  464MOL0     C62563  10.459   3.905   2.345 -0.1914 -1.0557  0.6355
  464MOL0     O62564  10.546   3.804   2.325  0.2349 -0.5495 -0.6453
  464MOL0     C62565  10.588   3.770   2.190 -0.4335 -0.3844 -0.3065
  464MOL0     C62566  10.575   3.621   2.178 -0.4823  0.6689  0.3745
  464MOL0     C62567  10.426   3.582   2.187  0.3807 -0.2778  0.7222
  464MOL0     C62568  10.368   3.600   2.042 -0.8429  0.6767  0.1471
  464MOL0     C62569  10.224   3.610   2.051  1.1447  0.0706 -0.3184
  464MOL0     C62570  10.101   3.610   2.058  0.0989  1.0800  0.1156
  464MOL0     C62571  10.390   3.901   2.467  0.4031  1.5506 -0.1233
  464MOL0     C62572  10.297   3.991   2.500  0.5337  0.3588  0.3873
  464MOL0     H62573   9.980   4.364   2.114  1.9133 -0.8539  1.6394
  464MOL0     H62574   9.799   4.519   2.100 -1.3849  0.8088  0.2633
  464MOL0     H62575   9.682   4.727   2.149  1.3660 -0.6186  0.6707
  464MOL0     H62576   9.568   4.598   2.159 -2.7894  2.6507 -1.9494
  464MOL0     H62577   9.424   4.789   2.184  0.0001  3.2456  0.4947
  464MOL0     H62578   9.452   4.746   2.351 -1.0423  1.1081  1.0423
  464MOL0     H62579   9.590   4.928   2.399  3.3060  0.4991 -1.2995
  464MOL0     H62580   9.655   4.920   2.231 -1.3885 -0.9734 -1.9474
  464MOL0     H62581   9.506   5.052   2.144 -2.5733 -2.0827 -0.6626
  464MOL0     H62582   9.383   5.021   2.260  0.8767  0.3682  0.4780
  464MOL0     H62583   9.521   5.158   2.426 -0.7948 -2.7040 -0.9554
  464MOL0     H62584   9.633   5.208   2.297  0.3462 -0.7503  0.2531
  464MOL0     H62585   9.473   5.391   2.311 -1.1741  0.3155  0.7735
  464MOL0     H62586   9.435   5.295   2.162 -1.3473  2.3975  0.2863
  464MOL0     H62587   9.238   5.362   2.250  1.7121 -1.0160 -1.2300
  464MOL0     H62588   9.242   5.199   2.297 -0.9396 -0.3318  1.8481
  464MOL0     H62589   9.167   5.365   2.477  0.0263  1.4105  0.3485
  464MOL0     H62590   9.336   5.419   2.488 -3.1326  2.9128 -0.1704
  464MOL0     H62591   9.173   5.057   2.488 -1.3772  1.9554  0.0063
  464MOL0     H62592   9.230   4.867   2.768 -1.7805 -0.3595  0.1852
  464MOL0     H62593   9.235   4.853   2.580  0.1093  2.5770  0.2847
  464MOL0     H62594   9.480   4.836   2.748 -1.2731  1.3496 -0.2237
  464MOL0     H62595   9.461   4.786   2.580  3.5960  1.0843  2.1900
  464MOL0     H62596   9.285   4.620   2.693  0.2893  1.0366  0.0578
  464MOL0     H62597   9.384   4.623   2.825 -3.8371 -3.1698  0.8375
  464MOL0     H62598   9.585   4.561   2.717  1.5543 -1.7917 -2.1931
  464MOL0     H62599   9.540   4.590   2.565  0.1900  1.1615  0.4156
  464MOL0     H62600   9.637   4.286   2.529 -3.2497 -1.6372  2.7563
  464MOL0     H62601   9.633   4.083   2.244 -2.3306  1.0859 -2.9877
  464MOL0     H62602   9.700   4.216   2.160  2.2731 -1.9173 -0.1171
  464MOL0     H62603   9.750   4.209   2.322 -0.2440  0.6349  0.5473
  464MOL0     H62604   9.103   4.358   1.885 -0.9184 -3.2692 -2.8517
  464MOL0     H62605   9.091   4.356   1.635  0.6413 -0.4330 -0.8150
  464MOL0     H62606   9.440   4.476   1.387  0.2436  0.0396 -0.5180
  464MOL0     H62607   9.445   4.294   1.405 -0.4780 -0.0130 -1.9598
  464MOL0     H62608   9.246   4.296   1.255  1.6646 -0.5608 -2.6148
  464MOL0     H62609   9.278   4.471   1.236  0.2513 -0.7315  2.3731
  464MOL0     H62610   9.497   4.268   1.186 -1.1987 -0.5976 -0.3765
  464MOL0     H62611   9.501   4.446   1.148  1.5104 -0.4174  3.1717
  464MOL0     H62612   9.324   4.232   1.029 -0.2351  0.7248 -1.3939
  464MOL0     H62613   9.303   4.407   0.988  1.5676  0.5320 -1.3274
  464MOL0     H62614   9.561   4.255   0.933  2.2510  2.8801  2.1818
  464MOL0     H62615   9.517   4.422   0.902 -2.1399  0.2191 -2.0974
  464MOL0     H62616   9.365   4.193   0.776  2.5937 -1.5604  3.0070
  464MOL0     H62617   9.370   4.370   0.734 -1.3058 -0.9133 -1.4961
  464MOL0     H62618   9.613   4.187   0.723 -0.3661  0.7397  4.1839
  464MOL0     H62619   9.619   4.348   0.653  4.4640 -4.4980 -4.5077
  464MOL0     H62620   9.438   4.132   0.548 -3.3266  2.5336  0.8812
  464MOL0     H62621   9.583   4.199   0.461 -3.0929 -4.5060 -2.4023
  464MOL0     H62622   9.520   4.383   1.632  2.0569  1.4788  3.1490
  464MOL0     H62623   9.524   4.337   1.862 -1.1184  1.3471  2.8937
  464MOL0     H62624   9.257   4.438   2.258  2.3189  1.0589 -1.2600
  464MOL0     H62625   9.280   4.474   2.487 -0.9216 -1.4749 -1.6424
  464MOL0     H62626   9.784   4.556   2.527  0.4940  1.7824 -1.1075
  464MOL0     H62627   9.988   4.399   2.543  1.2513 -0.6749 -0.0842
  464MOL0     H62628  10.314   4.195   2.230  0.1470 -3.3319 -5.5422
  464MOL0     H62629  10.491   4.025   2.163  0.0181 -1.5759  0.0684
  464MOL0     H62630  10.538   3.821   2.107  0.3742  1.3008  0.1884
  464MOL0     H62631  10.688   3.811   2.173 -0.0272 -0.2865  2.0189
  464MOL0     H62632  10.632   3.565   2.253  0.0975  0.9125  0.1228
  464MOL0     H62633  10.625   3.600   2.083  0.4085  0.4405  0.8889
  464MOL0     H62634  10.380   3.637   2.270 -3.0122  1.0581 -1.8083
  464MOL0     H62635  10.426   3.478   2.222 -1.7774  0.0129  1.7504
  464MOL0     H62636  10.404   3.519   1.978  0.5684  0.0484  1.6500
  464MOL0     H62637  10.411   3.688   1.994 -2.1661  2.2413  1.6901
  464MOL0     H62638   9.994   3.606   2.050 -0.0873 -0.2622  2.2985
  464MOL0     H62639  10.410   3.819   2.535  2.6723  1.3898 -0.8985
  464MOL0     H62640  10.251   3.983   2.598  1.1856  3.3029  1.0136
  465MOL0     O62641   0.433   3.144   7.316 -0.0457  0.6883 -0.5352
  465MOL0     C62642   0.422   3.147   7.438  0.3301  0.7848 -0.2016
  465MOL0     O62643   0.367   3.048   7.525  1.3955 -0.1258  0.1247
  465MOL0     C62644   0.300   2.931   7.476 -0.1814  0.0100 -0.5817
  465MOL0     C62645   0.290   2.827   7.575  0.1244  0.8901 -0.4047
  465MOL0     C62646   0.221   2.707   7.555  0.0635 -0.0552  0.7465
  465MOL0     C62647   0.150   2.698   7.429 -0.0537  0.2285 -0.4562
  465MOL0     O62648   0.080   2.590   7.414 -0.4568  0.0788  0.5075
  465MOL0     C62649  -0.058   2.619   7.409  0.3101 -1.0530  0.4315
  465MOL0     C62650  -0.142   2.495   7.397 -1.2937  0.0015  0.3121
  465MOL0     C62651  -0.129   2.400   7.515  0.4980  0.3874 -0.4094
  465MOL0     C62652  -0.229   2.283   7.486  0.2836 -0.9571 -0.2685
  465MOL0     C62653  -0.249   2.196   7.612 -0.1193  0.4701 -0.4883
  465MOL0     C62654  -0.355   2.091   7.588  0.3327  0.7433  0.0384
  465MOL0     C62655  -0.486   2.129   7.655 -0.1466  0.7756 -0.0644
  465MOL0     C62656  -0.565   2.235   7.582 -0.1710  0.8161  1.3314
  465MOL0     N62657  -0.625   2.190   7.455 -0.3928 -0.9318  1.2814
  465MOL0     C62658  -0.575   2.228   7.330 -0.2196 -0.0555 -0.1998
  465MOL0     C62659  -0.674   2.213   7.239 -0.6890  0.5474 -0.8233
  465MOL0     C62660  -0.658   2.237   7.101  0.2406  0.2556 -0.1558
  465MOL0     C62661  -0.698   2.375   7.071  1.0276 -0.5633 -0.4930
  465MOL0     C62662  -0.844   2.413   7.097  0.2083 -0.0483 -0.5349
  465MOL0     C62663  -0.885   2.527   6.998  0.7776 -0.3013  0.0883
  465MOL0     O62664  -0.850   2.496   6.857 -0.1639  0.5534 -0.3221
  465MOL0     C62665  -0.947   2.437   6.791 -0.2920  0.3771  0.5454
  465MOL0     C62666  -0.937   2.295   6.765 -0.1361  0.4370  0.3642
  465MOL0     C62667  -1.040   2.225   6.706  0.9112  1.0206 -1.1889
  465MOL0     C62668  -1.027   2.071   6.689  0.1544 -0.0845  0.6043
  465MOL0     C62669  -1.162   2.291   6.678 -0.3807 -0.1308 -0.4735
  465MOL0     C62670  -1.278   2.227   6.606 -0.2523  0.0683 -0.2170
  465MOL0     O62671  -1.387   2.306   6.587 -0.6056 -0.2353  0.4871
  465MOL0     C62672  -1.489   2.254   6.514 -0.8717 -0.2096  0.7941
  465MOL0     C62673  -1.558   2.338   6.435 -0.1833 -0.2676 -0.5276
  465MOL0     C62674  -1.680   2.310   6.379  0.5800  0.4034 -0.1046
  465MOL0     C62675  -1.737   2.181   6.401  0.8573 -0.3885  0.2170
  465MOL0     O62676  -1.832   2.129   6.318 -0.2918 -0.1991 -0.6942
  465MOL0     C62677  -1.969   2.170   6.356 -0.2948  0.1573 -0.3596
  465MOL0     C62678  -2.053   2.170   6.231  0.2162 -0.0621  0.6595
  465MOL0     C62679  -1.990   2.264   6.123  1.3312  0.1441  0.5843
  465MOL0     C62680  -2.069   2.393   6.104  0.3826  0.3483 -0.0844
  465MOL0     C62681  -2.047   2.452   5.965  0.7683  0.5121  0.3445
  465MOL0     C62682  -2.156   2.556   5.930  0.2278  0.1744  0.0512
  465MOL0     C62683  -2.121   2.621   5.795 -0.8023  0.0724  0.0510
  465MOL0     C62684  -2.231   2.707   5.742 -0.0123  0.3760  0.5317
  465MOL0    Cl62685  -2.274   2.849   5.836  0.0572 -0.2874  0.3562
  465MOL0     C62686  -1.677   2.099   6.490 -0.9255  0.2074  0.1519
  465MOL0     C62687  -1.553   2.131   6.540 -0.0264 -1.1053  0.0414
  465MOL0     O62688  -1.269   2.111   6.565  0.7337 -0.6370  1.0328
  465MOL0     C62689  -1.172   2.434   6.699  0.1591  0.5818 -0.1430
  465MOL0     C62690  -1.062   2.503   6.765 -0.1770 -0.7348 -0.5699
  465MOL0     N62691  -0.787   2.158   7.312 -0.6912  0.0847  0.6167
  465MOL0     N62692  -0.757   2.149   7.438 -0.1112  0.1253  0.7287
  465MOL0     C62693   0.158   2.805   7.330 -0.4073  0.1469 -0.2354
  465MOL0     C62694   0.234   2.915   7.361 -0.1970 -0.2913  0.2932
  465MOL0     C62695   0.483   3.258   7.509  0.5039  0.6780 -0.4911
  465MOL0     C62696   0.444   3.292   7.640  0.0137 -0.4932  0.4534
  465MOL0     C62697   0.494   3.407   7.712 -0.4321 -0.2235 -0.1516
  465MOL0     C62698   0.583   3.492   7.640  0.1614  0.4316  0.2737
  465MOL0     O62699   0.623   3.603   7.706  0.4098 -0.0065 -0.5653
  465MOL0     C62700   0.543   3.714   7.670 -0.5610 -0.8234 -0.1896
  465MOL0     C62701   0.497   3.789   7.795 -0.5305 -0.0538 -0.3292
  465MOL0     C62702   0.448   3.936   7.779  0.6758  0.2844 -0.1176
  465MOL0     C62703   0.350   3.982   7.890  0.4111  0.2776  0.3389
  465MOL0     C62704   0.413   3.982   8.026  0.0939 -0.0430 -0.1814
  465MOL0     C62705   0.476   3.993   8.129 -0.1906  0.8418 -0.0762
  465MOL0     C62706   0.616   3.472   7.502  0.4671  0.7604 -0.1152
  465MOL0     C62707   0.567   3.346   7.443 -0.3279 -0.0657  0.0910
  465MOL0     H62708   0.337   2.842   7.672 -0.1769  1.7575 -0.3860
  465MOL0     H62709   0.222   2.633   7.635 -0.9153  0.9498  1.7338
  465MOL0     H62710  -0.088   2.677   7.496 -0.3886  1.4298 -1.3315
  465MOL0     H62711  -0.091   2.674   7.320 -3.0646  2.4565  3.5187
  465MOL0     H62712  -0.245   2.527   7.379 -0.4749  0.6212 -4.9523
  465MOL0     H62713  -0.106   2.435   7.312 -0.2182 -0.2224  0.9100
  465MOL0     H62714  -0.025   2.368   7.527  1.2869  2.2848 -1.6929
  465MOL0     H62715  -0.160   2.451   7.607 -2.5155 -1.6219 -0.1691
  465MOL0     H62716  -0.323   2.331   7.459  0.7782  0.4735  0.3996
  465MOL0     H62717  -0.200   2.229   7.396 -2.4233 -1.5976 -0.8401
  465MOL0     H62718  -0.146   2.164   7.630  0.7812  3.0554 -0.4826
  465MOL0     H62719  -0.271   2.269   7.691  1.6484  1.8033 -1.1445
  465MOL0     H62720  -0.360   2.062   7.482 -2.7350 -0.1827  0.3280
  465MOL0     H62721  -0.318   1.997   7.630  1.8909  2.1037  1.8676
  465MOL0     H62722  -0.540   2.041   7.689  2.3591 -0.7622  0.1472
  465MOL0     H62723  -0.452   2.176   7.748 -0.0169  2.9734 -1.1412
  465MOL0     H62724  -0.501   2.320   7.556 -0.2406  0.3889 -0.3549
  465MOL0     H62725  -0.642   2.276   7.648  1.7874  2.7528  2.5854
  465MOL0     H62726  -0.474   2.256   7.301 -0.4082  1.9466  0.9040
  465MOL0     H62727  -0.554   2.222   7.070  0.6997 -0.2589  1.5416
  465MOL0     H62728  -0.721   2.158   7.059 -1.6471  1.5254  0.1847
  465MOL0     H62729  -0.687   2.380   6.962  1.7281 -1.7354 -0.4922
  465MOL0     H62730  -0.632   2.449   7.118 -0.8484  1.4836 -0.9363
  465MOL0     H62731  -0.872   2.436   7.200 -1.5081  0.7854 -1.1478
  465MOL0     H62732  -0.900   2.323   7.068 -0.9827 -0.1282  1.7952
  465MOL0     H62733  -0.834   2.621   7.021  3.6901 -0.2199 -5.1231
  465MOL0     H62734  -0.992   2.539   7.012  0.7002 -0.7003 -0.1385
  465MOL0     H62735  -0.846   2.239   6.784  1.2276  2.2157 -0.6573
  465MOL0     H62736  -1.117   2.024   6.728 -1.1677  0.6689 -1.4280
  465MOL0     H62737  -1.009   2.033   6.589 -2.0271 -2.8898  1.1679
  465MOL0     H62738  -0.940   2.033   6.743  0.6462  3.1049  2.3071
  465MOL0     H62739  -1.500   2.427   6.411 -0.4471 -0.2020 -0.9357
  465MOL0     H62740  -1.714   2.386   6.309  1.8573 -0.5733 -1.8843
  465MOL0     H62741  -2.012   2.096   6.424 -1.4299  1.5201  0.4600
  465MOL0     H62742  -1.971   2.268   6.405 -0.2908  0.2541 -0.5526
  465MOL0     H62743  -2.055   2.064   6.201  0.5568 -0.4322  1.8891
  465MOL0     H62744  -2.148   2.208   6.270  0.5040  1.0826  0.2788
  465MOL0     H62745  -2.003   2.210   6.029  1.4228  1.4022 -0.1647
  465MOL0     H62746  -1.886   2.296   6.123  1.3597  0.3913 -2.7157
  465MOL0     H62747  -2.175   2.366   6.111  0.6819 -1.3531 -1.4189
  465MOL0     H62748  -2.058   2.462   6.189  1.7885 -0.4522  0.4215
  465MOL0     H62749  -2.050   2.378   5.885  0.0521  2.1897 -1.2788
  465MOL0     H62750  -1.948   2.494   5.947  0.5792 -0.0458 -2.3183
  465MOL0     H62751  -2.256   2.513   5.917 -0.9824  2.0131  2.3559
  465MOL0     H62752  -2.157   2.623   6.017  0.6920 -0.1163  0.2838
  465MOL0     H62753  -2.099   2.538   5.727 -2.1509 -0.8253  0.6729
  465MOL0     H62754  -2.029   2.672   5.824 -0.5612 -0.7711  0.7913
  465MOL0     H62755  -2.318   2.641   5.744 -0.8098  1.4037  2.0241
  465MOL0     H62756  -2.208   2.748   5.644  0.2659  1.7281  1.1332
  465MOL0     H62757  -1.706   1.994   6.492  3.3444 -1.3123 -2.4682
  465MOL0     H62758  -1.518   2.056   6.610  0.1384 -3.3859 -2.3376
  465MOL0     H62759  -1.270   2.479   6.688 -0.7553 -1.5101 -1.1395
  465MOL0     H62760  -1.064   2.609   6.787  6.0737 -0.1170 -1.3079
  465MOL0     H62761   0.105   2.810   7.236  0.2793 -0.1857 -0.6470
  465MOL0     H62762   0.228   2.992   7.285  0.9419  2.6981  2.9996
  465MOL0     H62763   0.380   3.236   7.708  1.5111  0.5285  2.8324
  465MOL0     H62764   0.485   3.430   7.818  0.6465 -0.0085 -0.0956
  465MOL0     H62765   0.595   3.781   7.601 -2.9859 -0.4122 -1.7629
  465MOL0     H62766   0.450   3.686   7.620 -0.8834 -0.8695  0.4242
  465MOL0     H62767   0.583   3.793   7.863 -0.7118  4.4877 -0.0484
  465MOL0     H62768   0.423   3.726   7.845 -1.8038  2.8289  1.6837
  465MOL0     H62769   0.393   3.935   7.684  2.7678  0.5219 -1.4144
  465MOL0     H62770   0.528   4.008   7.759 -0.9508  2.1420 -0.1528
  465MOL0     H62771   0.262   3.918   7.899  1.2812 -0.9247  0.7343
  465MOL0     H62772   0.316   4.079   7.853  0.2844  0.2620  0.4172
  465MOL0     H62773   0.545   3.984   8.210  3.7761  1.2815 -3.1160
  465MOL0     H62774   0.690   3.545   7.470  0.5240  1.1426  0.8413
  465MOL0     H62775   0.597   3.311   7.345 -0.7350 -1.2664  0.3684
  466MOL0     O62776   1.898   3.291   6.099 -0.5407  0.0527  0.1267
  466MOL0     C62777   1.875   3.407   6.097 -0.9078 -0.2194  1.1682
  466MOL0     O62778   1.976   3.499   6.067 -0.0976 -0.6332  0.4224
  466MOL0     C62779   2.099   3.456   6.018 -0.4351 -1.5548 -0.6402
  466MOL0     C62780   2.218   3.505   6.071  0.2038 -0.0098  0.6600
  466MOL0     C62781   2.343   3.459   6.018  0.1581 -0.8036  0.7569
  466MOL0     C62782   2.348   3.367   5.910 -0.0073 -0.1067  0.4449
  466MOL0     O62783   2.478   3.335   5.879  0.2073  0.0247 -0.3920
  466MOL0     C62784   2.492   3.194   5.849 -0.7078 -0.9972 -0.6107
  466MOL0     C62785   2.633   3.188   5.808 -0.3688  0.4579 -0.8935
  466MOL0     C62786   2.657   3.045   5.755 -1.0735  1.0046  0.5267
  466MOL0     C62787   2.811   3.034   5.724  0.0746 -0.4819 -0.2648
  466MOL0     C62788   2.844   2.905   5.637 -0.0707 -0.3133 -0.1701
  466MOL0     C62789   2.844   2.923   5.491  0.1329 -0.0255  0.9213
  466MOL0     C62790   2.851   2.807   5.396  0.3682  0.3714 -0.2834
  466MOL0     C62791   2.987   2.728   5.420 -0.1361  0.4141 -0.0235
  466MOL0     N62792   2.970   2.600   5.342 -0.8047 -1.2374 -0.3872
  466MOL0     C62793   3.001   2.479   5.394  0.3956  0.3876 -1.0310
  466MOL0     C62794   2.972   2.387   5.304  0.9419  0.6136 -0.2441
  466MOL0     C62795   3.022   2.240   5.320 -0.2730 -0.0618  0.1066
  466MOL0     C62796   3.000   2.154   5.191  0.7501 -0.3270  0.3699
  466MOL0     C62797   2.852   2.109   5.172 -0.1465  0.4947  0.4541
  466MOL0     C62798   2.785   2.160   5.038 -0.3538  0.1329 -0.3353
  466MOL0     O62799   2.661   2.084   5.023  0.8828 -0.3160 -0.5059
  466MOL0     C62800   2.658   1.973   4.944  0.0475  0.1408 -0.2848
  466MOL0     C62801   2.533   1.925   4.906 -0.7748 -0.2846 -0.2132
  466MOL0     C62802   2.510   1.816   4.834  0.2951 -0.4100  0.8945
  466MOL0     C62803   2.370   1.758   4.817  0.6407 -0.4357  0.0626
  466MOL0     C62804   2.624   1.752   4.776  0.5651  0.4443 -0.6031
  466MOL0     C62805   2.612   1.629   4.693 -0.3426 -0.1600  0.7723
  466MOL0     O62806   2.705   1.532   4.713 -0.1220 -0.1121  0.0666
  466MOL0     C62807   2.698   1.420   4.634 -0.0943  0.8348 -0.0294
  466MOL0     C62808   2.587   1.339   4.635 -1.2254  0.0589 -0.4827
  466MOL0     C62809   2.586   1.219   4.555 -0.0156  0.8228 -0.2474
  466MOL0     C62810   2.688   1.191   4.465  0.2449 -0.3797  0.4645
  466MOL0     O62811   2.665   1.088   4.372  0.4602  0.5473  0.2434
  466MOL0     C62812   2.751   1.091   4.255  0.3454  0.3512 -0.6634
  466MOL0     C62813   2.711   0.950   4.198  0.0390 -0.3687 -0.2733
  466MOL0     C62814   2.787   0.924   4.071  0.7410 -0.1346 -0.5636
  466MOL0     C62815   2.804   0.786   4.037 -0.6317  0.0051  1.1679
  466MOL0     C62816   2.884   0.779   3.904  0.7218  0.2520  0.7680
  466MOL0     C62817   2.892   0.629   3.850  0.3948 -1.0325  0.1869
  466MOL0     C62818   2.932   0.641   3.706  0.7571  0.4801  0.1146
  466MOL0     C62819   2.961   0.497   3.647  0.9319  0.4465  0.1092
  466MOL0    Cl62820   3.002   0.516   3.476 -0.1248 -0.1144 -0.3385
  466MOL0     C62821   2.807   1.264   4.478  0.1676 -1.0346  0.7736
  466MOL0     C62822   2.803   1.384   4.554 -0.3671  0.6944  0.2717
  466MOL0     O62823   2.533   1.642   4.599  0.3449 -0.1770 -0.0034
  466MOL0     C62824   2.751   1.807   4.799  0.4265  0.3589 -0.1998
  466MOL0     C62825   2.771   1.911   4.888  0.1923 -1.0537 -0.0411
  466MOL0     N62826   2.921   2.453   5.201 -0.2914 -0.7419  0.1002
  466MOL0     N62827   2.909   2.584   5.218 -0.4049  0.3353 -0.7349
  466MOL0     C62828   2.237   3.334   5.844  1.0070 -0.4460 -0.1553
  466MOL0     C62829   2.105   3.369   5.905  0.5987  0.8527  0.7822
  466MOL0     C62830   1.739   3.436   6.139 -0.0619 -0.0432  0.1276
  466MOL0     C62831   1.650   3.338   6.191 -0.1076  0.3867 -0.5962
  466MOL0     C62832   1.520   3.360   6.236  0.4085 -0.4575 -0.9652
  466MOL0     C62833   1.466   3.489   6.238 -0.1260 -0.2440 -0.1998
  466MOL0     O62834   1.344   3.522   6.293 -0.3685  0.6313  0.7079
  466MOL0     C62835   1.328   3.654   6.339 -0.3498  0.2567  0.1578
  466MOL0     C62836   1.226   3.677   6.452  0.6501 -0.1593 -0.0390
  466MOL0     C62837   1.096   3.596   6.443 -0.3348 -1.4023  0.7276
  466MOL0     C62838   1.002   3.608   6.563  1.1806  0.0505 -0.9934
  466MOL0     C62839   1.079   3.548   6.677  1.2835 -1.1414 -0.1134
  466MOL0     C62840   1.117   3.515   6.784  0.6904 -0.0793 -0.0053
  466MOL0     C62841   1.556   3.585   6.186  0.5856  0.0298 -0.5631
  466MOL0     C62842   1.687   3.559   6.141  0.2659 -0.4282 -0.1593
  466MOL0     H62843   2.234   3.576   6.151  1.1647  0.3159  0.1988
  466MOL0     H62844   2.440   3.475   6.065  0.2830 -2.2376  1.0417
  466MOL0     H62845   2.485   3.130   5.937  1.5770 -1.8575 -0.9763
  466MOL0     H62846   2.428   3.160   5.767 -3.5916 -1.7555  1.7978
  466MOL0     H62847   2.642   3.248   5.717 -0.7036 -1.7269 -2.4472
  466MOL0     H62848   2.701   3.229   5.883  1.5052 -1.1709 -1.6114
  466MOL0     H62849   2.631   2.972   5.832  0.6372  0.0963  0.2932
  466MOL0     H62850   2.595   3.027   5.667  2.4994 -0.1193 -2.0024
  466MOL0     H62851   2.849   3.122   5.671 -0.6394 -0.0983 -0.1548
  466MOL0     H62852   2.863   3.028   5.820  2.8371 -0.4419 -1.6663
  466MOL0     H62853   2.948   2.889   5.668  0.1790 -1.4681 -1.4798
  466MOL0     H62854   2.781   2.818   5.658 -1.4283  0.8847  0.8979
  466MOL0     H62855   2.749   2.975   5.470 -0.9011 -1.2357  2.3868
  466MOL0     H62856   2.924   2.991   5.462 -1.0240 -0.0996 -2.9481
  466MOL0     H62857   2.761   2.747   5.413  1.1005 -0.9686 -1.0119
  466MOL0     H62858   2.855   2.836   5.291  1.2352  2.7099  0.3307
  466MOL0     H62859   3.006   2.725   5.528  2.7175  2.3166 -0.3739
  466MOL0     H62860   3.070   2.784   5.377  2.0398  0.8269  4.1364
  466MOL0     H62861   3.062   2.466   5.483 -3.9230 -1.0909  2.0297
  466MOL0     H62862   3.127   2.243   5.351 -0.9872 -1.4224  2.9675
  466MOL0     H62863   2.972   2.186   5.400  1.5848  1.3041  2.3201
  466MOL0     H62864   3.061   2.064   5.177 -3.3985 -3.2710 -0.7437
  466MOL0     H62865   3.024   2.217   5.105 -0.2449  1.8785  1.6148
  466MOL0     H62866   2.790   2.168   5.240  2.0399  2.9348  0.5019
  466MOL0     H62867   2.850   2.002   5.192  0.3341  0.2762 -0.5852
  466MOL0     H62868   2.844   2.145   4.947 -0.0388 -0.2244 -0.0774
  466MOL0     H62869   2.773   2.268   5.055  2.1519  0.3760  0.3877
  466MOL0     H62870   2.451   1.987   4.940 -2.0435 -1.2341 -1.4698
  466MOL0     H62871   2.364   1.654   4.785 -0.0689 -0.6837  0.9518
  466MOL0     H62872   2.327   1.754   4.918  0.5363  4.4257  0.4656
  466MOL0     H62873   2.308   1.824   4.755 -0.4651 -1.1194  0.4171
  466MOL0     H62874   2.513   1.354   4.713  0.4659  1.9599  0.8434
  466MOL0     H62875   2.497   1.157   4.560  0.5102  0.0822  0.1485
  466MOL0     H62876   2.736   1.159   4.171  0.0331  1.3433  0.1847
  466MOL0     H62877   2.850   1.074   4.299 -1.2073  0.9073  3.4130
  466MOL0     H62878   2.731   0.886   4.285 -0.8231  0.9495  0.9458
  466MOL0     H62879   2.605   0.946   4.174  0.0879 -2.3055 -0.3526
  466MOL0     H62880   2.889   0.961   4.088  0.0151  1.4049  0.7885
  466MOL0     H62881   2.742   0.982   3.990  1.0467  2.8453  1.2305
  466MOL0     H62882   2.857   0.730   4.114 -0.5565  0.4027  1.4092
  466MOL0     H62883   2.700   0.751   4.027 -0.9984  1.5171 -0.7875
  466MOL0     H62884   2.980   0.830   3.901  0.6008  0.6350 -4.2569
  466MOL0     H62885   2.826   0.835   3.830  4.1232  3.3416  0.2061
  466MOL0     H62886   2.975   0.582   3.903  3.8016  0.4669 -3.3366
  466MOL0     H62887   2.793   0.584   3.860  1.4767 -3.2769  1.4605
  466MOL0     H62888   3.023   0.699   3.689  1.0153  0.1704  0.4268
  466MOL0     H62889   2.849   0.694   3.660 -0.2576  0.5461  1.9220
  466MOL0     H62890   2.860   0.455   3.656  1.5839 -0.7872  2.5340
  466MOL0     H62891   3.028   0.431   3.702 -0.7375  1.1344  3.2303
  466MOL0     H62892   2.890   1.242   4.412 -1.6749 -1.7487 -1.4788
  466MOL0     H62893   2.898   1.437   4.556 -1.1849  2.3485 -1.7308
  466MOL0     H62894   2.838   1.765   4.750  0.6625  1.5763 -0.8769
  466MOL0     H62895   2.873   1.947   4.899  1.1738 -3.1668 -1.4325
  466MOL0     H62896   2.244   3.271   5.755  2.3909 -1.3333  0.5405
  466MOL0     H62897   2.023   3.327   5.849  1.3124 -0.2127  0.5081
  466MOL0     H62898   1.688   3.240   6.218  0.1978 -0.5033 -3.8831
  466MOL0     H62899   1.456   3.287   6.284 -2.2603  1.8867 -0.7097
  466MOL0     H62900   1.427   3.684   6.375 -0.2312  2.0652 -1.4835
  466MOL0     H62901   1.309   3.714   6.249  3.6770 -1.5563 -2.1879
  466MOL0     H62902   1.211   3.785   6.448  2.8455  0.1704 -1.9756
  466MOL0     H62903   1.272   3.658   6.549 -0.1390 -1.1939  0.1465
  466MOL0     H62904   1.132   3.496   6.421  1.6494 -1.1430  2.4991
  466MOL0     H62905   1.049   3.640   6.354  2.9632 -0.9143 -0.9237
  466MOL0     H62906   0.906   3.558   6.556  1.6088 -1.0551  0.5484
  466MOL0     H62907   0.976   3.714   6.578  0.7244 -0.0486 -1.0900
  466MOL0     H62908   1.146   3.473   6.879 -2.6709 -1.9169  0.3920
  466MOL0     H62909   1.511   3.682   6.169  0.7270  0.3216  0.6142
  466MOL0     H62910   1.749   3.635   6.095  0.2677  0.3571  1.0909
  467MOL0     O62911  10.935   0.245   6.983 -0.0381 -0.4810  0.6128
  467MOL0     C62912  11.044   0.218   7.021 -0.6596  0.7693 -0.4960
  467MOL0     O62913  11.072   0.146   7.137  0.4393 -0.0655  0.1990
  467MOL0     C62914  10.961   0.105   7.212  0.3188  0.6189 -0.5583
  467MOL0     C62915  10.878   0.203   7.273 -0.8389  0.1654 -1.1952
  467MOL0     C62916  10.790   0.162   7.373  0.7169  0.6756  0.6791
  467MOL0     C62917  10.793   0.027   7.410  0.4958 -0.2943  0.5307
  467MOL0     O62918  10.714  -0.002   7.514 -0.4853  0.3801 -0.0080
  467MOL0     C62919  10.662  -0.130   7.535 -0.3379  0.9202  0.0195
  467MOL0     C62920  10.541  -0.161   7.444 -0.5206  0.6813  0.5021
  467MOL0     C62921  10.577  -0.201   7.306  0.2787 -1.1617  0.0086
  467MOL0     C62922  10.462  -0.246   7.220  0.5385 -0.5150  0.5176
  467MOL0     C62923  10.363  -0.134   7.182  1.1512  0.3069 -0.2201
  467MOL0     C62924  10.262  -0.183   7.072  0.5219 -0.4665  0.3572
  467MOL0     C62925  10.134  -0.254   7.117 -0.0773 -0.0868 -1.4261
  467MOL0     C62926  10.025  -0.159   7.167  0.1147 -0.3610  1.1508
  467MOL0     N62927   9.918  -0.243   7.236  0.0818 -0.2371  0.6522
  467MOL0     C62928   9.840  -0.345   7.182 -0.2718  0.0109 -0.1090
  467MOL0     C62929   9.743  -0.372   7.270 -0.7134  0.5704  0.6055
  467MOL0     C62930   9.643  -0.492   7.268 -0.7304  0.3414  0.3883
  467MOL0     C62931   9.492  -0.456   7.252  1.5546 -0.0444  0.5708
  467MOL0     C62932   9.417  -0.562   7.161  0.0197 -0.9235 -0.5400
  467MOL0     C62933   9.442  -0.711   7.208 -0.0262  0.5159  0.7842
  467MOL0     O62934   9.411  -0.724   7.344  0.4801  0.1556  0.1364
  467MOL0     C62935   9.277  -0.731   7.386  0.1169 -0.0249 -1.3213
  467MOL0     C62936   9.164  -0.734   7.307 -0.8885  0.0096  0.4481
  467MOL0     C62937   9.034  -0.722   7.361  0.0972  0.2662 -0.0695
  467MOL0     C62938   8.920  -0.696   7.267 -0.1663  0.5312  0.0197
  467MOL0     C62939   9.022  -0.723   7.501  0.9226  0.4084 -0.4097
  467MOL0     C62940   8.885  -0.712   7.571 -0.2998 -0.6699 -0.7000
  467MOL0     O62941   8.778  -0.773   7.518 -0.4224  0.6698  0.7016
  467MOL0     C62942   8.650  -0.779   7.580 -0.3676  0.0769 -0.0364
  467MOL0     C62943   8.573  -0.664   7.595  0.1592 -0.3293 -0.4452
  467MOL0     C62944   8.452  -0.670   7.653 -0.4711  0.4450 -0.2472
  467MOL0     C62945   8.388  -0.796   7.684 -0.9282  0.0092  1.0965
  467MOL0     O62946   8.268  -0.818   7.740  0.4081  0.8293  0.4704
  467MOL0     C62947   8.221  -0.702   7.811  1.3299 -0.1829  0.2216
  467MOL0     C62948   8.137  -0.624   7.713 -0.6499 -0.0881  0.0686
  467MOL0     C62949   8.125  -0.479   7.772  0.5439  0.1448  0.4217
  467MOL0     C62950   8.123  -0.380   7.657 -0.2376 -0.3046  0.8923
  467MOL0     C62951   8.099  -0.250   7.725 -0.6333  0.0545  0.0497
  467MOL0     C62952   8.086  -0.129   7.626  0.9980 -0.9027 -0.9450
  467MOL0     C62953   7.993  -0.034   7.685 -0.3768  0.1060  0.2280
  467MOL0     C62954   7.973   0.083   7.589  0.0278  0.2507  0.0499
  467MOL0    Cl62955   7.910   0.050   7.424 -0.3766  0.1779 -0.2538
  467MOL0     C62956   8.464  -0.912   7.646  0.5978 -0.2019 -0.6141
  467MOL0     C62957   8.598  -0.905   7.609  0.5394  0.1446 -0.7060
  467MOL0     O62958   8.888  -0.653   7.678 -0.3189 -0.1159 -0.1729
  467MOL0     C62959   9.143  -0.728   7.582  0.4660  0.8016 -0.2099
  467MOL0     C62960   9.266  -0.728   7.518  0.4624  0.5039 -0.2149
  467MOL0     N62961   9.767  -0.294   7.383  0.5714  0.0673  0.1056
  467MOL0     N62962   9.868  -0.214   7.362  0.1996  0.3124  0.0367
  467MOL0     C62963  10.891  -0.063   7.352  0.2929  0.2507 -0.2891
  467MOL0     C62964  10.978  -0.020   7.255  0.4486 -0.0179 -0.2993
  467MOL0     C62965  11.156   0.243   6.923  0.6753 -0.7438  0.6387
  467MOL0     C62966  11.133   0.317   6.798  0.2532  0.2808 -0.5605
  467MOL0     C62967  11.228   0.308   6.696 -0.4550  0.6424  0.2810
  467MOL0     C62968  11.354   0.239   6.707 -0.1303 -0.4185 -0.9842
  467MOL0     O62969  11.457   0.257   6.621  0.5916 -0.0369  0.5496
  467MOL0     C62970  11.436   0.360   6.512  0.7510  0.9139 -0.3422
  467MOL0     C62971  11.557   0.369   6.431  0.1330  0.5004 -1.6736
  467MOL0     C62972  11.529   0.467   6.320  0.3123 -0.3985 -0.0585
  467MOL0     C62973  11.645   0.485   6.222 -1.2060  0.5014  0.2385
  467MOL0     C62974  11.598   0.552   6.103  0.0490  0.0001  0.6601
  467MOL0     C62975  11.547   0.626   6.011 -0.1976  0.0536 -1.3086
  467MOL0     C62976  11.377   0.167   6.825 -0.2555 -0.1441  0.4331
  467MOL0     C62977  11.275   0.167   6.923 -0.4390 -0.3945  0.1479
  467MOL0     H62978  10.887   0.307   7.244 -1.5542  1.3767  2.3942
  467MOL0     H62979  10.723   0.233   7.420 -0.5159  0.4995 -0.7620
  467MOL0     H62980  10.738  -0.207   7.523 -0.4377  1.1421 -2.9364
  467MOL0     H62981  10.623  -0.127   7.637 -2.1810  0.2025 -0.6284
  467MOL0     H62982  10.500  -0.249   7.494 -0.0140  0.6431  0.8545
  467MOL0     H62983  10.477  -0.072   7.441 -1.4371  0.0279  0.0849
  467MOL0     H62984  10.625  -0.114   7.259  1.4362 -1.0340  1.3786
  467MOL0     H62985  10.640  -0.290   7.318  0.4033 -0.9418  1.0841
  467MOL0     H62986  10.493  -0.283   7.122  0.3646  2.9972 -0.9851
  467MOL0     H62987  10.413  -0.327   7.276 -0.0745  0.3265  1.2164
  467MOL0     H62988  10.298  -0.112   7.266 -1.1208 -1.9878 -1.2308
  467MOL0     H62989  10.410  -0.042   7.147  0.1868  0.0973 -2.2496
  467MOL0     H62990  10.229  -0.089   7.027  0.5645 -0.2934  0.6906
  467MOL0     H62991  10.299  -0.239   6.986 -2.3509  2.3547 -3.0611
  467MOL0     H62992  10.096  -0.297   7.024 -0.0246  1.0393 -1.9875
  467MOL0     H62993  10.142  -0.328   7.197 -0.1194 -1.6497 -2.8159
  467MOL0     H62994   9.982  -0.092   7.091  0.2422  0.3433  1.6921
  467MOL0     H62995  10.058  -0.096   7.249 -1.1028 -2.6309  3.5401
  467MOL0     H62996   9.861  -0.400   7.092 -0.0982  0.8609 -0.6003
  467MOL0     H62997   9.672  -0.566   7.192  1.3347  1.8326 -0.3467
  467MOL0     H62998   9.645  -0.542   7.365 -2.8864 -0.8122 -0.0942
  467MOL0     H62999   9.481  -0.360   7.200 -2.2107 -0.5139  0.1713
  467MOL0     H63000   9.443  -0.458   7.350 -2.2248  0.3327 -1.1349
  467MOL0     H63001   9.433  -0.546   7.054 -1.4551  2.5234 -0.3742
  467MOL0     H63002   9.312  -0.537   7.178  0.3802 -0.8270  2.0431
  467MOL0     H63003   9.545  -0.741   7.186 -0.9516 -1.7580 -0.8489
  467MOL0     H63004   9.372  -0.773   7.152 -1.9086 -0.0592  3.5731
  467MOL0     H63005   9.158  -0.736   7.198  0.1275  0.4258  0.3720
  467MOL0     H63006   8.858  -0.615   7.305 -0.3745  1.0737 -1.4056
  467MOL0     H63007   8.939  -0.685   7.160 -0.9384 -1.9638 -0.4496
  467MOL0     H63008   8.864  -0.791   7.263  0.4981  0.1775 -2.8947
  467MOL0     H63009   8.627  -0.570   7.584  2.0157 -1.2060  0.8224
  467MOL0     H63010   8.399  -0.577   7.671  0.2196  0.4714  1.8983
  467MOL0     H63011   8.150  -0.741   7.885  0.7877  2.6692  1.3162
  467MOL0     H63012   8.285  -0.640   7.873  1.3813  0.3320 -0.3364
  467MOL0     H63013   8.173  -0.634   7.610 -1.9523 -1.2716 -0.2977
  467MOL0     H63014   8.038  -0.672   7.707 -0.0978 -1.1687 -0.7523
  467MOL0     H63015   8.211  -0.457   7.836  1.9877  1.5493 -1.8552
  467MOL0     H63016   8.034  -0.465   7.831  0.1797  1.8078 -0.4523
  467MOL0     H63017   8.216  -0.362   7.603 -0.7681 -1.0936 -0.3348
  467MOL0     H63018   8.040  -0.397   7.588  1.3217  1.1074 -1.4909
  467MOL0     H63019   8.169  -0.236   7.808 -1.1078 -2.9658  1.0769
  467MOL0     H63020   8.001  -0.262   7.771 -2.5983  2.6772 -3.0367
  467MOL0     H63021   8.185  -0.089   7.601  0.8346 -1.6960 -3.1111
  467MOL0     H63022   8.042  -0.160   7.531 -3.2991 -3.4570  1.5768
  467MOL0     H63023   8.023   0.002   7.784  2.3624  5.3577 -2.0869
  467MOL0     H63024   7.896  -0.084   7.687 -0.4631  0.2831  1.8922
  467MOL0     H63025   8.072   0.132   7.590 -0.2575  0.8897 -1.0312
  467MOL0     H63026   7.896   0.144   7.636  2.4534  3.2519  0.4597
  467MOL0     H63027   8.409  -1.001   7.674  1.8937 -0.6418  0.6958
  467MOL0     H63028   8.657  -0.989   7.577  0.1011 -0.9054  1.0765
  467MOL0     H63029   9.146  -0.728   7.690  2.9407  0.7333 -0.2259
  467MOL0     H63030   9.345  -0.736   7.592  0.5361  1.4643 -0.1763
  467MOL0     H63031  10.917  -0.166   7.379  4.9061  1.1885 -0.3128
  467MOL0     H63032  11.059  -0.077   7.212  0.2767 -1.3738  1.0577
  467MOL0     H63033  11.047   0.382   6.784 -0.3298 -0.2282  0.5030
  467MOL0     H63034  11.213   0.372   6.610  3.6526  2.9884  1.0250
  467MOL0     H63035  11.358   0.331   6.441  3.9907 -1.3416 -3.3467
  467MOL0     H63036  11.413   0.459   6.551  0.4217  0.3757  0.9086
  467MOL0     H63037  11.597   0.271   6.402 -2.1513 -0.6748 -1.1103
  467MOL0     H63038  11.628   0.410   6.503 -1.1911  0.4528 -0.2793
  467MOL0     H63039  11.478   0.560   6.349  0.7428 -0.4790  1.0298
  467MOL0     H63040  11.460   0.418   6.252  1.2595 -0.0947 -1.2905
  467MOL0     H63041  11.693   0.391   6.192 -2.7043 -0.3462  0.4159
  467MOL0     H63042  11.734   0.534   6.264  0.0752 -1.5675  0.0890
  467MOL0     H63043  11.497   0.676   5.931 -1.0412  1.6643  0.1576
  467MOL0     H63044  11.465   0.108   6.845 -0.9732 -1.0555  0.9223
  467MOL0     H63045  11.293   0.106   7.010  1.7919  1.3695  1.0108
  468MOL0     O63046   7.910   3.049   3.605  0.1659  0.2177 -0.3105
  468MOL0     C63047   7.831   3.114   3.539  0.5320  0.2628  0.0705
  468MOL0     O63048   7.699   3.144   3.573  0.0145 -0.4080 -0.3033
  468MOL0     C63049   7.648   3.111   3.689  1.0648 -0.0078 -1.1124
  468MOL0     C63050   7.698   3.174   3.808 -0.6834  0.1240 -0.8482
  468MOL0     C63051   7.630   3.164   3.935 -0.1229 -0.8805 -0.2902
  468MOL0     C63052   7.533   3.067   3.944 -1.2185  0.7392 -0.0382
  468MOL0     O63053   7.466   3.031   4.056  0.7172  0.4728 -0.9189
  468MOL0     C63054   7.504   3.103   4.177  0.6955 -0.1997  0.8078
  468MOL0     C63055   7.455   3.022   4.298  1.0388  0.2953 -0.8160
  468MOL0     C63056   7.559   2.903   4.331 -0.1808  0.2485 -0.3913
  468MOL0     C63057   7.696   2.942   4.402 -0.7776  0.6950 -0.7241
  468MOL0     C63058   7.765   2.828   4.487 -1.0138  0.1294 -0.1603
  468MOL0     C63059   7.911   2.868   4.545 -0.7722 -0.0912 -0.6253
  468MOL0     C63060   7.917   3.000   4.623  0.5186  1.4962 -0.0114
  468MOL0     C63061   8.064   3.021   4.656  0.8166 -0.0697 -0.4790
  468MOL0     N63062   8.132   3.074   4.540 -0.6846 -0.3816  0.0120
  468MOL0     C63063   8.125   3.205   4.496 -0.0333  1.8221 -0.1458
  468MOL0     C63064   8.203   3.197   4.383  0.1886 -0.2955 -0.6469
  468MOL0     C63065   8.221   3.320   4.282  0.5354  0.2227  0.2721
  468MOL0     C63066   8.305   3.441   4.333 -0.0734 -0.2005  0.3538
  468MOL0     C63067   8.450   3.400   4.368  1.0865 -0.8560  0.7643
  468MOL0     C63068   8.526   3.347   4.249  0.4399  0.1643 -0.4734
  468MOL0     O63069   8.533   3.449   4.154  0.0772 -0.2598  0.1771
  468MOL0     C63070   8.630   3.554   4.164  0.7455  0.3782  0.5097
  468MOL0     C63071   8.712   3.576   4.270  0.2609 -0.1970 -0.0431
  468MOL0     C63072   8.800   3.689   4.285  0.1938  0.0631  0.9835
  468MOL0     C63073   8.895   3.682   4.409  0.2728  0.5965  0.3191
  468MOL0     C63074   8.797   3.792   4.188  0.4543 -0.2193 -0.5337
  468MOL0     C63075   8.888   3.907   4.202 -0.4343 -0.0210  0.2842
  468MOL0     O63076   9.024   3.884   4.239 -0.0686  0.5684  0.0897
  468MOL0     C63077   9.110   3.992   4.231 -0.6738  0.5564  0.2981
  468MOL0     C63078   9.146   4.068   4.347  0.7507  0.0483  0.4314
  468MOL0     C63079   9.244   4.170   4.334 -0.3396 -0.7103 -0.2427
  468MOL0     C63080   9.296   4.200   4.211  0.1116 -0.5501 -0.4832
  468MOL0     O63081   9.403   4.283   4.182 -0.0382  0.5109 -0.5738
  468MOL0     C63082   9.444   4.367   4.288  0.0705  0.0447  0.0176
  468MOL0     C63083   9.536   4.304   4.386  0.3615 -0.1758 -0.2207
  468MOL0     C63084   9.553   4.414   4.497  0.3720 -0.7378  0.3010
  468MOL0     C63085   9.680   4.377   4.583 -0.1935  0.0525 -0.2683
  468MOL0     C63086   9.690   4.462   4.712  0.9001  0.5006  0.6051
  468MOL0     C63087   9.831   4.454   4.778 -0.2804 -0.0234 -0.2816
  468MOL0     C63088   9.893   4.322   4.809  0.4836 -0.5561  0.7069
  468MOL0     C63089   9.810   4.235   4.900  0.0791 -0.1649  0.1318
  468MOL0    Cl63090   9.808   4.334   5.057 -0.2607  0.5513 -0.2292
  468MOL0     C63091   9.261   4.119   4.099 -0.0543 -0.2366 -0.1050
  468MOL0     C63092   9.159   4.020   4.105  0.3761 -0.0994  0.3929
  468MOL0     O63093   8.842   4.014   4.168 -0.0740  0.2586  0.0719
  468MOL0     C63094   8.698   3.780   4.086 -0.9677  0.8839 -0.3928
  468MOL0     C63095   8.617   3.664   4.074  0.0930  0.4242 -0.5348
  468MOL0     N63096   8.265   3.076   4.375  0.3557 -0.3382 -0.4588
  468MOL0     N63097   8.220   3.001   4.462  0.0436 -0.1583 -0.2157
  468MOL0     C63098   7.505   2.992   3.832 -0.6682  0.2044 -0.2722
  468MOL0     C63099   7.545   3.018   3.707  1.0120 -0.2554 -0.4750
  468MOL0     C63100   7.873   3.166   3.401 -0.0457  0.0347 -1.3677
  468MOL0     C63101   7.779   3.221   3.315 -0.6600 -0.4635  0.4223
  468MOL0     C63102   7.818   3.281   3.190  0.1304 -0.3824 -0.2256
  468MOL0     C63103   7.953   3.286   3.160 -0.2005 -0.5595  0.2141
  468MOL0     O63104   7.989   3.351   3.046 -0.2238 -0.3133  1.1100
  468MOL0     C63105   8.117   3.326   2.980  1.2711  0.8022 -0.2883
  468MOL0     C63106   8.110   3.385   2.837 -0.2720 -0.0766  0.1672
  468MOL0     C63107   8.226   3.343   2.754 -0.2980 -0.1725  0.4473
  468MOL0     C63108   8.223   3.433   2.628 -0.0863 -0.5862 -0.6785
  468MOL0     C63109   8.126   3.390   2.527 -0.6054 -0.1825  0.4707
  468MOL0     C63110   8.048   3.344   2.443  0.4910  0.1148  0.4721
  468MOL0     C63111   8.040   3.215   3.236  0.1965 -0.7693  0.0090
  468MOL0     C63112   8.008   3.149   3.352 -0.2925  0.6649 -0.1200
  468MOL0     H63113   7.776   3.250   3.804 -0.6755  0.0898 -4.4029
  468MOL0     H63114   7.660   3.219   4.023 -1.8328 -1.8304  0.9393
  468MOL0     H63115   7.610   3.120   4.194  0.6715 -1.0130  1.9031
  468MOL0     H63116   7.462   3.203   4.165 -2.9981 -1.9148 -3.2376
  468MOL0     H63117   7.435   3.073   4.393  2.7753 -2.2088  1.0056
  468MOL0     H63118   7.366   2.968   4.266  0.0661  2.9579 -3.0876
  468MOL0     H63119   7.515   2.827   4.396  3.1932 -1.5719  0.0008
  468MOL0     H63120   7.587   2.841   4.245 -2.5780 -2.6667  0.7824
  468MOL0     H63121   7.764   2.990   4.332 -3.4548  2.8517 -2.0160
  468MOL0     H63122   7.667   3.022   4.470 -0.7568  0.6452 -0.6555
  468MOL0     H63123   7.712   2.800   4.578 -0.9416  2.2943  0.6163
  468MOL0     H63124   7.779   2.733   4.434 -0.3664 -0.7933  1.5885
  468MOL0     H63125   7.935   2.789   4.618 -0.9861  1.4184  1.1379
  468MOL0     H63126   7.984   2.870   4.463  1.0058 -1.5184  0.8231
  468MOL0     H63127   7.857   3.076   4.572 -0.2242 -0.0132 -1.4898
  468MOL0     H63128   7.868   2.976   4.718  1.9926 -1.4430  0.1147
  468MOL0     H63129   8.109   2.929   4.693  2.6598  0.9284 -0.0706
  468MOL0     H63130   8.060   3.092   4.740 -1.2776 -2.6205  1.7631
  468MOL0     H63131   8.057   3.283   4.528 -3.4434  0.6637 -3.7653
  468MOL0     H63132   8.261   3.282   4.188 -0.0259  1.3107 -0.4212
  468MOL0     H63133   8.125   3.366   4.256  0.0830  0.3753  2.0715
  468MOL0     H63134   8.265   3.490   4.423  1.4912  0.2402  0.8332
  468MOL0     H63135   8.300   3.529   4.268  1.5282  0.5426  1.1659
  468MOL0     H63136   8.448   3.329   4.451  0.7220  0.1664  1.6434
  468MOL0     H63137   8.491   3.497   4.399 -2.9612  2.6335 -3.2689
  468MOL0     H63138   8.470   3.261   4.211  0.9050 -0.0201 -0.7689
  468MOL0     H63139   8.621   3.304   4.284  0.1692 -0.1436 -0.1147
  468MOL0     H63140   8.725   3.506   4.352  0.8128  1.1166  1.0276
  468MOL0     H63141   8.867   3.614   4.490 -1.2724  2.6834  1.6431
  468MOL0     H63142   8.988   3.638   4.371 -0.8410 -2.1912  0.6349
  468MOL0     H63143   8.909   3.781   4.454 -2.3003  2.1960 -2.0553
  468MOL0     H63144   9.098   4.047   4.442  0.0301 -2.0503 -0.3420
  468MOL0     H63145   9.271   4.230   4.420  0.5758 -1.1802 -0.1922
  468MOL0     H63146   9.489   4.455   4.242  3.1302  0.0279  2.6555
  468MOL0     H63147   9.355   4.415   4.331 -1.2590 -0.8214 -1.6308
  468MOL0     H63148   9.497   4.215   4.437  0.2415 -2.2274 -3.5898
  468MOL0     H63149   9.628   4.282   4.331  3.9218  3.5635  3.5458
  468MOL0     H63150   9.464   4.410   4.560 -1.4792  2.2871 -1.8424
  468MOL0     H63151   9.556   4.519   4.465 -0.0257  0.1657  2.9648
  468MOL0     H63152   9.672   4.270   4.606  2.0183 -0.2245 -0.5546
  468MOL0     H63153   9.774   4.392   4.529 -0.7104 -0.5543 -1.3675
  468MOL0     H63154   9.609   4.417   4.771 -0.3832  1.3885 -0.4252
  468MOL0     H63155   9.669   4.568   4.695  0.6174  0.6412  1.7438
  468MOL0     H63156   9.897   4.503   4.706  1.5301 -3.2926 -1.0301
  468MOL0     H63157   9.838   4.510   4.872 -2.4679 -2.6137  1.5813
  468MOL0     H63158   9.990   4.341   4.857  1.6776 -1.2916 -1.2670
  468MOL0     H63159   9.919   4.265   4.719  3.0932 -0.1252  1.1029
  468MOL0     H63160   9.857   4.140   4.926  2.7247  0.8645 -0.5682
  468MOL0     H63161   9.705   4.221   4.872 -0.4305  0.6188  1.5293
  468MOL0     H63162   9.300   4.164   4.009 -0.0643  1.7497  0.8175
  468MOL0     H63163   9.135   3.966   4.014  4.0772 -1.0279 -0.2151
  468MOL0     H63164   8.681   3.868   4.025 -0.6753  1.3395  0.1728
  468MOL0     H63165   8.553   3.664   3.987 -1.7202 -0.1012  0.7546
  468MOL0     H63166   7.431   2.913   3.836 -1.8876  1.3422  2.7338
  468MOL0     H63167   7.513   2.965   3.618 -1.9267  1.4522 -0.5709
  468MOL0     H63168   7.674   3.228   3.341 -0.5449  0.1808  0.7399
  468MOL0     H63169   7.754   3.332   3.119 -0.1937 -2.5910 -1.6077
  468MOL0     H63170   8.189   3.380   3.042  2.4890 -1.6759  0.6102
  468MOL0     H63171   8.142   3.220   2.974  1.4601  0.7351  1.2300
  468MOL0     H63172   8.098   3.493   2.839  4.2863  0.6696 -1.1408
  468MOL0     H63173   8.022   3.334   2.796 -1.0788 -1.0053  2.8204
  468MOL0     H63174   8.220   3.236   2.731 -5.4269 -0.1928  0.6579
  468MOL0     H63175   8.317   3.358   2.813  1.2809 -1.0875 -1.6561
  468MOL0     H63176   8.319   3.429   2.575  0.3265 -1.6160  0.1408
  468MOL0     H63177   8.203   3.538   2.654 -2.1622 -2.0093  4.5313
  468MOL0     H63178   7.987   3.300   2.366 -2.3121 -0.5573  2.8950
  468MOL0     H63179   8.146   3.219   3.210  0.6078  3.3177  1.5656
  468MOL0     H63180   8.084   3.101   3.412 -0.0160  0.2105 -0.8158
  469MOL0     O63181   2.186  11.005   4.216 -0.4012  0.9313  0.7355
  469MOL0     C63182   2.196  10.937   4.114 -0.7545 -0.4755  0.4832
  469MOL0     O63183   2.295  10.835   4.095  0.3838  0.1313 -0.1900
  469MOL0     C63184   2.353  10.793   4.214  0.7043  0.5470  0.1177
  469MOL0     C63185   2.279  10.725   4.313  0.8459 -0.4333 -0.5115
  469MOL0     C63186   2.347  10.687   4.432  0.2401  0.2692 -0.0029
  469MOL0     C63187   2.481  10.726   4.456 -0.8836  0.4473 -0.8744
  469MOL0     O63188   2.555  10.700   4.568 -0.2284  0.3861 -0.6193
  469MOL0     C63189   2.503  10.588   4.650  0.3191 -0.2578  1.1581
  469MOL0     C63190   2.416  10.627   4.766  0.0697 -0.5721 -1.7144
  469MOL0     C63191   2.461  10.757   4.829  0.5729  0.1507  0.1692
  469MOL0     C63192   2.372  10.793   4.954 -0.8292 -0.2627 -0.9534
  469MOL0     C63193   2.440  10.909   5.031  0.2915  0.0153  1.3540
  469MOL0     C63194   2.344  10.957   5.128  0.0730  0.1374 -1.3556
  469MOL0     C63195   2.328  10.861   5.242 -0.0096 -0.2798  1.0278
  469MOL0     C63196   2.336  10.932   5.379 -0.2776 -0.6393  0.7543
  469MOL0     N63197   2.215  11.018   5.406  0.8863 -0.2179 -0.9198
  469MOL0     C63198   2.208  11.125   5.498  0.0649 -0.9697  0.0651
  469MOL0     C63199   2.103  11.195   5.464 -1.1284  0.4221  0.5863
  469MOL0     C63200   2.056  11.325   5.525 -0.0463  0.0777  0.4699
  469MOL0     C63201   1.970  11.297   5.653  0.2486  0.8221  0.7348
  469MOL0     C63202   1.904  11.424   5.706 -0.1483  0.5330  0.4650
  469MOL0     C63203   1.999  11.529   5.749  1.0884 -0.0982 -0.0389
  469MOL0     O63204   2.049  11.610   5.641  0.3616  1.1116  0.2724
  469MOL0     C63205   1.966  11.680   5.564 -0.3157 -0.5989 -0.4771
  469MOL0     C63206   1.831  11.712   5.588 -0.5188  0.4106 -0.1407
  469MOL0     C63207   1.748  11.790   5.502 -0.2404 -0.3864 -0.0440
  469MOL0     C63208   1.596  11.778   5.523 -0.5519 -0.4723  0.8397
  469MOL0     C63209   1.809  11.851   5.390  0.3106 -0.3134  0.7518
  469MOL0     C63210   1.736  11.936   5.295  0.2891  0.2165 -0.2645
  469MOL0     O63211   1.789  11.933   5.171  0.6566 -0.0011 -0.2180
  469MOL0     C63212   1.736  11.998   5.058  0.3171 -0.4257  0.1523
  469MOL0     C63213   1.605  12.050   5.039 -0.0632  0.3568  0.7960
  469MOL0     C63214   1.574  12.106   4.914 -0.0306  0.3475  0.4739
  469MOL0     C63215   1.665  12.105   4.805 -0.2115  0.9389  0.9549
  469MOL0     O63216   1.620  12.157   4.689 -0.0607  0.1818 -0.1695
  469MOL0     C63217   1.711  12.166   4.579  0.6513 -0.2558 -0.6084
  469MOL0     C63218   1.655  12.267   4.480  1.1046 -0.9911 -0.3068
  469MOL0     C63219   1.544  12.211   4.401 -0.4618  0.1076  0.7595
  469MOL0     C63220   1.492  12.319   4.309  0.0067 -0.4533 -0.0802
  469MOL0     C63221   1.382  12.267   4.219  0.6909  0.6965  0.8792
  469MOL0     C63222   1.361  12.350   4.090 -0.2609  0.5758 -0.0931
  469MOL0     C63223   1.308  12.489   4.137 -0.2380  0.0360 -0.1869
  469MOL0     C63224   1.281  12.574   4.022  0.5206 -0.3873  0.8472
  469MOL0    Cl63225   1.136  12.513   3.930 -0.0135  0.1184 -0.0284
  469MOL0     C63226   1.796  12.049   4.830 -0.2487  0.4925 -0.7090
  469MOL0     C63227   1.831  11.999   4.958  0.1295  0.1873 -0.4229
  469MOL0     O63228   1.646  12.010   5.342  0.2277 -0.4732  0.2907
  469MOL0     C63229   1.944  11.823   5.367  0.3584  0.1252 -0.2894
  469MOL0     C63230   2.025  11.741   5.450  0.2382  0.8109  0.6717
  469MOL0     N63231   2.063  11.145   5.348  0.1095 -0.0811  0.6328
  469MOL0     N63232   2.123  11.040   5.315  0.5556 -0.0322 -0.1876
  469MOL0     C63233   2.553  10.790   4.358  1.0755 -0.0645  0.4656
  469MOL0     C63234   2.484  10.826   4.236  0.5030  0.5045 -1.3985
  469MOL0     C63235   2.103  10.974   3.994 -0.3218  0.5873  0.6324
  469MOL0     C63236   2.028  11.096   4.000  0.4991  0.4893  0.3284
  469MOL0     C63237   1.942  11.123   3.894  0.5878  0.2614 -0.1019
  469MOL0     C63238   1.918  11.033   3.787 -0.6395  0.3125 -0.2389
  469MOL0     O63239   1.842  11.053   3.679 -0.1179 -0.1652  0.0997
  469MOL0     C63240   1.710  11.119   3.699  0.3069  0.7265 -0.6402
  469MOL0     C63241   1.644  11.130   3.567  0.3174  0.4859  0.8417
  469MOL0     C63242   1.502  11.184   3.587  0.1651  0.0625  0.3347
  469MOL0     C63243   1.425  11.222   3.462 -0.0861  0.6768 -0.2868
  469MOL0     C63244   1.366  11.106   3.392 -0.3340  0.8559  0.5766
  469MOL0     C63245   1.305  11.013   3.338  0.1325 -0.3938 -0.2244
  469MOL0     C63246   1.975  10.911   3.793 -0.1144 -0.0239 -0.2846
  469MOL0     C63247   2.068  10.878   3.889  0.5060 -0.2602 -0.5783
  469MOL0     H63248   2.177  10.692   4.295  1.3684 -1.0444 -2.6750
  469MOL0     H63249   2.290  10.641   4.512 -1.1651  4.8972  2.0059
  469MOL0     H63250   2.448  10.520   4.584 -2.6708 -0.0271  3.2006
  469MOL0     H63251   2.591  10.534   4.687  3.0616  3.4372  0.6675
  469MOL0     H63252   2.316  10.651   4.730  0.5636  3.5885 -0.8257
  469MOL0     H63253   2.415  10.540   4.833  0.3630 -0.8396 -2.0551
  469MOL0     H63254   2.568  10.770   4.852  0.5480  3.0095 -0.8720
  469MOL0     H63255   2.441  10.829   4.748  3.1334 -0.5598 -1.2351
  469MOL0     H63256   2.281  10.837   4.912 -0.3575  0.4676 -1.2225
  469MOL0     H63257   2.355  10.709   5.022 -1.4325 -2.1049 -3.2353
  469MOL0     H63258   2.540  10.879   5.064  0.3547 -1.3273  0.0430
  469MOL0     H63259   2.446  10.991   4.958  1.1362 -0.8415  0.4221
  469MOL0     H63260   2.387  11.052   5.161 -2.4971  0.1879  2.4813
  469MOL0     H63261   2.244  10.982   5.091 -1.9627  2.7004  4.6648
  469MOL0     H63262   2.230  10.817   5.224  0.4600 -1.2929  0.8729
  469MOL0     H63263   2.415  10.795   5.240  1.3297  1.3564 -2.1111
  469MOL0     H63264   2.420  11.001   5.390 -1.0115  0.9011 -2.2510
  469MOL0     H63265   2.333  10.851   5.453  3.0923 -0.0309  1.7221
  469MOL0     H63266   2.277  11.148   5.579 -0.7719 -0.9818  0.7943
  469MOL0     H63267   2.140  11.389   5.554  0.4548  0.9993 -2.6166
  469MOL0     H63268   1.993  11.376   5.452 -0.3116  1.3387  1.5231
  469MOL0     H63269   2.026  11.256   5.737 -3.7861 -0.7805  2.9466
  469MOL0     H63270   1.897  11.219   5.630  0.9042  0.8770 -1.8300
  469MOL0     H63271   1.850  11.403   5.799  2.0216  2.3394  2.2649
  469MOL0     H63272   1.830  11.470   5.639 -1.0691  1.4497  2.0348
  469MOL0     H63273   2.073  11.470   5.805 -0.2802 -1.7313  0.1207
  469MOL0     H63274   1.953  11.600   5.818  0.6463 -0.3586 -0.0597
  469MOL0     H63275   1.781  11.671   5.674  1.1054 -2.6530 -0.5258
  469MOL0     H63276   1.574  11.750   5.627 -2.2162 -2.8862 -0.0823
  469MOL0     H63277   1.545  11.871   5.497 -0.4759  0.4490  3.5747
  469MOL0     H63278   1.563  11.699   5.455 -0.7591 -0.2474  0.6781
  469MOL0     H63279   1.528  12.046   5.115 -2.8466 -0.3833 -1.8434
  469MOL0     H63280   1.474  12.145   4.898 -1.3884 -2.5136  1.3542
  469MOL0     H63281   1.811  12.200   4.606  0.1718  0.5144  0.2714
  469MOL0     H63282   1.728  12.076   4.520 -0.6440 -0.0362 -1.3689
  469MOL0     H63283   1.624  12.355   4.537 -1.0461 -1.2484 -1.0078
  469MOL0     H63284   1.730  12.299   4.406  0.1963 -3.0621 -2.2252
  469MOL0     H63285   1.460  12.180   4.464  0.9027 -3.3608  1.1445
  469MOL0     H63286   1.566  12.120   4.344 -0.9149  0.4753 -0.0202
  469MOL0     H63287   1.450  12.393   4.378  2.7089  1.5803 -0.4544
  469MOL0     H63288   1.568  12.376   4.256  0.2482 -0.0720  0.6610
  469MOL0     H63289   1.293  12.247   4.279  1.7210  1.7514  2.8905
  469MOL0     H63290   1.420  12.171   4.182 -0.6266  0.0194  1.2206
  469MOL0     H63291   1.456  12.371   4.039 -1.1336  2.7514 -0.9758
  469MOL0     H63292   1.294  12.308   4.015 -0.2800  2.4699 -1.2021
  469MOL0     H63293   1.387  12.548   4.184  0.7634 -2.3268  1.2518
  469MOL0     H63294   1.223  12.475   4.204  0.2761 -0.0622  0.4520
  469MOL0     H63295   1.372  12.568   3.962  0.6491 -0.0505  1.0072
  469MOL0     H63296   1.271  12.677   4.058  1.1592 -0.4882  1.3480
  469MOL0     H63297   1.868  12.030   4.752 -0.4856  0.1066 -0.8376
  469MOL0     H63298   1.926  11.950   4.975  0.0912  1.1295  3.0982
  469MOL0     H63299   1.997  11.855   5.278  1.8282 -0.4402  0.3416
  469MOL0     H63300   2.127  11.709   5.428 -0.3719  0.9223 -3.0059
  469MOL0     H63301   2.652  10.829   4.378  1.1196 -0.4022  0.9390
  469MOL0     H63302   2.544  10.885   4.168  3.6212  0.8757  1.4200
  469MOL0     H63303   2.039  11.170   4.079  0.7159  0.9633 -0.1389
  469MOL0     H63304   1.891  11.218   3.903  3.1503  1.6636  0.3410
  469MOL0     H63305   1.646  11.073   3.775 -0.2277  3.9813  1.0217
  469MOL0     H63306   1.724  11.219   3.740  3.3777 -0.0254  0.4398
  469MOL0     H63307   1.648  11.033   3.517 -1.6872  0.7218  0.1416
  469MOL0     H63308   1.697  11.198   3.501 -0.8699  0.7048  0.0912
  469MOL0     H63309   1.512  11.275   3.646  3.6399  0.0097  0.0151
  469MOL0     H63310   1.448  11.116   3.654  1.5741 -0.2902  1.1659
  469MOL0     H63311   1.489  11.278   3.393 -1.3050  0.9645 -1.2273
  469MOL0     H63312   1.345  11.291   3.492  2.6495  3.4222  1.3583
  469MOL0     H63313   1.277  10.924   3.286  1.2185 -0.0827 -1.3761
  469MOL0     H63314   1.966  10.832   3.718  1.5457 -3.8339  3.1308
  469MOL0     H63315   2.111  10.779   3.880  0.4479 -0.2900 -0.5336
  470MOL0     O63316  11.019   5.484   1.721 -0.2949 -0.1032 -0.0473
  470MOL0     C63317  11.066   5.582   1.667  0.1717  0.4631  0.7718
  470MOL0     O63318  11.150   5.675   1.734 -0.5742  0.2595 -0.8021
  470MOL0     C63319  11.178   5.657   1.864 -0.4758 -0.0477 -0.3501
  470MOL0     C63320  11.312   5.659   1.905  0.4240 -0.5896 -0.7507
  470MOL0     C63321  11.348   5.643   2.034  0.0810 -0.6586 -0.5229
  470MOL0     C63322  11.245   5.620   2.133 -1.1810 -0.9615 -0.0611
  470MOL0     O63323  11.272   5.581   2.262 -0.7114  0.2100  0.0412
  470MOL0     C63324  11.263   5.686   2.358  0.1161  0.5068 -0.8662
  470MOL0     C63325  11.327   5.633   2.493 -0.3643  0.3295  0.3960
  470MOL0     C63326  11.306   5.725   2.609 -0.8392 -0.3194  0.0777
  470MOL0     C63327  11.394   5.852   2.590  0.1723 -0.3473 -0.3215
  470MOL0     C63328  11.400   5.940   2.723 -0.1740 -0.5711  0.2781
  470MOL0     C63329  11.475   5.875   2.836 -0.4318 -1.1756 -0.0009
  470MOL0     C63330  11.500   5.974   2.950  0.5169  0.2642  0.8002
  470MOL0     C63331  11.636   5.946   3.028 -0.3256 -0.0950  0.5207
  470MOL0     N63332  11.643   6.017   3.156  0.1531 -0.6647 -0.4507
  470MOL0     C63333  11.626   6.151   3.178 -0.0346  0.1015 -0.5446
  470MOL0     C63334  11.612   6.156   3.317 -0.7078  0.4847  0.9179
  470MOL0     C63335  11.608   6.280   3.386  0.1732 -0.6570  0.4508
  470MOL0     C63336  11.741   6.362   3.382  0.3004  0.6853  0.2724
  470MOL0     C63337  11.725   6.497   3.456 -0.1126 -0.5544  0.1700
  470MOL0     C63338  11.700   6.481   3.609  0.1122 -1.0389 -0.5827
  470MOL0     O63339  11.793   6.386   3.669 -0.6413  0.1415  0.5319
  470MOL0     C63340  11.915   6.443   3.704  0.7089  0.1435  0.4487
  470MOL0     C63341  12.021   6.399   3.626 -0.0377 -0.0606  0.1014
  470MOL0     C63342  12.147   6.442   3.649 -0.0346 -0.3663 -0.3686
  470MOL0     C63343  12.258   6.402   3.562  0.2095  0.6071  0.9191
  470MOL0     C63344  12.161   6.536   3.757 -0.3055 -0.1892 -0.3475
  470MOL0     C63345  12.298   6.601   3.795  0.3351  0.1157  0.4320
  470MOL0     O63346  12.303   6.663   3.913 -0.6399 -0.2894 -0.1554
  470MOL0     C63347  12.430   6.701   3.962  0.2480 -0.8499  0.0756
  470MOL0     C63348  12.500   6.795   3.884  0.3060 -0.2700 -0.4591
  470MOL0     C63349  12.622   6.847   3.931 -0.4125  1.1557 -0.0084
  470MOL0     C63350  12.681   6.783   4.046  0.3617  0.5738  0.5295
  470MOL0     O63351  12.809   6.827   4.063  0.2005 -0.0232  0.4195
  470MOL0     C63352  12.887   6.774   4.166 -0.7950 -0.2400 -0.8433
  470MOL0     C63353  13.024   6.830   4.150 -0.0085  0.5259 -0.1009
  470MOL0     C63354  13.127   6.799   4.273  0.3544  0.3784  0.1694
  470MOL0     C63355  13.267   6.863   4.239  0.7805  0.2723  0.2706
  470MOL0     C63356  13.330   6.827   4.103 -0.1513 -0.7671  0.3047
  470MOL0     C63357  13.350   6.677   4.075 -0.5262 -0.0121 -0.4387
  470MOL0     C63358  13.385   6.660   3.936  0.0001 -0.0133 -0.1132
  470MOL0     C63359  13.323   6.539   3.863  0.4334 -0.4871  0.2260
  470MOL0    Cl63360  13.406   6.378   3.915  0.5149 -0.2252 -0.0047
  470MOL0     C63361  12.600   6.699   4.135 -0.2869 -0.3047  0.6032
  470MOL0     C63362  12.477   6.659   4.089 -0.3428  0.3104  0.0182
  470MOL0     O63363  12.398   6.581   3.728  0.5157 -0.3373  0.4445
  470MOL0     C63364  12.055   6.579   3.839 -0.2035 -0.4238 -0.0994
  470MOL0     C63365  11.925   6.530   3.812 -0.1090 -0.7762 -0.4735
  470MOL0     N63366  11.626   6.031   3.372  0.3385 -0.0728 -0.7001
  470MOL0     N63367  11.655   5.949   3.276 -0.8917  0.6427  0.5463
  470MOL0     C63368  11.107   5.619   2.090  1.3059 -0.3002 -0.2237
  470MOL0     C63369  11.073   5.640   1.954 -0.0096  0.0967  0.3825
  470MOL0     C63370  11.028   5.613   1.522  0.5626  0.4819  0.3230
  470MOL0     C63371  11.065   5.733   1.462 -0.4732 -0.4970  0.6333
  470MOL0     C63372  11.045   5.769   1.332 -0.1120  0.3441  0.9286
  470MOL0     C63373  10.988   5.668   1.241  0.0039  0.7537 -1.1992
  470MOL0     O63374  10.957   5.681   1.111 -0.3113 -0.1742 -0.1954
  470MOL0     C63375  10.982   5.809   1.053  0.7210  0.1211  0.5280
  470MOL0     C63376  10.922   5.825   0.913  0.0636  0.9152 -0.1651
  470MOL0     C63377  10.935   5.968   0.870  0.5457  0.1485  0.4691
  470MOL0     C63378  11.016   6.006   0.748  0.3430  1.0325  0.9495
  470MOL0     C63379  10.950   5.935   0.629 -0.7388 -0.2897  0.5350
  470MOL0     C63380  10.898   5.865   0.538 -0.3916 -0.7927  0.4853
  470MOL0     C63381  10.963   5.543   1.302  0.3176 -0.5072 -0.3763
  470MOL0     C63382  10.963   5.518   1.440  0.1324  0.0086  0.5424
  470MOL0     H63383  11.395   5.675   1.837  1.2796  0.4515  0.4827
  470MOL0     H63384  11.449   5.642   2.074 -0.6643  2.4679  1.8214
  470MOL0     H63385  11.287   5.789   2.327 -0.9565  1.4919  1.3479
  470MOL0     H63386  11.157   5.705   2.373 -0.4365 -1.8235 -1.4944
  470MOL0     H63387  11.271   5.541   2.514 -0.5147  0.5611  1.0188
  470MOL0     H63388  11.432   5.602   2.480 -0.4066 -0.2228  1.3024
  470MOL0     H63389  11.199   5.747   2.621 -1.6602 -2.2748 -2.6424
  470MOL0     H63390  11.338   5.672   2.699  0.0967 -0.2181 -0.1846
  470MOL0     H63391  11.498   5.832   2.563 -0.1933 -0.1475 -1.9928
  470MOL0     H63392  11.346   5.912   2.512 -2.4419 -3.4210 -1.3216
  470MOL0     H63393  11.448   6.035   2.700 -1.6259 -0.1332 -1.2106
  470MOL0     H63394  11.295   5.962   2.746 -0.4223 -2.4506  1.0995
  470MOL0     H63395  11.428   5.785   2.877 -1.5837 -1.8658 -2.6591
  470MOL0     H63396  11.571   5.847   2.792  0.0127 -3.7122  2.2671
  470MOL0     H63397  11.486   6.074   2.908 -2.2408 -1.1721 -2.0708
  470MOL0     H63398  11.424   5.951   3.025  1.0569 -1.5510  0.8506
  470MOL0     H63399  11.722   5.983   2.971  0.4097 -0.6378  1.2516
  470MOL0     H63400  11.657   5.839   3.035  0.9609 -0.1738 -2.8486
  470MOL0     H63401  11.637   6.235   3.111  2.3467 -1.3250 -2.1380
  470MOL0     H63402  11.525   6.335   3.340  0.0360 -1.9960 -1.0214
  470MOL0     H63403  11.577   6.252   3.488 -1.5505  2.1382  0.7912
  470MOL0     H63404  11.786   6.366   3.283  1.0627  0.0997  0.5850
  470MOL0     H63405  11.808   6.301   3.443  0.8034 -0.8714 -1.7266
  470MOL0     H63406  11.645   6.549   3.403 -0.7984 -1.1406  0.6046
  470MOL0     H63407  11.819   6.549   3.437 -0.6663 -0.2238 -1.8247
  470MOL0     H63408  11.596   6.451   3.624 -0.5203  0.8939 -0.8635
  470MOL0     H63409  11.706   6.579   3.657  3.1768  0.1993 -3.1177
  470MOL0     H63410  12.001   6.326   3.549 -0.9601 -0.2025  0.4651
  470MOL0     H63411  12.345   6.358   3.613  0.6677  2.6645  2.0295
  470MOL0     H63412  12.238   6.327   3.486  1.4062  2.3107 -1.2121
  470MOL0     H63413  12.301   6.490   3.513  0.1817  0.2765  0.2987
  470MOL0     H63414  12.452   6.839   3.797  0.2837 -0.3641 -0.4943
  470MOL0     H63415  12.675   6.925   3.878  2.3148 -1.4302 -1.3755
  470MOL0     H63416  12.847   6.818   4.258  0.2510  1.0921 -0.9904
  470MOL0     H63417  12.894   6.665   4.173  4.5189 -0.1342 -0.0443
  470MOL0     H63418  13.068   6.789   4.059 -1.2904 -2.7815  0.6412
  470MOL0     H63419  13.015   6.938   4.133  1.8807  0.8209  0.4669
  470MOL0     H63420  13.133   6.691   4.289 -3.0470  0.2658  1.6163
  470MOL0     H63421  13.095   6.849   4.365 -1.2867  1.8512 -1.1443
  470MOL0     H63422  13.256   6.971   4.251  3.1261  0.2708  4.0251
  470MOL0     H63423  13.333   6.824   4.317 -0.6593 -1.5592  0.6571
  470MOL0     H63424  13.428   6.874   4.096 -1.2704  1.4569 -2.7278
  470MOL0     H63425  13.271   6.874   4.023  1.7351 -2.5735 -2.3140
  470MOL0     H63426  13.424   6.643   4.147 -1.0094  2.4416  1.3740
  470MOL0     H63427  13.262   6.619   4.105  0.3664 -1.5098 -0.6157
  470MOL0     H63428  13.493   6.647   3.932 -0.0965 -1.0402  0.2628
  470MOL0     H63429  13.359   6.751   3.881 -1.0121  1.2939  2.3659
  470MOL0     H63430  13.342   6.560   3.757  0.8572 -0.8159  0.2333
  470MOL0     H63431  13.217   6.538   3.888  0.4475  0.7440  0.3999
  470MOL0     H63432  12.640   6.673   4.233 -0.7906  1.5777  1.3507
  470MOL0     H63433  12.431   6.574   4.138  1.9557 -0.4952  0.9068
  470MOL0     H63434  12.059   6.644   3.926 -1.0247 -1.2903  0.6096
  470MOL0     H63435  11.832   6.545   3.865  0.0365 -1.5259  0.0021
  470MOL0     H63436  11.032   5.607   2.167  1.9483 -0.0821  0.4461
  470MOL0     H63437  10.971   5.650   1.921  0.6966  5.8474 -1.2075
  470MOL0     H63438  11.113   5.812   1.520 -0.8919 -0.9839  1.6727
  470MOL0     H63439  11.086   5.864   1.298  3.3552 -0.5062  2.3178
  470MOL0     H63440  10.938   5.878   1.126  1.4043  0.7503  0.3704
  470MOL0     H63441  11.089   5.832   1.042  0.7554 -0.8136 -1.4946
  470MOL0     H63442  10.818   5.796   0.896  0.6200 -2.6673  1.5675
  470MOL0     H63443  10.984   5.762   0.850 -0.0663 -1.1373  1.6231
  470MOL0     H63444  10.964   6.035   0.952 -0.3087  2.6045 -1.1186
  470MOL0     H63445  10.831   6.001   0.859  0.0915 -1.5471 -0.5998
  470MOL0     H63446  11.121   5.975   0.753  0.1283  0.0603 -0.0767
  470MOL0     H63447  11.015   6.112   0.724 -2.0757  0.6155 -1.2128
  470MOL0     H63448  10.879   5.780   0.476  0.0585 -1.7113  1.5841
  470MOL0     H63449  10.928   5.462   1.239 -1.9500 -0.5441  0.8348
  470MOL0     H63450  10.926   5.422   1.472  0.6370 -0.2662  0.3197
  471MOL0     O63451   5.311   3.846   1.039 -0.5371 -0.3218  0.0558
  471MOL0     C63452   5.304   3.755   0.960 -0.6524 -0.3443 -0.1718
  471MOL0     O63453   5.215   3.744   0.859 -0.0598  0.5707  0.1782
  471MOL0     C63454   5.158   3.863   0.820 -0.4605 -0.2476  0.2463
  471MOL0     C63455   5.016   3.879   0.815 -0.0394 -0.5251  0.4207
  471MOL0     C63456   4.952   4.002   0.776  0.3635 -0.4684 -0.7597
  471MOL0     C63457   5.036   4.110   0.743  0.2859 -0.3971 -0.1215
  471MOL0     O63458   4.976   4.232   0.705 -0.5650  0.2942  0.4308
  471MOL0     C63459   4.870   4.235   0.612 -0.1480  0.9457  0.7693
  471MOL0     C63460   4.753   4.300   0.680 -0.4886  0.9019  0.7014
  471MOL0     C63461   4.772   4.457   0.691 -0.1053  0.4844  0.7986
  471MOL0     C63462   4.716   4.511   0.824  0.5498  0.2366  0.4375
  471MOL0     C63463   4.568   4.526   0.813 -0.3540 -0.5884  0.3274
  471MOL0     C63464   4.514   4.578   0.947 -0.1581 -0.1162  0.9386
  471MOL0     C63465   4.354   4.563   0.952 -0.1970  0.6667  0.7185
  471MOL0     C63466   4.305   4.560   1.092 -0.0954  0.6049 -0.2284
  471MOL0     N63467   4.155   4.546   1.100 -0.5452 -0.2945  0.0086
  471MOL0     C63468   4.087   4.424   1.120  0.7263 -0.9774 -0.7785
  471MOL0     C63469   3.958   4.468   1.126 -0.2202  0.0100 -0.0486
  471MOL0     C63470   3.846   4.365   1.118  0.0754 -0.8967 -0.7541
  471MOL0     C63471   3.815   4.317   0.971  0.0261 -1.0207 -0.6663
  471MOL0     C63472   3.734   4.409   0.879  1.0669  0.6623 -0.1991
  471MOL0     C63473   3.578   4.408   0.895 -1.0559  0.0969  0.3820
  471MOL0     O63474   3.514   4.287   0.854  0.4136 -0.2502 -1.1385
  471MOL0     C63475   3.383   4.260   0.866 -0.6330  0.0853  0.0846
  471MOL0     C63476   3.351   4.131   0.833  0.1107  0.7569 -0.2148
  471MOL0     C63477   3.221   4.091   0.838  0.2454 -1.3628 -0.4806
  471MOL0     C63478   3.191   3.954   0.802 -0.5302 -0.1435 -0.5601
  471MOL0     C63479   3.119   4.191   0.863  0.3353  0.0330 -0.0328
  471MOL0     C63480   2.983   4.160   0.850  0.7759 -0.3269  0.4023
  471MOL0     O63481   2.952   4.098   0.730 -0.5401 -0.8551 -0.0845
  471MOL0     C63482   2.815   4.086   0.698 -0.0077  1.0239  0.6488
  471MOL0     C63483   2.755   4.189   0.637  0.2619  0.3057  0.2776
  471MOL0     C63484   2.623   4.187   0.603 -0.8712  0.1438  0.5290
  471MOL0     C63485   2.536   4.092   0.646  1.0180  0.8319 -0.3838
  471MOL0     O63486   2.398   4.093   0.617 -0.3016  0.2982  0.0661
  471MOL0     C63487   2.326   4.028   0.717  0.6065 -0.4626 -0.1177
  471MOL0     C63488   2.185   4.075   0.697  0.5179 -0.1362  0.3661
  471MOL0     C63489   2.165   4.221   0.735 -0.1146  0.0351  0.1344
  471MOL0     C63490   2.031   4.265   0.674  0.0595 -0.1809 -0.5976
  471MOL0     C63491   2.005   4.406   0.711  0.4903 -0.5493 -0.1240
  471MOL0     C63492   1.964   4.437   0.858  0.1562  0.3207  0.6045
  471MOL0     C63493   2.088   4.486   0.941 -0.6482 -0.9965 -0.6820
  471MOL0     C63494   2.053   4.556   1.065 -0.7875 -0.8988  0.3154
  471MOL0    Cl63495   1.952   4.456   1.166  0.4366  0.0917 -0.2422
  471MOL0     C63496   2.593   3.978   0.717  0.3443 -0.3340 -1.0435
  471MOL0     C63497   2.733   3.980   0.740  0.1611 -1.1334 -0.6634
  471MOL0     O63498   2.896   4.215   0.919  0.2738 -0.0560  0.0312
  471MOL0     C63499   3.150   4.318   0.885  0.6418 -1.0587 -1.4391
  471MOL0     C63500   3.283   4.357   0.877 -1.2511  0.4643 -0.9022
  471MOL0     N63501   3.952   4.605   1.103  0.8183  0.1809  0.0235
  471MOL0     N63502   4.072   4.648   1.096  0.4878  0.5197 -1.1884
  471MOL0     C63503   5.173   4.095   0.750  0.0735 -1.1960 -0.7445
  471MOL0     C63504   5.240   3.977   0.786  1.3842 -0.2398  0.0107
  471MOL0     C63505   5.414   3.656   0.977  0.2361  0.2266  0.5541
  471MOL0     C63506   5.528   3.675   1.054 -0.3000  0.0679 -0.0780
  471MOL0     C63507   5.629   3.585   1.060 -0.0127 -0.6365 -0.5353
  471MOL0     C63508   5.628   3.465   0.982 -0.1014 -0.7496 -0.4227
  471MOL0     O63509   5.710   3.360   1.001  0.0047 -0.5331  0.5888
  471MOL0     C63510   5.816   3.343   1.098 -0.1342 -0.2269 -0.1972
  471MOL0     C63511   5.874   3.207   1.065 -0.4771  0.4142  1.0133
  471MOL0     C63512   5.788   3.073   1.082  0.1202 -0.1023 -0.7127
  471MOL0     C63513   5.869   2.944   1.074  0.4165  0.5306 -0.1142
  471MOL0     C63514   5.976   2.943   1.173  0.0354  0.8224  0.7395
  471MOL0     C63515   6.070   2.937   1.249 -0.6734 -0.2694 -0.2129
  471MOL0     C63516   5.515   3.450   0.900  1.2139  0.1256 -0.2778
  471MOL0     C63517   5.409   3.538   0.901  0.0598  0.4129 -0.0417
  471MOL0     H63518   4.953   3.795   0.839 -2.0277  0.9503  0.6110
  471MOL0     H63519   4.848   4.026   0.794  0.8854 -0.4192  3.0139
  471MOL0     H63520   4.913   4.298   0.534 -1.8049  1.7040  0.4302
  471MOL0     H63521   4.858   4.131   0.580  4.3681  0.7805 -1.0362
  471MOL0     H63522   4.660   4.277   0.628 -0.5472 -0.4881  1.3906
  471MOL0     H63523   4.744   4.260   0.781 -2.4774 -1.0778 -0.1899
  471MOL0     H63524   4.879   4.481   0.679  0.5428 -2.0852  0.8033
  471MOL0     H63525   4.731   4.494   0.597  1.8228 -2.2859 -1.3121
  471MOL0     H63526   4.739   4.439   0.903  3.6240  0.0643 -0.4556
  471MOL0     H63527   4.762   4.604   0.857 -1.6297  1.2434  0.8228
  471MOL0     H63528   4.543   4.592   0.730 -1.1265 -0.4827  0.6343
  471MOL0     H63529   4.515   4.433   0.790 -1.3112 -0.0605  0.3524
  471MOL0     H63530   4.563   4.523   1.028 -0.1669  0.3816  1.2838
  471MOL0     H63531   4.532   4.685   0.960  0.3395 -0.3729  2.6425
  471MOL0     H63532   4.301   4.643   0.900  2.4656  1.5575 -0.8195
  471MOL0     H63533   4.329   4.469   0.902  1.6267  0.3252  0.3954
  471MOL0     H63534   4.335   4.648   1.149  0.3270  0.4225 -0.1642
  471MOL0     H63535   4.345   4.475   1.148  0.1992  2.5809  2.7848
  471MOL0     H63536   4.125   4.323   1.129  1.3249 -0.5810  1.9754
  471MOL0     H63537   3.876   4.285   1.187 -0.9191 -1.5451 -1.0554
  471MOL0     H63538   3.760   4.418   1.162  1.0172  0.6045 -0.6571
  471MOL0     H63539   3.758   4.226   0.987  0.4213 -1.0444  0.7244
  471MOL0     H63540   3.909   4.294   0.921 -0.1376  0.6962 -1.8490
  471MOL0     H63541   3.750   4.388   0.773  0.0491  1.3873 -0.5067
  471MOL0     H63542   3.771   4.512   0.879 -0.6250  1.3004 -1.2951
  471MOL0     H63543   3.537   4.490   0.834  1.4801  1.3255  0.1896
  471MOL0     H63544   3.557   4.424   1.001 -2.6585 -0.8698  0.2493
  471MOL0     H63545   3.429   4.065   0.798 -0.1022 -0.0678  0.7950
  471MOL0     H63546   3.188   3.943   0.693 -1.0142 -3.4248 -0.3132
  471MOL0     H63547   3.269   3.886   0.838 -1.4414 -2.2488 -2.2758
  471MOL0     H63548   3.097   3.915   0.844  0.3534 -0.2838  1.3640
  471MOL0     H63549   2.823   4.259   0.590  2.3871 -2.4025 -0.9561
  471MOL0     H63550   2.589   4.265   0.535 -0.2386 -1.3705 -1.6274
  471MOL0     H63551   2.326   3.919   0.704  2.3122 -0.6216  0.8750
  471MOL0     H63552   2.360   4.044   0.820  2.3370 -2.3680 -0.3266
  471MOL0     H63553   2.167   4.074   0.589  3.6404  0.2305 -0.2561
  471MOL0     H63554   2.116   4.009   0.750 -3.2974  4.0879  1.3314
  471MOL0     H63555   2.244   4.282   0.690 -0.3037 -0.7222 -1.2969
  471MOL0     H63556   2.161   4.225   0.844 -2.6114 -4.8135  0.4864
  471MOL0     H63557   2.042   4.261   0.565 -0.5936  1.3213 -0.7398
  471MOL0     H63558   1.955   4.190   0.695  1.4676 -1.6058 -0.3440
  471MOL0     H63559   1.916   4.424   0.650 -0.2031 -0.0986  0.9911
  471MOL0     H63560   2.084   4.470   0.670 -0.3640  0.5343 -0.1275
  471MOL0     H63561   1.882   4.509   0.861  0.5618  0.7996  0.3721
  471MOL0     H63562   1.942   4.349   0.920 -2.9909  2.0091  2.1151
  471MOL0     H63563   2.162   4.541   0.882  2.0773 -2.3173  1.2432
  471MOL0     H63564   2.152   4.403   0.973  0.6308  0.9736  2.3433
  471MOL0     H63565   1.984   4.639   1.045 -0.3381 -0.8141 -0.8979
  471MOL0     H63566   2.139   4.592   1.121 -1.9755  0.2546  1.4859
  471MOL0     H63567   2.538   3.889   0.744  0.2116 -0.2431 -1.0100
  471MOL0     H63568   2.779   3.894   0.787  0.6368 -0.0656  0.8702
  471MOL0     H63569   3.071   4.393   0.890 -0.7401 -2.5302  0.3893
  471MOL0     H63570   3.303   4.462   0.892  0.7473 -0.0937  1.0354
  471MOL0     H63571   5.236   4.179   0.724  1.7274 -2.6360 -1.5837
  471MOL0     H63572   5.348   3.976   0.789  1.3628 -0.5642  0.9877
  471MOL0     H63573   5.522   3.763   1.117 -0.6619 -0.7032  0.9857
  471MOL0     H63574   5.706   3.601   1.134 -1.0584 -0.4836  0.5437
  471MOL0     H63575   5.889   3.424   1.082 -1.4234  0.8578 -0.8759
  471MOL0     H63576   5.782   3.350   1.201  0.3899 -1.8024  0.1012
  471MOL0     H63577   5.959   3.196   1.133 -0.1602 -1.1637  0.4085
  471MOL0     H63578   5.912   3.221   0.963  0.6379  0.0461  1.3698
  471MOL0     H63579   5.711   3.069   1.004  1.7208 -0.3107 -2.3680
  471MOL0     H63580   5.744   3.064   1.181  4.2711 -2.0760  1.1674
  471MOL0     H63581   5.899   2.921   0.971  0.1650  4.1198 -1.1348
  471MOL0     H63582   5.791   2.871   1.096 -0.8889  1.1073 -2.4556
  471MOL0     H63583   6.166   2.933   1.296  1.3951  0.1894 -3.9785
  471MOL0     H63584   5.522   3.377   0.820  2.6785 -0.0019 -0.0673
  471MOL0     H63585   5.322   3.523   0.838 -2.4789 -0.1804  3.3018
  472MOL0     O63586   5.486   0.438   2.555  0.3523  0.1479 -0.2699
  472MOL0     C63587   5.548   0.368   2.477 -0.0168  1.0807  0.6135
  472MOL0     O63588   5.495   0.284   2.389  0.5306 -0.3413  0.0674
  472MOL0     C63589   5.367   0.245   2.393  0.6895  0.4092  0.4390
  472MOL0     C63590   5.320   0.163   2.292  0.9023  0.5822  0.3352
  472MOL0     C63591   5.193   0.112   2.283  0.2083 -0.8120  0.1613
  472MOL0     C63592   5.107   0.130   2.392  0.2039  0.3730  0.1066
  472MOL0     O63593   4.984   0.077   2.408 -0.0954 -0.5310 -1.0234
  472MOL0     C63594   4.974  -0.056   2.368 -0.4890 -0.5435 -0.8024
  472MOL0     C63595   4.831  -0.116   2.380 -0.1950 -0.1175 -0.9656
  472MOL0     C63596   4.756  -0.088   2.263 -0.1031  0.4247 -1.1726
  472MOL0     C63597   4.704   0.053   2.249  0.3816  0.1213  0.1201
  472MOL0     C63598   4.609   0.059   2.134 -0.3032  0.3309 -0.1698
  472MOL0     C63599   4.551   0.201   2.125 -0.0934 -0.7198 -0.2152
  472MOL0     C63600   4.461   0.202   2.003 -0.5003  0.2445 -0.2870
  472MOL0     C63601   4.454   0.335   1.925 -0.4208  0.5667 -0.9981
  472MOL0     N63602   4.390   0.448   2.005  0.3858  0.4138  0.0570
  472MOL0     C63603   4.306   0.435   2.110  0.0359 -0.6455 -0.8675
  472MOL0     C63604   4.291   0.564   2.153 -0.1534 -0.8537  0.2273
  472MOL0     C63605   4.204   0.611   2.265 -0.3676  0.7225 -0.2565
  472MOL0     C63606   4.059   0.640   2.207  0.5463  0.4398 -1.1783
  472MOL0     C63607   4.057   0.739   2.083 -0.2709  0.8678 -0.2200
  472MOL0     C63608   3.911   0.761   2.025 -0.9513 -0.8304  0.6812
  472MOL0     O63609   3.853   0.652   1.963 -0.4122  0.1516 -0.1069
  472MOL0     C63610   3.724   0.620   2.003 -0.3167  0.4100  0.4585
  472MOL0     C63611   3.624   0.634   1.910  0.7833 -0.0934 -0.0743
  472MOL0     C63612   3.493   0.604   1.950  0.3551 -0.1529  0.3871
  472MOL0     C63613   3.386   0.599   1.843  0.5810  0.0530  0.8215
  472MOL0     C63614   3.460   0.560   2.088  0.4426  1.1200 -0.4331
  472MOL0     C63615   3.321   0.541   2.136 -0.6346  0.1091  0.2178
  472MOL0     O63616   3.295   0.561   2.272  0.4879  0.4468 -0.1244
  472MOL0     C63617   3.187   0.491   2.331 -0.1063 -0.1820  0.8390
  472MOL0     C63618   3.122   0.560   2.439 -0.3803 -0.1186 -0.2317
  472MOL0     C63619   3.026   0.496   2.513 -0.9849  0.0031 -1.2787
  472MOL0     C63620   2.981   0.368   2.479  0.0266 -0.1881 -0.3728
  472MOL0     O63621   2.871   0.327   2.542  0.3468  0.7285 -0.2637
  472MOL0     C63622   2.836   0.185   2.561 -0.4004  0.4104 -0.2831
  472MOL0     C63623   2.725   0.183   2.669 -0.6450  0.5488 -0.0701
  472MOL0     C63624   2.606   0.274   2.637  1.0322 -0.4057 -0.0025
  472MOL0     C63625   2.537   0.344   2.752  0.5057  0.7110 -0.2887
  472MOL0     C63626   2.442   0.456   2.713 -0.7140  0.9644  0.6706
  472MOL0     C63627   2.347   0.495   2.829 -0.4833  0.4528  0.5781
  472MOL0     C63628   2.267   0.616   2.778 -0.2870  0.2898 -0.3942
  472MOL0     C63629   2.141   0.646   2.873  0.2001  0.4725  0.7003
  472MOL0    Cl63630   2.196   0.715   3.026  0.3854  0.2138  0.0657
  472MOL0     C63631   3.044   0.305   2.369  0.4913  0.0112  1.2100
  472MOL0     C63632   3.143   0.362   2.293  0.9440 -0.9190 -0.4902
  472MOL0     O63633   3.240   0.509   2.048 -0.1110  0.0322  0.1754
  472MOL0     C63634   3.571   0.554   2.174  0.9055  0.8155 -0.9729
  472MOL0     C63635   3.704   0.582   2.132  1.3253  0.5538  0.3675
  472MOL0     N63636   4.366   0.653   2.077 -0.2178  0.5718 -0.1891
  472MOL0     N63637   4.433   0.576   1.994  0.7026 -0.8098  0.0224
  472MOL0     C63638   5.145   0.217   2.494  0.2209  0.2514  0.0926
  472MOL0     C63639   5.276   0.268   2.495 -0.4577 -0.1931  0.1259
  472MOL0     C63640   5.695   0.374   2.473 -0.0587  0.5105  0.1862
  472MOL0     C63641   5.768   0.287   2.390 -0.5025 -0.7858 -0.6059
  472MOL0     C63642   5.906   0.285   2.386 -0.1090  1.2711  1.2592
  472MOL0     C63643   5.976   0.383   2.459  0.0434 -0.1961 -0.3182
  472MOL0     O63644   6.102   0.411   2.460  0.0029  0.6479 -0.2856
  472MOL0     C63645   6.188   0.324   2.385  0.5780 -0.2953  0.2868
  472MOL0     C63646   6.326   0.313   2.451 -0.4409 -1.2470  0.5288
  472MOL0     C63647   6.307   0.261   2.588 -0.2565 -0.3479 -0.1328
  472MOL0     C63648   6.425   0.191   2.647 -0.6861  0.4474  0.0421
  472MOL0     C63649   6.477   0.082   2.565  0.2254 -0.2648  0.8854
  472MOL0     C63650   6.514  -0.005   2.482  0.4069 -0.3998  0.2271
  472MOL0     C63651   5.898   0.475   2.535 -0.8182  0.3167  0.8916
  472MOL0     C63652   5.762   0.471   2.544  0.3558 -0.4706 -0.3823
  472MOL0     H63653   5.378   0.138   2.204  0.8445  0.9937  0.1783
  472MOL0     H63654   5.143   0.061   2.202 -5.0410  2.5985  0.8018
  472MOL0     H63655   5.005  -0.054   2.263  3.5023 -0.7797  0.2078
  472MOL0     H63656   5.049  -0.109   2.427  1.5721  2.3945 -0.5775
  472MOL0     H63657   4.844  -0.224   2.374  2.2930  0.2058 -4.0838
  472MOL0     H63658   4.775  -0.099   2.472  0.8722  1.1038 -0.5188
  472MOL0     H63659   4.822  -0.110   2.179  3.4233  2.0070  0.9673
  472MOL0     H63660   4.676  -0.162   2.273 -1.0580  1.4549 -0.9339
  472MOL0     H63661   4.639   0.072   2.335  0.2251 -1.5305  0.4145
  472MOL0     H63662   4.774   0.137   2.243 -0.8837  1.3701  1.8547
  472MOL0     H63663   4.661   0.042   2.039  1.4640  2.6720  0.2912
  472MOL0     H63664   4.526  -0.009   2.153 -0.5128  0.2296 -1.3826
  472MOL0     H63665   4.498   0.233   2.216 -2.1329  0.4169 -1.7060
  472MOL0     H63666   4.633   0.270   2.107 -1.6330  0.8510 -1.5909
  472MOL0     H63667   4.486   0.131   1.923  0.2103 -0.9680  0.9608
  472MOL0     H63668   4.362   0.175   2.042 -0.0227  0.2370  0.9454
  472MOL0     H63669   4.407   0.325   1.827  1.9388  3.6861 -2.6323
  472MOL0     H63670   4.553   0.376   1.902  0.1961  1.3109  2.4159
  472MOL0     H63671   4.273   0.339   2.147  2.2910 -2.2306 -2.6726
  472MOL0     H63672   4.193   0.538   2.345 -1.0216  1.2963  0.1939
  472MOL0     H63673   4.249   0.705   2.297  0.7695  1.4175 -3.5030
  472MOL0     H63674   3.994   0.676   2.288 -0.0589 -2.0644 -0.4855
  472MOL0     H63675   4.017   0.543   2.181  1.6656 -0.3857  0.0208
  472MOL0     H63676   4.115   0.687   2.005 -1.4156 -2.9323  1.2550
  472MOL0     H63677   4.110   0.832   2.103  1.1023  0.2428 -0.7377
  472MOL0     H63678   3.918   0.842   1.951  0.7402  0.5267  2.1996
  472MOL0     H63679   3.858   0.798   2.114  0.9501  3.7732  0.2230
  472MOL0     H63680   3.648   0.665   1.809  0.5690  0.4067  0.0235
  472MOL0     H63681   3.293   0.654   1.865 -0.8951 -1.3230 -1.5321
  472MOL0     H63682   3.426   0.624   1.744 -0.9360 -0.9235 -0.0704
  472MOL0     H63683   3.344   0.500   1.824 -1.6397  0.9696  0.5257
  472MOL0     H63684   3.155   0.658   2.473  0.8680 -0.4698 -0.3768
  472MOL0     H63685   2.984   0.562   2.588 -0.6431 -1.4070  0.2005
  472MOL0     H63686   2.804   0.137   2.469  1.2066  0.2892 -0.8063
  472MOL0     H63687   2.922   0.125   2.593  0.9134  2.4268  0.1857
  472MOL0     H63688   2.694   0.079   2.663  4.6616 -1.2533 -2.9809
  472MOL0     H63689   2.767   0.204   2.768 -0.1735  0.2384 -0.2008
  472MOL0     H63690   2.535   0.203   2.593 -0.7426  0.5019  1.3000
  472MOL0     H63691   2.633   0.345   2.559 -1.7812 -0.9032 -1.5709
  472MOL0     H63692   2.474   0.276   2.809 -0.6207  0.6800 -1.5323
  472MOL0     H63693   2.610   0.382   2.823 -0.2907 -1.4243  1.8144
  472MOL0     H63694   2.382   0.405   2.637  2.7115 -2.6969  0.1246
  472MOL0     H63695   2.503   0.538   2.675  0.3045 -0.7652 -1.6249
  472MOL0     H63696   2.274   0.415   2.843 -0.8489  0.0693 -2.8209
  472MOL0     H63697   2.412   0.520   2.914  0.5832  0.2901 -0.1719
  472MOL0     H63698   2.218   0.578   2.688  1.1692  0.0767 -1.1296
  472MOL0     H63699   2.329   0.703   2.756 -0.4987  0.7415  0.7493
  472MOL0     H63700   2.083   0.555   2.889 -1.8608  1.7984  1.2058
  472MOL0     H63701   2.082   0.720   2.817 -0.0626  0.6205  1.1672
  472MOL0     H63702   2.997   0.209   2.346 -0.1892  0.4549  0.7301
  472MOL0     H63703   3.179   0.308   2.207 -0.1302 -2.5760  0.0368
  472MOL0     H63704   3.545   0.515   2.272  0.1204  0.1534 -1.4304
  472MOL0     H63705   3.792   0.578   2.196  1.2666 -1.7844  0.3689
  472MOL0     H63706   5.083   0.228   2.582 -1.5115 -4.5163 -0.2403
  472MOL0     H63707   5.301   0.328   2.582  0.4920  0.4478 -0.5696
  472MOL0     H63708   5.728   0.212   2.322  3.9833 -0.2323 -4.4639
  472MOL0     H63709   5.945   0.202   2.329 -2.4593  1.7574 -1.2772
  472MOL0     H63710   6.141   0.225   2.379 -3.0925  1.3531 -4.3580
  472MOL0     H63711   6.206   0.354   2.281 -0.1148 -2.7523 -0.6143
  472MOL0     H63712   6.369   0.413   2.447  0.4580 -1.6479 -0.3216
  472MOL0     H63713   6.395   0.245   2.399 -0.8756 -2.7609  1.8591
  472MOL0     H63714   6.228   0.186   2.588  2.2718 -3.2426 -1.9603
  472MOL0     H63715   6.287   0.348   2.652 -2.6893  1.5892 -3.2350
  472MOL0     H63716   6.393   0.141   2.739 -2.8009 -1.4174 -1.6164
  472MOL0     H63717   6.500   0.265   2.675  1.5317 -1.5282 -0.3732
  472MOL0     H63718   6.550  -0.069   2.403  0.0315  0.4884 -0.6960
  472MOL0     H63719   5.952   0.546   2.597  2.9519 -1.2416 -0.3473
  472MOL0     H63720   5.719   0.541   2.615  1.9624 -1.2359  1.4252
  473MOL0     O63721   5.268   7.506   8.379  0.6780 -0.0764  0.2493
  473MOL0     C63722   5.386   7.479   8.406  0.1306 -0.5885  0.5583
  473MOL0     O63723   5.470   7.418   8.326 -0.0232  0.3878  0.3063
  473MOL0     C63724   5.416   7.353   8.222  0.3441 -0.4923 -0.1443
  473MOL0     C63725   5.375   7.407   8.094 -0.3474 -0.6629 -0.8399
  473MOL0     C63726   5.345   7.319   7.997 -0.1598  1.2009 -0.5609
  473MOL0     C63727   5.350   7.184   8.008 -0.5793 -0.0891 -0.4898
  473MOL0     O63728   5.334   7.114   7.894  0.4096  0.0864  0.5303
  473MOL0     C63729   5.279   6.984   7.912 -0.6991 -0.3075 -0.2626
  473MOL0     C63730   5.233   6.923   7.789 -0.6085 -0.5041 -0.0493
  473MOL0     C63731   5.348   6.908   7.681 -0.4886  0.2655 -0.0662
  473MOL0     C63732   5.431   6.797   7.729  1.5441 -0.1033 -0.2182
  473MOL0     C63733   5.521   6.748   7.623  0.0680  0.4070 -0.3296
  473MOL0     C63734   5.608   6.633   7.670  0.4452 -0.2366  0.8835
  473MOL0     C63735   5.718   6.608   7.568  0.2108 -0.2038  0.1273
  473MOL0     C63736   5.787   6.474   7.612  0.3676  0.4983  0.5307
  473MOL0     N63737   5.895   6.440   7.522 -0.2081 -0.1039  0.3769
  473MOL0     C63738   6.022   6.496   7.531  0.8398  0.4244 -0.0038
  473MOL0     C63739   6.096   6.448   7.429 -0.2338  1.0846  0.1008
  473MOL0     C63740   6.246   6.477   7.391  0.4117 -0.4913  0.6149
  473MOL0     C63741   6.270   6.619   7.341 -0.0790 -0.1906 -0.6755
  473MOL0     C63742   6.218   6.662   7.201  0.2243 -0.4683 -0.3565
  473MOL0     C63743   6.068   6.659   7.187 -0.1431  0.3722  0.5344
  473MOL0     O63744   6.040   6.741   7.075 -0.2210 -1.2466  0.4976
  473MOL0     C63745   5.919   6.764   7.010  0.1274  0.2621 -0.3620
  473MOL0     C63746   5.824   6.662   6.982 -1.5875 -0.1085  0.9899
  473MOL0     C63747   5.714   6.694   6.906 -0.3328 -0.4513  0.1731
  473MOL0     C63748   5.618   6.579   6.894 -0.1871 -0.5962  0.4529
  473MOL0     C63749   5.682   6.826   6.855  0.2504  0.5215 -0.0288
  473MOL0     C63750   5.565   6.866   6.775  0.6448  1.1167 -0.1211
  473MOL0     O63751   5.458   6.789   6.796  0.7035  0.7027 -0.1405
  473MOL0     C63752   5.330   6.811   6.737 -0.3803 -0.7436 -0.0444
  473MOL0     C63753   5.256   6.931   6.730  0.4228 -1.3447 -0.9897
  473MOL0     C63754   5.124   6.932   6.677  0.7974  0.1429 -0.7105
  473MOL0     C63755   5.064   6.818   6.632  0.4699  0.6351 -1.5410
  473MOL0     O63756   4.930   6.828   6.587 -1.3973  0.7464  0.3075
  473MOL0     C63757   4.831   6.882   6.671 -0.0840 -0.6775 -0.2587
  473MOL0     C63758   4.695   6.853   6.606 -0.3805  0.2604 -0.3777
  473MOL0     C63759   4.571   6.887   6.690  0.2741  0.5974 -0.0352
  473MOL0     C63760   4.566   7.036   6.711 -0.3854 -0.4621 -0.1674
  473MOL0     C63761   4.433   7.094   6.762 -0.2932  1.0712  0.4793
  473MOL0     C63762   4.425   7.247   6.762 -0.1788 -0.1068 -0.5700
  473MOL0     C63763   4.301   7.315   6.834 -0.9898  0.7565  0.2531
  473MOL0     C63764   4.221   7.408   6.749 -0.6086  0.9992  0.7956
  473MOL0    Cl63765   4.078   7.462   6.855 -0.7636 -0.2859 -0.1430
  473MOL0     C63766   5.133   6.700   6.627 -0.8817  0.5640 -0.3929
  473MOL0     C63767   5.263   6.697   6.683  0.3000  0.0056 -0.3762
  473MOL0     O63768   5.562   6.972   6.710  0.0983  0.3394  0.3995
  473MOL0     C63769   5.781   6.919   6.891  0.5187 -0.2013  0.7209
  473MOL0     C63770   5.893   6.888   6.967 -0.2858 -0.3613 -0.3123
  473MOL0     N63771   6.007   6.375   7.348 -0.2217 -0.7329  0.2445
  473MOL0     N63772   5.885   6.384   7.401 -1.0489 -0.4185 -0.0521
  473MOL0     C63773   5.383   7.129   8.139  0.3532  0.7425  0.0390
  473MOL0     C63774   5.424   7.211   8.239  0.2421 -0.3366 -0.3905
  473MOL0     C63775   5.424   7.502   8.555 -0.1284  0.7293 -0.2877
  473MOL0     C63776   5.322   7.508   8.653 -0.2738  0.2540  0.9536
  473MOL0     C63777   5.354   7.514   8.786 -1.1587 -0.1050  0.7153
  473MOL0     C63778   5.489   7.514   8.831 -0.2225 -0.1164 -0.9355
  473MOL0     O63779   5.527   7.514   8.964  0.0039 -0.4698  0.1564
  473MOL0     C63780   5.418   7.537   9.062 -0.2378  0.5075  0.6582
  473MOL0     C63781   5.477   7.574   9.208 -0.4639 -1.1012 -0.1582
  473MOL0     C63782   5.554   7.713   9.211 -0.0809 -1.1511  0.0306
  473MOL0     C63783   5.448   7.831   9.217  0.6155  0.1073 -0.3719
  473MOL0     C63784   5.379   7.847   9.347  0.0719 -0.5863 -0.1290
  473MOL0     C63785   5.315   7.854   9.453 -0.0881 -0.3047 -0.0629
  473MOL0     C63786   5.590   7.531   8.731  0.8470  0.9170 -0.2741
  473MOL0     C63787   5.561   7.525   8.597  0.5248 -0.4402  0.1160
  473MOL0     H63788   5.379   7.514   8.080 -0.1542 -0.1411  2.4674
  473MOL0     H63789   5.313   7.367   7.904 -1.1860  4.5986  1.3615
  473MOL0     H63790   5.354   6.925   7.965  0.7752 -0.3906 -2.3531
  473MOL0     H63791   5.197   6.986   7.984 -1.3425  0.3609 -0.9982
  473MOL0     H63792   5.188   6.824   7.802 -1.1632 -0.1062  1.1752
  473MOL0     H63793   5.151   6.991   7.766 -0.6854  0.8560  3.6706
  473MOL0     H63794   5.301   6.888   7.585 -1.6347 -1.6642  0.8279
  473MOL0     H63795   5.420   6.991   7.682 -0.0451 -0.1109  0.8175
  473MOL0     H63796   5.496   6.820   7.814 -0.4857 -0.1260  1.4055
  473MOL0     H63797   5.373   6.709   7.757 -1.4380  2.3171  1.7475
  473MOL0     H63798   5.460   6.727   7.534 -0.1536  0.4403 -0.1844
  473MOL0     H63799   5.591   6.828   7.596 -0.5022  0.6466 -1.1563
  473MOL0     H63800   5.650   6.646   7.770 -0.5031 -2.3884  1.6239
  473MOL0     H63801   5.547   6.542   7.668 -3.0074  1.8659  1.9211
  473MOL0     H63802   5.683   6.596   7.465  1.2406 -2.2987 -0.0254
  473MOL0     H63803   5.782   6.697   7.558  0.1338  0.1271  2.1554
  473MOL0     H63804   5.710   6.397   7.606 -0.0089  0.8319  0.9690
  473MOL0     H63805   5.815   6.491   7.717  1.3450  0.7689  0.2352
  473MOL0     H63806   6.053   6.553   7.618 -1.5222  0.1130  1.1244
  473MOL0     H63807   6.317   6.463   7.473 -1.2058 -2.2031  1.8194
  473MOL0     H63808   6.259   6.401   7.313  2.0471  0.8814 -0.4942
  473MOL0     H63809   6.376   6.648   7.339  0.2846 -1.4523 -0.8027
  473MOL0     H63810   6.226   6.694   7.406  1.4271  0.4795 -0.3757
  473MOL0     H63811   6.255   6.599   7.120  2.3821 -1.4770  1.3031
  473MOL0     H63812   6.251   6.764   7.180 -1.0094 -0.0926 -0.5767
  473MOL0     H63813   6.023   6.702   7.277  1.4744  2.5560  0.3794
  473MOL0     H63814   6.032   6.558   7.166  1.3007  0.5334 -3.4269
  473MOL0     H63815   5.852   6.562   7.014 -3.8638 -0.9307  0.6168
  473MOL0     H63816   5.518   6.598   6.934 -0.7516 -1.3501 -0.5244
  473MOL0     H63817   5.611   6.550   6.789  1.5941  0.9910 -0.1611
  473MOL0     H63818   5.670   6.503   6.953  4.6636  1.6142 -0.5023
  473MOL0     H63819   5.296   7.021   6.777 -0.3676 -2.2004  1.5330
  473MOL0     H63820   5.082   7.032   6.675  1.7496  0.5498 -2.6482
  473MOL0     H63821   4.834   6.847   6.775  2.2872  2.8748  1.0557
  473MOL0     H63822   4.834   6.991   6.676 -1.3824 -0.6588  0.5411
  473MOL0     H63823   4.696   6.918   6.519 -0.0219 -0.0349 -0.5992
  473MOL0     H63824   4.698   6.747   6.578  1.6315 -0.3730  1.8548
  473MOL0     H63825   4.578   6.828   6.781 -1.9629  0.0694 -0.1546
  473MOL0     H63826   4.479   6.863   6.635 -1.1685  0.1383  2.4516
  473MOL0     H63827   4.645   7.073   6.777  0.7015  2.4956 -2.8953
  473MOL0     H63828   4.591   7.083   6.616 -0.2267  0.8324  0.4933
  473MOL0     H63829   4.413   7.060   6.864 -1.7838  2.6884  0.7842
  473MOL0     H63830   4.350   7.057   6.702 -0.2512 -1.5982  1.9253
  473MOL0     H63831   4.516   7.283   6.811 -0.9730 -1.5459  2.1753
  473MOL0     H63832   4.428   7.271   6.656  0.7506 -2.0791 -1.0311
  473MOL0     H63833   4.334   7.378   6.917  1.3135 -0.0959  0.0774
  473MOL0     H63834   4.239   7.232   6.870  0.4585 -0.2018  0.6554
  473MOL0     H63835   4.180   7.354   6.664  1.4873 -1.9143  1.4561
  473MOL0     H63836   4.282   7.491   6.712  0.3166 -0.3013 -0.7176
  473MOL0     H63837   5.093   6.604   6.598 -1.9179  0.5314  1.0066
  473MOL0     H63838   5.311   6.600   6.681  0.1098 -0.0789 -1.0371
  473MOL0     H63839   5.761   7.017   6.850  0.0527 -0.5334  0.1372
  473MOL0     H63840   5.967   6.965   6.987  0.1910 -0.7964 -0.3766
  473MOL0     H63841   5.380   7.024   8.167  3.4146  0.3879 -0.5880
  473MOL0     H63842   5.472   7.174   8.329  0.4822 -1.2216 -0.8746
  473MOL0     H63843   5.218   7.497   8.625 -0.9346  2.4542  2.3118
  473MOL0     H63844   5.272   7.513   8.858  0.3522 -2.5075  2.5644
  473MOL0     H63845   5.357   7.620   9.025 -2.1463 -0.8451  0.6349
  473MOL0     H63846   5.364   7.442   9.060  2.4070 -1.2273  3.2426
  473MOL0     H63847   5.553   7.497   9.225 -1.2025 -1.5445  1.2499
  473MOL0     H63848   5.397   7.571   9.283 -1.1587  1.8304 -0.6397
  473MOL0     H63849   5.615   7.720   9.120 -2.2015  0.4842 -1.3515
  473MOL0     H63850   5.613   7.723   9.303 -1.4974 -1.5946  1.0222
  473MOL0     H63851   5.378   7.821   9.134 -1.0405  3.2508  0.4837
  473MOL0     H63852   5.493   7.929   9.197 -1.8563  1.2034 -0.9514
  473MOL0     H63853   5.270   7.856   9.550  3.2478  0.5091  1.6402
  473MOL0     H63854   5.695   7.549   8.753  1.0291 -0.3850 -0.0109
  473MOL0     H63855   5.641   7.516   8.524  0.4707 -2.1656  0.2427
  474MOL0     O63856   0.596   9.789   6.658 -0.4454  0.4925 -0.2187
  474MOL0     C63857   0.567   9.809   6.541 -0.3736  0.2799  0.3501
  474MOL0     O63858   0.447   9.770   6.479 -0.3731  0.4983  0.1782
  474MOL0     C63859   0.363   9.701   6.564 -0.5955  0.9148  0.2657
  474MOL0     C63860   0.271   9.766   6.643 -0.6114 -0.0607 -1.0303
  474MOL0     C63861   0.174   9.687   6.717  0.1715 -0.3592 -0.0638
  474MOL0     C63862   0.159   9.549   6.700  0.0799 -0.0917 -0.1120
  474MOL0     O63863   0.063   9.466   6.760  0.3321  0.3386  0.4568
  474MOL0     C63864  -0.034   9.537   6.847 -1.0159 -0.3222 -0.1260
  474MOL0     C63865  -0.119   9.434   6.909  0.3588  0.2187  0.4488
  474MOL0     C63866  -0.222   9.379   6.812 -0.2052 -0.0907  0.8001
  474MOL0     C63867  -0.350   9.308   6.878  0.3524 -0.2874 -0.0769
  474MOL0     C63868  -0.413   9.212   6.780  0.9255  0.2760 -0.6249
  474MOL0     C63869  -0.549   9.143   6.805 -0.7549  0.7291 -0.2658
  474MOL0     C63870  -0.667   9.235   6.796 -0.6043 -0.7763  0.7003
  474MOL0     C63871  -0.789   9.175   6.867  0.0982  0.7249 -0.2677
  474MOL0     N63872  -0.843   9.067   6.793  0.1195 -0.2886  0.3320
  474MOL0     C63873  -0.796   8.940   6.780  0.5624  1.0517 -0.2239
  474MOL0     C63874  -0.887   8.888   6.696 -0.2858 -0.4337 -0.2248
  474MOL0     C63875  -0.884   8.742   6.654  0.3288 -0.8009 -0.0242
  474MOL0     C63876  -0.848   8.720   6.505 -0.4859 -0.0263  0.0273
  474MOL0     C63877  -0.899   8.579   6.463 -0.3430  0.3302  0.2337
  474MOL0     C63878  -0.840   8.529   6.334 -1.3630  1.3742 -0.1226
  474MOL0     O63879  -0.834   8.381   6.340 -0.1629  0.5506 -0.2626
  474MOL0     C63880  -0.954   8.322   6.340  0.2581 -0.5061 -1.2622
  474MOL0     C63881  -0.964   8.209   6.423 -0.4554  0.3688 -0.2394
  474MOL0     C63882  -1.080   8.143   6.449 -0.3223  0.3346  0.6339
  474MOL0     C63883  -1.088   8.036   6.546  0.1725  0.3838 -0.0139
  474MOL0     C63884  -1.199   8.184   6.373 -0.2856 -0.0727  0.0303
  474MOL0     C63885  -1.326   8.118   6.386  0.3750 -0.1861  0.2717
  474MOL0     O63886  -1.366   8.085   6.511 -0.5942 -0.4775 -0.3139
  474MOL0     C63887  -1.478   8.007   6.535 -1.1686  0.7717 -0.3499
  474MOL0     C63888  -1.490   7.878   6.471  0.0940  0.3800 -0.1067
  474MOL0     C63889  -1.599   7.804   6.477  0.3233  0.0481 -0.2628
  474MOL0     C63890  -1.699   7.835   6.567 -1.1505 -0.0015 -0.7583
  474MOL0     O63891  -1.811   7.758   6.607  0.2189  0.1362 -0.2836
  474MOL0     C63892  -1.859   7.655   6.521  1.3839 -0.2597 -0.7541
  474MOL0     C63893  -1.771   7.525   6.515  0.6681 -0.8209  0.1733
  474MOL0     C63894  -1.794   7.445   6.647 -0.1933  0.3679 -0.1378
  474MOL0     C63895  -1.853   7.310   6.611  0.4876 -0.1013  0.0446
  474MOL0     C63896  -1.843   7.200   6.728 -0.4793 -0.2245  0.5002
  474MOL0     C63897  -1.843   7.056   6.670 -0.4615 -0.0486 -1.0701
  474MOL0     C63898  -1.808   6.953   6.782 -0.4116 -0.9188  0.6304
  474MOL0     C63899  -1.901   6.837   6.786  0.2609 -0.4757 -0.0393
  474MOL0    Cl63900  -2.071   6.888   6.838 -0.3792 -0.2466  0.3935
  474MOL0     C63901  -1.682   7.955   6.636 -0.6141 -0.0570 -0.3390
  474MOL0     C63902  -1.573   8.045   6.628 -0.3368  1.6061 -0.0138
  474MOL0     O63903  -1.401   8.120   6.293  0.1333  0.1725 -0.2209
  474MOL0     C63904  -1.182   8.295   6.276 -0.3534 -0.1980 -0.0782
  474MOL0     C63905  -1.063   8.365   6.264 -0.7427 -0.1608 -0.7434
  474MOL0     N63906  -0.977   8.979   6.655  0.5971 -0.0258  0.3434
  474MOL0     N63907  -0.951   9.093   6.725 -0.2826 -1.5812 -0.0946
  474MOL0     C63908   0.262   9.491   6.619 -0.2648  0.5678 -0.2134
  474MOL0     C63909   0.364   9.562   6.550 -0.4785  0.9261 -0.1856
  474MOL0     C63910   0.656   9.881   6.446 -0.3687 -0.3280 -0.6427
  474MOL0     C63911   0.798   9.880   6.463 -0.3481 -0.0494 -0.2003
  474MOL0     C63912   0.884   9.938   6.364  0.7381 -0.4408  0.2177
  474MOL0     C63913   0.828  10.005   6.250  0.2524 -0.0576  0.5149
  474MOL0     O63914   0.910  10.054   6.148  0.2942  0.1556  0.1697
  474MOL0     C63915   0.875  10.009   6.015  0.4391 -0.8477 -0.3750
  474MOL0     C63916   0.993  10.015   5.912  0.1254  0.1348  0.1512
  474MOL0     C63917   1.037  10.165   5.895 -0.0970 -0.4407  0.3490
  474MOL0     C63918   1.124  10.194   5.766 -0.3675 -0.3196  0.2884
  474MOL0     C63919   1.131  10.335   5.755  0.2974 -1.0854 -0.0915
  474MOL0     C63920   1.142  10.454   5.738  0.1291 -0.7585  0.5733
  474MOL0     C63921   0.684  10.006   6.234 -0.6330 -0.8777 -0.8418
  474MOL0     C63922   0.605   9.939   6.330  0.2002  0.1034 -0.4682
  474MOL0     H63923   0.247   9.871   6.654  0.9846  0.3080 -0.7861
  474MOL0     H63924   0.118   9.741   6.792  0.6455  1.8201 -1.1872
  474MOL0     H63925   0.039   9.571   6.922 -0.6447  0.4801 -0.8399
  474MOL0     H63926  -0.083   9.623   6.801  0.9468  1.7890  1.4398
  474MOL0     H63927  -0.047   9.364   6.954  0.0933 -0.9293 -0.8469
  474MOL0     H63928  -0.174   9.483   6.990 -3.4427 -3.2247  0.2416
  474MOL0     H63929  -0.262   9.471   6.768 -2.1374 -1.4039 -0.3695
  474MOL0     H63930  -0.187   9.311   6.734 -1.5911  0.8125 -0.6606
  474MOL0     H63931  -0.318   9.251   6.966  3.0154  0.0838 -0.7278
  474MOL0     H63932  -0.421   9.382   6.916 -1.4173 -0.8835 -2.0036
  474MOL0     H63933  -0.430   9.276   6.693 -0.7372 -0.6322 -1.0145
  474MOL0     H63934  -0.347   9.139   6.733  2.3774  2.5395 -2.3112
  474MOL0     H63935  -0.567   9.056   6.741 -3.1700 -2.0556  3.7132
  474MOL0     H63936  -0.534   9.107   6.907  1.2757  4.2258  0.8480
  474MOL0     H63937  -0.643   9.328   6.847 -2.2559  2.2432 -3.4439
  474MOL0     H63938  -0.697   9.258   6.693 -0.8759  1.6320  1.2819
  474MOL0     H63939  -0.866   9.253   6.869  0.8313  1.4613 -0.3584
  474MOL0     H63940  -0.758   9.140   6.966  1.3091  2.2924 -0.0334
  474MOL0     H63941  -0.711   8.889   6.824 -1.0595  1.2804  3.5531
  474MOL0     H63942  -0.821   8.683   6.720  0.0683 -1.1785 -0.1086
  474MOL0     H63943  -0.987   8.703   6.658  0.4231 -1.3224 -1.5971
  474MOL0     H63944  -0.739   8.726   6.499 -0.2397 -1.5874  1.8060
  474MOL0     H63945  -0.877   8.806   6.444  2.0868 -0.8620 -2.6400
  474MOL0     H63946  -1.008   8.581   6.452 -0.4432  2.6285  1.1041
  474MOL0     H63947  -0.875   8.509   6.543  3.6155 -0.9505 -1.8341
  474MOL0     H63948  -0.734   8.553   6.319 -1.3550  0.2018 -2.5034
  474MOL0     H63949  -0.892   8.577   6.251  0.0122 -0.0020 -1.8604
  474MOL0     H63950  -0.867   8.190   6.466  0.0362  1.2830 -0.8929
  474MOL0     H63951  -1.148   8.050   6.637  1.7493  0.2656  1.0780
  474MOL0     H63952  -1.113   7.944   6.494 -1.6893 -0.7303  2.6231
  474MOL0     H63953  -0.989   8.017   6.589 -1.1967 -2.1300  2.3252
  474MOL0     H63954  -1.405   7.833   6.421  1.4374 -1.0814  3.2053
  474MOL0     H63955  -1.607   7.712   6.419 -0.0733 -0.6341  0.8390
  474MOL0     H63956  -1.959   7.623   6.552  1.3678 -2.0758 -2.4211
  474MOL0     H63957  -1.872   7.695   6.420  0.9724  0.6802 -0.3424
  474MOL0     H63958  -1.812   7.464   6.434 -0.6276 -2.8671  2.2492
  474MOL0     H63959  -1.665   7.548   6.500  0.3105  1.5728  0.8947
  474MOL0     H63960  -1.849   7.501   6.723  1.1493  1.0497  0.3620
  474MOL0     H63961  -1.699   7.429   6.698  1.0896 -3.5365 -3.2717
  474MOL0     H63962  -1.953   7.321   6.569  1.2924  3.4699 -1.2673
  474MOL0     H63963  -1.810   7.277   6.516  0.0991  0.0867 -0.1955
  474MOL0     H63964  -1.934   7.198   6.789  0.0142  1.2663  1.3269
  474MOL0     H63965  -1.761   7.215   6.799 -0.3542  0.7962  0.1504
  474MOL0     H63966  -1.932   7.021   6.617 -0.6889  2.8059 -2.7773
  474MOL0     H63967  -1.760   7.052   6.599  0.0110 -2.5985 -0.4836
  474MOL0     H63968  -1.795   7.009   6.875  0.8074  1.9743 -1.1243
  474MOL0     H63969  -1.712   6.912   6.748 -0.8794 -3.7209  2.3596
  474MOL0     H63970  -1.872   6.761   6.859  0.4911  0.9681  1.4408
  474MOL0     H63971  -1.894   6.789   6.688  2.8385  0.7946 -0.5606
  474MOL0     H63972  -1.769   7.987   6.692 -0.3041  2.1597 -1.0161
  474MOL0     H63973  -1.548   8.130   6.690 -1.8943  2.5634 -0.6338
  474MOL0     H63974  -1.268   8.312   6.211 -0.7632 -2.3268 -0.1813
  474MOL0     H63975  -1.050   8.448   6.195  0.6039  0.0825 -0.2234
  474MOL0     H63976   0.242   9.384   6.617 -1.2635  0.7409 -0.2517
  474MOL0     H63977   0.446   9.524   6.490 -0.7327  1.4482 -0.8667
  474MOL0     H63978   0.838   9.830   6.551 -3.3292 -0.5950  0.9731
  474MOL0     H63979   0.992   9.925   6.366  0.7427 -0.3483  1.3222
  474MOL0     H63980   0.842   9.905   6.027 -1.0183 -0.1744  2.1605
  474MOL0     H63981   0.802  10.080   5.977  2.5661  0.4003 -2.3805
  474MOL0     H63982   0.971   9.978   5.811  3.5969  0.4310 -0.8368
  474MOL0     H63983   1.080   9.957   5.943  3.3553  2.5316 -3.5833
  474MOL0     H63984   1.088  10.199   5.985  0.4212 -0.3126  0.0157
  474MOL0     H63985   0.947  10.224   5.876 -0.8023 -0.6269  2.7531
  474MOL0     H63986   1.079  10.145   5.680 -1.2208  1.1632 -0.1418
  474MOL0     H63987   1.225  10.152   5.772  0.6104  1.7825 -0.6312
  474MOL0     H63988   1.149  10.557   5.710  0.7602 -0.3919  1.9604
  474MOL0     H63989   0.626  10.061   6.161 -1.4758 -0.1891  0.3051
  474MOL0     H63990   0.497   9.952   6.330 -0.2738 -3.0087  1.2920
  475MOL0     O63991   1.110  11.408   2.416 -0.4723  0.1649 -0.0932
  475MOL0     C63992   1.138  11.304   2.480 -0.4462  0.6551  0.2936
  475MOL0     O63993   1.242  11.289   2.569  0.1986 -0.1108 -0.3630
  475MOL0     C63994   1.352  11.369   2.568  0.6535 -0.5252 -0.5391
  475MOL0     C63995   1.381  11.461   2.472  0.0093 -0.9410 -0.0668
  475MOL0     C63996   1.496  11.544   2.475 -0.7960  0.5349 -0.1447
  475MOL0     C63997   1.588  11.529   2.581 -0.1393  0.4033  0.4147
  475MOL0     O63998   1.704  11.590   2.576 -0.8718 -0.8841  1.0019
  475MOL0     C63999   1.701  11.738   2.588  0.7298  0.2807 -0.8372
  475MOL0     C64000   1.838  11.774   2.549  0.3845 -0.3250  0.6741
  475MOL0     C64001   1.954  11.727   2.641 -0.5866  0.8255 -0.4266
  475MOL0     C64002   2.093  11.734   2.568  0.9866  0.0022 -0.1566
  475MOL0     C64003   2.118  11.860   2.489 -1.2074 -0.4155  0.3494
  475MOL0     C64004   2.072  11.865   2.340  0.2116  0.1715  0.0403
  475MOL0     C64005   2.132  12.007   2.298 -0.0290 -0.2575 -1.0198
  475MOL0     C64006   2.070  12.067   2.173 -0.5936  0.3271  0.1447
  475MOL0     N64007   2.110  11.964   2.072  0.1255  0.4092 -0.4480
  475MOL0     C64008   2.241  11.948   2.034  0.0092 -0.2347 -0.0262
  475MOL0     C64009   2.227  11.846   1.947 -0.3224 -0.3228  0.1112
  475MOL0     C64010   2.334  11.775   1.880 -0.7738 -0.5370  1.3872
  475MOL0     C64011   2.351  11.826   1.735 -0.4421  0.2939  0.3801
  475MOL0     C64012   2.441  11.733   1.654 -0.2684  0.8895  0.2708
  475MOL0     C64013   2.375  11.604   1.610 -0.2989 -0.4194  0.5349
  475MOL0     O64014   2.471  11.503   1.610 -0.1693  0.7251  1.1484
  475MOL0     C64015   2.585  11.494   1.519 -0.2450  0.3046  0.9103
  475MOL0     C64016   2.611  11.593   1.428 -0.2460 -0.1260  0.6430
  475MOL0     C64017   2.717  11.584   1.343  0.0682  0.0102  0.3112
  475MOL0     C64018   2.735  11.706   1.252  0.8859 -1.0094 -0.7234
  475MOL0     C64019   2.804  11.470   1.352  0.2727  0.3114  0.6553
  475MOL0     C64020   2.924  11.462   1.262 -0.6371 -0.1269 -0.1915
  475MOL0     O64021   3.016  11.366   1.305 -1.3541  0.4742  1.3699
  475MOL0     C64022   3.148  11.367   1.264 -0.8571 -0.0114  0.7943
  475MOL0     C64023   3.193  11.279   1.159 -0.4648  0.7894 -0.1704
  475MOL0     C64024   3.326  11.290   1.111  0.0662 -0.3054 -0.6363
  475MOL0     C64025   3.412  11.383   1.164  0.1910  0.8579  0.0187
  475MOL0     O64026   3.534  11.389   1.109  0.1107 -0.8909 -0.0203
  475MOL0     C64027   3.610  11.508   1.112  0.1540 -1.1349  0.2533
  475MOL0     C64028   3.757  11.473   1.100  0.3862 -0.5299 -0.1777
  475MOL0     C64029   3.820  11.450   1.247  0.2193 -0.0030  0.2490
  475MOL0     C64030   3.884  11.574   1.301  0.2976  0.2035  0.4128
  475MOL0     C64031   3.957  11.560   1.434  0.7792  0.6283 -0.0899
  475MOL0     C64032   4.017  11.685   1.477 -0.0888  0.4624  0.1407
  475MOL0     C64033   4.104  11.676   1.607 -0.3269 -0.9038 -0.2255
  475MOL0     C64034   4.239  11.616   1.586  0.0023  1.0697 -0.4594
  475MOL0    Cl64035   4.343  11.733   1.508  0.2947 -0.0235  0.3150
  475MOL0     C64036   3.373  11.457   1.282 -0.6015  0.2697 -0.6787
  475MOL0     C64037   3.241  11.454   1.328 -0.5226  0.1451 -0.1009
  475MOL0     O64038   2.934  11.512   1.150  0.2529 -0.1739  0.1266
  475MOL0     C64039   2.775  11.368   1.437 -0.2401  0.1609  0.0806
  475MOL0     C64040   2.666  11.382   1.520 -0.1117 -0.7120  0.0611
  475MOL0     N64041   2.092  11.815   1.925  0.6163  0.2615 -0.1430
  475MOL0     N64042   2.018  11.886   2.002 -0.0295  0.9697 -0.3716
  475MOL0     C64043   1.553  11.448   2.687  0.0973 -0.7695 -0.6624
  475MOL0     C64044   1.438  11.378   2.681 -0.2258  0.5363 -1.1719
  475MOL0     C64045   1.037  11.196   2.479 -0.1762 -1.0439  0.1832
  475MOL0     C64046   1.071  11.074   2.550  0.3945  0.0361  0.5148
  475MOL0     C64047   0.982  10.969   2.561 -0.0214  0.3307  0.1366
  475MOL0     C64048   0.848  10.990   2.514 -0.5979  0.3592  0.1460
  475MOL0     O64049   0.746  10.904   2.522 -0.3076  0.0122 -0.0736
  475MOL0     C64050   0.751  10.805   2.627 -0.4788 -0.8312  0.4917
  475MOL0     C64051   0.614  10.758   2.666  0.5244 -0.2573 -0.0823
  475MOL0     C64052   0.514  10.863   2.731  0.0160 -0.8886  0.7131
  475MOL0     C64053   0.401  10.917   2.628 -0.4801  0.3104 -1.3279
  475MOL0     C64054   0.305  11.009   2.699  0.2761 -0.1929  0.8886
  475MOL0     C64055   0.218  11.079   2.750  0.0348 -0.4184  0.0552
  475MOL0     C64056   0.816  11.116   2.459 -0.2122  0.7040  0.3892
  475MOL0     C64057   0.913  11.216   2.432  0.6290  0.3287  0.5334
  475MOL0     H64058   1.334  11.494   2.380  0.5371  0.8906  0.2756
  475MOL0     H64059   1.515  11.610   2.391  0.4436 -0.6091 -0.7978
  475MOL0     H64060   1.628  11.790   2.526  0.7519  0.3280 -0.8234
  475MOL0     H64061   1.691  11.767   2.693 -1.7963  1.1226 -1.2635
  475MOL0     H64062   1.847  11.740   2.446 -2.9399  2.9338 -0.9286
  475MOL0     H64063   1.831  11.883   2.539  0.9398 -0.2346  1.1964
  475MOL0     H64064   1.975  11.794   2.725  0.7323  0.2745 -0.3042
  475MOL0     H64065   1.932  11.626   2.677 -3.3769 -0.4657 -4.9141
  475MOL0     H64066   2.168  11.735   2.647  3.9187  0.1796 -2.7325
  475MOL0     H64067   2.105  11.651   2.499 -3.6453 -0.3692 -0.8175
  475MOL0     H64068   2.082  11.951   2.539 -0.1375  0.9728 -1.2922
  475MOL0     H64069   2.227  11.868   2.488 -1.1678 -0.7745 -1.2521
  475MOL0     H64070   2.097  11.783   2.274  1.9023  1.0119 -0.4330
  475MOL0     H64071   1.965  11.885   2.332 -0.5871 -3.6466 -0.6725
  475MOL0     H64072   2.121  12.079   2.379  3.2251  0.0322 -0.6954
  475MOL0     H64073   2.241  12.003   2.282 -0.1279  1.4017 -2.3627
  475MOL0     H64074   2.109  12.169   2.167 -0.3194  0.2718  0.8889
  475MOL0     H64075   1.962  12.083   2.175 -0.3328  3.2315 -2.0244
  475MOL0     H64076   2.328  11.987   2.087 -0.7558 -1.5730  2.3904
  475MOL0     H64077   2.427  11.792   1.935  0.1348  4.8933 -1.1573
  475MOL0     H64078   2.294  11.673   1.879 -2.7461  0.2121  0.7039
  475MOL0     H64079   2.402  11.923   1.740 -0.0002  0.1889 -1.3500
  475MOL0     H64080   2.253  11.835   1.687 -0.9642 -1.1536  1.1033
  475MOL0     H64081   2.531  11.708   1.712  0.0609  1.9130  0.2151
  475MOL0     H64082   2.475  11.789   1.566  1.8728 -0.1813  0.3413
  475MOL0     H64083   2.319  11.619   1.517 -1.4095 -0.6835  1.1323
  475MOL0     H64084   2.298  11.578   1.684 -0.0016  1.3504  1.5235
  475MOL0     H64085   2.550  11.681   1.408  1.1066  0.7331  0.1419
  475MOL0     H64086   2.698  11.687   1.152  1.0326  2.7133 -1.6546
  475MOL0     H64087   2.674  11.794   1.274  2.0967  0.4475 -2.8141
  475MOL0     H64088   2.842  11.729   1.247  0.8250  0.2576  1.6705
  475MOL0     H64089   3.132  11.194   1.129 -0.0531  0.7697 -0.9635
  475MOL0     H64090   3.354  11.212   1.041 -1.9489 -1.7341  0.0782
  475MOL0     H64091   3.576  11.564   1.025  0.6832 -0.2981  0.5727
  475MOL0     H64092   3.592  11.560   1.207  1.3385 -1.6111  0.7605
  475MOL0     H64093   3.778  11.382   1.043  1.0418 -1.2626  1.1806
  475MOL0     H64094   3.805  11.554   1.044 -0.4523 -0.0314 -0.1951
  475MOL0     H64095   3.901  11.379   1.227 -2.3219 -3.6217  1.6277
  475MOL0     H64096   3.747  11.402   1.313 -1.0799 -1.7701 -2.2900
  475MOL0     H64097   3.949  11.600   1.217  0.0396  0.7039  0.3576
  475MOL0     H64098   3.810  11.655   1.303 -2.0601 -1.8252  2.5212
  475MOL0     H64099   4.026  11.475   1.434 -0.8035 -0.7495 -1.5497
  475MOL0     H64100   3.893  11.531   1.518  3.3727 -1.9800  1.1577
  475MOL0     H64101   4.080  11.727   1.398  1.4886 -2.4757 -0.3101
  475MOL0     H64102   3.945  11.764   1.494  2.2295  2.7265  0.0717
  475MOL0     H64103   4.051  11.622   1.686 -1.2584  0.5198  0.1711
  475MOL0     H64104   4.125  11.778   1.641 -0.5303 -0.7287 -0.6196
  475MOL0     H64105   4.232  11.523   1.529 -1.2515  0.3750  0.7614
  475MOL0     H64106   4.281  11.591   1.684 -2.9637  1.6554  1.0603
  475MOL0     H64107   3.441  11.510   1.349 -2.5236  2.7147 -0.5116
  475MOL0     H64108   3.216  11.504   1.421  1.2425  1.0102 -0.0426
  475MOL0     H64109   2.851  11.291   1.446 -0.2490  0.2207  0.7256
  475MOL0     H64110   2.634  11.305   1.589 -0.9189  0.8274  1.4679
  475MOL0     H64111   1.624  11.437   2.769 -0.2070  0.2198 -0.2479
  475MOL0     H64112   1.419  11.300   2.754  1.1596 -0.4599 -1.8446
  475MOL0     H64113   1.170  11.050   2.588  0.6862  2.8419  1.8181
  475MOL0     H64114   1.011  10.880   2.616  1.9396 -0.6133 -2.2220
  475MOL0     H64115   0.807  10.721   2.586 -0.8339 -0.2485 -1.2839
  475MOL0     H64116   0.809  10.837   2.714  1.9513 -3.4678 -0.0110
  475MOL0     H64117   0.613  10.680   2.743 -1.9093  0.5457  0.8260
  475MOL0     H64118   0.570  10.717   2.575  0.3937  0.3964 -0.3228
  475MOL0     H64119   0.569  10.955   2.748  2.8835 -2.1223 -1.1732
  475MOL0     H64120   0.469  10.826   2.824 -1.4107 -4.4316 -1.1628
  475MOL0     H64121   0.349  10.823   2.605  0.4061  0.0627 -2.3604
  475MOL0     H64122   0.433  10.959   2.533  2.0294  0.8771 -0.3281
  475MOL0     H64123   0.134  11.139   2.779  1.1636  1.6183 -0.6628
  475MOL0     H64124   0.713  11.127   2.427  0.2411  0.9252 -1.0625
  475MOL0     H64125   0.875  11.303   2.380  1.4505  1.6602  2.0864
  476MOL0     O64126   5.835   5.497  10.682 -0.1242  0.1504  0.4793
  476MOL0     C64127   5.720   5.478  10.657 -0.1297  0.0832 -0.0755
  476MOL0     O64128   5.643   5.373  10.689 -0.3324  0.2038 -0.6369
  476MOL0     C64129   5.697   5.275  10.772 -0.0215  0.0775 -0.5281
  476MOL0     C64130   5.692   5.292  10.912  0.2830 -0.2472  0.5109
  476MOL0     C64131   5.758   5.193  10.990 -0.9771 -1.3588  1.2297
  476MOL0     C64132   5.811   5.081  10.928  0.0869 -0.3014  0.0273
  476MOL0     O64133   5.867   4.990  11.013  0.7034  0.1875  0.2999
  476MOL0     C64134   5.895   4.866  10.955 -0.1276  0.5837  0.8754
  476MOL0     C64135   6.036   4.859  10.886 -0.1734 -0.1091  0.8536
  476MOL0     C64136   6.061   4.717  10.846  0.1031 -0.7234  0.4237
  476MOL0     C64137   6.186   4.688  10.767  0.5264 -0.5687  0.3102
  476MOL0     C64138   6.233   4.543  10.787 -0.4595 -1.1951 -0.4366
  476MOL0     C64139   6.344   4.519  10.679 -0.1950 -0.6316 -0.8745
  476MOL0     C64140   6.361   4.366  10.674 -0.1583 -0.0220  0.1142
  476MOL0     C64141   6.495   4.333  10.611  0.2218 -0.0072 -0.6009
  476MOL0     N64142   6.519   4.186  10.598 -0.2526  0.4725 -0.3641
  476MOL0     C64143   6.497   4.106  10.492  0.1721 -0.3926  0.3406
  476MOL0     C64144   6.585   4.010  10.507  1.2937 -0.0847 -0.1268
  476MOL0     C64145   6.585   3.891  10.420  0.6538 -0.0781  0.2923
  476MOL0     C64146   6.494   3.778  10.480 -0.4561 -0.3170  0.2897
  476MOL0     C64147   6.537   3.634  10.452 -0.3246 -0.1266  0.5828
  476MOL0     C64148   6.432   3.530  10.483 -0.3819 -0.8554 -0.5331
  476MOL0     O64149   6.487   3.415  10.445  0.4367  0.8790 -0.0506
  476MOL0     C64150   6.434   3.345  10.343 -1.1110  0.6493  0.5325
  476MOL0     C64151   6.300   3.319  10.337  0.0112 -0.5143  0.1842
  476MOL0     C64152   6.254   3.234  10.237 -0.3377 -0.3830 -0.3457
  476MOL0     C64153   6.097   3.219  10.241  0.6482 -0.0266  0.2619
  476MOL0     C64154   6.348   3.178  10.143 -0.2149  0.0355 -0.3968
  476MOL0     C64155   6.298   3.089  10.035 -0.5542  0.8940 -0.2335
  476MOL0     O64156   6.392   3.013   9.977  1.1956 -0.0714  0.2215
  476MOL0     C64157   6.354   2.929   9.875 -0.6347  0.5303  0.5148
  476MOL0     C64158   6.320   2.798   9.908 -0.0329 -0.4114 -0.4413
  476MOL0     C64159   6.305   2.701   9.811 -0.1757  0.7249  1.0643
  476MOL0     C64160   6.315   2.730   9.675  0.3716  0.3501 -0.6175
  476MOL0     O64161   6.279   2.639   9.577 -0.6969  0.8885 -0.0499
  476MOL0     C64162   6.332   2.509   9.607  0.1373  0.1891  0.4613
  476MOL0     C64163   6.302   2.409   9.493 -0.8896  0.5568 -0.3732
  476MOL0     C64164   6.348   2.454   9.349  0.2325 -0.6201 -0.6150
  476MOL0     C64165   6.306   2.343   9.245 -0.0562  0.5847  0.8113
  476MOL0     C64166   6.366   2.378   9.099 -0.6346  0.3064  0.0039
  476MOL0     C64167   6.330   2.280   8.986 -0.0902 -0.2484 -0.0664
  476MOL0     C64168   6.416   2.315   8.856  0.1871  0.1617 -1.4010
  476MOL0     C64169   6.388   2.216   8.747 -0.5508 -0.7960  0.6189
  476MOL0    Cl64170   6.215   2.212   8.686 -0.1022  0.1000  0.0966
  476MOL0     C64171   6.319   2.866   9.643 -0.3571 -0.0134  0.0612
  476MOL0     C64172   6.342   2.973   9.736 -0.7592  0.0925  0.0485
  476MOL0     O64173   6.181   3.099   9.997 -0.1537  0.1166  0.4618
  476MOL0     C64174   6.493   3.205  10.153  0.3999 -0.7824 -0.6200
  476MOL0     C64175   6.530   3.290  10.259 -0.6575 -0.1974  0.2712
  476MOL0     N64176   6.647   4.015  10.628  0.2954 -1.2090 -0.1577
  476MOL0     N64177   6.601   4.126  10.681 -0.7333  0.4708 -0.1349
  476MOL0     C64178   5.810   5.070  10.789  0.3285  0.6783  0.9045
  476MOL0     C64179   5.754   5.165  10.714  0.9022  0.5485 -0.0318
  476MOL0     C64180   5.642   5.571  10.567  0.1015  0.7894  0.3385
  476MOL0     C64181   5.507   5.590  10.580 -0.0553  0.0083 -0.5407
  476MOL0     C64182   5.441   5.672  10.490  0.5280  0.0408  0.4299
  476MOL0     C64183   5.507   5.737  10.382 -0.1797  1.3743 -0.2175
  476MOL0     O64184   5.430   5.813  10.299 -0.2105  0.4899 -0.0960
  476MOL0     C64185   5.444   5.801  10.158  0.5514  0.3949  0.2650
  476MOL0     C64186   5.366   5.694  10.093  0.4007  0.2082 -0.0290
  476MOL0     C64187   5.211   5.703  10.134 -0.5108  0.3053  0.2645
  476MOL0     C64188   5.120   5.601  10.069  0.3485 -0.3348  0.7698
  476MOL0     C64189   5.006   5.588  10.155 -0.0453 -0.5113  0.2810
  476MOL0     C64190   4.917   5.583  10.240 -0.7067  0.6553  1.0277
  476MOL0     C64191   5.639   5.709  10.368 -0.1048 -0.3213 -0.5036
  476MOL0     C64192   5.709   5.630  10.462  0.2170 -0.7970  0.3123
  476MOL0     H64193   5.632   5.374  10.950 -0.0565 -0.4210  0.3633
  476MOL0     H64194   5.756   5.210  11.097  1.7493  0.3933  1.1087
  476MOL0     H64195   5.899   4.801  11.044 -0.7699 -0.5736  0.0783
  476MOL0     H64196   5.822   4.827  10.884 -0.1570 -0.5995  1.5233
  476MOL0     H64197   6.053   4.910  10.791  0.6821  0.5179  1.3336
  476MOL0     H64198   6.101   4.905  10.961  0.6412 -0.3952  0.3377
  476MOL0     H64199   6.069   4.673  10.946  1.2511  1.8090  1.5244
  476MOL0     H64200   5.970   4.670  10.808  0.0646 -0.0198 -0.3683
  476MOL0     H64201   6.178   4.722  10.663 -1.4688 -0.3784  0.4929
  476MOL0     H64202   6.265   4.750  10.813  2.3498 -2.1971 -0.4856
  476MOL0     H64203   6.272   4.523  10.887 -1.5967  0.5027  0.4102
  476MOL0     H64204   6.158   4.464  10.775 -1.5914 -0.2262 -0.0573
  476MOL0     H64205   6.317   4.543  10.576 -0.6250  3.5027  0.0286
  476MOL0     H64206   6.439   4.560  10.714 -1.8207 -0.0133  3.3837
  476MOL0     H64207   6.365   4.325  10.775  3.6891 -0.1360  0.0536
  476MOL0     H64208   6.272   4.326  10.625 -0.3069 -0.1963  0.5211
  476MOL0     H64209   6.577   4.360  10.678  3.2656 -0.7380 -3.7509
  476MOL0     H64210   6.504   4.380  10.513 -0.8036 -2.1092 -1.7861
  476MOL0     H64211   6.422   4.119  10.414 -0.4426 -1.8602  0.6525
  476MOL0     H64212   6.546   3.921  10.322  0.4713 -2.6441 -0.4975
  476MOL0     H64213   6.689   3.859  10.412  0.0357 -1.8415 -4.9475
  476MOL0     H64214   6.394   3.789  10.436  0.3076  0.9157 -1.2314
  476MOL0     H64215   6.491   3.789  10.589  0.7212 -3.4344  0.7254
  476MOL0     H64216   6.631   3.606  10.501 -0.6339 -2.2497  0.0459
  476MOL0     H64217   6.571   3.627  10.348  1.6565 -0.5364  1.2154
  476MOL0     H64218   6.340   3.545  10.425 -0.1926 -5.4532 -2.4751
  476MOL0     H64219   6.403   3.539  10.588  2.5937  1.8606  0.2480
  476MOL0     H64220   6.234   3.366  10.409  0.4637 -0.3450  0.4875
  476MOL0     H64221   6.056   3.279  10.323  2.2366  1.1783  0.2293
  476MOL0     H64222   6.043   3.253  10.153 -1.1213 -1.5740  0.6815
  476MOL0     H64223   6.062   3.115  10.247 -1.9810  0.8152  0.3180
  476MOL0     H64224   6.316   2.764  10.011  1.0863  0.3549 -0.1284
  476MOL0     H64225   6.273   2.600   9.838 -1.5066  1.0149  0.6223
  476MOL0     H64226   6.440   2.510   9.624  0.5206  0.8726 -1.7849
  476MOL0     H64227   6.275   2.472   9.693 -0.2322 -1.2867 -0.3988
  476MOL0     H64228   6.336   2.308   9.519  1.1406  1.3852  0.4113
  476MOL0     H64229   6.194   2.394   9.491 -1.1570  2.0310 -4.1130
  476MOL0     H64230   6.455   2.461   9.327  0.0852  0.7794 -0.9443
  476MOL0     H64231   6.296   2.547   9.327  1.0403 -0.2062 -0.8101
  476MOL0     H64232   6.348   2.250   9.284  4.7113  2.3223  0.5626
  476MOL0     H64233   6.197   2.337   9.241 -0.1162  1.1443  1.4942
  476MOL0     H64234   6.475   2.386   9.090 -0.7848  0.3797 -2.1140
  476MOL0     H64235   6.338   2.482   9.083  0.5527  0.2341 -3.2016
  476MOL0     H64236   6.350   2.179   9.023 -0.8405 -0.0086  1.0754
  476MOL0     H64237   6.225   2.282   8.953 -0.2661  1.5262  0.5052
  476MOL0     H64238   6.521   2.304   8.883 -0.3741  1.6008  1.8837
  476MOL0     H64239   6.403   2.420   8.826 -2.7514 -0.0433 -1.2064
  476MOL0     H64240   6.412   2.116   8.785 -0.1613 -0.3991  1.4557
  476MOL0     H64241   6.451   2.248   8.664 -1.0931 -0.1252  0.4582
  476MOL0     H64242   6.321   2.898   9.539  1.9442  0.5475  0.2260
  476MOL0     H64243   6.362   3.076   9.706  0.8810 -0.2173 -0.0187
  476MOL0     H64244   6.569   3.146  10.102 -0.1524 -4.2744  2.2298
  476MOL0     H64245   6.630   3.293  10.300 -1.3039  2.2572  1.9100
  476MOL0     H64246   5.855   4.987  10.736 -1.4602  0.2937 -0.0790
  476MOL0     H64247   5.728   5.146  10.610  1.9193 -0.1241 -0.1779
  476MOL0     H64248   5.458   5.553  10.670  0.4606 -1.5183 -0.8540
  476MOL0     H64249   5.338   5.694  10.516  0.8293  0.1417  1.5825
  476MOL0     H64250   5.399   5.893  10.119 -2.5322  0.7007  3.9819
  476MOL0     H64251   5.550   5.786  10.138  0.2705 -1.0472 -0.2689
  476MOL0     H64252   5.422   5.606  10.127  2.2985  2.0231  1.8234
  476MOL0     H64253   5.379   5.689   9.985 -1.4782 -0.1385 -0.2775
  476MOL0     H64254   5.175   5.805  10.117  3.0620  1.3787 -2.1024
  476MOL0     H64255   5.227   5.682  10.240  3.3367  1.0099 -0.0344
  476MOL0     H64256   5.160   5.499  10.068 -2.6429 -1.6043 -1.0691
  476MOL0     H64257   5.088   5.632   9.969  0.6575  1.3932  1.1761
  476MOL0     H64258   4.843   5.567  10.315 -4.5437 -1.1571 -2.7454
  476MOL0     H64259   5.685   5.764  10.286 -1.0156  0.5018 -0.4835
  476MOL0     H64260   5.815   5.615  10.446  0.1250 -1.1237  0.0132
  477MOL0     O64261   1.565   9.638   6.710 -0.0553  1.3152  0.7249
  477MOL0     C64262   1.448   9.638   6.685 -0.3448 -0.3705  0.7208
  477MOL0     O64263   1.405   9.674   6.555  0.0174  0.0706  0.4624
  477MOL0     C64264   1.480   9.702   6.445 -1.1821  0.0393 -0.1914
  477MOL0     C64265   1.608   9.654   6.422 -0.1682  0.0771  0.5096
  477MOL0     C64266   1.685   9.693   6.315 -0.3947  0.4337  0.7619
  477MOL0     C64267   1.650   9.785   6.220 -0.2117  0.4034 -0.3458
  477MOL0     O64268   1.727   9.832   6.118 -0.3859  0.3178 -0.0769
  477MOL0     C64269   1.870   9.870   6.135 -0.1448  0.7390  0.1711
  477MOL0     C64270   1.903   9.964   6.026  0.2440  0.5123 -0.2240
  477MOL0     C64271   1.860   9.922   5.878 -0.6538 -0.0704 -0.1994
  477MOL0     C64272   1.943   9.991   5.773 -0.3007  0.4547  0.2607
  477MOL0     C64273   1.918   9.939   5.635 -1.1763  0.4388  0.5215
  477MOL0     C64274   2.017  10.022   5.544  0.4435 -0.0950 -0.5252
  477MOL0     C64275   2.010   9.956   5.404 -0.4481  0.1460  0.6744
  477MOL0     C64276   2.131  10.012   5.324 -0.2987 -0.4592  0.2922
  477MOL0     N64277   2.151   9.948   5.195  0.6749  0.1350  0.0808
  477MOL0     C64278   2.112   9.994   5.073 -0.1732  0.4133 -0.3017
  477MOL0     C64279   2.149   9.886   4.994 -0.4976  0.2354  0.1987
  477MOL0     C64280   2.139   9.895   4.846 -0.1237  0.8268 -0.3802
  477MOL0     C64281   2.086   9.759   4.790 -0.9126 -0.6820  0.0265
  477MOL0     C64282   1.943   9.774   4.736 -0.0346  0.2884  0.1036
  477MOL0     C64283   1.894   9.654   4.654 -0.7799  0.4422 -0.6740
  477MOL0     O64284   1.765   9.696   4.625  0.3651 -0.5100 -0.9073
  477MOL0     C64285   1.649   9.651   4.693 -0.5783 -0.7688  0.1643
  477MOL0     C64286   1.541   9.745   4.690 -0.1581 -0.1482 -0.1444
  477MOL0     C64287   1.408   9.709   4.735 -0.2965 -0.9247  0.5952
  477MOL0     C64288   1.292   9.804   4.690  0.7446 -0.1488 -0.4502
  477MOL0     C64289   1.392   9.586   4.801 -0.8618 -0.0165  0.4162
  477MOL0     C64290   1.260   9.535   4.838 -0.0209  0.3088  0.8040
  477MOL0     O64291   1.172   9.624   4.869  1.0203  0.6466  0.1922
  477MOL0     C64292   1.042   9.597   4.923  0.2095 -0.0996  0.2548
  477MOL0     C64293   1.017   9.487   5.013  0.3588 -0.8092  0.3111
  477MOL0     C64294   0.895   9.472   5.082  0.1686  0.4747 -0.1107
  477MOL0     C64295   0.793   9.573   5.074  0.4294 -0.2322  0.0483
  477MOL0     O64296   0.689   9.565   5.164  0.3645  0.7775 -0.1497
  477MOL0     C64297   0.620   9.432   5.177  0.2446  0.1795 -0.1176
  477MOL0     C64298   0.537   9.389   5.055  0.1967 -0.2571 -0.0561
  477MOL0     C64299   0.385   9.394   5.086 -0.4113 -0.2118  0.0292
  477MOL0     C64300   0.290   9.359   4.965 -0.3010  0.3934 -0.0201
  477MOL0     C64301   0.353   9.271   4.860  0.7875  0.7047 -0.1545
  477MOL0     C64302   0.239   9.231   4.760 -0.7790  0.5781 -0.2823
  477MOL0     C64303   0.280   9.118   4.663  0.0195 -0.8809  0.3136
  477MOL0     C64304   0.229   9.131   4.523  0.3259 -0.6759  0.1684
  477MOL0    Cl64305   0.052   9.178   4.500 -0.2054  0.2740 -0.3059
  477MOL0     C64306   0.813   9.678   4.990  0.5213  0.1425 -0.4507
  477MOL0     C64307   0.939   9.685   4.912  0.3937  0.1481  0.0679
  477MOL0     O64308   1.237   9.408   4.846  0.6708  0.5031  0.2221
  477MOL0     C64309   1.507   9.502   4.819 -0.3017  0.0171 -0.4384
  477MOL0     C64310   1.633   9.539   4.774 -0.9611 -0.9957  0.4673
  477MOL0     N64311   2.210   9.784   5.058  0.6476  0.1037  0.0542
  477MOL0     N64312   2.215   9.832   5.183 -0.4998  1.1293  0.2026
  477MOL0     C64313   1.535   9.848   6.248 -0.0906  0.7402  0.7408
  477MOL0     C64314   1.456   9.809   6.353  0.4408  0.7579 -0.8865
  477MOL0     C64315   1.347   9.625   6.782  1.1453 -0.2640 -0.3026
  477MOL0     C64316   1.218   9.628   6.742  0.8686  0.5413  0.3138
  477MOL0     C64317   1.111   9.623   6.831 -0.5660 -0.7527  0.3461
  477MOL0     C64318   1.127   9.593   6.971 -0.4045 -0.0330  0.3963
  477MOL0     O64319   1.028   9.568   7.058 -0.2151 -0.2395  0.1335
  477MOL0     C64320   0.893   9.551   6.999 -1.0818 -0.6994  0.1861
  477MOL0     C64321   0.789   9.561   7.111  0.3184 -0.7967 -0.4451
  477MOL0     C64322   0.652   9.513   7.064  0.4183  0.1108  0.3701
  477MOL0     C64323   0.548   9.556   7.163  0.0859  1.6034  0.1107
  477MOL0     C64324   0.421   9.512   7.112  1.9194  0.3951  0.7690
  477MOL0     C64325   0.315   9.470   7.071 -0.4758 -0.5369 -0.2057
  477MOL0     C64326   1.258   9.595   7.014 -0.4897 -0.1515  0.3849
  477MOL0     C64327   1.367   9.604   6.923  0.6080 -0.2835 -0.0108
  477MOL0     H64328   1.660   9.590   6.492 -0.7740  0.2130  1.0860
  477MOL0     H64329   1.784   9.649   6.317 -0.5610  0.0746  1.8486
  477MOL0     H64330   1.882   9.920   6.232  0.1764 -1.7396  1.4938
  477MOL0     H64331   1.935   9.783   6.140 -0.3862  0.5474 -0.0026
  477MOL0     H64332   1.838  10.051   6.041 -0.7395 -0.6713  3.1704
  477MOL0     H64333   2.001  10.014   6.022  0.4017  0.4158  1.6635
  477MOL0     H64334   1.890   9.817   5.875  0.6018  0.2324  0.6671
  477MOL0     H64335   1.752   9.936   5.869 -0.6637 -0.7500 -1.3437
  477MOL0     H64336   1.935  10.100   5.785  3.3439  0.6495  2.4907
  477MOL0     H64337   2.041   9.957   5.807 -0.1063  0.6400 -0.1091
  477MOL0     H64338   1.935   9.831   5.634 -1.1732  0.3924  2.3557
  477MOL0     H64339   1.814   9.954   5.604 -1.6200 -1.1789  1.1133
  477MOL0     H64340   1.976  10.122   5.527  0.2510 -0.3256 -1.4791
  477MOL0     H64341   2.120  10.018   5.578  0.2484  3.5654  0.9236
  477MOL0     H64342   2.012   9.847   5.416 -0.2377 -0.1061 -1.3695
  477MOL0     H64343   1.923   9.981   5.343  0.2327  1.9408  0.3685
  477MOL0     H64344   2.220  10.000   5.386  0.9685  0.1130 -1.3524
  477MOL0     H64345   2.114  10.120   5.314 -0.0848 -0.3010  1.4040
  477MOL0     H64346   2.073  10.093   5.051  1.1082  0.8064 -0.8866
  477MOL0     H64347   2.067   9.972   4.815 -1.6427 -1.3787 -2.8113
  477MOL0     H64348   2.235   9.926   4.803 -0.5195  1.7248 -0.6604
  477MOL0     H64349   2.094   9.670   4.852 -1.1817  0.7643  2.2322
  477MOL0     H64350   2.137   9.737   4.696 -0.5865 -1.6462  0.4211
  477MOL0     H64351   1.936   9.871   4.687 -0.0839  0.1099 -0.2537
  477MOL0     H64352   1.890   9.786   4.831  1.1456 -1.0297  0.9841
  477MOL0     H64353   1.901   9.560   4.710 -1.4789 -0.4695 -2.0682
  477MOL0     H64354   1.961   9.647   4.568  0.3983  3.6401 -0.1648
  477MOL0     H64355   1.551   9.831   4.625  2.8239 -0.0372  0.3222
  477MOL0     H64356   1.217   9.742   4.641 -1.1495  1.6344  0.0797
  477MOL0     H64357   1.254   9.853   4.780 -0.0738  1.6239 -1.7140
  477MOL0     H64358   1.318   9.888   4.626 -0.4898  0.0228 -0.7501
  477MOL0     H64359   1.103   9.423   5.034  2.9238  2.7044  1.6564
  477MOL0     H64360   0.888   9.396   5.159 -3.8547 -1.9517 -2.5183
  477MOL0     H64361   0.691   9.352   5.195 -0.6669 -0.7507 -0.5525
  477MOL0     H64362   0.555   9.444   5.265 -0.6101 -0.1790 -0.6821
  477MOL0     H64363   0.568   9.433   4.960  2.1284 -1.9117 -0.2663
  477MOL0     H64364   0.535   9.280   5.040 -1.0769 -0.2889  0.2215
  477MOL0     H64365   0.352   9.486   5.135 -0.5036  0.2016 -0.7880
  477MOL0     H64366   0.361   9.316   5.159 -0.8721  1.3455  1.6155
  477MOL0     H64367   0.200   9.314   5.006 -0.3001 -0.6546 -1.1283
  477MOL0     H64368   0.265   9.457   4.922 -1.4154  0.9839  1.8515
  477MOL0     H64369   0.398   9.183   4.906 -0.2086  0.4954  0.4509
  477MOL0     H64370   0.429   9.320   4.799  2.3655 -0.3271  0.9384
  477MOL0     H64371   0.159   9.190   4.822 -2.0261  0.6842 -1.7525
  477MOL0     H64372   0.210   9.321   4.705 -1.4392 -0.7198 -2.1848
  477MOL0     H64373   0.245   9.019   4.695  1.6007 -1.5621  0.0145
  477MOL0     H64374   0.389   9.123   4.656 -0.0435  0.3167 -0.1254
  477MOL0     H64375   0.240   9.032   4.480  0.3094 -0.6735  0.1601
  477MOL0     H64376   0.299   9.199   4.474  1.2651  0.3751  2.8123
  477MOL0     H64377   0.743   9.760   4.982 -0.2722 -0.5919 -1.2163
  477MOL0     H64378   0.956   9.768   4.844 -2.2238 -0.6092 -1.6847
  477MOL0     H64379   1.506   9.404   4.866  0.8539 -0.3086 -1.0569
  477MOL0     H64380   1.712   9.464   4.773 -0.6817 -0.7005 -0.8350
  477MOL0     H64381   1.499   9.922   6.178 -0.7448 -0.1210  0.1552
  477MOL0     H64382   1.362   9.859   6.374 -0.0671 -0.1966 -0.8380
  477MOL0     H64383   1.185   9.628   6.638 -3.4363  0.1925  1.5233
  477MOL0     H64384   1.009   9.635   6.798  0.0683  5.4108 -0.6192
  477MOL0     H64385   0.861   9.638   6.940 -1.5166 -0.4179  0.8232
  477MOL0     H64386   0.876   9.453   6.953  0.2966 -0.8907  0.0548
  477MOL0     H64387   0.775   9.666   7.138 -4.7385 -1.5340  0.9073
  477MOL0     H64388   0.812   9.498   7.198 -1.2855 -0.8842 -0.0499
  477MOL0     H64389   0.655   9.405   7.042  0.7285  0.5731 -2.1724
  477MOL0     H64390   0.626   9.566   6.973 -2.1795 -1.0135  0.3840
  477MOL0     H64391   0.561   9.660   7.194  0.0533  1.7599 -0.3864
  477MOL0     H64392   0.560   9.503   7.258 -0.6395  0.0671 -0.6211
  477MOL0     H64393   0.221   9.424   7.050 -0.9025 -0.1398  0.7858
  477MOL0     H64394   1.284   9.594   7.119 -0.5138  0.6624  0.4115
  477MOL0     H64395   1.468   9.598   6.960  0.9160  0.5656 -0.6810
  478MOL0     O64396   4.303  11.216   2.483  0.0613  0.2444  0.9814
  478MOL0     C64397   4.227  11.116   2.465  1.0303  0.0805  0.3712
  478MOL0     O64398   4.275  10.989   2.436 -0.0991 -0.6006 -0.5562
  478MOL0     C64399   4.411  10.975   2.452  0.2900 -0.1173  0.5590
  478MOL0     C64400   4.465  10.970   2.582  0.5462 -0.4693  0.0950
  478MOL0     C64401   4.605  10.981   2.599  0.6331  0.8151  0.6631
  478MOL0     C64402   4.689  10.975   2.488 -0.1413 -0.2301 -0.3208
  478MOL0     O64403   4.825  10.987   2.504  0.3664 -0.4182 -0.5600
  478MOL0     C64404   4.887  10.911   2.608  0.2570 -0.7286  0.2696
  478MOL0     C64405   5.011  10.830   2.552 -0.0686  0.3242 -0.2415
  478MOL0     C64406   5.061  10.732   2.670 -0.1262 -0.3282 -0.0360
  478MOL0     C64407   5.216  10.742   2.686 -0.9502 -0.6187  0.0634
  478MOL0     C64408   5.232  10.848   2.798 -0.2216 -0.0243  0.5009
  478MOL0     C64409   5.378  10.858   2.856  0.2510  0.1208  0.6715
  478MOL0     C64410   5.470  10.863   2.729 -0.0430 -0.3478 -0.2619
  478MOL0     C64411   5.599  10.934   2.760  0.4854 -0.7700 -0.3605
  478MOL0     N64412   5.699  10.929   2.653  0.7193  0.1914  0.0670
  478MOL0     C64413   5.747  10.814   2.602  0.2599 -0.7598 -0.2403
  478MOL0     C64414   5.833  10.858   2.505  1.1794 -0.6594 -0.2577
  478MOL0     C64415   5.892  10.761   2.397  0.9729 -0.3350 -0.7916
  478MOL0     C64416   6.043  10.768   2.403  0.6697  0.7350  0.1015
  478MOL0     C64417   6.115  10.894   2.358  0.8005 -0.1373  0.8333
  478MOL0     C64418   6.112  10.904   2.200 -0.4752 -0.3690 -0.1091
  478MOL0     O64419   6.197  11.018   2.161 -0.9688  0.3400  0.2085
  478MOL0     C64420   6.211  11.042   2.025  0.0370 -0.0368  0.8857
  478MOL0     C64421   6.161  10.960   1.914 -1.0607 -0.5554  0.6322
  478MOL0     C64422   6.174  10.985   1.781 -0.1877  0.4126  0.4525
  478MOL0     C64423   6.128  10.888   1.679 -0.4348  0.6830 -0.2741
  478MOL0     C64424   6.215  11.113   1.748 -0.1358  0.8074  0.2771
  478MOL0     C64425   6.206  11.172   1.617 -0.9150  0.1855  0.2030
  478MOL0     O64426   6.171  11.305   1.607 -0.1188 -0.3958 -0.0885
  478MOL0     C64427   6.209  11.387   1.504 -0.0329 -0.2256  0.3059
  478MOL0     C64428   6.209  11.522   1.541 -0.3161  0.4950  0.8135
  478MOL0     C64429   6.263  11.621   1.457  0.5634  0.4023 -0.5065
  478MOL0     C64430   6.338  11.586   1.355  0.3765  0.4229  0.1638
  478MOL0     O64431   6.403  11.679   1.289 -0.3891 -0.0212  0.4162
  478MOL0     C64432   6.418  11.668   1.150  0.2129  0.6088 -0.5079
  478MOL0     C64433   6.288  11.685   1.064 -0.7652  0.9121  0.4588
  478MOL0     C64434   6.227  11.824   1.067 -0.0576 -0.0051 -0.2401
  478MOL0     C64435   6.115  11.850   1.176 -0.8893  0.6744 -0.1117
  478MOL0     C64436   6.090  12.003   1.167  0.3652  0.3267  0.4293
  478MOL0     C64437   5.978  12.058   1.250  0.7577 -0.3474  0.2756
  478MOL0     C64438   5.965  12.202   1.222  0.2044 -1.0556  0.0422
  478MOL0     C64439   5.847  12.253   1.309  0.1780 -0.1052 -0.3215
  478MOL0    Cl64440   5.800  12.426   1.263 -0.0103  0.6954 -0.0404
  478MOL0     C64441   6.336  11.448   1.318 -0.2196 -0.6006 -0.0526
  478MOL0     C64442   6.272  11.350   1.389  2.0168  0.1379 -0.4986
  478MOL0     O64443   6.238  11.102   1.520  0.2229  0.0878  0.4579
  478MOL0     C64444   6.257  11.206   1.848  0.2723 -0.2391 -0.1425
  478MOL0     C64445   6.257  11.166   1.982 -0.6043 -1.0698 -0.9151
  478MOL0     N64446   5.833  10.991   2.505 -0.4938 -0.4716  0.0414
  478MOL0     N64447   5.761  11.039   2.602  0.2563 -0.6297  0.1043
  478MOL0     C64448   4.632  10.988   2.359  0.2266 -0.3821  0.8186
  478MOL0     C64449   4.494  10.984   2.346 -0.7115 -0.0824  0.5165
  478MOL0     C64450   4.080  11.149   2.442  0.4019 -0.0398 -0.5182
  478MOL0     C64451   4.021  11.281   2.424 -0.3992  0.9077  0.7167
  478MOL0     C64452   3.889  11.295   2.398  0.3685 -0.3471  0.5152
  478MOL0     C64453   3.802  11.183   2.376 -0.6851 -0.3594  0.2485
  478MOL0     O64454   3.668  11.204   2.345  0.1546 -0.0334  0.3412
  478MOL0     C64455   3.583  11.093   2.308  0.7990  0.3161 -0.0518
  478MOL0     C64456   3.440  11.151   2.280 -0.2408 -0.4522 -0.0600
  478MOL0     C64457   3.450  11.290   2.205  1.0288 -0.1832 -0.5715
  478MOL0     C64458   3.319  11.347   2.149 -0.1710  0.2936 -0.9201
  478MOL0     C64459   3.344  11.484   2.103 -1.1191  0.0022  0.3564
  478MOL0     C64460   3.376  11.597   2.089 -0.1935  0.4065  0.1494
  478MOL0     C64461   3.859  11.057   2.382  0.4185  0.4265 -0.7237
  478MOL0     C64462   3.991  11.040   2.417  0.4546 -0.3477  0.6823
  478MOL0     H64463   4.402  10.970   2.670 -0.5979  0.0764 -0.6953
  478MOL0     H64464   4.635  10.973   2.703  0.5877  0.8424  0.6783
  478MOL0     H64465   4.927  10.983   2.680 -0.6876  1.7287 -1.5032
  478MOL0     H64466   4.819  10.851   2.668 -1.3058  1.2981  0.6438
  478MOL0     H64467   4.977  10.763   2.473 -1.5063 -0.7917  1.2584
  478MOL0     H64468   5.084  10.901   2.512  1.7228  0.1772  2.5001
  478MOL0     H64469   4.996  10.737   2.758 -0.7657  1.2564 -0.5439
  478MOL0     H64470   5.049  10.630   2.634 -0.4973 -0.3867  0.2414
  478MOL0     H64471   5.256  10.643   2.709  0.7692  0.2017  0.7993
  478MOL0     H64472   5.258  10.771   2.589 -4.8415 -0.8987 -1.9183
  478MOL0     H64473   5.193  10.940   2.754 -0.6523 -0.8457 -0.8742
  478MOL0     H64474   5.162  10.830   2.881 -0.5587 -3.3198 -0.3605
  478MOL0     H64475   5.394  10.950   2.914 -0.5346  0.1592  0.8394
  478MOL0     H64476   5.391  10.764   2.910  0.8402 -0.3818 -0.3201
  478MOL0     H64477   5.495  10.761   2.699  2.6796  0.0038  0.5183
  478MOL0     H64478   5.421  10.915   2.647  0.5128 -0.4127 -0.6441
  478MOL0     H64479   5.639  10.894   2.853 -1.0310 -1.3733  0.0690
  478MOL0     H64480   5.586  11.040   2.780  0.6147 -1.0491  1.3880
  478MOL0     H64481   5.723  10.713   2.633 -0.1669 -0.8866 -0.9797
  478MOL0     H64482   5.859  10.660   2.423 -1.9668  0.3383 -1.5228
  478MOL0     H64483   5.854  10.785   2.298 -0.4483  1.8276  0.1912
  478MOL0     H64484   6.087  10.679   2.357 -2.0568 -0.9098  0.4480
  478MOL0     H64485   6.076  10.750   2.506  2.1779 -3.2145 -0.8973
  478MOL0     H64486   6.220  10.886   2.389  0.6960 -0.0240  1.2235
  478MOL0     H64487   6.069  10.985   2.396 -0.7099 -0.5254  0.0065
  478MOL0     H64488   6.007  10.910   2.171 -0.3051 -0.6106 -0.7806
  478MOL0     H64489   6.161  10.817   2.156 -0.0943 -0.6520  0.8504
  478MOL0     H64490   6.105  10.870   1.939  0.5012 -0.9464  3.0080
  478MOL0     H64491   6.045  10.928   1.621 -1.6191  0.4546  1.2060
  478MOL0     H64492   6.209  10.873   1.606  0.0344 -2.0431  0.6602
  478MOL0     H64493   6.091  10.791   1.714  0.3738  0.7763  0.8967
  478MOL0     H64494   6.167  11.543   1.639  0.1316  0.1455  1.0888
  478MOL0     H64495   6.255  11.727   1.477 -1.8208  0.5875 -1.9531
  478MOL0     H64496   6.487  11.749   1.122 -0.0746  1.4307  1.0658
  478MOL0     H64497   6.468  11.575   1.124  5.6790  3.0382 -0.2763
  478MOL0     H64498   6.301  11.663   0.957  2.3403 -2.0009  1.2600
  478MOL0     H64499   6.216  11.611   1.101 -1.2374  0.4421 -1.2680
  478MOL0     H64500   6.197  11.855   0.967  2.3676 -0.2391 -1.1003
  478MOL0     H64501   6.312  11.888   1.090 -0.1322 -0.2498  0.7731
  478MOL0     H64502   6.020  11.799   1.154  0.6604 -3.1827  1.2843
  478MOL0     H64503   6.145  11.822   1.278 -1.8168  3.1353  0.9344
  478MOL0     H64504   6.084  12.030   1.062 -2.7486 -3.5609 -0.6200
  478MOL0     H64505   6.177  12.047   1.217 -1.2823  2.6346  1.4610
  478MOL0     H64506   5.885  12.011   1.216  0.0193  2.6415 -2.2471
  478MOL0     H64507   5.990  12.052   1.359  0.7651  2.4252  0.4982
  478MOL0     H64508   5.939  12.221   1.117 -4.0074 -1.0263  0.9072
  478MOL0     H64509   6.057  12.257   1.243  0.4181 -1.7536  0.9944
  478MOL0     H64510   5.873  12.250   1.415 -0.6440 -1.0490 -0.1355
  478MOL0     H64511   5.755  12.197   1.289 -0.2049  0.7849 -1.1144
  478MOL0     H64512   6.384  11.413   1.228 -0.2273  0.4503 -0.4722
  478MOL0     H64513   6.273  11.250   1.349 -0.4776 -0.1588  0.0086
  478MOL0     H64514   6.288  11.307   1.824 -0.1557 -0.6262 -2.5971
  478MOL0     H64515   6.288  11.229   2.064 -1.6800  2.1349 -2.7792
  478MOL0     H64516   4.698  10.996   2.274 -0.2821 -1.5612  0.2853
  478MOL0     H64517   4.450  10.993   2.247 -2.9682 -2.1025  1.2305
  478MOL0     H64518   4.081  11.370   2.438  0.3360  0.1888  2.5280
  478MOL0     H64519   3.835  11.389   2.401 -0.6152 -0.7220 -2.2224
  478MOL0     H64520   3.636  11.061   2.218  3.2460 -3.3624  2.4213
  478MOL0     H64521   3.584  11.006   2.374 -1.2861 -0.5068 -1.0136
  478MOL0     H64522   3.383  11.154   2.373 -0.8714  1.0245 -0.4775
  478MOL0     H64523   3.387  11.087   2.208 -2.9313  1.2007  0.3309
  478MOL0     H64524   3.526  11.292   2.126  0.7255 -1.0821 -0.8962
  478MOL0     H64525   3.487  11.366   2.274 -1.7028  1.9443 -1.2618
  478MOL0     H64526   3.247  11.340   2.231  1.5712 -1.2666  0.5425
  478MOL0     H64527   3.271  11.285   2.072 -0.7467  0.4387 -0.6871
  478MOL0     H64528   3.394  11.700   2.067 -1.5511  0.6949  0.3025
  478MOL0     H64529   3.811  10.960   2.380 -1.5522  1.1869  2.4229
  478MOL0     H64530   4.047  10.947   2.411  2.4705  0.8747 -1.3032
  479MOL0     O64531   3.779   8.022   6.182  0.1906 -0.1184 -0.1365
  479MOL0     C64532   3.840   8.117   6.242  0.1175 -0.7333  0.7430
  479MOL0     O64533   3.975   8.143   6.241 -0.7068  0.1412  0.1778
  479MOL0     C64534   4.077   8.060   6.189 -0.1525  0.8630  0.3562
  479MOL0     C64535   4.207   8.108   6.204  0.7017  0.0212 -0.1208
  479MOL0     C64536   4.315   8.031   6.151  0.4157  0.2944 -0.0137
  479MOL0     C64537   4.301   7.917   6.080  0.1422 -0.3491  0.1665
  479MOL0     O64538   4.415   7.871   6.030 -0.8066 -0.2714 -0.8385
  479MOL0     C64539   4.402   7.772   5.922 -0.7442  0.2212 -0.2941
  479MOL0     C64540   4.370   7.840   5.792  0.5634  0.5330  0.2718
  479MOL0     C64541   4.482   7.925   5.742 -0.2756 -0.0677 -0.2565
  479MOL0     C64542   4.478   7.972   5.599  0.0029  0.3990  0.1135
  479MOL0     C64543   4.437   7.860   5.502  0.2209  1.0486  0.1213
  479MOL0     C64544   4.536   7.745   5.481 -0.1322 -0.1630 -0.4932
  479MOL0     C64545   4.461   7.621   5.425  0.7070 -0.3163  0.0786
  479MOL0     C64546   4.562   7.511   5.371  0.2686 -0.3211  1.1745
  479MOL0     N64547   4.603   7.540   5.234 -1.1235  0.4808 -0.5851
  479MOL0     C64548   4.523   7.532   5.119  0.8223  0.8401  0.1994
  479MOL0     C64549   4.607   7.547   5.014 -0.3166  0.2943  0.4743
  479MOL0     C64550   4.569   7.517   4.870  0.2104  0.3070 -0.7232
  479MOL0     C64551   4.651   7.398   4.817 -0.0406  0.1522 -0.6104
  479MOL0     C64552   4.584   7.307   4.711  0.2131  0.3183 -0.1359
  479MOL0     C64553   4.659   7.178   4.683  0.7239 -1.2703 -0.1831
  479MOL0     O64554   4.595   7.103   4.574 -0.2159  0.1448 -1.0106
  479MOL0     C64555   4.525   6.984   4.606  0.1797 -0.9436  0.8438
  479MOL0     C64556   4.512   6.885   4.512  0.9143  0.1974  0.5432
  479MOL0     C64557   4.427   6.772   4.523 -0.2966 -0.0116  0.0002
  479MOL0     C64558   4.438   6.674   4.410 -0.6963  0.3926  0.1565
  479MOL0     C64559   4.368   6.746   4.648  0.4675  1.1905  0.3221
  479MOL0     C64560   4.271   6.640   4.673 -0.0186 -0.7799  0.8561
  479MOL0     O64561   4.191   6.665   4.779  0.9577  0.2919  0.0107
  479MOL0     C64562   4.099   6.562   4.811 -0.5161 -0.1881  0.0005
  479MOL0     C64563   4.011   6.507   4.717 -0.3914 -0.3873  0.1873
  479MOL0     C64564   3.911   6.416   4.749 -0.9490 -1.0059 -0.8415
  479MOL0     C64565   3.901   6.370   4.884  0.0669 -0.1784  1.3359
  479MOL0     O64566   3.791   6.292   4.918 -0.7173 -0.3187  1.2924
  479MOL0     C64567   3.770   6.243   5.049 -0.5658  0.4747 -0.3700
  479MOL0     C64568   3.657   6.134   5.048  0.0226  0.1307 -0.1498
  479MOL0     C64569   3.650   6.064   5.189  0.7113 -0.2068  0.3734
  479MOL0     C64570   3.535   5.961   5.195  0.0189  0.8128 -0.0340
  479MOL0     C64571   3.524   5.920   5.347 -0.3868 -0.4907 -0.4418
  479MOL0     C64572   3.446   5.786   5.356 -0.1586  0.9776  0.9854
  479MOL0     C64573   3.439   5.740   5.505  0.2295  0.0509  0.3091
  479MOL0     C64574   3.446   5.586   5.517  0.0318 -0.4228  0.3693
  479MOL0    Cl64575   3.447   5.532   5.691  0.0570  0.0365  0.4285
  479MOL0     C64576   3.982   6.430   4.987 -0.0549  0.5677  0.5165
  479MOL0     C64577   4.080   6.528   4.946 -0.2273 -0.3226  0.6081
  479MOL0     O64578   4.274   6.541   4.605  0.1794  1.2912 -0.3435
  479MOL0     C64579   4.389   6.836   4.743  0.2080 -0.4429 -0.1412
  479MOL0     C64580   4.463   6.952   4.729  0.9614  0.4792  0.9701
  479MOL0     N64581   4.738   7.554   5.057  0.3835  0.6671  0.3478
  479MOL0     N64582   4.740   7.547   5.187  0.4818  0.0522 -0.7180
  479MOL0     C64583   4.171   7.870   6.063  0.7012 -0.3044  0.3379
  479MOL0     C64584   4.063   7.941   6.117 -0.0364  0.1294 -0.4247
  479MOL0     C64585   3.752   8.213   6.324 -0.8058 -0.2861 -0.5551
  479MOL0     C64586   3.793   8.349   6.333 -0.3797 -0.2283 -0.2378
  479MOL0     C64587   3.706   8.438   6.403  0.4244 -0.2134 -0.1460
  479MOL0     C64588   3.596   8.400   6.474 -0.1316 -0.6762 -0.4879
  479MOL0     O64589   3.525   8.504   6.536 -0.0896  0.4893  0.7286
  479MOL0     C64590   3.417   8.475   6.613  0.4560  0.3044  0.7132
  479MOL0     C64591   3.287   8.455   6.530  0.1299  0.6233  0.1506
  479MOL0     C64592   3.154   8.454   6.619 -0.0690  0.2370 -0.3083
  479MOL0     C64593   3.018   8.439   6.553  0.8896  1.4004 -0.1070
  479MOL0     C64594   3.000   8.531   6.442  0.3836 -0.7336 -0.1103
  479MOL0     C64595   2.978   8.598   6.337  0.3333  0.1692  0.1753
  479MOL0     C64596   3.553   8.266   6.464  0.1378 -0.5272 -0.2860
  479MOL0     C64597   3.624   8.175   6.385  0.2965 -0.3711 -0.1685
  479MOL0     H64598   4.229   8.207   6.244 -0.0608 -1.0963  3.3600
  479MOL0     H64599   4.409   8.085   6.150 -0.8503  2.6516 -0.6446
  479MOL0     H64600   4.499   7.723   5.923  0.0320  1.7067  0.1774
  479MOL0     H64601   4.328   7.695   5.950 -0.6044  0.5785  1.1453
  479MOL0     H64602   4.337   7.770   5.715 -2.6414  2.0571  0.1091
  479MOL0     H64603   4.277   7.897   5.800 -0.1331 -0.4622 -0.5548
  479MOL0     H64604   4.484   8.019   5.797  0.5986 -1.5018  2.3579
  479MOL0     H64605   4.574   7.870   5.765 -0.5575 -1.2957 -1.9040
  479MOL0     H64606   4.401   8.049   5.590 -0.0376  0.2756 -0.6066
  479MOL0     H64607   4.575   8.015   5.570  0.2928  0.6207  1.3338
  479MOL0     H64608   4.335   7.822   5.512  0.4803  0.3605  0.2194
  479MOL0     H64609   4.420   7.914   5.408 -3.0869 -0.1221 -0.0891
  479MOL0     H64610   4.619   7.783   5.420  0.3786  0.2517  0.4394
  479MOL0     H64611   4.584   7.708   5.573  5.3210 -2.0021 -3.5909
  479MOL0     H64612   4.393   7.585   5.502 -1.1650 -1.4807 -1.9929
  479MOL0     H64613   4.398   7.651   5.340  0.0769  1.9674  1.2676
  479MOL0     H64614   4.530   7.406   5.368  0.6223 -0.4066 -0.0875
  479MOL0     H64615   4.646   7.500   5.440  0.0829  0.7164  1.5716
  479MOL0     H64616   4.415   7.527   5.114  0.8130  1.3685 -0.1799
  479MOL0     H64617   4.465   7.489   4.849  0.4426  0.5654 -2.3115
  479MOL0     H64618   4.576   7.608   4.810  1.6324 -0.7944 -2.3372
  479MOL0     H64619   4.675   7.335   4.903  0.0612  0.8443 -0.1210
  479MOL0     H64620   4.738   7.444   4.770 -0.2236  0.3609 -0.7471
  479MOL0     H64621   4.572   7.372   4.623 -3.3830  0.5304  0.3287
  479MOL0     H64622   4.488   7.272   4.750  0.7999 -2.0696 -0.6689
  479MOL0     H64623   4.674   7.125   4.777 -1.7244 -0.3721  0.7682
  479MOL0     H64624   4.759   7.206   4.647  0.9289 -1.7675 -0.0088
  479MOL0     H64625   4.562   6.911   4.419  1.3883 -1.7655  0.1998
  479MOL0     H64626   4.338   6.637   4.386 -0.1330 -0.9903 -0.1084
  479MOL0     H64627   4.485   6.722   4.324  1.8609  1.1960  1.9086
  479MOL0     H64628   4.497   6.586   4.437  1.2873  1.4376 -0.5966
  479MOL0     H64629   4.030   6.536   4.614 -1.5089  0.5588  0.2221
  479MOL0     H64630   3.848   6.386   4.666 -3.4059  0.6391  0.3052
  479MOL0     H64631   3.861   6.192   5.082  0.3814  0.6971 -2.5330
  479MOL0     H64632   3.753   6.327   5.117  1.3586  0.5600  0.0576
  479MOL0     H64633   3.563   6.188   5.036  0.4135  1.2537  1.4182
  479MOL0     H64634   3.670   6.063   4.967  0.9196  0.6676 -0.4955
  479MOL0     H64635   3.629   6.142   5.262  1.1973 -0.2248  0.5349
  479MOL0     H64636   3.744   6.017   5.220  1.4875  2.1217  1.7631
  479MOL0     H64637   3.440   5.979   5.143 -0.5105  1.1505  0.9922
  479MOL0     H64638   3.574   5.872   5.146  1.6659 -0.2166  2.9171
  479MOL0     H64639   3.487   5.999   5.412  1.5220  0.3660 -0.3166
  479MOL0     H64640   3.624   5.896   5.383 -0.3693 -1.2758 -0.9867
  479MOL0     H64641   3.346   5.791   5.313  1.3215  0.6168 -2.9391
  479MOL0     H64642   3.494   5.715   5.288 -1.6361  2.2176 -1.5125
  479MOL0     H64643   3.351   5.776   5.559 -0.4754  1.1628 -1.4798
  479MOL0     H64644   3.525   5.786   5.553  1.3478 -0.2145 -1.3789
  479MOL0     H64645   3.546   5.569   5.477  0.5873  0.9217  1.1381
  479MOL0     H64646   3.375   5.539   5.447  1.2836  1.6262 -2.5006
  479MOL0     H64647   3.973   6.406   5.092  2.6505 -0.5465  0.5567
  479MOL0     H64648   4.147   6.583   5.012 -1.5284  2.9707 -0.6032
  479MOL0     H64649   4.355   6.828   4.846  0.0131  1.2954 -0.0475
  479MOL0     H64650   4.476   7.024   4.809  1.1449  0.7586  0.6935
  479MOL0     H64651   4.164   7.781   6.001  3.7022 -1.7715  1.8750
  479MOL0     H64652   3.966   7.897   6.096  0.7217 -1.5029 -0.6913
  479MOL0     H64653   3.883   8.390   6.287 -2.5488  1.9949 -2.8636
  479MOL0     H64654   3.744   8.539   6.402 -0.0475 -0.0385 -0.5197
  479MOL0     H64655   3.449   8.389   6.673 -3.0574 -1.3510  0.5040
  479MOL0     H64656   3.410   8.567   6.671  2.1525  2.1003 -1.7631
  479MOL0     H64657   3.292   8.358   6.481  2.0532  0.6273  0.2773
  479MOL0     H64658   3.287   8.544   6.467 -2.6974  3.4711  3.6638
  479MOL0     H64659   3.153   8.551   6.669  0.2124 -0.3145  0.8101
  479MOL0     H64660   3.160   8.383   6.702 -2.9616 -0.6069 -0.7245
  479MOL0     H64661   2.933   8.440   6.622  2.0144 -0.4550  1.4311
  479MOL0     H64662   3.026   8.338   6.512  0.0059  0.9652  0.7612
  479MOL0     H64663   2.969   8.654   6.247  1.2620  1.7748  1.0371
  479MOL0     H64664   3.460   8.230   6.508 -1.1677  1.2804 -1.4486
  479MOL0     H64665   3.599   8.071   6.372  0.8604 -0.7221  1.3184
  480MOL0     O64666   2.350   1.596   0.210  0.1812 -0.1205 -0.0287
  480MOL0     C64667   2.301   1.625   0.103 -0.1462 -0.5619  0.0363
  480MOL0     O64668   2.177   1.594   0.066 -0.1626 -0.9813 -0.3935
  480MOL0     C64669   2.096   1.532   0.160  0.3757  0.0471 -0.9715
  480MOL0     C64670   2.067   1.612   0.268 -0.1151  0.3997 -0.0252
  480MOL0     C64671   2.002   1.566   0.386 -0.7295 -0.5115  0.4933
  480MOL0     C64672   1.972   1.428   0.394  0.5096 -0.3392 -0.0021
  480MOL0     O64673   1.900   1.377   0.502 -0.3006 -0.2517 -0.7472
  480MOL0     C64674   1.845   1.472   0.591 -0.2494 -0.0137 -0.8190
  480MOL0     C64675   1.942   1.543   0.695 -0.3302  0.1069  0.0619
  480MOL0     C64676   1.943   1.475   0.826  0.2587  0.2631 -1.2463
  480MOL0     C64677   2.010   1.572   0.922  0.6183 -0.9277 -0.6800
  480MOL0     C64678   2.036   1.516   1.069 -0.5320 -0.4640 -0.5483
  480MOL0     C64679   2.131   1.403   1.100 -0.0235  0.2941 -0.4567
  480MOL0     C64680   2.145   1.371   1.249  0.1479  0.3840 -0.5444
  480MOL0     C64681   2.259   1.448   1.307 -0.3233 -0.9015  0.3026
  480MOL0     N64682   2.370   1.361   1.304  0.0907  0.6121  1.3035
  480MOL0     C64683   2.475   1.370   1.209 -0.1601  0.1241  0.4548
  480MOL0     C64684   2.569   1.286   1.259  0.1125 -0.7404 -0.2736
  480MOL0     C64685   2.698   1.270   1.189  0.5394 -0.9823  0.0426
  480MOL0     C64686   2.789   1.160   1.263  0.2135 -0.5889  0.1911
  480MOL0     C64687   2.929   1.187   1.205  0.1050  1.1874  0.4264
  480MOL0     C64688   3.032   1.086   1.275 -1.1736 -0.7235 -0.2856
  480MOL0     O64689   3.162   1.109   1.218  0.2337  0.2748  0.0433
  480MOL0     C64690   3.267   1.040   1.272  0.2771 -0.5763 -0.5051
  480MOL0     C64691   3.390   1.103   1.261  0.2945  0.6972  0.8292
  480MOL0     C64692   3.503   1.030   1.305 -0.2644  0.4022  0.7088
  480MOL0     C64693   3.623   1.118   1.318 -0.3244 -0.2496 -0.3299
  480MOL0     C64694   3.498   0.904   1.374 -0.3637 -0.6082 -0.2171
  480MOL0     C64695   3.623   0.834   1.425  0.2026 -0.8656  0.2779
  480MOL0     O64696   3.740   0.881   1.385 -0.2712 -0.1442 -0.1680
  480MOL0     C64697   3.865   0.840   1.435  0.5249 -0.7369  0.5516
  480MOL0     C64698   3.887   0.702   1.465  0.2093 -1.2143 -0.5552
  480MOL0     C64699   4.018   0.656   1.488 -0.0682 -0.0923 -0.1223
  480MOL0     C64700   4.118   0.755   1.500 -0.9958 -0.4657 -0.4985
  480MOL0     O64701   4.242   0.737   1.552 -0.1773 -0.0165  0.2324
  480MOL0     C64702   4.289   0.602   1.543  0.7856 -0.0815 -0.7647
  480MOL0     C64703   4.423   0.562   1.607 -0.2589  0.4573 -0.3789
  480MOL0     C64704   4.493   0.679   1.683 -0.0896  0.0625 -0.4261
  480MOL0     C64705   4.645   0.670   1.709  0.6681  1.0340 -0.6543
  480MOL0     C64706   4.691   0.803   1.773  0.9175  0.1048  0.1199
  480MOL0     C64707   4.813   0.771   1.857 -0.2417 -0.7163  0.3082
  480MOL0     C64708   4.891   0.903   1.875 -0.6158  0.1330  0.0580
  480MOL0     C64709   5.030   0.875   1.908  0.2490 -0.3627 -0.1975
  480MOL0    Cl64710   5.058   0.817   2.074  0.3755 -0.4294 -0.5201
  480MOL0     C64711   4.097   0.886   1.475  0.1219  0.2871  0.6987
  480MOL0     C64712   3.970   0.931   1.440 -0.4628  0.6266 -1.3326
  480MOL0     O64713   3.600   0.738   1.498  0.9001 -0.6007  1.0917
  480MOL0     C64714   3.366   0.856   1.398  0.2742 -0.2161 -2.0491
  480MOL0     C64715   3.254   0.919   1.345  0.0745  0.3220  0.1393
  480MOL0     N64716   2.535   1.244   1.386  0.2406  0.7079 -0.5805
  480MOL0     N64717   2.411   1.294   1.418 -0.3319  0.9614  0.1630
  480MOL0     C64718   1.997   1.346   0.289 -0.5091 -0.7008  0.4057
  480MOL0     C64719   2.067   1.391   0.169  0.1040 -0.9218  0.0476
  480MOL0     C64720   2.383   1.703   0.002 -0.3053  0.0858 -0.6187
  480MOL0     C64721   2.340   1.714  -0.133  1.1244 -1.3938 -1.0174
  480MOL0     C64722   2.403   1.791  -0.227 -0.4265 -0.3957  0.6279
  480MOL0     C64723   2.518   1.864  -0.203 -0.5124 -0.2032 -0.6727
  480MOL0     O64724   2.595   1.935  -0.279 -0.2502 -0.0360  0.2692
  480MOL0     C64725   2.576   1.946  -0.420  0.6878 -0.1921  0.4976
  480MOL0     C64726   2.709   1.989  -0.476  0.0759  0.0625 -0.4681
  480MOL0     C64727   2.824   1.901  -0.431 -0.5754  0.3818  1.0844
  480MOL0     C64728   2.883   1.824  -0.552 -0.7979 -0.9341 -0.3311
  480MOL0     C64729   2.968   1.921  -0.621  0.2444 -0.3678  0.4310
  480MOL0     C64730   3.028   2.009  -0.678 -0.4562 -0.7545 -0.7894
  480MOL0     C64731   2.561   1.862  -0.058 -0.7460  0.2315  1.0319
  480MOL0     C64732   2.499   1.788   0.040  0.5449 -0.1059  0.7694
  480MOL0     H64733   2.097   1.716   0.255  1.5441  0.4322  3.2260
  480MOL0     H64734   1.983   1.641   0.462  2.9824 -0.8093  1.9636
  480MOL0     H64735   1.794   1.551   0.535 -2.5713  0.2851  1.5718
  480MOL0     H64736   1.758   1.432   0.643 -2.3979  1.5927 -2.9661
  480MOL0     H64737   2.048   1.546   0.668 -0.3236  3.8420  0.0008
  480MOL0     H64738   1.902   1.643   0.715  1.1737  0.6524  0.5252
  480MOL0     H64739   1.842   1.446   0.858  1.7032 -3.2613  0.5724
  480MOL0     H64740   1.994   1.380   0.808 -1.9542 -1.0159 -1.2160
  480MOL0     H64741   2.108   1.594   0.879  0.4324  0.2575 -0.5280
  480MOL0     H64742   1.949   1.660   0.941  2.0276 -0.4543  2.2963
  480MOL0     H64743   2.051   1.594   1.145 -2.4744 -2.0632  1.6298
  480MOL0     H64744   1.939   1.478   1.103 -0.5229 -0.2771 -0.3129
  480MOL0     H64745   2.099   1.313   1.047  1.6819 -0.6702  0.0547
  480MOL0     H64746   2.230   1.426   1.062  0.1681  0.7671  0.2926
  480MOL0     H64747   2.052   1.396   1.302  1.0973 -0.5268  1.6787
  480MOL0     H64748   2.164   1.264   1.251 -1.2118  0.1242 -0.5070
  480MOL0     H64749   2.243   1.480   1.410  1.0043  0.5235  0.1097
  480MOL0     H64750   2.275   1.541   1.250  1.3398 -1.2449  0.1478
  480MOL0     H64751   2.480   1.418   1.112  0.0072 -0.8507 -0.0305
  480MOL0     H64752   2.674   1.234   1.089 -0.4173 -0.6363  0.1327
  480MOL0     H64753   2.746   1.367   1.171 -0.1591 -0.6218  0.0788
  480MOL0     H64754   2.755   1.060   1.236 -3.5580  0.4941  0.3277
  480MOL0     H64755   2.787   1.170   1.372 -1.3563  1.1313  0.0628
  480MOL0     H64756   2.967   1.287   1.228  1.2884  0.5065  1.5676
  480MOL0     H64757   2.950   1.170   1.099  3.1963 -0.4837  1.1765
  480MOL0     H64758   2.996   0.983   1.272 -2.3447 -0.4955  2.5790
  480MOL0     H64759   3.044   1.097   1.383  0.1162 -2.5090 -0.2189
  480MOL0     H64760   3.391   1.199   1.210 -1.0472 -0.0383 -0.6732
  480MOL0     H64761   3.666   1.132   1.417 -0.5775  2.2338 -0.5201
  480MOL0     H64762   3.702   1.068   1.260 -3.4232 -6.4313 -0.1150
  480MOL0     H64763   3.604   1.220   1.285 -2.3807  0.4874  2.7637
  480MOL0     H64764   3.804   0.632   1.471 -0.7190 -0.0462  0.8498
  480MOL0     H64765   4.022   0.552   1.518  1.2814 -0.1951 -0.5860
  480MOL0     H64766   4.217   0.548   1.605  0.3188  1.4732  0.0802
  480MOL0     H64767   4.267   0.570   1.441 -1.6059 -0.6823 -0.1349
  480MOL0     H64768   4.396   0.484   1.679  0.4070  1.2478  0.7502
  480MOL0     H64769   4.491   0.521   1.532 -1.3714  0.0910 -1.2028
  480MOL0     H64770   4.439   0.701   1.775  0.9923 -0.8430  0.4443
  480MOL0     H64771   4.476   0.762   1.614  1.2102  0.8159  0.1223
  480MOL0     H64772   4.666   0.582   1.770 -1.8585  1.3447  0.8045
  480MOL0     H64773   4.706   0.651   1.620 -1.3406 -0.7674 -1.7596
  480MOL0     H64774   4.611   0.853   1.828  2.2734  1.9913  0.4840
  480MOL0     H64775   4.704   0.864   1.683 -1.9461 -0.6366 -0.9040
  480MOL0     H64776   4.785   0.723   1.951  3.0051 -3.9710 -0.1938
  480MOL0     H64777   4.875   0.699   1.804  2.4971  2.3644 -1.0511
  480MOL0     H64778   4.846   0.965   1.953 -0.0828 -2.2128  2.3848
  480MOL0     H64779   4.883   0.962   1.783 -2.9468  1.2137  0.8873
  480MOL0     H64780   5.086   0.969   1.901  1.0690 -0.6827  1.4918
  480MOL0     H64781   5.075   0.812   1.831 -0.4152  0.9439 -1.7031
  480MOL0     H64782   4.180   0.956   1.484  1.7895 -1.4773 -0.2254
  480MOL0     H64783   3.954   1.036   1.416  2.0003  0.7906 -2.5830
  480MOL0     H64784   3.356   0.771   1.466 -3.3715  1.1173 -0.7128
  480MOL0     H64785   3.159   0.876   1.374 -0.1095 -1.4936 -2.7594
  480MOL0     H64786   1.976   1.240   0.292  0.1964 -0.8209  1.6587
  480MOL0     H64787   2.090   1.326   0.085 -4.2272 -1.6508 -0.8346
  480MOL0     H64788   2.245   1.667  -0.158 -0.0288  0.8261 -1.0068
  480MOL0     H64789   2.369   1.795  -0.330 -0.2969 -0.9016  0.5637
  480MOL0     H64790   2.548   1.859  -0.481 -0.5873 -0.1543  1.0108
  480MOL0     H64791   2.506   2.029  -0.431  1.3738  0.2631 -0.7092
  480MOL0     H64792   2.721   2.092  -0.441 -2.9544  0.7035 -1.0542
  480MOL0     H64793   2.709   2.007  -0.584 -0.9336  1.4432 -0.2695
  480MOL0     H64794   2.796   1.825  -0.358  0.7287 -0.7904  0.4296
  480MOL0     H64795   2.897   1.980  -0.416  2.2400  0.1493 -6.6801
  480MOL0     H64796   2.806   1.783  -0.618 -1.4801 -0.6210  0.2588
  480MOL0     H64797   2.937   1.735  -0.518  0.2316 -0.9908 -1.9939
  480MOL0     H64798   3.089   2.084  -0.725  0.9223  0.2843  2.3755
  480MOL0     H64799   2.653   1.916  -0.040 -0.4422  0.4876 -1.0756
  480MOL0     H64800   2.531   1.789   0.144 -1.9999  1.7342  1.6460
  481MOL0     O64801   5.456   9.960   3.804 -0.7522 -0.1377 -0.1056
  481MOL0     C64802   5.516   9.971   3.907  0.2072  1.1759 -0.1153
  481MOL0     O64803   5.458  10.007   4.028  0.6217  0.3951 -0.1976
  481MOL0     C64804   5.332  10.056   4.043 -0.9810 -0.1140 -0.9106
  481MOL0     C64805   5.282  10.069   4.173 -0.4928  0.1182  0.4089
  481MOL0     C64806   5.155  10.114   4.196  0.6623  0.3640 -0.6269
  481MOL0     C64807   5.074  10.161   4.094  0.1213  0.4893  0.7093
  481MOL0     O64808   4.962  10.237   4.122 -0.1274 -0.0250  0.1627
  481MOL0     C64809   4.842  10.159   4.158  0.3165  0.6578  0.2392
  481MOL0     C64810   4.718  10.242   4.199 -0.1039 -0.1738 -0.1549
  481MOL0     C64811   4.595  10.148   4.222  1.2701  0.6324  0.6309
  481MOL0     C64812   4.505  10.128   4.103  0.4185 -0.7438  0.0307
  481MOL0     C64813   4.390  10.038   4.163 -0.4739  0.2278 -0.1059
  481MOL0     C64814   4.274  10.052   4.068  0.5541 -0.9864 -0.2336
  481MOL0     C64815   4.148   9.973   4.110  0.0019  0.2397  0.5568
  481MOL0     C64816   4.042   9.974   4.002  0.7891  0.0861 -1.0464
  481MOL0     N64817   3.940  10.078   4.029  0.2380 -0.0221  0.0441
  481MOL0     C64818   3.805  10.061   4.052 -0.1066  0.2308  0.5160
  481MOL0     C64819   3.750  10.180   4.059 -0.3168 -0.7262 -0.9415
  481MOL0     C64820   3.601  10.206   4.080 -0.6313  0.3083  0.3415
  481MOL0     C64821   3.527  10.272   3.969 -0.4638  0.0921  0.3741
  481MOL0     C64822   3.426  10.176   3.898  0.8699 -0.1032 -0.2104
  481MOL0     C64823   3.320  10.095   3.984 -0.5975  1.0803  0.7321
  481MOL0     O64824   3.202  10.176   3.966  0.0366  0.3344  0.1252
  481MOL0     C64825   3.086  10.111   3.981 -0.6344  0.7619  0.6433
  481MOL0     C64826   3.064   9.974   4.010 -0.1794 -0.0290  0.0806
  481MOL0     C64827   2.938   9.918   4.014  0.2276  0.8843 -0.4793
  481MOL0     C64828   2.935   9.772   4.061 -0.6802  0.2344  0.2183
  481MOL0     C64829   2.830  10.008   3.996 -0.1745  0.7876  0.7632
  481MOL0     C64830   2.688   9.956   3.978 -0.3543  0.0050 -0.0447
  481MOL0     O64831   2.665   9.814   3.986 -0.1413 -0.0688  0.0600
  481MOL0     C64832   2.589   9.748   3.897  0.1084 -0.0182 -1.2595
  481MOL0     C64833   2.571   9.611   3.924 -0.1395 -0.5296  0.5320
  481MOL0     C64834   2.491   9.524   3.857 -0.3328 -0.0516  0.7146
  481MOL0     C64835   2.423   9.573   3.743 -0.3264  0.4284  0.0539
  481MOL0     O64836   2.331   9.499   3.673 -0.5961  0.0369  0.1894
  481MOL0     C64837   2.207   9.554   3.636  0.0293 -0.5325 -0.1332
  481MOL0     C64838   2.116   9.432   3.598 -0.0191  0.1013  0.4077
  481MOL0     C64839   1.963   9.470   3.576  0.1353 -0.3320 -0.3846
  481MOL0     C64840   1.885   9.348   3.564  0.2074  0.4656 -0.0695
  481MOL0     C64841   1.891   9.251   3.681 -0.1537  0.6326 -0.7437
  481MOL0     C64842   1.934   9.109   3.646 -0.1421 -0.0841 -0.6376
  481MOL0     C64843   1.975   9.041   3.778  0.8644  0.8271 -0.6427
  481MOL0     C64844   2.020   8.895   3.755  0.1216 -0.3791  0.7997
  481MOL0    Cl64845   2.197   8.903   3.719 -0.0665  0.4047  0.3826
  481MOL0     C64846   2.454   9.703   3.698 -0.3002 -0.3650  0.2825
  481MOL0     C64847   2.539   9.783   3.773 -0.6811  0.6635 -0.0325
  481MOL0     O64848   2.608  10.039   3.945  0.0030 -0.5542  0.1287
  481MOL0     C64849   2.855  10.144   3.972  0.6892  0.3804  0.7813
  481MOL0     C64850   2.981  10.193   3.965  0.0417 -0.1758 -0.2457
  481MOL0     N64851   3.851  10.273   4.031  0.4902  0.6161  0.4234
  481MOL0     N64852   3.962  10.211   4.031  0.3604  0.0342  0.8338
  481MOL0     C64853   5.113  10.157   3.959 -0.4202  0.1968  0.2033
  481MOL0     C64854   5.239  10.093   3.933 -0.0067 -0.5946  0.5239
  481MOL0     C64855   5.657   9.940   3.921 -0.2244 -1.2297 -0.3163
  481MOL0     C64856   5.728   9.959   4.034 -0.2013  0.2237 -0.0531
  481MOL0     C64857   5.851   9.897   4.059  0.0346 -1.0804  0.1572
  481MOL0     C64858   5.921   9.829   3.953 -0.4559  0.5417 -0.6290
  481MOL0     O64859   6.047   9.776   3.983 -0.0491 -0.0879 -0.4028
  481MOL0     C64860   6.079   9.763   4.127  0.1366 -1.0546  0.3780
  481MOL0     C64861   6.194   9.662   4.144 -0.0891 -0.2811  0.2538
  481MOL0     C64862   6.337   9.729   4.152  0.6792 -0.0671  0.3241
  481MOL0     C64863   6.370   9.821   4.028 -0.7508  0.4756  0.0571
  481MOL0     C64864   6.515   9.876   4.030  0.3559  0.4289  0.5830
  481MOL0     C64865   6.630   9.899   4.047  0.2636 -0.4595  0.7233
  481MOL0     C64866   5.853   9.828   3.832  0.1683  0.0964 -0.5323
  481MOL0     C64867   5.721   9.882   3.817 -0.2816  0.0178 -0.0721
  481MOL0     H64868   5.350  10.030   4.248  0.4850 -4.3267 -2.3968
  481MOL0     H64869   5.120  10.108   4.299  1.1474  2.7835 -0.2704
  481MOL0     H64870   4.827  10.094   4.070  4.2100  1.0235 -0.9020
  481MOL0     H64871   4.876  10.092   4.238  0.4240 -2.9626 -2.5248
  481MOL0     H64872   4.731  10.288   4.297 -2.0231  0.0554  0.0178
  481MOL0     H64873   4.695  10.311   4.118  1.0332  0.5642  0.1233
  481MOL0     H64874   4.627  10.062   4.282 -2.2178 -1.8893 -0.7104
  481MOL0     H64875   4.538  10.202   4.297 -0.9936  0.2080 -0.6779
  481MOL0     H64876   4.472  10.228   4.072 -2.3212 -1.9431 -1.2491
  481MOL0     H64877   4.567  10.079   4.028  0.0337 -0.6490 -0.3515
  481MOL0     H64878   4.440   9.941   4.168  0.3237  0.6654  2.6327
  481MOL0     H64879   4.359  10.060   4.266 -1.5203  1.9786 -0.7531
  481MOL0     H64880   4.247  10.156   4.050 -1.4204 -1.6800 -1.6701
  481MOL0     H64881   4.295  10.013   3.968  1.0879 -2.1953  0.3225
  481MOL0     H64882   4.177   9.869   4.131 -1.8263 -0.8211 -1.7041
  481MOL0     H64883   4.109  10.030   4.194  1.8713  3.2576 -0.4588
  481MOL0     H64884   3.996   9.875   3.999 -1.9799  0.9660  3.0678
  481MOL0     H64885   4.080   9.994   3.901 -1.3663  0.4891 -1.8214
  481MOL0     H64886   3.760   9.962   4.066  1.2630 -1.4056 -4.5604
  481MOL0     H64887   3.551  10.115   4.116  0.5201 -0.9208 -1.0906
  481MOL0     H64888   3.603  10.274   4.166 -2.3138  1.8141 -0.7301
  481MOL0     H64889   3.596  10.326   3.903 -2.5257 -0.4350 -2.3798
  481MOL0     H64890   3.481  10.347   4.034 -2.4329 -1.5400  0.9855
  481MOL0     H64891   3.483  10.099   3.846 -0.3218 -0.7442 -0.5966
  481MOL0     H64892   3.382  10.235   3.818 -0.8801  2.1332  2.2189
  481MOL0     H64893   3.352  10.083   4.088  1.8271 -1.0683 -0.1574
  481MOL0     H64894   3.309  10.001   3.929 -0.1252  1.1618  0.4925
  481MOL0     H64895   3.141   9.902   4.037 -0.4574  0.1276  1.3803
  481MOL0     H64896   2.870   9.772   4.149  0.1421 -0.0785  0.8352
  481MOL0     H64897   2.893   9.702   3.988  1.0380  0.8494 -1.4673
  481MOL0     H64898   3.031   9.732   4.094 -0.0481  2.0837  0.7357
  481MOL0     H64899   2.617   9.561   4.009  1.5261  0.4591  0.2566
  481MOL0     H64900   2.487   9.419   3.883 -2.1706 -0.6886 -1.7717
  481MOL0     H64901   2.161   9.617   3.713 -1.0627 -0.1573 -1.0697
  481MOL0     H64902   2.207   9.616   3.547  0.7786 -0.3258  0.0038
  481MOL0     H64903   2.157   9.383   3.509 -1.8234 -0.2024 -0.3114
  481MOL0     H64904   2.119   9.360   3.680  1.1353  1.8762  1.9736
  481MOL0     H64905   1.942   9.522   3.482  0.9683 -1.6615 -1.3405
  481MOL0     H64906   1.935   9.536   3.659 -0.5202 -0.9133 -0.1393
  481MOL0     H64907   1.779   9.373   3.551  0.0314  0.1538  0.7300
  481MOL0     H64908   1.927   9.305   3.473  0.7074  1.8018 -0.4924
  481MOL0     H64909   1.785   9.240   3.707 -0.5673  2.4295 -1.4574
  481MOL0     H64910   1.948   9.282   3.768  1.3885 -2.3656 -0.5917
  481MOL0     H64911   1.857   9.053   3.591  1.8469 -3.2483 -0.4745
  481MOL0     H64912   2.015   9.123   3.574 -1.0698 -1.8154 -2.1112
  481MOL0     H64913   1.896   9.035   3.853  1.7917 -0.6718  0.2745
  481MOL0     H64914   2.051   9.092   3.839 -2.4898  3.1349  1.9965
  481MOL0     H64915   1.964   8.834   3.683 -0.5650 -0.6240  1.5352
  481MOL0     H64916   2.010   8.841   3.850  0.3052 -0.5241  0.7380
  481MOL0     H64917   2.420   9.766   3.616  1.1189  2.2793  1.5762
  481MOL0     H64918   2.561   9.888   3.759  1.8954  0.6703  2.8283
  481MOL0     H64919   2.780  10.222   3.965  1.4943  1.1517  0.6501
  481MOL0     H64920   2.984  10.299   3.942 -0.0335 -0.3824 -1.2463
  481MOL0     H64921   5.042  10.206   3.893  0.1822  2.4321  1.1297
  481MOL0     H64922   5.286  10.104   3.836  2.0552  0.5622  1.5925
  481MOL0     H64923   5.682  10.031   4.101  1.0508 -0.5723  1.7456
  481MOL0     H64924   5.892   9.940   4.150 -3.1908  0.5788  0.9766
  481MOL0     H64925   6.105   9.862   4.167  0.1276 -1.5831  1.7530
  481MOL0     H64926   5.992   9.718   4.175  1.3591 -5.0152 -0.6680
  481MOL0     H64927   6.191   9.582   4.069 -0.6544 -0.0050 -0.0253
  481MOL0     H64928   6.166   9.610   4.235 -1.6914 -1.6325 -0.9584
  481MOL0     H64929   6.415   9.653   4.163  1.2747  0.3066 -1.0604
  481MOL0     H64930   6.334   9.774   4.251 -1.5658  0.3681  0.1050
  481MOL0     H64931   6.308   9.910   4.033  0.2950  1.2406 -0.2367
  481MOL0     H64932   6.340   9.757   3.944 -0.5387  1.6125 -0.9166
  481MOL0     H64933   6.727   9.940   4.068  0.7336 -1.2523  0.1457
  481MOL0     H64934   5.897   9.787   3.742 -1.0278  1.6231 -1.8706
  481MOL0     H64935   5.676   9.888   3.718 -1.1727  2.0548  0.4177
  482MOL0     O64936   3.592   1.352  11.303  0.1339 -0.0459 -0.3242
  482MOL0     C64937   3.698   1.380  11.353 -0.6538  0.3286 -0.4486
  482MOL0     O64938   3.719   1.491  11.435  0.7645  0.0231 -0.1679
  482MOL0     C64939   3.615   1.553  11.480  1.2107  0.2115 -0.4067
  482MOL0     C64940   3.528   1.498  11.578  0.1200 -0.2371  1.5935
  482MOL0     C64941   3.422   1.572  11.637 -1.4159 -0.0511  0.3704
  482MOL0     C64942   3.392   1.699  11.580 -0.2800 -0.0596 -0.6684
  482MOL0     O64943   3.281   1.764  11.628 -0.0849 -0.2993  0.6674
  482MOL0     C64944   3.241   1.897  11.588 -0.0662 -0.7258  0.4270
  482MOL0     C64945   3.120   1.955  11.662  0.9069 -0.3063 -0.2747
  482MOL0     C64946   3.138   1.988  11.807  0.0926 -0.2620 -0.3668
  482MOL0     C64947   3.004   2.005  11.873 -0.1102 -0.3667 -0.1447
  482MOL0     C64948   3.005   2.060  12.018 -0.4692 -0.3979 -0.6063
  482MOL0     C64949   3.053   1.949  12.113  0.4145 -0.3446 -0.2797
  482MOL0     C64950   3.037   2.002  12.254 -0.0831 -0.1669  0.9572
  482MOL0     C64951   3.170   2.065  12.292  0.0472  0.2166 -0.3130
  482MOL0     N64952   3.169   2.148  12.411 -0.4510 -0.4545  0.1049
  482MOL0     C64953   3.099   2.266  12.410 -0.3402  0.1485 -0.0901
  482MOL0     C64954   3.062   2.293  12.535  0.0355 -0.0665  0.1712
  482MOL0     C64955   2.983   2.403  12.592 -0.3716  0.5667 -0.8140
  482MOL0     C64956   2.849   2.426  12.516  0.0404  0.7004  0.9009
  482MOL0     C64957   2.767   2.286  12.522 -0.4352  0.1146  0.7220
  482MOL0     C64958   2.650   2.313  12.433 -0.2121 -0.4396 -0.4886
  482MOL0     O64959   2.577   2.187  12.427  0.3541 -0.6397 -0.2008
  482MOL0     C64960   2.544   2.161  12.295  0.4433 -0.0793 -0.4641
  482MOL0     C64961   2.594   2.050  12.233  0.5923 -0.0882 -0.5218
  482MOL0     C64962   2.556   2.019  12.100 -0.1268  0.1077  0.2466
  482MOL0     C64963   2.643   1.914  12.028  0.4983 -0.0568  0.4796
  482MOL0     C64964   2.465   2.093  12.029  1.0702 -1.1613  0.2603
  482MOL0     C64965   2.408   2.059  11.893 -0.0387 -0.2881  1.0362
  482MOL0     O64966   2.351   2.157  11.823 -0.1845  0.3482  0.0035
  482MOL0     C64967   2.279   2.119  11.713 -0.0677  0.2189  0.6861
  482MOL0     C64968   2.338   2.142  11.581  0.1771  0.7867  0.6734
  482MOL0     C64969   2.275   2.081  11.469 -0.0610 -0.9743 -0.1003
  482MOL0     C64970   2.147   2.012  11.482  0.1899 -0.5344 -0.7834
  482MOL0     O64971   2.051   1.975  11.388 -0.3184 -0.2847 -0.6787
  482MOL0     C64972   2.087   1.989  11.246 -0.2289 -0.4692  0.2990
  482MOL0     C64973   2.071   2.126  11.183  0.2806 -0.4310 -0.3485
  482MOL0     C64974   1.929   2.184  11.205 -0.7273 -0.3526  0.2959
  482MOL0     C64975   1.926   2.340  11.161  0.4308  0.2539 -0.6236
  482MOL0     C64976   1.797   2.398  11.205  0.8538  0.4507  0.0639
  482MOL0     C64977   1.797   2.544  11.218 -0.7797 -0.5515 -0.3926
  482MOL0     C64978   1.857   2.625  11.098  0.7534  0.4486  0.1303
  482MOL0     C64979   1.771   2.625  10.981 -0.4021  0.3094 -0.6625
  482MOL0    Cl64980   1.611   2.692  10.995  0.0346 -0.2039 -0.2344
  482MOL0     C64981   2.093   1.992  11.612 -1.3100 -0.2882 -0.1443
  482MOL0     C64982   2.161   2.045  11.720 -0.0511  0.8704 -0.3719
  482MOL0     O64983   2.412   1.944  11.851  0.2195 -0.6474  0.0794
  482MOL0     C64984   2.420   2.214  12.094 -0.8519  0.2642  0.3230
  482MOL0     C64985   2.459   2.246  12.226  0.5018 -0.0328 -0.9724
  482MOL0     N64986   3.115   2.197  12.616  0.2338 -0.5977  0.1927
  482MOL0     N64987   3.179   2.115  12.547  0.5728  0.1454 -0.1355
  482MOL0     C64988   3.469   1.746  11.475 -0.1543  1.0139  0.5658
  482MOL0     C64989   3.584   1.680  11.425  0.0963  0.1084  0.1032
  482MOL0     C64990   3.822   1.308  11.308 -0.1281  0.2277  0.6479
  482MOL0     C64991   3.952   1.300  11.367  0.2524 -0.1033  0.3884
  482MOL0     C64992   4.065   1.260  11.296 -0.0111 -0.3565  0.5921
  482MOL0     C64993   4.055   1.198  11.172 -0.4255 -0.4940  0.3813
  482MOL0     O64994   4.170   1.135  11.143 -0.1153 -0.4699 -0.3947
  482MOL0     C64995   4.173   1.056  11.029  0.0563  0.3524  0.4402
  482MOL0     C64996   4.114   0.906  11.056 -0.2664  0.3705 -0.0980
  482MOL0     C64997   4.169   0.813  10.949 -0.8431  0.1486  0.5791
  482MOL0     C64998   4.299   0.732  10.995  0.6400  0.4464  0.2687
  482MOL0     C64999   4.408   0.820  11.027  0.2661 -0.4808 -0.3114
  482MOL0     C65000   4.512   0.878  11.063  1.0869  0.4106  0.6023
  482MOL0     C65001   3.929   1.182  11.118 -0.4648 -0.1189 -0.0401
  482MOL0     C65002   3.817   1.236  11.178  0.5936  0.8207 -0.6594
  482MOL0     H65003   3.540   1.396  11.616  1.1319 -0.9008 -0.3482
  482MOL0     H65004   3.370   1.524  11.719 -1.3588 -0.5410  0.1275
  482MOL0     H65005   3.326   1.966  11.596 -1.0821  0.9510 -1.9315
  482MOL0     H65006   3.216   1.886  11.482  0.2728  1.3832  0.0735
  482MOL0     H65007   3.108   2.053  11.616  1.5314 -0.7383 -1.3918
  482MOL0     H65008   3.038   1.884  11.644  2.3200 -2.3291  0.8849
  482MOL0     H65009   3.192   1.910  11.861 -0.0082  0.4854  0.8461
  482MOL0     H65010   3.193   2.082  11.815 -0.7552  0.2492 -0.4174
  482MOL0     H65011   2.943   2.082  11.825 -0.1528 -1.3413 -1.7288
  482MOL0     H65012   2.941   1.915  11.872 -1.7079  0.7096 -0.8140
  482MOL0     H65013   3.056   2.157  12.020 -0.1129 -0.5360 -1.7889
  482MOL0     H65014   2.898   2.077  12.031 -0.9650 -2.9994 -0.7529
  482MOL0     H65015   2.991   1.859  12.105  0.8417 -0.8346  1.5896
  482MOL0     H65016   3.153   1.915  12.084  1.2220 -1.7983  3.6718
  482MOL0     H65017   2.961   2.079  12.266  1.5675  1.8674 -0.7666
  482MOL0     H65018   3.001   1.931  12.329 -1.6634 -0.7570 -0.3116
  482MOL0     H65019   3.207   2.123  12.207  0.6262  3.3942  1.9418
  482MOL0     H65020   3.242   1.986  12.317 -1.3766 -1.0765 -0.1423
  482MOL0     H65021   3.086   2.329  12.323  0.6306  3.1496  1.7876
  482MOL0     H65022   2.955   2.377  12.694 -1.7400  2.6883 -0.5790
  482MOL0     H65023   3.041   2.495  12.602  1.6213 -0.8569  1.7992
  482MOL0     H65024   2.891   2.428  12.416  2.8347 -2.5222  1.8448
  482MOL0     H65025   2.788   2.508  12.555 -1.1861 -0.7244  2.1337
  482MOL0     H65026   2.744   2.259  12.626  0.6397  1.4252  1.3305
  482MOL0     H65027   2.821   2.204  12.474 -1.0426  0.6571 -0.9478
  482MOL0     H65028   2.688   2.336  12.333 -3.7428 -1.0944 -2.1172
  482MOL0     H65029   2.597   2.402  12.468  1.0621 -0.9523  3.1808
  482MOL0     H65030   2.663   1.985  12.284 -2.3096 -1.0144  2.5866
  482MOL0     H65031   2.658   1.956  11.928  1.0527 -0.2280  0.4894
  482MOL0     H65032   2.746   1.904  12.062  0.6707  1.4998  0.4775
  482MOL0     H65033   2.587   1.820  12.021 -0.0846  0.3698 -0.9257
  482MOL0     H65034   2.432   2.193  11.565  0.7582  0.0903  1.7732
  482MOL0     H65035   2.309   2.105  11.369 -0.7061 -3.1170 -0.8782
  482MOL0     H65036   2.193   1.965  11.230 -1.0995 -2.3595 -4.3802
  482MOL0     H65037   2.025   1.920  11.189 -2.1981 -1.4571  3.4144
  482MOL0     H65038   2.143   2.189  11.237  1.5835 -0.1228 -2.3125
  482MOL0     H65039   2.113   2.130  11.082  1.5975  1.9458  0.2090
  482MOL0     H65040   1.927   2.189  11.314  1.5932 -1.7825  0.4768
  482MOL0     H65041   1.843   2.132  11.161 -2.4397  2.7767 -0.3683
  482MOL0     H65042   2.015   2.385  11.204  0.2242  1.9031 -1.8517
  482MOL0     H65043   1.932   2.341  11.052  1.7585 -3.5242 -0.7435
  482MOL0     H65044   1.757   2.355  11.298 -1.6915 -1.0227 -1.5946
  482MOL0     H65045   1.722   2.371  11.130 -0.3157 -0.4987  1.4968
  482MOL0     H65046   1.696   2.578  11.242  0.0762  1.7893  0.1585
  482MOL0     H65047   1.866   2.574  11.298 -1.6553 -2.4563  1.1615
  482MOL0     H65048   1.952   2.578  11.069  2.1416  2.6927  0.7852
  482MOL0     H65049   1.882   2.727  11.126 -0.1409  0.7495 -0.1400
  482MOL0     H65050   1.747   2.526  10.941 -2.4985  0.1349  0.8998
  482MOL0     H65051   1.825   2.682  10.905  2.4402  1.5890  2.1123
  482MOL0     H65052   1.998   1.943  11.628 -2.8002  2.6533  0.6530
  482MOL0     H65053   2.124   2.028  11.821  2.9581  3.9464  1.5006
  482MOL0     H65054   2.353   2.287  12.050  0.3175  1.4458  0.4490
  482MOL0     H65055   2.416   2.334  12.272 -0.1091 -0.2767 -1.0777
  482MOL0     H65056   3.447   1.845  11.435 -1.0953  0.3143 -0.7086
  482MOL0     H65057   3.645   1.730  11.350 -0.5466 -0.0093 -0.5027
  482MOL0     H65058   3.954   1.340  11.468  2.3076  1.3007 -0.1480
  482MOL0     H65059   4.154   1.263  11.358 -0.2302  1.0761  0.8872
  482MOL0     H65060   4.112   1.101  10.950  0.8719  0.6233 -0.0431
  482MOL0     H65061   4.268   1.042  10.977 -0.5797 -2.8467 -0.0738
  482MOL0     H65062   4.006   0.916  11.042  0.0874  2.7863 -1.7120
  482MOL0     H65063   4.139   0.868  11.155 -2.4005 -3.0490 -0.7085
  482MOL0     H65064   4.192   0.863  10.854 -3.4892  0.3514 -0.0255
  482MOL0     H65065   4.089   0.746  10.917 -3.2732  3.8935 -2.1595
  482MOL0     H65066   4.326   0.666  10.912 -1.6124  0.8365 -0.8447
  482MOL0     H65067   4.275   0.672  11.084 -1.9080  1.5733  0.4270
  482MOL0     H65068   4.596   0.942  11.078  0.8212  0.9129  0.0195
  482MOL0     H65069   3.920   1.117  11.031 -3.1636  1.6655 -1.2296
  482MOL0     H65070   3.724   1.222  11.122  1.5110  1.2359 -2.3653
  483MOL0     O65071   0.865   7.946   7.559  0.3866  0.1004 -0.5568
  483MOL0     C65072   0.954   7.927   7.477 -0.4616  0.1426 -0.1162
  483MOL0     O65073   1.033   7.810   7.466 -0.7330 -0.6663  0.3990
  483MOL0     C65074   1.016   7.739   7.577  0.6143 -0.1099 -0.3895
  483MOL0     C65075   1.120   7.751   7.671 -0.2666 -0.1772  0.5131
  483MOL0     C65076   1.099   7.674   7.785 -0.2100  0.9634 -0.3015
  483MOL0     C65077   0.978   7.611   7.816  0.9042 -0.1505 -0.0670
  483MOL0     O65078   0.957   7.533   7.929 -1.1326 -0.5588 -0.0422
  483MOL0     C65079   1.058   7.518   8.029  0.2415 -0.3103 -0.2189
  483MOL0     C65080   1.034   7.428   8.152  0.8292  0.3491  0.5478
  483MOL0     C65081   0.882   7.426   8.206 -0.3166  0.7960  0.2986
  483MOL0     C65082   0.872   7.338   8.330 -0.3667  0.2343 -0.6176
  483MOL0     C65083   0.941   7.404   8.456  1.5257 -0.3875  0.2808
  483MOL0     C65084   0.887   7.357   8.593 -0.3202  0.4487  0.3285
  483MOL0     C65085   0.949   7.221   8.630  0.0559 -0.2788  0.4601
  483MOL0     C65086   0.888   7.185   8.770  0.0065  0.1635  0.2993
  483MOL0     N65087   0.900   7.038   8.800 -0.3448 -0.1572  1.3703
  483MOL0     C65088   0.822   6.922   8.776  0.6052  0.7709 -0.4811
  483MOL0     C65089   0.873   6.824   8.850  0.2271 -0.0778  0.4910
  483MOL0     C65090   0.816   6.681   8.866  0.4910 -0.2801 -0.8004
  483MOL0     C65091   0.876   6.575   8.776 -0.9507  0.4739  0.7490
  483MOL0     C65092   1.015   6.546   8.797  0.4184 -0.2084  0.3674
  483MOL0     C65093   1.067   6.410   8.757 -0.2853 -0.2310  0.2019
  483MOL0     O65094   1.204   6.388   8.802  0.5542  0.3468 -0.0441
  483MOL0     C65095   1.241   6.257   8.835  0.4148  0.0659 -0.6556
  483MOL0     C65096   1.333   6.243   8.927  0.4831 -0.2240 -0.6244
  483MOL0     C65097   1.384   6.121   8.961 -0.0178  0.5465 -0.2457
  483MOL0     C65098   1.509   6.122   9.045 -0.2886 -0.2983 -0.6257
  483MOL0     C65099   1.336   6.001   8.896 -0.0563 -0.1088 -0.0191
  483MOL0     C65100   1.389   5.858   8.925 -0.0439  0.3938 -0.1016
  483MOL0     O65101   1.519   5.831   8.958  0.7720  0.6737 -0.5136
  483MOL0     C65102   1.562   5.699   8.969  0.7318 -0.3489 -0.1748
  483MOL0     C65103   1.538   5.602   8.867 -0.7590 -0.0321  0.2225
  483MOL0     C65104   1.576   5.472   8.890 -0.9637 -0.0499  1.1630
  483MOL0     C65105   1.634   5.425   9.006 -0.7116 -0.8655 -0.7669
  483MOL0     O65106   1.640   5.287   9.032 -0.3426  0.6813  0.9272
  483MOL0     C65107   1.641   5.188   8.928  0.4199  0.2612 -0.1222
  483MOL0     C65108   1.490   5.149   8.892 -0.8513  0.3680 -1.3380
  483MOL0     C65109   1.411   5.109   9.017 -0.0700  0.2731  0.1586
  483MOL0     C65110   1.269   5.040   9.002 -0.6822  0.3947  0.1202
  483MOL0     C65111   1.298   4.889   8.969  0.7765 -0.3824 -0.5713
  483MOL0     C65112   1.231   4.822   8.846  0.3899  0.2505  0.9316
  483MOL0     C65113   1.092   4.874   8.828  0.6279 -0.4575  0.5047
  483MOL0     C65114   1.069   4.964   8.703  0.4427 -0.2048  0.7715
  483MOL0    Cl65115   1.082   4.847   8.558  0.4322 -0.5668 -0.4738
  483MOL0     C65116   1.642   5.521   9.118  0.5543  1.5541  0.9578
  483MOL0     C65117   1.604   5.661   9.097  0.9514  0.7082  0.2508
  483MOL0     O65118   1.298   5.770   8.907  0.0177  0.4485 -0.1446
  483MOL0     C65119   1.232   6.013   8.793 -0.9053 -0.9206 -0.2962
  483MOL0     C65120   1.182   6.142   8.769 -0.6707 -0.3836  0.5654
  483MOL0     N65121   0.986   6.873   8.908  0.1363 -0.1930 -0.5048
  483MOL0     N65122   0.999   6.997   8.878 -0.5460  0.5605 -1.1044
  483MOL0     C65123   0.870   7.613   7.730  0.6408 -0.9505 -0.0102
  483MOL0     C65124   0.894   7.669   7.605  0.3415 -0.5265  0.9867
  483MOL0     C65125   0.955   8.024   7.367  0.3718 -1.0926 -0.6102
  483MOL0     C65126   1.061   8.016   7.277  0.2276  0.3579 -0.0668
  483MOL0     C65127   1.067   8.096   7.157 -0.0836 -0.7626  0.3604
  483MOL0     C65128   0.976   8.206   7.148 -0.9603  0.0204  0.5447
  483MOL0     O65129   1.014   8.298   7.047 -0.6735  0.4197  0.0659
  483MOL0     C65130   0.920   8.409   7.022  0.5205 -0.5592 -0.6583
  483MOL0     C65131   0.967   8.508   6.916 -0.7068  0.5570 -0.9662
  483MOL0     C65132   0.873   8.641   6.909 -0.2350 -0.3215 -0.5524
  483MOL0     C65133   0.905   8.726   6.791 -0.2836 -0.6089  0.3625
  483MOL0     C65134   0.821   8.705   6.668  0.0429 -0.0800  0.7641
  483MOL0     C65135   0.727   8.706   6.583  0.0905 -0.3901 -0.2809
  483MOL0     C65136   0.862   8.211   7.226 -1.0964 -0.1605 -0.1246
  483MOL0     C65137   0.853   8.129   7.338 -0.9087 -0.0493 -0.0313
  483MOL0     H65138   1.211   7.810   7.659 -0.3908 -0.1942 -0.6242
  483MOL0     H65139   1.167   7.666   7.869 -3.1325 -2.0395  2.0761
  483MOL0     H65140   1.147   7.475   7.982  0.9685  1.6450 -0.7229
  483MOL0     H65141   1.069   7.623   8.057  1.0633 -0.5581  0.4391
  483MOL0     H65142   1.050   7.325   8.121 -0.3647 -0.6530  3.0061
  483MOL0     H65143   1.103   7.459   8.232  2.0711 -1.5736  0.2855
  483MOL0     H65144   0.824   7.518   8.207  0.0952  1.2060 -2.8499
  483MOL0     H65145   0.835   7.367   8.127  3.7211 -0.7842 -1.2256
  483MOL0     H65146   0.768   7.308   8.345 -0.7264  2.4054  1.8399
  483MOL0     H65147   0.924   7.242   8.322 -1.1631 -0.1312 -1.5448
  483MOL0     H65148   1.049   7.395   8.469  1.2310  0.5485  5.6925
  483MOL0     H65149   0.910   7.509   8.451 -2.9016 -1.5287 -0.0264
  483MOL0     H65150   0.927   7.433   8.661  0.1134 -0.6720  1.3510
  483MOL0     H65151   0.779   7.347   8.601 -0.1964 -0.3930  1.0150
  483MOL0     H65152   0.922   7.139   8.563  1.7175 -1.1561  0.8236
  483MOL0     H65153   1.057   7.234   8.627  0.1077 -0.6155  0.7699
  483MOL0     H65154   0.781   7.208   8.776 -0.0853 -0.2041  0.1601
  483MOL0     H65155   0.945   7.236   8.848  1.9823 -0.5908 -0.5812
  483MOL0     H65156   0.734   6.919   8.713 -0.4720 -2.4794  0.9600
  483MOL0     H65157   0.827   6.644   8.968 -3.3361  1.5553  0.4494
  483MOL0     H65158   0.712   6.684   8.833  0.6203  0.8467 -1.1650
  483MOL0     H65159   0.860   6.612   8.674 -1.1459  0.2336  0.6911
  483MOL0     H65160   0.816   6.486   8.796  2.0712 -1.5433  1.7374
  483MOL0     H65161   1.041   6.569   8.901  3.4088 -1.8651  0.0917
  483MOL0     H65162   1.072   6.618   8.737 -1.4334 -0.0258 -1.2674
  483MOL0     H65163   1.068   6.411   8.647  4.4764  0.3768  0.0370
  483MOL0     H65164   1.010   6.329   8.802  0.7490 -3.1370 -3.2109
  483MOL0     H65165   1.367   6.340   8.963  3.4714 -0.8866 -1.4239
  483MOL0     H65166   1.517   6.033   9.107  3.5806 -1.2240 -2.1726
  483MOL0     H65167   1.603   6.130   8.989 -0.8413  4.5250 -1.3329
  483MOL0     H65168   1.520   6.210   9.109 -0.4437  0.1238 -1.1617
  483MOL0     H65169   1.478   5.612   8.777 -0.7236  1.0480  0.3140
  483MOL0     H65170   1.555   5.399   8.813 -0.6698 -1.1291  2.0894
  483MOL0     H65171   1.685   5.231   8.838 -3.0877  2.0341 -1.1540
  483MOL0     H65172   1.694   5.103   8.971 -0.3676 -0.0812  0.1902
  483MOL0     H65173   1.445   5.228   8.831  2.7139  2.1641 -1.9682
  483MOL0     H65174   1.516   5.061   8.833  0.7845 -0.0998 -0.0013
  483MOL0     H65175   1.388   5.205   9.063 -0.3214 -0.0505  0.7091
  483MOL0     H65176   1.471   5.044   9.080 -1.6407 -1.5460 -0.1288
  483MOL0     H65177   1.215   5.049   9.096  0.5054  1.9412  0.7001
  483MOL0     H65178   1.209   5.082   8.921 -1.4055  0.3182  0.6032
  483MOL0     H65179   1.280   4.825   9.057 -0.7110  1.2485  0.3708
  483MOL0     H65180   1.407   4.878   8.960  0.9263 -0.5593  1.1546
  483MOL0     H65181   1.295   4.854   8.763  0.8116 -1.1916  0.6668
  483MOL0     H65182   1.221   4.713   8.841  0.6103  0.2248 -3.8293
  483MOL0     H65183   1.053   4.922   8.918  2.6883 -3.1853  3.0411
  483MOL0     H65184   1.026   4.787   8.821 -2.0747  1.4210  1.3215
  483MOL0     H65185   1.155   5.031   8.697  3.0820 -3.3535  0.9688
  483MOL0     H65186   0.971   5.013   8.702 -0.6621 -2.2192 -2.2389
  483MOL0     H65187   1.669   5.494   9.220 -2.4097  1.5449  1.8476
  483MOL0     H65188   1.604   5.738   9.174  2.1300  0.8195  0.1674
  483MOL0     H65189   1.208   5.921   8.740  0.3442 -2.6333  1.9214
  483MOL0     H65190   1.118   6.166   8.684 -0.7471  0.6976  0.9050
  483MOL0     H65191   0.783   7.551   7.752  0.0789  0.3220  1.5428
  483MOL0     H65192   0.813   7.675   7.534  0.8741  1.2951  0.4831
  483MOL0     H65193   1.130   7.933   7.289  1.5561  0.7450 -3.6352
  483MOL0     H65194   1.146   8.087   7.083 -1.7840 -0.9524 -1.5497
  483MOL0     H65195   0.826   8.361   6.995 -1.2478  0.1002  3.4752
  483MOL0     H65196   0.897   8.469   7.111  0.2615 -0.6708 -0.6496
  483MOL0     H65197   0.954   8.453   6.822  0.6324  0.7475 -1.2713
  483MOL0     H65198   1.070   8.537   6.935 -0.3385 -2.1710  2.2156
  483MOL0     H65199   0.879   8.706   6.997  0.2642 -0.6823 -0.3146
  483MOL0     H65200   0.767   8.613   6.919  0.4926 -3.4374 -0.3189
  483MOL0     H65201   1.012   8.707   6.777 -0.0576 -0.1033  1.3390
  483MOL0     H65202   0.882   8.829   6.819 -3.4294 -1.3135  0.7470
  483MOL0     H65203   0.635   8.689   6.532 -1.0871 -0.7724  1.8948
  483MOL0     H65204   0.780   8.277   7.202 -0.0242  0.3934 -2.5893
  483MOL0     H65205   0.770   8.140   7.408 -0.4351  2.7024  0.2099
  484MOL0     O65206   1.737  10.441   4.043  0.4376  0.4551  0.0262
  484MOL0     C65207   1.801  10.339   4.020 -0.1981  0.3673 -0.2679
  484MOL0     O65208   1.750  10.212   4.009 -0.3602 -0.3546  0.4058
  484MOL0     C65209   1.622  10.174   4.002  1.1584 -0.0467  0.2625
  484MOL0     C65210   1.509  10.254   4.036  0.3376 -0.5626 -0.1919
  484MOL0     C65211   1.375  10.200   4.023 -0.9738 -1.0119  0.0993
  484MOL0     C65212   1.360  10.060   3.997  0.0270  0.6295 -0.0834
  484MOL0     O65213   1.239  10.006   3.981  0.1308  0.7808 -0.4131
  484MOL0     C65214   1.220   9.868   3.945 -0.7433 -0.4891 -0.1330
  484MOL0     C65215   1.079   9.835   3.946  0.0439 -0.4862 -0.1600
  484MOL0     C65216   1.012   9.912   3.825 -0.6619  0.3317  1.8620
  484MOL0     C65217   0.859   9.899   3.821 -0.1299  1.6110 -0.7221
  484MOL0     C65218   0.814   9.981   3.705 -0.3607 -0.7173  0.1869
  484MOL0     C65219   0.667   9.947   3.668  0.7399  0.7445  0.4268
  484MOL0     C65220   0.640  10.005   3.531 -0.0720 -0.1220  0.1207
  484MOL0     C65221   0.503   9.970   3.478 -0.5486 -0.5137 -0.1903
  484MOL0     N65222   0.480  10.010   3.338  0.4481 -0.2461  0.6323
  484MOL0     C65223   0.456  10.136   3.298  0.6248  0.3823 -0.4898
  484MOL0     C65224   0.451  10.122   3.168  0.5870  0.2306  0.3643
  484MOL0     C65225   0.434  10.234   3.076  0.5665  0.4625  0.5079
  484MOL0     C65226   0.541  10.333   3.111 -0.5004  0.0721 -0.3421
  484MOL0     C65227   0.686  10.271   3.129 -0.9423  0.2526  0.9307
  484MOL0     C65228   0.798  10.379   3.139  0.3516 -0.2724 -0.3947
  484MOL0     O65229   0.901  10.309   3.199 -0.5494  0.1854  0.8560
  484MOL0     C65230   1.029  10.361   3.216  0.0274  0.0705  0.3477
  484MOL0     C65231   1.058  10.485   3.156  1.0507 -0.4213 -0.7793
  484MOL0     C65232   1.182  10.538   3.162 -0.4536 -0.3089 -0.2066
  484MOL0     C65233   1.211  10.672   3.099 -0.2661 -0.9617  0.6025
  484MOL0     C65234   1.283  10.476   3.233 -0.8562  0.7861  0.5405
  484MOL0     C65235   1.431  10.523   3.257  0.4579  0.0145 -0.0776
  484MOL0     O65236   1.495  10.571   3.147 -0.4031 -0.3574 -0.4012
  484MOL0     C65237   1.609  10.641   3.187  0.2353  0.0146  0.0516
  484MOL0     C65238   1.732  10.591   3.158 -0.7863  0.5072  0.3163
  484MOL0     C65239   1.845  10.671   3.171 -0.1820  0.7061  1.0258
  484MOL0     C65240   1.838  10.805   3.224 -0.4661  1.4323  0.2984
  484MOL0     O65241   1.945  10.888   3.221  0.6229 -0.4953 -0.6367
  484MOL0     C65242   2.077  10.840   3.243  1.1951 -0.3178 -0.2933
  484MOL0     C65243   2.172  10.967   3.251 -0.0693  0.4526 -0.9451
  484MOL0     C65244   2.157  11.041   3.396  0.3987  1.4079 -0.9874
  484MOL0     C65245   2.299  11.079   3.451 -0.1262  0.3201  0.4692
  484MOL0     C65246   2.357  11.203   3.391  0.4958  0.4085  1.0788
  484MOL0     C65247   2.483  11.237   3.475 -0.2991  0.2978 -0.8879
  484MOL0     C65248   2.598  11.137   3.443 -0.6543  1.0493 -0.6178
  484MOL0     C65249   2.710  11.204   3.374 -0.3818 -0.6106 -0.2071
  484MOL0    Cl65250   2.789  11.329   3.485  0.2870  0.2756 -0.4809
  484MOL0     C65251   1.708  10.844   3.262 -0.5126  0.1163 -0.0462
  484MOL0     C65252   1.591  10.767   3.245  0.5826  0.3302  0.0688
  484MOL0     O65253   1.480  10.491   3.364 -0.4253  0.4088 -0.0694
  484MOL0     C65254   1.256  10.346   3.292 -0.2324 -0.1636  1.1873
  484MOL0     C65255   1.129  10.292   3.274  0.1071 -0.0163  0.5618
  484MOL0     N65256   0.470   9.990   3.138 -0.6801  0.3451 -0.1605
  484MOL0     N65257   0.487   9.912   3.239  1.0304 -0.1588  0.4819
  484MOL0     C65258   1.468   9.980   3.966 -0.7554  0.4542 -0.0160
  484MOL0     C65259   1.599  10.042   3.961  0.6530 -0.9132  0.6229
  484MOL0     C65260   1.948  10.349   4.024  0.8410 -1.7292 -0.2380
  484MOL0     C65261   2.027  10.242   4.011 -1.0838  0.3863 -0.1643
  484MOL0     C65262   2.162  10.248   4.010 -1.0189 -0.1418  0.5458
  484MOL0     C65263   2.224  10.372   4.027 -0.4673  0.1026  1.1301
  484MOL0     O65264   2.363  10.368   4.027  0.0984  0.2067 -0.2425
  484MOL0     C65265   2.426  10.472   4.109  1.3722 -0.2865 -1.0293
  484MOL0     C65266   2.573  10.434   4.141  0.1006  0.2038 -0.7912
  484MOL0     C65267   2.561  10.356   4.271  0.9568  0.5528 -0.2168
  484MOL0     C65268   2.697  10.284   4.309  1.4453  0.3705 -0.4074
  484MOL0     C65269   2.804  10.388   4.327  0.6180  0.5433  0.3047
  484MOL0     C65270   2.901  10.455   4.335 -0.7242 -0.0273 -0.2357
  484MOL0     C65271   2.142  10.493   4.037  0.8446  0.3002 -0.6769
  484MOL0     C65272   1.998  10.482   4.032 -0.9195  0.7015 -0.7020
  484MOL0     H65273   1.513  10.359   4.066 -0.0290 -0.7350  0.4783
  484MOL0     H65274   1.294  10.270   4.036  1.9622  2.4697  1.5001
  484MOL0     H65275   1.267   9.833   3.853  0.2784 -0.7641  0.4759
  484MOL0     H65276   1.260   9.798   4.019 -2.0330  1.4394  2.5815
  484MOL0     H65277   1.058   9.727   3.941 -1.1785 -0.2455 -0.6409
  484MOL0     H65278   1.035   9.879   4.036  0.4737  0.9012 -0.6096
  484MOL0     H65279   1.038  10.019   3.823  0.5908  0.0432  1.1487
  484MOL0     H65280   1.050   9.872   3.730  0.2840  3.6651  0.6913
  484MOL0     H65281   0.830   9.796   3.800  0.8149  0.7688  1.7398
  484MOL0     H65282   0.816   9.934   3.915  1.2873  1.7592 -0.0943
  484MOL0     H65283   0.833  10.086   3.732 -3.9006  0.1265 -0.0555
  484MOL0     H65284   0.882   9.974   3.619 -0.0383  0.0942  0.3631
  484MOL0     H65285   0.655   9.838   3.668  1.2365  0.6734 -0.5183
  484MOL0     H65286   0.593   9.994   3.733 -2.1187 -1.7216 -0.7627
  484MOL0     H65287   0.655  10.114   3.524 -1.7354  0.1190 -0.0874
  484MOL0     H65288   0.713   9.954   3.468  1.2242  0.3015  1.2168
  484MOL0     H65289   0.430  10.026   3.536  1.3394  0.3533  1.4487
  484MOL0     H65290   0.485   9.862   3.491  0.6612 -0.6070  0.8175
  484MOL0     H65291   0.441  10.222   3.362  0.4030 -0.9807  1.3833
  484MOL0     H65292   0.455  10.194   2.976 -1.8450  0.9261 -0.2435
  484MOL0     H65293   0.332  10.274   3.078  0.9439  1.7959 -2.2665
  484MOL0     H65294   0.529  10.373   3.212 -1.2420 -3.3902  1.0989
  484MOL0     H65295   0.531  10.418   3.042 -1.9087  0.0721 -0.1735
  484MOL0     H65296   0.711  10.196   3.053 -0.3938  3.0134 -1.8527
  484MOL0     H65297   0.684  10.226   3.228  0.2238  1.2343  1.4281
  484MOL0     H65298   0.765  10.463   3.202  1.6847  1.2925 -1.6704
  484MOL0     H65299   0.822  10.419   3.040  0.5212 -0.2608 -0.3493
  484MOL0     H65300   0.983  10.535   3.096 -0.5293  0.8561  2.0491
  484MOL0     H65301   1.247  10.752   3.165  1.8459 -1.9778  0.7454
  484MOL0     H65302   1.294  10.658   3.029  0.4314  1.6795  0.7630
  484MOL0     H65303   1.132  10.710   3.034  0.7704  2.5888  1.1759
  484MOL0     H65304   1.742  10.487   3.128  1.5887  0.6740  0.2815
  484MOL0     H65305   1.948  10.647   3.147  0.2664  4.5263 -1.9459
  484MOL0     H65306   2.070  10.789   3.340 -1.1925  0.0547 -0.2054
  484MOL0     H65307   2.127  10.765   3.181 -0.0302 -4.4375  3.2340
  484MOL0     H65308   2.273  10.928   3.237  0.7965  0.4748  3.7966
  484MOL0     H65309   2.139  11.041   3.177 -1.2906  0.9034  0.0066
  484MOL0     H65310   2.111  10.969   3.465  0.2459  0.5642 -1.9414
  484MOL0     H65311   2.091  11.128   3.389  0.0137  0.9683 -4.3909
  484MOL0     H65312   2.295  11.084   3.560 -0.2964 -3.2106  0.7436
  484MOL0     H65313   2.371  10.998   3.439  0.9639  0.8076  3.1495
  484MOL0     H65314   2.287  11.288   3.398  0.9785  1.0235 -1.0376
  484MOL0     H65315   2.381  11.175   3.288 -0.9306 -1.3834  1.1731
  484MOL0     H65316   2.518  11.339   3.453 -1.1680  1.3687  2.0984
  484MOL0     H65317   2.451  11.240   3.580  0.7997 -0.7250 -0.5081
  484MOL0     H65318   2.561  11.052   3.385  1.3098 -4.1303  4.7169
  484MOL0     H65319   2.634  11.094   3.537  0.0532  0.0585 -1.3171
  484MOL0     H65320   2.686  11.258   3.282  4.3519  1.0682 -0.6832
  484MOL0     H65321   2.795  11.143   3.342  0.1795 -0.6160  1.2466
  484MOL0     H65322   1.702  10.948   3.293 -1.8915  0.4305 -1.2601
  484MOL0     H65323   1.490  10.801   3.263 -0.8852 -1.9975 -2.8886
  484MOL0     H65324   1.344  10.288   3.316  1.4527  0.9834 -1.7043
  484MOL0     H65325   1.112  10.186   3.289  1.6659 -0.1439  1.6566
  484MOL0     H65326   1.466   9.876   3.937  1.9044  0.4476 -0.4563
  484MOL0     H65327   1.680   9.972   3.943  0.6753 -1.2928  2.0387
  484MOL0     H65328   1.997  10.138   4.024 -0.4611  0.1035 -0.9309
  484MOL0     H65329   2.222  10.157   4.004 -2.4466 -1.1630  1.1758
  484MOL0     H65330   2.422  10.571   4.062  0.6478 -0.4222 -1.2731
  484MOL0     H65331   2.361  10.479   4.197  1.3989  0.6338 -1.0708
  484MOL0     H65332   2.616  10.530   4.171 -1.6320  0.1617  2.1991
  484MOL0     H65333   2.627  10.389   4.056  1.6539  0.8097 -0.1662
  484MOL0     H65334   2.490  10.274   4.254  1.5112 -0.5340  2.3124
  484MOL0     H65335   2.536  10.430   4.347 -0.9198  0.8912 -1.0981
  484MOL0     H65336   2.734  10.198   4.254  0.5063  2.1095 -4.0729
  484MOL0     H65337   2.685  10.241   4.409 -1.1908  0.5602 -0.5718
  484MOL0     H65338   2.976  10.530   4.321 -1.0292  0.2897 -0.1825
  484MOL0     H65339   2.186  10.592   4.038 -1.5826  1.4471 -0.2529
  484MOL0     H65340   1.936  10.571   4.025  0.5893  1.6639 -4.6119
  485MOL0     O65341   3.430   5.007   1.449 -0.0556 -0.2762  0.1983
  485MOL0     C65342   3.385   5.123   1.474 -0.1543  0.2981  0.0665
  485MOL0     O65343   3.371   5.171   1.600  0.4189 -0.1224  0.1704
  485MOL0     C65344   3.435   5.110   1.704 -0.1424 -0.4775  0.2247
  485MOL0     C65345   3.508   5.193   1.794 -0.0725  0.1663  0.2759
  485MOL0     C65346   3.569   5.133   1.903 -0.3648  0.7464  0.3847
  485MOL0     C65347   3.555   4.997   1.931 -0.0970  0.9743 -0.0457
  485MOL0     O65348   3.637   4.954   2.040 -0.3395 -1.1663  0.0741
  485MOL0     C65349   3.659   4.818   2.054 -0.7172  0.5202  0.6579
  485MOL0     C65350   3.768   4.806   2.171 -0.1891 -0.2565  0.6117
  485MOL0     C65351   3.884   4.913   2.176  0.8177  0.7280  0.6367
  485MOL0     C65352   3.995   4.864   2.272 -0.5172  0.1949 -0.9495
  485MOL0     C65353   4.132   4.931   2.251  0.7670 -0.7822 -0.0256
  485MOL0     C65354   4.247   4.886   2.340  0.1025 -0.8721  0.0319
  485MOL0     C65355   4.218   4.923   2.484 -0.1445 -0.2552  0.6690
  485MOL0     C65356   4.320   4.862   2.592  0.7463 -0.4925 -0.0998
  485MOL0     N65357   4.449   4.933   2.611  0.4002 -0.3109  0.3219
  485MOL0     C65358   4.569   4.912   2.551  0.2110 -0.1734 -1.2065
  485MOL0     C65359   4.666   4.986   2.617 -0.7180  0.3100  0.0837
  485MOL0     C65360   4.809   5.003   2.569  0.3438 -0.2878 -0.4111
  485MOL0     C65361   4.833   5.105   2.464 -0.6382  0.1091  0.0244
  485MOL0     C65362   4.957   5.208   2.486  0.3534  0.1191  0.1326
  485MOL0     C65363   5.079   5.123   2.457 -0.0327 -0.3415  0.3804
  485MOL0     O65364   5.096   5.068   2.320  0.4806 -0.0469 -0.2590
  485MOL0     C65365   5.164   5.151   2.243  0.0383 -0.4581 -0.5772
  485MOL0     C65366   5.305   5.155   2.253 -0.5533 -0.2132 -0.1439
  485MOL0     C65367   5.378   5.242   2.174  0.3710 -0.0909 -0.4878
  485MOL0     C65368   5.529   5.229   2.194  0.2481 -0.4877 -0.1307
  485MOL0     C65369   5.303   5.350   2.111 -0.4209  0.3500 -0.2376
  485MOL0     C65370   5.373   5.477   2.068  0.7225 -0.2680 -0.3616
  485MOL0     O65371   5.500   5.496   2.117  0.8297  0.1153 -0.4227
  485MOL0     C65372   5.595   5.570   2.047 -0.6299  0.8440  0.3632
  485MOL0     C65373   5.593   5.614   1.912  0.0957 -0.4653 -0.4706
  485MOL0     C65374   5.698   5.686   1.863  0.7510  0.5161 -0.3313
  485MOL0     C65375   5.810   5.720   1.946  0.0575  0.2611 -1.0125
  485MOL0     O65376   5.920   5.779   1.894  0.5428  0.3251  0.0835
  485MOL0     C65377   6.014   5.842   1.974 -0.9969 -0.4684 -0.2644
  485MOL0     C65378   6.118   5.912   1.878  0.5155  0.1784  1.0517
  485MOL0     C65379   6.217   6.005   1.943 -0.6820 -0.2009  0.0864
  485MOL0     C65380   6.167   6.144   1.995 -0.2838  1.1271  0.5888
  485MOL0     C65381   6.277   6.227   2.037  0.4070  0.6562 -0.4569
  485MOL0     C65382   6.215   6.329   2.135  0.2019  0.3424  0.3704
  485MOL0     C65383   6.310   6.441   2.180 -0.1964  0.0324 -0.4222
  485MOL0     C65384   6.247   6.527   2.297  0.4176  0.9674 -0.2745
  485MOL0    Cl65385   6.234   6.442   2.457 -0.3911 -0.3425 -0.0709
  485MOL0     C65386   5.818   5.667   2.078  0.3529  0.2954  0.4797
  485MOL0     C65387   5.708   5.591   2.124  0.2071  0.7012 -0.4968
  485MOL0     O65388   5.317   5.534   1.978 -1.0863  0.6021  0.5229
  485MOL0     C65389   5.168   5.327   2.086  0.2065 -0.2666  0.0642
  485MOL0     C65390   5.094   5.227   2.151  0.4179 -0.0063 -0.3613
  485MOL0     N65391   4.597   5.055   2.708 -0.1631 -0.9728 -0.6745
  485MOL0     N65392   4.466   5.023   2.706  0.5261  0.0316  0.3494
  485MOL0     C65393   3.475   4.917   1.843 -0.7689 -0.2688 -0.6418
  485MOL0     C65394   3.416   4.975   1.734 -0.8266 -0.7076  0.1992
  485MOL0     C65395   3.341   5.192   1.354 -0.1559 -1.2548 -0.4203
  485MOL0     C65396   3.301   5.330   1.364  0.0125  0.4566 -0.7815
  485MOL0     C65397   3.250   5.393   1.248 -0.5866  1.0331 -1.2352
  485MOL0     C65398   3.234   5.321   1.129 -0.5599  0.1641  0.8121
  485MOL0     O65399   3.189   5.380   1.013  0.0846  0.4787  0.0335
  485MOL0     C65400   3.146   5.516   1.003  0.0792 -0.7542 -0.6711
  485MOL0     C65401   3.116   5.568   0.867 -0.0712 -0.2792 -0.1450
  485MOL0     C65402   2.994   5.663   0.864  0.3105  0.0305 -0.2074
  485MOL0     C65403   3.051   5.805   0.873 -0.0386 -1.7774 -0.2275
  485MOL0     C65404   3.155   5.843   0.976  0.2541  0.0909 -1.0902
  485MOL0     C65405   3.234   5.891   1.058 -0.7037  0.0869  0.1017
  485MOL0     C65406   3.275   5.191   1.120 -0.0674  1.2462 -0.7049
  485MOL0     C65407   3.328   5.132   1.231 -0.1772  0.2365  0.2150
  485MOL0     H65408   3.521   5.298   1.770  1.1506 -0.0347 -0.0124
  485MOL0     H65409   3.636   5.199   1.957 -1.6309 -0.1111  3.2417
  485MOL0     H65410   3.563   4.771   2.077 -0.5161 -1.0997 -1.5335
  485MOL0     H65411   3.702   4.773   1.964 -3.1183  0.9766 -0.8090
  485MOL0     H65412   3.718   4.828   2.266 -0.0974  0.3382  0.5273
  485MOL0     H65413   3.821   4.710   2.176  2.7582  0.9617 -2.7512
  485MOL0     H65414   3.902   4.942   2.072 -1.7742 -0.6723 -0.2869
  485MOL0     H65415   3.839   5.004   2.216  1.5900  0.4122  2.3072
  485MOL0     H65416   3.953   4.868   2.373  0.2568  0.9269 -0.6421
  485MOL0     H65417   4.000   4.758   2.248  0.3670 -0.0966  0.4605
  485MOL0     H65418   4.151   4.911   2.145  1.6963 -3.8398  0.6113
  485MOL0     H65419   4.118   5.038   2.264  3.4644 -0.5028  1.3489
  485MOL0     H65420   4.254   4.777   2.333  1.7399 -0.7358 -0.9518
  485MOL0     H65421   4.338   4.934   2.303 -0.9987  2.3206  1.1463
  485MOL0     H65422   4.215   5.032   2.486  0.5432 -0.0721 -2.5498
  485MOL0     H65423   4.124   4.869   2.496 -0.6163  0.1946 -0.8118
  485MOL0     H65424   4.344   4.758   2.568 -2.3873 -1.0567 -1.2232
  485MOL0     H65425   4.266   4.860   2.687 -0.6031 -0.5103 -0.8517
  485MOL0     H65426   4.570   4.855   2.458 -1.0317 -0.1300 -1.2599
  485MOL0     H65427   4.871   5.031   2.655  0.1017  0.6293 -0.5240
  485MOL0     H65428   4.847   4.903   2.548  1.3834 -0.3230  1.4072
  485MOL0     H65429   4.739   5.161   2.472 -0.3342  0.4751  1.3464
  485MOL0     H65430   4.846   5.054   2.368  0.8831 -0.5399  0.5455
  485MOL0     H65431   4.966   5.254   2.585  1.6055  0.4480 -0.1206
  485MOL0     H65432   4.953   5.288   2.412 -0.2850  0.4885  0.5549
  485MOL0     H65433   5.087   5.046   2.535  3.7666 -2.3946 -1.7341
  485MOL0     H65434   5.167   5.186   2.475  1.5415 -2.8982  2.2878
  485MOL0     H65435   5.359   5.089   2.320 -1.4582 -1.3621 -0.5263
  485MOL0     H65436   5.547   5.122   2.208  0.0653 -0.4014  0.7716
  485MOL0     H65437   5.589   5.271   2.112  0.5268 -0.5930  0.0216
  485MOL0     H65438   5.569   5.274   2.285  1.0895 -2.5876  0.5834
  485MOL0     H65439   5.501   5.613   1.855 -0.2838  2.4663 -0.0562
  485MOL0     H65440   5.692   5.714   1.758 -0.3221  0.6770 -0.2387
  485MOL0     H65441   5.971   5.927   2.027  2.7676  2.0984 -0.9366
  485MOL0     H65442   6.067   5.780   2.046  0.4911 -0.5353 -1.3553
  485MOL0     H65443   6.179   5.836   1.830  0.2295  2.4293 -3.4645
  485MOL0     H65444   6.075   5.974   1.798  0.8209 -1.6688 -0.6208
  485MOL0     H65445   6.298   6.024   1.872 -0.5640 -1.6014 -0.1992
  485MOL0     H65446   6.274   5.955   2.023 -0.2645 -0.1235 -0.1627
  485MOL0     H65447   6.136   6.198   1.906  0.4782  0.4976 -0.0756
  485MOL0     H65448   6.086   6.146   2.069 -0.8508  1.4109 -0.0311
  485MOL0     H65449   6.322   6.296   1.966  0.8776  1.0925  0.2464
  485MOL0     H65450   6.361   6.176   2.086 -0.9697 -0.4398  0.8877
  485MOL0     H65451   6.123   6.378   2.101  1.5168  4.1981  1.8690
  485MOL0     H65452   6.188   6.269   2.223  0.2591 -2.0851 -1.1671
  485MOL0     H65453   6.335   6.509   2.097  1.9064  0.1813  0.2740
  485MOL0     H65454   6.402   6.401   2.224  0.0803 -2.0762 -2.6618
  485MOL0     H65455   6.148   6.550   2.257  0.9590 -1.1934 -3.1465
  485MOL0     H65456   6.310   6.617   2.301  2.9254 -0.7049  0.3107
  485MOL0     H65457   5.895   5.679   2.154 -1.5406  0.3713  2.4934
  485MOL0     H65458   5.703   5.541   2.220 -1.4278 -2.0717 -1.9183
  485MOL0     H65459   5.109   5.384   2.016 -1.2501 -0.1967  1.2988
  485MOL0     H65460   4.990   5.202   2.130 -0.1756  2.6609 -0.9413
  485MOL0     H65461   3.463   4.810   1.857  0.4500 -0.3955 -0.4884
  485MOL0     H65462   3.361   4.902   1.675  0.4910 -2.5050  1.0983
  485MOL0     H65463   3.334   5.384   1.452 -1.9859 -0.1348  0.3967
  485MOL0     H65464   3.230   5.499   1.252  4.6980  2.2753 -0.3041
  485MOL0     H65465   3.051   5.520   1.057  0.4849  2.6132  0.0319
  485MOL0     H65466   3.215   5.584   1.055 -0.6564  1.0488 -1.9518
  485MOL0     H65467   3.073   5.477   0.823  0.6986 -0.0239 -1.5006
  485MOL0     H65468   3.204   5.600   0.811 -1.5010  1.0584 -1.7331
  485MOL0     H65469   2.917   5.655   0.941 -0.5672 -2.1957 -1.2253
  485MOL0     H65470   2.947   5.664   0.765 -1.6714 -0.7472  0.6627
  485MOL0     H65471   2.975   5.883   0.882  3.0339  1.3580  0.5344
  485MOL0     H65472   3.097   5.834   0.779 -1.0495  0.9946  0.0546
  485MOL0     H65473   3.306   5.935   1.124 -0.4659 -0.1751  0.0189
  485MOL0     H65474   3.282   5.146   1.022  1.4569  1.6915 -0.8189
  485MOL0     H65475   3.366   5.031   1.221 -0.7486  0.0177  0.2415
  486MOL0     O65476   6.430   6.963   3.678  0.0551  0.5147  0.1920
  486MOL0     C65477   6.498   7.048   3.628  0.0414 -0.0291  1.1475
  486MOL0     O65478   6.640   7.047   3.638  1.4675 -0.3920 -0.1681
  486MOL0     C65479   6.696   6.947   3.710  0.9570  1.0787 -0.3011
  486MOL0     C65480   6.690   6.948   3.848  0.5122 -0.1738  0.3535
  486MOL0     C65481   6.752   6.854   3.928 -0.0671 -1.0180 -0.9009
  486MOL0     C65482   6.807   6.738   3.867 -0.4742 -0.0420 -0.0644
  486MOL0     O65483   6.878   6.641   3.932 -0.2195  0.2437  0.3646
  486MOL0     C65484   6.906   6.648   4.072  0.7184  1.6422  0.0422
  486MOL0     C65485   6.958   6.501   4.116 -0.6556  0.3331 -0.1865
  486MOL0     C65486   7.089   6.471   4.043  0.4721 -0.1484 -0.7188
  486MOL0     C65487   7.175   6.348   4.080 -0.0605 -0.3033 -0.4186
  486MOL0     C65488   7.284   6.315   3.963 -0.1535  0.0328 -0.9828
  486MOL0     C65489   7.362   6.187   4.002  0.9508  0.3529 -0.6358
  486MOL0     C65490   7.482   6.153   3.921  0.6704 -1.0809 -0.0658
  486MOL0     C65491   7.549   6.021   3.949  0.0182  0.2791 -0.0966
  486MOL0     N65492   7.475   5.905   3.897 -0.0267  0.3288 -0.4635
  486MOL0     C65493   7.456   5.877   3.772  0.0488 -0.3726 -0.4812
  486MOL0     C65494   7.371   5.766   3.780  0.2822  0.8966 -0.1973
  486MOL0     C65495   7.313   5.685   3.665  0.4703 -0.6193  0.6323
  486MOL0     C65496   7.417   5.585   3.623  0.6853  0.1706 -0.0557
  486MOL0     C65497   7.398   5.541   3.479  0.5249 -0.5933  0.2295
  486MOL0     C65498   7.393   5.654   3.381  0.0416 -0.5956 -0.0892
  486MOL0     O65499   7.259   5.696   3.362 -0.5394  0.0315 -1.1290
  486MOL0     C65500   7.233   5.774   3.259 -1.1699  0.2014 -0.2814
  486MOL0     C65501   7.103   5.782   3.217  0.0445  1.0998  0.8596
  486MOL0     C65502   7.058   5.873   3.110  0.0377  1.3250  0.3571
  486MOL0     C65503   6.917   5.861   3.086  1.3007  0.2410 -0.5871
  486MOL0     C65504   7.159   5.964   3.058 -0.0956  0.4468  0.1625
  486MOL0     C65505   7.129   6.073   2.975  0.6685  1.7701 -0.2531
  486MOL0     O65506   7.225   6.119   2.885  0.7125 -0.6134  0.2901
  486MOL0     C65507   7.185   6.200   2.784 -0.2029 -0.1314  0.4909
  486MOL0     C65508   7.150   6.154   2.655 -0.4098  0.2329 -0.1553
  486MOL0     C65509   7.088   6.237   2.559 -0.9889 -0.5546 -0.6134
  486MOL0     C65510   7.067   6.380   2.583 -0.8554  0.3703  0.2616
  486MOL0     O65511   7.035   6.465   2.479  0.6836 -0.8407 -0.3432
  486MOL0     C65512   6.967   6.421   2.364  1.0374  0.2853  0.2789
  486MOL0     C65513   6.928   6.538   2.275  0.5743  0.2185  0.7197
  486MOL0     C65514   6.847   6.497   2.158 -0.2228 -0.3405 -0.2647
  486MOL0     C65515   6.726   6.593   2.140 -0.3859 -0.6415 -0.4458
  486MOL0     C65516   6.650   6.559   2.010 -0.2112  0.6857 -0.2707
  486MOL0     C65517   6.545   6.665   1.983  0.1913 -0.0038  0.1557
  486MOL0     C65518   6.607   6.806   1.966  0.5366  0.3927 -0.3751
  486MOL0     C65519   6.490   6.904   1.941  0.9798  0.1365  1.0616
  486MOL0    Cl65520   6.411   6.854   1.780 -0.1363 -0.4024 -0.3430
  486MOL0     C65521   7.105   6.436   2.704 -1.4738 -0.2957  0.0632
  486MOL0     C65522   7.156   6.341   2.801 -0.4389 -1.4769  0.1131
  486MOL0     O65523   7.013   6.111   2.975 -0.6318 -0.0447 -0.4903
  486MOL0     C65524   7.298   5.945   3.092  0.0107 -0.4428 -0.8846
  486MOL0     C65525   7.334   5.850   3.192  0.5709 -0.0167  0.2835
  486MOL0     N65526   7.364   5.727   3.920  0.2874  0.5164  0.5491
  486MOL0     N65527   7.424   5.819   3.983  0.0260 -0.3357  0.1942
  486MOL0     C65528   6.805   6.732   3.731  0.4900  0.7128 -0.0780
  486MOL0     C65529   6.746   6.832   3.654 -0.0521  0.2723 -0.0237
  486MOL0     C65530   6.427   7.172   3.582 -0.7877  0.4191  1.1022
  486MOL0     C65531   6.307   7.213   3.638 -0.1401  0.2083 -0.2189
  486MOL0     C65532   6.245   7.323   3.586  0.5982 -0.4758 -0.7367
  486MOL0     C65533   6.306   7.404   3.480 -0.2706 -0.5375 -1.0874
  486MOL0     O65534   6.239   7.518   3.439 -0.2737  0.8969  0.0456
  486MOL0     C65535   6.259   7.545   3.296  0.1386  0.7314 -0.2494
  486MOL0     C65536   6.169   7.664   3.262 -0.8808  0.3640 -0.0632
  486MOL0     C65537   6.148   7.701   3.112  0.7586  1.7762 -0.0569
  486MOL0     C65538   6.274   7.694   3.037 -0.0769 -0.5300 -0.6449
  486MOL0     C65539   6.368   7.807   3.079  0.5628 -0.1220  0.4620
  486MOL0     C65540   6.438   7.890   3.128 -0.1672  0.0996 -0.5874
  486MOL0     C65541   6.434   7.370   3.443  0.1143  0.7737 -1.0182
  486MOL0     C65542   6.498   7.254   3.492 -0.2617 -0.4182  0.4800
  486MOL0     H65543   6.661   7.037   3.903 -1.3119 -0.6336  0.2065
  486MOL0     H65544   6.765   6.889   4.029  0.9639  1.1142 -1.7068
  486MOL0     H65545   6.975   6.727   4.104  0.8213  0.1332  4.2297
  486MOL0     H65546   6.812   6.651   4.129 -1.6810  0.7068 -3.5390
  486MOL0     H65547   6.968   6.495   4.225  0.2443  0.2379 -0.2632
  486MOL0     H65548   6.881   6.436   4.074 -1.3337  1.8139 -1.3192
  486MOL0     H65549   7.053   6.483   3.940 -1.7278  1.8289  0.1947
  486MOL0     H65550   7.163   6.551   4.053 -0.1869  0.3821  0.0574
  486MOL0     H65551   7.219   6.356   4.179  2.6998 -4.1913 -1.1004
  486MOL0     H65552   7.104   6.265   4.078 -2.0385  1.1755  2.4628
  486MOL0     H65553   7.228   6.301   3.869 -3.4490  1.2407  0.6477
  486MOL0     H65554   7.349   6.402   3.966  0.2962 -0.2953 -1.0709
  486MOL0     H65555   7.399   6.202   4.103 -1.2889  0.7836  0.1647
  486MOL0     H65556   7.301   6.096   4.002  0.2065  0.7503 -3.5287
  486MOL0     H65557   7.440   6.159   3.820 -1.3421  0.6015  0.7814
  486MOL0     H65558   7.557   6.231   3.937  1.8879 -2.1538 -0.4290
  486MOL0     H65559   7.584   6.009   4.052 -0.0475 -0.8734 -0.1870
  486MOL0     H65560   7.636   6.021   3.883 -1.0437 -2.4863 -1.7146
  486MOL0     H65561   7.480   5.932   3.682  1.6828 -1.7119 -0.9304
  486MOL0     H65562   7.216   5.642   3.692  0.6870 -2.7887 -1.7051
  486MOL0     H65563   7.309   5.763   3.589  2.3062 -1.2448 -0.1699
  486MOL0     H65564   7.411   5.494   3.684 -0.4668  2.4325  3.5107
  486MOL0     H65565   7.512   5.638   3.635  1.1706 -0.8946  1.0172
  486MOL0     H65566   7.302   5.489   3.476 -1.5618  2.8416  0.9429
  486MOL0     H65567   7.467   5.463   3.445  0.8470 -0.1876 -0.0677
  486MOL0     H65568   7.437   5.628   3.285 -0.3769  0.4266 -0.5684
  486MOL0     H65569   7.461   5.733   3.415  1.1776 -0.2186 -2.9360
  486MOL0     H65570   7.036   5.709   3.261  3.2087 -0.3630  3.7126
  486MOL0     H65571   6.858   5.907   3.166  2.3128  0.4273  0.0618
  486MOL0     H65572   6.883   5.907   2.993 -0.0979  1.9613  0.6968
  486MOL0     H65573   6.893   5.755   3.082  2.0633  0.0247  0.3716
  486MOL0     H65574   7.175   6.051   2.633 -0.4318  0.2797 -0.3942
  486MOL0     H65575   7.057   6.211   2.459 -0.1488 -3.0868 -0.2936
  486MOL0     H65576   7.030   6.348   2.313  0.1910 -0.4042  0.2075
  486MOL0     H65577   6.880   6.368   2.402 -0.7091  3.4981  1.1284
  486MOL0     H65578   6.863   6.598   2.339 -0.6461  0.0596 -0.3393
  486MOL0     H65579   7.011   6.600   2.239  1.5397 -0.4446  1.7231
  486MOL0     H65580   6.824   6.390   2.160 -0.8128 -0.2185  1.4927
  486MOL0     H65581   6.905   6.502   2.066 -2.4800  0.6810 -1.7202
  486MOL0     H65582   6.660   6.597   2.228  0.1514  3.6396 -0.0249
  486MOL0     H65583   6.763   6.696   2.148 -1.8745 -0.0238 -1.0948
  486MOL0     H65584   6.603   6.462   2.026  0.5000  0.6710  2.1563
  486MOL0     H65585   6.706   6.560   1.917 -1.3276  3.1216 -1.0069
  486MOL0     H65586   6.485   6.637   1.895  0.3094 -0.8664  0.3366
  486MOL0     H65587   6.477   6.670   2.069 -0.7787 -0.5118 -0.5557
  486MOL0     H65588   6.682   6.810   1.885 -2.2758  1.3350 -3.1467
  486MOL0     H65589   6.640   6.845   2.062 -0.5644 -0.3427  0.3185
  486MOL0     H65590   6.519   7.009   1.938  0.3402  0.3185  1.1473
  486MOL0     H65591   6.426   6.899   2.029 -1.3873 -2.6956 -0.6431
  486MOL0     H65592   7.107   6.544   2.712 -1.1698 -0.2610 -0.4191
  486MOL0     H65593   7.171   6.388   2.897 -0.1484  0.0421 -0.6518
  486MOL0     H65594   7.376   6.020   3.089  0.9988 -1.1442  2.5524
  486MOL0     H65595   7.439   5.838   3.218 -0.5677 -4.8932  4.1352
  486MOL0     H65596   6.837   6.645   3.674 -2.9381  0.7967 -2.3836
  486MOL0     H65597   6.750   6.821   3.546 -1.9839 -2.3647  0.0804
  486MOL0     H65598   6.259   7.149   3.712  2.3558 -0.2883  1.1137
  486MOL0     H65599   6.152   7.364   3.623  0.3340  0.6140 -2.4656
  486MOL0     H65600   6.359   7.566   3.258  0.4627 -0.3419 -0.0153
  486MOL0     H65601   6.227   7.459   3.237 -1.1470  0.5192  0.6853
  486MOL0     H65602   6.201   7.756   3.312  1.2869  1.0970 -2.5537
  486MOL0     H65603   6.072   7.639   3.305 -1.1356  2.1923  0.5147
  486MOL0     H65604   6.105   7.801   3.104 -0.4010  1.4349  1.4165
  486MOL0     H65605   6.071   7.635   3.070 -0.2838  1.3250  2.3636
  486MOL0     H65606   6.239   7.717   2.935 -2.5474 -2.5825 -0.3661
  486MOL0     H65607   6.320   7.596   3.044 -3.6696 -2.2787  1.3626
  486MOL0     H65608   6.489   7.971   3.176 -3.7541  1.1414  1.8199
  486MOL0     H65609   6.498   7.438   3.388 -0.3904  2.8558  0.8267
  486MOL0     H65610   6.601   7.233   3.465 -0.3586 -0.5936  0.2472
  487MOL0     O65611   9.337   1.782   2.927  0.8843 -0.8555 -0.3755
  487MOL0     C65612   9.258   1.839   2.846 -0.6111 -0.8756 -0.2405
  487MOL0     O65613   9.134   1.894   2.872 -0.5729 -0.2147  0.1457
  487MOL0     C65614   9.099   1.888   2.998 -0.5756  0.0690 -0.0834
  487MOL0     C65615   9.114   2.008   3.087  0.0095  0.9507  0.6852
  487MOL0     C65616   9.083   2.004   3.221 -0.4454  0.0554 -0.5976
  487MOL0     C65617   9.042   1.883   3.273  0.8157 -0.0318 -0.8661
  487MOL0     O65618   9.003   1.877   3.411  0.1355 -0.5416  0.6496
  487MOL0     C65619   8.898   1.787   3.445  0.4847  0.1860 -0.7503
  487MOL0     C65620   8.832   1.839   3.579 -1.0128  0.0967  0.7139
  487MOL0     C65621   8.830   1.985   3.595  0.2683 -0.0903  0.1484
  487MOL0     C65622   8.804   2.020   3.751 -0.2006  0.5596 -0.2597
  487MOL0     C65623   8.824   2.173   3.766  0.2519 -0.2659  0.2925
  487MOL0     C65624   8.965   2.215   3.806 -0.4979  0.0361  0.0920
  487MOL0     C65625   9.084   2.148   3.728  0.8216  0.7737  0.7328
  487MOL0     C65626   9.224   2.170   3.780  1.2602 -0.2217  0.3927
  487MOL0     N65627   9.321   2.112   3.685 -0.1550  0.2703  0.2264
  487MOL0     C65628   9.337   1.976   3.665 -0.7145  0.8628  0.5367
  487MOL0     C65629   9.452   1.958   3.601  0.1729 -0.0736  0.0865
  487MOL0     C65630   9.523   1.827   3.554  0.4348 -0.8541 -0.0128
  487MOL0     C65631   9.436   1.746   3.460  2.0941  0.0639  0.4862
  487MOL0     C65632   9.384   1.802   3.326  0.3589  0.2872  0.1670
  487MOL0     C65633   9.485   1.881   3.242  0.4488  0.8814 -0.3089
  487MOL0     O65634   9.581   1.783   3.206 -0.0981  0.0508 -0.1981
  487MOL0     C65635   9.667   1.819   3.109  1.1087 -1.0726  0.4076
  487MOL0     C65636   9.700   1.713   3.029  0.5552 -0.1366 -1.0113
  487MOL0     C65637   9.787   1.736   2.918  0.3725  0.2184 -1.3525
  487MOL0     C65638   9.799   1.608   2.835 -0.7589 -0.7376  0.1458
  487MOL0     C65639   9.844   1.862   2.886  0.0009  0.3781  0.3981
  487MOL0     C65640   9.938   1.877   2.774  0.1981  0.7573 -0.8997
  487MOL0     O65641   9.977   1.769   2.695  0.0808  0.2161  0.6829
  487MOL0     C65642  10.036   1.806   2.582 -0.1306  0.0455  0.8300
  487MOL0     C65643  10.171   1.769   2.549  0.5226  0.4412 -0.4126
  487MOL0     C65644  10.227   1.810   2.431 -0.0915  0.1002  0.3425
  487MOL0     C65645  10.154   1.889   2.334 -0.4583 -0.5131 -0.0927
  487MOL0     O65646  10.222   1.927   2.222  0.1809  0.1825 -0.8637
  487MOL0     C65647  10.162   2.015   2.122 -0.1760 -0.3174 -0.0680
  487MOL0     C65648  10.266   2.037   2.005  0.2354 -0.3941  0.2268
  487MOL0     C65649  10.275   1.908   1.921  0.0611  0.6137  0.2393
  487MOL0     C65650  10.379   1.812   1.975  0.3668  0.4658  0.5831
  487MOL0     C65651  10.367   1.669   1.913  0.4558  0.1934 -0.3057
  487MOL0     C65652  10.456   1.628   1.793  0.3611 -0.4568 -0.5945
  487MOL0     C65653  10.606   1.628   1.808 -0.1625 -0.2974 -0.2388
  487MOL0     C65654  10.665   1.543   1.920  0.4836 -0.0700 -0.5247
  487MOL0    Cl65655  10.687   1.379   1.858  0.3804 -0.1341 -0.1760
  487MOL0     C65656  10.017   1.922   2.366 -0.1036  0.2009 -0.7554
  487MOL0     C65657   9.962   1.881   2.481  0.6459  0.4096  0.0269
  487MOL0     O65658   9.984   1.989   2.768 -0.5293 -0.2127 -0.0410
  487MOL0     C65659   9.808   1.970   2.968 -0.4142 -0.3914 -0.2981
  487MOL0     C65660   9.723   1.951   3.084 -0.5842  1.2767  0.2240
  487MOL0     N65661   9.505   2.084   3.581 -0.2408 -0.2471  0.5817
  487MOL0     N65662   9.435   2.176   3.640  0.0912 -0.3573 -0.3270
  487MOL0     C65663   9.045   1.766   3.200 -0.2840  0.9866  0.9375
  487MOL0     C65664   9.073   1.765   3.056 -0.4509 -0.7091 -0.0686
  487MOL0     C65665   9.330   1.852   2.711  0.1613 -0.0016 -0.6852
  487MOL0     C65666   9.462   1.822   2.693  0.0692 -0.8716  0.1685
  487MOL0     C65667   9.531   1.819   2.571  0.0056  1.0245 -0.5627
  487MOL0     C65668   9.466   1.864   2.462  1.0364  0.2617  0.1475
  487MOL0     O65669   9.517   1.888   2.340  0.6296  0.6644 -0.2842
  487MOL0     C65670   9.654   1.915   2.337  0.7883 -0.1209  0.1809
  487MOL0     C65671   9.679   2.006   2.215  0.7519 -0.2705  0.5333
  487MOL0     C65672   9.585   2.122   2.216 -0.1914  0.4339 -0.0006
  487MOL0     C65673   9.567   2.178   2.066 -0.0020  1.0402 -0.1350
  487MOL0     C65674   9.683   2.246   2.014 -0.3255  1.0168  0.3599
  487MOL0     C65675   9.780   2.303   1.978 -0.3242 -0.6877 -0.9178
  487MOL0     C65676   9.326   1.892   2.476  0.7038  0.2887  0.9328
  487MOL0     C65677   9.255   1.877   2.600 -0.0454  0.6378 -0.4730
  487MOL0     H65678   9.132   2.107   3.046  1.2011  1.9129  3.3302
  487MOL0     H65679   9.107   2.091   3.282 -1.7544  1.6737 -2.2953
  487MOL0     H65680   8.821   1.783   3.367  1.2849 -0.1463 -1.5395
  487MOL0     H65681   8.924   1.682   3.457 -1.4594 -0.5624 -2.4521
  487MOL0     H65682   8.733   1.795   3.599 -0.5036 -1.5471 -0.1854
  487MOL0     H65683   8.899   1.799   3.655 -0.4126  3.0619  1.8577
  487MOL0     H65684   8.930   2.021   3.568  1.0972 -2.3611  0.0042
  487MOL0     H65685   8.751   2.030   3.534  1.5064  0.8401 -0.8055
  487MOL0     H65686   8.701   1.998   3.779  0.3198 -1.0803  0.5386
  487MOL0     H65687   8.860   1.967   3.829 -0.8846  1.0994  0.6111
  487MOL0     H65688   8.803   2.219   3.669 -1.9355 -1.1066  0.2963
  487MOL0     H65689   8.753   2.212   3.839  0.9362  1.1197  0.2458
  487MOL0     H65690   8.975   2.322   3.786 -0.4872  0.0953  0.4055
  487MOL0     H65691   8.988   2.198   3.911  2.1600 -3.6874 -0.8928
  487MOL0     H65692   9.078   2.040   3.708  0.2588  0.8090  0.6886
  487MOL0     H65693   9.074   2.182   3.624 -3.2785 -2.4259 -0.1990
  487MOL0     H65694   9.248   2.126   3.878  0.7463  0.8424  1.0108
  487MOL0     H65695   9.238   2.278   3.774  0.7845 -0.1251  0.9359
  487MOL0     H65696   9.279   1.895   3.708 -2.1238  2.3522  1.5292
  487MOL0     H65697   9.616   1.862   3.509 -0.6026  3.8976  0.9833
  487MOL0     H65698   9.549   1.785   3.652  3.3827  2.1944  0.7244
  487MOL0     H65699   9.348   1.725   3.521  0.8164 -1.7605 -1.8074
  487MOL0     H65700   9.485   1.654   3.425  0.2725  0.7669 -4.9146
  487MOL0     H65701   9.305   1.876   3.344  1.1081  0.9355  0.8348
  487MOL0     H65702   9.347   1.713   3.274  1.8026 -0.8045  0.9314
  487MOL0     H65703   9.529   1.951   3.313 -1.8463 -0.0711  2.2529
  487MOL0     H65704   9.443   1.933   3.155 -0.7236  3.2085  1.5500
  487MOL0     H65705   9.652   1.618   3.047 -0.2672  0.2797 -0.9582
  487MOL0     H65706   9.756   1.637   2.739  0.8939  1.3914 -0.0200
  487MOL0     H65707   9.904   1.579   2.823 -0.3776  0.5949  0.1415
  487MOL0     H65708   9.747   1.517   2.867 -0.2823 -0.9198  0.4152
  487MOL0     H65709  10.237   1.725   2.623 -1.9495  2.3015  3.1874
  487MOL0     H65710  10.333   1.788   2.422  0.4239  1.9378  1.5297
  487MOL0     H65711  10.070   1.968   2.089  0.3969 -0.8166 -0.9771
  487MOL0     H65712  10.128   2.107   2.171  1.7274 -1.9773  5.0508
  487MOL0     H65713  10.241   2.121   1.940  0.1956  0.4366  1.2769
  487MOL0     H65714  10.363   2.057   2.051 -0.4902 -0.2096  1.7658
  487MOL0     H65715  10.303   1.929   1.818  1.8623 -2.2757  0.0211
  487MOL0     H65716  10.178   1.859   1.908  0.0147  0.3930  1.2753
  487MOL0     H65717  10.481   1.849   1.962  0.4048 -0.3580 -1.9860
  487MOL0     H65718  10.352   1.794   2.080 -1.6770 -0.1720 -0.0064
  487MOL0     H65719  10.261   1.669   1.883  0.5985  0.1562 -0.8188
  487MOL0     H65720  10.376   1.597   1.994  2.7745  0.5483 -0.1796
  487MOL0     H65721  10.431   1.525   1.763 -0.1232 -0.0385 -1.7162
  487MOL0     H65722  10.431   1.694   1.709 -1.1858  1.1145  1.0128
  487MOL0     H65723  10.633   1.731   1.833 -3.5535  0.8548 -0.8846
  487MOL0     H65724  10.649   1.599   1.711  0.4306  1.5431 -0.5619
  487MOL0     H65725  10.589   1.539   1.998  0.8138 -2.8692 -0.2377
  487MOL0     H65726  10.759   1.580   1.961  0.4861 -1.5610  0.9019
  487MOL0     H65727   9.965   1.995   2.305  1.0313  0.8027 -1.0332
  487MOL0     H65728   9.865   1.923   2.505  0.8172  0.8199  0.0028
  487MOL0     H65729   9.843   2.070   2.945  2.1817 -0.8906  1.0335
  487MOL0     H65730   9.693   2.033   3.149  0.8374  1.9396  0.0875
  487MOL0     H65731   9.047   1.665   3.238  0.1740 -0.3050 -2.1706
  487MOL0     H65732   9.072   1.677   2.993  1.5168 -1.6313  1.1019
  487MOL0     H65733   9.515   1.791   2.782 -1.6724  1.0068  1.9393
  487MOL0     H65734   9.632   1.782   2.552 -0.1776 -0.8778  1.6167
  487MOL0     H65735   9.680   1.969   2.428  2.2125 -3.1152  1.7235
  487MOL0     H65736   9.714   1.824   2.327 -0.7982 -1.0545 -1.5150
  487MOL0     H65737   9.659   1.945   2.127 -2.5946 -0.6789  1.4445
  487MOL0     H65738   9.781   2.045   2.208  0.3223  1.6537  3.3453
  487MOL0     H65739   9.619   2.210   2.272 -1.9486 -0.0880  2.0258
  487MOL0     H65740   9.486   2.098   2.255 -0.0813 -2.7752 -1.3962
  487MOL0     H65741   9.484   2.249   2.070  0.1772  1.2013  1.6216
  487MOL0     H65742   9.530   2.098   2.001 -3.2152  1.5030  0.9376
  487MOL0     H65743   9.868   2.352   1.942  0.5985 -0.8709  0.9783
  487MOL0     H65744   9.273   1.931   2.390 -0.3644 -1.7261  0.6080
  487MOL0     H65745   9.148   1.894   2.599 -0.0199  0.8679  0.2161
  488MOL0     O65746   8.941   0.600   2.145  0.1763 -0.9031 -0.1628
  488MOL0     C65747   9.055   0.651   2.131 -0.9283  0.3072 -0.0951
  488MOL0     O65748   9.120   0.728   2.219 -0.0948  0.3439 -0.5803
  488MOL0     C65749   9.033   0.784   2.308 -0.0817 -0.1729  0.4947
  488MOL0     C65750   9.030   0.741   2.441  0.2628  0.0027 -0.2803
  488MOL0     C65751   8.967   0.817   2.536 -0.2837  0.1725  0.5063
  488MOL0     C65752   8.894   0.929   2.498 -0.3734 -0.3520  0.8810
  488MOL0     O65753   8.802   0.992   2.580 -0.4662  0.3683 -0.1130
  488MOL0     C65754   8.693   0.904   2.624 -0.0857 -0.0774  0.6556
  488MOL0     C65755   8.595   0.999   2.684  0.7119 -0.1963 -0.2451
  488MOL0     C65756   8.543   1.108   2.589 -0.2134  0.6825 -0.2244
  488MOL0     C65757   8.478   1.062   2.454 -1.2282 -0.0617 -0.0062
  488MOL0     C65758   8.343   1.119   2.430  0.9688  0.6569 -0.2439
  488MOL0     C65759   8.344   1.268   2.382  0.8725 -0.1302 -0.6398
  488MOL0     C65760   8.228   1.361   2.422 -0.5791  0.4383 -0.2131
  488MOL0     C65761   8.173   1.424   2.293  0.2983  0.3667  0.4150
  488MOL0     N65762   8.078   1.531   2.336 -0.3339  0.0843 -0.6437
  488MOL0     C65763   8.107   1.630   2.425  0.2031 -0.5499  0.7568
  488MOL0     C65764   7.987   1.662   2.477  0.1777 -0.5151  0.4772
  488MOL0     C65765   7.961   1.775   2.567  0.2236 -0.0175 -0.4322
  488MOL0     C65766   7.903   1.898   2.491  0.3850 -0.8334  1.3499
  488MOL0     C65767   7.999   1.967   2.401 -0.8840  0.0879  0.3816
  488MOL0     C65768   7.949   2.094   2.328 -0.7275  0.5112 -0.0817
  488MOL0     O65769   7.983   2.111   2.189 -1.7716 -0.4964  0.8825
  488MOL0     C65770   8.116   2.124   2.150  0.5289 -0.0474 -0.8776
  488MOL0     C65771   8.227   2.104   2.227  0.0462  0.1993  0.1660
  488MOL0     C65772   8.351   2.126   2.169  0.2749 -1.5361  0.0421
  488MOL0     C65773   8.470   2.094   2.260  0.2267  0.0112 -0.5237
  488MOL0     C65774   8.368   2.172   2.035  1.3021 -0.3002  0.3123
  488MOL0     C65775   8.501   2.187   1.970 -0.0095  0.1108  0.1645
  488MOL0     O65776   8.524   2.132   1.848  0.2115  0.1411 -1.3056
  488MOL0     C65777   8.629   2.168   1.772  0.3907  0.8885  0.1444
  488MOL0     C65778   8.706   2.064   1.705 -0.2539  0.1515 -0.7693
  488MOL0     C65779   8.825   2.085   1.642  0.4404  0.6769  0.2594
  488MOL0     C65780   8.873   2.218   1.626  0.7347  0.2766  0.5013
  488MOL0     O65781   8.992   2.226   1.556 -0.1405 -0.5130 -0.4840
  488MOL0     C65782   9.044   2.351   1.516  0.0883  0.1378  0.6870
  488MOL0     C65783   9.138   2.407   1.624 -0.0209  1.2876 -0.5137
  488MOL0     C65784   9.265   2.322   1.635  0.8226 -0.2438 -0.1146
  488MOL0     C65785   9.361   2.374   1.756  0.2336 -0.3543 -0.3432
  488MOL0     C65786   9.478   2.457   1.723 -0.0119 -0.0044  0.1715
  488MOL0     C65787   9.513   2.555   1.839 -0.1957  0.0250  0.3661
  488MOL0     C65788   9.641   2.646   1.817 -0.0316  1.1550  1.2598
  488MOL0     C65789   9.608   2.735   1.698 -1.0721  0.0997  0.7201
  488MOL0    Cl65790   9.739   2.849   1.675 -0.3165 -0.3868 -0.4941
  488MOL0     C65791   8.807   2.319   1.702  1.0712  0.0135  0.0619
  488MOL0     C65792   8.690   2.295   1.771  0.9177  0.9665  1.2356
  488MOL0     O65793   8.588   2.238   2.041 -0.7961 -0.2041  0.8112
  488MOL0     C65794   8.250   2.177   1.962 -0.4110  0.2158  0.1373
  488MOL0     C65795   8.126   2.168   2.019 -0.6245  0.3430 -0.7099
  488MOL0     N65796   7.886   1.590   2.419 -0.7902 -0.4623 -0.1936
  488MOL0     N65797   7.943   1.517   2.335  0.6063  0.5658  0.9411
  488MOL0     C65798   8.902   0.974   2.367  0.3390 -0.2780  0.2839
  488MOL0     C65799   8.976   0.903   2.276 -0.1995  0.9344 -0.0583
  488MOL0     C65800   9.136   0.590   2.022 -0.6100 -0.3075 -0.5214
  488MOL0     C65801   9.084   0.494   1.929 -0.5966  0.7454 -0.8878
  488MOL0     C65802   9.170   0.450   1.831  0.8012  0.2190 -0.3172
  488MOL0     C65803   9.300   0.500   1.806 -0.0442  0.4214  0.2913
  488MOL0     O65804   9.373   0.438   1.708 -0.4750 -0.0419 -0.5733
  488MOL0     C65805   9.461   0.525   1.635 -0.5655 -1.3698 -0.0330
  488MOL0     C65806   9.523   0.439   1.518  0.3116 -0.6359  0.1456
  488MOL0     C65807   9.416   0.402   1.413  0.8784 -0.5866 -0.3299
  488MOL0     C65808   9.464   0.308   1.307  0.3809 -0.4175  0.9294
  488MOL0     C65809   9.349   0.276   1.209  0.2938  0.0943 -0.0262
  488MOL0     C65810   9.259   0.268   1.131  0.4085 -1.1174  0.7142
  488MOL0     C65811   9.346   0.593   1.902  0.3992  0.5416  0.6241
  488MOL0     C65812   9.272   0.637   2.004  0.3322  0.9806  0.3385
  488MOL0     H65813   9.086   0.652   2.468  0.3891 -0.2879 -1.4443
  488MOL0     H65814   8.965   0.779   2.638  1.2624 -0.3932  0.3534
  488MOL0     H65815   8.647   0.841   2.547  1.0576  0.7973 -0.8152
  488MOL0     H65816   8.740   0.836   2.696  1.3764  0.1134 -0.0849
  488MOL0     H65817   8.501   0.958   2.721 -0.1475  0.8853 -1.1929
  488MOL0     H65818   8.635   1.044   2.775  0.2836  1.7759 -0.9956
  488MOL0     H65819   8.467   1.162   2.647  1.0061  1.1013  1.0157
  488MOL0     H65820   8.618   1.182   2.560  0.3189 -0.2709 -1.3854
  488MOL0     H65821   8.554   1.080   2.377 -0.7869 -2.2543 -0.1597
  488MOL0     H65822   8.481   0.953   2.459  4.3036 -0.2085 -0.1687
  488MOL0     H65823   8.291   1.059   2.355 -1.4546  1.5235  0.6656
  488MOL0     H65824   8.293   1.106   2.526  1.7522 -0.5996  0.0234
  488MOL0     H65825   8.429   1.318   2.429 -0.4866  1.5568  0.1401
  488MOL0     H65826   8.358   1.270   2.274  4.6983 -3.3010 -0.4144
  488MOL0     H65827   8.155   1.307   2.484  0.1287  0.1339  0.3775
  488MOL0     H65828   8.271   1.442   2.482 -0.6109  0.2967  0.0040
  488MOL0     H65829   8.136   1.349   2.223 -4.7952  1.4924  1.4359
  488MOL0     H65830   8.255   1.469   2.237  2.8678  0.1363  3.6512
  488MOL0     H65831   8.202   1.678   2.445  1.3407 -2.6103  0.5571
  488MOL0     H65832   7.893   1.756   2.651  1.5894 -0.7990  0.5291
  488MOL0     H65833   8.056   1.816   2.603 -0.3264 -0.2716  1.4177
  488MOL0     H65834   7.849   1.963   2.560 -1.2243 -1.2503  0.5290
  488MOL0     H65835   7.825   1.862   2.424  0.0665  0.3893  1.0510
  488MOL0     H65836   8.035   1.899   2.323 -2.0188  1.3999 -1.3304
  488MOL0     H65837   8.084   1.984   2.468 -1.9093 -0.6762  1.9402
  488MOL0     H65838   7.979   2.178   2.392  1.4132 -2.7250  3.5886
  488MOL0     H65839   7.840   2.089   2.336 -0.5416 -3.1178  2.1957
  488MOL0     H65840   8.227   2.071   2.331  2.8146  1.0041  0.5206
  488MOL0     H65841   8.528   2.186   2.274  0.7256  0.2301 -3.4290
  488MOL0     H65842   8.433   2.058   2.356 -0.2103 -1.0262 -1.0682
  488MOL0     H65843   8.536   2.024   2.209  1.7843  1.0169  0.0420
  488MOL0     H65844   8.674   1.960   1.708 -0.3615  0.0496 -3.2133
  488MOL0     H65845   8.878   1.998   1.603 -1.5471 -1.1347  1.4004
  488MOL0     H65846   9.110   2.339   1.429  1.7030 -0.2722  1.9279
  488MOL0     H65847   8.962   2.416   1.484  0.5890  0.0262 -0.9479
  488MOL0     H65848   9.157   2.513   1.607 -0.2434  1.5020  0.5088
  488MOL0     H65849   9.070   2.397   1.709  1.1928 -3.1019  0.1778
  488MOL0     H65850   9.311   2.320   1.536  1.1485  0.5652  0.0129
  488MOL0     H65851   9.230   2.220   1.655  1.6789 -0.0556  2.8312
  488MOL0     H65852   9.301   2.424   1.833 -1.7274 -2.0346 -0.6758
  488MOL0     H65853   9.397   2.287   1.811  2.9383  1.6545  1.2306
  488MOL0     H65854   9.452   2.503   1.627  0.5621  0.3896  0.2014
  488MOL0     H65855   9.557   2.385   1.703  1.4076  1.4272  0.3958
  488MOL0     H65856   9.431   2.624   1.862  0.5217  1.1322 -0.2831
  488MOL0     H65857   9.525   2.507   1.937 -1.1022  0.7590  0.8528
  488MOL0     H65858   9.733   2.589   1.797 -0.7738  0.6830 -1.2323
  488MOL0     H65859   9.653   2.697   1.912  3.3216  2.8308  0.1092
  488MOL0     H65860   9.511   2.783   1.713 -1.3364  0.9123 -2.7522
  488MOL0     H65861   9.585   2.676   1.608  1.3235 -1.8608  1.2763
  488MOL0     H65862   8.845   2.421   1.702 -2.1192  1.3500 -1.7091
  488MOL0     H65863   8.633   2.368   1.827 -2.3808 -0.7595  0.3594
  488MOL0     H65864   8.257   2.229   1.866  1.5476  0.9015  0.5941
  488MOL0     H65865   8.037   2.189   1.960 -0.7663 -0.1502 -0.6835
  488MOL0     H65866   8.840   1.056   2.331  0.6507 -0.6927 -1.2439
  488MOL0     H65867   8.985   0.933   2.172  5.1484 -1.1363 -0.5449
  488MOL0     H65868   8.979   0.464   1.927 -1.8083  4.4251 -0.1397
  488MOL0     H65869   9.143   0.372   1.761  1.5856  0.6204 -1.0871
  488MOL0     H65870   9.407   0.610   1.591  1.5822  1.1261  1.8672
  488MOL0     H65871   9.538   0.575   1.693 -1.0539  2.5305 -2.3185
  488MOL0     H65872   9.562   0.344   1.557 -0.2112 -1.4845 -1.3086
  488MOL0     H65873   9.611   0.479   1.468 -1.3587  0.9872 -1.6352
  488MOL0     H65874   9.375   0.492   1.366  0.1520  0.2460  1.7584
  488MOL0     H65875   9.331   0.360   1.466 -0.8133  1.9780 -0.8468
  488MOL0     H65876   9.499   0.216   1.353  0.5879  0.3491  2.3599
  488MOL0     H65877   9.544   0.355   1.249 -1.1034 -0.4316 -1.2614
  488MOL0     H65878   9.192   0.249   1.050 -0.0442  0.6806  0.6375
  488MOL0     H65879   9.448   0.630   1.907 -0.1785  2.5609 -1.0576
  488MOL0     H65880   9.307   0.715   2.070 -0.7967  0.0934  2.0751
  489MOL0     O65881   8.585  11.445   9.244  0.1389 -0.2244 -0.2318
  489MOL0     C65882   8.628  11.509   9.342 -0.2534  0.6012 -0.2761
  489MOL0     O65883   8.553  11.544   9.447 -0.2057 -0.2475 -0.9054
  489MOL0     C65884   8.423  11.505   9.463  0.8345 -0.4114 -0.9944
  489MOL0     C65885   8.364  11.385   9.418 -0.1842 -0.6322  0.4736
  489MOL0     C65886   8.226  11.367   9.424  0.2334 -0.4865 -0.4488
  489MOL0     C65887   8.144  11.461   9.486 -0.1637 -0.0092  0.1219
  489MOL0     O65888   8.014  11.433   9.498  0.4401 -1.1903 -1.4293
  489MOL0     C65889   7.933  11.530   9.564 -0.0543  0.4935 -0.5498
  489MOL0     C65890   7.780  11.493   9.565  0.8295  0.0349 -0.2226
  489MOL0     C65891   7.701  11.611   9.624 -1.0585  0.0244  1.3671
  489MOL0     C65892   7.580  11.565   9.697 -0.6835  0.3104 -0.2826
  489MOL0     C65893   7.529  11.681   9.780 -0.2660 -0.7011  0.3637
  489MOL0     C65894   7.384  11.674   9.815  0.1522 -0.9359  0.4139
  489MOL0     C65895   7.351  11.547   9.901 -0.9357 -0.2067  0.5171
  489MOL0     C65896   7.198  11.531   9.903  0.9460  0.1420 -0.2244
  489MOL0     N65897   7.120  11.647   9.924  0.0320 -0.4495 -0.1732
  489MOL0     C65898   7.108  11.726  10.037 -0.2458 -0.3138 -1.2135
  489MOL0     C65899   7.021  11.818  10.009  0.7042 -0.5945  1.1161
  489MOL0     C65900   6.983  11.936  10.101  0.3829  0.2396 -0.4218
  489MOL0     C65901   7.105  12.028  10.136  0.4880 -0.6016  1.1280
  489MOL0     C65902   7.048  12.168  10.181  0.3456  0.1811  0.4362
  489MOL0     C65903   7.150  12.266  10.242  0.8436  0.1991  0.3347
  489MOL0     O65904   7.237  12.330  10.139  0.3240  0.5192  0.8534
  489MOL0     C65905   7.197  12.420  10.038  0.3799 -0.2794 -0.2103
  489MOL0     C65906   7.085  12.488  10.055 -0.1730 -0.3261 -0.2315
  489MOL0     C65907   7.051  12.596   9.974  0.2760 -0.3047 -0.7028
  489MOL0     C65908   6.922  12.671  10.012  0.3580  0.3864  0.0846
  489MOL0     C65909   7.132  12.633   9.866  0.9184  0.9158  0.9720
  489MOL0     C65910   7.112  12.759   9.786  0.0740  0.9036 -1.6981
  489MOL0     O65911   7.172  12.747   9.661 -1.1140  0.5279  0.0067
  489MOL0     C65912   7.246  12.860   9.619  0.5476 -0.7150 -0.6730
  489MOL0     C65913   7.317  12.934   9.710 -0.3556 -0.1335  0.2763
  489MOL0     C65914   7.408  13.028   9.662 -1.3194  0.5044 -0.5076
  489MOL0     C65915   7.415  13.062   9.521 -0.0105 -0.4820 -0.6032
  489MOL0     O65916   7.503  13.150   9.466  0.3569 -0.3326 -0.2491
  489MOL0     C65917   7.452  13.238   9.365  0.3978 -0.4926 -0.2983
  489MOL0     C65918   7.527  13.381   9.366 -0.1552  0.6819 -0.0723
  489MOL0     C65919   7.507  13.454   9.502  1.4794 -0.0617  0.2072
  489MOL0     C65920   7.585  13.591   9.526 -0.8485 -0.5995 -0.1959
  489MOL0     C65921   7.492  13.702   9.589  0.8145 -1.0502  0.3739
  489MOL0     C65922   7.575  13.816   9.647 -0.4804  0.2941  0.2079
  489MOL0     C65923   7.490  13.927   9.709  0.1341 -0.1418  0.0362
  489MOL0     C65924   7.577  14.062   9.722  1.2400 -0.9316  0.2314
  489MOL0    Cl65925   7.730  14.016   9.805  0.3461 -0.0116 -0.4267
  489MOL0     C65926   7.331  12.986   9.436 -0.4547 -0.1229 -1.2391
  489MOL0     C65927   7.256  12.883   9.491  0.6447  0.4147  0.2725
  489MOL0     O65928   7.034  12.846   9.817 -0.2442  0.2652  0.7337
  489MOL0     C65929   7.246  12.558   9.839 -0.1665  0.7313 -0.1982
  489MOL0     C65930   7.278  12.442   9.920 -0.0735 -0.5272 -0.6379
  489MOL0     N65931   6.976  11.793   9.877 -0.1723  0.5228 -0.1549
  489MOL0     N65932   7.034  11.689   9.826  0.7115 -0.0194  0.0571
  489MOL0     C65933   8.209  11.561   9.557 -0.5630 -0.4639 -0.4517
  489MOL0     C65934   8.345  11.592   9.535 -0.0448  0.0014 -0.1065
  489MOL0     C65935   8.762  11.575   9.331 -0.0357  0.6499  1.1861
  489MOL0     C65936   8.835  11.560   9.209  0.2144 -0.6905  0.6395
  489MOL0     C65937   8.959  11.614   9.192 -0.0817 -0.5775 -1.0464
  489MOL0     C65938   9.010  11.695   9.290  0.9418 -0.3051 -0.6297
  489MOL0     O65939   9.135  11.757   9.270  0.4746 -0.2886 -0.2277
  489MOL0     C65940   9.139  11.837   9.147 -0.4069 -0.0137  0.0659
  489MOL0     C65941   9.159  11.988   9.173 -0.3362 -0.7104  1.1367
  489MOL0     C65942   9.105  12.065   9.052 -0.1767  1.3413  0.8678
  489MOL0     C65943   9.202  12.076   8.940  0.8714 -0.3806  0.1793
  489MOL0     C65944   9.217  11.949   8.864  0.5299  0.2693 -0.5683
  489MOL0     C65945   9.207  11.858   8.790  0.1667 -0.2244  0.3415
  489MOL0     C65946   8.938  11.723   9.407  0.2155  0.8001  0.7335
  489MOL0     C65947   8.814  11.661   9.429 -0.7791 -0.1227  0.0525
  489MOL0     H65948   8.425  11.310   9.369  0.0929  1.7029 -3.1731
  489MOL0     H65949   8.180  11.272   9.400  0.0322 -0.5386  0.1329
  489MOL0     H65950   7.967  11.549   9.666 -1.3937  2.1735 -0.3615
  489MOL0     H65951   7.935  11.626   9.511 -0.8588  0.5407 -0.5087
  489MOL0     H65952   7.756  11.474   9.460  1.2078 -3.6103  0.1985
  489MOL0     H65953   7.768  11.394   9.611 -2.0737  0.8353  0.9660
  489MOL0     H65954   7.764  11.675   9.688 -0.7569  3.9964 -2.4144
  489MOL0     H65955   7.681  11.679   9.541  0.2260  0.5213  1.4295
  489MOL0     H65956   7.502  11.522   9.634  0.2855  0.0604 -1.3398
  489MOL0     H65957   7.599  11.481   9.765 -0.8429  0.2144 -0.3579
  489MOL0     H65958   7.597  11.690   9.866  1.7209 -0.0658 -1.1939
  489MOL0     H65959   7.544  11.775   9.726 -0.7975 -0.0526  1.3084
  489MOL0     H65960   7.357  11.768   9.863  0.4339 -0.3604 -0.5305
  489MOL0     H65961   7.337  11.666   9.716  1.4362  1.7832 -0.5110
  489MOL0     H65962   7.403  11.458   9.863  1.9893  1.8941 -0.8059
  489MOL0     H65963   7.401  11.570   9.995  1.4832  0.3499 -0.8230
  489MOL0     H65964   7.172  11.451   9.973  1.3052 -0.0385 -0.2898
  489MOL0     H65965   7.158  11.492   9.809 -1.8907  2.3621 -0.0679
  489MOL0     H65966   7.159  11.717  10.133 -1.4431  2.4422 -0.2090
  489MOL0     H65967   6.906  11.994  10.050 -1.4573 -0.4299  1.4378
  489MOL0     H65968   6.938  11.898  10.193 -0.6156  1.0984 -0.5490
  489MOL0     H65969   7.168  12.032  10.046 -1.5710 -0.7487 -0.4145
  489MOL0     H65970   7.161  11.981  10.217  1.1428  0.1808  1.1367
  489MOL0     H65971   6.969  12.146  10.254  0.4579 -0.9143  0.2411
  489MOL0     H65972   6.999  12.213  10.094 -0.3934  0.3604  0.9413
  489MOL0     H65973   7.209  12.206  10.311  0.4534  1.4763  1.8592
  489MOL0     H65974   7.109  12.341  10.312  0.9166 -0.4530  1.0921
  489MOL0     H65975   7.021  12.464  10.139 -0.0844 -2.1924 -0.6484
  489MOL0     H65976   6.851  12.617  10.074 -3.0841  1.5505 -2.5081
  489MOL0     H65977   6.931  12.773  10.051  0.4587  0.1106  0.7888
  489MOL0     H65978   6.867  12.686   9.918 -0.0411  1.8244  0.5162
  489MOL0     H65979   7.316  12.903   9.814  0.6314  0.5564  0.5076
  489MOL0     H65980   7.459  13.071   9.748 -0.4613  1.0350 -1.2578
  489MOL0     H65981   7.464  13.198   9.264 -2.4893  1.5382 -1.5966
  489MOL0     H65982   7.343  13.246   9.378  0.1522 -0.9440 -1.8371
  489MOL0     H65983   7.634  13.370   9.346 -0.3800 -1.4757 -0.3518
  489MOL0     H65984   7.487  13.450   9.290 -1.3160  2.8162  2.3239
  489MOL0     H65985   7.546  13.380   9.572 -0.9725 -3.4551 -1.7312
  489MOL0     H65986   7.400  13.461   9.522  2.1901  1.1844  4.4052
  489MOL0     H65987   7.674  13.565   9.583 -0.2259  1.5425 -0.1352
  489MOL0     H65988   7.624  13.630   9.431  1.1634 -1.3232  0.2753
  489MOL0     H65989   7.427  13.655   9.663  0.9199 -0.8429  0.6016
  489MOL0     H65990   7.434  13.743   9.506  1.8066 -1.6302 -0.6448
  489MOL0     H65991   7.640  13.776   9.725  1.4757  1.9236 -0.5124
  489MOL0     H65992   7.642  13.853   9.569  0.6235  0.0997  1.0363
  489MOL0     H65993   7.439  13.914   9.805  0.5242  0.1352  0.2821
  489MOL0     H65994   7.413  13.954   9.636 -1.4146  0.7479  1.9155
  489MOL0     H65995   7.520  14.145   9.765  0.6733 -1.2912  0.1772
  489MOL0     H65996   7.606  14.090   9.621 -3.7080 -0.9223 -1.4490
  489MOL0     H65997   7.338  13.002   9.329 -0.3492  0.6662 -1.1202
  489MOL0     H65998   7.212  12.804   9.429  0.5516  1.0326 -0.4629
  489MOL0     H65999   7.310  12.583   9.755 -0.5996  1.9584 -0.1835
  489MOL0     H66000   7.376  12.399   9.905  1.6753  2.6671  0.7050
  489MOL0     H66001   8.155  11.621   9.629  0.8268 -1.0885  1.1766
  489MOL0     H66002   8.385  11.684   9.575 -3.1288 -0.5827  5.3396
  489MOL0     H66003   8.810  11.492   9.129 -1.1416  1.7067 -1.1185
  489MOL0     H66004   9.004  11.590   9.096  2.4226  1.7700 -0.5693
  489MOL0     H66005   9.230  11.807   9.094 -0.3946 -0.8831  0.5584
  489MOL0     H66006   9.044  11.822   9.095 -0.5503 -0.4626  0.4464
  489MOL0     H66007   9.266  12.013   9.175 -0.4945  0.3107 -0.7822
  489MOL0     H66008   9.105  12.023   9.261 -0.1720  1.0102  0.5807
  489MOL0     H66009   9.084  12.164   9.093 -0.2057  0.3219  3.4881
  489MOL0     H66010   9.006  12.030   9.023  0.3114 -2.3532  2.9203
  489MOL0     H66011   9.294  12.114   8.984  1.0159 -0.3184 -0.1714
  489MOL0     H66012   9.173  12.154   8.869  0.9709 -0.6979 -0.2172
  489MOL0     H66013   9.219  11.769   8.731 -0.1875  1.3348 -2.2258
  489MOL0     H66014   8.984  11.775   9.490  0.2927 -0.3909  1.4674
  489MOL0     H66015   8.742  11.687   9.506 -0.8445  1.2181 -0.4235
  490MOL0     O66016   5.076   0.284  11.467 -0.3245  0.3390 -0.1637
  490MOL0     C66017   5.140   0.203  11.525  0.1655 -0.2215 -0.4919
  490MOL0     O66018   5.097   0.085  11.566  0.3636 -0.1267 -0.0357
  490MOL0     C66019   4.971   0.027  11.545  0.1117  0.1034  0.2741
  490MOL0     C66020   4.856   0.082  11.483 -0.6372  0.0300 -0.6015
  490MOL0     C66021   4.741   0.003  11.464  0.5363  0.1428 -0.1236
  490MOL0     C66022   4.733  -0.120  11.518 -0.2357 -0.3802 -0.3596
  490MOL0     O66023   4.635  -0.221  11.491  0.1488 -0.9031 -1.0325
  490MOL0     C66024   4.502  -0.166  11.461  0.9240 -0.4661 -0.0617
  490MOL0     C66025   4.400  -0.282  11.454 -0.1240 -0.1337 -0.6582
  490MOL0     C66026   4.259  -0.269  11.394  0.0140 -0.5558  1.2454
  490MOL0     C66027   4.182  -0.406  11.398  0.1183 -0.1396  0.0713
  490MOL0     C66028   4.029  -0.401  11.367  0.4461  0.3305 -0.1663
  490MOL0     C66029   3.952  -0.515  11.447  0.4902  0.2459 -0.2581
  490MOL0     C66030   3.794  -0.521  11.415  0.0801  0.4480  0.9297
  490MOL0     C66031   3.733  -0.661  11.453 -0.7775  0.0788 -0.6751
  490MOL0     N66032   3.588  -0.663  11.437  0.3115 -0.3476  0.4708
  490MOL0     C66033   3.511  -0.637  11.325  0.1060 -0.2344 -0.0978
  490MOL0     C66034   3.380  -0.631  11.378  0.0719 -0.4960 -0.0376
  490MOL0     C66035   3.258  -0.594  11.298 -0.2209 -0.4408  0.0494
  490MOL0     C66036   3.278  -0.445  11.261  0.0300 -0.5956  0.4941
  490MOL0     C66037   3.290  -0.362  11.388 -0.4034  0.6032 -0.1741
  490MOL0     C66038   3.175  -0.367  11.498 -0.2302 -0.6930  0.3530
  490MOL0     O66039   3.044  -0.325  11.443  0.0494 -0.9959 -0.3742
  490MOL0     C66040   2.938  -0.315  11.525 -0.9939  0.8246  0.4537
  490MOL0     C66041   2.938  -0.362  11.655 -0.8124  0.5764 -0.4832
  490MOL0     C66042   2.831  -0.359  11.742 -0.0837  1.5883 -0.3850
  490MOL0     C66043   2.855  -0.427  11.882  0.2612 -0.9562  0.2565
  490MOL0     C66044   2.714  -0.298  11.691 -0.2965  0.3924  0.1665
  490MOL0     C66045   2.589  -0.276  11.770 -0.3316 -0.0547 -0.0203
  490MOL0     O66046   2.542  -0.395  11.804  1.0634  0.0872  1.1852
  490MOL0     C66047   2.439  -0.403  11.889  0.9152  1.0491 -0.6538
  490MOL0     C66048   2.312  -0.354  11.847  0.3303  0.2935 -0.4503
  490MOL0     C66049   2.206  -0.369  11.941  0.2708 -0.0302 -0.5423
  490MOL0     C66050   2.220  -0.423  12.073 -0.4298 -0.8172 -0.8104
  490MOL0     O66051   2.108  -0.436  12.154  0.0616  0.0926  0.2591
  490MOL0     C66052   1.999  -0.520  12.108 -0.5014  0.0945  0.3317
  490MOL0     C66053   1.930  -0.564  12.234  0.1919  0.1280 -0.0275
  490MOL0     C66054   1.819  -0.653  12.198  0.6828  0.7499  0.3479
  490MOL0     C66055   1.700  -0.643  12.294 -0.6159 -0.6190  0.6069
  490MOL0     C66056   1.601  -0.762  12.261 -0.4897 -0.0174  0.1606
  490MOL0     C66057   1.473  -0.776  12.351 -0.3916  0.8639 -0.4224
  490MOL0     C66058   1.401  -0.893  12.301  0.0055  0.1822  0.1365
  490MOL0     C66059   1.294  -0.928  12.408 -0.8594  0.4308  1.0307
  490MOL0    Cl66060   1.240  -1.093  12.359  0.0449 -0.2246 -0.4399
  490MOL0     C66061   2.342  -0.478  12.111 -0.3142 -0.7781  0.9378
  490MOL0     C66062   2.442  -0.472  12.016 -0.6011 -0.5144  0.4131
  490MOL0     O66063   2.543  -0.173  11.802 -0.0460 -0.2396 -0.2411
  490MOL0     C66064   2.707  -0.255  11.561 -0.9400  0.1934  1.2449
  490MOL0     C66065   2.821  -0.258  11.480  0.2297  0.5711  0.2235
  490MOL0     N66066   3.385  -0.680  11.505  0.1230  0.0484 -0.2769
  490MOL0     N66067   3.507  -0.703  11.536  0.2185  0.2764 -0.4945
  490MOL0     C66068   4.838  -0.169  11.590  0.5843  1.2960 -0.6027
  490MOL0     C66069   4.957  -0.101  11.602  0.3795  0.3904 -0.4791
  490MOL0     C66070   5.277   0.240  11.562  0.4908  0.0293  0.0366
  490MOL0     C66071   5.325   0.362  11.517  0.1468  0.8412  0.6360
  490MOL0     C66072   5.444   0.415  11.570 -0.3217  0.3077 -0.4239
  490MOL0     C66073   5.520   0.344  11.666 -0.7053  0.1265  0.5824
  490MOL0     O66074   5.628   0.404  11.733 -0.4390 -0.4739  0.3435
  490MOL0     C66075   5.636   0.401  11.877  0.1484  0.2945 -0.3225
  490MOL0     C66076   5.751   0.328  11.947  0.3235  0.3074  1.0848
  490MOL0     C66077   5.886   0.412  11.921 -0.5001  0.6193 -0.7593
  490MOL0     C66078   6.009   0.324  11.976  1.1603 -0.3242 -0.7102
  490MOL0     C66079   6.006   0.315  12.123 -0.3472 -0.7021  0.3386
  490MOL0     C66080   6.003   0.292  12.246  0.3897  0.5227  0.6096
  490MOL0     C66081   5.482   0.218  11.698  0.2707 -0.3439 -0.3490
  490MOL0     C66082   5.359   0.172  11.650  0.2387  0.0727  0.8948
  490MOL0     H66083   4.863   0.180  11.435  0.6335 -1.1728 -3.0866
  490MOL0     H66084   4.647   0.034  11.421  0.8709 -2.0033 -2.6926
  490MOL0     H66085   4.472  -0.082  11.525  1.1966  1.2050 -2.0391
  490MOL0     H66086   4.497  -0.113  11.366  1.8806 -0.8996 -0.3618
  490MOL0     H66087   4.448  -0.366  11.404  0.0507  0.3016 -1.2252
  490MOL0     H66088   4.371  -0.319  11.553  0.1139  1.9134  0.2359
  490MOL0     H66089   4.200  -0.198  11.453  0.2085  0.8184 -0.1656
  490MOL0     H66090   4.265  -0.235  11.291  2.8701 -2.1882  0.7655
  490MOL0     H66091   4.227  -0.476  11.326  1.6214 -2.2337  2.8328
  490MOL0     H66092   4.200  -0.468  11.487  2.2262 -0.3508 -0.4294
  490MOL0     H66093   3.983  -0.306  11.394  1.7075  0.3199  2.3785
  490MOL0     H66094   4.003  -0.405  11.261 -0.5913 -3.7423  0.0808
  490MOL0     H66095   3.997  -0.613  11.425 -2.8678 -0.7686 -3.6573
  490MOL0     H66096   3.952  -0.518  11.556  0.6361 -2.4450 -0.2496
  490MOL0     H66097   3.735  -0.470  11.491 -3.0875 -1.8242  0.1911
  490MOL0     H66098   3.780  -0.487  11.312 -0.7851  1.7601  1.4509
  490MOL0     H66099   3.760  -0.682  11.557  0.3184 -0.4149 -1.0430
  490MOL0     H66100   3.788  -0.743  11.405  0.2845  0.3575  0.0199
  490MOL0     H66101   3.548  -0.602  11.229  1.6043 -0.2751  0.4342
  490MOL0     H66102   3.262  -0.652  11.205  1.7312 -1.0312  0.4506
  490MOL0     H66103   3.165  -0.614  11.352 -1.0211 -2.0719 -1.8056
  490MOL0     H66104   3.199  -0.409  11.194  1.9342  2.1057 -0.4664
  490MOL0     H66105   3.369  -0.416  11.208 -1.4533  3.5712 -0.1931
  490MOL0     H66106   3.281  -0.257  11.359 -0.3329  0.7617  0.3628
  490MOL0     H66107   3.390  -0.372  11.429 -0.4895  2.1280  0.4655
  490MOL0     H66108   3.204  -0.298  11.578  0.6880 -1.7403  0.9641
  490MOL0     H66109   3.170  -0.469  11.539 -0.0041 -1.0916 -0.5820
  490MOL0     H66110   3.027  -0.407  11.699 -1.1716  2.1416  2.0779
  490MOL0     H66111   2.935  -0.370  11.929  1.3370 -0.6544 -1.8485
  490MOL0     H66112   2.771  -0.406  11.950  1.4268  2.3101  0.8657
  490MOL0     H66113   2.865  -0.536  11.882 -0.4576 -1.0416  1.1445
  490MOL0     H66114   2.288  -0.307  11.753  0.7850  1.2166 -0.1136
  490MOL0     H66115   2.105  -0.337  11.918 -0.9039 -1.0491  2.6150
  490MOL0     H66116   1.928  -0.466  12.045 -0.9701 -0.1553  0.6361
  490MOL0     H66117   2.029  -0.600  12.039  2.8286 -0.5806  2.3373
  490MOL0     H66118   2.003  -0.610  12.301 -3.4708 -2.8539  2.3695
  490MOL0     H66119   1.887  -0.475  12.282  0.1740 -1.0056  2.2239
  490MOL0     H66120   1.867  -0.751  12.190  0.5242  0.5367  1.6815
  490MOL0     H66121   1.785  -0.643  12.095  0.7982  0.7276  0.3074
  490MOL0     H66122   1.737  -0.644  12.397  1.5030 -0.8607 -0.1013
  490MOL0     H66123   1.653  -0.548  12.269 -0.6124 -0.6308  0.5557
  490MOL0     H66124   1.663  -0.852  12.253 -0.7330 -0.1094 -0.7862
  490MOL0     H66125   1.565  -0.749  12.159 -0.5593  3.1996  0.4836
  490MOL0     H66126   1.505  -0.800  12.453 -3.4115 -2.3821 -0.0794
  490MOL0     H66127   1.415  -0.684  12.339 -2.7944 -0.8252 -2.8776
  490MOL0     H66128   1.474  -0.974  12.289 -1.5049 -1.1659 -0.2436
  490MOL0     H66129   1.365  -0.872  12.200  0.6850  2.8461  0.3678
  490MOL0     H66130   1.208  -0.861  12.409 -1.7989 -0.7101 -0.0832
  490MOL0     H66131   1.335  -0.935  12.509 -1.4359  0.4420  1.2665
  490MOL0     H66132   2.349  -0.525  12.209  0.5666 -3.3318 -0.2617
  490MOL0     H66133   2.531  -0.524  12.048  1.3613 -0.4431 -4.2223
  490MOL0     H66134   2.624  -0.192  11.530 -0.7440  0.9282  2.1615
  490MOL0     H66135   2.807  -0.221  11.379  0.1864 -0.7614 -0.2735
  490MOL0     H66136   4.831  -0.268  11.634  0.5094  2.0827  1.2422
  490MOL0     H66137   5.029  -0.154  11.664 -1.2665 -2.4597 -0.7831
  490MOL0     H66138   5.272   0.430  11.450  2.4108  2.8399  0.7253
  490MOL0     H66139   5.468   0.512  11.527 -3.3771  1.1741 -0.4546
  490MOL0     H66140   5.649   0.502  11.916  5.6140 -1.0175  2.1448
  490MOL0     H66141   5.546   0.349  11.912  0.0737  0.8775  0.3870
  490MOL0     H66142   5.754   0.225  11.911  2.8181  0.9503 -0.7740
  490MOL0     H66143   5.729   0.325  12.055 -0.3833 -0.3322  0.9317
  490MOL0     H66144   5.871   0.513  11.961 -3.0985 -0.2814  0.8027
  490MOL0     H66145   5.888   0.416  11.812  0.8957 -4.4669 -1.1662
  490MOL0     H66146   6.094   0.392  11.964 -1.1415  3.0660  0.7089
  490MOL0     H66147   6.019   0.224  11.934 -1.0909 -1.3485  0.9725
  490MOL0     H66148   5.969   0.274  12.346 -2.0375  1.0529 -0.0465
  490MOL0     H66149   5.539   0.155  11.765 -0.9255 -1.9830 -0.7969
  490MOL0     H66150   5.324   0.073  11.678  0.2570 -1.1162 -2.7412
  491MOL0     O66151   1.831   9.553   9.889  0.4579 -0.4990  0.4604
  491MOL0     C66152   1.834   9.455   9.807 -0.1723 -0.1309 -0.1565
  491MOL0     O66153   1.740   9.360   9.796 -0.5603  0.2587 -0.0298
  491MOL0     C66154   1.626   9.373   9.872 -0.0745  0.2929 -0.6684
  491MOL0     C66155   1.530   9.451   9.811 -0.6430  0.0480 -0.2875
  491MOL0     C66156   1.408   9.449   9.871  0.4803  0.1404  0.2883
  491MOL0     C66157   1.371   9.395   9.990  0.2495  0.6864  1.0518
  491MOL0     O66158   1.250   9.419  10.049 -0.5178  0.6349 -0.0202
  491MOL0     C66159   1.136   9.431   9.968  0.0472 -0.9044  0.1299
  491MOL0     C66160   1.090   9.580   9.944 -0.0492  0.0726  0.1925
  491MOL0     C66161   1.032   9.632  10.079  0.6361 -0.2360 -0.7252
  491MOL0     C66162   0.967   9.762  10.050  0.5574  0.3836 -0.2021
  491MOL0     C66163   0.873   9.797  10.163 -1.0416  0.4551  0.8275
  491MOL0     C66164   0.813   9.935  10.128  0.6303  0.0887  0.3021
  491MOL0     C66165   0.900  10.048  10.180  0.3087  0.4020  0.7266
  491MOL0     C66166   0.827  10.179  10.191  0.3342 -0.5636  0.2634
  491MOL0     N66167   0.699  10.193  10.107  0.0576  0.1626  0.5051
  491MOL0     C66168   0.575  10.232  10.143  0.9136 -1.1247  0.6475
  491MOL0     C66169   0.499  10.203  10.042 -0.1779  1.5674 -0.0107
  491MOL0     C66170   0.349  10.203  10.048 -0.2937 -1.3417 -0.0271
  491MOL0     C66171   0.286  10.330  10.087  0.9145 -0.2637 -0.2673
  491MOL0     C66172   0.134  10.323  10.089 -0.3946 -0.8744  0.1162
  491MOL0     C66173   0.072  10.457  10.108 -0.4468 -0.7023 -0.5826
  491MOL0     O66174  -0.062  10.439  10.155 -0.0881 -0.0843  0.2968
  491MOL0     C66175  -0.156  10.547  10.142 -1.4975 -0.4500 -1.0103
  491MOL0     C66176  -0.285  10.519  10.102 -0.2639  0.3193 -0.1402
  491MOL0     C66177  -0.370  10.627  10.076 -0.0794  0.1674 -1.0601
  491MOL0     C66178  -0.512  10.593  10.039  0.4466  0.1287  1.1389
  491MOL0     C66179  -0.323  10.761  10.091  0.7062  0.3370 -0.1023
  491MOL0     C66180  -0.391  10.893  10.051  0.5469 -0.0610 -0.7704
  491MOL0     O66181  -0.314  11.004  10.039  0.0860  0.4879 -0.3328
  491MOL0     C66182  -0.389  11.124  10.031  0.5444 -0.3082  1.0338
  491MOL0     C66183  -0.443  11.192  10.143 -0.0486  0.1952 -0.6627
  491MOL0     C66184  -0.528  11.309  10.135  0.2967  0.8710 -0.4332
  491MOL0     C66185  -0.556  11.356  10.004 -0.2586  0.2681  0.1073
  491MOL0     O66186  -0.632  11.477   9.988 -0.6301 -0.7344  0.1345
  491MOL0     C66187  -0.648  11.529   9.854 -0.0043  0.5298  0.0561
  491MOL0     C66188  -0.695  11.676   9.861  1.1920 -0.6827  0.2275
  491MOL0     C66189  -0.767  11.703   9.728  0.0808 -0.2380 -0.7433
  491MOL0     C66190  -0.808  11.844   9.704  0.4386  0.1439  0.6056
  491MOL0     C66191  -0.815  11.889   9.553 -0.0038 -0.0161  0.2275
  491MOL0     C66192  -0.838  12.031   9.530 -0.1715 -0.3586  0.8258
  491MOL0     C66193  -0.967  12.086   9.590 -1.0428  0.4686  0.5945
  491MOL0     C66194  -0.961  12.239   9.578  0.8665  0.4950  0.0190
  491MOL0    Cl66195  -1.115  12.300   9.654  0.1195 -0.2064  0.1492
  491MOL0     C66196  -0.499  11.288   9.894  0.0796 -0.1233 -0.1290
  491MOL0     C66197  -0.425  11.169   9.911  0.4466  0.7129  0.6772
  491MOL0     O66198  -0.516  10.889  10.049 -0.3751 -0.2212  0.5514
  491MOL0     C66199  -0.198  10.778  10.150 -0.4805 -0.6106 -0.2240
  491MOL0     C66200  -0.116  10.673  10.173 -0.2278  0.0923  0.5522
  491MOL0     N66201   0.565  10.153   9.941 -0.1042 -0.2196 -0.1391
  491MOL0     N66202   0.689  10.148   9.979  0.8855  0.0367 -0.3076
  491MOL0     C66203   1.471   9.315  10.054  0.3668 -0.0639 -0.6343
  491MOL0     C66204   1.595   9.300   9.994  0.2724  0.0022  0.1935
  491MOL0     C66205   1.933   9.460   9.709  0.1648  0.3565 -0.2101
  491MOL0     C66206   1.904   9.415   9.575 -0.1102  0.1182  0.1281
  491MOL0     C66207   2.003   9.420   9.474  0.1295 -0.5487 -0.1682
  491MOL0     C66208   2.121   9.490   9.504  0.7486  0.5410 -0.0790
  491MOL0     O66209   2.219   9.521   9.413  0.6514  0.1364 -0.0458
  491MOL0     C66210   2.175   9.556   9.286  0.0589 -0.9602  0.4331
  491MOL0     C66211   2.292   9.629   9.216  0.7316 -0.7251  0.4762
  491MOL0     C66212   2.379   9.540   9.122  0.3320  0.3521  0.3953
  491MOL0     C66213   2.454   9.635   9.027  0.1275  0.3474 -0.6614
  491MOL0     C66214   2.542   9.731   9.100  0.2838 -0.5448 -0.0780
  491MOL0     C66215   2.611   9.810   9.162 -0.3320 -0.3202 -0.7535
  491MOL0     C66216   2.143   9.527   9.639 -0.1443 -0.6383  0.2694
  491MOL0     C66217   2.051   9.515   9.735 -0.4182 -0.6571 -0.3976
  491MOL0     H66218   1.548   9.497   9.714 -0.1390 -3.6158 -2.1290
  491MOL0     H66219   1.330   9.499   9.813 -1.6872 -0.8330  2.1944
  491MOL0     H66220   1.158   9.394   9.868  2.4030  1.5515 -0.3834
  491MOL0     H66221   1.055   9.373  10.015  0.3303 -2.6784 -1.4580
  491MOL0     H66222   1.177   9.644   9.927  0.7117 -1.5100 -2.3969
  491MOL0     H66223   1.019   9.580   9.861  1.0508  0.2223 -0.7645
  491MOL0     H66224   0.961   9.554  10.110  1.9713 -2.4979 -2.9113
  491MOL0     H66225   1.111   9.635  10.154 -0.2000  0.2841  0.1454
  491MOL0     H66226   1.044   9.837  10.029 -2.5769  2.8412 -4.4852
  491MOL0     H66227   0.907   9.750   9.959 -0.4254  1.4704  0.2812
  491MOL0     H66228   0.799   9.717  10.175  1.3375 -1.5749  3.1332
  491MOL0     H66229   0.927   9.803  10.258 -2.3604  0.1251  1.6240
  491MOL0     H66230   0.772   9.936  10.026 -1.9061  0.7815  1.2536
  491MOL0     H66231   0.720   9.928  10.186  0.1296  0.9560 -0.3677
  491MOL0     H66232   0.947  10.012  10.271  1.8609 -2.9374 -1.1980
  491MOL0     H66233   0.983  10.066  10.111  0.3657 -2.1492  0.0247
  491MOL0     H66234   0.897  10.260  10.170 -0.1557  0.5919  2.7285
  491MOL0     H66235   0.789  10.198  10.291 -1.2757  1.5764 -0.6814
  491MOL0     H66236   0.547  10.278  10.237 -0.9325 -2.5189  0.8379
  491MOL0     H66237   0.303  10.166   9.955 -0.1664 -0.5280 -0.4230
  491MOL0     H66238   0.341  10.127  10.126  0.6033  0.1015  1.5422
  491MOL0     H66239   0.312  10.417  10.026 -3.4286 -0.5790 -2.9687
  491MOL0     H66240   0.327  10.354  10.186 -0.2502 -2.0877  0.7165
  491MOL0     H66241   0.099  10.250  10.163  0.4030 -0.7036  0.6764
  491MOL0     H66242   0.111  10.294   9.986  1.3374  0.1008 -0.5893
  491MOL0     H66243   0.081  10.521  10.020  2.3715  1.3060  0.9964
  491MOL0     H66244   0.128  10.507  10.188 -1.0849  0.3671 -0.7868
  491MOL0     H66245  -0.324  10.418  10.107 -0.7748  0.1500 -4.0811
  491MOL0     H66246  -0.572  10.629  10.124  0.9103  1.1113  1.0622
  491MOL0     H66247  -0.545  10.644   9.949  1.7503 -1.6451 -0.4302
  491MOL0     H66248  -0.534  10.488  10.016 -3.5469  1.3407 -1.5994
  491MOL0     H66249  -0.407  11.153  10.237 -0.5849  2.7979  0.7100
  491MOL0     H66250  -0.566  11.356  10.224 -2.1451 -0.0593 -0.9120
  491MOL0     H66251  -0.552  11.528   9.803  0.4470  0.9851  0.8745
  491MOL0     H66252  -0.715  11.471   9.790  1.8874 -0.0061 -1.5112
  491MOL0     H66253  -0.761  11.696   9.946 -1.0832  0.0940 -1.6038
  491MOL0     H66254  -0.599  11.729   9.859  1.4785 -1.2187 -1.2662
  491MOL0     H66255  -0.852  11.637   9.711 -1.0270  1.3945 -1.9151
  491MOL0     H66256  -0.692  11.669   9.656  0.1443  0.3984 -0.9945
  491MOL0     H66257  -0.901  11.854   9.760 -0.1115  0.4368 -0.3374
  491MOL0     H66258  -0.730  11.914   9.736 -1.2841  3.0709 -1.1184
  491MOL0     H66259  -0.891  11.834   9.497 -0.3727 -1.2540  1.8691
  491MOL0     H66260  -0.717  11.868   9.508 -0.6184  1.2601 -1.8760
  491MOL0     H66261  -0.757  12.093   9.570  3.1248  0.6429 -5.8893
  491MOL0     H66262  -0.834  12.054   9.423 -1.6575  0.4110  0.9129
  491MOL0     H66263  -0.975  12.071   9.698  2.2862 -0.2183  0.8752
  491MOL0     H66264  -1.052  12.044   9.535  0.7566 -1.0921 -1.1747
  491MOL0     H66265  -0.966  12.264   9.471 -3.7248  0.9565  0.1672
  491MOL0     H66266  -0.870  12.274   9.628  0.6722 -1.0469  1.5307
  491MOL0     H66267  -0.529  11.317   9.794  2.8431 -1.0549 -1.3376
  491MOL0     H66268  -0.393  11.115   9.823 -2.5983 -0.8588  0.3816
  491MOL0     H66269  -0.141  10.866  10.179  3.2984 -3.8808  3.6626
  491MOL0     H66270  -0.012  10.693  10.200  1.0243 -1.2254 -2.6936
  491MOL0     H66271   1.435   9.261  10.141  2.5707 -0.3014  0.1895
  491MOL0     H66272   1.674   9.249  10.047  0.2215 -0.2087  0.0680
  491MOL0     H66273   1.807   9.375   9.547  0.2780 -0.7275 -0.0358
  491MOL0     H66274   1.985   9.385   9.373 -1.5766  1.1708 -0.5223
  491MOL0     H66275   2.151   9.461   9.236  1.3080 -1.0978  0.0773
  491MOL0     H66276   2.085   9.617   9.294 -0.1096 -0.9975 -0.9160
  491MOL0     H66277   2.342   9.696   9.287 -0.3648  1.0577 -0.3612
  491MOL0     H66278   2.247   9.700   9.146  0.3816 -1.9763 -0.6150
  491MOL0     H66279   2.319   9.475   9.057  1.4769  0.4877 -0.8536
  491MOL0     H66280   2.446   9.474   9.177  2.4494  2.2844  0.2538
  491MOL0     H66281   2.386   9.705   8.977 -0.9163  0.4326  0.8005
  491MOL0     H66282   2.511   9.570   8.960 -1.6295 -1.4477 -0.5269
  491MOL0     H66283   2.667   9.881   9.220 -1.6989  0.1679  0.0209
  491MOL0     H66284   2.234   9.579   9.668  1.8970 -1.4409 -3.9133
  491MOL0     H66285   2.077   9.546   9.836  0.1943 -1.4916 -0.2860
  492MOL0     O66286   9.248   0.442   4.325  0.1055 -1.0756  0.2514
  492MOL0     C66287   9.361   0.470   4.293 -0.1052  0.7807  0.4551
  492MOL0     O66288   9.480   0.428   4.357  0.1997 -0.3871 -0.7806
  492MOL0     C66289   9.479   0.358   4.474  0.0735  0.1240 -0.0899
  492MOL0     C66290   9.486   0.218   4.487 -0.0441 -0.8224  0.1122
  492MOL0     C66291   9.494   0.158   4.615 -0.5606 -0.1740  0.1915
  492MOL0     C66292   9.503   0.233   4.726  0.4484  0.0979  0.4903
  492MOL0     O66293   9.530   0.168   4.839  0.5369 -0.2817  0.0052
  492MOL0     C66294   9.663   0.187   4.905  1.0225  0.1412  0.3007
  492MOL0     C66295   9.697   0.064   4.999 -0.0100  0.2405  1.1006
  492MOL0     C66296   9.851   0.055   5.041  0.9176  0.4559  0.1684
  492MOL0     C66297   9.907   0.169   5.125  0.2285 -0.8681  0.3982
  492MOL0     C66298  10.048   0.157   5.162  0.5013 -0.0246  0.4306
  492MOL0     C66299  10.149   0.172   5.041  0.0245  0.3359  0.1244
  492MOL0     C66300  10.282   0.096   5.068 -0.3296  0.1312  0.3266
  492MOL0     C66301  10.283  -0.050   5.032  0.5577 -0.0780  0.3077
  492MOL0     N66302  10.413  -0.098   5.044 -0.0256  0.3715 -0.8626
  492MOL0     C66303  10.488  -0.124   5.157  1.2678 -1.0071 -0.6876
  492MOL0     C66304  10.614  -0.136   5.126  0.8644  0.7175  0.2445
  492MOL0     C66305  10.730  -0.161   5.216 -0.1000  0.1871  0.4669
  492MOL0     C66306  10.778  -0.304   5.224 -0.0857  0.1087  0.8252
  492MOL0     C66307  10.704  -0.386   5.332 -0.6537 -0.6172  1.1356
  492MOL0     C66308  10.708  -0.547   5.320  0.2663 -0.4142 -0.4587
  492MOL0     O66309  10.683  -0.589   5.185 -0.4761  1.2712  0.0990
  492MOL0     C66310  10.693  -0.716   5.143 -0.0160 -0.1514  0.2550
  492MOL0     C66311  10.657  -0.744   5.018 -0.7191 -0.4049  0.1202
  492MOL0     C66312  10.666  -0.873   4.963  0.1983 -0.3206 -0.3651
  492MOL0     C66313  10.636  -0.884   4.813 -0.3476  0.9555 -0.0456
  492MOL0     C66314  10.714  -0.982   5.040 -0.9685  0.8894 -0.4765
  492MOL0     C66315  10.715  -1.121   4.992 -0.2701  1.1983  0.2921
  492MOL0     O66316  10.806  -1.216   5.038 -0.3844 -0.3524 -0.9250
  492MOL0     C66317  10.801  -1.345   4.988 -0.9074 -0.9384  0.5322
  492MOL0     C66318  10.771  -1.448   5.073 -0.4143 -0.9955 -0.2477
  492MOL0     C66319  10.784  -1.577   5.032 -0.1416  0.0585  0.2250
  492MOL0     C66320  10.809  -1.609   4.897 -0.1170  1.0267 -0.4149
  492MOL0     O66321  10.820  -1.740   4.852  0.1813  0.6666  0.1436
  492MOL0     C66322  10.798  -1.778   4.719 -0.5376  0.0415  0.4174
  492MOL0     C66323  10.770  -1.926   4.707 -0.3406  0.2279  0.4658
  492MOL0     C66324  10.892  -2.023   4.723  0.0776 -0.4623  0.3427
  492MOL0     C66325  10.835  -2.157   4.685  0.5987 -0.1777 -0.4466
  492MOL0     C66326  10.915  -2.279   4.676 -0.1293 -0.1952 -0.0876
  492MOL0     C66327  11.017  -2.268   4.563  0.4473  0.5189 -0.6614
  492MOL0     C66328  11.109  -2.392   4.575  0.4000  0.4302  0.2129
  492MOL0     C66329  11.191  -2.408   4.447 -0.4956  0.5310 -0.7100
  492MOL0    Cl66330  11.073  -2.433   4.293 -0.2212 -0.6526 -0.4216
  492MOL0     C66331  10.842  -1.507   4.809  0.2995 -0.2442  0.1112
  492MOL0     C66332  10.840  -1.373   4.858  0.5178 -0.6352  0.1837
  492MOL0     O66333  10.620  -1.155   4.917 -0.1980  0.2314  0.3252
  492MOL0     C66334  10.753  -0.956   5.175 -0.4200  0.3689  0.7103
  492MOL0     C66335  10.734  -0.823   5.232 -0.4092  0.9993  0.1175
  492MOL0     N66336  10.624  -0.121   4.991  0.2707 -0.9878  0.0563
  492MOL0     N66337  10.502  -0.088   4.945  0.5699 -0.5467  0.1232
  492MOL0     C66338   9.496   0.371   4.717 -0.9587  1.2911 -0.9111
  492MOL0     C66339   9.476   0.426   4.595 -0.0459 -0.4663 -0.3196
  492MOL0     C66340   9.376   0.547   4.167  0.4088 -0.5258 -0.4328
  492MOL0     C66341   9.268   0.621   4.112 -1.4189  0.0323 -0.0213
  492MOL0     C66342   9.286   0.689   3.990  0.1135 -0.7464  0.6126
  492MOL0     C66343   9.400   0.684   3.913  0.3337 -0.9300 -0.1362
  492MOL0     O66344   9.407   0.760   3.797  0.6714  0.3661 -0.0612
  492MOL0     C66345   9.528   0.758   3.724 -0.0298 -1.7368  0.2949
  492MOL0     C66346   9.526   0.876   3.626 -1.1733  0.0977  0.2924
  492MOL0     C66347   9.429   0.861   3.507 -0.1389 -0.5636 -0.3385
  492MOL0     C66348   9.400   0.993   3.429  0.1221 -0.1337 -0.2338
  492MOL0     C66349   9.517   1.036   3.354 -0.5651  0.0750  0.5421
  492MOL0     C66350   9.618   1.051   3.293 -0.3522  0.1794  0.1424
  492MOL0     C66351   9.508   0.608   3.968  0.5185  0.4743  0.9089
  492MOL0     C66352   9.496   0.555   4.097 -0.5569  0.2606 -0.7397
  492MOL0     H66353   9.490   0.158   4.396  0.8508 -0.4582 -0.1028
  492MOL0     H66354   9.497   0.049   4.618 -1.8336 -0.3437 -2.0330
  492MOL0     H66355   9.747   0.194   4.835  1.6707 -1.1976  0.9072
  492MOL0     H66356   9.655   0.276   4.968  0.5852 -1.0445  2.0016
  492MOL0     H66357   9.649   0.095   5.093 -1.4093  3.8349 -0.6021
  492MOL0     H66358   9.650  -0.029   4.964  1.2809 -0.2018  0.4842
  492MOL0     H66359   9.862  -0.044   5.085  2.9449  0.6591  0.1768
  492MOL0     H66360   9.904   0.044   4.946 -0.7573  0.0443 -0.7670
  492MOL0     H66361   9.899   0.268   5.079 -0.3742 -0.8622  0.5067
  492MOL0     H66362   9.848   0.169   5.217  0.3334 -0.2912  0.4694
  492MOL0     H66363  10.055   0.236   5.237  2.6955  2.4323 -2.1549
  492MOL0     H66364  10.071   0.066   5.218 -0.1403  1.3023  2.9768
  492MOL0     H66365  10.105   0.140   4.946  1.9332 -1.7845 -0.1438
  492MOL0     H66366  10.179   0.278   5.039  1.5850 -0.0408  1.2618
  492MOL0     H66367  10.354   0.139   4.998  1.0515  0.2501  1.7862
  492MOL0     H66368  10.322   0.112   5.168 -1.1201 -0.4636  0.7584
  492MOL0     H66369  10.249  -0.055   4.928  0.4416  2.7684  0.1490
  492MOL0     H66370  10.203  -0.102   5.086 -2.5786  1.2346 -2.6985
  492MOL0     H66371  10.459  -0.130   5.262 -0.2075  4.0205 -0.5789
  492MOL0     H66372  10.805  -0.094   5.174 -1.2772  0.6492 -1.0324
  492MOL0     H66373  10.712  -0.124   5.317 -2.3196  0.4882  0.0170
  492MOL0     H66374  10.886  -0.309   5.240  1.0303  3.8586 -3.4047
  492MOL0     H66375  10.780  -0.346   5.122  2.4130  1.6496  0.1425
  492MOL0     H66376  10.597  -0.363   5.328  0.0957  3.3309 -0.7135
  492MOL0     H66377  10.745  -0.357   5.429  1.2250  2.0983 -0.3395
  492MOL0     H66378  10.621  -0.582   5.377 -1.1782  2.5869 -0.6543
  492MOL0     H66379  10.804  -0.590   5.353 -0.3143 -0.3411  1.4440
  492MOL0     H66380  10.637  -0.656   4.957 -0.8046  0.1741  0.9540
  492MOL0     H66381  10.685  -0.960   4.751 -0.3358  1.8918 -1.2070
  492MOL0     H66382  10.528  -0.896   4.810 -0.2647 -0.4698  1.3065
  492MOL0     H66383  10.664  -0.793   4.759 -1.0300  0.7329 -0.7929
  492MOL0     H66384  10.738  -1.423   5.173  0.3109 -2.5698  0.4148
  492MOL0     H66385  10.748  -1.657   5.096  1.3751 -0.0847  0.9347
  492MOL0     H66386  10.709  -1.727   4.681 -0.8752 -0.0299  1.1033
  492MOL0     H66387  10.892  -1.755   4.666 -0.3757 -1.6679 -0.0945
  492MOL0     H66388  10.687  -1.942   4.776 -3.6400  1.9511 -2.7253
  492MOL0     H66389  10.727  -1.932   4.606 -1.5626  1.4855  0.8771
  492MOL0     H66390  10.937  -2.010   4.822 -1.6035  0.2671  1.0519
  492MOL0     H66391  10.972  -1.989   4.658 -1.2770 -1.3168 -1.8962
  492MOL0     H66392  10.743  -2.169   4.744  1.3634 -2.1128  0.4292
  492MOL0     H66393  10.797  -2.142   4.583 -1.2714 -0.1717  0.2153
  492MOL0     H66394  10.846  -2.362   4.656 -0.5044  0.4949 -1.8276
  492MOL0     H66395  10.964  -2.302   4.771 -0.5239 -0.0169  0.1642
  492MOL0     H66396  10.950  -2.273   4.477  1.6581  0.6378 -1.6381
  492MOL0     H66397  11.065  -2.169   4.566  0.3817  0.5423 -0.3333
  492MOL0     H66398  11.045  -2.481   4.576  1.4022 -0.3411  2.1301
  492MOL0     H66399  11.162  -2.388   4.671  0.3168  3.0220  0.2027
  492MOL0     H66400  11.247  -2.499   4.471 -3.7713 -1.3254  0.4243
  492MOL0     H66401  11.253  -2.317   4.445  1.9443 -0.9119  1.9399
  492MOL0     H66402  10.864  -1.521   4.704  1.7340  0.2341  0.3337
  492MOL0     H66403  10.849  -1.296   4.781  0.6321 -0.5702  0.2618
  492MOL0     H66404  10.797  -1.026   5.245  2.4536  2.3756  1.0906
  492MOL0     H66405  10.771  -0.814   5.333  0.7352 -1.9522  0.0420
  492MOL0     H66406   9.519   0.433   4.803  0.4032  2.6846 -2.2164
  492MOL0     H66407   9.484   0.534   4.590  1.1537 -0.5274  0.0707
  492MOL0     H66408   9.173   0.619   4.165 -1.2939 -3.1071  0.2710
  492MOL0     H66409   9.206   0.753   3.953  1.2084  1.0529  1.2555
  492MOL0     H66410   9.610   0.766   3.795  2.7465  0.6971 -2.8975
  492MOL0     H66411   9.553   0.668   3.667  0.9827  0.3891 -2.9295
  492MOL0     H66412   9.626   0.893   3.588 -0.8884  1.5703  1.5954
  492MOL0     H66413   9.502   0.967   3.683 -2.3029  0.2261 -0.3451
  492MOL0     H66414   9.333   0.820   3.541 -0.7474 -1.0552 -2.4870
  492MOL0     H66415   9.465   0.785   3.437  1.0392  1.6743 -2.3080
  492MOL0     H66416   9.374   1.073   3.499  1.1865 -0.7539  0.9125
  492MOL0     H66417   9.322   0.979   3.354  0.5105 -0.5045 -0.5740
  492MOL0     H66418   9.707   1.082   3.241 -1.1924  1.2165 -0.7380
  492MOL0     H66419   9.600   0.597   3.912 -0.0405 -0.0853  0.0658
  492MOL0     H66420   9.576   0.496   4.139 -0.1662 -0.2446 -2.1271
  493MOL0     O66421   7.230  10.876   7.283  0.2175 -0.1289  0.8257
  493MOL0     C66422   7.295  10.861   7.386  0.8368  0.8040  0.0179
  493MOL0     O66423   7.254  10.889   7.513  0.1766  0.4941  0.7650
  493MOL0     C66424   7.133  10.955   7.525 -0.3577  0.7808  0.3172
  493MOL0     C66425   7.037  10.898   7.601  0.3329 -0.1133 -0.0650
  493MOL0     C66426   6.900  10.949   7.602  0.4846 -0.5265  0.6461
  493MOL0     C66427   6.864  11.069   7.535  0.7151  0.2901  1.2058
  493MOL0     O66428   6.731  11.119   7.556  1.0154 -0.5882 -0.4546
  493MOL0     C66429   6.678  11.217   7.458  0.2566  0.4315 -0.8392
  493MOL0     C66430   6.565  11.289   7.515  0.6402 -0.5070 -0.0669
  493MOL0     C66431   6.455  11.188   7.558  0.1492  0.3630 -0.4398
  493MOL0     C66432   6.335  11.256   7.612  0.0924  0.3561  1.1143
  493MOL0     C66433   6.231  11.147   7.639  0.0419  0.4796  0.4713
  493MOL0     C66434   6.088  11.210   7.657 -0.1480 -0.0697  0.3615
  493MOL0     C66435   5.997  11.105   7.708 -0.1451 -0.3481 -0.2902
  493MOL0     C66436   5.855  11.151   7.729  0.0342 -0.1851 -1.0378
  493MOL0     N66437   5.768  11.099   7.621 -0.8847  0.3819 -0.6187
  493MOL0     C66438   5.795  11.083   7.491  0.3015 -0.3425  0.3747
  493MOL0     C66439   5.676  11.054   7.434  0.1551  0.1918 -0.3210
  493MOL0     C66440   5.654  11.023   7.290 -0.2384  0.2605  0.0973
  493MOL0     C66441   5.568  10.893   7.274 -1.0105  0.3833 -0.6664
  493MOL0     C66442   5.590  10.830   7.130  0.0958 -0.1108 -0.7673
  493MOL0     C66443   5.520  10.694   7.120  0.6706 -0.5599  0.1271
  493MOL0     O66444   5.600  10.614   7.208 -0.3587 -0.1382  0.8204
  493MOL0     C66445   5.571  10.472   7.216  0.1246  0.2265 -0.4393
  493MOL0     C66446   5.595  10.423   7.342  0.1594 -1.2496  0.0876
  493MOL0     C66447   5.574  10.286   7.380  0.2415 -0.4405 -0.1004
  493MOL0     C66448   5.634  10.245   7.513 -0.3704 -0.3433  0.3452
  493MOL0     C66449   5.529  10.198   7.278 -0.7201 -0.6633 -0.2609
  493MOL0     C66450   5.487  10.063   7.310  0.4776 -0.6972  0.4172
  493MOL0     O66451   5.472   9.984   7.198  0.0834 -0.7962 -0.0804
  493MOL0     C66452   5.397   9.863   7.207  0.3049  0.1107  0.1104
  493MOL0     C66453   5.424   9.765   7.301  0.0494 -0.7021 -0.5720
  493MOL0     C66454   5.359   9.644   7.309  0.5099  0.4609  0.0770
  493MOL0     C66455   5.259   9.611   7.207 -0.8160 -0.9119 -0.7665
  493MOL0     O66456   5.201   9.494   7.197  0.8961  1.0603  0.4113
  493MOL0     C66457   5.171   9.415   7.313 -0.2101  0.7369  0.6801
  493MOL0     C66458   5.059   9.321   7.290  0.1431 -0.4224 -0.8093
  493MOL0     C66459   5.009   9.257   7.416 -0.1823 -0.4027  0.2556
  493MOL0     C66460   4.887   9.181   7.386  0.0177 -0.1775 -0.4867
  493MOL0     C66461   4.817   9.115   7.514 -0.7192 -0.1996 -0.1822
  493MOL0     C66462   4.701   9.020   7.487  0.3652  0.1678  0.4588
  493MOL0     C66463   4.575   9.100   7.450  1.2606 -0.2584 -0.9041
  493MOL0     C66464   4.505   9.166   7.570 -0.8256 -0.3852  0.5104
  493MOL0    Cl66465   4.368   9.267   7.529  0.2045  0.3657  0.4715
  493MOL0     C66466   5.239   9.701   7.107  0.2815  0.4717 -0.3329
  493MOL0     C66467   5.302   9.830   7.111  0.3576 -1.2376 -0.3416
  493MOL0     O66468   5.459  10.031   7.422 -0.4582 -0.5259  0.5186
  493MOL0     C66469   5.507  10.248   7.157  0.3511 -0.0766 -0.1836
  493MOL0     C66470   5.514  10.388   7.125 -0.0756  0.6830  0.0362
  493MOL0     N66471   5.587  11.037   7.536 -0.6390  0.8240  0.1136
  493MOL0     N66472   5.642  11.053   7.646  0.0659 -0.1546 -0.8762
  493MOL0     C66473   6.969  11.120   7.450  0.4421  0.2506  1.3479
  493MOL0     C66474   7.100  11.065   7.457 -0.3459  0.3770 -0.1831
  493MOL0     C66475   7.428  10.811   7.379  0.4534  0.7015  0.1823
  493MOL0     C66476   7.477  10.748   7.260  0.4894 -0.2832  0.0986
  493MOL0     C66477   7.601  10.689   7.256  0.1604  0.7930  1.0108
  493MOL0     C66478   7.685  10.689   7.362 -0.7834  0.9564 -0.5303
  493MOL0     O66479   7.810  10.631   7.374 -0.4063  0.0619  0.3048
  493MOL0     C66480   7.871  10.593   7.248 -0.2280  0.3861 -0.6211
  493MOL0     C66481   8.024  10.560   7.277  0.7966  0.7104  0.0877
  493MOL0     C66482   8.037  10.452   7.393  0.8832  0.1166  0.1666
  493MOL0     C66483   8.184  10.459   7.442 -0.0636  0.0528 -0.4676
  493MOL0     C66484   8.268  10.406   7.328  0.9469 -0.6126 -0.7193
  493MOL0     C66485   8.318  10.366   7.225 -0.1022  0.2078 -0.5016
  493MOL0     C66486   7.638  10.750   7.482 -0.0993  0.7661 -0.2522
  493MOL0     C66487   7.514  10.799   7.487  0.4137  0.0203  0.2154
  493MOL0     H66488   7.064  10.815   7.666  0.5804  1.6266  2.1930
  493MOL0     H66489   6.835  10.912   7.681  2.8747  0.4170  3.2248
  493MOL0     H66490   6.758  11.290   7.444  3.0418 -2.2938 -0.3594
  493MOL0     H66491   6.648  11.160   7.369 -1.1890 -2.2173  1.2030
  493MOL0     H66492   6.585  11.355   7.600  0.3770 -0.8110  0.2359
  493MOL0     H66493   6.538  11.356   7.433  0.1843 -0.7476 -0.1171
  493MOL0     H66494   6.422  11.133   7.470 -0.2974 -0.1137  0.0155
  493MOL0     H66495   6.497  11.124   7.636  3.6035  3.4263  0.5228
  493MOL0     H66496   6.345  11.298   7.712 -1.3216 -0.2151  1.5169
  493MOL0     H66497   6.300  11.327   7.536  0.9977 -1.4201 -1.0906
  493MOL0     H66498   6.234  11.077   7.554  0.1491 -2.0135  2.4223
  493MOL0     H66499   6.264  11.096   7.729  1.3213  0.0346 -0.2282
  493MOL0     H66500   6.090  11.295   7.726  0.3240 -1.8627  2.6724
  493MOL0     H66501   6.049  11.236   7.558  0.4450  1.3936  0.4870
  493MOL0     H66502   5.996  11.019   7.641  0.3506 -1.1463  0.7055
  493MOL0     H66503   6.028  11.074   7.808  0.1289  2.1529  0.4671
  493MOL0     H66504   5.832  11.258   7.737 -0.9923 -0.5428  2.4569
  493MOL0     H66505   5.820  11.104   7.821  0.0644  0.8608 -0.4814
  493MOL0     H66506   5.886  11.098   7.432 -2.5483 -1.5624 -4.9664
  493MOL0     H66507   5.607  11.108   7.239  1.3637 -0.4503 -2.7462
  493MOL0     H66508   5.749  11.003   7.239 -0.4565 -3.6336  0.9319
  493MOL0     H66509   5.463  10.918   7.290 -0.9149  0.8459 -0.7239
  493MOL0     H66510   5.606  10.819   7.345  1.6108  2.1746 -0.0302
  493MOL0     H66511   5.698  10.826   7.115  0.3897  1.2568  0.7079
  493MOL0     H66512   5.552  10.900   7.055 -0.7535 -0.5876 -0.8019
  493MOL0     H66513   5.511  10.653   7.019 -1.8149 -4.6189  1.7324
  493MOL0     H66514   5.418  10.704   7.160  1.1252 -1.1781  1.4706
  493MOL0     H66515   5.632  10.489   7.420  1.9490 -2.1538  0.0477
  493MOL0     H66516   5.572  10.277   7.597  2.2408 -0.5500  2.5093
  493MOL0     H66517   5.654  10.138   7.515 -2.2405 -0.9136 -3.3499
  493MOL0     H66518   5.728  10.290   7.548  2.7775 -4.4222 -1.9934
  493MOL0     H66519   5.490   9.782   7.386  0.2844 -0.0776 -0.8766
  493MOL0     H66520   5.384   9.566   7.380 -2.6599 -1.6061 -0.8541
  493MOL0     H66521   5.262   9.359   7.337 -0.1670  0.3854 -0.2580
  493MOL0     H66522   5.152   9.483   7.396  0.1655  0.1377  1.2644
  493MOL0     H66523   4.977   9.370   7.237 -0.7007  1.0576  1.7283
  493MOL0     H66524   5.088   9.236   7.227 -1.1188 -3.5492  2.4980
  493MOL0     H66525   4.976   9.336   7.484 -0.3130  1.4887 -1.9076
  493MOL0     H66526   5.091   9.201   7.462 -0.0657  2.6543  4.3352
  493MOL0     H66527   4.813   9.243   7.335  0.7984 -0.7894 -2.4627
  493MOL0     H66528   4.918   9.104   7.315  0.0427  0.3763 -1.0823
  493MOL0     H66529   4.783   9.190   7.586  0.9762  0.1214  0.3338
  493MOL0     H66530   4.892   9.057   7.569 -1.8842  0.0504  1.7630
  493MOL0     H66531   4.730   8.943   7.415  0.0423  1.0272 -0.6211
  493MOL0     H66532   4.670   8.980   7.584  0.3052 -0.0672  0.3431
  493MOL0     H66533   4.507   9.036   7.393 -1.9843  3.2177 -1.3128
  493MOL0     H66534   4.586   9.188   7.387 -2.1073  1.1940  0.3140
  493MOL0     H66535   4.571   9.228   7.633 -0.4556  1.7387 -1.7968
  493MOL0     H66536   4.473   9.085   7.635  0.9041  1.3274  3.7761
  493MOL0     H66537   5.184   9.677   7.017  1.3790  1.6148 -1.3491
  493MOL0     H66538   5.280   9.897   7.029 -2.3079 -1.7851 -0.1618
  493MOL0     H66539   5.464  10.191   7.075  0.6072 -3.2821  1.7194
  493MOL0     H66540   5.484  10.426   7.027 -1.4715 -0.8870 -0.1872
  493MOL0     H66541   6.955  11.215   7.399 -0.3472  0.5428  2.0789
  493MOL0     H66542   7.181  11.115   7.406 -1.2392  0.1081 -1.9307
  493MOL0     H66543   7.412  10.736   7.174  0.7919  1.2017 -0.3791
  493MOL0     H66544   7.617  10.628   7.168 -0.5434 -0.0486  1.4490
  493MOL0     H66545   7.820  10.508   7.203  2.2028 -0.0828 -2.7077
  493MOL0     H66546   7.872  10.667   7.168 -2.5073  1.1762  0.0227
  493MOL0     H66547   8.076  10.654   7.295  1.5221  0.0794  1.4425
  493MOL0     H66548   8.072  10.533   7.182 -2.0908  2.2336 -1.9397
  493MOL0     H66549   8.015  10.348   7.369 -1.7287  0.5565  0.3972
  493MOL0     H66550   7.954  10.451   7.464 -0.0946  0.5268 -0.9474
  493MOL0     H66551   8.200  10.406   7.537  0.5391  2.1309  0.6820
  493MOL0     H66552   8.217  10.561   7.467  2.7145 -0.4157 -1.8427
  493MOL0     H66553   8.369  10.329   7.139  0.6549  2.3924 -1.0578
  493MOL0     H66554   7.695  10.737   7.574 -0.4918 -4.0963 -0.4740
  493MOL0     H66555   7.489  10.842   7.583  0.6702 -0.1404  0.3556
  494MOL0     O66556   6.589   0.999   3.376  0.4599  0.3509  0.2972
  494MOL0     C66557   6.468   0.991   3.341 -0.5519  0.1132  0.0521
  494MOL0     O66558   6.364   1.031   3.420 -0.8573  0.6200 -0.6225
  494MOL0     C66559   6.368   1.086   3.546 -0.0431  0.1419 -0.1607
  494MOL0     C66560   6.480   1.154   3.604  0.3551  0.0348  0.8017
  494MOL0     C66561   6.461   1.214   3.727  0.6573 -1.0799  0.3617
  494MOL0     C66562   6.336   1.216   3.792 -0.5229 -0.3558  0.3682
  494MOL0     O66563   6.309   1.282   3.910  0.4635  0.5330 -0.0600
  494MOL0     C66564   6.417   1.310   4.001 -0.5555  0.2442  0.0057
  494MOL0     C66565   6.361   1.352   4.127  0.2339  0.6156 -0.4771
  494MOL0     C66566   6.260   1.256   4.180 -0.2649  0.6444 -1.4787
  494MOL0     C66567   6.347   1.165   4.266 -0.7426 -0.1269  0.2633
  494MOL0     C66568   6.256   1.065   4.343 -0.8557 -0.2411 -0.1294
  494MOL0     C66569   6.145   1.005   4.249 -0.0482 -1.2091  0.3386
  494MOL0     C66570   6.088   0.879   4.300  0.3475 -0.2286  0.0289
  494MOL0     C66571   6.068   0.880   4.454  0.7125  0.5487 -0.0651
  494MOL0     N66572   5.986   0.769   4.500 -0.2865  0.3985 -0.5848
  494MOL0     C66573   5.864   0.780   4.559 -0.6652 -0.1243 -0.4317
  494MOL0     C66574   5.826   0.660   4.596 -0.6626 -0.3322 -0.0131
  494MOL0     C66575   5.699   0.632   4.664 -1.3489 -0.7061  0.7536
  494MOL0     C66576   5.578   0.644   4.566 -0.1527  0.2209 -1.5909
  494MOL0     C66577   5.447   0.614   4.648 -0.4662 -0.2219 -0.3147
  494MOL0     C66578   5.425   0.470   4.699  0.2752  0.4051 -0.6195
  494MOL0     O66579   5.292   0.433   4.738 -0.2697  0.1333 -0.3632
  494MOL0     C66580   5.248   0.503   4.850  0.2061 -0.0503  0.2845
  494MOL0     C66581   5.257   0.456   4.984  0.6539 -0.2326  0.6815
  494MOL0     C66582   5.184   0.525   5.089 -0.2638  0.3072 -0.7740
  494MOL0     C66583   5.192   0.463   5.226 -1.2752  0.3658  0.3107
  494MOL0     C66584   5.114   0.642   5.058  0.4857  0.5227 -1.0764
  494MOL0     C66585   5.028   0.706   5.162 -0.1936  0.9854  0.5931
  494MOL0     O66586   4.887   0.727   5.133 -0.3912 -1.1231 -0.9941
  494MOL0     C66587   4.819   0.800   5.222 -0.1412  0.4698 -0.3713
  494MOL0     C66588   4.746   0.743   5.329  0.1454  0.6231 -0.6426
  494MOL0     C66589   4.652   0.812   5.411 -0.5841  0.2303 -0.5668
  494MOL0     C66590   4.641   0.944   5.399  0.7993 -0.5543 -0.5704
  494MOL0     O66591   4.556   1.004   5.486  0.1207 -0.9224 -0.7404
  494MOL0     C66592   4.557   1.148   5.504 -0.3896 -0.0971  0.2967
  494MOL0     C66593   4.448   1.192   5.596 -0.4227  0.0621 -0.4151
  494MOL0     C66594   4.410   1.088   5.700 -0.0158  0.6342  0.2920
  494MOL0     C66595   4.288   1.004   5.675  0.6482 -0.4657 -0.3780
  494MOL0     C66596   4.263   0.891   5.792 -0.0233  0.1158  0.3394
  494MOL0     C66597   4.252   0.939   5.936  0.9730 -0.3274 -0.1160
  494MOL0     C66598   4.131   1.028   5.957  1.0361  0.4299 -0.3170
  494MOL0     C66599   4.120   1.049   6.103 -0.0449  0.1668  1.2884
  494MOL0    Cl66600   4.266   1.133   6.165  0.0132 -0.0005  0.6532
  494MOL0     C66601   4.717   1.011   5.302 -0.3482 -0.5496 -0.0681
  494MOL0     C66602   4.801   0.943   5.208 -0.5108  0.3881 -0.1913
  494MOL0     O66603   5.073   0.718   5.273 -0.4069 -0.7925  0.4441
  494MOL0     C66604   5.115   0.688   4.930 -0.3979  1.4192 -0.8500
  494MOL0     C66605   5.183   0.616   4.829  0.3184 -0.9069  0.2813
  494MOL0     N66606   5.926   0.577   4.571 -0.1488 -0.4462  0.6007
  494MOL0     N66607   6.024   0.640   4.520  0.1133 -0.4796  0.9539
  494MOL0     C66608   6.229   1.153   3.730 -0.1460  0.1135 -0.4911
  494MOL0     C66609   6.241   1.085   3.611  0.3816 -0.1818 -0.0157
  494MOL0     C66610   6.445   0.925   3.211 -0.7933 -0.3267 -0.2552
  494MOL0     C66611   6.337   0.850   3.195 -0.3810  0.5735 -0.0613
  494MOL0     C66612   6.303   0.789   3.075 -0.6290 -0.3423 -0.2375
  494MOL0     C66613   6.389   0.794   2.958 -0.7619 -0.5101 -0.6188
  494MOL0     O66614   6.341   0.736   2.858 -0.1320  0.0584  0.5136
  494MOL0     C66615   6.425   0.733   2.743 -0.2500 -0.9129  0.2986
  494MOL0     C66616   6.363   0.673   2.615  0.1163  0.6946 -0.0230
  494MOL0     C66617   6.272   0.776   2.546  0.6545  0.4198  0.2794
  494MOL0     C66618   6.138   0.756   2.616  0.3326 -0.6833  0.6997
  494MOL0     C66619   6.031   0.805   2.528 -0.6853  0.4277 -0.2284
  494MOL0     C66620   5.950   0.868   2.469  0.1533 -0.2559 -0.4777
  494MOL0     C66621   6.508   0.868   2.976 -0.1447 -0.4556 -1.4358
  494MOL0     C66622   6.538   0.923   3.105 -0.1058  0.1110  0.6500
  494MOL0     H66623   6.580   1.154   3.562 -0.6268  0.1198 -1.6645
  494MOL0     H66624   6.546   1.260   3.777  1.3061 -1.6812 -0.1616
  494MOL0     H66625   6.483   1.223   4.015 -1.6413 -1.0512 -2.2704
  494MOL0     H66626   6.473   1.394   3.959 -2.4187  2.2722  1.3867
  494MOL0     H66627   6.431   1.385   4.204 -2.1686  1.1890  1.6252
  494MOL0     H66628   6.289   1.433   4.111 -4.6973 -2.6704  2.2566
  494MOL0     H66629   6.189   1.309   4.245 -0.5770 -0.8740 -0.5283
  494MOL0     H66630   6.202   1.204   4.103  0.1849 -3.0408  0.4067
  494MOL0     H66631   6.415   1.118   4.194 -1.8691  0.6873 -1.3832
  494MOL0     H66632   6.407   1.221   4.338 -0.3248 -3.9557  3.2452
  494MOL0     H66633   6.330   0.994   4.380  3.0589  3.0783 -0.7887
  494MOL0     H66634   6.207   1.124   4.421  0.7291  0.0009  0.7348
  494MOL0     H66635   6.060   1.074   4.249 -0.3119 -1.4697  2.1625
  494MOL0     H66636   6.185   0.986   4.149  0.0313  0.5910 -0.0120
  494MOL0     H66637   5.988   0.865   4.258 -1.0640  0.1638  3.0122
  494MOL0     H66638   6.140   0.788   4.269 -0.4042 -1.8543  3.0979
  494MOL0     H66639   6.021   0.975   4.482  0.0692  0.7653 -1.7725
  494MOL0     H66640   6.170   0.855   4.486  2.0747  1.1347 -3.5243
  494MOL0     H66641   5.803   0.870   4.553  0.6182  0.6887 -2.6189
  494MOL0     H66642   5.697   0.529   4.701 -0.7671 -0.2481  2.0965
  494MOL0     H66643   5.687   0.702   4.747  1.1630  2.6443 -1.4409
  494MOL0     H66644   5.592   0.574   4.483  2.1793 -1.6195  0.2245
  494MOL0     H66645   5.564   0.748   4.537  2.4536  0.6360 -1.5196
  494MOL0     H66646   5.352   0.636   4.598 -1.2078 -0.6878  0.8496
  494MOL0     H66647   5.449   0.680   4.735 -0.5408 -0.6623  0.0257
  494MOL0     H66648   5.496   0.431   4.772 -0.2644  0.7199  0.0787
  494MOL0     H66649   5.435   0.409   4.609  0.7817  2.0207 -1.6924
  494MOL0     H66650   5.320   0.369   4.999  1.4680  0.8175  4.3269
  494MOL0     H66651   5.263   0.507   5.297 -3.4225  1.9312  1.6299
  494MOL0     H66652   5.094   0.459   5.275  0.0025 -0.9720  2.9912
  494MOL0     H66653   5.203   0.355   5.212 -0.9075  0.5116 -0.5722
  494MOL0     H66654   4.766   0.639   5.348 -0.3052  0.5613 -0.4786
  494MOL0     H66655   4.591   0.753   5.478 -1.3539 -2.2523 -3.2285
  494MOL0     H66656   4.650   1.185   5.550 -0.0125 -0.0340 -0.4920
  494MOL0     H66657   4.533   1.191   5.406  0.5449  2.8692  1.2697
  494MOL0     H66658   4.492   1.284   5.636  2.4311 -2.0909  1.8630
  494MOL0     H66659   4.350   1.208   5.550 -1.1262  0.5128  1.1505
  494MOL0     H66660   4.398   1.134   5.799 -0.4618  0.4447  0.3278
  494MOL0     H66661   4.490   1.014   5.702  0.7371  0.8071 -5.5215
  494MOL0     H66662   4.204   1.072   5.660  0.3170 -0.9778 -0.8935
  494MOL0     H66663   4.298   0.944   5.583  0.0136  0.8393 -1.3396
  494MOL0     H66664   4.345   0.819   5.791  0.3275  0.5177 -0.1368
  494MOL0     H66665   4.172   0.832   5.773  0.6252 -0.8275  0.0687
  494MOL0     H66666   4.240   0.856   6.006 -0.9927  1.1763  1.4547
  494MOL0     H66667   4.343   0.993   5.962 -0.3506  1.5314  0.8548
  494MOL0     H66668   4.038   0.979   5.928  1.3303 -1.8029  2.0639
  494MOL0     H66669   4.147   1.119   5.898  1.4171 -0.5020 -1.7034
  494MOL0     H66670   4.120   0.954   6.158  0.4299 -0.4081  0.3181
  494MOL0     H66671   4.026   1.102   6.122 -1.1336 -0.5589 -1.5813
  494MOL0     H66672   4.711   1.119   5.290 -0.9558 -0.8114 -2.6540
  494MOL0     H66673   4.862   0.983   5.127  0.1840  0.7513  0.4939
  494MOL0     H66674   5.062   0.773   4.890  0.8692  2.2286 -0.8701
  494MOL0     H66675   5.164   0.635   4.724 -2.2418 -4.3444 -0.0661
  494MOL0     H66676   6.130   1.167   3.772  0.3064  0.0923  0.6072
  494MOL0     H66677   6.153   1.038   3.569  0.6113 -1.0782  0.4810
  494MOL0     H66678   6.271   0.823   3.276  0.7440 -0.0438  0.6739
  494MOL0     H66679   6.208   0.739   3.082 -0.3169 -0.7036  2.1709
  494MOL0     H66680   6.450   0.837   2.718  0.3527 -0.5887  2.1223
  494MOL0     H66681   6.516   0.677   2.767 -0.1889 -1.1839 -0.5268
  494MOL0     H66682   6.301   0.585   2.634  1.0244  0.4268  1.8655
  494MOL0     H66683   6.442   0.642   2.546 -0.4482 -1.4707  0.2247
  494MOL0     H66684   6.263   0.734   2.446 -3.0763  4.0777 -1.2340
  494MOL0     H66685   6.304   0.881   2.548  0.6465  0.4382 -0.5135
  494MOL0     H66686   6.133   0.831   2.696  2.8301  0.6199 -0.2431
  494MOL0     H66687   6.132   0.657   2.661 -0.1732 -1.9610 -1.9909
  494MOL0     H66688   5.879   0.925   2.413 -1.8989 -2.6868 -0.5033
  494MOL0     H66689   6.577   0.869   2.893  2.2035 -1.5709  0.3648
  494MOL0     H66690   6.635   0.969   3.119  0.9259 -1.2854 -1.3650
  495MOL0     O66691   2.002   3.173   1.354 -0.4839 -0.1889 -0.3210
  495MOL0     C66692   2.070   3.090   1.413  0.5370 -0.0935 -0.4058
  495MOL0     O66693   2.011   2.988   1.492 -0.0323  0.5758  0.0394
  495MOL0     C66694   1.884   3.001   1.531 -0.0784 -0.7254 -0.0520
  495MOL0     C66695   1.799   2.895   1.524  0.0784 -0.0005  0.6257
  495MOL0     C66696   1.675   2.898   1.591 -0.2073  0.2217  0.7395
  495MOL0     C66697   1.640   2.992   1.676 -0.1927  0.1806  0.0297
  495MOL0     O66698   1.523   2.967   1.744  0.0365 -0.2537 -1.2099
  495MOL0     C66699   1.499   3.058   1.855  0.6145  0.0578  0.9801
  495MOL0     C66700   1.594   3.033   1.970  0.4563  0.0379  0.2999
  495MOL0     C66701   1.567   3.124   2.091  0.8800 -0.2308 -0.2516
  495MOL0     C66702   1.682   3.229   2.084  0.0996  0.4682 -0.3179
  495MOL0     C66703   1.668   3.355   2.181  0.4497  0.6517 -1.0959
  495MOL0     C66704   1.789   3.454   2.167  0.5896  0.4215 -0.1176
  495MOL0     C66705   1.776   3.583   2.237 -0.4270 -0.7402 -0.1033
  495MOL0     C66706   1.649   3.666   2.199  0.5435  0.3835 -0.6349
  495MOL0     N66707   1.558   3.663   2.318  0.0477 -0.0002 -0.1324
  495MOL0     C66708   1.565   3.746   2.431 -0.6799 -0.7221 -0.0156
  495MOL0     C66709   1.446   3.727   2.489  0.7459 -0.1910  0.1717
  495MOL0     C66710   1.393   3.800   2.610  1.2382 -1.0339 -0.8493
  495MOL0     C66711   1.491   3.797   2.722  0.2892 -0.3630  0.1924
  495MOL0     C66712   1.452   3.900   2.844 -0.1141  0.2292  0.3203
  495MOL0     C66713   1.309   3.902   2.882  0.2895  0.1270  0.3845
  495MOL0     O66714   1.237   3.964   2.773  0.1945 -0.2571  0.1440
  495MOL0     C66715   1.099   3.950   2.761 -0.7417  0.1885 -0.3259
  495MOL0     C66716   1.053   4.014   2.644  1.2373  0.2167  0.6923
  495MOL0     C66717   0.917   4.003   2.603  0.4351  0.0963  0.5421
  495MOL0     C66718   0.877   4.049   2.466 -0.1901 -0.9580  0.2906
  495MOL0     C66719   0.826   3.946   2.695 -0.7755 -0.1401 -0.3854
  495MOL0     C66720   0.676   3.951   2.689  1.3036 -0.8161 -0.1906
  495MOL0     O66721   0.612   3.886   2.784  0.4627 -0.6188 -0.0101
  495MOL0     C66722   0.478   3.865   2.779 -0.5734  0.7627 -0.1564
  495MOL0     C66723   0.426   3.809   2.901  0.1857 -0.6440 -0.3898
  495MOL0     C66724   0.290   3.794   2.920 -0.5146  0.2332 -0.5247
  495MOL0     C66725   0.201   3.845   2.824  0.0126  0.5236  0.2640
  495MOL0     O66726   0.069   3.828   2.858  0.5185 -0.4261 -0.0541
  495MOL0     C66727  -0.005   3.941   2.817 -0.1104 -0.1706 -1.0851
  495MOL0     C66728  -0.095   3.960   2.942  0.9530 -0.2589 -0.4111
  495MOL0     C66729  -0.191   4.075   2.925  1.2523  0.6327 -0.5233
  495MOL0     C66730  -0.315   4.069   3.005  0.2614 -0.3160 -0.1261
  495MOL0     C66731  -0.415   4.171   2.963  0.6126 -0.8182 -0.0397
  495MOL0     C66732  -0.542   4.190   3.052  0.8583  0.6423 -0.3795
  495MOL0     C66733  -0.582   4.340   3.067  1.1028  0.0400 -0.1800
  495MOL0     C66734  -0.489   4.417   3.154 -0.9813  0.9431 -0.3270
  495MOL0    Cl66735  -0.520   4.397   3.326 -0.1559  0.1981  0.1066
  495MOL0     C66736   0.244   3.892   2.700 -1.0375  0.1875  1.1943
  495MOL0     C66737   0.387   3.907   2.679  0.4316 -0.1306 -0.6876
  495MOL0     O66738   0.632   4.036   2.606 -0.6882  0.2387 -0.0249
  495MOL0     C66739   0.875   3.882   2.816 -0.3058 -0.3249  0.0182
  495MOL0     C66740   1.015   3.883   2.850  2.0331  0.0938 -0.0789
  495MOL0     N66741   1.376   3.639   2.410 -0.3612  0.1080  0.4486
  495MOL0     N66742   1.445   3.595   2.316  0.0160 -0.2266  0.2266
  495MOL0     C66743   1.720   3.102   1.682 -0.6071 -0.5138 -0.5520
  495MOL0     C66744   1.839   3.111   1.612 -0.0774  0.3492  0.4214
  495MOL0     C66745   2.218   3.098   1.416  0.0793  0.5701 -0.1875
  495MOL0     C66746   2.282   3.191   1.336 -0.3938  0.0465  0.4084
  495MOL0     C66747   2.422   3.226   1.359  0.3388  0.1662  0.2388
  495MOL0     C66748   2.496   3.149   1.444  0.1412  0.7389  0.5104
  495MOL0     O66749   2.632   3.163   1.450 -0.3102  0.3224  0.8805
  495MOL0     C66750   2.697   3.291   1.401 -0.0903 -0.3422 -0.8016
  495MOL0     C66751   2.825   3.337   1.481 -0.3392 -0.1410  0.0766
  495MOL0     C66752   2.935   3.237   1.455 -0.8512  0.6293 -0.3247
  495MOL0     C66753   3.072   3.274   1.523  0.3394  0.1457 -0.4721
  495MOL0     C66754   3.128   3.392   1.454 -0.0633  0.2014 -0.2049
  495MOL0     C66755   3.164   3.491   1.407  0.3162  0.6327  0.9343
  495MOL0     C66756   2.433   3.050   1.526  0.9467 -0.0048  0.7295
  495MOL0     C66757   2.298   3.031   1.505 -0.1614  0.9679 -0.5399
  495MOL0     H66758   1.832   2.808   1.467 -0.3715 -0.3210  0.8459
  495MOL0     H66759   1.626   2.803   1.571  0.9992  0.0221 -1.5971
  495MOL0     H66760   1.502   3.165   1.833 -2.2733 -0.0829 -0.5676
  495MOL0     H66761   1.402   3.039   1.902  0.2283  0.4149  0.3505
  495MOL0     H66762   1.584   2.935   2.017 -1.8826  0.6926  1.3640
  495MOL0     H66763   1.697   3.041   1.934 -0.4941 -0.2196 -2.8201
  495MOL0     H66764   1.468   3.168   2.074  1.9181  2.0423 -0.7148
  495MOL0     H66765   1.556   3.068   2.185 -1.0663 -0.6575 -0.6929
  495MOL0     H66766   1.777   3.182   2.111 -2.7968 -3.4352  5.0272
  495MOL0     H66767   1.690   3.264   1.981  2.8036 -1.6053 -0.9236
  495MOL0     H66768   1.574   3.409   2.167  0.8142  1.1630 -1.5550
  495MOL0     H66769   1.681   3.323   2.285  1.8112  0.7633 -1.2104
  495MOL0     H66770   1.873   3.409   2.222 -0.3917 -1.3575  0.0114
  495MOL0     H66771   1.806   3.465   2.059  1.6623 -4.0365 -0.6271
  495MOL0     H66772   1.764   3.569   2.345 -1.0387 -1.0000 -0.1996
  495MOL0     H66773   1.860   3.649   2.212 -0.5196 -1.7476 -3.6733
  495MOL0     H66774   1.591   3.618   2.120 -0.5865 -0.7793  0.8171
  495MOL0     H66775   1.674   3.769   2.171  1.7872 -0.4071 -2.6096
  495MOL0     H66776   1.641   3.812   2.471  0.3064 -2.0307  0.3571
  495MOL0     H66777   1.378   3.902   2.573  0.4347 -1.4117 -1.6101
  495MOL0     H66778   1.294   3.760   2.635  1.8742 -1.6254  0.8270
  495MOL0     H66779   1.594   3.819   2.696 -0.4349  1.0895 -1.6630
  495MOL0     H66780   1.492   3.692   2.754  0.0071  0.1783  2.0838
  495MOL0     H66781   1.481   4.002   2.818 -0.4386  1.5212  4.3027
  495MOL0     H66782   1.519   3.874   2.927 -1.0877 -0.9355  0.7916
  495MOL0     H66783   1.296   3.955   2.977  2.7438 -1.7055  1.8621
  495MOL0     H66784   1.273   3.799   2.896 -1.0529  0.1991 -2.0097
  495MOL0     H66785   1.134   4.057   2.586 -0.0532  1.2008 -0.4334
  495MOL0     H66786   0.837   4.149   2.486  2.5261  0.9718 -2.7733
  495MOL0     H66787   0.964   4.054   2.400 -0.7281 -1.0079 -0.4371
  495MOL0     H66788   0.798   3.990   2.419 -2.8277  1.8277  0.9132
  495MOL0     H66789   0.495   3.784   2.981  0.8310  0.8838 -0.4330
  495MOL0     H66790   0.248   3.756   3.012 -0.6284 -2.1092 -1.4699
  495MOL0     H66791   0.054   4.032   2.811  1.6312 -1.2545 -0.9782
  495MOL0     H66792  -0.081   3.938   2.739  0.4041  0.2776 -1.6036
  495MOL0     H66793  -0.155   3.869   2.954  3.6304 -2.1049 -0.0653
  495MOL0     H66794  -0.039   3.986   3.032 -1.6339  0.4759  1.0782
  495MOL0     H66795  -0.217   4.083   2.819 -1.7396 -2.6898 -0.2228
  495MOL0     H66796  -0.148   4.168   2.965  0.0901 -0.3751  3.5004
  495MOL0     H66797  -0.360   3.970   2.996 -2.2994  0.8989 -2.0278
  495MOL0     H66798  -0.302   4.089   3.112 -0.4807  0.3389 -0.1414
  495MOL0     H66799  -0.447   4.147   2.861 -2.7071 -2.4180  1.2459
  495MOL0     H66800  -0.369   4.270   2.961 -0.4630 -0.3050 -1.1491
  495MOL0     H66801  -0.633   4.141   3.016 -0.3117  2.6430 -0.2798
  495MOL0     H66802  -0.529   4.143   3.150  0.6049 -0.5572 -0.9033
  495MOL0     H66803  -0.679   4.334   3.118  1.3739 -1.9217  0.1627
  495MOL0     H66804  -0.598   4.386   2.969  1.3946 -0.5771 -0.5203
  495MOL0     H66805  -0.520   4.515   3.117  0.0713  0.9352 -1.3037
  495MOL0     H66806  -0.385   4.391   3.129 -2.0211 -3.1396 -1.2337
  495MOL0     H66807   0.182   3.927   2.618  2.6117 -0.1927 -2.0098
  495MOL0     H66808   0.426   3.945   2.585  1.1177  0.4848 -0.1648
  495MOL0     H66809   0.807   3.826   2.879  2.2207 -0.9061  2.4079
  495MOL0     H66810   1.056   3.830   2.936  1.3150  0.0869  0.2608
  495MOL0     H66811   1.698   3.200   1.725 -1.7912  0.5894 -3.4119
  495MOL0     H66812   1.887   3.207   1.629 -2.3343  1.2211  2.3160
  495MOL0     H66813   2.224   3.267   1.284 -0.9348 -0.6532 -0.0145
  495MOL0     H66814   2.466   3.297   1.290 -1.0653  0.5497 -0.3041
  495MOL0     H66815   2.723   3.286   1.294  0.7911  0.4089 -0.6364
  495MOL0     H66816   2.631   3.373   1.428 -0.7039 -1.5511  1.6415
  495MOL0     H66817   2.798   3.341   1.587 -1.9701  0.8200 -0.3436
  495MOL0     H66818   2.853   3.440   1.457  0.1615 -0.2375  0.2466
  495MOL0     H66819   2.941   3.225   1.347  1.4216 -0.9848 -0.1014
  495MOL0     H66820   2.902   3.149   1.512 -0.0831  1.3445  1.3069
  495MOL0     H66821   3.136   3.186   1.513 -1.5536 -1.3024 -0.3390
  495MOL0     H66822   3.058   3.288   1.631  0.6239  0.3655 -0.4621
  495MOL0     H66823   3.197   3.586   1.370  0.4976  0.0304 -0.5232
  495MOL0     H66824   2.489   2.986   1.594 -0.7215 -0.8711  1.3231
  495MOL0     H66825   2.248   2.979   1.586  1.0092 -1.3522 -1.2424
  496MOL0     O66826   5.161   5.656   2.687  0.2538 -0.2209 -0.0216
  496MOL0     C66827   5.151   5.555   2.741 -0.1796 -0.7356 -0.0615
  496MOL0     O66828   5.258   5.470   2.774 -0.6450 -0.5393  0.2410
  496MOL0     C66829   5.380   5.508   2.737  0.0959 -0.9121  0.3363
  496MOL0     C66830   5.410   5.538   2.608  0.2277 -0.5568 -0.0901
  496MOL0     C66831   5.538   5.575   2.558  0.1218  0.9637 -0.2161
  496MOL0     C66832   5.642   5.582   2.649 -0.0729 -0.3494 -0.0760
  496MOL0     O66833   5.771   5.623   2.610 -0.6624 -0.3156  0.6371
  496MOL0     C66834   5.879   5.522   2.622  1.2383 -0.9551 -0.2655
  496MOL0     C66835   5.935   5.500   2.485  1.0375 -0.1571 -0.2365
  496MOL0     C66836   6.053   5.413   2.477 -0.3556 -0.0148  0.5908
  496MOL0     C66837   6.091   5.393   2.330 -0.1112  0.6039  0.0419
  496MOL0     C66838   6.154   5.511   2.243  0.5335 -0.0217 -0.0683
  496MOL0     C66839   6.305   5.489   2.203  0.2741 -0.0097  0.4933
  496MOL0     C66840   6.357   5.619   2.142  0.6439 -0.5728  0.2425
  496MOL0     C66841   6.509   5.631   2.146  0.0567  0.4655  0.5928
  496MOL0     N66842   6.544   5.758   2.085  0.1997 -0.5175 -0.1752
  496MOL0     C66843   6.549   5.772   1.947  0.7431 -0.1623  0.2908
  496MOL0     C66844   6.587   5.906   1.924 -0.3892  0.4108  0.3604
  496MOL0     C66845   6.578   5.982   1.794 -0.5163 -0.2922 -0.0393
  496MOL0     C66846   6.568   6.134   1.819  0.0569 -0.2374 -0.4499
  496MOL0     C66847   6.514   6.207   1.691 -0.7262 -0.4192 -0.6492
  496MOL0     C66848   6.626   6.232   1.592  0.6782 -0.4623  0.3760
  496MOL0     O66849   6.571   6.309   1.481  0.2641 -0.2668 -0.5530
  496MOL0     C66850   6.648   6.314   1.362 -0.1878 -0.6249 -0.3636
  496MOL0     C66851   6.593   6.381   1.256 -0.1575  0.3328  0.3259
  496MOL0     C66852   6.661   6.394   1.138  0.1162  0.2636  0.0584
  496MOL0     C66853   6.599   6.479   1.034  0.4454 -0.5865 -0.0121
  496MOL0     C66854   6.794   6.348   1.118 -0.5784 -0.1522  0.0516
  496MOL0     C66855   6.866   6.364   0.992  0.6762 -0.3036  0.4366
  496MOL0     O66856   6.805   6.397   0.878  0.1297  0.8641 -0.0371
  496MOL0     C66857   6.876   6.436   0.770  0.0985  0.7134 -0.9821
  496MOL0     C66858   6.843   6.371   0.646  0.2881 -0.3623 -0.7496
  496MOL0     C66859   6.901   6.417   0.530  0.2568 -0.2931  0.9938
  496MOL0     C66860   7.007   6.512   0.527  0.0569  0.1007 -0.1795
  496MOL0     O66861   7.050   6.561   0.409  0.1918  0.5001 -0.2186
  496MOL0     C66862   7.126   6.689   0.405 -0.7409  0.0274  0.4007
  496MOL0     C66863   7.270   6.640   0.399  0.7861  0.2834 -0.1159
  496MOL0     C66864   7.299   6.586   0.253 -0.9690  0.5029 -0.4266
  496MOL0     C66865   7.451   6.558   0.247 -0.0707  0.0319  0.2481
  496MOL0     C66866   7.504   6.514   0.105  0.0209  0.4044 -0.0382
  496MOL0     C66867   7.432   6.390   0.048  0.1733 -0.3192 -0.6136
  496MOL0     C66868   7.422   6.280   0.147  0.7274  0.2090  0.2190
  496MOL0     C66869   7.350   6.157   0.091 -0.3246 -1.3339 -0.0835
  496MOL0    Cl66870   7.369   6.010   0.202  0.0623  0.1832  0.0591
  496MOL0     C66871   7.041   6.566   0.655 -0.1637 -0.9589 -0.0739
  496MOL0     C66872   6.977   6.533   0.773 -0.5800  0.7356  0.2419
  496MOL0     O66873   6.982   6.358   1.006 -0.1265  1.0664 -0.6535
  496MOL0     C66874   6.855   6.299   1.239 -0.2657  0.7362  0.0820
  496MOL0     C66875   6.782   6.272   1.353  0.6356  0.3194 -0.0374
  496MOL0     N66876   6.617   5.955   2.050  0.9113 -0.5806  0.1223
  496MOL0     N66877   6.590   5.866   2.145  0.4434  0.4626 -0.3684
  496MOL0     C66878   5.617   5.554   2.788 -0.4177  0.2135  0.2741
  496MOL0     C66879   5.485   5.518   2.825 -0.0298  1.3062 -0.2552
  496MOL0     C66880   5.013   5.519   2.779  0.3008  0.3509  0.5761
  496MOL0     C66881   4.996   5.433   2.884  0.8272  0.1397  0.3570
  496MOL0     C66882   4.868   5.376   2.913 -0.4701 -0.0357  0.1168
  496MOL0     C66883   4.758   5.404   2.829 -0.4081  0.1541 -0.4501
  496MOL0     O66884   4.631   5.359   2.848 -0.3137  0.1879 -0.0544
  496MOL0     C66885   4.593   5.319   2.979 -0.0949 -0.9808 -0.2219
  496MOL0     C66886   4.591   5.437   3.078  1.2911 -0.6109 -0.5308
  496MOL0     C66887   4.511   5.552   3.014 -0.1900  1.1301 -0.1531
  496MOL0     C66888   4.358   5.525   3.012 -0.5460 -0.2153  0.3122
  496MOL0     C66889   4.314   5.517   3.151  0.0303  0.3712  0.2324
  496MOL0     C66890   4.284   5.499   3.268 -0.2471  0.1942  0.5579
  496MOL0     C66891   4.777   5.485   2.717 -0.1336 -0.5886 -0.2148
  496MOL0     C66892   4.898   5.545   2.689 -0.4703 -0.4209 -0.1378
  496MOL0     H66893   5.329   5.532   2.536  0.6285 -1.0034 -0.5183
  496MOL0     H66894   5.562   5.592   2.453  0.0375 -3.8714 -1.2570
  496MOL0     H66895   5.947   5.558   2.700 -1.3817  0.6099  1.4565
  496MOL0     H66896   5.841   5.429   2.665 -2.0901  0.4744  0.2314
  496MOL0     H66897   5.858   5.466   2.416 -0.1044  0.8954  0.4984
  496MOL0     H66898   5.967   5.599   2.453  0.8744 -0.2099 -0.5644
  496MOL0     H66899   6.141   5.440   2.536 -0.9032  0.4317  1.2180
  496MOL0     H66900   6.030   5.315   2.520  0.8437  0.1490  1.6731
  496MOL0     H66901   6.164   5.312   2.327 -2.1005 -1.3253  0.7263
  496MOL0     H66902   6.008   5.359   2.267 -1.3916 -1.7293  2.7259
  496MOL0     H66903   6.091   5.533   2.156  0.6626 -1.2167 -0.4789
  496MOL0     H66904   6.146   5.599   2.307 -4.6999 -1.5131  1.9023
  496MOL0     H66905   6.353   5.460   2.297 -1.8975 -2.6507  0.9187
  496MOL0     H66906   6.323   5.404   2.137  0.6323 -0.2806  0.9347
  496MOL0     H66907   6.342   5.626   2.034  3.1356 -0.9334 -0.2008
  496MOL0     H66908   6.320   5.711   2.187 -1.6293  0.0078 -2.5254
  496MOL0     H66909   6.558   5.544   2.101 -0.1040  1.5587 -1.8630
  496MOL0     H66910   6.539   5.628   2.251  0.2429 -0.3800  0.5233
  496MOL0     H66911   6.522   5.694   1.876 -0.4440  3.7053 -4.0091
  496MOL0     H66912   6.666   5.963   1.733  0.2400  2.0325  0.2592
  496MOL0     H66913   6.497   5.945   1.730  0.4450 -1.7529 -0.4631
  496MOL0     H66914   6.659   6.188   1.848  0.4826 -0.0689 -1.9877
  496MOL0     H66915   6.496   6.139   1.900 -0.0569  1.5370 -0.6217
  496MOL0     H66916   6.489   6.311   1.714  2.4687  0.7909 -2.0675
  496MOL0     H66917   6.423   6.155   1.658  0.6902 -5.0133  1.8404
  496MOL0     H66918   6.664   6.139   1.550  1.0987 -0.1235  0.0013
  496MOL0     H66919   6.706   6.283   1.647  0.7419  0.1611 -0.2751
  496MOL0     H66920   6.500   6.434   1.273 -1.4178 -2.0924  1.4307
  496MOL0     H66921   6.674   6.552   1.004  0.3257 -1.8154 -3.8069
  496MOL0     H66922   6.566   6.410   0.955 -0.2678 -0.8612  0.5080
  496MOL0     H66923   6.511   6.536   1.065 -2.0219 -2.5738 -2.8091
  496MOL0     H66924   6.758   6.304   0.634 -1.3437  1.6820 -1.2529
  496MOL0     H66925   6.879   6.367   0.436  2.2529 -1.3641  1.0259
  496MOL0     H66926   7.098   6.729   0.308  2.9365 -1.1087 -1.3081
  496MOL0     H66927   7.097   6.757   0.485  1.8120  2.2895 -0.4562
  496MOL0     H66928   7.334   6.727   0.421 -0.1186  1.1468 -0.8101
  496MOL0     H66929   7.286   6.565   0.476 -0.9504 -1.2765 -1.1906
  496MOL0     H66930   7.274   6.664   0.181 -0.0536 -0.4322 -1.8021
  496MOL0     H66931   7.243   6.495   0.233 -0.1442  0.2890 -1.9068
  496MOL0     H66932   7.502   6.654   0.264  0.4914  0.6491 -3.8315
  496MOL0     H66933   7.477   6.484   0.323  0.3486  0.8693  0.9484
  496MOL0     H66934   7.612   6.504   0.103  0.1839  1.7163 -2.6130
  496MOL0     H66935   7.484   6.593   0.032 -1.1893  1.9400  1.8538
  496MOL0     H66936   7.337   6.440   0.028  0.8015  2.3412  2.2702
  496MOL0     H66937   7.484   6.369  -0.045  2.4589  1.7385  0.1017
  496MOL0     H66938   7.355   6.310   0.228 -0.0809 -2.0606  0.4716
  496MOL0     H66939   7.524   6.260   0.181  0.5830  0.1146  0.6090
  496MOL0     H66940   7.405   6.143  -0.003  0.5578  0.3206  0.1304
  496MOL0     H66941   7.243   6.175   0.081 -0.4066  0.5452  2.9307
  496MOL0     H66942   7.124   6.636   0.658  1.4003 -2.7682  2.6079
  496MOL0     H66943   7.009   6.574   0.869  1.2003 -0.4655  0.2063
  496MOL0     H66944   6.961   6.279   1.235 -0.6871 -1.5474 -2.4015
  496MOL0     H66945   6.832   6.226   1.437 -0.0697  1.1848  0.8755
  496MOL0     H66946   5.705   5.545   2.850 -2.7814 -1.0887  3.7655
  496MOL0     H66947   5.469   5.492   2.929 -1.5432  2.5650 -0.1377
  496MOL0     H66948   5.083   5.405   2.943  1.5061  1.2436 -0.0856
  496MOL0     H66949   4.873   5.306   2.995  0.7559  1.3256  1.2550
  496MOL0     H66950   4.493   5.277   2.967  0.7418 -3.4031  0.6659
  496MOL0     H66951   4.660   5.243   3.020 -1.6457 -1.7267  1.0572
  496MOL0     H66952   4.693   5.472   3.096  0.8453  2.1143 -2.6655
  496MOL0     H66953   4.548   5.414   3.175 -1.8485  3.5251 -0.6585
  496MOL0     H66954   4.535   5.576   2.910  3.1927  0.8347  0.4452
  496MOL0     H66955   4.536   5.638   3.076 -0.7774 -0.1757  2.0360
  496MOL0     H66956   4.326   5.438   2.954 -0.3322  1.3820 -2.3521
  496MOL0     H66957   4.313   5.609   2.959  1.8313 -0.1302 -1.8217
  496MOL0     H66958   4.248   5.485   3.368  0.7441 -1.6012  0.7036
  496MOL0     H66959   4.696   5.501   2.648  2.1446 -1.8017 -3.4011
  496MOL0     H66960   4.920   5.618   2.612  2.0249  0.9059  1.6864
  497MOL0     O66961   1.115   5.015   7.010  0.1413 -0.5148 -0.4337
  497MOL0     C66962   1.127   5.107   7.094  0.2403 -0.7762  0.2534
  497MOL0     O66963   1.223   5.204   7.091  0.1994  0.5344  0.4434
  497MOL0     C66964   1.184   5.332   7.075  0.0538 -0.4771 -0.4419
  497MOL0     C66965   1.094   5.359   6.966 -0.1387 -0.2638 -0.3768
  497MOL0     C66966   1.056   5.486   6.928 -1.3839 -0.7022  0.5364
  497MOL0     C66967   1.116   5.602   6.998 -0.4631 -0.0817  0.6196
  497MOL0     O66968   1.076   5.728   6.962 -0.7887  0.6175  0.5334
  497MOL0     C66969   0.991   5.788   7.066 -0.1298 -0.4274 -0.3780
  497MOL0     C66970   1.008   5.936   7.017  0.6250  0.2033 -0.1609
  497MOL0     C66971   0.946   6.036   7.119  0.7075 -0.4446  0.0174
  497MOL0     C66972   0.953   6.177   7.066 -0.4870 -0.0660  0.2765
  497MOL0     C66973   0.865   6.273   7.143 -0.7655  0.4611  0.6687
  497MOL0     C66974   0.713   6.249   7.106 -0.5241 -0.5237  0.5386
  497MOL0     C66975   0.623   6.375   7.141  0.2494  0.5594  0.9302
  497MOL0     C66976   0.664   6.490   7.054 -0.6448 -0.1210  0.9775
  497MOL0     N66977   0.551   6.589   7.057 -0.9378 -0.8403  0.1025
  497MOL0     C66978   0.414   6.570   7.043 -0.4798  0.9767 -0.1254
  497MOL0     C66979   0.358   6.686   7.078 -0.1748  0.2471 -0.8536
  497MOL0     C66980   0.210   6.733   7.072 -0.4752  0.6455  0.7184
  497MOL0     C66981   0.153   6.725   6.924 -0.7757 -0.1549  0.0429
  497MOL0     C66982   0.042   6.826   6.883 -0.4587  0.8458 -0.1201
  497MOL0     C66983  -0.003   6.794   6.747 -0.2549  0.9020  0.1840
  497MOL0     O66984   0.111   6.794   6.656  0.6719  0.5131 -0.2089
  497MOL0     C66985   0.077   6.757   6.532  0.1736 -0.7211  0.2568
  497MOL0     C66986   0.111   6.853   6.431  0.3171 -0.1194 -0.5686
  497MOL0     C66987   0.082   6.836   6.302 -0.2998 -0.5659  0.3541
  497MOL0     C66988   0.132   6.943   6.207 -0.6127 -0.5848  0.6280
  497MOL0     C66989   0.016   6.721   6.260 -0.0461  0.1181 -0.0889
  497MOL0     C66990  -0.046   6.704   6.124 -0.1949 -0.1852  0.1513
  497MOL0     O66991  -0.111   6.807   6.064  0.2874 -0.8239 -0.0907
  497MOL0     C66992  -0.152   6.783   5.932  0.1882  0.4843  0.2307
  497MOL0     C66993  -0.263   6.714   5.888  0.5284 -0.3968 -0.6115
  497MOL0     C66994  -0.298   6.702   5.753 -0.3990 -0.3711  0.8920
  497MOL0     C66995  -0.201   6.737   5.653  0.2467  0.0618 -0.5723
  497MOL0     O66996  -0.238   6.710   5.522  0.5756  0.0663  0.3039
  497MOL0     C66997  -0.170   6.773   5.422  0.0838 -1.0381  0.2100
  497MOL0     C66998  -0.248   6.758   5.295  0.8463 -0.2730 -0.8172
  497MOL0     C66999  -0.192   6.832   5.170 -0.7919  1.4578 -0.5516
  497MOL0     C67000  -0.159   6.733   5.060  0.6410 -0.2224  0.2265
  497MOL0     C67001  -0.271   6.665   4.983 -0.1665 -1.3696 -0.4528
  497MOL0     C67002  -0.343   6.758   4.882  0.0776 -0.3093  0.5408
  497MOL0     C67003  -0.461   6.689   4.806 -0.1127 -0.0603 -0.2136
  497MOL0     C67004  -0.514   6.802   4.707  0.5535  1.1461 -0.9215
  497MOL0    Cl67005  -0.375   6.854   4.599 -0.0288 -0.2602 -0.2758
  497MOL0     C67006  -0.087   6.805   5.698  0.2621 -0.2798  0.3656
  497MOL0     C67007  -0.072   6.832   5.832  0.0972 -0.2628 -0.4853
  497MOL0     O67008  -0.010   6.600   6.078  0.1768 -0.2446  0.0257
  497MOL0     C67009  -0.028   6.634   6.361 -0.3666  0.4117 -1.6737
  497MOL0     C67010   0.003   6.649   6.495 -0.2223  0.3938 -0.5662
  497MOL0     N67011   0.457   6.772   7.109  0.2184  0.9295 -1.3847
  497MOL0     N67012   0.574   6.721   7.087 -0.3310 -0.0363 -0.3176
  497MOL0     C67013   1.209   5.576   7.090 -0.3851  0.7098  0.0790
  497MOL0     C67014   1.249   5.448   7.132 -0.4619  0.0942 -1.2881
  497MOL0     C67015   1.014   5.136   7.181  0.4233 -0.7510 -0.4211
  497MOL0     C67016   1.039   5.181   7.313  0.4906  0.0559  0.5788
  497MOL0     C67017   0.939   5.202   7.399  0.5006 -0.4620 -1.2744
  497MOL0     C67018   0.809   5.176   7.372  0.1527  0.5599  0.5601
  497MOL0     O67019   0.728   5.200   7.481 -0.2517 -0.5126  0.0850
  497MOL0     C67020   0.649   5.321   7.457  0.2697 -0.3594  0.5800
  497MOL0     C67021   0.513   5.326   7.518  0.5618  0.8728  0.0065
  497MOL0     C67022   0.504   5.345   7.661 -1.5235  0.3228 -1.0923
  497MOL0     C67023   0.349   5.353   7.681 -0.8199  0.9379 -1.4990
  497MOL0     C67024   0.321   5.360   7.822  0.5012  0.0625 -0.4732
  497MOL0     C67025   0.294   5.375   7.938  0.4168  0.6042  0.1047
  497MOL0     C67026   0.775   5.145   7.238 -0.5796  0.2935 -0.2198
  497MOL0     C67027   0.882   5.117   7.146 -0.2354 -0.9194  1.0206
  497MOL0     H67028   1.058   5.283   6.898  3.5035  0.5080 -3.4978
  497MOL0     H67029   0.989   5.509   6.846 -0.7807 -1.2640 -0.1137
  497MOL0     H67030   0.894   5.737   7.059 -0.4975 -0.2074  2.1320
  497MOL0     H67031   1.025   5.768   7.168  1.0372 -0.7204 -0.8101
  497MOL0     H67032   1.115   5.954   7.010  0.3049  3.5975  1.4820
  497MOL0     H67033   0.968   5.947   6.916 -0.0301  3.0584  0.3080
  497MOL0     H67034   0.845   5.997   7.135  0.8731 -0.7688  0.3084
  497MOL0     H67035   0.985   6.045   7.221  2.5495  0.6101 -0.7324
  497MOL0     H67036   1.060   6.201   7.068  0.4033 -3.0291  5.2076
  497MOL0     H67037   0.926   6.171   6.960 -2.8881 -1.1916  0.8780
  497MOL0     H67038   0.882   6.259   7.250 -1.7605  0.5886  0.8525
  497MOL0     H67039   0.903   6.373   7.118 -2.5004  0.6664 -1.4561
  497MOL0     H67040   0.700   6.230   6.999  2.2209 -1.2876  0.2745
  497MOL0     H67041   0.669   6.175   7.173  0.5407 -0.2775  1.5361
  497MOL0     H67042   0.515   6.357   7.131  0.1932  1.3680 -0.0407
  497MOL0     H67043   0.640   6.395   7.247 -0.3772  0.7878  0.9939
  497MOL0     H67044   0.681   6.459   6.950  1.2957 -3.9215  2.2412
  497MOL0     H67045   0.764   6.518   7.089  0.5868 -0.4421 -1.9616
  497MOL0     H67046   0.361   6.475   7.034  2.3756 -0.8549  0.8733
  497MOL0     H67047   0.148   6.659   7.124  0.7247 -1.7562 -1.0724
  497MOL0     H67048   0.191   6.833   7.111  0.5614  1.0816  0.1580
  497MOL0     H67049   0.114   6.623   6.912  2.2672 -1.1920 -2.4349
  497MOL0     H67050   0.241   6.730   6.859 -0.4230 -2.5043  0.2343
  497MOL0     H67051   0.081   6.928   6.874  1.4136  0.1830 -0.0637
  497MOL0     H67052  -0.043   6.815   6.951  0.0129 -1.5888  0.1822
  497MOL0     H67053  -0.077   6.869   6.717  0.0764  1.5349  0.9141
  497MOL0     H67054  -0.052   6.696   6.750  3.7844 -1.3693 -0.5701
  497MOL0     H67055   0.156   6.943   6.472 -0.5033 -0.3716  0.9844
  497MOL0     H67056   0.239   6.955   6.228  0.1854 -0.2372 -3.0403
  497MOL0     H67057   0.139   6.903   6.106  0.6355 -0.6685  0.7284
  497MOL0     H67058   0.082   7.041   6.213  0.3385 -0.0472 -0.0297
  497MOL0     H67059  -0.334   6.689   5.967  0.7808  4.2530  1.4269
  497MOL0     H67060  -0.392   6.657   5.724 -3.1702  3.6047  2.7914
  497MOL0     H67061  -0.166   6.880   5.445  0.4311 -0.8700 -0.6001
  497MOL0     H67062  -0.074   6.720   5.415 -0.5936 -2.1564 -1.0137
  497MOL0     H67063  -0.264   6.651   5.278  0.6286 -0.3335 -0.2545
  497MOL0     H67064  -0.348   6.800   5.311  0.1223 -2.2686  0.2316
  497MOL0     H67065  -0.107   6.895   5.199  0.4714 -0.4290  0.0046
  497MOL0     H67066  -0.274   6.886   5.121 -2.8762  0.3581  1.5015
  497MOL0     H67067  -0.091   6.784   4.992  0.3153  0.3756  0.3417
  497MOL0     H67068  -0.107   6.656   5.118  2.1510  1.3221  1.0352
  497MOL0     H67069  -0.343   6.627   5.056 -1.5086  3.3529  1.0976
  497MOL0     H67070  -0.223   6.579   4.937  3.2860  0.0218  0.2081
  497MOL0     H67071  -0.383   6.847   4.931  0.0144 -0.3889  0.6338
  497MOL0     H67072  -0.271   6.801   4.813  0.4739 -2.4885 -0.5068
  497MOL0     H67073  -0.524   6.656   4.889  1.8814 -0.2216  1.3440
  497MOL0     H67074  -0.423   6.603   4.749  3.2897  2.7832 -2.7105
  497MOL0     H67075  -0.552   6.891   4.760  0.2828 -0.4567  1.7829
  497MOL0     H67076  -0.589   6.762   4.638  0.3689 -1.1804  0.5239
  497MOL0     H67077  -0.017   6.855   5.632  2.3057 -2.9210  0.3690
  497MOL0     H67078   0.016   6.889   5.861 -1.5327  1.7908  0.7649
  497MOL0     H67079  -0.110   6.568   6.333 -0.3299 -0.9010  1.0161
  497MOL0     H67080  -0.026   6.576   6.570 -0.4398  2.0250  1.0267
  497MOL0     H67081   1.269   5.658   7.129 -0.6031  1.0715 -0.3324
  497MOL0     H67082   1.322   5.428   7.210 -2.4393 -2.4855  0.0458
  497MOL0     H67083   1.138   5.209   7.350 -0.7854  2.3947  2.4800
  497MOL0     H67084   0.953   5.234   7.502 -0.8054  1.8129 -1.7467
  497MOL0     H67085   0.705   5.412   7.482  1.1627 -0.9074  0.6479
  497MOL0     H67086   0.617   5.326   7.353  1.9599 -0.8457 -0.0072
  497MOL0     H67087   0.466   5.230   7.500 -0.2720  0.5668  3.2286
  497MOL0     H67088   0.453   5.401   7.466 -2.9277 -3.5585 -3.1294
  497MOL0     H67089   0.548   5.441   7.691 -2.3703  0.1160  0.9019
  497MOL0     H67090   0.562   5.267   7.711  0.5013  1.2467 -1.8488
  497MOL0     H67091   0.296   5.260   7.657 -1.2114  1.2616 -1.9302
  497MOL0     H67092   0.312   5.442   7.628  0.5340  2.7758  0.4836
  497MOL0     H67093   0.250   5.382   8.036 -0.7498 -1.0430 -0.2361
  497MOL0     H67094   0.676   5.113   7.207 -0.2984  0.2476 -1.0844
  497MOL0     H67095   0.860   5.073   7.050 -0.0995 -0.2930  0.7015
  498MOL0     O67096   1.547   1.042   0.029  0.7772 -0.3186  0.2943
  498MOL0     C67097   1.445   0.976  -0.016 -0.3056  0.0491 -0.5551
  498MOL0     O67098   1.425   0.931  -0.144 -0.0824 -0.1595  0.3429
  498MOL0     C67099   1.515   0.979  -0.236  0.2754 -1.5342  0.3263
  498MOL0     C67100   1.478   1.092  -0.312  0.6417  0.5843  0.5867
  498MOL0     C67101   1.571   1.149  -0.396  0.2425 -0.6314 -0.2500
  498MOL0     C67102   1.711   1.112  -0.407 -0.0797 -0.6360  0.2251
  498MOL0     O67103   1.796   1.188  -0.482  0.6932  0.3721  0.3518
  498MOL0     C67104   1.888   1.103  -0.564  0.4479 -0.2132 -0.3066
  498MOL0     C67105   1.958   1.174  -0.680 -0.9109 -0.2649 -0.7397
  498MOL0     C67106   1.883   1.185  -0.808  0.1847  0.2770 -0.6963
  498MOL0     C67107   1.726   1.211  -0.799 -0.2456  0.5672 -0.6088
  498MOL0     C67108   1.665   1.234  -0.931  0.2210  0.5182  0.0104
  498MOL0     C67109   1.645   1.105  -1.012  0.8841 -0.1971 -0.2812
  498MOL0     C67110   1.546   1.006  -0.951 -0.5964  0.3866  0.9652
  498MOL0     C67111   1.555   0.875  -1.031  0.6836  0.2126 -1.0068
  498MOL0     N67112   1.493   0.887  -1.165 -0.6137  0.0413  0.0007
  498MOL0     C67113   1.365   0.909  -1.216  1.1678 -0.9344  0.2105
  498MOL0     C67114   1.377   0.901  -1.348 -0.2736  0.2960  0.0459
  498MOL0     C67115   1.275   0.894  -1.457  0.1718  0.4332  0.0347
  498MOL0     C67116   1.319   0.976  -1.585  0.6328 -0.3286  0.3033
  498MOL0     C67117   1.331   1.125  -1.556 -0.1465 -0.0393 -0.1462
  498MOL0     C67118   1.341   1.205  -1.682  0.0943  0.2888  0.5895
  498MOL0     O67119   1.210   1.242  -1.737  0.3236 -1.1208  0.5422
  498MOL0     C67120   1.186   1.318  -1.852 -0.0220 -0.7445 -0.5102
  498MOL0     C67121   1.055   1.339  -1.885  0.5006  0.0594  0.4087
  498MOL0     C67122   1.016   1.432  -1.985 -0.0946 -1.1542  1.6572
  498MOL0     C67123   0.869   1.467  -2.011 -0.5882  0.4978 -0.8743
  498MOL0     C67124   1.117   1.498  -2.062  0.4101  0.4555 -1.0425
  498MOL0     C67125   1.093   1.604  -2.165  0.7057  0.1827  0.2808
  498MOL0     O67126   1.170   1.719  -2.173  0.8634 -0.2988 -0.2350
  498MOL0     C67127   1.220   1.775  -2.051 -0.1994 -0.1171  1.0064
  498MOL0     C67128   1.359   1.785  -2.018  0.8813  0.3742  0.2816
  498MOL0     C67129   1.392   1.838  -1.894  0.1426  0.1234 -0.5093
  498MOL0     C67130   1.306   1.903  -1.802  1.2177  1.4083  0.8803
  498MOL0     O67131   1.364   1.942  -1.690  0.0242  0.1549 -0.2341
  498MOL0     C67132   1.287   1.967  -1.569 -1.4851  0.1113  0.8902
  498MOL0     C67133   1.383   2.036  -1.469  0.2144  0.3107 -0.1436
  498MOL0     C67134   1.419   2.179  -1.510 -0.1570  0.7225  1.0191
  498MOL0     C67135   1.483   2.267  -1.404 -0.3232  0.3775 -0.2919
  498MOL0     C67136   1.625   2.223  -1.373  0.5289 -0.2647 -0.7012
  498MOL0     C67137   1.676   2.291  -1.250  1.3836 -0.3517  0.2252
  498MOL0     C67138   1.813   2.240  -1.197  0.4666  0.5541  0.0172
  498MOL0     C67139   1.917   2.294  -1.293  0.7655  0.2530 -0.5815
  498MOL0    Cl67140   1.994   2.181  -1.393 -0.0326  0.2798 -0.2204
  498MOL0     C67141   1.167   1.896  -1.840  0.1224 -0.5204  1.0465
  498MOL0     C67142   1.129   1.833  -1.965  0.1210  0.2477  0.5700
  498MOL0     O67143   1.012   1.574  -2.253  0.3286  0.5437 -0.4058
  498MOL0     C67144   1.246   1.470  -2.023  0.2118  0.3933  0.2287
  498MOL0     C67145   1.291   1.384  -1.926 -0.0189  0.8108  0.5364
  498MOL0     N67146   1.512   0.882  -1.376 -0.7132 -0.2724  0.7470
  498MOL0     N67147   1.575   0.864  -1.270 -0.2801  0.7948 -0.8173
  498MOL0     C67148   1.744   0.995  -0.335 -0.1236 -0.9131 -0.2396
  498MOL0     C67149   1.651   0.943  -0.246 -0.1450 -1.0009  0.4492
  498MOL0     C67150   1.344   0.920   0.072  0.2838 -0.7166 -0.0021
  498MOL0     C67151   1.372   0.875   0.206 -0.1639 -0.0186  0.1810
  498MOL0     C67152   1.267   0.834   0.303 -0.2827 -0.2658  0.0731
  498MOL0     C67153   1.134   0.829   0.255 -0.3208  0.0720 -0.4780
  498MOL0     O67154   1.027   0.782   0.337 -0.2479  0.3199  0.7898
  498MOL0     C67155   1.045   0.761   0.485  0.1646 -0.4085 -0.9268
  498MOL0     C67156   0.926   0.676   0.546 -0.3185  0.2328  0.3478
  498MOL0     C67157   0.928   0.525   0.487 -0.7555  0.2526 -0.6875
  498MOL0     C67158   1.059   0.445   0.489 -0.0425  0.1624 -0.8089
  498MOL0     C67159   1.082   0.401   0.624 -0.3967 -0.1495  0.6733
  498MOL0     C67160   1.129   0.357   0.728 -0.3447  0.5842 -0.3435
  498MOL0     C67161   1.102   0.866   0.123 -0.8438  0.3739 -0.6493
  498MOL0     C67162   1.206   0.913   0.042  1.1074  0.2979  0.1268
  498MOL0     H67163   1.380   1.137  -0.304  0.2359  0.1646 -1.6260
  498MOL0     H67164   1.541   1.240  -0.449 -2.9968 -1.0844  0.5471
  498MOL0     H67165   1.963   1.079  -0.488 -0.6179 -0.9062  0.5470
  498MOL0     H67166   1.845   1.012  -0.605  1.0382  0.5595 -2.8675
  498MOL0     H67167   1.994   1.272  -0.647  0.3150 -0.6758 -0.7999
  498MOL0     H67168   2.054   1.129  -0.710 -0.0232  2.3696 -2.1722
  498MOL0     H67169   1.914   1.276  -0.860  0.0731  1.6320  1.4829
  498MOL0     H67170   1.904   1.093  -0.863 -0.5458  0.1262 -0.7352
  498MOL0     H67171   1.684   1.134  -0.733 -1.7004  0.8704 -1.1448
  498MOL0     H67172   1.722   1.303  -0.739  0.7723  0.7888 -0.8640
  498MOL0     H67173   1.569   1.284  -0.914  0.5730  0.7188  1.6497
  498MOL0     H67174   1.718   1.313  -0.985 -0.0529  0.8434  0.2054
  498MOL0     H67175   1.625   1.136  -1.115 -1.6032 -0.6732  0.0092
  498MOL0     H67176   1.743   1.056  -1.023  1.0684  0.1113 -0.0312
  498MOL0     H67177   1.580   0.984  -0.849  1.8437 -1.0243 -0.0658
  498MOL0     H67178   1.444   1.043  -0.948 -1.5400 -2.0306  3.7377
  498MOL0     H67179   1.504   0.795  -0.976  0.3285  1.0939 -0.0182
  498MOL0     H67180   1.661   0.846  -1.031  0.5094 -0.6197  1.0021
  498MOL0     H67181   1.268   0.916  -1.168  1.2260 -0.9825  0.3337
  498MOL0     H67182   1.247   0.790  -1.473  0.0096  0.3894  0.5746
  498MOL0     H67183   1.177   0.929  -1.425 -0.5091 -0.8238 -0.6062
  498MOL0     H67184   1.238   0.959  -1.657 -2.6439  0.5431  3.4740
  498MOL0     H67185   1.410   0.930  -1.625  0.4553  1.1771 -1.9840
  498MOL0     H67186   1.420   1.141  -1.495 -0.9975  1.1860  0.8397
  498MOL0     H67187   1.242   1.154  -1.499  0.0605  2.1075 -0.8333
  498MOL0     H67188   1.396   1.152  -1.759  0.7180 -2.5040  2.7947
  498MOL0     H67189   1.400   1.294  -1.657  2.5785 -1.4794  1.3377
  498MOL0     H67190   0.972   1.285  -1.841 -0.1944 -0.6239 -1.6018
  498MOL0     H67191   0.827   1.423  -2.102 -3.4580  0.3307  0.4338
  498MOL0     H67192   0.805   1.438  -1.927  0.6841 -1.5475 -0.5310
  498MOL0     H67193   0.842   1.572  -2.018 -1.2097  0.9468  4.4481
  498MOL0     H67194   1.435   1.754  -2.089  0.5807 -0.8758  0.4842
  498MOL0     H67195   1.491   1.826  -1.851 -0.4742  1.1056  1.2442
  498MOL0     H67196   1.198   2.030  -1.578  0.8928  3.7180  0.4054
  498MOL0     H67197   1.253   1.866  -1.544 -0.0228 -1.7482 -3.6870
  498MOL0     H67198   1.344   2.037  -1.367 -1.1720  2.4148 -0.6285
  498MOL0     H67199   1.478   1.983  -1.468  0.4743  0.7346  1.7106
  498MOL0     H67200   1.331   2.227  -1.555 -0.9345  0.0932  1.8316
  498MOL0     H67201   1.490   2.172  -1.592 -1.3769 -1.7983  0.0633
  498MOL0     H67202   1.487   2.372  -1.435  0.7056 -0.0418 -1.6345
  498MOL0     H67203   1.424   2.266  -1.311  0.7131 -2.3441  0.4287
  498MOL0     H67204   1.674   2.256  -1.465 -2.5842  1.2724 -1.9533
  498MOL0     H67205   1.639   2.115  -1.361  1.9420  0.1748  2.8236
  498MOL0     H67206   1.668   2.397  -1.274 -1.1483 -0.4615  0.3266
  498MOL0     H67207   1.604   2.289  -1.168  1.8117  3.5226  0.8613
  498MOL0     H67208   1.823   2.132  -1.207 -4.9542 -0.5843  2.8495
  498MOL0     H67209   1.819   2.263  -1.090 -0.6002 -1.0911  0.4709
  498MOL0     H67210   1.987   2.335  -1.219  0.4230 -0.6892  0.2942
  498MOL0     H67211   1.883   2.377  -1.354  1.3508 -1.0233 -2.7424
  498MOL0     H67212   1.099   1.942  -1.770  1.4646  2.4161  0.5685
  498MOL0     H67213   1.026   1.834  -1.999 -1.0061 -1.8613  3.5019
  498MOL0     H67214   1.319   1.508  -2.094  0.3808 -0.0317  0.1774
  498MOL0     H67215   1.393   1.351  -1.909 -0.1653 -0.7543 -1.2761
  498MOL0     H67216   1.846   0.958  -0.336 -0.2066 -1.2189 -3.0517
  498MOL0     H67217   1.683   0.858  -0.187 -3.0506 -1.3816  1.6004
  498MOL0     H67218   1.472   0.857   0.246  0.1326  1.9132  0.3930
  498MOL0     H67219   1.299   0.796   0.399  0.2207 -3.1863 -1.1380
  498MOL0     H67220   1.139   0.712   0.510  1.8125  2.8206 -0.2994
  498MOL0     H67221   1.045   0.856   0.538 -2.4910 -1.7222  1.7986
  498MOL0     H67222   0.840   0.735   0.512 -0.2740  0.3843  0.4954
  498MOL0     H67223   0.931   0.675   0.655  1.5026  1.4249  0.3168
  498MOL0     H67224   0.893   0.539   0.384 -0.0234  2.4401 -0.6795
  498MOL0     H67225   0.860   0.457   0.540  1.1658  0.7869  2.7294
  498MOL0     H67226   1.141   0.510   0.458 -0.3877 -0.5401 -3.4214
  498MOL0     H67227   1.049   0.360   0.422 -2.0414 -1.8358  1.7951
  498MOL0     H67228   1.166   0.328   0.824 -0.3222  4.0682  0.8540
  498MOL0     H67229   0.998   0.870   0.092 -0.3285 -2.2048 -3.1878
  498MOL0     H67230   1.179   0.955  -0.054  1.0671  0.0771  0.0414
  499MOL0     O67231   3.093   0.671   1.140 -0.2696 -0.6728 -0.9438
  499MOL0     C67232   3.050   0.730   1.039  0.1087  0.1255 -0.4573
  499MOL0     O67233   3.126   0.790   0.939 -0.1861  0.2216 -0.2935
  499MOL0     C67234   3.261   0.768   0.930 -0.3002 -0.0410 -0.9439
  499MOL0     C67235   3.316   0.837   0.819 -0.3521  0.1620 -0.2698
  499MOL0     C67236   3.452   0.875   0.813  0.1098 -0.4557 -0.4817
  499MOL0     C67237   3.532   0.826   0.918 -0.0691 -0.0745  1.1086
  499MOL0     O67238   3.667   0.847   0.908  0.1230  0.6672 -0.5459
  499MOL0     C67239   3.742   0.817   1.026 -1.8385  0.2011 -0.2755
  499MOL0     C67240   3.889   0.849   0.993 -0.1619  0.1963 -0.1557
  499MOL0     C67241   3.983   0.810   1.111 -0.2802  0.1023  0.2513
  499MOL0     C67242   4.131   0.783   1.061  0.2125 -0.5010 -0.0803
  499MOL0     C67243   4.223   0.714   1.162 -0.9088  0.5638  0.0979
  499MOL0     C67244   4.358   0.674   1.097 -0.7854 -0.2036  1.1189
  499MOL0     C67245   4.446   0.603   1.200  0.8681  0.0868  0.6359
  499MOL0     C67246   4.570   0.539   1.126 -0.3463  1.1619  0.3694
  499MOL0     N67247   4.692   0.497   1.214  0.7979 -0.3634  0.9221
  499MOL0     C67248   4.681   0.453   1.347  0.0807 -0.6023 -0.3654
  499MOL0     C67249   4.807   0.441   1.383 -0.4226 -0.7219  0.4364
  499MOL0     C67250   4.855   0.375   1.508 -0.3012  0.5856  0.1639
  499MOL0     C67251   4.875   0.220   1.504 -0.7302 -0.1907  0.0416
  499MOL0     C67252   4.749   0.142   1.546  0.4972 -0.0071  0.3559
  499MOL0     C67253   4.765  -0.003   1.591  0.2031  0.6293  0.5285
  499MOL0     O67254   4.641  -0.065   1.609 -0.0702 -0.3456  0.0488
  499MOL0     C67255   4.591  -0.140   1.510  0.1392  0.7983  0.2118
  499MOL0     C67256   4.462  -0.189   1.538 -0.0880 -0.1063  0.7935
  499MOL0     C67257   4.403  -0.289   1.461  0.3596  0.0985 -0.8339
  499MOL0     C67258   4.269  -0.344   1.518  0.1363  0.9499  0.1590
  499MOL0     C67259   4.464  -0.341   1.351 -0.9384 -0.4660  0.0083
  499MOL0     C67260   4.428  -0.464   1.269 -0.1348 -0.0173 -0.7565
  499MOL0     O67261   4.496  -0.471   1.150  0.3047 -0.2996  0.2675
  499MOL0     C67262   4.471  -0.582   1.064  0.5048 -0.2640  0.1413
  499MOL0     C67263   4.420  -0.555   0.942  0.0115  0.7068  0.3007
  499MOL0     C67264   4.397  -0.654   0.841  0.8608  1.0214  0.2669
  499MOL0     C67265   4.433  -0.784   0.872 -0.8141  0.4466 -0.4672
  499MOL0     O67266   4.408  -0.881   0.785 -0.2705  0.9438 -0.7649
  499MOL0     C67267   4.392  -0.844   0.646 -1.0214  0.3825 -0.1595
  499MOL0     C67268   4.400  -0.959   0.542  0.7483  0.3179  0.2099
  499MOL0     C67269   4.328  -1.080   0.585  0.1594  0.0148  0.0867
  499MOL0     C67270   4.182  -1.072   0.582 -0.0296  0.8215 -0.4997
  499MOL0     C67271   4.110  -1.211   0.608 -0.1778  0.1056 -0.3144
  499MOL0     C67272   4.084  -1.299   0.486 -1.2858  0.2386  0.5246
  499MOL0     C67273   3.945  -1.282   0.431  0.4112  1.0846 -0.4843
  499MOL0     C67274   3.873  -1.414   0.435  0.1079 -0.3519  0.6848
  499MOL0    Cl67275   3.877  -1.493   0.600  0.2639 -0.3759  0.0605
  499MOL0     C67276   4.492  -0.810   0.996  0.4685  0.1942  0.1550
  499MOL0     C67277   4.515  -0.708   1.093  0.0451 -0.4970  0.5056
  499MOL0     O67278   4.340  -0.544   1.308  0.7278 -0.9596 -0.5741
  499MOL0     C67279   4.590  -0.274   1.316 -0.2536  0.9013 -0.1065
  499MOL0     C67280   4.648  -0.175   1.393  0.5848  0.1147  0.0459
  499MOL0     N67281   4.889   0.490   1.284 -0.4784 -1.2724  0.0325
  499MOL0     N67282   4.816   0.529   1.183 -0.0312  0.0905  0.9200
  499MOL0     C67283   3.482   0.745   1.022 -0.0658 -1.0008 -1.0941
  499MOL0     C67284   3.348   0.707   1.024  0.1088 -0.5394 -0.2009
  499MOL0     C67285   2.911   0.758   1.042  0.9176 -0.7516  0.2501
  499MOL0     C67286   2.816   0.661   1.089 -0.5174 -0.1488  0.1201
  499MOL0     C67287   2.681   0.687   1.075 -0.4427  1.5930 -0.1384
  499MOL0     C67288   2.641   0.810   1.033  0.7334  0.4244 -0.6000
  499MOL0     O67289   2.507   0.845   1.024  0.2205  0.6453 -0.5372
  499MOL0     C67290   2.407   0.747   1.023 -0.2373 -0.2812  0.1257
  499MOL0     C67291   2.278   0.820   1.069 -0.0997 -0.1662  0.1521
  499MOL0     C67292   2.240   0.948   1.002 -1.3364 -1.0126 -0.0771
  499MOL0     C67293   2.095   0.994   1.005  0.1304  0.7805 -0.3335
  499MOL0     C67294   2.050   0.967   1.139  0.2845 -1.3510 -0.0330
  499MOL0     C67295   1.996   0.940   1.244 -0.4804 -0.9178  0.6726
  499MOL0     C67296   2.723   0.913   1.000  0.2562 -0.3756  0.2439
  499MOL0     C67297   2.862   0.881   0.986 -0.2499  0.0745 -0.3217
  499MOL0     H67298   3.244   0.865   0.742 -0.4147 -0.2440 -0.3631
  499MOL0     H67299   3.490   0.929   0.727  2.5723 -1.9737 -0.4527
  499MOL0     H67300   3.702   0.891   1.096  0.4303  0.1389  1.1636
  499MOL0     H67301   3.747   0.716   1.068  2.9481  1.3998  2.7788
  499MOL0     H67302   3.919   0.793   0.903 -0.5467  0.1005 -0.2232
  499MOL0     H67303   3.893   0.958   0.982 -3.4931  0.3300 -1.1517
  499MOL0     H67304   3.994   0.894   1.181 -0.1715 -1.1009  1.7231
  499MOL0     H67305   3.945   0.726   1.170 -0.8550 -2.4346 -3.4031
  499MOL0     H67306   4.128   0.724   0.969 -2.6112  0.8071 -0.9283
  499MOL0     H67307   4.176   0.880   1.039 -0.0304 -0.7610 -1.8260
  499MOL0     H67308   4.242   0.780   1.247  1.1785 -0.5758  0.5800
  499MOL0     H67309   4.167   0.626   1.195  1.1387 -1.0504 -0.5540
  499MOL0     H67310   4.342   0.614   1.007  1.6009  0.9785 -0.1878
  499MOL0     H67311   4.415   0.763   1.069  0.2914 -0.5215  2.1611
  499MOL0     H67312   4.479   0.677   1.273 -0.3323  0.4901  0.7829
  499MOL0     H67313   4.387   0.535   1.263 -0.8034  0.9602  0.0671
  499MOL0     H67314   4.612   0.600   1.046  1.1812 -1.5738 -1.0850
  499MOL0     H67315   4.537   0.445   1.079 -0.5610  0.3673  2.0263
  499MOL0     H67316   4.593   0.422   1.401 -0.8276 -1.0882 -2.0440
  499MOL0     H67317   4.950   0.422   1.538 -0.1215 -0.6231  1.5791
  499MOL0     H67318   4.783   0.401   1.586  0.7899  0.3608  1.2793
  499MOL0     H67319   4.959   0.186   1.566  3.2468  0.9022 -4.1591
  499MOL0     H67320   4.908   0.191   1.404  1.2919 -0.9065  0.8597
  499MOL0     H67321   4.676   0.151   1.465  0.1390 -1.9314  0.4282
  499MOL0     H67322   4.694   0.197   1.623  1.1963  0.7946  0.3109
  499MOL0     H67323   4.820  -0.003   1.686 -1.0183  2.5389  1.3005
  499MOL0     H67324   4.824  -0.062   1.520 -0.2322 -2.3682  2.4673
  499MOL0     H67325   4.411  -0.148   1.625 -2.7286 -3.7495  1.1963
  499MOL0     H67326   4.198  -0.370   1.439  1.6353  0.7149 -1.1649
  499MOL0     H67327   4.297  -0.431   1.577  2.1883  2.2513  1.2300
  499MOL0     H67328   4.228  -0.267   1.585  1.3106  2.7276 -1.0691
  499MOL0     H67329   4.389  -0.452   0.925  0.0055  0.8034  0.9008
  499MOL0     H67330   4.360  -0.618   0.745  1.9265  0.0638 -0.5316
  499MOL0     H67331   4.291  -0.802   0.638 -1.6702 -1.2489 -1.1358
  499MOL0     H67332   4.463  -0.765   0.623 -1.2243  1.0867  1.4578
  499MOL0     H67333   4.363  -0.940   0.442  2.3716 -1.8616 -0.9049
  499MOL0     H67334   4.505  -0.986   0.523  1.1257  1.0359  1.1660
  499MOL0     H67335   4.376  -1.100   0.681  3.9402 -2.8056 -2.0745
  499MOL0     H67336   4.357  -1.166   0.525  2.2765 -0.7296  2.0200
  499MOL0     H67337   4.150  -0.989   0.646 -1.1678  0.4854 -0.6106
  499MOL0     H67338   4.149  -1.046   0.481  0.9235  0.5550 -0.8865
  499MOL0     H67339   4.017  -1.186   0.661 -0.3319  2.7883 -1.6828
  499MOL0     H67340   4.172  -1.272   0.675  1.4017 -0.2565 -2.0122
  499MOL0     H67341   4.155  -1.283   0.405  0.3630  1.9396  2.2255
  499MOL0     H67342   4.103  -1.405   0.507  3.6010 -0.5393 -5.2746
  499MOL0     H67343   3.952  -1.228   0.336 -1.5504  0.5797 -0.9551
  499MOL0     H67344   3.892  -1.216   0.500  2.0082  2.8985 -0.8917
  499MOL0     H67345   3.921  -1.477   0.359 -0.5238  0.6204 -0.5491
  499MOL0     H67346   3.766  -1.408   0.413 -0.3987 -3.4926  1.6974
  499MOL0     H67347   4.521  -0.913   1.013  0.7039  0.2028 -0.1953
  499MOL0     H67348   4.557  -0.715   1.193 -0.7950  0.3064  0.9344
  499MOL0     H67349   4.640  -0.279   1.220 -0.6268  2.7614 -0.4401
  499MOL0     H67350   4.740  -0.137   1.347  1.2929 -1.3640  0.1773
  499MOL0     H67351   3.538   0.701   1.104  2.3742 -0.1304 -2.1930
  499MOL0     H67352   3.312   0.643   1.105 -0.0408  0.0198  0.1838
  499MOL0     H67353   2.855   0.573   1.139 -0.3690 -0.9367 -1.3069
  499MOL0     H67354   2.615   0.604   1.102  3.0118 -0.8593  1.5734
  499MOL0     H67355   2.392   0.717   0.919 -0.2228  0.6336 -0.1539
  499MOL0     H67356   2.415   0.661   1.090 -2.5521  0.7608  1.8577
  499MOL0     H67357   2.293   0.837   1.176  1.4547 -2.5040  0.3640
  499MOL0     H67358   2.188   0.760   1.051 -4.0816  4.9684  0.3622
  499MOL0     H67359   2.276   0.951   0.899  0.6269  0.2104  0.5783
  499MOL0     H67360   2.299   1.027   1.049  0.4552 -1.7411 -1.0042
  499MOL0     H67361   2.028   0.942   0.936 -0.0745  0.8914 -0.2159
  499MOL0     H67362   2.106   1.102   0.994  0.8901  1.0314  2.2744
  499MOL0     H67363   1.958   0.926   1.344  1.2345 -1.6140  1.2757
  499MOL0     H67364   2.695   1.015   0.980 -2.2360 -0.5315  2.4739
  499MOL0     H67365   2.922   0.965   0.952  0.8026  0.5374  2.4342
  500MOL0     O67366   4.283   5.005   8.546  0.1161  0.1334 -0.2922
  500MOL0     C67367   4.302   5.038   8.431 -0.3765 -0.5353  0.5417
  500MOL0     O67368   4.375   4.962   8.338  0.0815 -0.0043 -0.8032
  500MOL0     C67369   4.413   4.839   8.388  0.6121 -1.6654 -0.1387
  500MOL0     C67370   4.547   4.806   8.411 -0.3410 -0.5514 -0.1364
  500MOL0     C67371   4.582   4.677   8.459 -0.0206  0.1843  0.1094
  500MOL0     C67372   4.493   4.570   8.466 -0.4111 -0.7848  0.2551
  500MOL0     O67373   4.535   4.441   8.485  0.2136  0.5706  0.4040
  500MOL0     C67374   4.668   4.400   8.474  0.8728  0.4283 -0.5947
  500MOL0     C67375   4.685   4.273   8.393 -0.1306 -0.9523  0.1525
  500MOL0     C67376   4.676   4.307   8.240  0.6043 -0.3956 -0.2827
  500MOL0     C67377   4.655   4.185   8.147  0.4937  0.1639  0.4638
  500MOL0     C67378   4.607   4.232   8.006  0.0336  1.6072 -0.1484
  500MOL0     C67379   4.557   4.116   7.929 -1.3965  0.3488 -0.1704
  500MOL0     C67380   4.647   3.997   7.894 -0.5382 -0.1450  0.0334
  500MOL0     C67381   4.783   4.034   7.832  1.5555  0.4944 -0.5921
  500MOL0     N67382   4.851   3.926   7.768 -0.3718 -0.6348 -0.4158
  500MOL0     C67383   4.898   3.909   7.638 -0.8743  0.7431 -0.5644
  500MOL0     C67384   4.985   3.801   7.648 -0.5064 -0.3717  0.7604
  500MOL0     C67385   5.044   3.743   7.529 -1.1859 -0.2565  0.1538
  500MOL0     C67386   4.995   3.594   7.513  0.4776 -0.1608  0.2885
  500MOL0     C67387   5.069   3.528   7.393  0.7736 -0.2538  0.0827
  500MOL0     C67388   5.216   3.488   7.425 -0.0696  0.5488 -0.2176
  500MOL0     O67389   5.251   3.396   7.319  0.2497  0.3769 -0.1407
  500MOL0     C67390   5.378   3.345   7.307  0.1685  1.0847 -1.1129
  500MOL0     C67391   5.410   3.253   7.213  0.9628 -0.2531  0.6309
  500MOL0     C67392   5.546   3.213   7.207  0.5170 -0.2124 -0.4295
  500MOL0     C67393   5.582   3.117   7.089 -0.2237 -0.9872 -0.2440
  500MOL0     C67394   5.642   3.253   7.294 -0.0267  0.1044  0.2277
  500MOL0     C67395   5.779   3.194   7.306 -0.3813  0.5330 -0.7088
  500MOL0     O67396   5.895   3.272   7.283  0.6845 -0.0780  0.0710
  500MOL0     C67397   6.014   3.204   7.268 -0.6789  0.4182  0.3430
  500MOL0     C67398   6.039   3.158   7.135 -0.4110 -0.1680  0.5898
  500MOL0     C67399   6.157   3.101   7.098  0.4025 -0.7745  0.2774
  500MOL0     C67400   6.243   3.076   7.205  0.6043  0.0764  0.1575
  500MOL0     O67401   6.360   3.013   7.182  0.5742 -0.5804  0.4944
  500MOL0     C67402   6.354   2.898   7.097 -0.5776 -0.4064 -1.7521
  500MOL0     C67403   6.384   2.771   7.187  0.4237 -0.1755  0.5758
  500MOL0     C67404   6.501   2.679   7.151 -1.2920 -0.5869 -0.3881
  500MOL0     C67405   6.493   2.554   7.232 -1.0417  0.9587 -0.4869
  500MOL0     C67406   6.616   2.464   7.206  0.1724  0.0968  0.6887
  500MOL0     C67407   6.606   2.323   7.273 -0.0067 -0.6947  0.7200
  500MOL0     C67408   6.711   2.227   7.214 -0.5203  0.3912  1.0778
  500MOL0     C67409   6.701   2.088   7.282 -0.3904 -1.1232 -0.6010
  500MOL0    Cl67410   6.822   1.981   7.214  0.5712 -0.5818 -0.4039
  500MOL0     C67411   6.227   3.124   7.339  0.1488  0.6238 -0.3015
  500MOL0     C67412   6.109   3.184   7.367  0.3862  0.1177 -0.1645
  500MOL0     O67413   5.780   3.074   7.335  0.0234  0.2297  0.4753
  500MOL0     C67414   5.608   3.348   7.390  1.3485  0.0898  0.2421
  500MOL0     C67415   5.477   3.395   7.398 -1.6185 -0.1000 -0.2020
  500MOL0     N67416   4.980   3.741   7.766  0.7456  0.3772 -0.3048
  500MOL0     N67417   4.899   3.818   7.839  0.0249  0.2746 -0.6652
  500MOL0     C67418   4.358   4.611   8.426  0.5947 -0.1129 -0.7259
  500MOL0     C67419   4.323   4.746   8.402 -0.3045  0.6649 -0.6653
  500MOL0     C67420   4.231   5.161   8.380  0.0852 -0.4351  0.5530
  500MOL0     C67421   4.150   5.248   8.456 -0.1714  0.5916  0.4541
  500MOL0     C67422   4.087   5.366   8.404 -0.4168 -0.3291 -0.9884
  500MOL0     C67423   4.093   5.401   8.267  1.1558  0.6610  0.1440
  500MOL0     O67424   4.038   5.518   8.206  0.0433 -0.0342  0.4460
  500MOL0     C67425   3.933   5.592   8.285 -0.4087 -0.1629 -0.0543
  500MOL0     C67426   3.893   5.718   8.194 -0.5019  0.6543 -0.2199
  500MOL0     C67427   3.796   5.818   8.267 -0.5633  0.7616 -0.2777
  500MOL0     C67428   3.756   5.935   8.177  0.5396 -0.4378  0.0537
  500MOL0     C67429   3.653   6.003   8.257  0.6610 -0.9374  0.4584
  500MOL0     C67430   3.550   6.064   8.299  0.3630 -0.0245  0.4712
  500MOL0     C67431   4.147   5.302   8.186  0.6195 -0.1871  0.5922
  500MOL0     C67432   4.218   5.190   8.236  1.1025 -1.1066 -0.6075
  500MOL0     H67433   4.630   4.872   8.389 -3.0682  2.2792 -3.0314
  500MOL0     H67434   4.685   4.658   8.491 -1.0190 -3.2312  1.7887
  500MOL0     H67435   4.732   4.476   8.427 -2.6622  2.3118 -2.7848
  500MOL0     H67436   4.703   4.376   8.575  0.1418 -2.3205 -0.9056
  500MOL0     H67437   4.786   4.235   8.410  0.7780  0.7141 -1.1338
  500MOL0     H67438   4.609   4.196   8.408 -1.8466  0.3835 -1.2437
  500MOL0     H67439   4.593   4.377   8.227  2.3928  1.9058  0.1749
  500MOL0     H67440   4.764   4.362   8.207  2.1619 -2.7597 -0.2791
  500MOL0     H67441   4.747   4.126   8.146  0.0424 -0.6909  2.8899
  500MOL0     H67442   4.578   4.125   8.198  2.4927 -1.2361  1.9965
  500MOL0     H67443   4.531   4.309   8.018 -2.5544 -0.4855 -1.8185
  500MOL0     H67444   4.678   4.277   7.937 -1.5407 -0.4675 -3.4208
  500MOL0     H67445   4.466   4.078   7.976 -0.8133  0.7101  1.3389
  500MOL0     H67446   4.520   4.155   7.834 -0.0944 -3.0404 -2.2489
  500MOL0     H67447   4.674   3.926   7.973  0.7274 -1.3942 -1.4542
  500MOL0     H67448   4.590   3.933   7.824  0.0151 -3.4428  2.3564
  500MOL0     H67449   4.855   4.075   7.904  2.2737 -0.6999 -0.5942
  500MOL0     H67450   4.762   4.112   7.758 -0.4445 -0.3805 -1.0176
  500MOL0     H67451   4.885   3.972   7.550 -0.4767 -0.0600 -1.2069
  500MOL0     H67452   5.013   3.800   7.441 -2.9081  0.4067  1.1474
  500MOL0     H67453   5.152   3.744   7.550 -1.5819  1.3257  2.4899
  500MOL0     H67454   4.887   3.598   7.493  0.6088  0.3878 -0.3249
  500MOL0     H67455   5.012   3.538   7.606  0.7547 -0.2538  0.1824
  500MOL0     H67456   5.069   3.589   7.302  2.8804  0.9421  0.8047
  500MOL0     H67457   5.008   3.438   7.379 -2.3924  1.7370  0.0012
  500MOL0     H67458   5.218   3.435   7.521 -1.3195 -2.6665 -1.8246
  500MOL0     H67459   5.277   3.577   7.447  0.4739 -0.6515  3.9063
  500MOL0     H67460   5.332   3.214   7.148  2.4506  1.7048 -2.5794
  500MOL0     H67461   5.537   3.018   7.104  2.0440 -2.0134  0.2379
  500MOL0     H67462   5.561   3.167   6.994  1.6632 -0.4449 -0.4121
  500MOL0     H67463   5.689   3.097   7.085  0.0278 -0.2698  1.9065
  500MOL0     H67464   5.965   3.193   7.063  1.6138  1.8017 -0.6951
  500MOL0     H67465   6.183   3.086   6.994 -2.2308 -0.7881 -0.4502
  500MOL0     H67466   6.262   2.885   7.039 -0.2052 -1.0083 -2.2155
  500MOL0     H67467   6.441   2.899   7.032  1.2686  1.2380  0.5636
  500MOL0     H67468   6.372   2.794   7.293  4.1648 -3.1715  1.8577
  500MOL0     H67469   6.294   2.713   7.166 -3.3437  4.7605  1.2506
  500MOL0     H67470   6.599   2.722   7.175 -0.0528 -2.9256 -1.0418
  500MOL0     H67471   6.495   2.667   7.043  1.4682  1.0117 -0.8220
  500MOL0     H67472   6.488   2.581   7.338  0.6435 -0.0057 -0.1249
  500MOL0     H67473   6.412   2.491   7.194 -0.6071  0.8984 -1.3253
  500MOL0     H67474   6.706   2.517   7.236  1.0642 -1.9891  1.9123
  500MOL0     H67475   6.629   2.444   7.099  1.7454 -2.4032  1.2689
  500MOL0     H67476   6.606   2.334   7.382 -0.3311  0.6724  0.6029
  500MOL0     H67477   6.501   2.301   7.250  0.3158 -1.1587 -0.3978
  500MOL0     H67478   6.817   2.253   7.212  1.1067 -5.0072 -1.2475
  500MOL0     H67479   6.677   2.212   7.111 -1.2581  0.5787  1.2909
  500MOL0     H67480   6.607   2.032   7.287 -0.6600 -0.9126 -2.7362
  500MOL0     H67481   6.733   2.094   7.387  0.8961 -3.5624 -0.7599
  500MOL0     H67482   6.300   3.087   7.410 -0.6209  1.4313  0.9561
  500MOL0     H67483   6.120   3.220   7.468  1.3466 -1.9189  0.5124
  500MOL0     H67484   5.681   3.389   7.459  0.9348  2.7132 -0.7718
  500MOL0     H67485   5.473   3.477   7.469  2.2194  1.0576 -1.0546
  500MOL0     H67486   4.279   4.537   8.425  2.2637 -1.9588 -1.4859
  500MOL0     H67487   4.219   4.774   8.392 -0.4764 -0.0631 -0.9764
  500MOL0     H67488   4.141   5.223   8.561  3.4512 -0.9311  0.5340
  500MOL0     H67489   4.028   5.422   8.475  0.5049  1.0387 -1.2565
  500MOL0     H67490   3.851   5.522   8.307 -0.6001 -0.3435 -1.2395
  500MOL0     H67491   3.972   5.626   8.381 -0.0117 -0.9030  0.0532
  500MOL0     H67492   3.847   5.690   8.099  3.1864 -0.8827 -1.7281
  500MOL0     H67493   3.985   5.769   8.166  0.5668 -2.2043 -2.4077
  500MOL0     H67494   3.846   5.856   8.357 -0.4192  0.6787 -0.3235
  500MOL0     H67495   3.708   5.762   8.301  0.2776  0.1598  0.9904
  500MOL0     H67496   3.725   5.896   8.080  1.3640 -4.1105  1.1109
  500MOL0     H67497   3.834   6.009   8.161 -0.2119  0.1793 -0.8941
  500MOL0     H67498   3.460   6.117   8.321  0.2614  0.5721 -1.1921
  500MOL0     H67499   4.164   5.330   8.083  1.0912  2.2545  1.2613
  500MOL0     H67500   4.268   5.129   8.162 -3.0678 -5.1243 -0.5379
  501MOL0     O67501   9.433   8.336   3.625  0.5750 -0.4939  0.4814
  501MOL0     C67502   9.513   8.294   3.705  0.2310 -0.8082 -0.1056
  501MOL0     O67503   9.511   8.175   3.770  0.3614 -0.2089 -0.4777
  501MOL0     C67504   9.411   8.075   3.754  0.3674  0.6252  0.2357
  501MOL0     C67505   9.326   8.055   3.646 -0.6522 -0.7866  0.5030
  501MOL0     C67506   9.237   7.947   3.645  0.0014  0.1233 -0.2353
  501MOL0     C67507   9.227   7.852   3.749 -0.1177 -0.4716  0.2585
  501MOL0     O67508   9.133   7.760   3.735 -0.0940  0.3403 -0.1581
  501MOL0     C67509   9.087   7.670   3.852 -0.2562 -0.4098  1.2919
  501MOL0     C67510   9.001   7.550   3.790 -0.0484 -0.9656 -0.5202
  501MOL0     C67511   9.099   7.456   3.710 -0.5434  0.7901 -0.1473
  501MOL0     C67512   9.159   7.351   3.802 -0.1953 -0.6941 -0.4125
  501MOL0     C67513   9.227   7.242   3.729 -0.6959 -0.6498 -0.2960
  501MOL0     C67514   9.338   7.165   3.817  0.5844  0.9737  0.5763
  501MOL0     C67515   9.402   7.060   3.727 -0.3931  0.1785  0.5684
  501MOL0     C67516   9.492   6.960   3.802  0.6025  0.0145  0.2174
  501MOL0     N67517   9.412   6.878   3.890  0.4412 -0.0268 -0.0274
  501MOL0     C67518   9.321   6.778   3.852  0.1099 -0.3314  1.0429
  501MOL0     C67519   9.291   6.719   3.972 -0.0328  0.8524 -0.0444
  501MOL0     C67520   9.210   6.598   3.993 -0.1297 -0.3203  0.2459
  501MOL0     C67521   9.059   6.619   3.979 -0.6210 -0.1674  0.5920
  501MOL0     C67522   8.973   6.489   3.981 -0.4281 -0.3233  1.1843
  501MOL0     C67523   8.986   6.397   3.862  0.1063  0.7244 -0.4376
  501MOL0     O67524   8.884   6.297   3.877  0.3638  0.0059  0.3346
  501MOL0     C67525   8.757   6.315   3.825  0.4018 -1.0973 -0.0769
  501MOL0     C67526   8.665   6.214   3.834  0.4240 -0.2854  1.0353
  501MOL0     C67527   8.528   6.221   3.793 -0.7281 -0.0670  0.2208
  501MOL0     C67528   8.438   6.102   3.811  0.2938  0.5969  0.1173
  501MOL0     C67529   8.487   6.335   3.737 -1.0100 -0.3514  0.2920
  501MOL0     C67530   8.354   6.377   3.681 -0.0252  0.8034 -0.0085
  501MOL0     O67531   8.341   6.490   3.608  0.2996  0.2908  0.0836
  501MOL0     C67532   8.228   6.516   3.536  0.3029 -0.4832 -0.9526
  501MOL0     C67533   8.125   6.579   3.603  1.1112  0.0203  0.7796
  501MOL0     C67534   8.008   6.617   3.529 -0.6151  0.0811 -0.4746
  501MOL0     C67535   7.987   6.559   3.406 -0.7517 -0.2373 -0.3557
  501MOL0     O67536   7.872   6.600   3.350 -0.2029 -0.0968  0.4985
  501MOL0     C67537   7.840   6.555   3.217  0.4045  0.3169  1.1047
  501MOL0     C67538   7.706   6.603   3.167 -0.1302  1.5880  0.0467
  501MOL0     C67539   7.709   6.607   3.016 -1.1003  1.1424 -0.1143
  501MOL0     C67540   7.591   6.694   2.960  0.0906 -0.4233 -0.0617
  501MOL0     C67541   7.612   6.719   2.800  0.5858 -0.3529 -1.2855
  501MOL0     C67542   7.488   6.782   2.736 -1.4872 -0.2131 -0.0903
  501MOL0     C67543   7.536   6.827   2.596  0.1115  0.1472  0.3592
  501MOL0     C67544   7.420   6.848   2.494 -0.1828  0.1904 -0.1048
  501MOL0    Cl67545   7.474   6.900   2.336  0.4541  0.1283  0.4774
  501MOL0     C67546   8.085   6.483   3.347  0.7557  0.0084 -1.6278
  501MOL0     C67547   8.208   6.467   3.409  0.3839 -0.1126 -0.5068
  501MOL0     O67548   8.258   6.304   3.698  0.3473  0.2667 -0.0662
  501MOL0     C67549   8.577   6.447   3.724 -0.2230  0.5594  0.6471
  501MOL0     C67550   8.710   6.436   3.763 -0.1661  0.6422 -0.0823
  501MOL0     N67551   9.377   6.759   4.072  0.2390 -1.0723 -0.1226
  501MOL0     N67552   9.434   6.860   4.018 -0.0234  0.5436  0.3326
  501MOL0     C67553   9.311   7.869   3.861 -0.3038  0.7011 -0.2585
  501MOL0     C67554   9.389   7.984   3.864  0.6599 -0.3021  0.3561
  501MOL0     C67555   9.614   8.384   3.748  0.0630 -1.1896  0.8186
  501MOL0     C67556   9.676   8.367   3.877 -0.1920  0.0813  0.4243
  501MOL0     C67557   9.764   8.470   3.930  0.2044  0.1804  0.8824
  501MOL0     C67558   9.807   8.568   3.840  0.9111 -0.4424 -0.1952
  501MOL0     O67559   9.890   8.671   3.879  0.9821  0.6203  0.2378
  501MOL0     C67560   9.945   8.666   4.013  0.2684  0.1588 -0.6021
  501MOL0     C67561  10.054   8.757   4.006 -0.2111  0.0355 -0.1213
  501MOL0     C67562  10.020   8.908   3.979  0.9963 -0.6073 -0.6833
  501MOL0     C67563  10.147   8.990   3.983 -0.0639 -0.3236 -0.2868
  501MOL0     C67564  10.200   8.975   4.123 -0.2080  0.1449  0.1114
  501MOL0     C67565  10.241   8.966   4.234  0.6414 -0.9137  0.2722
  501MOL0     C67566   9.747   8.576   3.715 -0.7155  0.3641 -0.0853
  501MOL0     C67567   9.651   8.494   3.667 -0.1122  0.4127  0.4385
  501MOL0     H67568   9.345   8.110   3.555 -0.4628  0.0389  1.0253
  501MOL0     H67569   9.170   7.934   3.560 -0.4991  0.5031  0.0983
  501MOL0     H67570   9.175   7.635   3.908 -1.9879 -3.0320  2.5337
  501MOL0     H67571   9.024   7.722   3.925  0.7368  1.3531  0.9626
  501MOL0     H67572   8.954   7.499   3.874 -1.1437  0.3030 -0.3366
  501MOL0     H67573   8.918   7.584   3.729 -1.1232  0.1098  1.4550
  501MOL0     H67574   9.051   7.397   3.632 -1.5223 -0.9385  1.6795
  501MOL0     H67575   9.172   7.521   3.659  0.4779 -0.6740 -0.6149
  501MOL0     H67576   9.230   7.408   3.862 -2.7334 -0.5380  2.7524
  501MOL0     H67577   9.074   7.305   3.854 -0.2228 -1.0411 -0.7615
  501MOL0     H67578   9.154   7.173   3.686  1.2038 -2.8245 -0.1974
  501MOL0     H67579   9.281   7.296   3.651 -0.6102  2.0029  1.4602
  501MOL0     H67580   9.402   7.241   3.864 -2.1870  3.1232  1.1167
  501MOL0     H67581   9.279   7.123   3.899  2.2776 -0.5409  1.0897
  501MOL0     H67582   9.323   7.008   3.672 -1.9198 -2.1048  4.5069
  501MOL0     H67583   9.469   7.105   3.653 -0.6125  0.0101  0.2633
  501MOL0     H67584   9.562   7.018   3.862  0.8198 -0.0608  0.0360
  501MOL0     H67585   9.544   6.890   3.736  2.4359  0.7788  0.7888
  501MOL0     H67586   9.291   6.750   3.752 -4.8351  0.4670  2.0489
  501MOL0     H67587   9.249   6.519   3.928 -0.5250 -1.6856  1.5929
  501MOL0     H67588   9.226   6.561   4.095 -1.5753 -0.3185  0.4984
  501MOL0     H67589   9.052   6.667   3.881  0.5557  0.6086  0.8717
  501MOL0     H67590   9.034   6.688   4.060  1.1070  2.1455 -0.7276
  501MOL0     H67591   8.870   6.518   4.003 -1.0018 -1.7197  0.4216
  501MOL0     H67592   9.007   6.432   4.068  0.8821 -1.4206 -0.0115
  501MOL0     H67593   9.080   6.343   3.859  0.8518  1.9924 -0.6305
  501MOL0     H67594   8.981   6.460   3.773  0.5547  0.6810 -0.4926
  501MOL0     H67595   8.699   6.122   3.880 -2.6985 -0.4951  3.2507
  501MOL0     H67596   8.491   6.045   3.887 -0.8178 -1.9776 -0.9145
  501MOL0     H67597   8.342   6.126   3.857 -1.0213 -0.8743 -1.6792
  501MOL0     H67598   8.421   6.044   3.719 -0.5386  0.5328  0.3040
  501MOL0     H67599   8.125   6.604   3.708  2.9989  3.1707  0.1780
  501MOL0     H67600   7.932   6.673   3.583  0.2359  0.9544 -0.1447
  501MOL0     H67601   7.927   6.586   3.158  1.2789  0.1709  2.2903
  501MOL0     H67602   7.839   6.446   3.207 -0.8564  0.4706 -1.5853
  501MOL0     H67603   7.634   6.529   3.205  0.0158  0.2034 -2.1987
  501MOL0     H67604   7.686   6.701   3.212  2.3252  1.0810  2.5220
  501MOL0     H67605   7.706   6.505   2.977 -0.6599  0.9245  0.4097
  501MOL0     H67606   7.803   6.643   2.971 -0.6784 -0.5489 -0.6612
  501MOL0     H67607   7.507   6.627   2.981 -0.1667 -0.6743 -1.7167
  501MOL0     H67608   7.586   6.785   3.020  1.0955  0.0638 -0.6864
  501MOL0     H67609   7.623   6.627   2.742  0.3824  1.3977 -4.2706
  501MOL0     H67610   7.701   6.782   2.791 -0.0410  0.3799 -2.5998
  501MOL0     H67611   7.403   6.713   2.736 -1.1551 -0.6479 -0.8367
  501MOL0     H67612   7.463   6.868   2.798 -0.1661 -0.8847  1.4256
  501MOL0     H67613   7.602   6.749   2.558  1.7932  1.3249  0.7520
  501MOL0     H67614   7.596   6.918   2.604 -1.8001  1.4112  1.1505
  501MOL0     H67615   7.352   6.919   2.542  1.0406  0.1463  1.7853
  501MOL0     H67616   7.364   6.755   2.476 -0.9267  0.0431  2.5686
  501MOL0     H67617   8.078   6.444   3.246  0.3755  0.4179 -1.7610
  501MOL0     H67618   8.287   6.406   3.367  2.5231  2.1942 -0.0620
  501MOL0     H67619   8.555   6.544   3.682 -0.3310  0.7778  1.1882
  501MOL0     H67620   8.777   6.519   3.743  1.1935  0.7225  3.9562
  501MOL0     H67621   9.306   7.814   3.954 -0.4029  3.3595  1.4418
  501MOL0     H67622   9.438   8.012   3.956  1.4518 -0.5368  0.0079
  501MOL0     H67623   9.656   8.278   3.936 -0.6561 -2.1106 -2.7934
  501MOL0     H67624   9.819   8.449   4.021  2.8980 -0.9522 -0.9007
  501MOL0     H67625   9.863   8.707   4.072 -2.0941 -0.2830 -3.3923
  501MOL0     H67626   9.971   8.565   4.047 -1.2222  0.1707  0.7134
  501MOL0     H67627  10.123   8.723   3.928 -2.2352 -2.0008 -1.1323
  501MOL0     H67628  10.119   8.747   4.093  2.1053 -0.0678 -1.7737
  501MOL0     H67629   9.943   8.945   4.048  1.4108  0.5203 -0.8079
  501MOL0     H67630   9.976   8.918   3.880  1.2678  3.6555 -0.5468
  501MOL0     H67631  10.129   9.092   3.948 -1.3332 -0.3379  0.2628
  501MOL0     H67632  10.216   8.959   3.905  0.2072  0.1284 -0.2329
  501MOL0     H67633  10.243   8.948   4.340 -2.9178  4.0580  1.5765
  501MOL0     H67634   9.788   8.655   3.652  0.1588 -0.8309 -1.0652
  501MOL0     H67635   9.598   8.507   3.573 -0.3855 -0.1705  0.5036
  502MOL0     O67636   8.791   2.372  10.098 -0.0177 -0.3021  1.3877
  502MOL0     C67637   8.752   2.388   9.982  0.3922  0.4698  0.3711
  502MOL0     O67638   8.757   2.505   9.908  0.4842 -0.9060  0.3361
  502MOL0     C67639   8.812   2.616   9.965  0.3079 -0.2637 -0.6695
  502MOL0     C67640   8.765   2.735   9.912  0.1475 -0.1668  0.4437
  502MOL0     C67641   8.809   2.862   9.956 -0.0776 -0.4012  0.5456
  502MOL0     C67642   8.898   2.867  10.063 -0.3394  0.7263 -0.8601
  502MOL0     O67643   8.916   2.984  10.121 -0.7309 -0.0404  0.6006
  502MOL0     C67644   8.996   3.068  10.041 -0.3543 -0.3278 -0.3808
  502MOL0     C67645   9.106   3.129  10.123 -0.6941 -0.3817 -0.2729
  502MOL0     C67646   9.189   3.015  10.178 -0.5845 -0.4679  0.1437
  502MOL0     C67647   9.289   3.074  10.290  0.5737 -0.0369  0.7281
  502MOL0     C67648   9.362   2.958  10.343 -0.2606  0.3206  0.0811
  502MOL0     C67649   9.454   2.997  10.452  0.7392  0.4297  0.5608
  502MOL0     C67650   9.567   2.903  10.478 -0.2038  0.5796 -0.7020
  502MOL0     C67651   9.664   2.957  10.584 -0.4522 -0.2229 -0.8243
  502MOL0     N67652   9.620   2.948  10.724  0.5801  0.3746 -0.5175
  502MOL0     C67653   9.523   3.026  10.783  1.0464 -0.5848 -0.7671
  502MOL0     C67654   9.524   3.009  10.914  0.4848 -1.0966 -0.6351
  502MOL0     C67655   9.429   3.068  11.024  0.0610 -0.1062 -0.0189
  502MOL0     C67656   9.282   3.052  11.007 -0.3735 -0.2557  0.5602
  502MOL0     C67657   9.192   3.058  11.133 -0.4992 -0.1666 -0.8900
  502MOL0     C67658   9.043   3.055  11.099 -1.4035  1.2467  1.0032
  502MOL0     O67659   9.024   2.930  11.030 -0.0734  0.3582 -0.2489
  502MOL0     C67660   8.931   2.844  11.084 -0.3138 -0.3925  0.4417
  502MOL0     C67661   8.803   2.846  11.018  0.9415 -0.2756 -0.2848
  502MOL0     C67662   8.711   2.763  11.059  0.3308  0.1062 -0.2262
  502MOL0     C67663   8.580   2.776  10.981  0.5002  0.5129  0.3990
  502MOL0     C67664   8.733   2.676  11.167  0.4549 -0.4436 -1.1757
  502MOL0     C67665   8.629   2.583  11.208 -0.6541 -0.0875  0.4282
  502MOL0     O67666   8.617   2.573  11.336 -0.2748 -0.0653 -0.2893
  502MOL0     C67667   8.533   2.479  11.391 -0.1699 -0.5817  0.1887
  502MOL0     C67668   8.404   2.494  11.377  0.5616  0.1053 -0.0305
  502MOL0     C67669   8.315   2.404  11.439 -0.0532  0.1915 -0.5207
  502MOL0     C67670   8.363   2.307  11.523 -0.3231  0.1052  0.1696
  502MOL0     O67671   8.287   2.213  11.593  0.3255  0.0631 -0.1397
  502MOL0     C67672   8.325   2.202  11.736  0.3299 -0.1112 -0.1389
  502MOL0     C67673   8.207   2.252  11.809 -0.3244 -0.0182 -0.3356
  502MOL0     C67674   8.221   2.214  11.951 -0.2608 -0.0446 -0.1269
  502MOL0     C67675   8.110   2.259  12.041 -0.2944 -0.9306  0.2309
  502MOL0     C67676   8.144   2.262  12.192 -0.2456 -0.4325  0.2963
  502MOL0     C67677   8.141   2.110  12.244 -0.1786 -0.6536  0.4340
  502MOL0     C67678   8.028   2.004  12.205  0.4286  0.2996 -0.1278
  502MOL0     C67679   8.022   1.870  12.288 -0.1894 -0.1892 -0.3949
  502MOL0    Cl67680   8.148   1.754  12.240  0.0950 -0.1108  0.9119
  502MOL0     C67681   8.502   2.294  11.542 -0.1336 -0.2931  0.5851
  502MOL0     C67682   8.579   2.388  11.483 -0.3030  0.5947 -0.1767
  502MOL0     O67683   8.570   2.517  11.128  0.1633  0.3513 -0.5992
  502MOL0     C67684   8.865   2.670  11.227  1.7190  0.0704 -0.3171
  502MOL0     C67685   8.958   2.754  11.182 -0.8660  0.0620  0.2078
  502MOL0     N67686   9.636   2.933  10.939 -0.6065 -0.3418 -0.1299
  502MOL0     N67687   9.693   2.896  10.829  0.0214  0.2357 -0.4705
  502MOL0     C67688   8.937   2.740  10.130  0.2188  0.2041  0.1575
  502MOL0     C67689   8.899   2.624  10.077  0.8053  0.1145 -0.5340
  502MOL0     C67690   8.684   2.274   9.925 -0.5034 -0.6383 -0.3817
  502MOL0     C67691   8.618   2.299   9.807 -0.2187 -0.4300  0.2566
  502MOL0     C67692   8.552   2.190   9.756 -0.1585  1.2321 -1.0429
  502MOL0     C67693   8.549   2.063   9.813 -0.3743  0.4086  1.0346
  502MOL0     O67694   8.464   1.964   9.767  0.3569 -0.0482  0.5740
  502MOL0     C67695   8.352   1.997   9.679 -0.2163 -0.1100  0.2487
  502MOL0     C67696   8.282   1.862   9.638 -0.2293  0.5140 -0.1533
  502MOL0     C67697   8.372   1.797   9.528  0.1121  1.0205 -0.3234
  502MOL0     C67698   8.295   1.694   9.437  0.2143 -0.7590 -0.4833
  502MOL0     C67699   8.207   1.607   9.517 -0.7994 -0.2798 -0.8294
  502MOL0     C67700   8.144   1.526   9.577 -0.3727  0.0280 -0.4429
  502MOL0     C67701   8.620   2.036   9.929 -0.1795  0.2263 -1.0354
  502MOL0     C67702   8.692   2.146   9.979 -1.2284  0.2474  0.4125
  502MOL0     H67703   8.705   2.747   9.823 -0.5156  0.1277  0.9250
  502MOL0     H67704   8.766   2.952   9.913 -3.5006 -1.6741  0.9623
  502MOL0     H67705   9.040   3.017   9.955 -2.0754 -2.8621  0.1339
  502MOL0     H67706   8.934   3.148   9.999 -3.8375 -2.3122  0.6157
  502MOL0     H67707   9.159   3.191  10.051 -2.4221  1.4520 -0.0272
  502MOL0     H67708   9.071   3.190  10.207  2.7196 -0.5420  1.4343
  502MOL0     H67709   9.136   2.926  10.212  0.7107 -1.8352 -1.2459
  502MOL0     H67710   9.241   2.988  10.085 -0.1026  0.3777  0.1548
  502MOL0     H67711   9.358   3.139  10.235  1.2688  0.3900  2.0716
  502MOL0     H67712   9.231   3.110  10.375  2.4731 -0.0422  2.1014
  502MOL0     H67713   9.304   2.874  10.383  1.3856 -0.8727  0.0545
  502MOL0     H67714   9.419   2.919  10.258 -1.3411 -1.9551  0.3220
  502MOL0     H67715   9.498   3.089  10.411 -1.0622  0.3396 -1.8167
  502MOL0     H67716   9.390   3.027  10.535 -0.1675  0.7445 -0.2349
  502MOL0     H67717   9.523   2.808  10.510  1.6699  0.2557  1.1469
  502MOL0     H67718   9.627   2.884  10.389 -4.2126 -1.3623 -3.3207
  502MOL0     H67719   9.681   3.060  10.552 -2.5719 -0.1556 -1.9326
  502MOL0     H67720   9.760   2.904  10.585 -0.5990 -0.5027  0.2467
  502MOL0     H67721   9.442   3.077  10.733  0.7229  0.8343  1.0786
  502MOL0     H67722   9.459   3.048  11.128  3.9038 -0.3499 -1.0452
  502MOL0     H67723   9.456   3.174  11.013 -1.9720  0.3790 -0.7905
  502MOL0     H67724   9.258   2.955  10.962  1.8647 -1.7728  2.4027
  502MOL0     H67725   9.254   3.124  10.929  4.3722  0.3011 -0.9235
  502MOL0     H67726   9.209   3.138  11.205  0.4699  0.1275 -1.4243
  502MOL0     H67727   9.220   2.968  11.190  4.2405  1.6043  0.0797
  502MOL0     H67728   9.015   3.143  11.040  0.9711  1.7690  0.5497
  502MOL0     H67729   8.988   3.064  11.193  0.8145  0.4000  2.4700
  502MOL0     H67730   8.789   2.919  10.939  2.8648 -0.6931 -1.0935
  502MOL0     H67731   8.569   2.693  10.912  2.0946  0.7424 -0.1642
  502MOL0     H67732   8.493   2.763  11.047  2.2637 -2.2218  2.3453
  502MOL0     H67733   8.569   2.870  10.925 -0.8635 -2.5046 -5.0555
  502MOL0     H67734   8.359   2.574  11.319 -0.5004  0.1722  0.8540
  502MOL0     H67735   8.207   2.402  11.428 -0.3094 -3.7664  0.8994
  502MOL0     H67736   8.353   2.098  11.755  0.2751 -0.1956 -0.5015
  502MOL0     H67737   8.417   2.258  11.756  0.9436 -1.1759  0.0552
  502MOL0     H67738   8.185   2.359  11.801 -0.9173  0.2681  3.5277
  502MOL0     H67739   8.114   2.200  11.783 -0.5251 -1.7340  3.2917
  502MOL0     H67740   8.308   2.272  11.983 -0.1858 -0.5662  0.6291
  502MOL0     H67741   8.242   2.107  11.956 -1.8722 -0.4058 -0.6143
  502MOL0     H67742   8.079   2.360  12.013 -1.7272 -1.6217 -0.8018
  502MOL0     H67743   8.023   2.197  12.017 -3.0054  1.8479  2.0640
  502MOL0     H67744   8.075   2.328  12.245 -0.8837  0.6763 -1.8182
  502MOL0     H67745   8.250   2.289  12.199 -0.6179  0.7169  2.2310
  502MOL0     H67746   8.237   2.068  12.215 -0.0849  0.5557 -1.1776
  502MOL0     H67747   8.136   2.113  12.353  2.8102  0.3459  0.6258
  502MOL0     H67748   8.036   1.977  12.099  1.4084  2.1561 -0.5685
  502MOL0     H67749   7.938   2.061  12.228 -0.7401  0.0372 -3.5007
  502MOL0     H67750   7.921   1.828  12.277 -0.0188 -1.5954  2.6315
  502MOL0     H67751   8.030   1.889  12.395  1.7961  0.5308 -0.6343
  502MOL0     H67752   8.546   2.217  11.603  3.3329 -0.9605 -2.4537
  502MOL0     H67753   8.684   2.390  11.509 -0.7120 -2.6254  2.4255
  502MOL0     H67754   8.879   2.611  11.317 -2.2360  0.4679  0.7620
  502MOL0     H67755   9.057   2.754  11.226 -0.8706  1.8010  0.3097
  502MOL0     H67756   9.006   2.757  10.213  0.2765  2.3046 -0.2697
  502MOL0     H67757   8.940   2.550  10.145  1.6168  0.9341 -0.1165
  502MOL0     H67758   8.613   2.397   9.762  2.9913 -1.0448 -1.7777
  502MOL0     H67759   8.492   2.206   9.667 -0.3823 -2.5103 -1.6899
  502MOL0     H67760   8.280   2.057   9.735  2.8100  5.8727 -1.4069
  502MOL0     H67761   8.372   2.053   9.587 -1.2445  0.6216  0.4589
  502MOL0     H67762   8.187   1.887   9.590  1.1631  2.3383 -2.1288
  502MOL0     H67763   8.269   1.799   9.726 -0.4196  0.8322  0.0472
  502MOL0     H67764   8.451   1.752   9.589 -1.9166  1.9310  3.1835
  502MOL0     H67765   8.413   1.875   9.462  0.2192 -1.0408 -2.8359
  502MOL0     H67766   8.376   1.639   9.389  1.5751  0.5992  0.1448
  502MOL0     H67767   8.240   1.745   9.358  0.3849 -0.8609 -0.6682
  502MOL0     H67768   8.077   1.458   9.626 -3.1894  1.2231 -2.4103
  502MOL0     H67769   8.616   1.943   9.985 -1.3099 -0.5706 -2.3639
  502MOL0     H67770   8.743   2.128  10.074 -2.6778 -2.1184  0.8020
  503MOL0     O67771   1.638   4.554   7.626 -0.8541 -0.6601  0.0292
  503MOL0     C67772   1.679   4.661   7.673 -0.0436 -0.1156 -0.0769
  503MOL0     O67773   1.622   4.781   7.656  0.4638 -0.2524 -0.0091
  503MOL0     C67774   1.503   4.779   7.588  0.5547 -0.6464  0.0762
  503MOL0     C67775   1.501   4.757   7.450  0.6199 -0.0641  0.6345
  503MOL0     C67776   1.380   4.736   7.381 -0.0403 -0.5409 -0.3285
  503MOL0     C67777   1.255   4.760   7.441 -0.2831  0.2801 -0.0427
  503MOL0     O67778   1.134   4.767   7.376 -0.2019 -0.2890 -0.6664
  503MOL0     C67779   1.143   4.702   7.251 -0.0456  0.3731  0.6527
  503MOL0     C67780   1.009   4.707   7.180 -0.5161  0.5264  0.1654
  503MOL0     C67781   0.989   4.589   7.080 -0.2963 -0.1198  1.4654
  503MOL0     C67782   1.009   4.620   6.926  0.5683  0.6487  0.5285
  503MOL0     C67783   0.917   4.731   6.869 -0.5437  0.3801 -0.6269
  503MOL0     C67784   0.892   4.699   6.718 -1.2759 -0.3462  0.2371
  503MOL0     C67785   0.796   4.795   6.646 -1.2036  0.7687 -0.1886
  503MOL0     C67786   0.643   4.789   6.687  0.0061  0.6482  0.1895
  503MOL0     N67787   0.561   4.871   6.597 -0.2863 -0.5417 -0.1319
  503MOL0     C67788   0.545   4.831   6.464  0.2843  0.4269 -0.3267
  503MOL0     C67789   0.455   4.914   6.405 -0.0318 -0.5335  0.8814
  503MOL0     C67790   0.413   4.883   6.259 -0.0469  0.4247 -0.4755
  503MOL0     C67791   0.312   4.968   6.203 -0.4899  0.9343  0.3312
  503MOL0     C67792   0.299   4.955   6.052  0.5936 -0.6904 -0.8168
  503MOL0     C67793   0.424   4.992   5.974  0.2294 -1.0016  0.1263
  503MOL0     O67794   0.385   5.022   5.836 -0.4592 -0.0625 -0.3622
  503MOL0     C67795   0.478   5.062   5.742  0.1802 -0.6047  0.9523
  503MOL0     C67796   0.447   5.068   5.599  0.0912 -0.2339  0.0691
  503MOL0     C67797   0.544   5.104   5.497  0.9475  0.5558 -0.1154
  503MOL0     C67798   0.494   5.116   5.352 -0.4152 -0.1578 -0.2007
  503MOL0     C67799   0.676   5.121   5.536 -0.0673  0.7349  0.8813
  503MOL0     C67800   0.783   5.166   5.440 -0.1643  0.5604 -0.4617
  503MOL0     O67801   0.792   5.107   5.320 -0.5834 -0.1052  1.0544
  503MOL0     C67802   0.892   5.160   5.242  0.3145  0.1604  0.1957
  503MOL0     C67803   0.955   5.061   5.172 -0.9861 -0.5391  1.1043
  503MOL0     C67804   1.064   5.094   5.089  0.2651  0.1349  0.8585
  503MOL0     C67805   1.100   5.230   5.060  0.6422  0.6094 -0.0062
  503MOL0     O67806   1.204   5.253   4.970  0.4348 -0.0240  0.2574
  503MOL0     C67807   1.273   5.374   4.986 -0.3506 -0.6456 -0.6480
  503MOL0     C67808   1.404   5.382   4.911 -0.6330  0.0552  0.2267
  503MOL0     C67809   1.412   5.470   4.784  0.4105  0.2553  0.4186
  503MOL0     C67810   1.537   5.435   4.697  0.3037  0.2980 -0.4701
  503MOL0     C67811   1.554   5.539   4.576  0.1876 -0.3709 -0.4326
  503MOL0     C67812   1.445   5.501   4.476  0.3115  0.3414  0.0322
  503MOL0     C67813   1.498   5.510   4.327 -0.4705 -0.0325  0.9771
  503MOL0     C67814   1.537   5.652   4.282 -0.7681 -0.4864  0.7011
  503MOL0    Cl67815   1.571   5.638   4.105 -0.8208  0.1284 -0.1192
  503MOL0     C67816   1.027   5.329   5.132  0.3173 -0.7616  0.0370
  503MOL0     C67817   0.924   5.297   5.220 -0.4176 -0.7835  0.3719
  503MOL0     O67818   0.867   5.243   5.492  0.4001  0.2983 -0.2004
  503MOL0     C67819   0.706   5.124   5.675 -0.4896  0.1526  0.6224
  503MOL0     C67820   0.615   5.095   5.774 -0.6467 -0.8492 -0.1141
  503MOL0     N67821   0.411   5.006   6.501 -0.2076  0.1609 -0.8534
  503MOL0     N67822   0.466   4.972   6.617 -0.1491 -0.4605  0.6078
  503MOL0     C67823   1.259   4.783   7.577 -0.6777  0.6059 -0.5489
  503MOL0     C67824   1.382   4.801   7.653  0.6704  0.3521 -0.7050
  503MOL0     C67825   1.813   4.669   7.750  0.0910 -0.1625 -0.1172
  503MOL0     C67826   1.873   4.778   7.810 -0.2446 -0.3330 -0.5318
  503MOL0     C67827   1.995   4.760   7.876 -0.0923 -0.1282 -0.3863
  503MOL0     C67828   2.068   4.643   7.869  0.1281 -0.3826  0.5740
  503MOL0     O67829   2.182   4.639   7.937  0.0987 -0.4075  0.0168
  503MOL0     C67830   2.243   4.513   7.967  0.0486 -0.4382 -0.4098
  503MOL0     C67831   2.329   4.522   8.093 -0.5293  0.8067 -0.4755
  503MOL0     C67832   2.448   4.616   8.059  0.1737  0.0834  0.4309
  503MOL0     C67833   2.561   4.621   8.165  0.0112  0.2796  0.2790
  503MOL0     C67834   2.637   4.503   8.142 -0.3020 -0.0584  0.1483
  503MOL0     C67835   2.707   4.405   8.112  0.4547 -0.0439  0.2252
  503MOL0     C67836   2.015   4.537   7.795 -0.6173 -0.7530  0.2268
  503MOL0     C67837   1.887   4.548   7.746  0.9799  0.5922 -0.5640
  503MOL0     H67838   1.594   4.760   7.396  0.9308  1.1197  1.2082
  503MOL0     H67839   1.390   4.726   7.273 -4.7662  0.6446 -1.1346
  503MOL0     H67840   1.214   4.751   7.184 -0.0641 -0.7002 -0.1954
  503MOL0     H67841   1.179   4.599   7.259  1.5831  0.9382  0.9992
  503MOL0     H67842   0.935   4.690   7.259 -2.8617 -0.2783 -2.0488
  503MOL0     H67843   0.981   4.805   7.138 -0.6347  0.2433 -0.4368
  503MOL0     H67844   1.052   4.504   7.107 -1.3196 -1.7058 -0.8096
  503MOL0     H67845   0.894   4.537   7.091  1.2332 -4.2011 -1.7787
  503MOL0     H67846   1.111   4.659   6.918 -0.0978  2.6914  1.4367
  503MOL0     H67847   0.994   4.530   6.866 -0.3577  1.7649 -0.9657
  503MOL0     H67848   0.822   4.738   6.922 -0.4238  1.3572 -0.5262
  503MOL0     H67849   0.971   4.826   6.872  0.4289 -0.0384 -2.7154
  503MOL0     H67850   0.984   4.714   6.660 -1.7753 -0.4643 -0.5975
  503MOL0     H67851   0.865   4.596   6.693  0.4416 -0.1349 -2.9988
  503MOL0     H67852   0.837   4.892   6.676 -1.4100  0.3954  1.3863
  503MOL0     H67853   0.794   4.781   6.537 -4.0113 -0.5219 -0.0557
  503MOL0     H67854   0.635   4.817   6.792  0.6080 -1.2896  0.7917
  503MOL0     H67855   0.608   4.686   6.693  0.7790  0.3375 -0.3750
  503MOL0     H67856   0.595   4.751   6.411 -1.8883 -1.3198  0.1356
  503MOL0     H67857   0.499   4.896   6.194 -1.6481 -1.8687 -3.3254
  503MOL0     H67858   0.399   4.775   6.251  4.1315 -0.5014  1.6434
  503MOL0     H67859   0.338   5.069   6.234 -2.3421  1.9332 -1.1923
  503MOL0     H67860   0.213   4.943   6.242 -1.7013  3.4229 -0.9290
  503MOL0     H67861   0.222   5.026   6.020  0.8452 -0.9014 -1.9307
  503MOL0     H67862   0.268   4.854   6.024  1.1516 -0.4577 -2.3602
  503MOL0     H67863   0.486   4.903   5.960  0.8548 -1.0910  2.8958
  503MOL0     H67864   0.485   5.073   6.014 -2.8057  1.0014  0.9886
  503MOL0     H67865   0.343   5.052   5.572  0.9182 -0.8469 -3.1716
  503MOL0     H67866   0.386   5.101   5.343 -0.5603  1.4413 -1.9154
  503MOL0     H67867   0.516   5.217   5.315 -2.0912  0.0481 -0.7526
  503MOL0     H67868   0.538   5.039   5.287  0.0565 -1.3261  1.4505
  503MOL0     H67869   0.925   4.957   5.174  2.9788 -1.9532 -1.5614
  503MOL0     H67870   1.124   5.015   5.044  0.7757 -1.0504  3.4248
  503MOL0     H67871   1.214   5.460   4.956  1.9143  0.4519 -2.2239
  503MOL0     H67872   1.291   5.385   5.094  1.3000  0.9852 -1.0459
  503MOL0     H67873   1.475   5.418   4.987 -0.4854  1.5273 -0.5558
  503MOL0     H67874   1.434   5.283   4.878 -1.2945 -0.1048  0.0958
  503MOL0     H67875   1.425   5.573   4.818 -0.9069  0.5535  0.0592
  503MOL0     H67876   1.318   5.451   4.732 -0.6957  0.2040  2.3755
  503MOL0     H67877   1.626   5.450   4.760  1.5367 -0.5191 -1.9530
  503MOL0     H67878   1.539   5.330   4.670 -2.6372 -0.3950  1.4933
  503MOL0     H67879   1.652   5.532   4.527 -0.6788  0.4120 -2.4266
  503MOL0     H67880   1.530   5.643   4.600  1.1379  0.1186 -1.4523
  503MOL0     H67881   1.401   5.406   4.506  0.3524  1.3556  3.8515
  503MOL0     H67882   1.356   5.565   4.486 -1.4190 -2.2500  3.2584
  503MOL0     H67883   1.426   5.462   4.260  0.6887 -0.6846  0.1678
  503MOL0     H67884   1.585   5.444   4.327  0.8568  1.6608  1.5817
  503MOL0     H67885   1.636   5.677   4.321 -0.6603  2.7749 -1.2727
  503MOL0     H67886   1.464   5.730   4.305  1.5339  2.4057 -0.8904
  503MOL0     H67887   1.054   5.433   5.120  1.3159 -0.5327  3.2299
  503MOL0     H67888   0.869   5.375   5.271 -0.8775 -0.4614 -0.5999
  503MOL0     H67889   0.805   5.151   5.711 -0.1109  1.2513 -1.1477
  503MOL0     H67890   0.653   5.095   5.876 -1.4710 -3.1372  0.2478
  503MOL0     H67891   1.165   4.788   7.632  0.0276  1.6612  0.6323
  503MOL0     H67892   1.369   4.815   7.760  0.9143  1.8602 -0.8600
  503MOL0     H67893   1.815   4.869   7.802  0.0498 -0.0898  0.0208
  503MOL0     H67894   2.046   4.846   7.918  2.7898 -1.3188 -1.1813
  503MOL0     H67895   2.167   4.439   7.994  0.6218 -0.5584  0.9791
  503MOL0     H67896   2.306   4.475   7.887  1.4648  0.4428  0.2319
  503MOL0     H67897   2.372   4.425   8.118  0.9568  1.3498 -0.8168
  503MOL0     H67898   2.269   4.553   8.179 -1.4893 -0.9653 -0.4606
  503MOL0     H67899   2.398   4.714   8.063  0.7589  0.3506  2.0921
  503MOL0     H67900   2.491   4.590   7.963 -1.1894  3.1346 -1.1620
  503MOL0     H67901   2.501   4.627   8.256 -1.5050 -4.8965 -0.0728
  503MOL0     H67902   2.639   4.696   8.150 -2.7464  3.7812  2.0494
  503MOL0     H67903   2.764   4.315   8.099  0.5613  0.1936 -1.1259
  503MOL0     H67904   2.062   4.441   7.773 -2.9769 -2.2515  1.3162
  503MOL0     H67905   1.848   4.456   7.704  0.3639 -0.0014  1.1977
  504MOL0     O67906   2.723   6.083   6.375  0.2217  0.4070 -0.2630
  504MOL0     C67907   2.711   5.984   6.302  0.1174  0.3110 -1.1158
  504MOL0     O67908   2.819   5.926   6.234 -0.4965  0.2194 -0.3672
  504MOL0     C67909   2.949   5.978   6.260 -0.3476  0.4207  0.2228
  504MOL0     C67910   3.008   6.010   6.389 -0.2753  0.4700  0.2657
  504MOL0     C67911   3.141   6.069   6.404  0.2449  0.5576  0.2987
  504MOL0     C67912   3.207   6.101   6.284 -0.3025 -0.0212  0.4092
  504MOL0     O67913   3.329   6.161   6.270  0.4306  0.3196  0.2823
  504MOL0     C67914   3.363   6.253   6.372  0.0677  0.2223 -0.2601
  504MOL0     C67915   3.473   6.203   6.477  0.5641 -0.0012 -0.7813
  504MOL0     C67916   3.614   6.180   6.412  0.4740 -0.4730  0.3812
  504MOL0     C67917   3.713   6.119   6.509 -0.2136  0.5323 -0.1114
  504MOL0     C67918   3.846   6.083   6.451  0.0538 -1.4265 -0.2197
  504MOL0     C67919   3.942   6.032   6.557  0.6572 -0.4735  0.1239
  504MOL0     C67920   4.087   6.021   6.504  0.1044  0.9328 -0.2529
  504MOL0     C67921   4.180   5.935   6.594 -0.2143  0.7986  0.8463
  504MOL0     N67922   4.172   5.975   6.736 -0.8199  1.3953  0.1254
  504MOL0     C67923   4.210   6.098   6.790 -0.1689 -0.0887 -0.0071
  504MOL0     C67924   4.175   6.088   6.919  0.7675 -0.0148  0.0516
  504MOL0     C67925   4.183   6.196   7.026 -0.6034 -0.7771 -0.2354
  504MOL0     C67926   4.217   6.142   7.163 -0.1922  0.1908 -0.3893
  504MOL0     C67927   4.193   6.245   7.283  0.7541 -0.0381  0.0927
  504MOL0     C67928   4.264   6.377   7.272 -0.2256 -0.6126  0.0125
  504MOL0     O67929   4.408   6.369   7.264  0.4309 -0.3293  0.4337
  504MOL0     C67930   4.487   6.333   7.372  0.2050  0.0200 -0.0213
  504MOL0     C67931   4.446   6.300   7.500  0.5875 -0.1631 -0.1505
  504MOL0     C67932   4.528   6.296   7.612  0.5482  0.1067  0.8700
  504MOL0     C67933   4.457   6.258   7.740  0.0091 -0.1098 -0.0157
  504MOL0     C67934   4.660   6.322   7.591 -0.2458 -0.1740  0.4265
  504MOL0     C67935   4.764   6.318   7.705  0.5814  0.4700 -1.0516
  504MOL0     O67936   4.890   6.352   7.668 -0.0471  0.2990 -0.7347
  504MOL0     C67937   5.003   6.339   7.744  0.9901  0.1307 -0.4181
  504MOL0     C67938   5.017   6.303   7.884 -0.5767 -0.0047 -0.2460
  504MOL0     C67939   5.140   6.281   7.948 -0.3762  0.6478  0.6511
  504MOL0     C67940   5.256   6.306   7.885 -0.3734 -0.4292 -0.7883
  504MOL0     O67941   5.371   6.287   7.963  0.1991 -0.2629 -0.0971
  504MOL0     C67942   5.492   6.282   7.891  0.2835 -0.1116  0.1711
  504MOL0     C67943   5.602   6.224   7.972 -0.1185  0.0544 -0.2278
  504MOL0     C67944   5.568   6.088   8.034  0.5317  0.0235  1.2695
  504MOL0     C67945   5.690   6.049   8.098 -0.5065 -0.1602  0.2499
  504MOL0     C67946   5.678   5.910   8.160 -0.9633  0.0827  0.0263
  504MOL0     C67947   5.795   5.901   8.261 -0.5364 -0.3625  0.2168
  504MOL0     C67948   5.805   5.766   8.332  0.5756 -0.5867  0.3138
  504MOL0     C67949   5.926   5.755   8.417  0.8110  0.2064  0.0378
  504MOL0    Cl67950   5.927   5.597   8.490 -0.3141 -0.5206  0.0748
  504MOL0     C67951   5.246   6.351   7.750 -0.2127 -0.2639 -0.5763
  504MOL0     C67952   5.128   6.361   7.678 -0.3149  0.6559 -1.0108
  504MOL0     O67953   4.733   6.290   7.815  0.1934  0.2353 -0.9305
  504MOL0     C67954   4.707   6.351   7.453 -0.5796  0.0619 -0.1226
  504MOL0     C67955   4.620   6.356   7.353 -0.2915 -0.4651  0.5827
  504MOL0     N67956   4.113   5.967   6.935 -0.3643 -0.2328 -0.1903
  504MOL0     N67957   4.104   5.905   6.825  0.1844 -0.3554  0.5938
  504MOL0     C67958   3.155   6.053   6.157 -1.5095  0.7467 -0.2193
  504MOL0     C67959   3.028   5.991   6.141  0.6832  0.3737  0.3680
  504MOL0     C67960   2.584   5.919   6.274 -0.1588 -0.5838 -0.1481
  504MOL0     C67961   2.465   5.970   6.330  0.9326 -0.8680 -0.1565
  504MOL0     C67962   2.343   5.919   6.291  0.8235  0.0824 -0.5846
  504MOL0     C67963   2.336   5.803   6.212 -0.1016 -0.1311  0.3769
  504MOL0     O67964   2.220   5.750   6.169  0.3748  0.1299 -0.3973
  504MOL0     C67965   2.095   5.779   6.231  0.6777  0.4543 -0.5614
  504MOL0     C67966   1.987   5.694   6.178  0.5664 -0.8398  0.3502
  504MOL0     C67967   2.016   5.549   6.197 -0.4067  0.6437  0.0587
  504MOL0     C67968   1.928   5.441   6.142  0.0863 -1.0508  0.0031
  504MOL0     C67969   1.920   5.450   5.996 -0.3230  0.5606 -0.6039
  504MOL0     C67970   1.914   5.457   5.872  1.3305  0.0318  0.4785
  504MOL0     C67971   2.455   5.759   6.154  1.3384 -0.1718  0.2660
  504MOL0     C67972   2.579   5.818   6.178 -0.9056  0.7079 -0.4763
  504MOL0     H67973   2.951   6.008   6.481 -1.2386 -1.5458 -0.3316
  504MOL0     H67974   3.181   6.090   6.503 -2.3541 -0.9425  1.8086
  504MOL0     H67975   3.403   6.340   6.319 -1.3404  2.1969  1.7444
  504MOL0     H67976   3.274   6.286   6.426 -2.3578 -2.0118 -2.5614
  504MOL0     H67977   3.468   6.262   6.568  1.9348 -2.9863  1.3935
  504MOL0     H67978   3.445   6.102   6.509  2.6378 -1.5739 -3.4636
  504MOL0     H67979   3.603   6.115   6.325 -1.6828 -2.8002  2.2674
  504MOL0     H67980   3.650   6.278   6.378 -1.3388  0.6750  1.6271
  504MOL0     H67981   3.748   6.184   6.589  3.9565 -0.3419 -0.9984
  504MOL0     H67982   3.669   6.028   6.552  0.0101 -0.9733 -2.8301
  504MOL0     H67983   3.833   6.005   6.375  0.4269 -1.9374  0.2402
  504MOL0     H67984   3.889   6.174   6.409  0.9374 -1.8439 -0.2431
  504MOL0     H67985   3.953   6.101   6.641 -1.6500  3.5134 -2.4848
  504MOL0     H67986   3.906   5.942   6.607 -1.3176  1.4792  2.4894
  504MOL0     H67987   4.079   5.975   6.405  0.7411 -1.9215  0.9297
  504MOL0     H67988   4.124   6.123   6.490  1.8446  0.6018  1.4899
  504MOL0     H67989   4.283   5.951   6.559 -1.5908  1.1677 -3.7410
  504MOL0     H67990   4.164   5.828   6.574  1.0191  0.6877  0.3072
  504MOL0     H67991   4.261   6.186   6.751  0.4923  0.1042  1.2477
  504MOL0     H67992   4.263   6.265   6.997  1.3093 -2.6354  0.3467
  504MOL0     H67993   4.087   6.248   7.031 -0.4554 -0.1845 -2.3768
  504MOL0     H67994   4.315   6.094   7.169 -0.8333 -0.9859  1.6555
  504MOL0     H67995   4.141   6.067   7.188  1.3598 -1.0026  0.9457
  504MOL0     H67996   4.218   6.194   7.376  2.8208  3.1929  1.4698
  504MOL0     H67997   4.087   6.271   7.278  0.5217 -0.9348  0.0782
  504MOL0     H67998   4.236   6.447   7.352  2.4865  1.4635 -0.6863
  504MOL0     H67999   4.246   6.422   7.174  2.1734  1.7129  0.4991
  504MOL0     H68000   4.338   6.290   7.496  0.5084  0.9547 -1.7393
  504MOL0     H68001   4.448   6.353   7.793  0.4050  0.0939 -0.3009
  504MOL0     H68002   4.365   6.203   7.719  1.3161 -1.5465 -2.4011
  504MOL0     H68003   4.508   6.195   7.813  1.7777  1.9241  0.5989
  504MOL0     H68004   4.939   6.305   7.960  0.7925 -0.4746  1.2306
  504MOL0     H68005   5.126   6.259   8.054 -1.6174 -1.9497  0.0147
  504MOL0     H68006   5.475   6.218   7.803  0.2630  0.5216 -0.2946
  504MOL0     H68007   5.524   6.379   7.853  3.7079 -1.7051 -1.4400
  504MOL0     H68008   5.687   6.217   7.903 -0.6159  1.4272 -1.0197
  504MOL0     H68009   5.625   6.290   8.057  1.2639 -2.3360  1.3819
  504MOL0     H68010   5.542   6.020   7.953 -1.6558 -1.6163  3.1967
  504MOL0     H68011   5.480   6.084   8.099  0.8992 -0.1526  1.7641
  504MOL0     H68012   5.776   6.041   8.030 -0.4549 -4.8481  0.5408
  504MOL0     H68013   5.706   6.116   8.184  0.3200 -1.4218  1.1190
  504MOL0     H68014   5.679   5.827   8.089  0.9190  1.4542 -1.6522
  504MOL0     H68015   5.591   5.910   8.228  1.6825 -0.4886  3.7213
  504MOL0     H68016   5.888   5.908   8.205  0.5332 -1.2274  1.7812
  504MOL0     H68017   5.791   5.981   8.335  2.4482 -1.1728  1.3788
  504MOL0     H68018   5.794   5.693   8.250  1.4053 -0.2260 -0.1316
  504MOL0     H68019   5.717   5.752   8.395 -0.1517  2.5060  0.1534
  504MOL0     H68020   5.926   5.835   8.491  2.4747  0.9040 -0.6623
  504MOL0     H68021   6.015   5.754   8.353  1.8899 -0.1509  1.4866
  504MOL0     H68022   5.333   6.383   7.693  0.4846  0.9675  1.1050
  504MOL0     H68023   5.124   6.394   7.575 -1.3491  4.1670  0.0194
  504MOL0     H68024   4.812   6.370   7.435  0.9412 -4.3487  2.5403
  504MOL0     H68025   4.650   6.394   7.255  2.5197  1.4915  2.0630
  504MOL0     H68026   3.231   6.058   6.080 -1.5490 -0.3531 -0.3499
  504MOL0     H68027   2.992   5.955   6.045 -2.2364 -0.4351  1.6722
  504MOL0     H68028   2.476   6.062   6.386  2.8057 -1.7845  1.1010
  504MOL0     H68029   2.259   5.971   6.336 -0.0765  1.0781 -3.2006
  504MOL0     H68030   2.097   5.774   6.340  1.1111 -1.3437 -0.6245
  504MOL0     H68031   2.070   5.884   6.211  1.1433  0.6862  0.0383
  504MOL0     H68032   1.987   5.710   6.070 -0.6815 -0.3489  0.4059
  504MOL0     H68033   1.888   5.710   6.223  2.1246 -0.7061  4.0415
  504MOL0     H68034   2.007   5.527   6.304 -2.6353  1.1145  0.0213
  504MOL0     H68035   2.116   5.531   6.155 -0.3538  0.8083  0.1102
  504MOL0     H68036   1.828   5.455   6.184  0.1452 -2.2486  0.5978
  504MOL0     H68037   1.963   5.338   6.155  0.7890 -0.8007  0.1120
  504MOL0     H68038   1.914   5.466   5.765  2.4753 -1.3817  0.3195
  504MOL0     H68039   2.439   5.670   6.094  0.5634  0.8926 -1.1374
  504MOL0     H68040   2.669   5.775   6.136  0.8425  2.0509  1.6264
  505MOL0     O68041   6.154   4.341   8.200  0.4732 -0.6302  0.7385
  505MOL0     C68042   6.248   4.339   8.125 -0.2363  0.9080  0.6727
  505MOL0     O68043   6.327   4.444   8.097 -0.1915  0.0843 -0.5385
  505MOL0     C68044   6.301   4.568   8.155 -0.4351 -0.5075 -0.4245
  505MOL0     C68045   6.234   4.594   8.276 -0.1082  0.1939 -0.8063
  505MOL0     C68046   6.170   4.718   8.312 -0.5627  0.5234  0.6722
  505MOL0     C68047   6.194   4.828   8.231  0.2339 -0.0034  0.8737
  505MOL0     O68048   6.153   4.949   8.286 -0.6851  0.1833 -0.0443
  505MOL0     C68049   6.122   5.065   8.198 -0.2850 -0.3547  0.4858
  505MOL0     C68050   6.049   5.174   8.275 -0.0403  0.0704  0.5024
  505MOL0     C68051   6.019   5.303   8.192  0.5419  0.1281  0.1770
  505MOL0     C68052   5.884   5.276   8.122  0.3217  0.1640  0.1258
  505MOL0     C68053   5.835   5.404   8.053  0.2317 -0.0755 -0.6551
  505MOL0     C68054   5.710   5.385   7.971  0.2381 -0.3763 -0.1962
  505MOL0     C68055   5.671   5.516   7.899  0.3303 -0.8748 -0.1480
  505MOL0     C68056   5.525   5.513   7.847 -0.1385  0.2216  0.8826
  505MOL0     N68057   5.459   5.639   7.892  0.1460  0.2187  0.4712
  505MOL0     C68058   5.411   5.736   7.807 -0.3841 -0.4600 -0.2646
  505MOL0     C68059   5.329   5.813   7.879 -0.0650 -0.3165  0.1770
  505MOL0     C68060   5.258   5.941   7.853 -0.3232 -0.5227  0.2557
  505MOL0     C68061   5.136   5.929   7.770  0.0038  0.3345 -0.4697
  505MOL0     C68062   5.048   5.820   7.842  0.2267 -0.1092  0.7101
  505MOL0     C68063   4.901   5.824   7.795 -0.3623  0.4119  0.7771
  505MOL0     O68064   4.841   5.695   7.819  0.7735  0.1691 -0.3475
  505MOL0     C68065   4.727   5.670   7.743  0.2986 -0.5534  0.6317
  505MOL0     C68066   4.636   5.765   7.702  0.8343  0.1580 -0.0925
  505MOL0     C68067   4.513   5.733   7.643  0.4514  0.2508  0.5069
  505MOL0     C68068   4.417   5.842   7.596 -0.4395 -0.0914 -0.7132
  505MOL0     C68069   4.493   5.598   7.601  0.0159  0.0058  0.3151
  505MOL0     C68070   4.364   5.562   7.542  0.5237  0.2551 -0.8625
  505MOL0     O68071   4.316   5.440   7.586  0.1336  0.1125  0.0176
  505MOL0     C68072   4.261   5.367   7.489 -0.2145 -0.4082  0.5364
  505MOL0     C68073   4.126   5.371   7.485 -0.4282  0.4072  0.0482
  505MOL0     C68074   4.063   5.286   7.392  1.4671  0.2036 -0.0635
  505MOL0     C68075   4.138   5.216   7.296  0.4437 -0.9120  0.4747
  505MOL0     O68076   4.065   5.150   7.195 -0.0564 -0.0338 -0.1952
  505MOL0     C68077   4.143   5.117   7.075  0.1024  0.2148  0.3644
  505MOL0     C68078   4.058   5.075   6.955  0.1367 -0.8170 -0.2753
  505MOL0     C68079   4.139   5.024   6.842  0.0384 -0.1079 -0.4031
  505MOL0     C68080   4.188   4.882   6.874  0.3298  0.7018  0.5550
  505MOL0     C68081   4.304   4.850   6.784  0.1233  0.3630  0.9409
  505MOL0     C68082   4.369   4.709   6.801  0.3972  0.8407  0.8922
  505MOL0     C68083   4.491   4.671   6.712 -0.3298  0.0432  0.4184
  505MOL0     C68084   4.490   4.518   6.696  0.2537 -0.0530  0.5728
  505MOL0    Cl68085   4.540   4.456   6.855  0.1512  0.0541  0.0253
  505MOL0     C68086   4.272   5.209   7.309 -0.7197 -0.4463  0.0787
  505MOL0     C68087   4.334   5.275   7.414 -0.1522 -0.5983 -0.5068
  505MOL0     O68088   4.348   5.619   7.441  0.9866  0.3234  0.2745
  505MOL0     C68089   4.586   5.499   7.631 -0.2649 -0.6721 -1.2918
  505MOL0     C68090   4.706   5.537   7.698  0.5104 -0.3504  0.3605
  505MOL0     N68091   5.312   5.740   8.002  0.2380 -0.3179  0.2144
  505MOL0     N68092   5.395   5.644   8.015 -0.2571 -0.2661  0.2473
  505MOL0     C68093   6.265   4.813   8.106 -0.5092  0.2999  0.1260
  505MOL0     C68094   6.309   4.683   8.074 -0.5970 -0.2712  0.7613
  505MOL0     C68095   6.298   4.222   8.056  0.6020  0.8830 -0.2175
  505MOL0     C68096   6.412   4.217   7.975 -0.8764 -0.1062 -0.2744
  505MOL0     C68097   6.438   4.114   7.885 -0.6957 -0.0188 -0.2381
  505MOL0     C68098   6.345   4.003   7.880  0.1929  0.3040  0.2591
  505MOL0     O68099   6.349   3.911   7.782 -0.4193 -0.0008 -0.1546
  505MOL0     C68100   6.470   3.831   7.780  0.0670  0.0480 -0.1150
  505MOL0     C68101   6.448   3.698   7.866 -0.1886  0.0198  0.9742
  505MOL0     C68102   6.319   3.620   7.839 -0.6713 -1.1337  0.1720
  505MOL0     C68103   6.322   3.578   7.691 -0.2029 -0.4921 -0.2592
  505MOL0     C68104   6.203   3.503   7.651  0.0010  0.5639  0.7756
  505MOL0     C68105   6.096   3.458   7.606  0.0307 -0.8875  0.0335
  505MOL0     C68106   6.242   4.003   7.966 -0.1176 -0.4530 -0.0007
  505MOL0     C68107   6.221   4.108   8.055  1.2841  1.1197  0.7211
  505MOL0     H68108   6.234   4.522   8.357  0.1545 -1.1150 -1.9296
  505MOL0     H68109   6.111   4.728   8.402  0.1798  0.8373  1.1351
  505MOL0     H68110   6.214   5.101   8.151  1.6409 -4.0736  1.0330
  505MOL0     H68111   6.062   5.026   8.116  1.1475 -1.0139 -0.2839
  505MOL0     H68112   5.959   5.128   8.317 -0.4156 -1.2732 -1.6479
  505MOL0     H68113   6.126   5.204   8.347  2.2104  1.4418 -2.2835
  505MOL0     H68114   6.014   5.390   8.259 -2.5203 -1.3538  2.1124
  505MOL0     H68115   6.100   5.324   8.122 -0.3611  1.5417 -0.4942
  505MOL0     H68116   5.900   5.205   8.040 -0.2735  1.5770 -1.2656
  505MOL0     H68117   5.814   5.235   8.195  0.1996  0.6669  0.2953
  505MOL0     H68118   5.809   5.482   8.125 -2.9356 -1.7980  0.2847
  505MOL0     H68119   5.917   5.444   7.994  1.0953 -2.2160 -1.0127
  505MOL0     H68120   5.728   5.303   7.901  0.3617  0.0842 -0.7160
  505MOL0     H68121   5.632   5.362   8.044 -0.4385 -0.4347 -0.9150
  505MOL0     H68122   5.680   5.606   7.961 -2.8107  1.3902 -2.6217
  505MOL0     H68123   5.742   5.532   7.817  0.9297 -0.2896  0.4696
  505MOL0     H68124   5.477   5.427   7.894 -0.1692  0.5256  1.4186
  505MOL0     H68125   5.519   5.498   7.739  1.9696  0.0990  0.7299
  505MOL0     H68126   5.445   5.751   7.706 -0.0643 -0.7153 -0.1967
  505MOL0     H68127   5.214   5.988   7.942  0.2979  3.7539 -1.4386
  505MOL0     H68128   5.328   6.012   7.808 -3.9230  1.9304 -2.1213
  505MOL0     H68129   5.152   5.901   7.666  0.2134  0.3628 -0.4443
  505MOL0     H68130   5.078   6.022   7.767 -2.3413 -1.0379 -0.4797
  505MOL0     H68131   5.065   5.827   7.950 -1.6630  3.3452  0.9321
  505MOL0     H68132   5.079   5.718   7.818  0.2013 -0.4519  2.0569
  505MOL0     H68133   4.888   5.853   7.691 -3.3441 -0.5859  0.7774
  505MOL0     H68134   4.847   5.901   7.851 -0.2530  0.9222  0.1802
  505MOL0     H68135   4.650   5.866   7.739  0.6580  0.3700 -0.6055
  505MOL0     H68136   4.399   5.845   7.488  0.3860  0.5992 -0.8450
  505MOL0     H68137   4.317   5.837   7.641 -1.0922  2.3492 -1.7067
  505MOL0     H68138   4.451   5.941   7.629 -1.7004  0.4770 -1.0491
  505MOL0     H68139   4.068   5.439   7.546 -0.3914 -0.1504  0.7207
  505MOL0     H68140   3.958   5.302   7.372  1.2929 -1.4095 -0.5635
  505MOL0     H68141   4.189   5.212   7.047 -0.6709  0.3956 -0.3203
  505MOL0     H68142   4.219   5.041   7.094 -0.5396 -0.8560 -1.1747
  505MOL0     H68143   3.990   4.993   6.982 -0.2215 -1.2527 -2.3705
  505MOL0     H68144   3.992   5.154   6.919 -0.0390 -0.6810  0.3219
  505MOL0     H68145   4.223   5.091   6.825 -0.4999  0.6667 -0.0503
  505MOL0     H68146   4.072   5.025   6.756 -2.7424 -0.3119  1.6225
  505MOL0     H68147   4.209   4.872   6.981  2.5304 -3.8821 -0.0876
  505MOL0     H68148   4.105   4.815   6.849  1.0927  0.3286 -1.1317
  505MOL0     H68149   4.383   4.925   6.796  0.4089 -0.3333  4.3215
  505MOL0     H68150   4.272   4.850   6.679  0.9868 -3.2603  0.5536
  505MOL0     H68151   4.385   4.699   6.909 -1.2811 -1.9428  0.9860
  505MOL0     H68152   4.293   4.633   6.782  0.6730  0.9907 -0.9228
  505MOL0     H68153   4.590   4.693   6.755  0.3006  1.3501 -1.5756
  505MOL0     H68154   4.490   4.723   6.616 -0.1418  1.5315  1.1897
  505MOL0     H68155   4.568   4.486   6.626  0.2072  1.6388 -0.3103
  505MOL0     H68156   4.394   4.478   6.661  0.3596  2.7979 -3.8065
  505MOL0     H68157   4.334   5.154   7.239 -1.2896 -0.8363 -0.1209
  505MOL0     H68158   4.441   5.271   7.427 -0.5089 -0.4930  4.1408
  505MOL0     H68159   4.563   5.394   7.615 -1.8336 -0.8085  1.4148
  505MOL0     H68160   4.788   5.467   7.711  2.7102  2.1634  1.1310
  505MOL0     H68161   6.277   4.901   8.043  4.1115  1.2912  1.9851
  505MOL0     H68162   6.355   4.669   7.977 -0.2459  2.8758  0.3869
  505MOL0     H68163   6.478   4.303   7.963 -0.0895 -0.2466  2.2592
  505MOL0     H68164   6.512   4.125   7.805 -1.9553 -2.8624 -1.9519
  505MOL0     H68165   6.503   3.809   7.678  0.3289 -1.2700  0.2313
  505MOL0     H68166   6.554   3.891   7.815  3.0809 -1.0230 -4.5871
  505MOL0     H68167   6.441   3.746   7.964  1.9118  1.4625  0.4841
  505MOL0     H68168   6.527   3.623   7.858 -3.6057 -3.8954  0.3074
  505MOL0     H68169   6.231   3.684   7.844  0.5037  0.7680 -1.5465
  505MOL0     H68170   6.312   3.536   7.908  1.0359 -0.1789  1.6128
  505MOL0     H68171   6.405   3.507   7.687  0.3027 -0.1479  2.4476
  505MOL0     H68172   6.358   3.652   7.619  2.0686 -1.8136 -0.5940
  505MOL0     H68173   6.007   3.415   7.564 -0.0127 -1.5123  0.7427
  505MOL0     H68174   6.173   3.920   7.957 -0.3373 -0.1680 -1.1135
  505MOL0     H68175   6.126   4.123   8.105 -1.4804  1.2444 -3.9631
  506MOL0     O68176   7.716   5.304   6.190 -0.3628 -0.2023  0.0546
  506MOL0     C68177   7.598   5.292   6.195  0.6598  1.2407 -0.3780
  506MOL0     O68178   7.517   5.245   6.094  0.3353 -0.5573 -0.1651
  506MOL0     C68179   7.562   5.191   5.970  0.0261 -1.3696 -0.6277
  506MOL0     C68180   7.654   5.266   5.901 -0.3621 -0.0339  0.2479
  506MOL0     C68181   7.696   5.231   5.771 -0.4848  0.5189  0.2548
  506MOL0     C68182   7.648   5.115   5.707 -0.4772  1.1897 -0.0403
  506MOL0     O68183   7.673   5.088   5.578 -0.1386 -0.0182  0.0646
  506MOL0     C68184   7.727   4.957   5.549  0.5165  0.6966 -0.2892
  506MOL0     C68185   7.735   4.918   5.400 -0.4886 -1.6541 -0.0794
  506MOL0     C68186   7.880   4.942   5.352  0.2598 -0.7883 -0.8123
  506MOL0     C68187   7.969   4.834   5.388  0.6535 -0.4846  0.0659
  506MOL0     C68188   8.103   4.837   5.308  1.0132 -0.4123  0.0048
  506MOL0     C68189   8.094   4.807   5.157  0.5908  0.5382 -0.3135
  506MOL0     C68190   8.226   4.836   5.081 -0.9841 -0.6050 -0.2320
  506MOL0     C68191   8.290   4.976   5.114  0.1672  0.1041  0.4650
  506MOL0     N68192   8.194   5.085   5.092 -0.0057  0.8485  0.0657
  506MOL0     C68193   8.121   5.151   5.190  0.3392  1.1370  0.5210
  506MOL0     C68194   8.043   5.236   5.114 -1.0152 -0.2232 -0.5082
  506MOL0     C68195   7.943   5.339   5.153 -0.2808  0.4868 -1.0343
  506MOL0     C68196   7.824   5.282   5.235  0.2748 -0.0127 -0.1154
  506MOL0     C68197   7.717   5.400   5.260  0.5110 -0.4368 -0.6427
  506MOL0     C68198   7.617   5.354   5.367  0.4258 -0.4359  0.1897
  506MOL0     O68199   7.523   5.456   5.398  0.3930  0.3672 -0.3179
  506MOL0     C68200   7.427   5.438   5.494 -0.3740 -0.3670  0.6057
  506MOL0     C68201   7.327   5.536   5.505 -0.0674 -0.0744  0.2242
  506MOL0     C68202   7.245   5.551   5.621  0.9803 -0.2799 -0.0870
  506MOL0     C68203   7.157   5.667   5.644 -0.0779  0.9306 -0.1418
  506MOL0     C68204   7.241   5.450   5.718 -0.3890  0.1468  0.5907
  506MOL0     C68205   7.169   5.447   5.855 -0.1822  0.2812  0.8602
  506MOL0     O68206   7.228   5.389   5.961 -0.2364 -0.5016  0.3952
  506MOL0     C68207   7.165   5.382   6.085 -0.4131 -0.7093 -0.5941
  506MOL0     C68208   7.148   5.263   6.148  0.7531  0.0523  1.2734
  506MOL0     C68209   7.105   5.257   6.282 -1.2247  0.6632 -0.1642
  506MOL0     C68210   7.069   5.371   6.351 -0.1310  0.2570  0.3110
  506MOL0     O68211   7.028   5.373   6.486  0.4059 -0.3765  0.7300
  506MOL0     C68212   6.947   5.263   6.522 -0.2870 -0.2189 -0.6185
  506MOL0     C68213   6.875   5.310   6.654 -0.4630 -0.0535  0.6013
  506MOL0     C68214   6.789   5.203   6.716 -0.2413  0.6082 -0.2274
  506MOL0     C68215   6.687   5.140   6.621  0.1709  0.4188 -0.2921
  506MOL0     C68216   6.585   5.040   6.697 -0.1812  0.0801  0.5552
  506MOL0     C68217   6.649   4.915   6.746 -0.1920  0.6485  0.6816
  506MOL0     C68218   6.538   4.816   6.784  0.9705 -0.2413 -0.2246
  506MOL0     C68219   6.489   4.727   6.672 -0.3355 -1.1351  0.8962
  506MOL0    Cl68220   6.321   4.673   6.681  0.1496 -0.0343  0.0119
  506MOL0     C68221   7.076   5.494   6.289 -0.0384 -0.4545 -0.1596
  506MOL0     C68222   7.126   5.495   6.156  0.2861  0.2982 -0.1564
  506MOL0     O68223   7.064   5.499   5.857  0.5426  0.5473  0.0132
  506MOL0     C68224   7.327   5.342   5.692 -0.2423  0.1135  0.4520
  506MOL0     C68225   7.415   5.337   5.585 -0.0226 -0.8241 -0.7468
  506MOL0     N68226   8.076   5.215   4.975 -0.6699  0.0637  0.1018
  506MOL0     N68227   8.168   5.124   4.969  0.3605 -0.4021 -0.5121
  506MOL0     C68228   7.571   5.026   5.785 -0.9789 -0.8968 -0.7640
  506MOL0     C68229   7.525   5.072   5.903  0.4090  0.2667  0.0221
  506MOL0     C68230   7.542   5.323   6.331  0.5084 -0.1136  0.3275
  506MOL0     C68231   7.418   5.389   6.343 -0.1930  0.2308 -0.0994
  506MOL0     C68232   7.380   5.429   6.477  0.3122  0.3686  0.0462
  506MOL0     C68233   7.454   5.394   6.592  0.3874  1.2507  0.6189
  506MOL0     O68234   7.425   5.441   6.715  0.1462 -0.4936 -0.7076
  506MOL0     C68235   7.281   5.459   6.754 -0.3384 -0.7581  0.4015
  506MOL0     C68236   7.245   5.380   6.883 -0.4479  0.4967  1.0266
  506MOL0     C68237   7.252   5.224   6.846 -0.1637 -0.4986  0.2112
  506MOL0     C68238   7.174   5.142   6.946  0.1519  0.3777 -0.3748
  506MOL0     C68239   7.215   5.161   7.087  0.6267 -0.5332  0.1189
  506MOL0     C68240   7.245   5.171   7.203  0.6062 -1.1460  0.5797
  506MOL0     C68241   7.572   5.321   6.578 -0.2278  0.5091 -0.1466
  506MOL0     C68242   7.620   5.293   6.441  1.1398 -0.2369 -0.6090
  506MOL0     H68243   7.699   5.352   5.948  1.4753  0.2273 -1.8236
  506MOL0     H68244   7.769   5.285   5.711  0.8090 -2.5916 -1.1715
  506MOL0     H68245   7.832   4.954   5.582  1.1762  0.8495 -2.2628
  506MOL0     H68246   7.683   4.872   5.602  1.6029 -0.3387 -0.9981
  506MOL0     H68247   7.723   4.811   5.380  4.0981 -1.8762 -3.2106
  506MOL0     H68248   7.664   4.974   5.339  2.2847  1.6366 -0.5713
  506MOL0     H68249   7.854   4.930   5.246 -1.8528 -6.1614 -0.0232
  506MOL0     H68250   7.918   5.042   5.372  0.2757 -0.5703 -1.8290
  506MOL0     H68251   7.981   4.841   5.497 -1.7540  0.9967  0.3062
  506MOL0     H68252   7.927   4.736   5.366 -1.9792  0.3336  1.1484
  506MOL0     H68253   8.136   4.940   5.317 -0.4484  0.2281 -1.3144
  506MOL0     H68254   8.179   4.783   5.365 -2.3055 -3.3952  2.0844
  506MOL0     H68255   8.065   4.704   5.137  2.1860  0.4491 -2.5311
  506MOL0     H68256   8.021   4.876   5.114 -0.1612 -1.5384 -2.5643
  506MOL0     H68257   8.290   4.750   5.104  0.1227  0.1816 -0.2694
  506MOL0     H68258   8.203   4.832   4.974 -2.3023  2.4214 -0.1680
  506MOL0     H68259   8.390   4.990   5.072 -0.5562 -0.6327 -1.5956
  506MOL0     H68260   8.312   4.984   5.221 -0.1330  1.1596  0.4605
  506MOL0     H68261   8.123   5.153   5.299 -1.1673  1.7459  0.5587
  506MOL0     H68262   7.990   5.411   5.221  0.3973  1.1078 -2.1316
  506MOL0     H68263   7.900   5.393   5.069 -0.0101  2.8574  0.2587
  506MOL0     H68264   7.862   5.247   5.332 -0.1016  1.1105  0.4645
  506MOL0     H68265   7.774   5.210   5.170  0.7640 -1.3262  0.9019
  506MOL0     H68266   7.671   5.435   5.167  3.1964  3.1312 -0.8223
  506MOL0     H68267   7.770   5.487   5.298  0.1130 -0.0675 -0.9143
  506MOL0     H68268   7.668   5.332   5.461  2.5576  1.2378 -0.4780
  506MOL0     H68269   7.568   5.267   5.322 -2.8319  0.4683  1.6880
  506MOL0     H68270   7.325   5.613   5.428  1.4611 -0.3131 -0.0858
  506MOL0     H68271   7.161   5.739   5.562  1.9173  1.1311  0.0986
  506MOL0     H68272   7.054   5.632   5.658 -0.4561  2.2270  0.5031
  506MOL0     H68273   7.185   5.713   5.739 -1.5749  0.7982  0.3936
  506MOL0     H68274   7.176   5.173   6.094  1.5355  0.8109  0.3623
  506MOL0     H68275   7.103   5.160   6.331 -1.2879 -0.8675 -2.9588
  506MOL0     H68276   6.874   5.230   6.447 -2.2845 -2.2383  2.0251
  506MOL0     H68277   7.012   5.178   6.544  1.5641  2.0560  3.8252
  506MOL0     H68278   6.954   5.348   6.719  0.5015  0.4544 -0.8000
  506MOL0     H68279   6.818   5.401   6.637 -0.9446 -0.8022 -2.3340
  506MOL0     H68280   6.738   5.242   6.805  1.3443 -0.2697  1.1115
  506MOL0     H68281   6.852   5.119   6.745 -1.2128 -0.5867 -1.4371
  506MOL0     H68282   6.638   5.217   6.560  3.1220  1.0868 -1.9981
  506MOL0     H68283   6.749   5.087   6.548 -0.5349  0.0574 -0.6373
  506MOL0     H68284   6.504   5.019   6.626 -0.8728  2.1260  0.6598
  506MOL0     H68285   6.531   5.091   6.778  0.5235 -1.3467  1.9745
  506MOL0     H68286   6.703   4.874   6.660 -1.2922 -1.8689  1.1110
  506MOL0     H68287   6.713   4.930   6.834 -2.3080  1.0810  2.2327
  506MOL0     H68288   6.446   4.864   6.820  0.0061 -1.0446 -1.5006
  506MOL0     H68289   6.571   4.755   6.869  0.0922  0.5135  0.6899
  506MOL0     H68290   6.553   4.638   6.671  2.0524  0.4552 -1.5091
  506MOL0     H68291   6.493   4.788   6.582  2.9079  1.8360  2.7942
  506MOL0     H68292   7.049   5.589   6.332  0.9167 -0.0774 -0.3599
  506MOL0     H68293   7.165   5.588   6.113  2.1962  1.2736  3.3386
  506MOL0     H68294   7.322   5.259   5.762  2.2189  0.0057  0.5792
  506MOL0     H68295   7.485   5.254   5.580  0.0372 -0.7752 -0.7298
  506MOL0     H68296   7.533   4.928   5.756 -1.8776 -1.1447  1.1172
  506MOL0     H68297   7.461   5.000   5.953  0.0640 -0.2383 -1.0981
  506MOL0     H68298   7.353   5.411   6.258 -0.0047  1.6017  0.0925
  506MOL0     H68299   7.296   5.499   6.482 -0.4689 -0.4788 -0.8138
  506MOL0     H68300   7.257   5.566   6.762 -1.7590 -1.1628  2.6210
  506MOL0     H68301   7.216   5.427   6.672 -1.2633  1.2570  0.2818
  506MOL0     H68302   7.141   5.401   6.910 -1.2734 -0.5483 -1.0448
  506MOL0     H68303   7.316   5.397   6.964 -0.1056 -0.9622  1.0671
  506MOL0     H68304   7.360   5.205   6.843  0.0752  0.8348 -2.5566
  506MOL0     H68305   7.203   5.206   6.750  0.4811 -0.1316 -0.1944
  506MOL0     H68306   7.181   5.039   6.909 -3.4571  0.0299 -0.4728
  506MOL0     H68307   7.066   5.159   6.935  0.1094  1.8786  1.7570
  506MOL0     H68308   7.262   5.180   7.309  0.3955  0.0656  0.5205
  506MOL0     H68309   7.631   5.284   6.661  1.9938  0.5453 -1.6051
  506MOL0     H68310   7.703   5.228   6.413  0.0833 -0.9849 -2.1701
  507MOL0     O68311   9.095   0.543   5.739 -0.4413 -0.5871  0.1397
  507MOL0     C68312   9.171   0.501   5.823  0.0553  0.0369 -0.4884
  507MOL0     O68313   9.133   0.444   5.939  0.0417 -0.7233  0.0163
  507MOL0     C68314   9.008   0.477   5.980  0.8448  0.2427  0.1954
  507MOL0     C68315   8.935   0.369   6.043  0.4354 -0.8282  1.2095
  507MOL0     C68316   8.809   0.386   6.088  0.1121 -0.1208  0.2450
  507MOL0     C68317   8.745   0.515   6.082 -0.1451 -0.2449  0.0539
  507MOL0     O68318   8.638   0.548   6.153  0.4908 -0.3736 -0.1677
  507MOL0     C68319   8.521   0.476   6.147  0.1658 -0.2933  0.8998
  507MOL0     C68320   8.421   0.561   6.235 -0.5181 -0.3179  0.1873
  507MOL0     C68321   8.393   0.706   6.201 -0.3675 -0.2867 -0.9487
  507MOL0     C68322   8.321   0.785   6.309  0.5401 -0.3386 -0.8617
  507MOL0     C68323   8.169   0.747   6.315 -0.4186 -0.5143  0.5083
  507MOL0     C68324   8.139   0.676   6.441  0.0868  0.1058 -0.3843
  507MOL0     C68325   7.999   0.635   6.484  0.5462  0.4226  0.4973
  507MOL0     C68326   7.932   0.722   6.581 -0.5219  0.1600  0.4991
  507MOL0     N68327   7.816   0.669   6.658  0.1597  0.1104  0.1674
  507MOL0     C68328   7.833   0.615   6.780 -0.0677 -0.1644  0.0402
  507MOL0     C68329   7.706   0.579   6.820  0.4563  0.2403  0.2646
  507MOL0     C68330   7.671   0.551   6.963 -0.0615  0.7661  0.3851
  507MOL0     C68331   7.714   0.664   7.043  0.4859  0.0032 -0.2734
  507MOL0     C68332   7.624   0.796   7.027  0.5580  1.3559  0.6497
  507MOL0     C68333   7.486   0.777   7.099 -0.3586 -0.0142 -0.0472
  507MOL0     O68334   7.411   0.891   7.070  0.0740 -0.7026  0.0850
  507MOL0     C68335   7.315   0.869   6.976  0.3977  0.0921  0.2303
  507MOL0     C68336   7.322   0.780   6.866  0.8577 -0.4321  0.3519
  507MOL0     C68337   7.212   0.765   6.779 -0.7133  0.8380 -0.5430
  507MOL0     C68338   7.234   0.669   6.668  0.7438  0.0749 -0.1977
  507MOL0     C68339   7.098   0.842   6.788 -0.2166 -0.3860 -0.3002
  507MOL0     C68340   6.979   0.823   6.695 -0.0154 -0.2776  0.0237
  507MOL0     O68341   6.896   0.926   6.685  0.2662  0.1783 -0.7645
  507MOL0     C68342   6.779   0.944   6.622  0.0688  0.7526  0.0207
  507MOL0     C68343   6.729   0.850   6.527  0.2750 -0.7130 -0.2731
  507MOL0     C68344   6.623   0.892   6.447  0.4280  0.0770  0.2734
  507MOL0     C68345   6.558   1.014   6.452 -0.0560 -0.0979  0.1195
  507MOL0     O68346   6.454   1.032   6.363 -0.0508  0.4722  0.0267
  507MOL0     C68347   6.371   1.139   6.403 -0.5766 -0.9589  0.0533
  507MOL0     C68348   6.250   1.132   6.308  0.4589  0.0588 -0.1595
  507MOL0     C68349   6.117   1.206   6.356 -0.3553  1.0614 -0.5622
  507MOL0     C68350   6.013   1.194   6.252 -0.1087 -0.6488  0.5542
  507MOL0     C68351   5.878   1.269   6.288 -0.3294 -0.9054  0.2702
  507MOL0     C68352   5.772   1.255   6.172  0.6988  0.7032  0.1516
  507MOL0     C68353   5.642   1.338   6.214  0.4112  0.4913 -0.0612
  507MOL0     C68354   5.539   1.323   6.100  0.1734  0.2269 -0.2969
  507MOL0    Cl68355   5.391   1.420   6.130 -0.6199 -0.1744  0.0649
  507MOL0     C68356   6.608   1.109   6.539 -0.8266 -0.2089 -0.6908
  507MOL0     C68357   6.720   1.070   6.625 -0.1133 -0.4790  0.7293
  507MOL0     O68358   6.960   0.717   6.643 -0.5230 -0.0044  0.1727
  507MOL0     C68359   7.091   0.932   6.902 -0.2068  0.5357  0.3541
  507MOL0     C68360   7.202   0.955   6.981  0.3092  0.6149 -0.7637
  507MOL0     N68361   7.626   0.605   6.713  0.8146 -0.2043 -0.3981
  507MOL0     N68362   7.694   0.656   6.619  0.5733 -0.2985  0.2803
  507MOL0     C68363   8.815   0.617   6.029  0.5959  0.1288 -0.0916
  507MOL0     C68364   8.945   0.598   5.967  0.1285 -0.1880  0.1566
  507MOL0     C68365   9.312   0.503   5.787 -0.5814 -0.3439  0.0806
  507MOL0     C68366   9.358   0.541   5.655  0.0655  0.2239  0.6275
  507MOL0     C68367   9.490   0.515   5.625 -0.2688  0.9209  0.6265
  507MOL0     C68368   9.577   0.448   5.714 -0.0356  0.0149  0.0954
  507MOL0     O68369   9.705   0.420   5.678 -0.5740  0.2565 -0.0850
  507MOL0     C68370   9.763   0.473   5.557  0.0141  0.0269 -0.2712
  507MOL0     C68371   9.903   0.413   5.548 -0.4810  0.5839  0.3443
  507MOL0     C68372   9.995   0.462   5.436  0.5638 -0.4619  0.1383
  507MOL0     C68373  10.137   0.419   5.463 -0.8590  0.9695 -0.5985
  507MOL0     C68374  10.221   0.432   5.342 -0.5590 -0.6013  0.0944
  507MOL0     C68375  10.277   0.446   5.237 -0.0794  0.1342  0.1255
  507MOL0     C68376   9.535   0.430   5.849 -0.2984  0.0635  0.5194
  507MOL0     C68377   9.402   0.459   5.890 -0.0156 -0.0398  0.1695
  507MOL0     H68378   8.995   0.279   6.052  0.2719 -1.7506 -3.8874
  507MOL0     H68379   8.764   0.298   6.133  0.9258 -0.5546  0.2360
  507MOL0     H68380   8.491   0.469   6.043  0.8143 -4.0718  0.8284
  507MOL0     H68381   8.545   0.377   6.188 -0.1701 -0.7154  0.1018
  507MOL0     H68382   8.325   0.510   6.232  0.6802 -2.9222  1.8882
  507MOL0     H68383   8.458   0.548   6.337 -1.4372 -0.4921  0.5110
  507MOL0     H68384   8.485   0.765   6.195 -0.6348  0.0763 -1.6046
  507MOL0     H68385   8.343   0.712   6.104  1.6971 -2.5355 -2.2721
  507MOL0     H68386   8.365   0.764   6.406 -0.0488 -0.3436 -0.5923
  507MOL0     H68387   8.325   0.890   6.282  0.2846 -0.1029 -0.0091
  507MOL0     H68388   8.117   0.843   6.317  0.5743  0.0404  1.6474
  507MOL0     H68389   8.135   0.696   6.225 -2.1638  1.5477 -0.0629
  507MOL0     H68390   8.195   0.583   6.427 -1.2886 -0.7810 -0.1631
  507MOL0     H68391   8.180   0.729   6.528 -2.3140 -0.6978  1.3386
  507MOL0     H68392   7.933   0.615   6.400  0.2637 -5.0380  1.6814
  507MOL0     H68393   8.006   0.540   6.538  1.2706  0.5981  0.7299
  507MOL0     H68394   7.899   0.813   6.529 -0.4904 -1.0185 -1.7102
  507MOL0     H68395   8.009   0.759   6.650  1.1931  1.9510 -2.1608
  507MOL0     H68396   7.925   0.616   6.839 -0.4217  2.8345  0.6765
  507MOL0     H68397   7.566   0.530   6.981  0.8609 -2.0034  3.4550
  507MOL0     H68398   7.729   0.464   6.995 -1.6989 -1.8110 -3.0348
  507MOL0     H68399   7.813   0.707   7.027 -0.4602  1.8675 -1.4248
  507MOL0     H68400   7.711   0.633   7.148 -2.0991 -1.6572 -0.7491
  507MOL0     H68401   7.614   0.817   6.920  2.0183 -1.1663 -0.0639
  507MOL0     H68402   7.667   0.886   7.071 -0.9845  2.6000 -0.2803
  507MOL0     H68403   7.515   0.767   7.204  0.8452  0.8849 -0.2747
  507MOL0     H68404   7.432   0.685   7.073 -1.4584  0.7408 -0.5104
  507MOL0     H68405   7.409   0.717   6.863  0.1626 -1.4003 -0.1704
  507MOL0     H68406   7.161   0.588   6.669 -0.0424  0.7405 -1.2044
  507MOL0     H68407   7.225   0.721   6.572  1.5081 -0.9109 -0.8124
  507MOL0     H68408   7.334   0.626   6.676  2.1442  2.9502 -0.6266
  507MOL0     H68409   6.764   0.751   6.500  0.1372 -0.4290 -1.5576
  507MOL0     H68410   6.597   0.827   6.364  1.0076 -0.7364  0.7216
  507MOL0     H68411   6.344   1.120   6.507 -2.0936 -2.4444 -0.5633
  507MOL0     H68412   6.428   1.231   6.385 -1.2572 -0.5962 -0.2779
  507MOL0     H68413   6.275   1.172   6.209  0.1456 -2.8101 -1.5006
  507MOL0     H68414   6.224   1.026   6.311  0.8243 -0.0123  1.1815
  507MOL0     H68415   6.137   1.310   6.382  0.3556  0.8613 -0.2759
  507MOL0     H68416   6.090   1.155   6.450  2.5403  0.3321 -0.0080
  507MOL0     H68417   6.065   1.234   6.164 -0.9245  0.3623  0.5128
  507MOL0     H68418   5.995   1.087   6.246 -2.5983 -0.2624 -0.0276
  507MOL0     H68419   5.899   1.375   6.306  0.4018 -0.5050 -2.5600
  507MOL0     H68420   5.831   1.239   6.383 -1.4811 -1.0929 -0.3344
  507MOL0     H68421   5.812   1.296   6.078  2.8573 -2.4103 -0.4802
  507MOL0     H68422   5.753   1.149   6.151  3.8289 -1.0566  4.6046
  507MOL0     H68423   5.662   1.445   6.225 -0.4012  0.7388 -0.8520
  507MOL0     H68424   5.589   1.294   6.299  1.0030 -3.0918 -1.3779
  507MOL0     H68425   5.511   1.220   6.078 -1.5030  0.0527  2.2051
  507MOL0     H68426   5.580   1.371   6.011  0.4278  1.6413  0.5522
  507MOL0     H68427   6.569   1.210   6.541 -2.8166 -0.9162 -0.9372
  507MOL0     H68428   6.776   1.134   6.693  2.5969 -0.9322 -0.9297
  507MOL0     H68429   7.003   0.995   6.907 -0.5888  0.1325 -0.8563
  507MOL0     H68430   7.195   1.050   7.034  0.4811  0.1035  0.1967
  507MOL0     H68431   8.769   0.715   6.032  1.2996  0.4510  0.6679
  507MOL0     H68432   8.997   0.686   5.927  0.9235  0.7757  3.0883
  507MOL0     H68433   9.302   0.585   5.573 -0.3154 -0.2489  0.6327
  507MOL0     H68434   9.524   0.525   5.522  2.2925 -0.7924  1.2156
  507MOL0     H68435   9.706   0.448   5.467 -3.5210  1.0288  1.4949
  507MOL0     H68436   9.779   0.581   5.565  3.1574 -0.2025 -1.8743
  507MOL0     H68437   9.887   0.306   5.528 -1.9193  0.6715  0.8582
  507MOL0     H68438   9.936   0.426   5.652 -4.5898 -1.5977  2.1644
  507MOL0     H68439   9.993   0.570   5.419 -1.1154 -0.0230  2.5774
  507MOL0     H68440   9.943   0.419   5.350 -0.0955  1.5748 -0.5391
  507MOL0     H68441  10.144   0.314   5.495 -2.3755  0.1665 -2.6649
  507MOL0     H68442  10.179   0.487   5.538  2.1161  1.2918 -2.3946
  507MOL0     H68443  10.313   0.469   5.139 -0.9336  1.7379  0.1527
  507MOL0     H68444   9.602   0.395   5.926 -1.1235  0.9894  1.6992
  507MOL0     H68445   9.370   0.431   5.990  1.1679 -2.7979 -0.1413
  508MOL0     O68446  10.643   2.603   7.844  0.0902  0.2672  0.0053
  508MOL0     C68447  10.659   2.483   7.867  0.0476  0.5107  0.4029
  508MOL0     O68448  10.763   2.426   7.947 -0.2624  0.7229  0.1071
  508MOL0     C68449  10.894   2.478   7.952 -0.2576 -0.2600 -1.1275
  508MOL0     C68450  10.977   2.418   8.046  0.3025 -0.7990 -0.3408
  508MOL0     C68451  11.111   2.462   8.083  0.6308  0.8550 -0.0057
  508MOL0     C68452  11.155   2.576   8.017 -0.4046  0.4081  0.3560
  508MOL0     O68453  11.273   2.635   8.044  0.1578  0.0630 -0.0616
  508MOL0     C68454  11.390   2.552   8.059 -0.3524 -0.0687  0.2252
  508MOL0     C68455  11.400   2.451   7.942 -0.2897 -0.0955  0.3278
  508MOL0     C68456  11.537   2.383   7.943 -0.7384  0.5143  0.3325
  508MOL0     C68457  11.603   2.339   8.080  0.4127 -1.0603 -0.5771
  508MOL0     C68458  11.715   2.240   8.072 -0.3914  0.1948 -0.3677
  508MOL0     C68459  11.838   2.289   7.987 -0.0400 -0.1839 -0.4539
  508MOL0     C68460  11.935   2.389   8.061 -0.7684  0.5735 -0.1466
  508MOL0     C68461  12.073   2.383   7.988  0.0920 -0.3886  1.1017
  508MOL0     N68462  12.155   2.258   8.014 -1.1357 -0.3282 -0.5643
  508MOL0     C68463  12.218   2.218   8.132 -0.1237  0.7870  1.0026
  508MOL0     C68464  12.278   2.099   8.090 -0.3096 -0.9989 -0.7982
  508MOL0     C68465  12.379   2.021   8.164  0.6800 -0.3079 -0.1401
  508MOL0     C68466  12.340   2.039   8.320 -0.2778 -0.2959  0.3570
  508MOL0     C68467  12.376   1.902   8.395  1.0961 -0.2674 -0.0024
  508MOL0     C68468  12.522   1.863   8.372 -0.6551 -0.3193 -0.0071
  508MOL0     O68469  12.563   1.742   8.433  0.6211  0.2148 -0.3082
  508MOL0     C68470  12.702   1.727   8.432 -0.7444 -0.8820  0.6965
  508MOL0     C68471  12.740   1.604   8.481 -0.0942  0.0826 -0.3155
  508MOL0     C68472  12.878   1.560   8.492  0.6520  0.6979 -0.0310
  508MOL0     C68473  12.902   1.422   8.546  0.2346 -0.4713 -0.4210
  508MOL0     C68474  12.984   1.645   8.462  0.4284  0.2169  0.2461
  508MOL0     C68475  13.126   1.599   8.464  0.0916 -0.6889  0.5620
  508MOL0     O68476  13.169   1.502   8.551  0.2825  0.0519 -0.2121
  508MOL0     C68477  13.296   1.449   8.531  0.6551  0.1147  0.6622
  508MOL0     C68478  13.397   1.541   8.564 -0.0777  0.0786  0.7340
  508MOL0     C68479  13.531   1.497   8.559 -0.5567 -0.8863 -0.1103
  508MOL0     C68480  13.563   1.375   8.521 -0.2771 -0.3050  0.4866
  508MOL0     O68481  13.696   1.314   8.510 -0.2921 -0.6910 -0.2596
  508MOL0     C68482  13.810   1.370   8.586  0.1807 -0.3495 -0.2934
  508MOL0     C68483  13.925   1.401   8.502  0.8193 -0.9461  0.0411
  508MOL0     C68484  14.038   1.444   8.592  0.4614 -0.1221 -0.3200
  508MOL0     C68485  14.166   1.479   8.516  0.6522 -0.5114 -0.0315
  508MOL0     C68486  14.289   1.487   8.607  0.2134  0.0861  0.3969
  508MOL0     C68487  14.301   1.617   8.688  0.1191  0.8045 -0.8006
  508MOL0     C68488  14.445   1.641   8.743 -1.0781  0.4121 -0.3645
  508MOL0     C68489  14.468   1.655   8.895 -1.0947  0.1825  0.0509
  508MOL0    Cl68490  14.641   1.709   8.914  0.1482  0.4563  0.2025
  508MOL0     C68491  13.456   1.292   8.484 -0.4496  0.1021 -0.4876
  508MOL0     C68492  13.322   1.318   8.489  0.0422 -0.0672  0.5090
  508MOL0     O68493  13.199   1.668   8.395 -1.0177  0.1980  0.3394
  508MOL0     C68494  12.944   1.773   8.418 -0.3623  0.2257 -0.6657
  508MOL0     C68495  12.809   1.807   8.402  0.1646 -1.1145  0.4300
  508MOL0     N68496  12.258   2.092   7.945 -0.3902  0.5764  0.2904
  508MOL0     N68497  12.190   2.180   7.908  0.5802 -0.2522  0.7896
  508MOL0     C68498  11.081   2.629   7.906  0.7639 -0.1011  0.3168
  508MOL0     C68499  10.951   2.587   7.883  0.7024  0.7608 -0.3542
  508MOL0     C68500  10.531   2.405   7.844 -0.5117 -0.0943  0.0895
  508MOL0     C68501  10.416   2.466   7.826  0.4995  0.3819 -0.0240
  508MOL0     C68502  10.293   2.394   7.810 -1.3701  0.9729  0.1133
  508MOL0     C68503  10.291   2.252   7.831  0.9487 -0.3573 -0.1234
  508MOL0     O68504  10.170   2.182   7.842  0.2878  0.4909 -0.9980
  508MOL0     C68505  10.166   2.061   7.918  1.2365 -0.2312  0.0045
  508MOL0     C68506  10.027   2.019   7.974 -0.4038 -0.4089 -0.1769
  508MOL0     C68507  10.013   2.066   8.122  0.7421 -0.2210 -0.0219
  508MOL0     C68508   9.876   2.037   8.194 -0.1144 -0.1234 -0.4778
  508MOL0     C68509   9.832   1.899   8.189  0.2626 -0.0898 -0.3769
  508MOL0     C68510   9.800   1.785   8.171  0.0029  0.3480 -0.8483
  508MOL0     C68511  10.413   2.184   7.857 -0.0267  0.4609  0.5025
  508MOL0     C68512  10.528   2.264   7.865 -0.2366  0.3104 -0.1285
  508MOL0     H68513  10.942   2.326   8.092 -2.5108 -0.9065 -2.3966
  508MOL0     H68514  11.169   2.406   8.155 -0.4251 -1.6178 -0.9583
  508MOL0     H68515  11.481   2.614   8.067 -0.7857  0.5606  0.3598
  508MOL0     H68516  11.381   2.511   8.160  2.4771  0.1757  0.6798
  508MOL0     H68517  11.315   2.381   7.937 -0.7378  0.3610  1.3831
  508MOL0     H68518  11.386   2.503   7.846 -0.7751 -0.8752 -0.0367
  508MOL0     H68519  11.532   2.292   7.882  2.2742  1.2575 -1.1680
  508MOL0     H68520  11.612   2.446   7.895  1.2986 -1.8155  0.3007
  508MOL0     H68521  11.663   2.424   8.111  2.7750 -1.8770 -2.6301
  508MOL0     H68522  11.525   2.318   8.154  0.2772  2.7724  0.5767
  508MOL0     H68523  11.756   2.223   8.172  2.1255  5.3897 -0.1472
  508MOL0     H68524  11.683   2.144   8.032 -0.7925 -0.1751  0.7982
  508MOL0     H68525  11.896   2.203   7.954  1.6752  1.3668 -1.6589
  508MOL0     H68526  11.804   2.336   7.894 -1.7172  0.7553  0.5619
  508MOL0     H68527  11.895   2.491   8.062 -0.9896  0.5606  3.5384
  508MOL0     H68528  11.947   2.357   8.164  2.6157 -0.1850 -0.6406
  508MOL0     H68529  12.137   2.466   8.021  0.2438 -1.1712  2.8827
  508MOL0     H68530  12.056   2.396   7.881 -0.7466  0.5576  1.3349
  508MOL0     H68531  12.228   2.260   8.231  2.2481 -0.9021  1.5589
  508MOL0     H68532  12.373   1.916   8.131 -0.2530 -1.2263  2.6224
  508MOL0     H68533  12.479   2.061   8.145  0.0985  1.7318  0.9118
  508MOL0     H68534  12.232   2.041   8.337 -0.2250 -2.6954  1.3473
  508MOL0     H68535  12.396   2.122   8.362  1.5100 -1.6447  0.7552
  508MOL0     H68536  12.314   1.820   8.359 -1.0413 -0.1316  2.9937
  508MOL0     H68537  12.347   1.908   8.501 -1.7274 -5.2126 -0.2047
  508MOL0     H68538  12.587   1.936   8.422 -0.2616 -0.5619 -0.1609
  508MOL0     H68539  12.543   1.855   8.265  1.0488 -2.9151  0.4374
  508MOL0     H68540  12.652   1.545   8.505 -0.8039 -0.2248 -3.2909
  508MOL0     H68541  12.950   1.358   8.471  0.4895 -0.9508  0.1414
  508MOL0     H68542  12.964   1.407   8.635 -0.9312 -2.2654  0.1541
  508MOL0     H68543  12.806   1.379   8.576  0.1822  1.2642  2.1942
  508MOL0     H68544  13.366   1.641   8.591 -1.6869 -0.2023  0.0791
  508MOL0     H68545  13.604   1.576   8.572 -2.1675  0.5175  0.6809
  508MOL0     H68546  13.784   1.455   8.650  0.9192 -0.8289  0.6662
  508MOL0     H68547  13.839   1.290   8.654  1.6229  0.2708 -0.1567
  508MOL0     H68548  13.940   1.306   8.449 -2.4652 -1.4199 -0.2222
  508MOL0     H68549  13.912   1.485   8.433 -0.7352  0.3513  1.8320
  508MOL0     H68550  14.063   1.368   8.666  1.5910  0.2900 -0.2695
  508MOL0     H68551  14.005   1.541   8.630 -0.3915  0.4819 -2.4290
  508MOL0     H68552  14.190   1.412   8.433 -0.7527  2.1123 -2.7111
  508MOL0     H68553  14.153   1.570   8.458 -1.3586 -0.2527  0.7623
  508MOL0     H68554  14.373   1.490   8.538 -0.1217  0.4884 -0.0005
  508MOL0     H68555  14.293   1.407   8.681 -3.5405 -0.5521  0.1277
  508MOL0     H68556  14.269   1.689   8.612 -3.4002  1.2306  0.8803
  508MOL0     H68557  14.226   1.619   8.768 -0.5649  0.9682 -1.4317
  508MOL0     H68558  14.485   1.730   8.693 -1.3491  0.9271  0.3198
  508MOL0     H68559  14.510   1.554   8.736 -0.6091  0.4084  2.8810
  508MOL0     H68560  14.453   1.558   8.942  2.8291 -1.0825 -0.9359
  508MOL0     H68561  14.397   1.728   8.934 -0.7483  1.2880 -1.3000
  508MOL0     H68562  13.485   1.192   8.453  0.4639  0.1761  0.0901
  508MOL0     H68563  13.252   1.242   8.456  2.5020 -1.0952 -2.8809
  508MOL0     H68564  13.022   1.845   8.396  0.0462  0.0341  0.1319
  508MOL0     H68565  12.801   1.897   8.342  2.9458 -0.1460  1.3472
  508MOL0     H68566  11.119   2.716   7.852 -1.8954 -0.1773 -1.9169
  508MOL0     H68567  10.885   2.631   7.809 -0.3713 -0.0110  0.1194
  508MOL0     H68568  10.399   2.574   7.826  0.7160  0.5209  2.9629
  508MOL0     H68569  10.209   2.458   7.787  0.1083  1.9892 -3.1145
  508MOL0     H68570  10.205   1.981   7.855 -0.5897 -3.1132  2.2432
  508MOL0     H68571  10.231   2.066   8.005 -0.7854  1.1700  1.5291
  508MOL0     H68572  10.020   1.910   7.976  0.0660 -0.4431  1.6882
  508MOL0     H68573   9.950   2.044   7.900 -1.2528 -0.4065  0.6899
  508MOL0     H68574  10.029   2.173   8.139 -0.8170 -0.2300  1.8051
  508MOL0     H68575  10.092   2.021   8.182 -0.3776 -0.3865  1.3664
  508MOL0     H68576   9.799   2.110   8.168 -0.4545 -0.6754 -1.0782
  508MOL0     H68577   9.903   2.068   8.295 -0.4222  0.9542 -0.7122
  508MOL0     H68578   9.751   1.690   8.168 -1.8739  1.1912  0.7150
  508MOL0     H68579  10.410   2.077   7.875  0.3560  0.1129 -1.2892
  508MOL0     H68580  10.618   2.208   7.890 -1.0113 -1.4605 -1.0931
  509MOL0     O68581   1.324   8.894   8.930 -0.7244  0.1703 -0.1472
  509MOL0     C68582   1.248   8.991   8.933  1.0637 -0.1205  0.4821
  509MOL0     O68583   1.121   8.981   8.957  0.2961 -0.2451 -0.3347
  509MOL0     C68584   1.053   8.867   8.970  1.4009  0.3245 -0.0438
  509MOL0     C68585   1.058   8.782   9.077  0.6799 -0.1938  0.2792
  509MOL0     C68586   0.979   8.667   9.078 -0.6200  0.9790 -0.2741
  509MOL0     C68587   0.895   8.644   8.973  0.1133  0.5210  0.0238
  509MOL0     O68588   0.806   8.539   8.963  0.5536  0.3188 -0.1152
  509MOL0     C68589   0.798   8.450   9.063 -0.3841 -0.1395  0.8708
  509MOL0     C68590   0.705   8.333   9.052  0.0394 -0.3473  1.0270
  509MOL0     C68591   0.774   8.220   8.978 -0.3936  0.3868  0.3051
  509MOL0     C68592   0.870   8.251   8.853 -0.4702  1.0107  0.5338
  509MOL0     C68593   0.892   8.118   8.769 -0.6666 -0.1383  0.2168
  509MOL0     C68594   0.976   8.005   8.843 -0.4546 -0.2472 -1.8675
  509MOL0     C68595   1.111   8.073   8.885 -0.9903 -0.5793 -1.1454
  509MOL0     C68596   1.228   7.970   8.892 -0.0079 -0.5836 -0.6401
  509MOL0     N68597   1.342   8.023   8.959  0.1525  0.0775 -0.4706
  509MOL0     C68598   1.348   8.085   9.082 -0.1681  0.4134  0.6279
  509MOL0     C68599   1.481   8.109   9.102  1.0031 -0.0425 -0.4004
  509MOL0     C68600   1.535   8.156   9.236 -0.1179  0.2266 -0.3450
  509MOL0     C68601   1.568   8.042   9.333 -0.6872 -0.0917 -0.0079
  509MOL0     C68602   1.715   8.002   9.301 -0.7989  0.4346  0.5983
  509MOL0     C68603   1.749   7.867   9.359 -0.4443  0.3291 -0.2432
  509MOL0     O68604   1.743   7.887   9.500 -0.1122  0.7939  0.0972
  509MOL0     C68605   1.845   7.824   9.568 -0.0530  0.0409 -0.4719
  509MOL0     C68606   1.840   7.693   9.585  0.4731 -0.2650 -0.4253
  509MOL0     C68607   1.946   7.621   9.639  0.3914 -0.5128 -0.2883
  509MOL0     C68608   1.932   7.476   9.680 -0.7391 -0.2611 -0.8579
  509MOL0     C68609   2.060   7.692   9.682 -0.0896  0.6362 -0.0130
  509MOL0     C68610   2.189   7.632   9.742  0.6325  0.3255 -0.6678
  509MOL0     O68611   2.227   7.509   9.681  0.4958 -0.7312 -0.3151
  509MOL0     C68612   2.349   7.447   9.707 -0.4120  0.4614  0.1294
  509MOL0     C68613   2.343   7.309   9.742  1.2264  0.3544  1.1050
  509MOL0     C68614   2.458   7.236   9.759  0.0109  0.3749 -0.4304
  509MOL0     C68615   2.583   7.290   9.750 -0.4723  0.6326  0.0092
  509MOL0     O68616   2.706   7.235   9.791 -0.4311 -0.4779 -0.1300
  509MOL0     C68617   2.731   7.096   9.776  0.1032  0.9298  0.4881
  509MOL0     C68618   2.711   7.032   9.914 -0.2230  0.9060  0.0087
  509MOL0     C68619   2.683   6.881   9.891 -0.2437  0.1856 -0.3124
  509MOL0     C68620   2.677   6.805  10.030 -0.2038 -0.4299 -0.5174
  509MOL0     C68621   2.549   6.826  10.104  0.8783 -0.6577 -0.7875
  509MOL0     C68622   2.545   6.764  10.244  0.2513 -0.7800 -0.3561
  509MOL0     C68623   2.422   6.795  10.330 -0.4590 -0.4634 -0.3028
  509MOL0     C68624   2.293   6.724  10.286 -0.4040  0.0730  0.1156
  509MOL0    Cl68625   2.154   6.737  10.389  0.8423 -0.2367 -0.5909
  509MOL0     C68626   2.591   7.426   9.708 -0.3872  0.4423  0.6090
  509MOL0     C68627   2.479   7.507   9.685 -0.1893 -0.0209 -0.3470
  509MOL0     O68628   2.261   7.699   9.816 -0.3644 -0.0493 -0.0180
  509MOL0     C68629   2.062   7.831   9.673 -0.1513  0.2549 -0.1589
  509MOL0     C68630   1.958   7.890   9.616  0.9095  0.6743 -0.2583
  509MOL0     N68631   1.551   8.062   8.997  0.4434  0.5200 -0.3527
  509MOL0     N68632   1.471   8.001   8.914  0.7165 -0.1343 -0.2340
  509MOL0     C68633   0.877   8.735   8.868  0.0267  0.5156 -0.1205
  509MOL0     C68634   0.948   8.852   8.873  0.6337  0.3047  0.5328
  509MOL0     C68635   1.305   9.116   8.916 -0.6977  0.0355  0.1915
  509MOL0     C68636   1.215   9.222   8.870 -0.1979 -0.3826  0.9929
  509MOL0     C68637   1.265   9.349   8.847 -0.6884  0.4427 -0.0341
  509MOL0     C68638   1.406   9.381   8.882  0.4365  0.1045 -0.0938
  509MOL0     O68639   1.457   9.502   8.886  0.7601  0.1773 -0.5626
  509MOL0     C68640   1.370   9.607   8.851 -0.2223  0.6094 -0.1420
  509MOL0     C68641   1.419   9.748   8.869  0.4069  0.0605  0.2870
  509MOL0     C68642   1.548   9.770   8.788  0.3264  0.2708 -0.3083
  509MOL0     C68643   1.603   9.916   8.813 -0.2043  0.0489  0.1212
  509MOL0     C68644   1.616   9.954   8.957  0.0370  0.3555  0.1261
  509MOL0     C68645   1.619   9.989   9.072  0.3701 -0.6077 -0.2090
  509MOL0     C68646   1.485   9.282   8.942 -0.0904  1.4428  0.3215
  509MOL0     C68647   1.442   9.147   8.946  0.2006 -0.1285  0.2247
  509MOL0     H68648   1.120   8.803   9.164  0.8245  3.4982 -0.5459
  509MOL0     H68649   1.003   8.586   9.146  1.7856 -0.4708 -2.6393
  509MOL0     H68650   0.890   8.401   9.094  0.3547  1.4289  1.2219
  509MOL0     H68651   0.765   8.512   9.147 -2.8649  2.8034 -2.0208
  509MOL0     H68652   0.655   8.298   9.143 -0.1237 -0.7411  0.7915
  509MOL0     H68653   0.631   8.370   8.980 -0.7363 -3.3596  0.1057
  509MOL0     H68654   0.831   8.153   9.042  0.8640  3.3450  2.5346
  509MOL0     H68655   0.692   8.165   8.930  0.0618 -2.0263  2.1174
  509MOL0     H68656   0.827   8.331   8.792 -1.4133 -0.6854 -1.1469
  509MOL0     H68657   0.960   8.298   8.893  1.6109 -0.9372 -1.5563
  509MOL0     H68658   0.798   8.070   8.741 -0.1947 -0.4473 -0.8849
  509MOL0     H68659   0.943   8.154   8.679 -1.1327 -0.5587 -0.2148
  509MOL0     H68660   0.930   7.983   8.940  2.3385 -2.2042 -0.8615
  509MOL0     H68661   0.987   7.908   8.793  1.2341 -1.0159 -0.1111
  509MOL0     H68662   1.151   8.143   8.811 -0.5154 -4.1463 -4.5602
  509MOL0     H68663   1.106   8.101   8.991  0.6971 -3.5113 -0.1908
  509MOL0     H68664   1.257   7.948   8.789  3.8919 -2.3281  0.6273
  509MOL0     H68665   1.205   7.877   8.944  0.5848 -0.2499  0.2522
  509MOL0     H68666   1.267   8.104   9.152 -0.4465 -1.8201  0.9921
  509MOL0     H68667   1.627   8.214   9.228 -0.2351  0.7162  1.4174
  509MOL0     H68668   1.462   8.213   9.293  0.7726 -1.8509  3.1890
  509MOL0     H68669   1.490   7.968   9.314 -1.1198  0.2866  0.2668
  509MOL0     H68670   1.569   8.074   9.437 -1.3916 -3.1218  1.0125
  509MOL0     H68671   1.791   8.073   9.335  0.0336 -0.9176  1.6743
  509MOL0     H68672   1.728   7.993   9.193  0.1285 -3.4151  0.8813
  509MOL0     H68673   1.847   7.834   9.323 -0.1150 -0.3662  1.1969
  509MOL0     H68674   1.684   7.787   9.324  0.8278 -1.7644  1.8738
  509MOL0     H68675   1.749   7.639   9.561  0.4433 -0.9396  1.1300
  509MOL0     H68676   1.841   7.431   9.640 -1.8313  1.7051 -0.7244
  509MOL0     H68677   2.009   7.408   9.643 -1.1475 -1.3326  0.1821
  509MOL0     H68678   1.923   7.474   9.789  1.1685 -0.2719 -0.6538
  509MOL0     H68679   2.247   7.266   9.770  0.9494  1.0841  1.3003
  509MOL0     H68680   2.453   7.134   9.796  1.6336  0.1614 -0.7174
  509MOL0     H68681   2.670   7.047   9.699  1.3105  1.6944 -1.0191
  509MOL0     H68682   2.830   7.075   9.736 -1.4328 -4.9473 -1.2959
  509MOL0     H68683   2.800   7.052   9.975 -1.3868  2.5956  1.2496
  509MOL0     H68684   2.624   7.063   9.972  0.9186  2.4449  0.9810
  509MOL0     H68685   2.758   6.833   9.828 -1.3510 -0.6619 -1.0399
  509MOL0     H68686   2.587   6.871   9.838  1.0421 -1.8108 -2.4416
  509MOL0     H68687   2.672   6.696  10.024 -3.9055 -0.3589 -1.2248
  509MOL0     H68688   2.760   6.845  10.089 -1.3965  1.6209 -0.1027
  509MOL0     H68689   2.468   6.796  10.037 -1.6866  3.7304 -0.0217
  509MOL0     H68690   2.526   6.932  10.118 -0.7775 -1.0008 -0.7027
  509MOL0     H68691   2.563   6.656  10.234  1.2796 -0.4473 -2.9312
  509MOL0     H68692   2.625   6.807  10.305 -2.1315  1.9859  0.9995
  509MOL0     H68693   2.402   6.902  10.334 -1.7911 -0.7059  0.0093
  509MOL0     H68694   2.458   6.746  10.421  1.8360 -0.4115 -1.1042
  509MOL0     H68695   2.314   6.618  10.268 -0.7273 -0.2568  1.5497
  509MOL0     H68696   2.264   6.777  10.195  0.7626  1.6765  0.6344
  509MOL0     H68697   2.694   7.458   9.697  0.5395 -3.0838 -3.4342
  509MOL0     H68698   2.498   7.608   9.651 -0.4419  0.3297  0.5327
  509MOL0     H68699   2.144   7.887   9.716  0.7107 -1.5267  0.5974
  509MOL0     H68700   1.963   7.999   9.615 -1.5409  0.9707  2.9121
  509MOL0     H68701   0.805   8.728   8.787 -0.5542  2.2455  0.2014
  509MOL0     H68702   0.923   8.923   8.795 -0.4335 -0.8395 -0.2122
  509MOL0     H68703   1.109   9.209   8.847 -0.1581  0.5918  0.2164
  509MOL0     H68704   1.199   9.429   8.814  2.1396  2.9357 -0.0287
  509MOL0     H68705   1.366   9.592   8.743 -0.1264  0.9221 -0.1919
  509MOL0     H68706   1.267   9.599   8.887 -0.1998  0.4974 -0.1033
  509MOL0     H68707   1.438   9.772   8.974  0.5064  2.5636 -0.2511
  509MOL0     H68708   1.335   9.810   8.838 -0.0130  0.6721  2.4868
  509MOL0     H68709   1.526   9.763   8.681  0.1788 -0.3035 -0.2420
  509MOL0     H68710   1.621   9.692   8.808  1.3217  0.6489 -2.1677
  509MOL0     H68711   1.536   9.990   8.770  0.5340  1.8985  1.9952
  509MOL0     H68712   1.697   9.923   8.757 -1.6136 -3.2944 -3.0695
  509MOL0     H68713   1.618  10.041   9.165  1.2740  2.0739 -1.5819
  509MOL0     H68714   1.584   9.309   8.976  0.2121  1.4938 -0.5796
  509MOL0     H68715   1.491   9.059   8.984 -3.1023 -2.4686 -0.4314
  510MOL0     O68716   4.688   1.817   6.640  0.0955 -0.7960  0.1373
  510MOL0     C68717   4.700   1.804   6.760  0.7796  0.5473 -0.1583
  510MOL0     O68718   4.696   1.683   6.817 -0.8461  0.0951  0.5033
  510MOL0     C68719   4.684   1.569   6.736  0.2974 -0.4062  0.1759
  510MOL0     C68720   4.551   1.532   6.706 -0.6993 -0.4146  0.1567
  510MOL0     C68721   4.529   1.414   6.638  0.4544  0.5323  0.9161
  510MOL0     C68722   4.636   1.332   6.597  0.5235  0.0674  0.0426
  510MOL0     O68723   4.608   1.208   6.545 -0.6078  0.7887 -0.3898
  510MOL0     C68724   4.478   1.141   6.572 -0.2106  0.2343 -0.1689
  510MOL0     C68725   4.499   0.992   6.544  1.0918  0.2983  0.2584
  510MOL0     C68726   4.494   0.957   6.398 -1.0701 -0.2317  1.5007
  510MOL0     C68727   4.492   0.804   6.386 -0.2969 -0.3018  0.4965
  510MOL0     C68728   4.495   0.747   6.238  0.0309 -0.1573 -0.9103
  510MOL0     C68729   4.496   0.597   6.227 -0.8696  1.0235 -0.3639
  510MOL0     C68730   4.541   0.560   6.079 -0.3594  0.0325 -1.1106
  510MOL0     C68731   4.439   0.603   5.983  0.8537  0.1297  0.8387
  510MOL0     N68732   4.470   0.542   5.855 -0.6328 -0.0585  0.6194
  510MOL0     C68733   4.492   0.412   5.828 -0.1881  0.1802  0.2016
  510MOL0     C68734   4.499   0.398   5.697 -0.2700 -1.3515  0.3407
  510MOL0     C68735   4.532   0.273   5.628 -0.2374  0.1465 -0.2110
  510MOL0     C68736   4.681   0.292   5.574 -0.0241  0.6437 -0.5476
  510MOL0     C68737   4.783   0.344   5.688  0.3868 -0.4464 -0.6919
  510MOL0     C68738   4.929   0.339   5.664 -1.0734  0.1962  0.1847
  510MOL0     O68739   4.970   0.205   5.646  0.8592  0.6138  0.3046
  510MOL0     C68740   5.078   0.181   5.560 -0.2676 -0.3926  0.5475
  510MOL0     C68741   5.209   0.215   5.603  0.8392 -0.2121 -0.0332
  510MOL0     C68742   5.317   0.211   5.522 -0.2771 -1.6347  1.2229
  510MOL0     C68743   5.455   0.266   5.574  0.1020  0.3978 -0.4411
  510MOL0     C68744   5.303   0.171   5.390 -0.0016  0.1416  0.5118
  510MOL0     C68745   5.411   0.149   5.283 -0.0878 -0.0100 -0.7686
  510MOL0     O68746   5.520   0.237   5.294  0.0707  0.4365  0.2569
  510MOL0     C68747   5.624   0.249   5.205  0.2027  0.3611  0.5528
  510MOL0     C68748   5.615   0.249   5.061  0.1970 -0.3573  0.4643
  510MOL0     C68749   5.726   0.270   4.983  0.2275  1.0942 -0.0941
  510MOL0     C68750   5.853   0.287   5.037  0.1020  0.8120 -0.3403
  510MOL0     O68751   5.964   0.307   4.971 -0.7583 -0.1671  0.0287
  510MOL0     C68752   5.960   0.301   4.830 -0.1176 -0.1495 -0.9732
  510MOL0     C68753   6.100   0.336   4.791 -0.1309 -0.2607 -0.7106
  510MOL0     C68754   6.198   0.216   4.817  0.5347 -0.5334  1.4380
  510MOL0     C68755   6.346   0.254   4.788 -0.4178  0.1634 -0.0786
  510MOL0     C68756   6.371   0.268   4.637 -0.4729 -0.1515  0.6744
  510MOL0     C68757   6.403   0.408   4.613 -0.4507  0.3439 -0.8165
  510MOL0     C68758   6.474   0.419   4.482 -0.5099  0.2143  0.2299
  510MOL0     C68759   6.385   0.445   4.376 -0.0698  0.8592 -0.2304
  510MOL0    Cl68760   6.479   0.431   4.220 -0.1920  0.1044 -0.3223
  510MOL0     C68761   5.858   0.290   5.176 -0.1102  0.3757  1.8949
  510MOL0     C68762   5.751   0.264   5.263 -0.4233 -0.2274 -0.7582
  510MOL0     O68763   5.410   0.054   5.201 -0.3148 -0.5813  0.3212
  510MOL0     C68764   5.173   0.137   5.339 -0.6756  0.0831 -0.4445
  510MOL0     C68765   5.070   0.141   5.424 -1.4585 -0.0508 -1.3580
  510MOL0     N68766   4.479   0.523   5.635  0.1113 -0.7558  0.3981
  510MOL0     N68767   4.473   0.610   5.735  0.5189  0.2661 -0.4552
  510MOL0     C68768   4.773   1.369   6.622  0.1889  0.3998  0.0860
  510MOL0     C68769   4.790   1.494   6.685 -0.3081  1.2106  0.3067
  510MOL0     C68770   4.708   1.926   6.846  0.3461  0.4280 -0.4017
  510MOL0     C68771   4.720   2.054   6.797 -0.3880 -0.2761 -0.0781
  510MOL0     C68772   4.723   2.163   6.885  0.5299 -0.2270 -0.0342
  510MOL0     C68773   4.710   2.141   7.022 -0.0107 -0.5013 -0.2614
  510MOL0     O68774   4.725   2.241   7.113 -0.5055  0.1183  0.3529
  510MOL0     C68775   4.741   2.376   7.081  0.0406  0.8307  0.4714
  510MOL0     C68776   4.726   2.443   7.209 -0.3350  0.0960 -0.3608
  510MOL0     C68777   4.726   2.599   7.181  0.1998 -0.7522 -0.9125
  510MOL0     C68778   4.742   2.692   7.308  1.0629  0.4176  0.0064
  510MOL0     C68779   4.876   2.694   7.346  0.6795 -0.1163  1.0127
  510MOL0     C68780   4.992   2.693   7.366 -0.1273 -0.7046 -0.6185
  510MOL0     C68781   4.680   2.016   7.070  0.0129 -0.0967  0.0833
  510MOL0     C68782   4.665   1.912   6.982 -0.9448 -0.7149  0.2139
  510MOL0     H68783   4.469   1.597   6.736 -0.9083 -0.4287 -0.3891
  510MOL0     H68784   4.425   1.415   6.608  0.6487  1.8603  0.1776
  510MOL0     H68785   4.449   1.155   6.677 -0.1820  1.0382 -0.2576
  510MOL0     H68786   4.414   1.201   6.507  1.4843  0.2730 -1.8661
  510MOL0     H68787   4.592   0.960   6.591  0.1422  0.4373  2.3552
  510MOL0     H68788   4.416   0.959   6.608  0.0957  4.0642  1.1758
  510MOL0     H68789   4.413   1.007   6.345  0.6851  0.9553 -0.1973
  510MOL0     H68790   4.590   0.982   6.351 -0.4196 -3.5776  0.7434
  510MOL0     H68791   4.575   0.755   6.438  0.8329 -1.4283 -2.1342
  510MOL0     H68792   4.398   0.759   6.419 -1.3913 -0.5907 -2.6366
  510MOL0     H68793   4.402   0.774   6.186 -0.2037  0.0928 -0.3715
  510MOL0     H68794   4.586   0.765   6.181  2.2344 -2.6893  1.4620
  510MOL0     H68795   4.570   0.551   6.293 -1.3896 -1.2622 -1.2809
  510MOL0     H68796   4.400   0.551   6.252  0.4150 -1.7508 -0.2185
  510MOL0     H68797   4.632   0.613   6.051 -1.3237  1.7900 -1.0374
  510MOL0     H68798   4.556   0.452   6.082 -0.9606 -0.1396 -3.1500
  510MOL0     H68799   4.425   0.711   5.978 -1.3404 -0.1859 -2.2310
  510MOL0     H68800   4.344   0.555   6.009  0.6178  0.0861 -0.0751
  510MOL0     H68801   4.500   0.332   5.901  0.1890  1.0528  1.1467
  510MOL0     H68802   4.545   0.190   5.698  1.4642  2.6980  2.7456
  510MOL0     H68803   4.466   0.255   5.542 -0.8729 -1.1711  0.5228
  510MOL0     H68804   4.678   0.365   5.492 -2.1072  1.7802  0.4549
  510MOL0     H68805   4.716   0.195   5.538  1.0854  0.8789 -0.1393
  510MOL0     H68806   4.761   0.275   5.769  1.7052 -1.9776 -1.5646
  510MOL0     H68807   4.762   0.448   5.714  2.2963 -0.1636 -0.0877
  510MOL0     H68808   4.986   0.379   5.749  0.8606  0.6421 -1.2701
  510MOL0     H68809   4.956   0.400   5.578 -0.3429  1.5251  1.3136
  510MOL0     H68810   5.218   0.257   5.702 -0.9750 -1.2026  0.5830
  510MOL0     H68811   5.448   0.278   5.683 -2.2028 -1.3884 -0.3113
  510MOL0     H68812   5.536   0.198   5.548 -0.1012 -1.0566  2.3647
  510MOL0     H68813   5.487   0.360   5.529  2.3587  0.3110  0.8664
  510MOL0     H68814   5.522   0.265   5.006 -0.3957 -0.7651  1.3275
  510MOL0     H68815   5.719   0.271   4.875  2.8121 -2.5556 -0.4999
  510MOL0     H68816   5.929   0.200   4.803 -0.6103 -0.5900  1.0456
  510MOL0     H68817   5.886   0.370   4.790 -2.7193 -2.3061 -0.1863
  510MOL0     H68818   6.106   0.352   4.683  3.4872 -1.1266 -0.7571
  510MOL0     H68819   6.136   0.427   4.839  0.9408 -2.2383  2.5844
  510MOL0     H68820   6.169   0.129   4.758 -2.1399  0.1525  1.6171
  510MOL0     H68821   6.188   0.197   4.924 -0.3725  0.8971  1.6327
  510MOL0     H68822   6.376   0.342   4.846  0.0667  0.4067 -0.6770
  510MOL0     H68823   6.408   0.172   4.824 -1.3879 -1.3394 -1.6554
  510MOL0     H68824   6.287   0.244   4.571 -2.6733  0.7470  2.9548
  510MOL0     H68825   6.456   0.203   4.616  0.8313  1.9799 -0.9809
  510MOL0     H68826   6.314   0.471   4.629 -0.7281 -0.3432  0.4711
  510MOL0     H68827   6.471   0.450   4.687 -2.0978  0.8257  0.5044
  510MOL0     H68828   6.529   0.327   4.461 -2.5524 -1.4860  1.8085
  510MOL0     H68829   6.547   0.501   4.488  0.5148 -0.7223  0.7805
  510MOL0     H68830   6.370   0.552   4.387 -0.3820  0.9034 -1.0239
  510MOL0     H68831   6.297   0.381   4.373 -0.9847  1.6805  3.8073
  510MOL0     H68832   5.960   0.300   5.212  0.6690 -2.5811  0.7765
  510MOL0     H68833   5.756   0.265   5.371  0.7637  0.6987 -0.7998
  510MOL0     H68834   5.161   0.099   5.238 -2.6952 -0.5572 -0.0056
  510MOL0     H68835   4.967   0.113   5.402 -1.3548 -0.5683 -1.2065
  510MOL0     H68836   4.863   1.315   6.594  0.8646  2.2337 -1.5199
  510MOL0     H68837   4.886   1.530   6.720  0.7290 -1.6460  0.6280
  510MOL0     H68838   4.729   2.071   6.691 -3.3433 -0.8746 -0.4947
  510MOL0     H68839   4.737   2.262   6.842  2.4214 -0.5936 -0.3278
  510MOL0     H68840   4.841   2.389   7.039  0.4178 -2.7659 -0.0997
  510MOL0     H68841   4.663   2.401   7.009 -0.7087  0.5850  1.1856
  510MOL0     H68842   4.809   2.427   7.279 -1.3579 -1.9286  0.4788
  510MOL0     H68843   4.628   2.413   7.249  1.2493 -1.0731  2.9956
  510MOL0     H68844   4.634   2.631   7.132 -1.0546 -1.3916  0.8892
  510MOL0     H68845   4.816   2.611   7.121  1.6971 -5.3336  0.0441
  510MOL0     H68846   4.682   2.639   7.383  0.4813 -0.4858 -1.0710
  510MOL0     H68847   4.713   2.796   7.292 -3.2927 -0.5816  0.1937
  510MOL0     H68848   5.092   2.698   7.403 -0.6380  0.4542  0.6488
  510MOL0     H68849   4.656   2.012   7.176  0.6966 -1.2003  0.2021
  510MOL0     H68850   4.627   1.817   7.019  0.5918 -2.1335 -1.6893
  511MOL0     O68851   8.569   3.800   7.524 -0.2946 -0.7241 -0.1311
  511MOL0     C68852   8.489   3.718   7.575  0.6980  1.0486  0.4394
  511MOL0     O68853   8.500   3.580   7.577 -0.2557  0.0470 -0.2672
  511MOL0     C68854   8.604   3.505   7.521  0.0806 -0.6964  0.7286
  511MOL0     C68855   8.612   3.374   7.554 -0.6503  0.0654  0.5807
  511MOL0     C68856   8.719   3.291   7.521 -0.3222 -0.2706  0.6968
  511MOL0     C68857   8.812   3.341   7.431 -0.4791  0.8923  0.2039
  511MOL0     O68858   8.912   3.255   7.394  0.1349 -0.0518  0.3579
  511MOL0     C68859   8.984   3.284   7.276 -0.1050 -0.1201  0.1630
  511MOL0     C68860   9.097   3.175   7.262 -0.5697  0.1785  0.3015
  511MOL0     C68861   9.037   3.046   7.211 -0.6489  0.1157 -0.4097
  511MOL0     C68862   9.142   2.930   7.217  0.1640  0.1821  0.6580
  511MOL0     C68863   9.071   2.798   7.245 -0.0725  0.2082  0.0019
  511MOL0     C68864   8.975   2.770   7.127  0.5962  0.4238 -0.6550
  511MOL0     C68865   8.923   2.618   7.148  0.2774  0.9182 -0.1260
  511MOL0     C68866   8.811   2.564   7.055  0.6200  0.0992 -0.2284
  511MOL0     N68867   8.878   2.562   6.925  0.0665  0.2251 -0.3016
  511MOL0     C68868   8.935   2.455   6.864 -0.0724  0.3021  0.6069
  511MOL0     C68869   8.945   2.490   6.728  0.3216  0.3053  0.1095
  511MOL0     C68870   9.002   2.404   6.615 -0.2430  0.4100 -0.0310
  511MOL0     C68871   8.909   2.305   6.557 -0.2977 -0.5645  0.0657
  511MOL0     C68872   8.972   2.211   6.446  0.4406 -0.6308 -0.8783
  511MOL0     C68873   9.014   2.074   6.498  0.8519 -1.3746 -0.5127
  511MOL0     O68874   8.906   1.996   6.568 -0.1007  0.2449  0.2401
  511MOL0     C68875   8.943   1.893   6.648 -0.2689 -0.3772 -0.0364
  511MOL0     C68876   9.069   1.835   6.657 -0.2582  0.3552 -0.0181
  511MOL0     C68877   9.099   1.723   6.744 -0.5038  0.2071  0.2663
  511MOL0     C68878   9.235   1.657   6.736  0.0468 -0.1751 -0.4312
  511MOL0     C68879   9.000   1.688   6.840 -0.1500 -0.1252 -0.4665
  511MOL0     C68880   9.026   1.594   6.951 -0.0609  0.4637 -0.9684
  511MOL0     O68881   9.149   1.580   7.000  0.2388  0.0926  0.4496
  511MOL0     C68882   9.177   1.475   7.079 -0.1739  0.7128  1.0383
  511MOL0     C68883   9.286   1.398   7.044  0.2819 -0.0836  0.2547
  511MOL0     C68884   9.325   1.286   7.116  0.3647  0.3255  0.3314
  511MOL0     C68885   9.252   1.252   7.232  0.3174  0.4819 -0.8381
  511MOL0     O68886   9.286   1.144   7.314 -0.1855 -0.1384  0.0962
  511MOL0     C68887   9.322   1.016   7.247 -1.2292 -0.6104 -0.4247
  511MOL0     C68888   9.239   0.893   7.300 -0.0428  0.8655 -0.3172
  511MOL0     C68889   9.090   0.910   7.244  0.4686 -0.3901  0.5924
  511MOL0     C68890   9.008   0.793   7.286 -0.1137  0.2848 -0.5082
  511MOL0     C68891   8.878   0.807   7.226  0.6935  0.0723 -0.1280
  511MOL0     C68892   8.784   0.690   7.269 -0.2728 -0.8989  0.9102
  511MOL0     C68893   8.642   0.713   7.224  0.2011 -0.2603  0.0709
  511MOL0     C68894   8.553   0.600   7.279 -0.5482  0.5622  0.2815
  511MOL0    Cl68895   8.592   0.452   7.197  0.1274  0.3118  0.4640
  511MOL0     C68896   9.137   1.328   7.262  0.1999 -0.3156  0.0273
  511MOL0     C68897   9.105   1.433   7.189 -0.1342 -0.3265  0.8009
  511MOL0     O68898   8.934   1.527   6.984  0.6444 -0.5577  0.8752
  511MOL0     C68899   8.877   1.754   6.834 -0.0178 -0.1398 -0.4708
  511MOL0     C68900   8.842   1.853   6.734 -0.4218  0.2853  0.0478
  511MOL0     N68901   8.894   2.620   6.712  0.2446 -0.7605 -0.5250
  511MOL0     N68902   8.849   2.658   6.831  0.0973 -0.3276  0.1141
  511MOL0     C68903   8.795   3.480   7.371  0.0104 -0.4687  0.0056
  511MOL0     C68904   8.691   3.556   7.417  1.1322  0.3706 -1.1258
  511MOL0     C68905   8.360   3.776   7.625 -0.7243  1.0064  0.1794
  511MOL0     C68906   8.338   3.914   7.620  0.0586  0.6087 -0.2873
  511MOL0     C68907   8.218   3.970   7.677  0.2179  0.0186 -0.2676
  511MOL0     C68908   8.120   3.890   7.728  0.0671 -0.1905  0.3342
  511MOL0     O68909   8.019   3.963   7.787  0.1702 -0.6631  0.2659
  511MOL0     C68910   7.900   3.891   7.804  0.2106 -0.6278  0.1056
  511MOL0     C68911   7.815   3.867   7.666  0.3192 -0.0653 -1.2768
  511MOL0     C68912   7.827   3.972   7.569  0.3166 -0.1405  0.2841
  511MOL0     C68913   7.771   3.933   7.433  0.5603  0.8432 -0.2080
  511MOL0     C68914   7.820   3.810   7.371 -0.6089  0.0515 -0.6088
  511MOL0     C68915   7.859   3.711   7.322 -1.0049  0.8484 -0.8246
  511MOL0     C68916   8.136   3.749   7.720  0.0642  0.0683  0.0118
  511MOL0     C68917   8.259   3.698   7.670  0.0725 -0.1825  0.3528
  511MOL0     H68918   8.544   3.324   7.622  1.7949  0.7658  3.8056
  511MOL0     H68919   8.720   3.185   7.547  0.1659 -0.2209  0.8960
  511MOL0     H68920   8.925   3.272   7.185  0.7466 -0.3085 -0.3774
  511MOL0     H68921   9.036   3.380   7.284  1.7399 -0.8923 -1.6709
  511MOL0     H68922   9.180   3.196   7.194  1.6836 -3.1686  1.7108
  511MOL0     H68923   9.148   3.155   7.357  1.8797  1.7432 -0.5687
  511MOL0     H68924   8.952   3.031   7.278  0.8721  0.9243  1.8131
  511MOL0     H68925   9.004   3.055   7.107 -0.0035 -0.7997 -0.7099
  511MOL0     H68926   9.202   2.912   7.127 -1.4482 -1.7629 -0.1085
  511MOL0     H68927   9.205   2.943   7.306 -1.3944 -0.9431  1.9939
  511MOL0     H68928   9.147   2.720   7.254 -1.8449 -1.7980 -1.4757
  511MOL0     H68929   9.023   2.797   7.343 -0.3575  1.2908 -0.1079
  511MOL0     H68930   8.894   2.844   7.136 -0.2024 -0.6445  1.4306
  511MOL0     H68931   9.027   2.788   7.032 -0.2345 -0.7154 -1.3618
  511MOL0     H68932   9.009   2.552   7.134  0.7446  1.7109 -1.0960
  511MOL0     H68933   8.885   2.617   7.251  1.4235 -1.8438  0.3896
  511MOL0     H68934   8.732   2.640   7.057  1.4428  0.9697 -0.1832
  511MOL0     H68935   8.782   2.460   7.072  1.5472 -0.4148 -1.6378
  511MOL0     H68936   8.948   2.351   6.892 -1.0317 -0.6121 -2.0066
  511MOL0     H68937   9.041   2.459   6.529  1.4969 -0.1483  0.3688
  511MOL0     H68938   9.094   2.355   6.648  1.4559  1.7094 -2.5207
  511MOL0     H68939   8.832   2.356   6.498  0.3580  0.7911  0.3579
  511MOL0     H68940   8.864   2.251   6.641  0.6910 -2.2849 -0.4559
  511MOL0     H68941   9.062   2.254   6.403  0.1449  1.0660  0.1366
  511MOL0     H68942   8.904   2.199   6.361 -1.6768  2.5410  0.2014
  511MOL0     H68943   9.104   2.082   6.559  1.6285 -2.3768 -1.5056
  511MOL0     H68944   9.058   2.017   6.416  1.5730  0.3907 -1.3996
  511MOL0     H68945   9.153   1.853   6.590  2.4689 -2.7383  2.2638
  511MOL0     H68946   9.298   1.667   6.825  0.2129  2.8512 -0.8045
  511MOL0     H68947   9.226   1.550   6.713  1.7510  0.0027 -2.2850
  511MOL0     H68948   9.299   1.698   6.657  1.9032  0.4011  1.2972
  511MOL0     H68949   9.352   1.430   6.964  1.3964  4.6657  2.6908
  511MOL0     H68950   9.418   1.243   7.082  1.5746  0.9260  2.6814
  511MOL0     H68951   9.321   1.024   7.138 -3.0788  0.6483 -0.3721
  511MOL0     H68952   9.426   0.994   7.271 -0.2324  4.4091  0.9776
  511MOL0     H68953   9.278   0.800   7.259  1.1864  0.7974  0.9383
  511MOL0     H68954   9.236   0.888   7.410  0.5087 -1.9185 -0.3784
  511MOL0     H68955   9.083   0.917   7.135 -2.1948 -3.8221  0.3495
  511MOL0     H68956   9.046   1.004   7.279 -3.5076 -2.5971  2.1615
  511MOL0     H68957   9.062   0.699   7.272  2.0489  1.1984  1.1578
  511MOL0     H68958   8.989   0.806   7.393 -0.7977 -0.6573 -0.5096
  511MOL0     H68959   8.887   0.807   7.117 -0.4176  2.0393 -0.2679
  511MOL0     H68960   8.838   0.903   7.258 -0.6719 -0.3808 -0.4287
  511MOL0     H68961   8.834   0.598   7.236 -1.6670 -0.8720 -1.4711
  511MOL0     H68962   8.777   0.682   7.378  0.5526  2.0769  1.2627
  511MOL0     H68963   8.644   0.703   7.115 -0.9991 -2.4918  0.1982
  511MOL0     H68964   8.601   0.812   7.248 -3.2411 -1.7075  0.7144
  511MOL0     H68965   8.449   0.627   7.255 -1.0088 -0.0301  1.5404
  511MOL0     H68966   8.572   0.591   7.386 -0.2663  0.2567  0.2049
  511MOL0     H68967   9.062   1.290   7.331 -0.6361 -1.4150 -1.4254
  511MOL0     H68968   9.027   1.498   7.227  0.8979 -0.4897  3.4018
  511MOL0     H68969   8.796   1.738   6.904 -1.5992 -0.2757 -2.2406
  511MOL0     H68970   8.742   1.890   6.717 -0.7711 -1.3113 -1.7570
  511MOL0     H68971   8.871   3.510   7.300 -1.2897 -2.9905 -2.6206
  511MOL0     H68972   8.695   3.658   7.381 -0.4872  0.8416 -0.0938
  511MOL0     H68973   8.416   3.979   7.583  1.5230  0.6221  2.5347
  511MOL0     H68974   8.204   4.077   7.663  0.6481 -0.1460 -2.2413
  511MOL0     H68975   7.911   3.799   7.863 -0.8111  0.8123  2.7389
  511MOL0     H68976   7.840   3.960   7.865 -0.1659 -0.4483 -0.4577
  511MOL0     H68977   7.714   3.849   7.704  0.8224  0.4480  0.3730
  511MOL0     H68978   7.844   3.769   7.627  0.5856 -0.2469 -0.6440
  511MOL0     H68979   7.933   3.993   7.552 -0.3653  3.6016 -0.0776
  511MOL0     H68980   7.785   4.066   7.607 -0.1817  0.0108 -0.6159
  511MOL0     H68981   7.796   4.018   7.369  2.3912 -0.0225 -0.7142
  511MOL0     H68982   7.664   3.918   7.451  1.1371  0.0079  3.1518
  511MOL0     H68983   7.900   3.618   7.289  1.1389  1.5890 -0.3704
  511MOL0     H68984   8.066   3.674   7.755  1.7003 -1.1235  0.9095
  511MOL0     H68985   8.278   3.591   7.664  2.7190  0.2167  0.3500
  512MOL0     O68986   9.381   7.907   4.218 -0.1261  0.4496 -0.8019
  512MOL0     C68987   9.437   7.795   4.223  0.2106 -0.1366 -0.3141
  512MOL0     O68988   9.569   7.779   4.236 -0.3003  0.8413 -0.6029
  512MOL0     C68989   9.645   7.888   4.241 -0.2966 -0.0578 -0.0954
  512MOL0     C68990   9.669   7.940   4.365 -0.3569 -0.8380  1.0775
  512MOL0     C68991   9.756   8.050   4.389 -0.1304  0.1672  0.4178
  512MOL0     C68992   9.799   8.123   4.276  0.1046  0.0277  0.1575
  512MOL0     O68993   9.847   8.250   4.286  0.4953 -0.4763  0.5591
  512MOL0     C68994   9.759   8.334   4.353  1.5020 -0.5367 -0.4588
  512MOL0     C68995   9.841   8.463   4.354 -1.3966 -0.9096 -0.4927
  512MOL0     C68996   9.905   8.490   4.491 -0.0802  0.5290  0.1030
  512MOL0     C68997   9.988   8.619   4.485 -0.8277  0.0627 -0.6017
  512MOL0     C68998   9.998   8.680   4.623  0.5232  0.4653  0.0321
  512MOL0     C68999  10.027   8.820   4.601 -0.0508  0.4045  0.0040
  512MOL0     C69000  10.104   8.886   4.710 -0.2594 -1.0971  0.1420
  512MOL0     C69001  10.019   8.914   4.820  0.3726 -0.1238 -1.2602
  512MOL0     N69002  10.064   9.022   4.906  0.0075 -0.3626  0.6077
  512MOL0     C69003  10.179   9.025   4.973  1.0498  0.8072  0.8648
  512MOL0     C69004  10.174   9.143   5.039  0.1970  0.7864 -0.1701
  512MOL0     C69005  10.278   9.218   5.115  0.4466  0.3669 -0.0041
  512MOL0     C69006  10.364   9.323   5.041  0.4733 -0.6173 -1.2230
  512MOL0     C69007  10.497   9.348   5.117 -0.4251 -0.0864 -0.3513
  512MOL0     C69008  10.586   9.423   5.016 -0.1615  0.1251 -0.5304
  512MOL0     O69009  10.686   9.488   5.094  0.1605 -0.4387 -0.0046
  512MOL0     C69010  10.811   9.434   5.121 -0.0328 -0.8823 -0.5092
  512MOL0     C69011  10.837   9.309   5.077 -0.2121 -0.1010  0.0980
  512MOL0     C69012  10.966   9.248   5.102 -1.0249  0.0225 -0.3927
  512MOL0     C69013  10.989   9.102   5.063  0.7805 -0.1957  0.1770
  512MOL0     C69014  11.072   9.321   5.163 -0.4185  0.1185 -0.2199
  512MOL0     C69015  11.183   9.242   5.217  0.0236  0.6647  0.1913
  512MOL0     O69016  11.308   9.297   5.216  0.0113 -0.1360 -0.1702
  512MOL0     C69017  11.334   9.396   5.126  0.6845  0.2957 -0.3927
  512MOL0     C69018  11.308   9.383   4.985 -0.0607 -0.1957  0.1879
  512MOL0     C69019  11.338   9.488   4.889 -0.5446  0.0026 -0.2812
  512MOL0     C69020  11.382   9.613   4.938  0.1385  0.1195  0.5157
  512MOL0     O69021  11.377   9.723   4.851 -0.2766  0.3764  0.2238
  512MOL0     C69022  11.259   9.779   4.812  0.0288 -0.5983 -0.3374
  512MOL0     C69023  11.215   9.894   4.917  0.0678  0.7265 -0.9137
  512MOL0     C69024  11.190  10.023   4.855 -0.4807  0.2431  0.9322
  512MOL0     C69025  11.181  10.130   4.966  0.3151  0.3941  0.2512
  512MOL0     C69026  11.167  10.282   4.927  0.0176  0.5462 -0.1487
  512MOL0     C69027  11.289  10.339   4.857  0.1288  0.1266 -0.2157
  512MOL0     C69028  11.276  10.491   4.838  0.7211 -0.0672  0.3408
  512MOL0     C69029  11.335  10.524   4.707 -0.1867 -0.6883 -0.2654
  512MOL0    Cl69030  11.508  10.503   4.720  0.0277 -0.0832 -0.2838
  512MOL0     C69031  11.410   9.621   5.078 -0.7051  0.1618 -0.3029
  512MOL0     C69032  11.393   9.520   5.164  0.0665  0.5547 -0.3074
  512MOL0     O69033  11.159   9.137   5.276 -0.1914  0.3297  0.7060
  512MOL0     C69034  11.043   9.459   5.190 -0.2905  0.6470 -0.0678
  512MOL0     C69035  10.910   9.519   5.170  0.0427  0.3147  1.0414
  512MOL0     N69036  10.058   9.206   5.014  0.3365 -0.1254 -0.4127
  512MOL0     N69037   9.988   9.134   4.934  0.0513 -0.0127 -1.1482
  512MOL0     C69038   9.763   8.076   4.153 -0.7414  0.2527  0.2981
  512MOL0     C69039   9.706   7.951   4.135 -0.1418 -1.1513 -0.3039
  512MOL0     C69040   9.352   7.671   4.218  0.4179  0.3698  1.0057
  512MOL0     C69041   9.214   7.680   4.214  0.0950 -0.4288  0.0400
  512MOL0     C69042   9.142   7.561   4.212 -1.3270 -0.0117  0.1701
  512MOL0     C69043   9.192   7.434   4.214  0.3473  0.5377 -0.0954
  512MOL0     O69044   9.090   7.338   4.213  0.3773 -0.0619 -0.2234
  512MOL0     C69045   9.137   7.207   4.173  0.4579  0.3468 -0.4471
  512MOL0     C69046   9.024   7.113   4.115 -0.0245 -0.5198  0.5764
  512MOL0     C69047   8.899   7.102   4.202 -0.9610  0.4743  0.1652
  512MOL0     C69048   8.830   6.971   4.161 -0.4986 -0.7194  0.1768
  512MOL0     C69049   8.694   6.969   4.222  0.2139  0.8867  0.6569
  512MOL0     C69050   8.586   6.969   4.271  0.3275 -0.6476 -0.6093
  512MOL0     C69051   9.327   7.428   4.217 -0.7864 -0.0955 -0.8483
  512MOL0     C69052   9.405   7.545   4.213 -0.6682  0.4439 -0.5263
  512MOL0     H69053   9.626   7.887   4.450  0.3655  0.4250  2.2750
  512MOL0     H69054   9.790   8.084   4.486  2.0669 -0.1958 -0.1738
  512MOL0     H69055   9.664   8.331   4.300  1.6737 -2.0397 -0.7336
  512MOL0     H69056   9.728   8.303   4.453  1.1049  1.7121  0.1748
  512MOL0     H69057   9.918   8.468   4.277 -0.5161 -0.4977  0.3887
  512MOL0     H69058   9.770   8.544   4.333 -1.9298 -0.6650  1.9102
  512MOL0     H69059   9.826   8.504   4.565 -2.1901 -1.3711 -1.6760
  512MOL0     H69060   9.967   8.402   4.511  3.3158  2.6388 -0.3407
  512MOL0     H69061  10.086   8.598   4.439 -0.2444  0.9711  0.1834
  512MOL0     H69062   9.936   8.682   4.413 -0.0312  0.5776 -0.7459
  512MOL0     H69063   9.898   8.680   4.669  0.3415  0.9040 -0.3584
  512MOL0     H69064  10.063   8.625   4.691 -0.2309 -0.6802 -0.1485
  512MOL0     H69065  10.084   8.831   4.508  0.5623  2.6441  0.5821
  512MOL0     H69066   9.932   8.873   4.593 -0.8078 -0.7608  0.8938
  512MOL0     H69067  10.193   8.831   4.741  1.3621  1.0834 -0.3680
  512MOL0     H69068  10.149   8.977   4.669  0.8653 -1.4804  0.4810
  512MOL0     H69069  10.024   8.819   4.873  1.2450 -0.3188 -1.6638
  512MOL0     H69070   9.918   8.943   4.790  0.4878  1.1317 -0.4921
  512MOL0     H69071  10.259   8.952   4.966 -1.0955 -1.5354 -1.8714
  512MOL0     H69072  10.236   9.263   5.205  0.7987  0.7106 -0.0068
  512MOL0     H69073  10.354   9.147   5.149  1.0736  0.4521 -1.1641
  512MOL0     H69074  10.292   9.406   5.036 -1.6083 -1.8140  3.3299
  512MOL0     H69075  10.374   9.291   4.936 -3.1868 -0.0169 -1.9262
  512MOL0     H69076  10.546   9.257   5.152  1.2050  1.5933  2.0430
  512MOL0     H69077  10.473   9.410   5.204  1.9376  0.4922 -0.0290
  512MOL0     H69078  10.534   9.500   4.957  1.2788 -0.4949 -2.7476
  512MOL0     H69079  10.618   9.355   4.936 -0.2718  0.1591 -0.6044
  512MOL0     H69080  10.756   9.248   5.037 -0.2665 -0.7880  1.2146
  512MOL0     H69081  10.915   9.071   4.988  0.8046 -1.7777  0.7599
  512MOL0     H69082  11.089   9.079   5.025  0.7293 -0.9745  0.4905
  512MOL0     H69083  10.974   9.046   5.156 -2.8642  2.6264  1.5334
  512MOL0     H69084  11.287   9.290   4.933  2.5811 -1.4071  1.1282
  512MOL0     H69085  11.310   9.490   4.784 -0.5152 -1.1697 -0.3336
  512MOL0     H69086  11.256   9.819   4.710 -1.1620 -0.4197 -0.2483
  512MOL0     H69087  11.184   9.699   4.812 -0.0235 -0.6898  2.8612
  512MOL0     H69088  11.125   9.861   4.970  0.0904  1.1063 -0.6375
  512MOL0     H69089  11.293   9.899   4.993 -1.3813 -2.7360  1.0381
  512MOL0     H69090  11.105  10.020   4.787 -0.1005  0.7631  0.4118
  512MOL0     H69091  11.273  10.057   4.792 -1.1926  4.0754  1.8066
  512MOL0     H69092  11.095  10.112   5.031  1.6412 -0.4270  1.8492
  512MOL0     H69093  11.271  10.116   5.027  0.9228  0.1562 -0.6749
  512MOL0     H69094  11.148  10.342   5.016 -0.8100  1.4206 -0.8896
  512MOL0     H69095  11.077  10.289   4.865  0.9117 -2.5640 -1.9856
  512MOL0     H69096  11.381  10.325   4.914  0.9674  1.7307 -1.1048
  512MOL0     H69097  11.287  10.277   4.767 -2.7055  1.5263 -1.2474
  512MOL0     H69098  11.325  10.545   4.919  0.0908 -1.4814  1.7069
  512MOL0     H69099  11.171  10.520   4.829  1.1130  0.9909 -1.2543
  512MOL0     H69100  11.315  10.628   4.678  0.8379 -1.2009 -3.1788
  512MOL0     H69101  11.292  10.464   4.626 -2.4076  0.9471 -0.3973
  512MOL0     H69102  11.445   9.714   5.123  2.3201 -0.4458 -1.1619
  512MOL0     H69103  11.397   9.548   5.269 -2.8088  1.2545 -0.3005
  512MOL0     H69104  11.124   9.527   5.216 -0.3310  0.5965  0.1901
  512MOL0     H69105  10.894   9.625   5.183  1.7206  1.0252 -1.8545
  512MOL0     H69106   9.784   8.130   4.060  1.7201  0.1883  0.7335
  512MOL0     H69107   9.696   7.900   4.040  0.9272 -5.5076  1.6750
  512MOL0     H69108   9.159   7.774   4.209  4.1045  2.1435 -0.2070
  512MOL0     H69109   9.037   7.579   4.233 -1.1290 -1.2667  2.7221
  512MOL0     H69110   9.191   7.227   4.080  0.1257  2.6285 -0.2122
  512MOL0     H69111   9.202   7.159   4.247 -0.5904  1.6205  1.3816
  512MOL0     H69112   9.061   7.013   4.089  2.5995  0.8572 -1.4375
  512MOL0     H69113   8.982   7.157   4.025  3.2435  1.1050 -0.3306
  512MOL0     H69114   8.847   7.198   4.199  2.7307  2.8566  2.9154
  512MOL0     H69115   8.939   7.105   4.304  1.3511  1.7883 -0.6886
  512MOL0     H69116   8.889   6.893   4.210 -0.1713  0.4478  1.7505
  512MOL0     H69117   8.820   6.966   4.053  3.5422 -0.1150 -0.3995
  512MOL0     H69118   8.499   6.985   4.332  1.0455 -1.6716  0.7324
  512MOL0     H69119   9.366   7.328   4.231 -3.4302 -0.6838  5.5750
  512MOL0     H69120   9.512   7.528   4.209 -0.2418  2.9584 -2.3714
  513MOL0     O69121   2.827   4.829   2.267  0.2726  0.4661 -0.0132
  513MOL0     C69122   2.918   4.874   2.203 -0.1068 -0.0543  0.0550
  513MOL0     O69123   2.907   4.973   2.110 -0.6627 -0.5248  0.1106
  513MOL0     C69124   2.775   4.995   2.062 -0.4324  0.1350  0.4044
  513MOL0     C69125   2.737   4.940   1.941 -0.5193  0.9472  0.0837
  513MOL0     C69126   2.604   4.956   1.898  0.5195  0.6797  0.3996
  513MOL0     C69127   2.508   5.014   1.981 -0.1634 -0.1014  0.4531
  513MOL0     O69128   2.377   5.015   1.956 -0.0862  0.8293 -0.5112
  513MOL0     C69129   2.325   4.975   1.823 -0.9313 -0.2527 -0.2128
  513MOL0     C69130   2.167   4.987   1.828 -0.5846  0.1376  0.6216
  513MOL0     C69131   2.107   4.993   1.690 -0.1881 -0.4182  0.7612
  513MOL0     C69132   1.951   5.017   1.710 -0.2433  0.0368  0.3555
  513MOL0     C69133   1.857   4.895   1.711  0.3106 -0.3482 -0.7768
  513MOL0     C69134   1.717   4.931   1.770  1.1133 -0.6343 -0.4880
  513MOL0     C69135   1.632   4.807   1.780 -0.0537  0.6579  0.1376
  513MOL0     C69136   1.498   4.837   1.842 -0.5055  0.1740  0.5325
  513MOL0     N69137   1.395   4.727   1.852 -0.7033 -0.3788  0.5329
  513MOL0     C69138   1.326   4.699   1.974  0.0083 -0.5055  0.3092
  513MOL0     C69139   1.211   4.638   1.934  0.0810 -0.3939  1.4475
  513MOL0     C69140   1.091   4.613   2.009  0.7191 -0.9829  0.1602
  513MOL0     C69141   1.013   4.484   1.963  0.1818  0.2386 -0.0390
  513MOL0     C69142   0.901   4.462   2.056 -0.4919  0.6383 -0.6656
  513MOL0     C69143   0.840   4.320   2.060  0.3152 -0.4484  0.6266
  513MOL0     O69144   0.745   4.321   2.169  0.5402  0.7796 -0.7897
  513MOL0     C69145   0.662   4.216   2.191  0.1895  0.9483 -0.2134
  513MOL0     C69146   0.639   4.121   2.095 -0.1596 -0.3886  0.4490
  513MOL0     C69147   0.543   4.025   2.115 -0.0315  0.5297  0.4266
  513MOL0     C69148   0.530   3.925   1.997  0.3292 -0.8382 -0.4539
  513MOL0     C69149   0.473   4.015   2.239 -0.6340  0.2745  0.2479
  513MOL0     C69150   0.370   3.904   2.267  0.6323  0.2457 -0.3110
  513MOL0     O69151   0.367   3.782   2.202  0.0152  0.7155  0.2468
  513MOL0     C69152   0.260   3.692   2.217  0.9183  0.3248  0.8958
  513MOL0     C69153   0.127   3.724   2.223 -0.1752  0.0411 -0.0563
  513MOL0     C69154   0.026   3.622   2.210 -0.5806  0.6449  0.3776
  513MOL0     C69155   0.063   3.486   2.189  0.0113 -0.1062 -0.7421
  513MOL0     O69156  -0.040   3.393   2.182 -0.0899  0.4423 -0.5638
  513MOL0     C69157  -0.182   3.420   2.196 -0.2833  0.3134  0.2068
  513MOL0     C69158  -0.256   3.280   2.179  0.8554 -0.3671 -0.2588
  513MOL0     C69159  -0.404   3.285   2.228  0.0638 -0.0334 -0.0507
  513MOL0     C69160  -0.490   3.153   2.225  1.0553 -0.3483  0.2494
  513MOL0     C69161  -0.639   3.177   2.250 -0.2379 -0.4742 -0.5548
  513MOL0     C69162  -0.699   3.273   2.145 -0.7799 -0.4541  0.3504
  513MOL0     C69163  -0.856   3.268   2.135 -0.2691  0.3249  0.4964
  513MOL0     C69164  -0.897   3.125   2.108  0.8392  0.8350  0.2030
  513MOL0    Cl69165  -0.791   3.026   2.003 -0.1802  0.2135  0.0150
  513MOL0     C69166   0.197   3.459   2.187 -0.1168  0.3908 -0.7331
  513MOL0     C69167   0.295   3.561   2.197  0.7065 -0.0668  0.9762
  513MOL0     O69168   0.283   3.932   2.353 -0.3658 -0.2819  0.0200
  513MOL0     C69169   0.506   4.111   2.342  0.3046 -0.1071 -0.6999
  513MOL0     C69170   0.596   4.211   2.316 -0.7810  0.4968  0.2713
  513MOL0     N69171   1.227   4.626   1.795 -0.1643  0.5464  0.4496
  513MOL0     N69172   1.325   4.681   1.745 -0.4279 -0.8327  0.0270
  513MOL0     C69173   2.549   5.070   2.101 -0.4905 -0.5161 -0.1160
  513MOL0     C69174   2.684   5.071   2.131 -0.1105 -0.1085  0.3460
  513MOL0     C69175   3.053   4.839   2.237 -1.5944 -1.0265  0.1596
  513MOL0     C69176   3.153   4.877   2.140  0.0129  0.9375  0.6031
  513MOL0     C69177   3.287   4.864   2.185 -0.0287  1.1535  0.5323
  513MOL0     C69178   3.324   4.801   2.304  0.7463  0.0912 -0.1965
  513MOL0     O69179   3.452   4.757   2.321  0.0216  0.4991 -0.7210
  513MOL0     C69180   3.509   4.727   2.450  0.5684  0.2494  0.3808
  513MOL0     C69181   3.515   4.856   2.521  0.1652  0.6105 -0.5309
  513MOL0     C69182   3.575   4.822   2.660  0.9186 -0.3616  0.6579
  513MOL0     C69183   3.580   4.962   2.723 -0.1352  0.0041 -0.0259
  513MOL0     C69184   3.632   4.941   2.863  0.2124 -0.3819  1.1725
  513MOL0     C69185   3.670   4.926   2.978 -0.4782 -0.5406  0.6170
  513MOL0     C69186   3.222   4.760   2.392 -0.0198 -0.4438  1.1489
  513MOL0     C69187   3.089   4.788   2.361 -0.3468 -0.2627 -0.4993
  513MOL0     H69188   2.815   4.875   1.905 -1.8415 -0.7895  0.1988
  513MOL0     H69189   2.574   4.915   1.802  1.1417 -1.7694  1.1674
  513MOL0     H69190   2.372   5.033   1.742 -0.9460 -0.4643 -0.3730
  513MOL0     H69191   2.361   4.874   1.801 -1.7358 -1.0640  1.9626
  513MOL0     H69192   2.127   4.900   1.882  1.1848  0.4234  2.5336
  513MOL0     H69193   2.144   5.078   1.883 -1.8070  1.0284 -1.2882
  513MOL0     H69194   2.148   5.075   1.630  1.9729 -2.4493 -0.7361
  513MOL0     H69195   2.132   4.894   1.650  0.7578  0.2506 -0.3434
  513MOL0     H69196   1.935   5.081   1.797 -0.7632 -0.4345  0.6087
  513MOL0     H69197   1.920   5.079   1.625 -1.0118 -0.4012  0.3049
  513MOL0     H69198   1.859   4.850   1.611  2.8966  2.0602 -1.9479
  513MOL0     H69199   1.898   4.814   1.773  0.0386  0.3351  0.3309
  513MOL0     H69200   1.733   4.987   1.862  0.1351 -1.4653  0.2132
  513MOL0     H69201   1.681   5.002   1.694  3.3831  1.9364  0.6845
  513MOL0     H69202   1.615   4.771   1.678  0.1481 -0.6843  0.5565
  513MOL0     H69203   1.670   4.729   1.846  1.5117 -0.3153 -1.8095
  513MOL0     H69204   1.459   4.926   1.792  3.2016  0.4683 -2.2438
  513MOL0     H69205   1.510   4.872   1.945 -2.0670  0.9584  0.4753
  513MOL0     H69206   1.348   4.732   2.075  1.0921  1.0125 -0.3883
  513MOL0     H69207   1.127   4.613   2.112 -0.0768  0.0702  0.4597
  513MOL0     H69208   1.029   4.703   2.000 -1.8900 -2.8355 -2.1107
  513MOL0     H69209   1.087   4.404   1.968 -1.3465 -1.1310  2.7643
  513MOL0     H69210   0.976   4.490   1.860  1.5575  1.3288 -0.4923
  513MOL0     H69211   0.821   4.537   2.051 -1.2565 -0.1288 -0.0832
  513MOL0     H69212   0.936   4.485   2.157  2.8830  0.9986 -1.7871
  513MOL0     H69213   0.920   4.247   2.072  3.4230  2.8136  1.4006
  513MOL0     H69214   0.789   4.303   1.965 -1.2922 -0.7516  1.4961
  513MOL0     H69215   0.694   4.115   2.002  0.6450 -2.1764  0.9908
  513MOL0     H69216   0.434   3.926   1.945  0.5934  3.2666 -1.1638
  513MOL0     H69217   0.585   3.957   1.909 -1.4014 -0.3064 -1.3762
  513MOL0     H69218   0.564   3.824   2.022 -0.0405 -0.8103  0.2091
  513MOL0     H69219   0.100   3.828   2.239 -3.1753 -1.1679  5.0081
  513MOL0     H69220  -0.079   3.648   2.216 -0.2916  1.5397  3.1430
  513MOL0     H69221  -0.203   3.466   2.293 -1.1226  2.1993 -0.8177
  513MOL0     H69222  -0.213   3.494   2.122 -1.7769 -0.3142  0.1726
  513MOL0     H69223  -0.257   3.237   2.079  1.0736 -0.6397 -0.1462
  513MOL0     H69224  -0.201   3.209   2.243  0.4667 -0.9599 -0.5722
  513MOL0     H69225  -0.450   3.364   2.168  2.0679  2.3827  1.4375
  513MOL0     H69226  -0.411   3.321   2.331 -4.0949  1.9612 -0.8298
  513MOL0     H69227  -0.481   3.117   2.122  3.7998 -1.6600  0.8375
  513MOL0     H69228  -0.455   3.073   2.290  1.1580 -0.3369  0.2088
  513MOL0     H69229  -0.659   3.202   2.355  0.7512  0.1434 -0.5078
  513MOL0     H69230  -0.680   3.075   2.249 -0.5060 -0.5223  2.6760
  513MOL0     H69231  -0.669   3.375   2.168 -0.6720 -0.2847 -0.5128
  513MOL0     H69232  -0.642   3.255   2.053  0.3723 -0.9476  1.1365
  513MOL0     H69233  -0.893   3.316   2.044 -2.4057 -2.1387 -0.0290
  513MOL0     H69234  -0.913   3.311   2.217 -1.3175 -0.3035  0.1178
  513MOL0     H69235  -1.002   3.117   2.076  0.4195 -0.1736  1.6766
  513MOL0     H69236  -0.881   3.066   2.199 -0.1073 -1.6487 -1.1119
  513MOL0     H69237   0.227   3.361   2.150 -0.6026 -0.2175  0.4319
  513MOL0     H69238   0.401   3.542   2.185  0.3049 -2.0550 -0.0080
  513MOL0     H69239   0.462   4.090   2.439 -2.2560 -0.1343 -1.7756
  513MOL0     H69240   0.616   4.274   2.402 -0.2486 -0.2856  0.7381
  513MOL0     H69241   2.477   5.127   2.159  0.4620 -0.7025  1.3224
  513MOL0     H69242   2.710   5.131   2.218 -1.4463 -0.3398  0.9418
  513MOL0     H69243   3.117   4.932   2.054 -1.7265  1.1667  1.4259
  513MOL0     H69244   3.358   4.874   2.104  0.4610 -2.6019  0.2962
  513MOL0     H69245   3.459   4.646   2.503 -1.8173  2.6572  2.0520
  513MOL0     H69246   3.610   4.687   2.434  0.5632  0.9485 -1.7790
  513MOL0     H69247   3.413   4.894   2.533  0.9624  2.0829  2.8033
  513MOL0     H69248   3.570   4.932   2.464  2.6672 -1.7646 -1.5091
  513MOL0     H69249   3.675   4.780   2.645  0.5154 -1.0554 -0.1511
  513MOL0     H69250   3.517   4.745   2.712  1.1012 -1.8715 -1.2567
  513MOL0     H69251   3.483   5.012   2.719  1.8889  4.2891 -2.9904
  513MOL0     H69252   3.649   5.028   2.670 -0.4764 -0.0028 -0.4789
  513MOL0     H69253   3.687   4.890   3.077 -0.7908  3.5050  2.3668
  513MOL0     H69254   3.251   4.703   2.479  1.2041  0.6704  1.5006
  513MOL0     H69255   3.006   4.767   2.428  0.8644 -1.5057  0.6807
  514MOL0     O69256   6.240   2.456   7.731 -0.6143 -0.1902 -0.2890
  514MOL0     C69257   6.281   2.395   7.834 -0.6815 -0.0565 -0.4936
  514MOL0     O69258   6.298   2.449   7.955  0.0941  0.4288  0.2942
  514MOL0     C69259   6.229   2.561   7.993  0.1451  0.5707 -0.1223
  514MOL0     C69260   6.293   2.682   7.982  0.0499 -0.1709  0.2632
  514MOL0     C69261   6.229   2.788   8.020  0.1870 -0.8422  0.2418
  514MOL0     C69262   6.099   2.784   8.080 -0.1041 -0.6276 -0.5064
  514MOL0     O69263   6.050   2.904   8.123  0.6739 -0.3298 -0.3241
  514MOL0     C69264   5.971   2.898   8.243 -0.2506 -0.2596 -0.5754
  514MOL0     C69265   5.956   3.041   8.298  0.3195  0.6779  0.1237
  514MOL0     C69266   6.089   3.110   8.337 -0.3860 -0.1843 -0.8623
  514MOL0     C69267   6.052   3.230   8.433  0.6322  0.2151  0.1043
  514MOL0     C69268   6.179   3.299   8.484 -0.0845 -0.5120 -0.4821
  514MOL0     C69269   6.150   3.434   8.558 -0.3174  0.4656  1.0502
  514MOL0     C69270   6.274   3.486   8.635 -0.7621 -0.4035  0.6628
  514MOL0     C69271   6.322   3.615   8.572 -0.1034 -0.0176  0.4027
  514MOL0     N69272   6.467   3.628   8.596 -0.1248 -0.1293  0.7621
  514MOL0     C69273   6.565   3.539   8.550  0.2779 -1.0905  0.3014
  514MOL0     C69274   6.680   3.567   8.617  1.2224  0.4490 -0.1658
  514MOL0     C69275   6.805   3.500   8.588 -0.7912 -0.1729  1.0081
  514MOL0     C69276   6.907   3.603   8.548  0.0337 -0.4755 -0.3789
  514MOL0     C69277   7.045   3.544   8.577 -0.1353  0.2836  0.9440
  514MOL0     C69278   7.089   3.412   8.494  0.3201  0.2566  0.9346
  514MOL0     O69279   7.023   3.431   8.367  0.1447  1.3671  0.0070
  514MOL0     C69280   7.040   3.337   8.273  0.6974  0.1668  0.1283
  514MOL0     C69281   7.121   3.223   8.291  0.0115  0.1148 -0.5182
  514MOL0     C69282   7.141   3.147   8.186  0.2966  0.6768  0.4893
  514MOL0     C69283   7.239   3.036   8.199 -0.0768  0.0988 -0.6224
  514MOL0     C69284   7.071   3.157   8.068  0.1309  0.4750 -0.5210
  514MOL0     C69285   7.094   3.057   7.964  0.2679  1.5173  0.8759
  514MOL0     O69286   7.191   3.079   7.877 -0.1655 -0.0190 -0.6201
  514MOL0     C69287   7.215   2.990   7.773  0.1117  0.8408  0.6750
  514MOL0     C69288   7.336   2.927   7.767  0.2219  0.2937  0.2923
  514MOL0     C69289   7.369   2.839   7.670 -0.1298  0.5561  1.0655
  514MOL0     C69290   7.290   2.817   7.556 -0.4380 -0.1321  0.5739
  514MOL0     O69291   7.343   2.732   7.461 -0.0514  0.5220  0.1067
  514MOL0     C69292   7.451   2.788   7.384 -0.7665  0.4508  0.5502
  514MOL0     C69293   7.450   2.699   7.256 -0.3327 -0.0313  0.4609
  514MOL0     C69294   7.327   2.718   7.164  0.1174 -0.2115  0.2376
  514MOL0     C69295   7.353   2.658   7.024  0.0229 -0.0434 -0.3447
  514MOL0     C69296   7.238   2.702   6.922  0.5717 -0.4558  0.5294
  514MOL0     C69297   7.102   2.679   6.999 -0.1102 -0.2551  0.3475
  514MOL0     C69298   6.981   2.686   6.907  0.4430  0.4574  0.0990
  514MOL0     C69299   6.862   2.616   6.977 -0.1672  0.1593 -0.0324
  514MOL0    Cl69300   6.714   2.623   6.883  0.4868 -0.1165  0.2338
  514MOL0     C69301   7.163   2.880   7.559 -0.6728 -0.3100 -0.1591
  514MOL0     C69302   7.124   2.956   7.669 -0.3435  0.0971 -1.0230
  514MOL0     O69303   7.036   2.950   7.974 -0.4584 -0.1952 -0.1275
  514MOL0     C69304   6.998   3.270   8.050  0.8306  0.2679  0.2006
  514MOL0     C69305   6.968   3.357   8.156 -0.6354  0.1497 -0.1356
  514MOL0     N69306   6.651   3.682   8.693  0.0189 -0.1161 -0.1784
  514MOL0     N69307   6.525   3.708   8.679 -0.1972 -0.8034 -0.7120
  514MOL0     C69308   6.045   2.663   8.099 -0.3447 -0.1405  0.0522
  514MOL0     C69309   6.102   2.548   8.049  0.1832  0.8084 -0.8623
  514MOL0     C69310   6.317   2.249   7.806  1.0296 -0.0066  0.5229
  514MOL0     C69311   6.306   2.159   7.915  0.4519 -0.4468 -0.0158
  514MOL0     C69312   6.335   2.028   7.885  1.1180  0.0013  1.2760
  514MOL0     C69313   6.399   1.984   7.763 -0.3052 -0.3782  0.0437
  514MOL0     O69314   6.413   1.844   7.750 -0.4332  0.2543 -0.3451
  514MOL0     C69315   6.511   1.799   7.847 -0.0734  0.0728 -0.2712
  514MOL0     C69316   6.539   1.653   7.851 -0.1496  0.1749 -0.5158
  514MOL0     C69317   6.423   1.572   7.931 -0.4203  0.3049  0.2365
  514MOL0     C69318   6.285   1.624   7.899  0.2676  0.1426  0.4445
  514MOL0     C69319   6.186   1.538   7.951  0.3961 -0.9902  0.4422
  514MOL0     C69320   6.107   1.462   8.001 -0.0734  0.2750 -0.2631
  514MOL0     C69321   6.425   2.080   7.670  0.2706  0.8720 -0.2177
  514MOL0     C69322   6.378   2.209   7.688 -0.3816 -0.5468  0.6043
  514MOL0     H69323   6.390   2.689   7.934  0.1042 -2.3755 -0.0650
  514MOL0     H69324   6.269   2.887   7.999 -0.5893 -0.6831 -0.5475
  514MOL0     H69325   5.867   2.872   8.219 -1.0483  3.1964 -1.4397
  514MOL0     H69326   6.019   2.828   8.311  2.0184  0.5039 -1.3154
  514MOL0     H69327   5.895   3.107   8.237 -1.1973 -0.0164  0.8363
  514MOL0     H69328   5.896   3.020   8.387  0.3117 -1.0349 -0.2468
  514MOL0     H69329   6.146   3.041   8.400  2.2240  1.8609 -0.8464
  514MOL0     H69330   6.148   3.139   8.250 -0.5950 -0.4410 -1.0929
  514MOL0     H69331   6.006   3.313   8.379 -1.4228  1.0484  2.8968
  514MOL0     H69332   5.990   3.198   8.517  1.1751 -0.0814  0.4003
  514MOL0     H69333   6.220   3.233   8.560 -1.8874 -0.4215  0.6237
  514MOL0     H69334   6.255   3.315   8.406  1.9115 -2.7029  0.8969
  514MOL0     H69335   6.105   3.505   8.488  2.2169  0.4085 -0.7578
  514MOL0     H69336   6.067   3.427   8.629 -1.4259  2.1446 -0.0079
  514MOL0     H69337   6.270   3.489   8.744 -0.6005  1.8861  0.6397
  514MOL0     H69338   6.354   3.415   8.611 -0.5829 -1.9721  4.9755
  514MOL0     H69339   6.265   3.699   8.611 -2.2302 -0.1938 -2.0456
  514MOL0     H69340   6.324   3.619   8.462  2.6048  2.3365  0.4024
  514MOL0     H69341   6.544   3.470   8.470  0.2693  1.2054 -1.8123
  514MOL0     H69342   6.846   3.448   8.675  0.5425  4.4001  3.4913
  514MOL0     H69343   6.794   3.427   8.508  3.3378  0.4620 -0.3554
  514MOL0     H69344   6.905   3.688   8.616  1.9660 -0.6552 -0.0261
  514MOL0     H69345   6.892   3.638   8.446 -1.3562 -1.5150 -0.5693
  514MOL0     H69346   7.055   3.518   8.683 -2.7349 -1.3053  0.8894
  514MOL0     H69347   7.119   3.623   8.560  0.5373 -0.5575 -0.1324
  514MOL0     H69348   7.058   3.316   8.536 -2.3391  0.0477 -1.2126
  514MOL0     H69349   7.197   3.415   8.479  0.1361  0.6423 -0.5420
  514MOL0     H69350   7.165   3.187   8.383  0.4928 -1.8748 -1.4894
  514MOL0     H69351   7.303   3.046   8.286  0.5033  0.7542 -1.1100
  514MOL0     H69352   7.187   2.943   8.219  2.2054 -1.2773 -0.7183
  514MOL0     H69353   7.289   3.008   8.106  1.0945  1.1864 -0.3479
  514MOL0     H69354   7.406   2.949   7.848  1.0773  2.0860 -0.8748
  514MOL0     H69355   7.465   2.790   7.667 -0.6109 -0.5493  2.4887
  514MOL0     H69356   7.433   2.895   7.372  0.1435  0.3411 -2.8040
  514MOL0     H69357   7.545   2.775   7.439 -0.2661 -0.8428 -0.5566
  514MOL0     H69358   7.542   2.717   7.200 -2.1322  0.4965 -2.5882
  514MOL0     H69359   7.453   2.595   7.289  1.1580 -0.2312 -0.2255
  514MOL0     H69360   7.301   2.824   7.154 -1.3594 -0.6833 -1.3709
  514MOL0     H69361   7.242   2.665   7.208  1.5533 -1.1734  1.9852
  514MOL0     H69362   7.445   2.705   6.988 -1.1792  1.6846 -1.3184
  514MOL0     H69363   7.355   2.549   7.033  0.7912 -0.1983 -1.9546
  514MOL0     H69364   7.246   2.632   6.839 -0.9738  1.4389 -1.3383
  514MOL0     H69365   7.243   2.805   6.886 -1.6149 -1.2756 -2.5143
  514MOL0     H69366   7.100   2.579   7.043 -1.3826 -0.3976 -0.0157
  514MOL0     H69367   7.089   2.761   7.071  0.8807 -0.3661  0.6757
  514MOL0     H69368   7.006   2.633   6.815  1.1686  1.0678 -0.0631
  514MOL0     H69369   6.959   2.790   6.881 -0.3149  0.3947  0.4433
  514MOL0     H69370   6.837   2.654   7.076 -0.3362 -1.4749  0.5836
  514MOL0     H69371   6.869   2.509   6.996 -2.4266 -0.1525 -0.7084
  514MOL0     H69372   7.109   2.871   7.465  1.8630 -3.5684 -1.5377
  514MOL0     H69373   7.025   2.999   7.679 -1.0339 -1.5881 -0.2080
  514MOL0     H69374   6.944   3.290   7.958 -0.3120 -0.7404  0.6305
  514MOL0     H69375   6.909   3.449   8.149  2.3915  2.3615  1.2126
  514MOL0     H69376   5.941   2.669   8.131 -0.6505 -3.8764  0.2469
  514MOL0     H69377   6.042   2.457   8.047 -2.1003  2.2333 -0.5958
  514MOL0     H69378   6.258   2.195   8.005 -1.1384 -2.9172  0.2241
  514MOL0     H69379   6.313   1.949   7.957  0.8655 -0.8780  0.2615
  514MOL0     H69380   6.607   1.849   7.834  1.5936 -0.2075  6.7347
  514MOL0     H69381   6.491   1.830   7.951 -0.1104  0.3410 -0.3573
  514MOL0     H69382   6.637   1.639   7.897 -0.6263  1.6959  1.0817
  514MOL0     H69383   6.547   1.618   7.748  0.1144 -1.2620 -0.0277
  514MOL0     H69384   6.447   1.578   8.038  1.3272  0.4570 -0.1349
  514MOL0     H69385   6.421   1.467   7.900  0.1302  0.3327  0.0989
  514MOL0     H69386   6.265   1.623   7.791 -1.3494  0.2335  0.7163
  514MOL0     H69387   6.275   1.728   7.932  1.1859  0.2179  0.5005
  514MOL0     H69388   6.044   1.388   8.048 -1.2563 -2.5881 -5.4708
  514MOL0     H69389   6.470   2.040   7.581  1.7960  0.5874  0.6496
  514MOL0     H69390   6.375   2.282   7.607 -1.7188  0.2514  1.3385
  515MOL0     O69391   7.594   2.957   9.827  0.3167 -0.7344 -0.3669
  515MOL0     C69392   7.532   3.063   9.820  1.1495 -0.8379 -0.5555
  515MOL0     O69393   7.567   3.169   9.749 -0.5157  0.2345  0.0050
  515MOL0     C69394   7.681   3.169   9.670  0.5416  0.4527 -0.4003
  515MOL0     C69395   7.800   3.100   9.695 -0.3396  0.0662  0.4237
  515MOL0     C69396   7.919   3.127   9.617 -0.2413  0.8196  0.0218
  515MOL0     C69397   7.919   3.219   9.518  0.4885  0.1182 -0.5787
  515MOL0     O69398   8.043   3.250   9.476  0.0080  0.8420  0.1000
  515MOL0     C69399   8.060   3.377   9.413  0.4587 -0.1390  0.7049
  515MOL0     C69400   8.199   3.422   9.400  0.0121 -0.4205 -0.1309
  515MOL0     C69401   8.219   3.544   9.309  0.1939 -0.6900 -0.5197
  515MOL0     C69402   8.170   3.678   9.367 -0.2489 -0.4468 -0.4161
  515MOL0     C69403   8.216   3.796   9.279  0.6269 -0.3623 -0.1258
  515MOL0     C69404   8.103   3.908   9.281  0.4057 -0.8480  0.3281
  515MOL0     C69405   8.127   4.016   9.184 -0.4065  0.1806 -0.4006
  515MOL0     C69406   8.020   4.031   9.069 -0.4400  0.8505  0.2236
  515MOL0     N69407   8.055   4.134   8.967  0.0826 -0.1476  0.7584
  515MOL0     C69408   8.152   4.222   8.979 -0.2491 -0.4136 -0.0240
  515MOL0     C69409   8.142   4.310   8.868 -0.3541 -0.1241 -0.4558
  515MOL0     C69410   8.229   4.429   8.841 -0.2263  0.2119 -0.9479
  515MOL0     C69411   8.212   4.493   8.709 -0.0308  0.2416  1.2374
  515MOL0     C69412   8.267   4.631   8.694  0.0067  0.0530 -0.7035
  515MOL0     C69413   8.236   4.707   8.570  0.4415 -0.1469  0.0024
  515MOL0     O69414   8.292   4.828   8.599  0.0348  0.2581 -0.6529
  515MOL0     C69415   8.226   4.940   8.541 -0.9676 -0.2850 -1.4284
  515MOL0     C69416   8.152   4.947   8.427 -0.3858 -0.4804  0.3886
  515MOL0     C69417   8.086   5.059   8.386  0.8688  0.6570  0.9961
  515MOL0     C69418   8.025   5.035   8.244  0.9068 -0.2319 -0.5076
  515MOL0     C69419   8.091   5.183   8.461 -0.4114 -0.0340 -0.5809
  515MOL0     C69420   8.037   5.312   8.415  1.0456  0.2166  1.4317
  515MOL0     O69421   8.094   5.431   8.472  0.3571 -0.6817 -0.8386
  515MOL0     C69422   8.002   5.533   8.493 -0.0326  0.9218  0.4567
  515MOL0     C69423   7.920   5.531   8.608  0.2766 -0.4853 -0.4672
  515MOL0     C69424   7.836   5.640   8.636  0.2034 -0.2241 -0.1088
  515MOL0     C69425   7.838   5.746   8.547 -0.8098 -0.7875  0.1224
  515MOL0     O69426   7.763   5.850   8.584  0.1837 -0.5573 -0.4272
  515MOL0     C69427   7.783   5.988   8.554 -0.4720 -0.5095 -0.2493
  515MOL0     C69428   7.682   6.083   8.631  0.2790  0.2184 -1.0319
  515MOL0     C69429   7.694   6.056   8.783  0.4864 -0.5080  0.0169
  515MOL0     C69430   7.830   6.098   8.846 -0.1534  0.4946  1.0626
  515MOL0     C69431   7.825   6.087   9.006  0.6786  0.5709 -0.4085
  515MOL0     C69432   7.858   5.940   9.055  0.1049 -0.4504 -0.1294
  515MOL0     C69433   7.795   5.906   9.188  0.4600  0.4250  0.4476
  515MOL0     C69434   7.893   5.862   9.295 -0.1940  0.3085  0.5136
  515MOL0    Cl69435   7.995   5.724   9.224 -0.2891 -0.1063  0.0057
  515MOL0     C69436   7.917   5.740   8.428 -0.1235 -1.1402 -0.4354
  515MOL0     C69437   8.000   5.635   8.403 -0.7209  0.6217  1.1218
  515MOL0     O69438   7.938   5.308   8.339  0.3659 -0.2356 -0.4895
  515MOL0     C69439   8.181   5.179   8.573  0.0926  0.3991 -0.1182
  515MOL0     C69440   8.250   5.061   8.615  0.6970  0.7482  0.6201
  515MOL0     N69441   8.035   4.259   8.792  0.1904 -0.5772 -0.5940
  515MOL0     N69442   7.979   4.167   8.863  0.0449  0.6749 -0.0873
  515MOL0     C69443   7.794   3.295   9.492  0.8823  0.1137 -0.1790
  515MOL0     C69444   7.679   3.263   9.565 -0.4579 -0.4857 -0.6727
  515MOL0     C69445   7.413   3.076   9.908  0.1625  0.5505 -0.4177
  515MOL0     C69446   7.361   2.966   9.979  0.7540  0.4085 -0.5633
  515MOL0     C69447   7.236   2.973  10.048  0.0697  0.6364 -0.3270
  515MOL0     C69448   7.167   3.095  10.048  0.2221  0.0280  0.1461
  515MOL0     O69449   7.039   3.082  10.095 -0.4534 -0.1328  0.1535
  515MOL0     C69450   6.936   3.179  10.052 -0.0058  0.1776 -0.1895
  515MOL0     C69451   6.844   3.121   9.941 -0.2095 -0.5926 -0.1175
  515MOL0     C69452   6.888   3.147   9.788  0.4659  0.6126 -0.4870
  515MOL0     C69453   6.779   3.106   9.686 -0.2455  0.7620 -0.0116
  515MOL0     C69454   6.652   3.179   9.699 -0.4725 -0.5696 -0.2074
  515MOL0     C69455   6.560   3.258   9.705 -0.7862 -0.7570  0.1514
  515MOL0     C69456   7.222   3.213   9.990 -1.4377 -0.1929  0.3365
  515MOL0     C69457   7.339   3.195   9.918 -0.3239  1.0407 -0.2102
  515MOL0     H69458   7.811   3.030   9.777 -4.1680  0.5640  1.5507
  515MOL0     H69459   8.009   3.067   9.628  0.8245  1.4903 -3.7411
  515MOL0     H69460   8.014   3.372   9.314  0.4813  0.9071  0.6298
  515MOL0     H69461   8.008   3.458   9.464 -1.8403  1.6309 -3.8585
  515MOL0     H69462   8.227   3.459   9.499 -1.5278  0.2682  0.0838
  515MOL0     H69463   8.269   3.344   9.367  1.9413  1.7059 -1.2921
  515MOL0     H69464   8.327   3.559   9.294  0.8602  0.2742  3.6753
  515MOL0     H69465   8.167   3.515   9.218 -0.7468  0.3859 -0.3446
  515MOL0     H69466   8.062   3.676   9.382 -0.3996  2.1264 -0.7418
  515MOL0     H69467   8.209   3.683   9.469 -2.4776  1.9064  0.4160
  515MOL0     H69468   8.306   3.845   9.317 -2.3296  2.6328  3.9464
  515MOL0     H69469   8.228   3.765   9.175 -0.5108 -0.6503 -0.1865
  515MOL0     H69470   8.013   3.850   9.262  2.1372 -3.1095 -1.6134
  515MOL0     H69471   8.096   3.946   9.384 -0.8991 -1.8698  0.6456
  515MOL0     H69472   8.128   4.115   9.231 -0.0994  1.6379 -3.2363
  515MOL0     H69473   8.228   4.012   9.144  0.0986  1.5030  0.6440
  515MOL0     H69474   7.924   4.062   9.111 -0.4061 -0.6052  1.4564
  515MOL0     H69475   8.007   3.933   9.023  1.2420  0.0940  1.2792
  515MOL0     H69476   8.235   4.228   9.050 -0.4734 -2.2700  0.4475
  515MOL0     H69477   8.196   4.494   8.923 -1.6873 -0.2239 -1.1604
  515MOL0     H69478   8.332   4.399   8.860  0.0704  1.3430 -0.6485
  515MOL0     H69479   8.105   4.482   8.691  0.2663  0.4409 -0.8510
  515MOL0     H69480   8.262   4.431   8.634  1.5860  2.7028  0.1429
  515MOL0     H69481   8.376   4.631   8.700  0.0451  2.2082 -0.8851
  515MOL0     H69482   8.224   4.685   8.778 -4.6613 -1.0672 -2.0702
  515MOL0     H69483   8.126   4.710   8.575  0.4809  1.7183  0.3917
  515MOL0     H69484   8.269   4.657   8.479 -1.4626 -0.2246 -0.6957
  515MOL0     H69485   8.142   4.856   8.368 -0.5700 -1.1831  1.4645
  515MOL0     H69486   8.105   5.010   8.174 -0.2967 -1.9938 -1.3215
  515MOL0     H69487   7.958   4.949   8.238  1.6858 -0.7520 -2.4699
  515MOL0     H69488   7.978   5.127   8.206  0.3103  0.1985  1.1759
  515MOL0     H69489   7.930   5.455   8.685  0.0303  0.8783  0.9658
  515MOL0     H69490   7.776   5.654   8.726  1.3571  0.8008  0.5322
  515MOL0     H69491   7.886   6.022   8.571 -0.8553  1.6506 -1.8654
  515MOL0     H69492   7.768   6.002   8.447  0.9945 -0.7077 -0.4986
  515MOL0     H69493   7.705   6.188   8.610  3.3367 -0.0108  0.6516
  515MOL0     H69494   7.578   6.055   8.609 -2.0793  1.0229  6.3851
  515MOL0     H69495   7.665   5.953   8.805  3.3145 -0.8164  3.1158
  515MOL0     H69496   7.612   6.112   8.828  0.1589  0.4908 -1.7084
  515MOL0     H69497   7.903   6.023   8.811 -2.1032 -0.6360 -0.8001
  515MOL0     H69498   7.870   6.194   8.812 -2.7372  0.2414 -3.4276
  515MOL0     H69499   7.724   6.107   9.044 -0.0771 -0.1838 -1.9423
  515MOL0     H69500   7.891   6.157   9.058  0.3993 -0.7553  1.8615
  515MOL0     H69501   7.831   5.871   8.975  1.8351  0.6779 -1.7870
  515MOL0     H69502   7.966   5.926   9.065  0.0630 -0.7161 -0.0279
  515MOL0     H69503   7.736   5.817   9.168  0.6177  0.0335  1.6133
  515MOL0     H69504   7.741   5.993   9.228  1.5605  2.6124 -2.4443
  515MOL0     H69505   7.838   5.827   9.383 -2.5804  1.6054 -0.3701
  515MOL0     H69506   7.953   5.948   9.326  2.1074 -0.9289 -0.2311
  515MOL0     H69507   7.908   5.817   8.352  0.1765 -0.5104  0.1658
  515MOL0     H69508   8.076   5.632   8.326 -0.7389  1.2535  1.0726
  515MOL0     H69509   8.193   5.254   8.650  0.8079 -0.8993  1.0679
  515MOL0     H69510   8.276   5.060   8.721 -0.4960 -0.6483  0.9330
  515MOL0     H69511   7.800   3.372   9.417 -0.5498 -0.7623 -1.2396
  515MOL0     H69512   7.585   3.315   9.550 -1.8855 -2.8712 -0.4264
  515MOL0     H69513   7.421   2.876   9.985 -0.9175 -0.6581  2.0718
  515MOL0     H69514   7.207   2.890  10.111  0.4258  0.8780  0.1664
  515MOL0     H69515   6.868   3.196  10.137 -0.6285 -0.4410 -0.5473
  515MOL0     H69516   6.976   3.278  10.028  0.1074  1.1641  3.4028
  515MOL0     H69517   6.740   3.153   9.955 -0.0394 -0.5121  1.1046
  515MOL0     H69518   6.833   3.012   9.953  1.6273 -0.8481 -0.4480
  515MOL0     H69519   6.972   3.079   9.775 -0.0842  0.0164 -1.0271
  515MOL0     H69520   6.931   3.246   9.777  0.9233  0.8094  2.2426
  515MOL0     H69521   6.738   3.008   9.710 -0.8415  0.9721 -0.1545
  515MOL0     H69522   6.815   3.116   9.583  1.4840 -1.8868  0.2193
  515MOL0     H69523   6.485   3.334   9.715  1.7089  1.8675  0.3832
  515MOL0     H69524   7.186   3.313   9.969  3.0311  1.1452 -2.3784
  515MOL0     H69525   7.384   3.285   9.876  1.8940  0.6511  1.1204
  516MOL0     O69526   0.143   6.922   5.261 -0.1318  0.0144 -0.6048
  516MOL0     C69527   0.223   7.018   5.261 -0.3302  0.3811 -0.2860
  516MOL0     O69528   0.312   7.049   5.364  0.4083  0.0270  0.0272
  516MOL0     C69529   0.298   6.994   5.488 -0.7427  0.3220 -0.5636
  516MOL0     C69530   0.301   7.085   5.599 -0.5644 -0.0291 -0.0707
  516MOL0     C69531   0.298   7.035   5.725 -0.1175 -0.2417 -0.3435
  516MOL0     C69532   0.285   6.902   5.764  0.7578  0.0225  0.5801
  516MOL0     O69533   0.305   6.868   5.896 -0.1575  0.5952 -0.3063
  516MOL0     C69534   0.341   6.735   5.928 -0.7455  0.2698  0.1413
  516MOL0     C69535   0.396   6.752   6.073  0.1394  0.5582 -0.3063
  516MOL0     C69536   0.486   6.632   6.103 -0.3789 -0.7211 -1.4498
  516MOL0     C69537   0.478   6.600   6.251 -0.5056 -0.2171  0.3660
  516MOL0     C69538   0.559   6.694   6.339  0.2540  0.8542  0.4934
  516MOL0     C69539   0.590   6.646   6.485 -0.8825 -0.7733  0.2128
  516MOL0     C69540   0.676   6.740   6.567  0.0984  0.5784 -0.6161
  516MOL0     C69541   0.687   6.688   6.705 -1.6384 -0.1989 -0.2459
  516MOL0     N69542   0.780   6.578   6.725  0.4929  0.1314  0.1791
  516MOL0     C69543   0.910   6.591   6.763  0.3449  0.0868 -0.0863
  516MOL0     C69544   0.968   6.464   6.748 -0.2233  0.3530  0.1726
  516MOL0     C69545   1.121   6.441   6.759  0.2271 -0.1127  0.3297
  516MOL0     C69546   1.162   6.291   6.753  0.1034  0.7628  0.0156
  516MOL0     C69547   1.294   6.249   6.820 -0.3711  0.4492  0.0490
  516MOL0     C69548   1.403   6.356   6.784  0.3148  0.5776  0.0183
  516MOL0     O69549   1.530   6.288   6.794 -0.4629 -0.1079 -0.2684
  516MOL0     C69550   1.634   6.373   6.791 -0.6958  0.1604 -0.8963
  516MOL0     C69551   1.635   6.494   6.721 -0.3684 -0.5687 -0.3368
  516MOL0     C69552   1.753   6.576   6.711  0.7074 -0.2804 -0.6681
  516MOL0     C69553   1.741   6.707   6.636  0.6285 -0.2666 -0.3217
  516MOL0     C69554   1.868   6.522   6.781 -0.2926 -1.1367  1.4604
  516MOL0     C69555   2.008   6.588   6.781  1.1136 -0.3251 -0.4049
  516MOL0     O69556   2.111   6.517   6.834  0.2169 -0.2047 -0.4195
  516MOL0     C69557   2.237   6.552   6.799  1.5010  0.2861 -0.1221
  516MOL0     C69558   2.306   6.479   6.704  0.1639  0.5584 -0.4724
  516MOL0     C69559   2.442   6.500   6.672  0.8632 -0.2215  0.4559
  516MOL0     C69560   2.517   6.591   6.746  0.2840 -0.7835  0.3034
  516MOL0     O69561   2.641   6.630   6.707 -0.5571  0.5652  0.2696
  516MOL0     C69562   2.716   6.727   6.789  0.4283  1.0402  0.3736
  516MOL0     C69563   2.859   6.733   6.752 -0.6797 -0.1093  0.5654
  516MOL0     C69564   2.933   6.851   6.813 -0.6823 -0.3502 -0.8821
  516MOL0     C69565   2.897   6.989   6.765 -0.1955 -0.0765  0.2482
  516MOL0     C69566   2.962   7.091   6.851  0.6318 -0.3054  0.3613
  516MOL0     C69567   2.917   7.231   6.799 -0.8518 -0.9268 -0.3932
  516MOL0     C69568   2.998   7.355   6.876  1.4627  0.4578  0.4793
  516MOL0     C69569   2.953   7.490   6.828  0.1315 -0.2340  0.3218
  516MOL0    Cl69570   2.784   7.517   6.879  0.2605 -0.1866  0.3676
  516MOL0     C69571   2.447   6.674   6.840  0.3492 -0.7299 -0.8777
  516MOL0     C69572   2.309   6.647   6.870 -0.3923  0.4387 -0.4501
  516MOL0     O69573   2.011   6.714   6.756  0.1954  0.0501 -0.8002
  516MOL0     C69574   1.862   6.398   6.849 -0.6717 -0.1646 -1.5326
  516MOL0     C69575   1.741   6.316   6.851 -0.5194  0.8353 -0.8888
  516MOL0     N69576   0.869   6.385   6.694  0.6515  0.7630  0.0017
  516MOL0     N69577   0.753   6.450   6.680 -0.5603 -0.5556  0.5593
  516MOL0     C69578   0.280   6.814   5.656 -0.0120  0.0824  0.2399
  516MOL0     C69579   0.294   6.858   5.522  0.1500 -0.4271  0.9461
  516MOL0     C69580   0.251   7.072   5.128  0.8067 -1.1878 -0.0322
  516MOL0     C69581   0.364   7.160   5.106 -0.4484  0.7777 -0.4041
  516MOL0     C69582   0.402   7.206   4.974  0.2604 -0.5027  0.0404
  516MOL0     C69583   0.318   7.169   4.864  0.6090 -0.0824 -0.9161
  516MOL0     O69584   0.369   7.195   4.739 -0.6490  0.2222 -0.1428
  516MOL0     C69585   0.325   7.325   4.695 -0.5725 -0.0081  0.0034
  516MOL0     C69586   0.403   7.373   4.571 -0.3393  0.2989 -0.0353
  516MOL0     C69587   0.551   7.397   4.604 -0.3803  0.0421 -0.0034
  516MOL0     C69588   0.645   7.367   4.480  0.2753  0.4207 -0.4655
  516MOL0     C69589   0.780   7.377   4.521 -0.7364 -0.3649  0.9251
  516MOL0     C69590   0.888   7.382   4.578 -0.4467  0.2538  0.6601
  516MOL0     C69591   0.216   7.075   4.883 -0.3020 -1.0329  0.3495
  516MOL0     C69592   0.179   7.030   5.015 -0.8473 -0.1734  0.4760
  516MOL0     H69593   0.319   7.191   5.579  0.9609 -0.6117 -2.1100
  516MOL0     H69594   0.329   7.104   5.803  3.0077  0.5146 -2.1034
  516MOL0     H69595   0.252   6.672   5.924 -2.0567  2.0762 -0.8271
  516MOL0     H69596   0.415   6.693   5.860 -2.5655 -0.5806 -1.4172
  516MOL0     H69597   0.439   6.853   6.072  0.0542  0.6126  0.4879
  516MOL0     H69598   0.306   6.743   6.134  1.5324 -5.4400  1.5726
  516MOL0     H69599   0.440   6.549   6.049  1.6784 -2.6557 -0.4092
  516MOL0     H69600   0.590   6.646   6.071 -0.6653  2.6345 -1.1901
  516MOL0     H69601   0.374   6.608   6.282 -0.3274  0.8814  0.7421
  516MOL0     H69602   0.521   6.500   6.262 -2.3444 -1.1696 -0.7866
  516MOL0     H69603   0.653   6.708   6.284  0.2407  0.7518  0.4450
  516MOL0     H69604   0.498   6.784   6.350  0.1556  0.6930  1.2915
  516MOL0     H69605   0.492   6.638   6.534 -0.0361 -3.4144  1.6689
  516MOL0     H69606   0.628   6.544   6.477 -0.2847 -0.5265 -0.1577
  516MOL0     H69607   0.777   6.748   6.528  1.8158 -0.7086  3.1169
  516MOL0     H69608   0.630   6.840   6.569  0.4644  0.7417 -0.0829
  516MOL0     H69609   0.587   6.661   6.741 -1.4738 -2.4872 -1.3247
  516MOL0     H69610   0.728   6.767   6.768  0.1348 -0.9378 -0.4080
  516MOL0     H69611   0.955   6.681   6.804  1.3045 -0.6545  0.5391
  516MOL0     H69612   1.162   6.502   6.678 -1.0809  0.6159  0.1912
  516MOL0     H69613   1.157   6.474   6.857  1.0559 -3.3268  1.2413
  516MOL0     H69614   1.169   6.268   6.646 -1.4549 -0.7043  0.1764
  516MOL0     H69615   1.086   6.219   6.788  0.3323  0.7659  0.5216
  516MOL0     H69616   1.318   6.147   6.786  0.9026  0.6527  0.2888
  516MOL0     H69617   1.280   6.234   6.927 -0.0736 -2.7609 -0.2499
  516MOL0     H69618   1.397   6.443   6.850 -1.3033  1.3867 -1.1159
  516MOL0     H69619   1.391   6.390   6.681 -1.0290 -2.5105 -0.9673
  516MOL0     H69620   1.544   6.523   6.669 -0.2353  2.2711  0.8076
  516MOL0     H69621   1.705   6.789   6.700  0.6877 -0.4520 -0.0477
  516MOL0     H69622   1.840   6.739   6.604  3.4948 -5.0075  2.6218
  516MOL0     H69623   1.671   6.688   6.554 -1.4248 -1.0473  1.4845
  516MOL0     H69624   2.256   6.429   6.621 -2.7607  2.0696  0.2556
  516MOL0     H69625   2.486   6.443   6.591  1.0647  1.1837 -0.4500
  516MOL0     H69626   2.668   6.824   6.770 -0.4550  0.0921 -2.8360
  516MOL0     H69627   2.711   6.700   6.894 -2.8082 -0.4618 -0.0520
  516MOL0     H69628   2.910   6.638   6.770 -0.3119  0.1842  1.0866
  516MOL0     H69629   2.860   6.750   6.644 -3.6726 -2.6339  0.0031
  516MOL0     H69630   3.039   6.837   6.788 -0.9989 -3.2414 -0.8831
  516MOL0     H69631   2.923   6.851   6.922 -0.5581  0.1407 -0.8682
  516MOL0     H69632   2.934   7.001   6.663 -0.3187 -0.1895  0.1897
  516MOL0     H69633   2.789   7.007   6.768 -0.0551  1.2348 -1.4298
  516MOL0     H69634   3.071   7.086   6.850  0.8987  3.0668  0.5385
  516MOL0     H69635   2.933   7.070   6.954 -0.1099  3.0692  0.9804
  516MOL0     H69636   2.940   7.236   6.693  1.2000  2.9477  0.0797
  516MOL0     H69637   2.807   7.231   6.801 -0.8545 -1.2945  1.4037
  516MOL0     H69638   3.103   7.357   6.846  1.2418 -1.7091 -0.6336
  516MOL0     H69639   3.000   7.350   6.985  1.4500 -1.0690  0.4355
  516MOL0     H69640   2.978   7.500   6.722 -0.0999  2.6578  0.4417
  516MOL0     H69641   3.017   7.568   6.870 -4.8964  5.0276 -0.4983
  516MOL0     H69642   2.505   6.751   6.890  1.7003 -3.3322  1.9146
  516MOL0     H69643   2.270   6.695   6.959  1.6046  0.8549  0.2745
  516MOL0     H69644   1.944   6.358   6.908 -2.4881 -1.2167  0.4037
  516MOL0     H69645   1.750   6.216   6.892 -0.4286 -0.0257 -2.9256
  516MOL0     H69646   0.240   6.714   5.670 -1.0537  0.7122  2.1459
  516MOL0     H69647   0.298   6.774   5.453 -0.6052 -0.1353  0.5322
  516MOL0     H69648   0.426   7.183   5.193 -0.4109 -2.6389  0.6034
  516MOL0     H69649   0.489   7.271   4.974  1.3624 -1.8689 -1.9225
  516MOL0     H69650   0.221   7.322   4.659 -0.2296  1.8695 -1.2831
  516MOL0     H69651   0.336   7.395   4.778  2.4162  1.3942 -1.4508
  516MOL0     H69652   0.359   7.464   4.529  0.9269  0.2938 -1.4480
  516MOL0     H69653   0.393   7.292   4.498 -0.4712 -0.0505  0.3614
  516MOL0     H69654   0.575   7.337   4.692  0.1271  0.7289  0.3386
  516MOL0     H69655   0.570   7.496   4.648 -0.7998  0.2494 -0.2784
  516MOL0     H69656   0.622   7.434   4.396  1.2313  0.4204 -0.7446
  516MOL0     H69657   0.628   7.264   4.449 -2.0681  1.2681 -2.3599
  516MOL0     H69658   0.968   7.388   4.648 -0.7418  0.3806  0.9875
  516MOL0     H69659   0.164   7.038   4.795  0.5451 -1.9453  0.2137
  516MOL0     H69660   0.094   6.963   5.025 -2.9247  1.6838 -2.8829
  517MOL0     O69661   0.136   7.973   5.682 -0.4780 -0.3536  0.0392
  517MOL0     C69662   0.036   7.945   5.750 -0.0529 -0.4900 -1.1111
  517MOL0     O69663  -0.001   8.005   5.867  0.0193  0.3434  0.0452
  517MOL0     C69664   0.086   8.106   5.911 -0.1755  0.8237  0.5588
  517MOL0     C69665   0.221   8.080   5.946 -0.4431  0.3362 -0.1084
  517MOL0     C69666   0.300   8.188   5.997 -0.3048  0.4181 -0.7560
  517MOL0     C69667   0.251   8.317   6.013  0.0100 -0.0531 -0.1852
  517MOL0     O69668   0.328   8.411   6.073  0.3411 -0.5717  0.3804
  517MOL0     C69669   0.390   8.502   5.991 -1.1256 -0.3897  0.2001
  517MOL0     C69670   0.451   8.622   6.066 -0.3346  0.4872  0.3753
  517MOL0     C69671   0.361   8.677   6.175  0.8102  0.3079 -0.4498
  517MOL0     C69672   0.428   8.794   6.236  0.7769 -0.4064  0.0621
  517MOL0     C69673   0.359   8.858   6.356 -0.6629 -0.4999  0.1071
  517MOL0     C69674   0.363   9.017   6.345  0.7307 -0.5946 -0.0361
  517MOL0     C69675   0.301   9.078   6.473 -0.5156  0.4921  0.7373
  517MOL0     C69676   0.149   9.122   6.473  0.1015 -0.2557 -0.3492
  517MOL0     N69677   0.048   9.018   6.437 -0.1559  0.8456 -0.3480
  517MOL0     C69678   0.004   8.992   6.311  0.5923  0.6066  0.5215
  517MOL0     C69679  -0.087   8.888   6.321 -0.6138 -0.4164 -0.4965
  517MOL0     C69680  -0.166   8.837   6.206 -0.4404 -0.9554 -0.3262
  517MOL0     C69681  -0.074   8.792   6.085  0.1101  0.2443  0.4183
  517MOL0     C69682  -0.160   8.756   5.956  0.2761 -0.6796  0.4375
  517MOL0     C69683  -0.195   8.610   5.962 -0.7703  0.3958  0.5673
  517MOL0     O69684  -0.242   8.563   6.085 -0.6235  0.6479 -1.2788
  517MOL0     C69685  -0.346   8.490   6.068 -0.8777 -0.6672 -0.0115
  517MOL0     C69686  -0.328   8.352   6.048  0.2603 -0.5052  0.3906
  517MOL0     C69687  -0.429   8.267   6.050  0.0433  1.3232  0.6639
  517MOL0     C69688  -0.399   8.118   6.022 -0.3153 -0.0043 -0.0331
  517MOL0     C69689  -0.560   8.309   6.062  0.4096  0.0337  0.4033
  517MOL0     C69690  -0.676   8.215   6.063  0.1174  0.4073 -0.6879
  517MOL0     O69691  -0.672   8.091   6.126  0.0202  1.4456  0.2361
  517MOL0     C69692  -0.781   8.003   6.143  0.1058 -0.0801  0.3087
  517MOL0     C69693  -0.918   8.024   6.098 -0.3940 -0.3905 -0.5465
  517MOL0     C69694  -1.007   7.934   6.135  0.2961  0.0516 -0.2884
  517MOL0     C69695  -0.993   7.833   6.231  0.2885 -0.0413  0.8133
  517MOL0     O69696  -1.096   7.752   6.240 -0.3938 -0.5072  0.2684
  517MOL0     C69697  -1.103   7.648   6.340  0.3669  0.0657 -0.2002
  517MOL0     C69698  -1.232   7.573   6.333  0.1620  0.4935 -0.2427
  517MOL0     C69699  -1.242   7.469   6.445 -0.2475 -0.6771  0.2460
  517MOL0     C69700  -1.385   7.430   6.473  0.1696  1.0936  0.2741
  517MOL0     C69701  -1.400   7.286   6.531  0.1863 -0.5642  0.6581
  517MOL0     C69702  -1.330   7.271   6.671  0.0366  0.1926  0.4024
  517MOL0     C69703  -1.401   7.168   6.756  0.1859  0.5457  0.2150
  517MOL0     C69704  -1.379   7.187   6.908 -0.3895 -0.3741  0.1460
  517MOL0    Cl69705  -1.495   7.085   6.984  0.2417 -0.2926  0.1330
  517MOL0     C69706  -0.862   7.808   6.271 -0.1579  0.0140 -0.0811
  517MOL0     C69707  -0.756   7.891   6.229  0.1669 -0.6473  0.0356
  517MOL0     O69708  -0.762   8.255   5.986  0.3392 -1.1775 -0.5745
  517MOL0     C69709  -0.581   8.452   6.064  0.5024  0.7012  0.1357
  517MOL0     C69710  -0.477   8.541   6.084 -0.2309 -0.3758 -0.2594
  517MOL0     N69711  -0.103   8.863   6.463 -0.2202  0.5464  0.2521
  517MOL0     N69712  -0.003   8.925   6.522 -0.4084 -0.0220  0.1671
  517MOL0     C69713   0.115   8.338   5.976  0.4529 -0.8336  0.3922
  517MOL0     C69714   0.040   8.234   5.921 -0.4002 -0.1254 -0.6110
  517MOL0     C69715  -0.047   7.838   5.706  0.7939  1.6146  0.5986
  517MOL0     C69716  -0.009   7.748   5.604  0.3395  0.5202 -0.5639
  517MOL0     C69717  -0.109   7.667   5.548 -0.1845 -0.0016 -0.0899
  517MOL0     C69718  -0.243   7.660   5.591  0.0569  0.2096 -0.3094
  517MOL0     O69719  -0.352   7.590   5.542  0.1315  0.3622 -0.7471
  517MOL0     C69720  -0.329   7.486   5.446 -0.0287  0.6001  0.5211
  517MOL0     C69721  -0.396   7.356   5.489  0.0890  0.1052  0.4694
  517MOL0     C69722  -0.393   7.239   5.386  0.7045  0.4861 -0.2384
  517MOL0     C69723  -0.253   7.197   5.332  0.1525 -0.9359  1.0042
  517MOL0     C69724  -0.138   7.195   5.425  0.5554  0.2370 -0.0336
  517MOL0     C69725  -0.042   7.176   5.487 -0.9361  0.6927  0.4488
  517MOL0     C69726  -0.262   7.738   5.709  0.3654 -0.0647  0.8625
  517MOL0     C69727  -0.171   7.827   5.760  0.1748  0.0139  0.4569
  517MOL0     H69728   0.269   7.984   5.929  1.0978  0.9969  0.3384
  517MOL0     H69729   0.403   8.175   6.027 -0.6459 -2.3658 -0.5324
  517MOL0     H69730   0.456   8.449   5.922 -2.0548  1.5211 -2.3290
  517MOL0     H69731   0.317   8.540   5.920 -1.4313 -2.7644 -0.8395
  517MOL0     H69732   0.550   8.592   6.102  1.1075  3.3829 -0.8257
  517MOL0     H69733   0.470   8.706   5.998 -0.0497  0.6216  0.6184
  517MOL0     H69734   0.268   8.718   6.134  0.6796 -0.1945 -0.6552
  517MOL0     H69735   0.342   8.605   6.255 -2.4818  0.4183 -0.9612
  517MOL0     H69736   0.532   8.774   6.264  0.9545 -0.1212 -0.3838
  517MOL0     H69737   0.449   8.872   6.162  1.6947 -3.2331 -2.8745
  517MOL0     H69738   0.257   8.828   6.381 -0.1216 -0.0552  3.3365
  517MOL0     H69739   0.424   8.839   6.442  2.0123  2.6107 -1.0129
  517MOL0     H69740   0.463   9.060   6.335 -0.9191  3.3709 -1.3904
  517MOL0     H69741   0.304   9.033   6.254  1.1817 -1.2717 -0.4579
  517MOL0     H69742   0.313   8.999   6.548  0.3262 -0.5157 -0.4114
  517MOL0     H69743   0.361   9.163   6.506 -1.8946  0.9581  2.1671
  517MOL0     H69744   0.123   9.213   6.418 -1.4165 -0.9745 -0.8653
  517MOL0     H69745   0.133   9.145   6.578  1.9619  0.1757 -0.1254
  517MOL0     H69746   0.009   9.053   6.221  1.9320 -1.5624 -0.9597
  517MOL0     H69747  -0.230   8.755   6.238  2.6626 -3.0895  0.9589
  517MOL0     H69748  -0.232   8.920   6.178 -2.2271 -1.3622  2.3223
  517MOL0     H69749  -0.030   8.700   6.123  0.9504  0.2606 -0.4784
  517MOL0     H69750  -0.010   8.877   6.059  0.1894 -0.1854 -0.8637
  517MOL0     H69751  -0.101   8.785   5.868  2.2364 -4.0121  0.4265
  517MOL0     H69752  -0.246   8.822   5.960  1.0908  0.6004 -1.3900
  517MOL0     H69753  -0.097   8.560   5.959 -1.6312 -1.3423  0.4334
  517MOL0     H69754  -0.248   8.578   5.872 -1.8337 -0.8166  1.5976
  517MOL0     H69755  -0.224   8.319   6.048  1.0800  1.8652 -1.0058
  517MOL0     H69756  -0.419   8.071   6.119 -1.4292  0.4322 -0.0395
  517MOL0     H69757  -0.459   8.079   5.939  0.7606 -0.0063 -0.8390
  517MOL0     H69758  -0.295   8.101   5.990 -1.1741  0.3572 -3.4776
  517MOL0     H69759  -0.932   8.108   6.031  0.9392 -0.9203 -1.5304
  517MOL0     H69760  -1.109   7.958   6.109 -0.1766 -0.0878  1.3337
  517MOL0     H69761  -1.021   7.578   6.321 -0.5080 -1.1783  0.4257
  517MOL0     H69762  -1.090   7.681   6.443  0.0456  1.8521 -0.7130
  517MOL0     H69763  -1.316   7.642   6.343  0.5863  1.0218 -0.2934
  517MOL0     H69764  -1.236   7.532   6.232  2.2680  1.9875 -1.0072
  517MOL0     H69765  -1.203   7.510   6.538 -1.3810  3.0116 -0.7511
  517MOL0     H69766  -1.188   7.380   6.410  0.2778  0.1645 -1.1478
  517MOL0     H69767  -1.436   7.500   6.540  1.3285  1.2081  1.0707
  517MOL0     H69768  -1.433   7.416   6.376  2.8621  0.4883 -1.0499
  517MOL0     H69769  -1.356   7.214   6.461 -0.7758 -2.3141  1.7860
  517MOL0     H69770  -1.508   7.269   6.540  0.3397 -2.0521 -0.0005
  517MOL0     H69771  -1.224   7.254   6.650  0.4007 -0.7845  2.6941
  517MOL0     H69772  -1.335   7.372   6.713  0.1998  2.3318 -4.1831
  517MOL0     H69773  -1.370   7.068   6.724  1.4751  1.4274 -1.4197
  517MOL0     H69774  -1.510   7.177   6.747  0.0794  1.7281  2.1603
  517MOL0     H69775  -1.408   7.289   6.935 -1.3252 -1.1796  2.4571
  517MOL0     H69776  -1.278   7.170   6.947 -1.6190 -2.9688  2.4910
  517MOL0     H69777  -0.852   7.726   6.340  0.3085  0.4473  0.3787
  517MOL0     H69778  -0.663   7.890   6.284 -1.7268  0.9832  3.6481
  517MOL0     H69779  -0.680   8.498   6.067  0.8037  1.7094 -2.4919
  517MOL0     H69780  -0.493   8.644   6.114 -0.2189 -0.6311  0.6624
  517MOL0     H69781   0.070   8.437   5.977  0.9924 -0.5467 -1.0362
  517MOL0     H69782  -0.061   8.248   5.884 -1.9227 -1.5802  2.5839
  517MOL0     H69783   0.089   7.761   5.558  0.7947  0.0149  0.2367
  517MOL0     H69784  -0.071   7.609   5.464 -0.2779 -2.0742  1.2445
  517MOL0     H69785  -0.363   7.507   5.344 -1.2249  0.4425  0.8676
  517MOL0     H69786  -0.224   7.455   5.446 -0.6688 -1.8460  2.2592
  517MOL0     H69787  -0.503   7.370   5.502 -0.1805 -1.0477 -0.3177
  517MOL0     H69788  -0.347   7.327   5.583 -2.8707 -0.2047  2.0264
  517MOL0     H69789  -0.460   7.272   5.306 -0.1597  0.3180  0.4082
  517MOL0     H69790  -0.439   7.151   5.432 -4.0471  1.1887 -2.9668
  517MOL0     H69791  -0.216   7.255   5.247  1.4119  0.3896  2.3747
  517MOL0     H69792  -0.277   7.099   5.292 -1.3132  0.0520 -0.6415
  517MOL0     H69793   0.042   7.151   5.548 -0.0766  0.7703 -0.6539
  517MOL0     H69794  -0.362   7.726   5.749 -0.0354 -2.7635 -0.7081
  517MOL0     H69795  -0.212   7.906   5.823 -1.7906  0.6815 -1.5286
  518MOL0     O69796  11.457   5.400  10.154 -0.0013  1.0581 -0.8518
  518MOL0     C69797  11.337   5.401  10.170  0.7277 -0.2787 -0.4547
  518MOL0     O69798  11.263   5.297  10.215 -0.1255 -0.1483  0.0333
  518MOL0     C69799  11.322   5.177  10.247  0.3489  0.0739 -0.0539
  518MOL0     C69800  11.444   5.156  10.315 -0.9392  0.1528  0.2448
  518MOL0     C69801  11.493   5.016  10.322  0.1030 -0.6368 -0.5683
  518MOL0     C69802  11.424   4.911  10.273  0.6578 -0.3945 -0.0917
  518MOL0     O69803  11.489   4.798  10.302 -0.5661  0.0300  0.4357
  518MOL0     C69804  11.440   4.672  10.240  0.0627 -0.7421  0.0262
  518MOL0     C69805  11.552   4.573  10.262 -0.7460  0.2638 -0.1757
  518MOL0     C69806  11.500   4.436  10.227 -0.3499  0.3526  0.2830
  518MOL0     C69807  11.478   4.431  10.072  1.1466 -0.2234  0.7738
  518MOL0     C69808  11.600   4.475   9.972  0.5677 -0.3979 -0.4662
  518MOL0     C69809  11.740   4.410   9.995  0.7048  0.2252  0.1386
  518MOL0     C69810  11.744   4.264   9.945 -0.2692 -0.3209  0.0575
  518MOL0     C69811  11.846   4.190  10.027  0.2380 -0.2986 -0.6281
  518MOL0     N69812  11.788   4.144  10.153  0.3410 -0.4179 -0.1243
  518MOL0     C69813  11.834   4.176  10.280  0.0603  0.2272  0.4127
  518MOL0     C69814  11.746   4.110  10.359  0.0932 -0.5824 -0.1793
  518MOL0     C69815  11.758   4.126  10.507  0.1874 -0.4834  0.0511
  518MOL0     C69816  11.655   4.225  10.557 -0.2336  1.2242  0.2219
  518MOL0     C69817  11.635   4.221  10.705 -0.8848  1.2417  0.5428
  518MOL0     C69818  11.558   4.330  10.755  0.1288  0.1451 -0.2358
  518MOL0     O69819  11.433   4.347  10.679  0.2885  0.6693  0.7277
  518MOL0     C69820  11.367   4.460  10.696 -0.7031 -0.9056 -0.3723
  518MOL0     C69821  11.241   4.449  10.748  0.3475  0.4895 -0.6785
  518MOL0     C69822  11.154   4.560  10.753 -0.7286  0.6071  0.8089
  518MOL0     C69823  11.014   4.524  10.783 -1.3881 -0.3349  0.5733
  518MOL0     C69824  11.204   4.688  10.720  0.3473  0.0504  0.3825
  518MOL0     C69825  11.132   4.815  10.751  0.7949  0.4385  0.1589
  518MOL0     O69826  11.202   4.928  10.741  0.2554 -0.0873  0.9697
  518MOL0     C69827  11.134   5.046  10.723 -0.2717 -0.1147 -0.0766
  518MOL0     C69828  11.069   5.115  10.828  0.2451  0.9076 -0.7512
  518MOL0     C69829  10.980   5.216  10.801  0.3003  0.1872 -0.2557
  518MOL0     C69830  10.959   5.261  10.669 -0.0076 -0.5868  0.2521
  518MOL0     O69831  10.897   5.384  10.644  0.2270  0.0842 -0.0943
  518MOL0     C69832  10.795   5.441  10.736  0.0737 -0.6178  0.9637
  518MOL0     C69833  10.661   5.369  10.741 -0.2611  1.1637  0.2864
  518MOL0     C69834  10.543   5.451  10.788 -0.6702  0.0613  0.4666
  518MOL0     C69835  10.421   5.435  10.690 -0.8076  0.1224 -0.3516
  518MOL0     C69836  10.314   5.546  10.688 -0.5132 -0.7177 -0.6078
  518MOL0     C69837  10.240   5.557  10.827  0.1039  0.2392  0.9782
  518MOL0     C69838  10.147   5.678  10.835  0.2293 -0.0782 -0.2163
  518MOL0     C69839  10.027   5.678  10.741  0.1331 -1.0239 -0.3714
  518MOL0    Cl69840   9.928   5.526  10.752 -0.0972  0.0378 -0.3274
  518MOL0     C69841  11.026   5.194  10.564 -0.0586 -0.3149 -0.0804
  518MOL0     C69842  11.117   5.086  10.593 -0.3200 -1.1527 -0.5935
  518MOL0     O69843  11.024   4.812  10.807  0.1714 -0.3220  0.1415
  518MOL0     C69844  11.331   4.700  10.649  1.6582 -0.8147 -0.1257
  518MOL0     C69845  11.411   4.586  10.644 -0.2068 -0.6690 -0.2811
  518MOL0     N69846  11.650   4.046  10.289  0.3975  0.3428  0.4390
  518MOL0     N69847  11.665   4.076  10.166 -0.8807  0.2024 -0.3281
  518MOL0     C69848  11.306   4.936  10.212 -0.0531 -0.4608  0.0515
  518MOL0     C69849  11.251   5.064  10.195  0.6695  1.0875  0.2418
  518MOL0     C69850  11.263   5.531  10.142  0.3629 -0.0668  0.0215
  518MOL0     C69851  11.137   5.543  10.196  0.0484 -0.3243 -0.3768
  518MOL0     C69852  11.073   5.666  10.187 -0.4269 -0.6912 -0.8063
  518MOL0     C69853  11.126   5.773  10.109  0.2096  1.0946 -0.5628
  518MOL0     O69854  11.037   5.874  10.095 -0.4876 -0.1080 -0.3984
  518MOL0     C69855  11.063   5.976  10.006  0.7282  0.2251 -0.6085
  518MOL0     C69856  10.930   6.057   9.987 -0.0257 -0.5708 -0.0730
  518MOL0     C69857  10.930   6.180  10.088 -0.7979 -0.6870 -0.8707
  518MOL0     C69858  10.905   6.129  10.233  0.8284  0.1853 -0.1028
  518MOL0     C69859  10.836   6.230  10.311 -0.5315  0.4156  0.5436
  518MOL0     C69860  10.795   6.339  10.364 -1.1811 -0.2929  1.1932
  518MOL0     C69861  11.257   5.756  10.055  0.6501 -0.8790  0.1704
  518MOL0     C69862  11.316   5.633  10.073 -0.6834 -0.0339  0.0033
  518MOL0     H69863  11.504   5.234  10.360 -0.8009  0.3740 -0.3296
  518MOL0     H69864  11.589   4.998  10.370  1.3714  1.0868 -2.3145
  518MOL0     H69865  11.343   4.653  10.286 -1.2639 -2.0811 -3.0653
  518MOL0     H69866  11.410   4.692  10.137 -1.4415  2.9936  1.0164
  518MOL0     H69867  11.649   4.610  10.228 -1.1737  0.9953 -0.6261
  518MOL0     H69868  11.568   4.559  10.370  1.0515 -1.3516 -0.5943
  518MOL0     H69869  11.572   4.360  10.259 -2.6766 -2.6658 -1.1041
  518MOL0     H69870  11.402   4.419  10.273 -0.0332 -1.5723  0.3472
  518MOL0     H69871  11.451   4.327  10.053  2.2612 -0.6506  1.4079
  518MOL0     H69872  11.390   4.486  10.038  2.1768  0.0085 -1.7182
  518MOL0     H69873  11.563   4.469   9.870  0.8845 -0.0035 -0.6049
  518MOL0     H69874  11.619   4.582   9.984  2.3766 -0.8453  1.1336
  518MOL0     H69875  11.824   4.464   9.949 -0.3534 -0.1866 -2.4208
  518MOL0     H69876  11.768   4.421  10.100  1.5422 -0.9389  0.0609
  518MOL0     H69877  11.643   4.222   9.946 -0.2818 -0.4580 -1.9826
  518MOL0     H69878  11.774   4.264   9.840  1.2207  1.1190  0.4397
  518MOL0     H69879  11.937   4.240  10.060 -2.3036  2.1662  3.5895
  518MOL0     H69880  11.877   4.104   9.967 -0.2151 -0.8804 -0.0349
  518MOL0     H69881  11.920   4.235  10.310  0.6260 -1.7973  3.1857
  518MOL0     H69882  11.748   4.031  10.561 -0.9913 -0.5001 -0.1756
  518MOL0     H69883  11.859   4.167  10.521  1.9442 -2.9513 -3.7321
  518MOL0     H69884  11.567   4.189  10.504  0.3143 -1.4816  0.9821
  518MOL0     H69885  11.682   4.324  10.518 -0.4547  0.2924 -2.5102
  518MOL0     H69886  11.736   4.235  10.745 -0.3242  1.2040 -0.7850
  518MOL0     H69887  11.585   4.128  10.734 -0.2534 -0.3383 -2.8850
  518MOL0     H69888  11.608   4.427  10.757 -0.3175  0.3792  1.6217
  518MOL0     H69889  11.535   4.310  10.860 -0.1543 -1.8081 -0.6433
  518MOL0     H69890  11.193   4.354  10.771  0.3825  1.0209  1.9540
  518MOL0     H69891  10.982   4.583  10.869  0.2571 -0.5599  1.3685
  518MOL0     H69892  10.970   4.534  10.683  5.5339  0.9677 -3.0250
  518MOL0     H69893  11.006   4.416  10.801  0.1812 -0.5839 -0.0115
  518MOL0     H69894  11.076   5.076  10.929  0.7106  0.7261 -0.8495
  518MOL0     H69895  10.934   5.268  10.884  3.0299  1.2901  0.6781
  518MOL0     H69896  10.842   5.474  10.830  0.0013 -0.7401  1.0439
  518MOL0     H69897  10.774   5.536  10.688  3.4999 -0.4973 -0.5897
  518MOL0     H69898  10.627   5.316  10.652 -1.1621 -3.3055  2.9642
  518MOL0     H69899  10.678   5.285  10.809 -0.6567  0.4220 -0.5114
  518MOL0     H69900  10.567   5.557  10.802 -2.1686  0.1874  2.5902
  518MOL0     H69901  10.517   5.411  10.886  1.1809 -0.6080  0.7081
  518MOL0     H69902  10.452   5.415  10.587  0.1842 -1.3804  0.2121
  518MOL0     H69903  10.365   5.343  10.710 -1.7093  0.6131 -0.5708
  518MOL0     H69904  10.241   5.535  10.607  0.4640 -0.4672 -1.5540
  518MOL0     H69905  10.365   5.642  10.673  0.5750 -1.2315 -0.2632
  518MOL0     H69906  10.196   5.457  10.833 -0.9594  0.6120 -0.2398
  518MOL0     H69907  10.307   5.563  10.913 -0.0460 -1.5580  1.2511
  518MOL0     H69908  10.210   5.766  10.818  0.8856  0.0923  2.6195
  518MOL0     H69909  10.109   5.701  10.935  1.8632  1.4904  0.1026
  518MOL0     H69910  10.058   5.683  10.637  0.9903 -4.6618 -0.4199
  518MOL0     H69911   9.954   5.757  10.765 -1.7709 -3.2682  1.8508
  518MOL0     H69912  11.007   5.240  10.467 -0.7842 -1.2332 -0.3855
  518MOL0     H69913  11.159   5.037  10.506  1.2216  2.9491 -2.4263
  518MOL0     H69914  11.347   4.797  10.604 -1.4370 -0.3806 -0.4880
  518MOL0     H69915  11.512   4.598  10.606  0.9658 -2.7656  1.9035
  518MOL0     H69916  11.236   4.860  10.177  2.6074 -2.7516 -0.6743
  518MOL0     H69917  11.155   5.072  10.144  0.6199  0.1552  0.1662
  518MOL0     H69918  11.085   5.461  10.245 -2.0866 -0.1223 -2.1184
  518MOL0     H69919  10.976   5.676  10.236  0.1572 -1.3871  0.5314
  518MOL0     H69920  11.147   6.044  10.024 -0.2814  0.9408  1.9191
  518MOL0     H69921  11.094   5.942   9.907 -1.0225  0.2343 -1.1855
  518MOL0     H69922  10.846   5.989  10.002 -0.3190 -0.1631  0.1673
  518MOL0     H69923  10.934   6.102   9.887  1.2543  2.8635  1.3305
  518MOL0     H69924  10.841   6.238  10.061 -2.5958 -2.2762  1.2784
  518MOL0     H69925  11.018   6.242  10.065 -0.8828  0.5620  1.8645
  518MOL0     H69926  11.004   6.117  10.279  1.3860  2.4172 -0.6297
  518MOL0     H69927  10.846   6.037  10.226  1.2931 -0.0487 -1.5500
  518MOL0     H69928  10.772   6.436  10.403  0.1368  0.6962 -0.3659
  518MOL0     H69929  11.299   5.838   9.999 -1.8905 -0.9680 -2.0559
  518MOL0     H69930  11.410   5.613  10.024 -0.4218 -2.0223  1.1889
  519MOL0     O69931   3.730   7.047   2.598 -0.3670 -0.2824 -0.1034
  519MOL0     C69932   3.665   6.951   2.618 -0.2011  0.3647 -0.4750
  519MOL0     O69933   3.538   6.927   2.580 -0.0387 -0.4455  0.6744
  519MOL0     C69934   3.459   7.016   2.525 -0.0204  0.2514  0.0050
  519MOL0     C69935   3.476   7.152   2.505 -0.0568  0.3330  0.1107
  519MOL0     C69936   3.383   7.221   2.429  0.1170 -0.2873  0.2122
  519MOL0     C69937   3.270   7.163   2.383 -0.0286 -0.2339 -0.1129
  519MOL0     O69938   3.178   7.239   2.316  1.1937 -0.7840  0.5951
  519MOL0     C69939   3.207   7.312   2.186 -0.5330  0.4188 -0.6043
  519MOL0     C69940   3.222   7.457   2.219  0.8339 -0.3533  0.9158
  519MOL0     C69941   3.145   7.514   2.329  0.2596  0.8015 -0.5854
  519MOL0     C69942   2.998   7.529   2.286  0.3361 -0.1274  0.1770
  519MOL0     C69943   2.914   7.584   2.400 -1.0763  0.0425 -0.6260
  519MOL0     C69944   2.784   7.623   2.344  0.2587  0.0912 -0.5932
  519MOL0     C69945   2.719   7.700   2.453  0.6853 -0.6012  1.0377
  519MOL0     C69946   2.586   7.742   2.418  0.8440 -0.3595  0.0628
  519MOL0     N69947   2.484   7.629   2.395  0.8340 -0.5557 -0.7510
  519MOL0     C69948   2.467   7.566   2.275  0.6612 -0.6619  0.7252
  519MOL0     C69949   2.367   7.480   2.299  0.1128  0.2681  0.0909
  519MOL0     C69950   2.318   7.385   2.193  0.4223  0.6498 -0.5976
  519MOL0     C69951   2.160   7.410   2.163 -0.0192  0.4009  0.5683
  519MOL0     C69952   2.101   7.299   2.079 -0.2692 -0.3950  0.9064
  519MOL0     C69953   2.109   7.327   1.925  0.5877  0.1017  0.3500
  519MOL0     O69954   2.247   7.358   1.898 -0.6531 -0.3839  0.3162
  519MOL0     C69955   2.314   7.273   1.814  0.3810 -0.4467  0.3549
  519MOL0     C69956   2.264   7.217   1.693 -0.3122  0.5897  0.5954
  519MOL0     C69957   2.356   7.149   1.598  0.2896 -0.4686 -0.2868
  519MOL0     C69958   2.296   7.085   1.482  1.1223  0.2835  0.0305
  519MOL0     C69959   2.500   7.157   1.620  0.3056 -0.1995 -0.3813
  519MOL0     C69960   2.612   7.098   1.533  0.1180  0.0946 -0.5180
  519MOL0     O69961   2.732   7.131   1.570  0.5232  0.1528  0.5960
  519MOL0     C69962   2.848   7.106   1.496 -0.6901 -0.4542  0.8237
  519MOL0     C69963   2.887   6.978   1.444 -0.7589  0.4893 -0.4853
  519MOL0     C69964   3.002   6.942   1.391 -0.1083  0.1859 -0.1242
  519MOL0     C69965   3.109   7.030   1.397  0.1476 -0.3883  0.4866
  519MOL0     O69966   3.234   7.000   1.358 -0.2874 -0.8899 -0.0947
  519MOL0     C69967   3.278   6.868   1.322 -0.1629 -0.2759  0.7576
  519MOL0     C69968   3.425   6.853   1.283  0.4852 -0.1707 -0.1130
  519MOL0     C69969   3.483   6.981   1.212 -0.8512  0.6413  0.5157
  519MOL0     C69970   3.555   6.935   1.083  0.2528  0.0365  0.1602
  519MOL0     C69971   3.612   7.056   1.003 -0.7012 -0.6116  0.7780
  519MOL0     C69972   3.680   7.005   0.871 -0.0598  0.5824  0.9022
  519MOL0     C69973   3.830   6.958   0.893  0.1754 -0.3795 -0.5843
  519MOL0     C69974   3.868   6.853   0.796 -0.8896  0.8514  1.0106
  519MOL0    Cl69975   3.795   6.696   0.852 -0.4375  0.1592 -0.1870
  519MOL0     C69976   3.086   7.157   1.445 -0.3749 -0.4449  0.4158
  519MOL0     C69977   2.959   7.199   1.501  0.2948  0.4731  0.1900
  519MOL0     O69978   2.589   7.018   1.444 -0.3997  0.2765 -0.1247
  519MOL0     C69979   2.537   7.223   1.740  0.0532  0.1375  0.6575
  519MOL0     C69980   2.451   7.282   1.834 -0.6370 -0.5271  1.2099
  519MOL0     N69981   2.328   7.483   2.435 -0.6296  0.0455 -0.6359
  519MOL0     N69982   2.395   7.572   2.488 -0.6654 -0.0755 -0.1610
  519MOL0     C69983   3.241   7.024   2.404  0.4189  0.1647  0.1804
  519MOL0     C69984   3.343   6.952   2.477 -0.1243  0.5657  0.6531
  519MOL0     C69985   3.733   6.837   2.683 -0.8726 -0.8435  0.3633
  519MOL0     C69986   3.871   6.819   2.659 -1.0339 -0.3268  0.6995
  519MOL0     C69987   3.934   6.713   2.722  0.7754  0.0414 -0.5810
  519MOL0     C69988   3.870   6.633   2.823 -0.5573 -0.3367 -0.2694
  519MOL0     O69989   3.930   6.540   2.902  0.0812 -0.1438 -0.2684
  519MOL0     C69990   4.034   6.447   2.855  0.0561 -0.1957  0.0903
  519MOL0     C69991   3.985   6.352   2.744  0.0445  0.1628 -0.2785
  519MOL0     C69992   3.862   6.283   2.793 -0.1470  0.2695  1.4824
  519MOL0     C69993   3.788   6.195   2.693  0.0657  1.7687  1.0257
  519MOL0     C69994   3.837   6.052   2.702 -0.2630  0.2706  0.3960
  519MOL0     C69995   3.881   5.942   2.716 -0.3901  0.2481 -0.2386
  519MOL0     C69996   3.730   6.650   2.843  0.1932  0.0610  0.7205
  519MOL0     C69997   3.663   6.751   2.771 -0.6109 -0.1284  0.0045
  519MOL0     H69998   3.562   7.203   2.545  0.7829  0.3581 -1.6363
  519MOL0     H69999   3.397   7.328   2.420 -2.8838  0.1239 -0.9855
  519MOL0     H70000   3.298   7.274   2.138 -1.3127  0.1624 -1.9260
  519MOL0     H70001   3.126   7.294   2.114 -0.5769  0.4958 -0.5739
  519MOL0     H70002   3.329   7.469   2.243  1.8131  3.0556 -3.6188
  519MOL0     H70003   3.215   7.516   2.127  1.7942 -0.1124  0.9811
  519MOL0     H70004   3.157   7.447   2.415 -1.7029  0.8364 -0.2445
  519MOL0     H70005   3.182   7.609   2.369  2.3855 -1.4270  3.4572
  519MOL0     H70006   2.996   7.594   2.197 -2.7743 -1.2248 -0.7137
  519MOL0     H70007   2.944   7.445   2.241 -0.0326  0.7523 -1.1016
  519MOL0     H70008   2.901   7.512   2.481 -0.6863  1.1275  0.4269
  519MOL0     H70009   2.968   7.664   2.451  1.1687 -2.3000  0.8754
  519MOL0     H70010   2.782   7.684   2.254 -1.9140  3.6751  1.6274
  519MOL0     H70011   2.716   7.538   2.335  0.5872 -0.6543  2.6333
  519MOL0     H70012   2.725   7.642   2.545  2.0912 -1.2619  0.5707
  519MOL0     H70013   2.778   7.790   2.474 -1.6362  1.5981 -1.1287
  519MOL0     H70014   2.583   7.824   2.346 -2.5717  0.7538  1.2713
  519MOL0     H70015   2.544   7.783   2.510  2.5687  0.6118  0.4498
  519MOL0     H70016   2.531   7.590   2.190  0.4772  2.0463  1.2809
  519MOL0     H70017   2.378   7.393   2.102 -0.6066 -0.9004 -1.4612
  519MOL0     H70018   2.329   7.285   2.236 -0.7920  1.2737  1.2995
  519MOL0     H70019   2.146   7.506   2.114  2.0409  0.8612  0.7877
  519MOL0     H70020   2.107   7.421   2.258  1.6046  1.7244  1.3841
  519MOL0     H70021   1.995   7.286   2.100 -0.4417  0.8428  0.8615
  519MOL0     H70022   2.149   7.203   2.101 -1.9628 -1.8866 -1.4639
  519MOL0     H70023   2.035   7.403   1.899 -2.3580 -2.4397  0.7592
  519MOL0     H70024   2.072   7.234   1.881  1.4963  0.3857 -1.0606
  519MOL0     H70025   2.160   7.203   1.667 -0.1824 -0.5193  0.6542
  519MOL0     H70026   2.348   7.123   1.394  0.7254  2.0871  0.5364
  519MOL0     H70027   2.291   6.976   1.483 -4.0672  0.2488  0.9447
  519MOL0     H70028   2.190   7.114   1.484  1.8729  3.3237  1.1045
  519MOL0     H70029   2.809   6.902   1.447 -1.8356  1.4922 -1.9995
  519MOL0     H70030   3.014   6.839   1.357  0.1203 -0.1733  1.0080
  519MOL0     H70031   3.251   6.801   1.404  0.3607  0.9977  2.0099
  519MOL0     H70032   3.221   6.855   1.229 -0.6387  2.4285  0.6041
  519MOL0     H70033   3.484   6.841   1.375  0.3776 -0.4244 -0.0767
  519MOL0     H70034   3.437   6.769   1.214  4.9585 -0.0555  0.2281
  519MOL0     H70035   3.551   7.046   1.268  1.8186  0.2469 -1.9817
  519MOL0     H70036   3.394   7.041   1.191 -1.3669  0.6212  2.5271
  519MOL0     H70037   3.647   6.884   1.113  0.1863  0.2205  0.6888
  519MOL0     H70038   3.497   6.874   1.013  2.8475  1.4314 -3.5250
  519MOL0     H70039   3.675   7.114   1.071  2.7751  0.9381 -3.3517
  519MOL0     H70040   3.533   7.116   0.958 -0.3966 -2.0181 -1.8264
  519MOL0     H70041   3.625   6.924   0.821  1.7833 -0.3485  0.2753
  519MOL0     H70042   3.674   7.080   0.792 -3.1022 -2.5913 -2.2968
  519MOL0     H70043   3.844   6.919   0.994 -1.7710 -5.6682 -2.0234
  519MOL0     H70044   3.891   7.047   0.879 -1.9411  1.7012  2.1926
  519MOL0     H70045   3.975   6.843   0.818 -0.7979  2.5127  1.4037
  519MOL0     H70046   3.853   6.869   0.689  0.3640 -2.1837  0.2660
  519MOL0     H70047   3.166   7.231   1.439  0.1461 -1.0894 -0.9439
  519MOL0     H70048   2.945   7.296   1.546  1.3613  1.9917 -2.4971
  519MOL0     H70049   2.642   7.222   1.767  0.6449  0.1075 -1.4276
  519MOL0     H70050   2.482   7.318   1.931 -2.8820  3.7581  0.5657
  519MOL0     H70051   3.146   6.978   2.377 -0.2627  0.8589  1.3225
  519MOL0     H70052   3.325   6.852   2.514  0.1627  0.6980  1.1730
  519MOL0     H70053   3.924   6.886   2.592 -0.9199  0.6011  1.6936
  519MOL0     H70054   4.040   6.695   2.707  1.4222  1.5318  1.7142
  519MOL0     H70055   4.119   6.503   2.816  0.0154  0.5936  1.1011
  519MOL0     H70056   4.068   6.390   2.943  3.2772  2.8752  1.0912
  519MOL0     H70057   4.069   6.286   2.723 -0.7653 -0.1526 -2.8663
  519MOL0     H70058   3.978   6.410   2.652  3.5393 -0.5139 -1.1190
  519MOL0     H70059   3.782   6.353   2.821 -0.1880  0.0969  1.7917
  519MOL0     H70060   3.891   6.220   2.877  1.8317 -1.5439 -0.4294
  519MOL0     H70061   3.790   6.230   2.590 -3.0559  2.1721  1.0037
  519MOL0     H70062   3.680   6.205   2.708 -0.1103  1.6518 -0.0804
  519MOL0     H70063   3.912   5.842   2.738  1.2701  0.4084 -1.6388
  519MOL0     H70064   3.671   6.595   2.916 -0.6499  0.2439  0.1964
  519MOL0     H70065   3.561   6.779   2.794 -0.6458 -0.5462  0.3654
  520MOL0     O70066  10.699   0.655   5.100  0.0262 -0.8479 -0.1470
  520MOL0     C70067  10.791   0.718   5.043  0.0611 -0.0387 -0.1752
  520MOL0     O70068  10.779   0.825   4.958  0.8162  0.7866 -0.0512
  520MOL0     C70069  10.646   0.852   4.926 -0.4280  0.5719  1.2493
  520MOL0     C70070  10.574   0.945   5.002  0.9107  0.9778  0.3800
  520MOL0     C70071  10.440   0.973   4.957 -0.2533 -0.1872 -0.1509
  520MOL0     C70072  10.379   0.906   4.853  0.7593  0.9155 -0.0810
  520MOL0     O70073  10.247   0.909   4.817 -0.3050  0.0178 -0.6432
  520MOL0     C70074  10.167   1.023   4.838  0.6262  0.6486  0.7576
  520MOL0     C70075  10.206   1.139   4.746  0.3896 -0.2245 -1.1048
  520MOL0     C70076  10.211   1.103   4.598  0.0399  1.0064  0.0428
  520MOL0     C70077  10.235   1.229   4.509  0.0594 -0.4382  0.9940
  520MOL0     C70078  10.142   1.250   4.383 -0.1030  0.4136 -0.0737
  520MOL0     C70079   9.991   1.253   4.421  0.5178  0.5564  0.8347
  520MOL0     C70080   9.912   1.316   4.304  0.6575  0.3288 -0.2643
  520MOL0     C70081   9.935   1.474   4.308 -0.4100 -0.4749  0.9912
  520MOL0     N70082   9.870   1.540   4.194  0.1236  0.6407  0.1297
  520MOL0     C70083   9.738   1.560   4.186 -0.3299  0.2707  0.4429
  520MOL0     C70084   9.726   1.627   4.065  0.2513  0.3830  0.3765
  520MOL0     C70085   9.604   1.714   4.011  0.7976 -0.7223 -0.6455
  520MOL0     C70086   9.487   1.684   4.106  0.2458 -0.1864 -0.7484
  520MOL0     C70087   9.380   1.784   4.081  0.9732 -0.2740 -0.4450
  520MOL0     C70088   9.263   1.769   4.173  0.6700  0.1078 -0.5309
  520MOL0     O70089   9.182   1.885   4.165  0.7600  0.0450  0.5644
  520MOL0     C70090   9.067   1.891   4.242 -0.2221 -0.9748 -0.4157
  520MOL0     C70091   8.973   1.980   4.197  0.0318 -0.8063 -0.2124
  520MOL0     C70092   8.848   1.985   4.255  0.0317  0.1394 -0.6523
  520MOL0     C70093   8.752   2.082   4.197 -0.4849 -0.2110 -0.6842
  520MOL0     C70094   8.822   1.896   4.366  0.5547 -0.3722  0.5251
  520MOL0     C70095   8.682   1.903   4.429  0.2543  0.2953  0.4916
  520MOL0     O70096   8.676   1.936   4.567  0.3226  0.0385  0.1992
  520MOL0     C70097   8.550   1.965   4.610  0.4494 -0.2836 -0.1999
  520MOL0     C70098   8.462   1.873   4.664  0.0322  0.2136 -0.4520
  520MOL0     C70099   8.349   1.903   4.722 -0.0588 -0.9651 -0.1325
  520MOL0     C70100   8.305   2.045   4.732  0.1141  0.6361  0.5028
  520MOL0     O70101   8.181   2.072   4.785  0.3105 -0.1957  0.0291
  520MOL0     C70102   8.144   2.008   4.911  0.0461 -0.7117  0.3369
  520MOL0     C70103   8.244   2.034   5.022  0.3194 -0.3619 -0.0907
  520MOL0     C70104   8.198   1.979   5.156 -0.7549  0.3402  0.5155
  520MOL0     C70105   8.289   1.869   5.201 -0.2474 -0.4687 -0.6656
  520MOL0     C70106   8.268   1.826   5.348  0.1582  0.1387 -0.1383
  520MOL0     C70107   8.370   1.726   5.414  0.2720  0.3880  0.1701
  520MOL0     C70108   8.366   1.586   5.350  0.2163  0.1929  0.4807
  520MOL0     C70109   8.456   1.495   5.438  0.2994  0.1467  0.1620
  520MOL0    Cl70110   8.640   1.496   5.391 -0.1395 -0.2314 -0.2716
  520MOL0     C70111   8.391   2.145   4.674 -0.4856  0.3095 -0.1448
  520MOL0     C70112   8.506   2.092   4.612 -0.0145 -0.9783  0.3921
  520MOL0     O70113   8.580   1.889   4.364 -1.2438 -0.0756 -0.5340
  520MOL0     C70114   8.927   1.830   4.430  0.4953  1.0574 -0.5040
  520MOL0     C70115   9.048   1.819   4.365  0.0346 -0.4234  0.8357
  520MOL0     N70116   9.848   1.633   4.006  0.0465 -0.1195 -0.7332
  520MOL0     N70117   9.938   1.577   4.088 -0.5132 -0.3719 -0.3180
  520MOL0     C70118  10.458   0.809   4.785  1.6138  0.7631  0.0601
  520MOL0     C70119  10.582   0.777   4.819  0.0469 -0.5249 -0.3442
  520MOL0     C70120  10.937   0.681   5.083 -0.8365 -0.1954 -0.5707
  520MOL0     C70121  10.958   0.563   5.154  0.0021 -0.0468 -0.5392
  520MOL0     C70122  11.081   0.538   5.195 -0.3371  0.6834  0.1651
  520MOL0     C70123  11.195   0.616   5.150  0.5034 -0.6330 -1.1303
  520MOL0     O70124  11.325   0.589   5.187 -0.6426  0.8222  0.6928
  520MOL0     C70125  11.357   0.530   5.317  0.6121 -0.4455  0.3733
  520MOL0     C70126  11.299   0.608   5.434 -0.5023  0.8596 -0.1571
  520MOL0     C70127  11.339   0.529   5.559 -0.5546 -0.8489  0.0068
  520MOL0     C70128  11.284   0.584   5.691 -0.2913  0.5608 -0.6366
  520MOL0     C70129  11.318   0.485   5.800 -0.2202 -0.3231  1.1988
  520MOL0     C70130  11.356   0.398   5.869  0.2215  0.5757 -0.3061
  520MOL0     C70131  11.173   0.737   5.086  0.5983 -0.0787 -0.0955
  520MOL0     C70132  11.043   0.762   5.044  0.6402  0.0450 -0.4920
  520MOL0     H70133  10.621   0.997   5.084 -0.1882 -0.0587  1.7171
  520MOL0     H70134  10.398   1.058   5.010  3.3508  4.0904 -3.3535
  520MOL0     H70135  10.064   0.993   4.821  0.0443  2.9353 -0.1561
  520MOL0     H70136  10.169   1.050   4.944 -0.7075 -0.9072  1.2238
  520MOL0     H70137  10.136   1.220   4.771 -0.2771 -1.4102  1.1457
  520MOL0     H70138  10.304   1.184   4.765  0.8911 -0.5991 -2.6241
  520MOL0     H70139  10.292   1.030   4.592 -1.1152 -0.4052  0.7454
  520MOL0     H70140  10.130   1.043   4.555  1.4115 -0.0485 -1.1667
  520MOL0     H70141  10.241   1.326   4.559  0.1630 -0.1287  0.3885
  520MOL0     H70142  10.336   1.217   4.466  1.1157  1.6240  2.7101
  520MOL0     H70143  10.172   1.346   4.339 -1.1720 -0.9644 -4.2853
  520MOL0     H70144  10.141   1.165   4.314 -2.0861 -1.2945  1.9011
  520MOL0     H70145   9.954   1.152   4.440  2.8203 -0.8675 -1.4734
  520MOL0     H70146   9.981   1.313   4.512  2.8636  0.7498  1.0351
  520MOL0     H70147   9.937   1.284   4.203  0.4823  1.6385 -0.7391
  520MOL0     H70148   9.805   1.300   4.322  0.8911  0.3097  1.2662
  520MOL0     H70149  10.039   1.506   4.296 -0.8863  0.8522  0.0810
  520MOL0     H70150   9.899   1.518   4.402 -3.4460 -0.0485 -0.2349
  520MOL0     H70151   9.657   1.553   4.258  1.6432  3.7130  3.3633
  520MOL0     H70152   9.621   1.822   4.010  0.3584 -0.6504 -0.9300
  520MOL0     H70153   9.585   1.684   3.907 -0.6507  1.8724 -1.2010
  520MOL0     H70154   9.527   1.701   4.206 -0.7729  4.9950 -0.9255
  520MOL0     H70155   9.455   1.581   4.087 -0.8123 -0.5351  2.3653
  520MOL0     H70156   9.353   1.773   3.976  0.9206  1.8351 -0.6968
  520MOL0     H70157   9.425   1.884   4.088 -0.3494  0.3617 -0.7210
  520MOL0     H70158   9.297   1.745   4.274  3.2312  0.3509 -1.2725
  520MOL0     H70159   9.204   1.686   4.132 -0.7535  1.4656 -1.3223
  520MOL0     H70160   9.002   2.039   4.111  3.6527 -1.6226  0.2861
  520MOL0     H70161   8.810   2.171   4.171 -0.3239 -0.4466 -1.1281
  520MOL0     H70162   8.720   2.049   4.098 -0.4910  1.1287 -1.1494
  520MOL0     H70163   8.667   2.106   4.262  0.6976 -0.5675  1.0791
  520MOL0     H70164   8.492   1.769   4.661 -0.2845  0.1334 -0.9097
  520MOL0     H70165   8.290   1.818   4.753  0.7580 -2.2965 -1.9969
  520MOL0     H70166   8.053   2.041   4.962  0.2842  2.2407 -0.9621
  520MOL0     H70167   8.134   1.900   4.900 -3.0995 -0.8489  2.8367
  520MOL0     H70168   8.335   1.992   4.978  0.9964  0.7071  0.2379
  520MOL0     H70169   8.260   2.139   5.048 -2.7145  0.0823  0.3375
  520MOL0     H70170   8.098   1.936   5.144 -0.6692 -1.1178  3.8769
  520MOL0     H70171   8.188   2.067   5.220 -1.6550 -0.4401  1.4890
  520MOL0     H70172   8.285   1.790   5.125  3.6819 -0.8742 -0.6535
  520MOL0     H70173   8.397   1.887   5.191 -0.2815 -0.6372 -1.4148
  520MOL0     H70174   8.171   1.779   5.364  1.6365 -2.7471  1.0558
  520MOL0     H70175   8.266   1.916   5.411 -3.0412  0.5722 -0.6824
  520MOL0     H70176   8.474   1.756   5.423  0.5049  0.2502 -1.6701
  520MOL0     H70177   8.334   1.719   5.517  0.0211  1.7295  0.1955
  520MOL0     H70178   8.392   1.592   5.244  3.5474  1.2849  1.2372
  520MOL0     H70179   8.265   1.547   5.363 -0.2162  1.5200  1.3448
  520MOL0     H70180   8.424   1.391   5.439  1.1779 -0.1429  1.7470
  520MOL0     H70181   8.443   1.535   5.539 -4.1038 -0.3842 -0.0073
  520MOL0     H70182   8.372   2.252   4.676  0.6542  0.5150  1.1004
  520MOL0     H70183   8.583   2.156   4.569 -1.4762  0.8383  0.3384
  520MOL0     H70184   8.905   1.776   4.521  3.2088  0.1173 -0.2978
  520MOL0     H70185   9.130   1.755   4.395 -0.8473 -3.8541 -3.0664
  520MOL0     H70186  10.421   0.748   4.703  0.1599  0.7496  0.6860
  520MOL0     H70187  10.636   0.695   4.772  2.1773  0.3956  0.3700
  520MOL0     H70188  10.872   0.505   5.186 -0.2691  1.5571  1.9150
  520MOL0     H70189  11.103   0.445   5.247  1.4078  0.0764 -1.5032
  520MOL0     H70190  11.317   0.428   5.324 -4.3565  1.2206  0.2944
  520MOL0     H70191  11.466   0.537   5.322  1.1038 -3.9150 -1.9530
  520MOL0     H70192  11.190   0.609   5.428 -0.5044  2.2969 -0.2028
  520MOL0     H70193  11.331   0.712   5.444  0.9561  0.2650  2.2294
  520MOL0     H70194  11.447   0.536   5.577 -0.4986 -0.3205 -0.5034
  520MOL0     H70195  11.327   0.421   5.548  4.8484 -1.5849 -1.6950
  520MOL0     H70196  11.175   0.579   5.693 -0.2775  0.0734  1.9239
  520MOL0     H70197  11.310   0.686   5.721 -1.7117  0.7839 -0.0936
  520MOL0     H70198  11.381   0.313   5.929 -2.8945 -1.0521 -1.0879
  520MOL0     H70199  11.257   0.803   5.063  0.7986  0.4863  2.0698
  520MOL0     H70200  11.012   0.849   4.986 -4.4880 -0.9274  0.3105
  521MOL0     O70201  10.640  11.458   4.503 -0.4854  0.2245  0.1003
  521MOL0     C70202  10.677  11.351   4.457 -0.2168 -0.0145  0.4229
  521MOL0     O70203  10.613  11.268   4.365  0.2826 -0.6549 -0.5604
  521MOL0     C70204  10.476  11.277   4.334  0.0212  0.2536  0.7241
  521MOL0     C70205  10.429  11.201   4.232  0.1503  0.4442 -0.1270
  521MOL0     C70206  10.305  11.217   4.174  0.3373  0.4738 -1.1059
  521MOL0     C70207  10.211  11.304   4.228 -0.3030 -0.2003 -0.0104
  521MOL0     O70208  10.084  11.317   4.183  0.3485  0.0003 -0.3032
  521MOL0     C70209   9.985  11.291   4.281  0.2981 -0.3071 -0.1069
  521MOL0     C70210   9.865  11.340   4.203 -0.3065  0.4412 -0.1136
  521MOL0     C70211   9.867  11.494   4.173  0.1507 -0.0167 -0.0533
  521MOL0     C70212   9.727  11.529   4.116 -0.5379 -0.4093  1.1816
  521MOL0     C70213   9.726  11.668   4.035  0.0533  0.8171 -0.8188
  521MOL0     C70214   9.587  11.709   3.981 -0.1638 -0.1441  0.2109
  521MOL0     C70215   9.517  11.597   3.898  0.0507  0.1976 -0.2102
  521MOL0     C70216   9.608  11.555   3.786  0.0643 -0.4759  0.7392
  521MOL0     N70217   9.554  11.443   3.709  0.7668 -0.0240 -0.1237
  521MOL0     C70218   9.638  11.379   3.633  0.4575  0.1586 -0.8305
  521MOL0     C70219   9.571  11.265   3.596 -0.6363  0.0194  0.5217
  521MOL0     C70220   9.637  11.165   3.502  0.3800  1.0119  0.0488
  521MOL0     C70221   9.569  11.029   3.502 -0.4737 -0.4193 -0.6209
  521MOL0     C70222   9.445  11.035   3.429 -0.7042  0.1942 -0.0985
  521MOL0     C70223   9.368  10.898   3.429  0.3188 -0.1038  0.1198
  521MOL0     O70224   9.245  10.896   3.342  1.0022 -0.3427 -0.6705
  521MOL0     C70225   9.120  10.935   3.389  0.1091 -0.5244 -0.0253
  521MOL0     C70226   9.004  10.908   3.316 -0.5206 -0.2650 -0.1605
  521MOL0     C70227   8.874  10.954   3.350 -0.8441 -0.4706  0.4922
  521MOL0     C70228   8.761  10.917   3.267  1.1497 -0.1497 -1.2148
  521MOL0     C70229   8.867  11.029   3.472  1.0299  1.3707 -0.0876
  521MOL0     C70230   8.737  11.078   3.525  0.1025 -0.2139 -0.4406
  521MOL0     O70231   8.737  11.106   3.662  0.6691 -0.5191  0.3227
  521MOL0     C70232   8.616  11.126   3.721 -0.1905  0.0267  0.6310
  521MOL0     C70233   8.527  11.229   3.697  1.4854  0.7687 -0.8380
  521MOL0     C70234   8.413  11.246   3.781 -0.1083  0.1894  1.1174
  521MOL0     C70235   8.376  11.139   3.860 -0.7246  0.0243 -0.2146
  521MOL0     O70236   8.265  11.131   3.939 -0.0678  0.4979 -0.3259
  521MOL0     C70237   8.139  11.172   3.876  0.5894  0.4181  0.7615
  521MOL0     C70238   8.117  11.070   3.762 -0.5252 -0.5443 -0.5030
  521MOL0     C70239   7.971  11.074   3.723  0.0842 -0.0894 -0.6679
  521MOL0     C70240   7.947  11.010   3.583 -0.6843 -0.1084 -1.1379
  521MOL0     C70241   7.805  10.989   3.540 -0.4815  0.3345 -0.1414
  521MOL0     C70242   7.704  11.059   3.639 -0.1075  0.1420 -0.1088
  521MOL0     C70243   7.558  11.019   3.604 -0.8360 -0.0259  0.7211
  521MOL0     C70244   7.513  11.100   3.474 -0.9969  0.6483  0.0210
  521MOL0    Cl70245   7.508  11.277   3.514  0.1463 -0.6026  0.1158
  521MOL0     C70246   8.455  11.022   3.869  0.0452  1.3425  0.0720
  521MOL0     C70247   8.576  11.016   3.798 -0.6421  0.2930  0.3382
  521MOL0     O70248   8.632  11.063   3.464  0.8940 -0.7367 -0.8712
  521MOL0     C70249   8.989  11.048   3.549 -0.0838  0.2965 -0.2600
  521MOL0     C70250   9.112  11.013   3.513 -0.1616  0.5961  0.2259
  521MOL0     N70251   9.446  11.270   3.656 -0.5205 -0.2450  0.3220
  521MOL0     N70252   9.429  11.378   3.723  0.2363 -0.1000 -0.1440
  521MOL0     C70253  10.258  11.383   4.330 -0.0856 -0.9984  0.7501
  521MOL0     C70254  10.385  11.367   4.387  0.4470 -0.7726 -0.9499
  521MOL0     C70255  10.819  11.317   4.497 -0.1632 -0.3566 -1.2437
  521MOL0     C70256  10.884  11.358   4.612 -1.1348  0.0330  0.4730
  521MOL0     C70257  11.017  11.326   4.653  0.8517  0.1194  0.4427
  521MOL0     C70258  11.089  11.244   4.556 -0.4579 -0.9830 -0.5117
  521MOL0     O70259  11.223  11.206   4.574 -0.7957 -0.2076  0.0038
  521MOL0     C70260  11.307  11.196   4.460 -0.5331  0.2800  0.1352
  521MOL0     C70261  11.460  11.199   4.514  0.5142 -0.6621  0.8534
  521MOL0     C70262  11.529  11.066   4.491 -0.2345  0.0760  0.0081
  521MOL0     C70263  11.496  10.957   4.601 -0.8744 -0.0178  0.1704
  521MOL0     C70264  11.610  10.949   4.693  0.2757 -0.3764 -0.2443
  521MOL0     C70265  11.711  10.935   4.759  0.7517 -0.4179  0.1401
  521MOL0     C70266  11.022  11.210   4.437 -0.4954  0.1044  0.2997
  521MOL0     C70267  10.891  11.243   4.407  0.0875 -0.0037  0.1287
  521MOL0     H70268  10.499  11.141   4.174 -1.7878  0.6136 -2.7925
  521MOL0     H70269  10.262  11.161   4.091 -1.7993 -0.2662  0.4159
  521MOL0     H70270   9.974  11.187   4.313  2.3575 -0.0954  1.4892
  521MOL0     H70271  10.000  11.351   4.372 -1.2213 -0.9171  0.5722
  521MOL0     H70272   9.857  11.282   4.111  0.5693  2.5573 -1.5981
  521MOL0     H70273   9.768  11.324   4.252 -2.1867  1.0383 -3.3400
  521MOL0     H70274   9.887  11.564   4.254  0.0358  0.1431 -0.1621
  521MOL0     H70275   9.939  11.509   4.092 -0.8301 -1.4598 -1.2360
  521MOL0     H70276   9.689  11.447   4.054 -0.9402  1.1536 -0.7392
  521MOL0     H70277   9.652  11.542   4.195 -2.6909  3.2327 -1.1379
  521MOL0     H70278   9.771  11.745   4.100  3.1598  0.8319 -2.7778
  521MOL0     H70279   9.791  11.671   3.947  0.3550  0.6828 -0.6033
  521MOL0     H70280   9.523  11.724   4.069 -2.6405  0.4678 -1.6022
  521MOL0     H70281   9.590  11.801   3.923 -2.4528 -0.3980 -0.4025
  521MOL0     H70282   9.499  11.510   3.962  1.5479 -1.2534 -1.6703
  521MOL0     H70283   9.419  11.628   3.861  0.3011 -2.7133 -3.8100
  521MOL0     H70284   9.710  11.531   3.818 -0.0317 -3.1307 -0.6957
  521MOL0     H70285   9.623  11.638   3.717 -0.6296  2.2828  3.6551
  521MOL0     H70286   9.731  11.419   3.596  0.8831  0.4722  0.5146
  521MOL0     H70287   9.650  11.201   3.399  2.2083  0.0810 -0.1067
  521MOL0     H70288   9.739  11.149   3.540 -0.0186  1.1015  1.1791
  521MOL0     H70289   9.541  11.009   3.606 -2.7692  2.2903 -0.5999
  521MOL0     H70290   9.647  10.967   3.458 -1.5258 -2.2877  0.0467
  521MOL0     H70291   9.462  11.077   3.329  0.0885  1.8693  0.6997
  521MOL0     H70292   9.367  11.096   3.477 -2.8497 -2.3405 -0.0920
  521MOL0     H70293   9.338  10.867   3.530  0.6616  1.9985  0.9105
  521MOL0     H70294   9.443  10.828   3.389  1.0427 -0.2152  1.5876
  521MOL0     H70295   9.024  10.838   3.235 -1.5027 -2.2418  1.2553
  521MOL0     H70296   8.795  10.841   3.196  2.3218 -0.5180 -0.2804
  521MOL0     H70297   8.688  10.866   3.330  0.3982 -2.3328 -3.6570
  521MOL0     H70298   8.700  10.993   3.216 -2.7124 -1.1078  1.5162
  521MOL0     H70299   8.548  11.309   3.626 -1.6033 -0.2149 -3.0823
  521MOL0     H70300   8.360  11.341   3.789 -0.0582  0.3043  0.1167
  521MOL0     H70301   8.058  11.179   3.949  1.4189  1.4151  1.6294
  521MOL0     H70302   8.155  11.271   3.832  2.8928 -1.0613 -2.0408
  521MOL0     H70303   8.181  11.099   3.678  0.5699  1.0549  0.8062
  521MOL0     H70304   8.146  10.975   3.806 -0.0593 -0.4483 -0.5981
  521MOL0     H70305   7.953  11.181   3.716  0.9905  0.0910 -0.4043
  521MOL0     H70306   7.915  11.020   3.800  0.6632  3.8109  2.8960
  521MOL0     H70307   7.989  11.086   3.516 -0.6644  1.0623  0.1717
  521MOL0     H70308   8.008  10.919   3.585  1.1001  1.0626  0.7748
  521MOL0     H70309   7.787  10.883   3.559  2.1944 -0.6418 -2.2803
  521MOL0     H70310   7.786  11.007   3.433  1.9236  0.4541 -0.6069
  521MOL0     H70311   7.714  11.022   3.742  2.0522  0.3363 -0.2030
  521MOL0     H70312   7.720  11.167   3.639 -1.2347  0.7827 -7.0492
  521MOL0     H70313   7.490  11.035   3.689 -3.0914 -3.7544 -0.1256
  521MOL0     H70314   7.559  10.910   3.590  1.0428  0.2148 -1.4563
  521MOL0     H70315   7.414  11.068   3.441 -1.0177 -0.7527  1.3261
  521MOL0     H70316   7.583  11.092   3.391 -1.3337  0.9102 -0.2908
  521MOL0     H70317   8.408  10.943   3.927 -1.5293 -0.0639 -2.9053
  521MOL0     H70318   8.628  10.921   3.795 -0.9844  0.1113 -2.2063
  521MOL0     H70319   8.991  11.087   3.650 -0.9539  0.9826 -0.4855
  521MOL0     H70320   9.193  11.050   3.574 -0.5961  3.2933 -0.7009
  521MOL0     H70321  10.195  11.466   4.358  0.7327 -0.1364  0.0893
  521MOL0     H70322  10.410  11.420   4.478 -0.7820 -3.7735  1.2921
  521MOL0     H70323  10.825  11.424   4.674 -3.3788 -0.6699 -0.7918
  521MOL0     H70324  11.050  11.370   4.747  3.8383 -1.3857  0.2108
  521MOL0     H70325  11.300  11.106   4.398 -2.5307  0.3413  0.1954
  521MOL0     H70326  11.287  11.279   4.391  2.1454 -0.5671 -1.7921
  521MOL0     H70327  11.468  11.224   4.621  2.2006  2.9184  0.0212
  521MOL0     H70328  11.509  11.281   4.462 -1.9885 -1.0962 -2.5194
  521MOL0     H70329  11.631  11.090   4.522 -1.1188  0.5916  2.7653
  521MOL0     H70330  11.506  11.038   4.388  0.9519  0.2976 -0.3371
  521MOL0     H70331  11.494  10.857   4.556 -2.6867 -0.4818  1.1749
  521MOL0     H70332  11.405  10.989   4.653 -0.5691  3.0776 -1.0001
  521MOL0     H70333  11.787  10.924   4.834  0.5450 -0.5226  0.3363
  521MOL0     H70334  11.065  11.140   4.366 -1.0714  0.7332 -0.7021
  521MOL0     H70335  10.840  11.211   4.316 -1.2103  0.9444  0.4854
  522MOL0     O70336   7.298   2.145  11.157  0.5325  0.2787 -0.2357
  522MOL0     C70337   7.268   2.069  11.063  0.6901  0.9651 -0.3237
  522MOL0     O70338   7.219   1.948  11.071  0.9570  0.6926 -0.8906
  522MOL0     C70339   7.177   1.906  11.199 -0.1042  0.3795 -0.1398
  522MOL0     C70340   7.273   1.848  11.278  0.4418  0.0877 -0.6374
  522MOL0     C70341   7.245   1.790  11.406 -0.2776  1.2596 -0.2355
  522MOL0     C70342   7.112   1.791  11.450 -0.1879  0.3182 -0.2359
  522MOL0     O70343   7.079   1.743  11.571 -0.0753  1.2261  0.4534
  522MOL0     C70344   7.176   1.674  11.656  0.4488  0.4478  0.1152
  522MOL0     C70345   7.143   1.676  11.803  0.0797 -0.1848 -0.9992
  522MOL0     C70346   7.248   1.631  11.905  0.0993  0.0936  0.0525
  522MOL0     C70347   7.195   1.562  12.032 -0.3554  0.5848 -0.1338
  522MOL0     C70348   7.305   1.547  12.134 -0.2117  0.1222  0.2234
  522MOL0     C70349   7.263   1.447  12.242 -0.1468  0.6041 -0.7726
  522MOL0     C70350   7.339   1.473  12.380  0.5508 -0.0771  0.7593
  522MOL0     C70351   7.278   1.400  12.502  0.0074  0.2364 -0.3009
  522MOL0     N70352   7.321   1.267  12.508  0.8687  0.5742  0.4260
  522MOL0     C70353   7.444   1.229  12.519 -0.5553 -0.4742  0.5315
  522MOL0     C70354   7.443   1.089  12.520  0.4502 -0.1492  0.4947
  522MOL0     C70355   7.574   1.014  12.535  0.1649  0.8251  0.1778
  522MOL0     C70356   7.561   0.916  12.660  0.5148 -1.3528  0.1727
  522MOL0     C70357   7.557   0.990  12.796 -0.2710 -0.3457  0.5376
  522MOL0     C70358   7.705   1.021  12.841  0.1933 -0.0441  0.7501
  522MOL0     O70359   7.771   1.126  12.776  0.0045 -0.2816  0.2917
  522MOL0     C70360   7.911   1.138  12.780  0.7065 -0.0620 -0.1709
  522MOL0     C70361   7.988   1.141  12.673 -0.9182  1.1984  0.3669
  522MOL0     C70362   8.128   1.139  12.668  0.0288 -1.1747 -0.3629
  522MOL0     C70363   8.188   1.130  12.534 -0.0381 -0.0501  0.1883
  522MOL0     C70364   8.202   1.152  12.788 -0.5956  0.1954 -0.8514
  522MOL0     C70365   8.353   1.167  12.798  0.4011 -0.1992 -0.1835
  522MOL0     O70366   8.426   1.186  12.684  0.3424 -0.1052  0.8324
  522MOL0     C70367   8.569   1.209  12.678  1.3525 -0.1700 -0.0025
  522MOL0     C70368   8.611   1.290  12.583 -0.0585 -1.1176  0.3681
  522MOL0     C70369   8.746   1.329  12.571  0.4108  0.4675  0.0824
  522MOL0     C70370   8.844   1.260  12.640  0.0931 -0.1699  0.3294
  522MOL0     O70371   8.978   1.287  12.654 -0.1454 -0.1766  0.8873
  522MOL0     C70372   9.014   1.425  12.624 -0.0589  0.2069 -0.4104
  522MOL0     C70373   9.156   1.436  12.682 -0.5390  0.4211  0.0593
  522MOL0     C70374   9.171   1.439  12.833  0.7230  0.3218 -0.8005
  522MOL0     C70375   9.316   1.462  12.879  0.4659  1.0899 -0.3383
  522MOL0     C70376   9.349   1.370  12.990  0.1727 -0.2293 -0.2625
  522MOL0     C70377   9.462   1.431  13.065  0.3756 -0.8518  0.3653
  522MOL0     C70378   9.503   1.342  13.178  0.3811 -0.1646  0.1500
  522MOL0     C70379   9.626   1.389  13.246 -0.4160 -0.1659 -0.4566
  522MOL0    Cl70380   9.641   1.283  13.392  0.1743 -0.0658  0.1719
  522MOL0     C70381   8.796   1.166  12.727  0.9847  0.0423  0.1074
  522MOL0     C70382   8.660   1.142  12.754  0.7232  0.7171  1.2016
  522MOL0     O70383   8.402   1.169  12.907  0.7016 -0.2015  0.1606
  522MOL0     C70384   8.122   1.134  12.915  0.1604 -0.5480 -0.6148
  522MOL0     C70385   7.985   1.135  12.901  0.6463 -0.3711  0.1125
  522MOL0     N70386   7.308   1.047  12.510 -0.5991  0.1628 -0.5698
  522MOL0     N70387   7.238   1.157  12.510 -0.3728 -0.0493 -0.8309
  522MOL0     C70388   7.017   1.843  11.362 -0.7304 -0.0979  0.2838
  522MOL0     C70389   7.049   1.904  11.248 -0.4689  0.0870  0.7201
  522MOL0     C70390   7.300   2.101  10.915  0.0402 -0.4013 -1.1506
  522MOL0     C70391   7.358   2.219  10.885  0.1456 -0.1766  0.4056
  522MOL0     C70392   7.362   2.259  10.758  1.0245 -0.3802 -0.6738
  522MOL0     C70393   7.311   2.183  10.651  0.2223 -0.2971  0.3576
  522MOL0     O70394   7.293   2.221  10.514 -0.2059  0.2123  0.7740
  522MOL0     C70395   7.335   2.346  10.459 -0.1599 -0.3587  0.4501
  522MOL0     C70396   7.346   2.332  10.313 -0.4120  0.4280  0.3628
  522MOL0     C70397   7.260   2.453  10.256 -0.7713  0.1755  0.4935
  522MOL0     C70398   7.248   2.440  10.109  0.0916  0.3767  0.3694
  522MOL0     C70399   7.179   2.550  10.046  0.4862 -0.5153  0.1664
  522MOL0     C70400   7.111   2.660  10.026 -0.7038 -0.4231  0.0982
  522MOL0     C70401   7.272   2.051  10.691 -0.1603 -0.6725  1.1855
  522MOL0     C70402   7.263   2.011  10.818  0.2487  0.0368 -0.1895
  522MOL0     H70403   7.373   1.852  11.238  0.9865  1.3082  0.7570
  522MOL0     H70404   7.319   1.742  11.470 -3.8341 -2.0262  1.8554
  522MOL0     H70405   7.188   1.570  11.623 -0.5560  0.5414 -0.6078
  522MOL0     H70406   7.271   1.728  11.653  1.4723 -1.2378  0.6104
  522MOL0     H70407   7.108   1.773  11.841 -2.7165 -2.3250  2.5327
  522MOL0     H70408   7.055   1.612  11.808  0.7335 -1.1565 -1.6695
  522MOL0     H70409   7.309   1.551  11.861 -1.4524 -1.5075  0.7060
  522MOL0     H70410   7.308   1.720  11.921  0.0786  0.6479 -2.5109
  522MOL0     H70411   7.116   1.625  12.075  2.3988  1.8563  3.6278
  522MOL0     H70412   7.157   1.464  12.002  0.2355  0.6849 -1.2564
  522MOL0     H70413   7.400   1.512  12.093  0.1354  0.3481  0.8144
  522MOL0     H70414   7.331   1.644  12.177 -0.3175 -1.0536  3.1642
  522MOL0     H70415   7.155   1.439  12.260  0.2499 -1.8355  1.1072
  522MOL0     H70416   7.279   1.349  12.198  0.3307  0.9475 -1.3825
  522MOL0     H70417   7.440   1.441  12.353 -0.4505 -0.6300 -2.8308
  522MOL0     H70418   7.341   1.580  12.402 -1.8783  0.6892 -2.0210
  522MOL0     H70419   7.172   1.391  12.477  0.4050 -1.1633 -1.6483
  522MOL0     H70420   7.287   1.447  12.600  2.4052 -0.3505 -0.1839
  522MOL0     H70421   7.539   1.282  12.513  0.2731 -1.9166  0.5283
  522MOL0     H70422   7.590   0.947  12.450  3.3479  0.6278  0.8045
  522MOL0     H70423   7.656   1.086  12.531  1.3597 -0.4198  1.1437
  522MOL0     H70424   7.642   0.843  12.665  1.9899  0.1959 -0.1314
  522MOL0     H70425   7.468   0.862  12.641 -1.5178  2.2070 -0.9458
  522MOL0     H70426   7.514   0.913  12.861  0.3833 -0.2657  1.0865
  522MOL0     H70427   7.496   1.081  12.805 -0.1404 -0.4556  4.2075
  522MOL0     H70428   7.767   0.931  12.847  0.1380 -0.0153  2.3662
  522MOL0     H70429   7.697   1.056  12.945 -1.2929  0.4550  0.4810
  522MOL0     H70430   7.943   1.126  12.575  1.3972 -0.8308 -0.4969
  522MOL0     H70431   8.115   1.131  12.453  0.3951 -2.8312 -0.3421
  522MOL0     H70432   8.247   1.222  12.528  1.2823 -0.7935  1.0854
  522MOL0     H70433   8.237   1.033  12.520  0.2358  0.2287 -0.8716
  522MOL0     H70434   8.535   1.334  12.519  2.9227  1.2500 -1.8374
  522MOL0     H70435   8.782   1.396  12.494  3.0829 -0.8995  0.0396
  522MOL0     H70436   9.019   1.444  12.516  0.6315 -0.6125 -0.5429
  522MOL0     H70437   8.938   1.499  12.650  2.7249  2.8907  0.6854
  522MOL0     H70438   9.216   1.356  12.640  1.3518  1.4205  0.7535
  522MOL0     H70439   9.201   1.527  12.641  0.3676 -0.1701 -0.2768
  522MOL0     H70440   9.123   1.346  12.865  4.0527 -1.1670  0.2730
  522MOL0     H70441   9.104   1.512  12.880 -0.4274 -0.0247 -1.8388
  522MOL0     H70442   9.396   1.445  12.807 -0.3948 -0.3064 -1.0166
  522MOL0     H70443   9.319   1.565  12.915  1.0567  0.3310  1.9936
  522MOL0     H70444   9.381   1.277  12.944  0.0419  0.4558 -1.7928
  522MOL0     H70445   9.271   1.344  13.062 -1.1133  0.5900 -1.3125
  522MOL0     H70446   9.557   1.441  13.011  0.8587 -1.3458  1.1036
  522MOL0     H70447   9.437   1.535  13.089 -1.4978 -1.4741  1.3219
  522MOL0     H70448   9.507   1.236  13.153 -2.4759 -0.8960  2.2639
  522MOL0     H70449   9.431   1.354  13.259  2.4421  3.7261  1.7030
  522MOL0     H70450   9.614   1.494  13.273 -0.0444 -0.7309  2.1090
  522MOL0     H70451   9.705   1.364  13.174 -0.3186  0.5028 -0.5833
  522MOL0     H70452   8.857   1.103  12.790  0.8860 -1.9666 -1.6835
  522MOL0     H70453   8.635   1.075  12.835 -0.6255  0.3762  0.5514
  522MOL0     H70454   8.175   1.140  13.009  1.3001  0.0434 -1.2819
  522MOL0     H70455   7.925   1.147  12.991 -1.0009  0.0382 -1.0105
  522MOL0     H70456   6.911   1.834  11.385 -0.9186  2.6196  0.8364
  522MOL0     H70457   6.970   1.954  11.193  1.0539 -0.6262 -2.2838
  522MOL0     H70458   7.401   2.283  10.961 -1.0024  0.1041  0.8347
  522MOL0     H70459   7.402   2.359  10.741 -0.5373  0.5953  1.1152
  522MOL0     H70460   7.263   2.423  10.489 -1.5195 -0.7853 -1.4843
  522MOL0     H70461   7.428   2.378  10.506 -0.4539 -1.4608  1.8685
  522MOL0     H70462   7.296   2.249  10.263 -0.7917  1.6435 -1.3795
  522MOL0     H70463   7.450   2.335  10.281 -0.8922 -1.1572 -1.5443
  522MOL0     H70464   7.291   2.555  10.282 -0.0765  0.8515 -2.6143
  522MOL0     H70465   7.162   2.443  10.304 -1.1515  2.2332  0.2291
  522MOL0     H70466   7.188   2.350  10.091  1.3156 -0.2790 -0.5756
  522MOL0     H70467   7.346   2.420  10.065  0.2556  1.1157  0.3783
  522MOL0     H70468   7.056   2.748  10.000  0.3189  1.1278  2.7645
  522MOL0     H70469   7.231   1.981  10.619  1.4245 -1.7431  1.2596
  522MOL0     H70470   7.242   1.906  10.835  1.6749 -0.2982 -0.4322
  523MOL0     O70471   5.017   1.572   8.408  0.1095 -0.5511  0.0156
  523MOL0     C70472   5.096   1.500   8.472 -0.7831 -0.2525  0.4663
  523MOL0     O70473   5.132   1.518   8.602  0.1296  0.0957 -0.1304
  523MOL0     C70474   5.077   1.630   8.674 -0.6295 -1.3577  0.1362
  523MOL0     C70475   5.104   1.767   8.656  0.9955  0.3151 -0.2008
  523MOL0     C70476   5.058   1.851   8.751  0.5018  0.8574  0.0606
  523MOL0     C70477   4.986   1.812   8.865  0.2974  0.7864  0.4159
  523MOL0     O70478   4.935   1.906   8.957  0.9450  0.7147  0.4278
  523MOL0     C70479   4.855   1.859   9.070 -0.3703  0.1841 -0.0714
  523MOL0     C70480   4.801   1.983   9.145 -0.9639  0.0817  0.8528
  523MOL0     C70481   4.698   2.053   9.062  0.5442 -0.0064  0.1029
  523MOL0     C70482   4.655   2.185   9.128 -0.1867  0.3268  0.1177
  523MOL0     C70483   4.674   2.314   9.049 -0.1982 -0.4620 -1.4762
  523MOL0     C70484   4.629   2.437   9.131  0.7153 -0.5843 -0.3927
  523MOL0     C70485   4.493   2.486   9.102 -0.0074 -0.2831 -1.2835
  523MOL0     C70486   4.468   2.620   9.168 -0.2705  0.0231 -0.7057
  523MOL0     N70487   4.339   2.674   9.137  0.1798 -0.9541  0.5260
  523MOL0     C70488   4.220   2.631   9.098 -0.1692 -0.3902 -0.0499
  523MOL0     C70489   4.151   2.733   9.058  0.1880  0.5833  0.0749
  523MOL0     C70490   4.001   2.734   9.028  0.1764  0.5032  0.3544
  523MOL0     C70491   3.971   2.716   8.881 -0.0299 -0.8438  0.3416
  523MOL0     C70492   3.830   2.730   8.839 -0.1075 -0.0558  0.3257
  523MOL0     C70493   3.780   2.870   8.805  0.7681  0.5045 -0.6144
  523MOL0     O70494   3.640   2.894   8.819 -0.0662  0.4400 -0.4955
  523MOL0     C70495   3.566   2.844   8.704 -0.4412 -0.7575  0.2645
  523MOL0     C70496   3.432   2.832   8.718 -0.5899  0.5520 -0.4168
  523MOL0     C70497   3.351   2.783   8.618 -0.6689 -0.7637 -0.5595
  523MOL0     C70498   3.205   2.783   8.646 -0.3133 -0.2475  0.3996
  523MOL0     C70499   3.402   2.762   8.489 -0.4406 -0.3415 -0.3940
  523MOL0     C70500   3.318   2.716   8.375  0.4869  0.5110 -0.5746
  523MOL0     O70501   3.370   2.761   8.253  0.3085 -0.0412 -0.3403
  523MOL0     C70502   3.284   2.729   8.149 -0.2898  0.7184 -0.5094
  523MOL0     C70503   3.278   2.595   8.089 -1.5500  0.1800 -0.5777
  523MOL0     C70504   3.197   2.576   7.981  0.5333  0.2764  0.0601
  523MOL0     C70505   3.108   2.672   7.930 -0.6614  0.3462 -0.0412
  523MOL0     O70506   3.018   2.657   7.830  0.2918 -0.3141  0.1019
  523MOL0     C70507   3.025   2.544   7.748  0.1392  0.0631 -0.4374
  523MOL0     C70508   2.918   2.540   7.634 -0.4380  0.1938  0.2537
  523MOL0     C70509   2.911   2.398   7.570 -0.6804  1.1013 -0.0597
  523MOL0     C70510   2.844   2.393   7.431  0.2265 -0.4909  0.3604
  523MOL0     C70511   2.825   2.252   7.379  0.7608  1.0311  0.5071
  523MOL0     C70512   2.797   2.241   7.232  0.5788  0.6433  0.0571
  523MOL0     C70513   2.804   2.093   7.191 -0.5796  0.4399  1.3094
  523MOL0     C70514   2.807   2.076   7.041  0.0139 -0.2795  1.1543
  523MOL0    Cl70515   2.850   1.914   6.996  0.2152 -0.2966 -0.1197
  523MOL0     C70516   3.108   2.798   8.003  0.7905  0.5014 -0.0274
  523MOL0     C70517   3.200   2.828   8.104  0.5457 -0.0981  0.9945
  523MOL0     O70518   3.228   2.632   8.390 -0.2438 -0.3485  1.3141
  523MOL0     C70519   3.546   2.772   8.469  0.1654 -0.0462 -0.4473
  523MOL0     C70520   3.625   2.808   8.579  0.2768  0.7062 -1.1271
  523MOL0     N70521   4.224   2.848   9.061  0.4048  0.0871  0.7587
  523MOL0     N70522   4.332   2.811   9.123 -0.0376  0.2530 -0.0234
  523MOL0     C70523   4.958   1.678   8.881  0.2340 -0.1532 -0.6928
  523MOL0     C70524   5.006   1.588   8.789  0.2554 -0.1505  0.7964
  523MOL0     C70525   5.170   1.393   8.412  0.3923  0.2983  0.4311
  523MOL0     C70526   5.182   1.375   8.269 -0.6201 -0.5364 -0.5960
  523MOL0     C70527   5.253   1.264   8.220  0.5533  0.4881  0.2299
  523MOL0     C70528   5.321   1.173   8.301  0.2557 -0.4318 -0.0677
  523MOL0     O70529   5.403   1.063   8.264  0.8752  0.3435  0.0677
  523MOL0     C70530   5.418   1.048   8.128  0.1694  0.3160  1.0547
  523MOL0     C70531   5.513   0.922   8.098  0.0958 -0.1950  0.3535
  523MOL0     C70532   5.457   0.842   7.981 -0.2152  0.8396 -0.2059
  523MOL0     C70533   5.560   0.738   7.933 -0.2787 -0.8159  0.6678
  523MOL0     C70534   5.507   0.663   7.827 -0.2216  0.5321  0.0398
  523MOL0     C70535   5.460   0.586   7.745 -0.7198  0.2843 -0.9780
  523MOL0     C70536   5.309   1.194   8.440 -0.0050 -0.2239  0.1115
  523MOL0     C70537   5.226   1.294   8.491 -0.5168 -0.1448  0.3818
  523MOL0     H70538   5.141   1.804   8.561 -0.5377  0.8737 -0.6065
  523MOL0     H70539   5.074   1.958   8.753  0.6370  0.9333 -2.3266
  523MOL0     H70540   4.766   1.802   9.040 -0.4519 -0.0857  0.6659
  523MOL0     H70541   4.909   1.794   9.139  0.0385 -1.5210 -1.8985
  523MOL0     H70542   4.764   1.959   9.245 -1.0381  1.8671  1.2923
  523MOL0     H70543   4.880   2.058   9.154 -0.1213 -0.8909  1.8499
  523MOL0     H70544   4.748   2.071   8.966  3.8292  2.2979  2.0463
  523MOL0     H70545   4.608   1.999   9.032  0.8323 -0.1730 -0.4897
  523MOL0     H70546   4.548   2.175   9.148  0.2826 -1.6812  1.9975
  523MOL0     H70547   4.716   2.194   9.219 -1.6111 -1.8401  1.3773
  523MOL0     H70548   4.781   2.334   9.034 -0.7423  5.0821 -0.2768
  523MOL0     H70549   4.633   2.305   8.948 -0.8326 -1.9580 -1.1143
  523MOL0     H70550   4.648   2.425   9.238 -0.6660 -1.5607 -0.2375
  523MOL0     H70551   4.692   2.521   9.098  1.8563 -0.6246  1.5436
  523MOL0     H70552   4.471   2.507   8.997 -1.5063  1.0432 -0.7533
  523MOL0     H70553   4.411   2.422   9.133  1.7494 -2.0031  0.1269
  523MOL0     H70554   4.543   2.692   9.134 -1.3536  0.7026 -1.7663
  523MOL0     H70555   4.473   2.606   9.277 -1.4763 -1.7790 -0.8469
  523MOL0     H70556   4.187   2.529   9.104 -0.7287 -0.1400  1.3011
  523MOL0     H70557   3.935   2.665   9.081 -0.0248 -1.0852 -1.8557
  523MOL0     H70558   3.970   2.834   9.063  2.7635  1.7406 -0.6576
  523MOL0     H70559   4.003   2.613   8.859  1.7025  0.2158 -2.7867
  523MOL0     H70560   4.036   2.785   8.826 -2.0316  0.7598 -0.1120
  523MOL0     H70561   3.766   2.680   8.912  0.5220 -1.6511 -0.1717
  523MOL0     H70562   3.810   2.662   8.755  0.2947 -0.2670  0.4010
  523MOL0     H70563   3.826   2.894   8.709  0.9378 -1.4203 -1.0488
  523MOL0     H70564   3.822   2.928   8.888 -0.2069 -1.3009  1.2463
  523MOL0     H70565   3.382   2.857   8.811 -1.4124 -1.5672 -0.2346
  523MOL0     H70566   3.156   2.694   8.604 -0.3414  0.7430 -1.7906
  523MOL0     H70567   3.183   2.795   8.753 -1.8217  5.4795 -0.2191
  523MOL0     H70568   3.160   2.868   8.594  0.8013 -0.3447 -0.7509
  523MOL0     H70569   3.335   2.513   8.132  0.8927  2.6036  1.1945
  523MOL0     H70570   3.189   2.472   7.951  0.5704  0.9795 -2.6454
  523MOL0     H70571   3.119   2.541   7.692 -0.4396 -0.8672 -1.4010
  523MOL0     H70572   3.007   2.452   7.804 -0.3691 -0.4924 -1.4780
  523MOL0     H70573   2.824   2.565   7.684  0.3745  0.5637  1.6394
  523MOL0     H70574   2.941   2.620   7.563  0.6454 -0.9728 -0.7611
  523MOL0     H70575   2.862   2.334   7.644  1.5137 -0.4146  0.1659
  523MOL0     H70576   3.015   2.371   7.554 -0.9579 -1.4744  1.8122
  523MOL0     H70577   2.751   2.449   7.419  0.3757  0.1047  1.7828
  523MOL0     H70578   2.908   2.447   7.360 -1.4940  0.2434 -0.7121
  523MOL0     H70579   2.735   2.216   7.430 -0.8561  4.4838  0.3915
  523MOL0     H70580   2.917   2.195   7.397 -1.0892 -1.6697  2.2721
  523MOL0     H70581   2.693   2.272   7.216 -0.1711 -1.5389  0.4149
  523MOL0     H70582   2.861   2.300   7.165 -1.1493  1.3212 -1.0616
  523MOL0     H70583   2.721   2.036   7.233 -1.7208 -0.8243 -2.2676
  523MOL0     H70584   2.897   2.044   7.221 -0.6046 -1.4682 -1.3213
  523MOL0     H70585   2.881   2.150   7.007 -0.0196 -1.6866 -2.3348
  523MOL0     H70586   2.712   2.093   6.990  0.0968 -1.9631  0.3952
  523MOL0     H70587   3.043   2.879   7.971 -0.3266 -0.0545  0.7817
  523MOL0     H70588   3.196   2.921   8.160  3.6245  0.7276  0.0210
  523MOL0     H70589   3.585   2.732   8.376  2.2026 -2.2768  1.2454
  523MOL0     H70590   3.730   2.791   8.558  0.3695 -1.1162  0.4877
  523MOL0     H70591   4.916   1.638   8.973  0.6815 -1.5140 -1.0532
  523MOL0     H70592   4.989   1.482   8.810  1.7534 -0.4202  0.7199
  523MOL0     H70593   5.129   1.447   8.207  0.2557  1.4169  0.8369
  523MOL0     H70594   5.243   1.264   8.112  1.5857  1.7036  0.1112
  523MOL0     H70595   5.319   1.046   8.080  1.6739  0.1059 -2.2922
  523MOL0     H70596   5.466   1.133   8.080  3.0869 -1.6300  0.2413
  523MOL0     H70597   5.512   0.848   8.179  0.0656 -0.5784  0.0080
  523MOL0     H70598   5.612   0.964   8.078 -0.6474  0.8444 -1.3569
  523MOL0     H70599   5.438   0.897   7.888  1.8713  1.1888 -0.4804
  523MOL0     H70600   5.368   0.786   8.012  0.7569 -2.1439 -2.3929
  523MOL0     H70601   5.588   0.672   8.016  0.0977 -0.8254  0.5371
  523MOL0     H70602   5.654   0.784   7.899 -1.2487  1.0919  0.4488
  523MOL0     H70603   5.404   0.520   7.682 -1.7568 -3.0478  2.9822
  523MOL0     H70604   5.357   1.119   8.502  0.6135 -0.5110 -0.7015
  523MOL0     H70605   5.211   1.294   8.598  0.9905 -1.7509  0.6315
  524MOL0     O70606   0.039   1.765  11.206  0.3114 -0.4516 -0.0698
  524MOL0     C70607   0.122   1.830  11.140  0.0186  0.9809 -0.6576
  524MOL0     O70608   0.142   1.961  11.138  0.0822  0.0640 -0.1601
  524MOL0     C70609   0.030   2.033  11.187 -0.3165 -0.2485 -0.7392
  524MOL0     C70610  -0.085   2.049  11.113 -0.4184 -0.0001 -0.0375
  524MOL0     C70611  -0.196   2.109  11.155  0.4938 -1.1783  0.1414
  524MOL0     C70612  -0.207   2.147  11.293  0.8685 -0.5931  1.2544
  524MOL0     O70613  -0.317   2.203  11.353  0.1170 -1.1173 -0.4059
  524MOL0     C70614  -0.457   2.205  11.300 -0.2307 -0.5696 -0.7760
  524MOL0     C70615  -0.499   2.353  11.311  0.4050 -1.2914  0.1523
  524MOL0     C70616  -0.636   2.376  11.244 -0.3289 -0.2293  0.3191
  524MOL0     C70617  -0.680   2.525  11.255 -0.4634 -0.9173  0.0501
  524MOL0     C70618  -0.751   2.560  11.392 -1.1200  0.8810  0.6608
  524MOL0     C70619  -0.870   2.469  11.419 -0.2577  0.0792  0.3634
  524MOL0     C70620  -0.977   2.545  11.491  0.4703 -0.6678 -0.3773
  524MOL0     C70621  -0.941   2.599  11.628  0.0535  0.0236  0.3325
  524MOL0     N70622  -1.035   2.687  11.698 -0.5787  0.8500  1.2064
  524MOL0     C70623  -0.995   2.802  11.772 -0.0465  0.3881  0.2701
  524MOL0     C70624  -1.102   2.837  11.845  0.6839 -0.3931 -0.6068
  524MOL0     C70625  -1.107   2.944  11.950 -0.2211  0.5536  0.7764
  524MOL0     C70626  -1.249   3.010  11.977  0.1187  1.0398  0.5953
  524MOL0     C70627  -1.250   3.075  12.112  1.1209 -0.5794 -0.2179
  524MOL0     C70628  -1.392   3.111  12.157  1.1940 -0.7439  0.0578
  524MOL0     O70629  -1.427   3.239  12.111 -0.4430 -0.1464  0.2954
  524MOL0     C70630  -1.552   3.287  12.160 -0.6153  1.2099  1.4559
  524MOL0     C70631  -1.681   3.229  12.136  0.5217  0.2028 -0.2079
  524MOL0     C70632  -1.802   3.281  12.189  0.1063  0.1882  0.3046
  524MOL0     C70633  -1.935   3.228  12.135 -2.0345 -0.0081 -0.6024
  524MOL0     C70634  -1.796   3.390  12.272 -0.7011 -0.7493 -0.1372
  524MOL0     C70635  -1.904   3.457  12.333 -0.3877 -0.3484 -1.3026
  524MOL0     O70636  -1.911   3.597  12.357  0.2245 -0.6184  0.7528
  524MOL0     C70637  -2.029   3.653  12.394 -0.1325  1.2551 -0.7509
  524MOL0     C70638  -2.095   3.620  12.510 -0.2580  0.7047 -0.4927
  524MOL0     C70639  -2.227   3.662  12.540  0.2268  0.8675  0.4813
  524MOL0     C70640  -2.294   3.748  12.446  0.9539  0.4275  0.0827
  524MOL0     O70641  -2.429   3.783  12.460  0.2916 -0.1100  0.0399
  524MOL0     C70642  -2.483   3.834  12.584 -0.1971  0.1139  0.0167
  524MOL0     C70643  -2.543   3.977  12.571 -0.2225  0.1288 -0.2428
  524MOL0     C70644  -2.429   4.075  12.528 -0.2052 -0.5749 -0.5082
  524MOL0     C70645  -2.484   4.210  12.488  0.1343 -1.1231 -0.5268
  524MOL0     C70646  -2.534   4.235  12.346  1.0134  0.6647  0.6533
  524MOL0     C70647  -2.417   4.216  12.235 -0.3644 -0.5140 -0.5400
  524MOL0     C70648  -2.484   4.215  12.087 -1.0061  0.2066  0.2200
  524MOL0     C70649  -2.391   4.257  11.981 -0.4493  0.7836  0.3157
  524MOL0    Cl70650  -2.455   4.231  11.818 -0.0410  0.7403 -0.0393
  524MOL0     C70651  -2.221   3.792  12.340 -0.5618 -0.3827  0.5769
  524MOL0     C70652  -2.090   3.747  12.315  0.1914  0.3334  1.2106
  524MOL0     O70653  -2.008   3.382  12.351 -0.7631  0.1415  0.3459
  524MOL0     C70654  -1.668   3.440  12.292  0.2316  0.3451  0.1685
  524MOL0     C70655  -1.549   3.387  12.240 -0.3015 -0.8022 -0.6526
  524MOL0     N70656  -1.200   2.751  11.816  0.3343 -0.0256 -0.6296
  524MOL0     N70657  -1.164   2.667  11.730  0.0432 -0.5392  0.6882
  524MOL0     C70658  -0.097   2.126  11.372  0.6503 -0.3899 -0.5924
  524MOL0     C70659   0.019   2.070  11.327  0.3509  0.0550  0.1626
  524MOL0     C70660   0.214   1.740  11.057  0.5290 -1.0564 -0.4474
  524MOL0     C70661   0.312   1.802  10.974 -0.5086 -0.1937 -0.0535
  524MOL0     C70662   0.412   1.725  10.911 -0.8704  0.4635 -0.2539
  524MOL0     C70663   0.405   1.583  10.914  0.5413 -0.4444 -0.4746
  524MOL0     O70664   0.496   1.504  10.848  0.4859  0.2491 -0.2986
  524MOL0     C70665   0.591   1.568  10.759  1.0919  0.0193 -1.1667
  524MOL0     C70666   0.707   1.483  10.743 -0.2224  0.0309  0.2004
  524MOL0     C70667   0.699   1.355  10.646 -0.3994 -0.0754 -0.3076
  524MOL0     C70668   0.663   1.234  10.725  0.6076  0.5345  0.1622
  524MOL0     C70669   0.604   1.128  10.635  1.0843 -0.1516  0.2387
  524MOL0     C70670   0.552   1.048  10.567 -0.3820  0.1364  0.7170
  524MOL0     C70671   0.308   1.526  10.989 -0.6804 -0.3617 -0.8527
  524MOL0     C70672   0.210   1.607  11.060 -0.5489  0.1995  0.9918
  524MOL0     H70673  -0.085   2.018  11.009 -1.6652  0.4897 -0.2063
  524MOL0     H70674  -0.271   2.134  11.080  0.9423 -0.3443 -0.0394
  524MOL0     H70675  -0.455   2.163  11.199 -0.4227  2.8302 -2.3248
  524MOL0     H70676  -0.523   2.145  11.364  0.1509 -0.3630 -0.1778
  524MOL0     H70677  -0.525   2.376  11.415 -2.3445  2.3254 -1.0998
  524MOL0     H70678  -0.431   2.423  11.263  1.2989 -1.7583  0.7295
  524MOL0     H70679  -0.638   2.345  11.140 -0.4957 -0.7061  0.4653
  524MOL0     H70680  -0.713   2.319  11.296 -2.4996  2.2036 -0.0471
  524MOL0     H70681  -0.601   2.600  11.239 -0.5419 -1.1804 -1.8027
  524MOL0     H70682  -0.743   2.540  11.167  0.9852 -0.8304 -1.0004
  524MOL0     H70683  -0.676   2.560  11.471  2.7702 -0.5094 -2.6659
  524MOL0     H70684  -0.797   2.659  11.379 -2.2923  0.1270 -1.3896
  524MOL0     H70685  -0.922   2.431  11.331 -0.0183  3.0363 -1.2012
  524MOL0     H70686  -0.838   2.386  11.482  2.2528 -1.0781 -2.2167
  524MOL0     H70687  -1.018   2.633  11.439 -2.0497 -1.1767  0.5815
  524MOL0     H70688  -1.068   2.485  11.498 -0.0638  0.0568 -0.8174
  524MOL0     H70689  -0.858   2.668  11.612  1.6144 -1.8825 -0.2300
  524MOL0     H70690  -0.903   2.522  11.695 -0.2264 -1.1858 -0.8506
  524MOL0     H70691  -0.896   2.845  11.786  0.4089 -0.4528 -0.2784
  524MOL0     H70692  -1.076   2.903  12.047  0.6854  0.3757  0.4232
  524MOL0     H70693  -1.031   3.023  11.939 -1.7014  1.9505  0.1015
  524MOL0     H70694  -1.323   2.929  11.979 -0.0715  1.1332 -0.9366
  524MOL0     H70695  -1.266   3.089  11.903  2.9284  0.7263 -0.5129
  524MOL0     H70696  -1.185   3.163  12.103 -0.2311  0.2242 -4.2153
  524MOL0     H70697  -1.207   3.008  12.186  1.0906  1.2525  1.5572
  524MOL0     H70698  -1.398   3.120  12.265 -1.1297  0.9106 -0.1248
  524MOL0     H70699  -1.456   3.029  12.123 -0.4824 -1.5322  4.4869
  524MOL0     H70700  -1.675   3.139  12.075 -2.1987 -0.7940  0.8448
  524MOL0     H70701  -1.986   3.172  12.214  0.6314  1.6924  2.5235
  524MOL0     H70702  -1.992   3.315  12.100 -1.5163 -0.3972 -2.5070
  524MOL0     H70703  -1.920   3.140  12.072 -1.7025 -0.4266  0.0554
  524MOL0     H70704  -2.037   3.547  12.565 -1.5343  1.1312  1.5290
  524MOL0     H70705  -2.278   3.623  12.628  1.0029 -1.0293  0.1517
  524MOL0     H70706  -2.559   3.766  12.624 -1.3033  2.3851  2.0510
  524MOL0     H70707  -2.410   3.839  12.665 -0.1892 -0.8859  0.0927
  524MOL0     H70708  -2.613   3.956  12.490  0.5032 -0.6374 -0.6783
  524MOL0     H70709  -2.593   4.016  12.661 -2.0477  1.0115 -1.5869
  524MOL0     H70710  -2.368   4.026  12.452  1.9304 -0.7297  1.2001
  524MOL0     H70711  -2.367   4.093  12.617  2.0764 -0.5766 -2.0141
  524MOL0     H70712  -2.558   4.253  12.557  1.2118 -1.3417  0.8150
  524MOL0     H70713  -2.403   4.284  12.496  2.2665 -3.5344  3.0883
  524MOL0     H70714  -2.567   4.339  12.335  1.4396  0.7029 -0.4294
  524MOL0     H70715  -2.616   4.163  12.335  1.4001  0.5722 -2.9242
  524MOL0     H70716  -2.349   4.300  12.253  0.2228 -1.1336  0.1839
  524MOL0     H70717  -2.370   4.119  12.253 -1.4660 -0.6101  2.5369
  524MOL0     H70718  -2.556   4.296  12.071  0.0711  1.0932 -0.3394
  524MOL0     H70719  -2.543   4.124  12.070  0.0879 -0.9368  2.1546
  524MOL0     H70720  -2.307   4.187  11.986 -0.6774  0.3410 -1.3582
  524MOL0     H70721  -2.356   4.360  11.989  2.9825 -0.1741 -0.6045
  524MOL0     H70722  -2.276   3.857  12.272 -0.7723 -0.7877  0.3523
  524MOL0     H70723  -2.035   3.772  12.225 -0.4628 -1.7648  0.1637
  524MOL0     H70724  -1.662   3.532  12.349  0.9024  0.7893 -0.5967
  524MOL0     H70725  -1.449   3.428  12.253 -0.4710 -0.5351 -0.1663
  524MOL0     H70726  -0.084   2.146  11.478 -0.8235  0.0874 -0.4708
  524MOL0     H70727   0.100   2.042  11.394  0.5943 -3.3078 -1.3342
  524MOL0     H70728   0.304   1.909  10.954  2.4898 -0.1169 -1.4317
  524MOL0     H70729   0.488   1.781  10.858  0.8249  0.0690  1.6150
  524MOL0     H70730   0.537   1.589  10.666 -1.2500  3.1642  0.7045
  524MOL0     H70731   0.637   1.662  10.790  2.4072 -1.3699  1.4741
  524MOL0     H70732   0.746   1.446  10.839  0.3310 -1.4229 -0.5631
  524MOL0     H70733   0.782   1.550  10.701 -1.0425  0.6932 -0.2405
  524MOL0     H70734   0.799   1.346  10.603  1.7229  1.0227  3.8569
  524MOL0     H70735   0.624   1.369  10.568 -3.2706 -0.6512  2.1772
  524MOL0     H70736   0.594   1.262  10.805  0.7336 -0.8015  0.7608
  524MOL0     H70737   0.752   1.204  10.780 -1.0620 -2.5849  1.4240
  524MOL0     H70738   0.513   0.986  10.488 -0.0752  1.6722 -0.6926
  524MOL0     H70739   0.306   1.417  10.986  1.0922 -0.4010 -2.0808
  524MOL0     H70740   0.137   1.549  11.115 -1.3938 -1.0930 -1.3386
  525MOL0     O70741  11.206   5.176   6.893  0.2466 -0.4783  0.1873
  525MOL0     C70742  11.143   5.152   6.796 -0.4974 -0.4492  0.4623
  525MOL0     O70743  11.069   5.033   6.777  0.2575 -0.2759  0.3605
  525MOL0     C70744  11.093   4.940   6.877  0.2536  0.7058  0.1949
  525MOL0     C70745  11.164   4.832   6.825  0.7508 -0.1230 -0.5841
  525MOL0     C70746  11.153   4.712   6.899 -0.1843  0.4616  0.4892
  525MOL0     C70747  11.088   4.706   7.024  0.3017 -1.2198 -0.1302
  525MOL0     O70748  11.082   4.601   7.100  0.5076  0.5802  0.4720
  525MOL0     C70749  10.962   4.535   7.071  0.8662  0.0523 -0.0132
  525MOL0     C70750  10.975   4.400   7.129  0.1744  0.8748  0.4230
  525MOL0     C70751  11.056   4.299   7.047  0.1315 -0.0781 -0.7084
  525MOL0     C70752  11.183   4.244   7.125 -0.0373  0.3148  0.0418
  525MOL0     C70753  11.245   4.119   7.061  0.1428  0.4868  0.2428
  525MOL0     C70754  11.306   4.139   6.926 -0.1744 -0.3903  0.0647
  525MOL0     C70755  11.401   4.261   6.919  0.0621 -0.2136 -0.5058
  525MOL0     C70756  11.490   4.267   6.796  0.3053 -0.0796  0.2157
  525MOL0     N70757  11.589   4.374   6.796  0.0903 -0.1645  0.5675
  525MOL0     C70758  11.568   4.503   6.755  0.2188  0.1481  0.2865
  525MOL0     C70759  11.684   4.557   6.779 -0.3124  0.9422  0.2043
  525MOL0     C70760  11.713   4.705   6.760 -0.7711 -0.2406  0.1645
  525MOL0     C70761  11.730   4.770   6.901  0.3552  0.1278  0.9795
  525MOL0     C70762  11.730   4.920   6.894 -0.5346  0.6714 -0.0239
  525MOL0     C70763  11.776   4.982   7.035  0.4472  0.3113  0.1199
  525MOL0     O70764  11.697   4.932   7.141  0.2808 -0.0853  0.2567
  525MOL0     C70765  11.597   5.018   7.180 -0.4472  0.7923 -0.1398
  525MOL0     C70766  11.621   5.109   7.285  0.3970 -0.8861  0.3951
  525MOL0     C70767  11.514   5.186   7.323  0.3882 -0.2873 -0.4390
  525MOL0     C70768  11.539   5.280   7.445 -0.1067 -0.0987  0.7339
  525MOL0     C70769  11.383   5.176   7.268  0.5098 -0.2748 -0.2638
  525MOL0     C70770  11.262   5.238   7.321 -0.2307  0.2500  1.2244
  525MOL0     O70771  11.164   5.269   7.228  0.1406  0.0336  0.2441
  525MOL0     C70772  11.034   5.303   7.259  0.7201  1.1867  0.4936
  525MOL0     C70773  10.935   5.288   7.150 -0.0361  0.5825 -0.3128
  525MOL0     C70774  10.803   5.336   7.164  0.0522 -0.1913  0.2593
  525MOL0     C70775  10.762   5.392   7.289 -0.1313  0.5566 -0.5855
  525MOL0     O70776  10.632   5.436   7.313 -0.2690 -0.7002 -0.2819
  525MOL0     C70777  10.526   5.435   7.220 -0.5153  0.1509 -0.7430
  525MOL0     C70778  10.397   5.432   7.298 -0.4519  0.3111  0.8053
  525MOL0     C70779  10.359   5.303   7.354  0.1578  0.2114 -0.1176
  525MOL0     C70780  10.218   5.309   7.412  0.6352  0.1452  0.3910
  525MOL0     C70781  10.196   5.185   7.496  0.1887 -0.5654 -0.4327
  525MOL0     C70782  10.037   5.190   7.540  0.5965  0.6973 -1.0115
  525MOL0     C70783  10.001   5.060   7.621  0.2881 -0.9861  0.5611
  525MOL0     C70784  10.048   5.047   7.767  0.2484 -0.5086  0.6182
  525MOL0    Cl70785  10.027   5.196   7.858 -0.4389  0.1091  0.5466
  525MOL0     C70786  10.858   5.413   7.389  1.1216  0.1265 -0.4680
  525MOL0     C70787  10.990   5.368   7.372 -1.3686 -0.8479  0.5833
  525MOL0     O70788  11.245   5.242   7.443 -0.2069 -0.3343 -0.0612
  525MOL0     C70789  11.372   5.083   7.159  0.5682  0.3598  0.0499
  525MOL0     C70790  11.475   5.000   7.119 -0.7354  1.3735  0.2535
  525MOL0     N70791  11.768   4.475   6.840 -0.7216  0.5859 -0.3606
  525MOL0     N70792  11.708   4.364   6.853  0.3906  0.3528 -0.5784
  525MOL0     C70793  11.020   4.819   7.070 -0.0633 -0.0280 -0.0030
  525MOL0     C70794  11.023   4.933   6.995 -0.1207 -0.6254 -0.5015
  525MOL0     C70795  11.137   5.260   6.690 -0.5444 -0.6488  0.7711
  525MOL0     C70796  11.077   5.223   6.571 -0.1235 -0.6049 -0.0221
  525MOL0     C70797  11.068   5.324   6.477 -0.7157 -0.2971  0.1074
  525MOL0     C70798  11.112   5.458   6.487 -0.4810 -0.3642  0.1485
  525MOL0     O70799  11.109   5.546   6.382 -0.1540  0.1264 -0.5806
  525MOL0     C70800  11.241   5.593   6.339  0.3204 -0.3519  0.6639
  525MOL0     C70801  11.295   5.494   6.251  0.3150 -0.4617 -0.1873
  525MOL0     C70802  11.206   5.446   6.128 -0.3983  0.3008  0.0338
  525MOL0     C70803  11.290   5.350   6.041 -0.2142  0.7547 -0.1997
  525MOL0     C70804  11.336   5.228   6.110 -0.3304  0.1177  0.5327
  525MOL0     C70805  11.398   5.132   6.154 -0.0239  0.3249 -1.3774
  525MOL0     C70806  11.163   5.489   6.614  0.5134  0.4994 -0.2416
  525MOL0     C70807  11.179   5.393   6.709 -0.0219 -0.1629 -0.4466
  525MOL0     H70808  11.196   4.834   6.722  1.1520 -4.7323 -0.7771
  525MOL0     H70809  11.197   4.616   6.875  1.2766  1.4665 -1.0958
  525MOL0     H70810  10.876   4.579   7.122 -0.7692 -0.4740 -2.1638
  525MOL0     H70811  10.938   4.526   6.965 -0.1328 -0.4258  0.2453
  525MOL0     H70812  11.022   4.413   7.226 -0.0261  2.8740  0.2818
  525MOL0     H70813  10.872   4.364   7.138 -0.4215  2.3025 -0.3745
  525MOL0     H70814  10.988   4.218   7.019 -1.8711  1.3289 -0.1135
  525MOL0     H70815  11.102   4.346   6.960  1.5767 -3.4460 -1.9029
  525MOL0     H70816  11.255   4.317   7.162 -0.0029  0.1233  0.3674
  525MOL0     H70817  11.131   4.209   7.215 -2.2451 -0.8155 -1.5704
  525MOL0     H70818  11.326   4.092   7.129  0.1518  0.1536  0.1016
  525MOL0     H70819  11.175   4.035   7.059  1.4298 -0.6444  1.1891
  525MOL0     H70820  11.376   4.055   6.916 -0.7634 -1.2557  2.5997
  525MOL0     H70821  11.222   4.142   6.855  0.8561  1.4758 -1.1523
  525MOL0     H70822  11.342   4.354   6.918  1.5033  0.7398  0.2020
  525MOL0     H70823  11.463   4.260   7.009 -2.2528  0.7879  1.2153
  525MOL0     H70824  11.432   4.284   6.704  2.0004 -0.7109 -1.0293
  525MOL0     H70825  11.549   4.175   6.799  0.4213  0.0188  1.5447
  525MOL0     H70826  11.485   4.545   6.701  1.2273  0.2240 -1.2579
  525MOL0     H70827  11.797   4.718   6.691 -2.0322 -0.2320 -1.4225
  525MOL0     H70828  11.629   4.747   6.704 -0.7014 -1.3746 -0.8243
  525MOL0     H70829  11.826   4.745   6.946  1.3864  2.3145  0.1517
  525MOL0     H70830  11.647   4.731   6.961  0.0723 -3.8678 -1.6798
  525MOL0     H70831  11.630   4.962   6.878 -1.6582 -2.4234 -2.1920
  525MOL0     H70832  11.797   4.965   6.820  0.4989 -1.7304 -0.6544
  525MOL0     H70833  11.776   5.092   7.030  1.6019  0.5695  3.3596
  525MOL0     H70834  11.875   4.946   7.064  0.4777 -0.9426 -1.4128
  525MOL0     H70835  11.723   5.121   7.322  0.5867  3.7844 -1.0204
  525MOL0     H70836  11.470   5.254   7.525 -2.3760  3.4131  0.1515
  525MOL0     H70837  11.640   5.277   7.486  0.8305  2.5690 -1.0728
  525MOL0     H70838  11.528   5.385   7.414  1.3465  0.8161  3.0337
  525MOL0     H70839  10.973   5.250   7.056 -3.8707 -0.1404 -1.7093
  525MOL0     H70840  10.737   5.326   7.078  2.5765 -1.7814 -1.6604
  525MOL0     H70841  10.530   5.535   7.176  0.0188  1.1932  1.5365
  525MOL0     H70842  10.540   5.362   7.140  1.3297 -0.8207  0.4094
  525MOL0     H70843  10.407   5.505   7.379  0.0877 -1.0680  2.0260
  525MOL0     H70844  10.329   5.468   7.220  0.0876 -0.9824 -0.2781
  525MOL0     H70845  10.419   5.272   7.440 -2.5153 -0.0748  1.7416
  525MOL0     H70846  10.366   5.223   7.279 -3.2361  1.0631 -1.5550
  525MOL0     H70847  10.191   5.394   7.475 -0.6196 -2.4240  3.6059
  525MOL0     H70848  10.148   5.304   7.328  0.2778 -1.9751  0.7508
  525MOL0     H70849  10.262   5.177   7.583 -0.9695  0.5012  0.5875
  525MOL0     H70850  10.198   5.107   7.420 -0.7139 -0.5446 -0.4914
  525MOL0     H70851  10.029   5.279   7.603  2.6966 -0.0754  0.4612
  525MOL0     H70852   9.975   5.183   7.450  0.9070 -1.0100 -1.1272
  525MOL0     H70853  10.041   4.975   7.564  3.0128 -0.3625  1.4037
  525MOL0     H70854   9.893   5.045   7.619  0.1689 -0.5572  2.3933
  525MOL0     H70855  10.156   5.029   7.775  0.3152  0.7984  5.7855
  525MOL0     H70856   9.996   4.961   7.810  1.2519 -0.2299  2.4679
  525MOL0     H70857  10.827   5.470   7.476 -0.3266 -1.5823  0.2217
  525MOL0     H70858  11.043   5.379   7.466 -1.1531 -1.1871  0.5027
  525MOL0     H70859  11.274   5.076   7.113  0.8635 -0.5595 -0.4722
  525MOL0     H70860  11.461   4.921   7.046 -2.1514 -2.2573  4.0609
  525MOL0     H70861  10.960   4.811   7.160 -1.8973 -1.7730 -1.2887
  525MOL0     H70862  10.965   5.011   7.043 -0.8421 -3.5536  4.0548
  525MOL0     H70863  11.042   5.124   6.545 -1.3714 -0.5285  1.2379
  525MOL0     H70864  11.034   5.306   6.376  0.5707  2.4721 -0.9088
  525MOL0     H70865  11.222   5.690   6.292  1.7411  0.7114  2.1732
  525MOL0     H70866  11.313   5.611   6.419  2.6582 -0.0910 -1.3881
  525MOL0     H70867  11.321   5.412   6.318  0.4841 -0.0030  0.3170
  525MOL0     H70868  11.387   5.540   6.212 -0.4915  0.7577 -0.7220
  525MOL0     H70869  11.182   5.533   6.066  1.0763  0.2243 -0.7073
  525MOL0     H70870  11.111   5.399   6.154 -0.0723 -0.7210 -0.5476
  525MOL0     H70871  11.375   5.399   5.994 -1.6537 -0.7525 -4.9426
  525MOL0     H70872  11.233   5.313   5.955  0.6102  0.3513 -0.5768
  525MOL0     H70873  11.458   5.049   6.184  0.7591  1.7598  1.2828
  525MOL0     H70874  11.204   5.586   6.637  3.4352 -1.4189  3.8649
  525MOL0     H70875  11.237   5.420   6.797 -1.6037 -0.0984  0.6359
  526MOL0     O70876   4.494   6.722   1.880 -0.5183  0.2667  0.1319
  526MOL0     C70877   4.433   6.784   1.962 -0.5600 -0.5002  0.0351
  526MOL0     O70878   4.344   6.733   2.055  0.1536  0.0876  0.5770
  526MOL0     C70879   4.318   6.599   2.056  0.9124  0.1012  0.7164
  526MOL0     C70880   4.409   6.493   2.055 -0.0904 -0.6415 -0.1348
  526MOL0     C70881   4.373   6.347   2.071  0.6162 -0.5059 -0.0256
  526MOL0     C70882   4.240   6.324   2.095 -0.8036 -0.6727  0.2632
  526MOL0     O70883   4.184   6.198   2.088  0.0831  0.6727  0.0946
  526MOL0     C70884   4.255   6.102   2.168  0.2768 -0.8775  0.2925
  526MOL0     C70885   4.153   6.023   2.260 -0.2321  0.1764 -0.0654
  526MOL0     C70886   4.064   5.943   2.170 -0.4025  0.2013  0.1375
  526MOL0     C70887   3.960   5.879   2.266 -0.3905  0.5241  0.2117
  526MOL0     C70888   3.901   5.741   2.212  0.7996 -0.0648 -0.0221
  526MOL0     C70889   3.831   5.756   2.081 -0.3990 -0.7101 -0.1751
  526MOL0     C70890   3.717   5.657   2.068  0.9288  0.4975 -0.1916
  526MOL0     C70891   3.603   5.677   2.178  0.0630  0.0232  0.3279
  526MOL0     N70892   3.482   5.619   2.124 -1.1641 -0.5742  0.1101
  526MOL0     C70893   3.358   5.632   2.179 -0.6463 -0.4709  0.2712
  526MOL0     C70894   3.282   5.528   2.135 -0.1040  0.2319 -0.6861
  526MOL0     C70895   3.139   5.487   2.181  0.2037 -0.0061  0.1382
  526MOL0     C70896   3.135   5.349   2.248 -0.2496  0.4193 -0.6225
  526MOL0     C70897   2.994   5.296   2.273 -0.3975  0.2433  0.3996
  526MOL0     C70898   2.905   5.362   2.380  0.0413 -0.6349  0.4184
  526MOL0     O70899   2.989   5.394   2.496 -0.5561 -0.5248 -0.1958
  526MOL0     C70900   2.937   5.465   2.598  0.1325 -0.2976 -0.2206
  526MOL0     C70901   2.802   5.489   2.613  0.5091 -0.0042 -0.1405
  526MOL0     C70902   2.750   5.551   2.727  0.8950  0.5069 -0.3121
  526MOL0     C70903   2.593   5.576   2.719  0.2224 -1.4861 -0.0249
  526MOL0     C70904   2.837   5.613   2.827  0.4369 -0.0033 -0.4600
  526MOL0     C70905   2.783   5.666   2.948 -0.4515  0.6732 -0.7310
  526MOL0     O70906   2.863   5.749   3.023 -0.2850  0.2353  0.2611
  526MOL0     C70907   2.823   5.763   3.155  0.0591  1.0548 -0.8340
  526MOL0     C70908   2.733   5.866   3.201 -0.3286  0.6228  0.2902
  526MOL0     C70909   2.702   5.881   3.341 -0.2289 -0.4803  0.1899
  526MOL0     C70910   2.749   5.787   3.430 -0.1774 -0.2189  0.0603
  526MOL0     O70911   2.728   5.782   3.565 -0.5278  0.2775 -0.5146
  526MOL0     C70912   2.646   5.879   3.632  0.2484 -0.0766 -0.4094
  526MOL0     C70913   2.718   5.926   3.759  0.5054  0.0008 -0.8179
  526MOL0     C70914   2.648   6.043   3.828 -0.4517  0.1780  0.5015
  526MOL0     C70915   2.673   6.031   3.970  0.1797  0.5921 -0.4899
  526MOL0     C70916   2.749   6.156   4.021  0.2619 -1.1919  0.7243
  526MOL0     C70917   2.804   6.139   4.168  0.7328 -0.4899 -0.4737
  526MOL0     C70918   2.919   6.236   4.194  0.6199 -0.2298  0.8223
  526MOL0     C70919   2.971   6.231   4.335 -0.5677  0.4757  0.2680
  526MOL0    Cl70920   3.061   6.370   4.338  0.0855 -0.2995 -0.3147
  526MOL0     C70921   2.839   5.689   3.385 -0.4682 -0.1422 -0.1074
  526MOL0     C70922   2.889   5.689   3.258  0.3195 -1.4324  0.8848
  526MOL0     O70923   2.664   5.640   2.969 -0.8276  0.1116 -0.5739
  526MOL0     C70924   2.974   5.598   2.801 -0.1305 -0.1299 -0.0634
  526MOL0     C70925   3.025   5.517   2.705 -0.3410 -0.6272  0.4610
  526MOL0     N70926   3.355   5.461   2.043  0.3770  0.1399 -0.1989
  526MOL0     N70927   3.474   5.507   2.044  0.0706 -0.0681 -0.7058
  526MOL0     C70928   4.159   6.429   2.100  0.2111 -0.9711  1.0397
  526MOL0     C70929   4.191   6.566   2.088  0.2858  1.0415 -0.2278
  526MOL0     C70930   4.474   6.930   1.954  0.0127  0.6330 -0.6702
  526MOL0     C70931   4.445   7.019   2.053  0.6007  0.4867  0.6726
  526MOL0     C70932   4.470   7.152   2.044  0.0402 -0.7172  0.3278
  526MOL0     C70933   4.543   7.203   1.931 -0.8517  0.0677  0.1196
  526MOL0     O70934   4.555   7.339   1.899 -0.3400 -0.5344  0.4434
  526MOL0     C70935   4.496   7.440   1.979 -0.1457 -0.3408 -0.4295
  526MOL0     C70936   4.484   7.582   1.922  0.3045 -0.9151  0.2055
  526MOL0     C70937   4.607   7.637   1.854 -0.2294  0.5103  0.5811
  526MOL0     C70938   4.583   7.783   1.799 -0.2001  0.6118 -0.3274
  526MOL0     C70939   4.707   7.832   1.736  0.2928 -0.1197 -0.8777
  526MOL0     C70940   4.799   7.894   1.690 -0.3530  0.5220  0.0252
  526MOL0     C70941   4.591   7.108   1.838 -0.5067 -0.2780  0.8493
  526MOL0     C70942   4.565   6.970   1.852 -0.3953 -0.6728 -0.0287
  526MOL0     H70943   4.515   6.517   2.048 -0.0069  0.3587  2.9946
  526MOL0     H70944   4.443   6.264   2.065  0.4039 -0.6272 -1.0806
  526MOL0     H70945   4.315   6.036   2.104 -1.3169 -2.2679  0.1518
  526MOL0     H70946   4.323   6.155   2.235 -0.7091  0.6549  0.1243
  526MOL0     H70947   4.200   5.947   2.323 -2.7644  0.5332  2.4240
  526MOL0     H70948   4.103   6.083   2.336  0.2115 -2.8733  2.8504
  526MOL0     H70949   4.015   6.000   2.090  0.3588 -0.7950 -1.0891
  526MOL0     H70950   4.116   5.855   2.129 -2.0513 -0.5812 -0.3674
  526MOL0     H70951   4.001   5.865   2.366 -0.0029  1.1991  0.1526
  526MOL0     H70952   3.874   5.946   2.273  0.6450  2.0145 -0.7043
  526MOL0     H70953   3.983   5.675   2.183  0.6118 -0.6136  0.6504
  526MOL0     H70954   3.843   5.689   2.289  1.3529 -0.8069 -0.0884
  526MOL0     H70955   3.787   5.856   2.077  0.4591 -0.3577 -1.7085
  526MOL0     H70956   3.896   5.741   1.994  1.9243 -0.4155  1.4035
  526MOL0     H70957   3.666   5.682   1.975 -2.7701 -1.6436  1.0524
  526MOL0     H70958   3.755   5.555   2.059  0.0934 -0.8668  6.3020
  526MOL0     H70959   3.600   5.784   2.198  3.8005 -0.0496  2.2618
  526MOL0     H70960   3.629   5.617   2.266  0.9535 -1.4257 -0.8769
  526MOL0     H70961   3.324   5.697   2.258  1.1331 -1.4160  1.8994
  526MOL0     H70962   3.097   5.559   2.252  1.5742  2.4126 -1.3512
  526MOL0     H70963   3.065   5.485   2.100 -0.0491  0.5839  0.3515
  526MOL0     H70964   3.175   5.353   2.350 -0.1553  1.3700 -0.6856
  526MOL0     H70965   3.206   5.278   2.204  1.1264  1.3335  0.0466
  526MOL0     H70966   3.002   5.191   2.304  2.2693  0.4600  0.6125
  526MOL0     H70967   2.935   5.295   2.180 -0.3330 -0.1060  0.3595
  526MOL0     H70968   2.825   5.294   2.410  0.6481 -2.1308 -1.2306
  526MOL0     H70969   2.863   5.458   2.348  3.1807  1.1500  1.2122
  526MOL0     H70970   2.734   5.459   2.533 -0.7572 -2.6371  1.7760
  526MOL0     H70971   2.561   5.677   2.746  0.4294 -1.0490 -1.3447
  526MOL0     H70972   2.556   5.552   2.618  0.7355 -4.5160  0.4173
  526MOL0     H70973   2.537   5.497   2.771 -1.5652 -0.2607  0.0185
  526MOL0     H70974   2.684   5.934   3.132 -0.7182  1.1960  1.1063
  526MOL0     H70975   2.638   5.964   3.369  1.7591  2.1720 -2.5043
  526MOL0     H70976   2.616   5.964   3.569 -0.8364 -0.2030 -0.0768
  526MOL0     H70977   2.556   5.829   3.670 -0.5629  2.2607  0.9266
  526MOL0     H70978   2.722   5.836   3.821 -2.7144  2.5608  3.7267
  526MOL0     H70979   2.822   5.957   3.752  0.7518  0.1352  2.1659
  526MOL0     H70980   2.542   6.019   3.812  0.0316 -1.5680 -0.2898
  526MOL0     H70981   2.673   6.141   3.786  2.0305 -1.2724 -1.7089
  526MOL0     H70982   2.574   6.035   4.017 -0.3186 -1.8782 -1.2090
  526MOL0     H70983   2.709   5.932   4.001 -0.0602  0.7454  0.3215
  526MOL0     H70984   2.685   6.244   4.012 -1.5025 -2.6379 -2.6615
  526MOL0     H70985   2.839   6.174   3.962 -0.7984 -0.0651 -0.5967
  526MOL0     H70986   2.726   6.176   4.236 -0.6090  1.0534 -2.6995
  526MOL0     H70987   2.837   6.039   4.195  0.5420 -0.7087 -1.0329
  526MOL0     H70988   2.890   6.341   4.185  0.7069 -0.0142  2.6764
  526MOL0     H70989   2.999   6.205   4.126 -0.0741 -0.6914  0.2017
  526MOL0     H70990   3.028   6.139   4.349  0.8912  1.0101 -1.7359
  526MOL0     H70991   2.890   6.229   4.408 -0.4021 -0.5407  0.4457
  526MOL0     H70992   2.880   5.619   3.458  1.4355  1.0020 -0.0074
  526MOL0     H70993   2.955   5.614   3.215 -2.0637 -3.0240 -0.2321
  526MOL0     H70994   3.042   5.649   2.868 -0.8150  1.3372 -0.4401
  526MOL0     H70995   3.126   5.508   2.668 -1.1273 -0.9794 -1.7514
  526MOL0     H70996   4.053   6.411   2.112  0.0328 -0.6495  0.0165
  526MOL0     H70997   4.120   6.648   2.094 -2.7752 -1.4851  0.8295
  526MOL0     H70998   4.388   6.990   2.140  0.0105  0.9274  0.4385
  526MOL0     H70999   4.438   7.217   2.125  0.0759  0.3280 -0.4860
  526MOL0     H71000   4.397   7.401   2.005 -0.1098  0.2558  0.6863
  526MOL0     H71001   4.562   7.418   2.063  1.4879 -4.4460 -2.5117
  526MOL0     H71002   4.445   7.655   1.993  1.9373 -0.5672  0.7874
  526MOL0     H71003   4.405   7.573   1.846 -0.3659 -0.7399  0.8717
  526MOL0     H71004   4.617   7.568   1.770 -2.8199  1.6793 -0.7567
  526MOL0     H71005   4.691   7.619   1.923 -0.6678 -2.5978  0.4532
  526MOL0     H71006   4.555   7.850   1.881  1.1356  0.7114  0.0767
  526MOL0     H71007   4.498   7.779   1.731 -1.7436  1.0969  1.5048
  526MOL0     H71008   4.863   7.953   1.628 -2.9307  1.5498 -1.8319
  526MOL0     H71009   4.645   7.141   1.750  3.2686 -1.1726  2.5919
  526MOL0     H71010   4.596   6.898   1.777 -2.6769 -1.6528 -0.1277
  527MOL0     O71011   3.627   9.289   5.464  0.3305 -0.1549  1.5478
  527MOL0     C71012   3.667   9.256   5.572 -0.0955 -0.3717  0.4711
  527MOL0     O71013   3.773   9.170   5.595  0.2250  0.3765  0.4367
  527MOL0     C71014   3.879   9.147   5.517 -0.4847  0.0910  1.3613
  527MOL0     C71015   3.964   9.041   5.556 -0.6263  0.7095  0.8273
  527MOL0     C71016   4.076   9.007   5.482 -0.6559  0.0171 -0.2246
  527MOL0     C71017   4.111   9.079   5.372  0.6413 -0.1125  1.0973
  527MOL0     O71018   4.214   9.051   5.294  0.7345  0.1507 -0.1850
  527MOL0     C71019   4.334   9.039   5.365 -0.1628  0.5159 -0.1096
  527MOL0     C71020   4.449   9.091   5.272  0.1775  0.9417  0.2742
  527MOL0     C71021   4.452   9.034   5.121  0.3021 -0.5430 -1.5395
  527MOL0     C71022   4.475   8.884   5.134  0.3015  0.2447  0.7945
  527MOL0     C71023   4.497   8.836   4.993  0.1511 -0.1489  0.4701
  527MOL0     C71024   4.364   8.803   4.932  0.3204 -0.1955  0.2460
  527MOL0     C71025   4.378   8.668   4.848  0.3113 -0.6153 -0.5708
  527MOL0     C71026   4.234   8.629   4.809  0.0097  0.2121 -0.4278
  527MOL0     N71027   4.222   8.558   4.685 -0.2610  0.4871 -0.3439
  527MOL0     C71028   4.246   8.420   4.677  0.0877  0.2830 -0.6623
  527MOL0     C71029   4.268   8.397   4.548 -0.1717  0.2491  0.2747
  527MOL0     C71030   4.285   8.260   4.477 -0.3801  0.4531 -0.8959
  527MOL0     C71031   4.407   8.179   4.532 -0.9272 -0.0981  0.6377
  527MOL0     C71032   4.478   8.082   4.432  0.1052  0.9914  0.4696
  527MOL0     C71033   4.390   7.965   4.392  0.7443 -0.2903  0.2634
  527MOL0     O71034   4.371   7.986   4.245 -0.1146 -0.1313 -0.1556
  527MOL0     C71035   4.294   7.893   4.172  0.9586  0.0591 -0.1246
  527MOL0     C71036   4.295   7.895   4.039  0.3170  0.6911 -0.1352
  527MOL0     C71037   4.207   7.815   3.959 -0.5421 -0.5620 -0.2910
  527MOL0     C71038   4.230   7.833   3.812 -0.0362 -0.7072  0.1106
  527MOL0     C71039   4.112   7.732   4.026 -0.2189 -0.6625 -0.0934
  527MOL0     C71040   4.000   7.657   3.952 -0.4273  0.0785 -0.4514
  527MOL0     O71041   3.971   7.703   3.828  0.6445 -0.0086 -0.4105
  527MOL0     C71042   3.842   7.695   3.799  0.4539 -1.1301  1.0014
  527MOL0     C71043   3.753   7.581   3.779  0.0703  0.4762  0.1178
  527MOL0     C71044   3.618   7.589   3.723 -0.0679 -0.4519 -0.1602
  527MOL0     C71045   3.575   7.723   3.678 -0.1985  0.2473  0.1860
  527MOL0     O71046   3.454   7.745   3.626  0.1894 -0.0054  0.4394
  527MOL0     C71047   3.339   7.658   3.642 -0.0242 -0.1484  0.3197
  527MOL0     C71048   3.319   7.550   3.533  0.5989  1.4641  0.4552
  527MOL0     C71049   3.280   7.597   3.397 -0.3368  0.9148  0.2668
  527MOL0     C71050   3.281   7.483   3.290  0.5687  0.4362  0.0127
  527MOL0     C71051   3.207   7.542   3.173  0.3266 -0.3221 -0.3489
  527MOL0     C71052   3.209   7.445   3.045 -0.2814 -0.4569 -0.1726
  527MOL0     C71053   3.192   7.532   2.909  0.8530 -0.0688  0.3784
  527MOL0     C71054   3.266   7.468   2.787  0.1474  0.5588 -0.6254
  527MOL0    Cl71055   3.246   7.564   2.627  0.3839  0.4093  0.3588
  527MOL0     C71056   3.663   7.831   3.702  0.9446 -0.0726 -0.1100
  527MOL0     C71057   3.794   7.823   3.755 -1.2178  1.4119  0.3381
  527MOL0     O71058   3.935   7.578   4.028 -0.3795 -0.0351  0.2642
  527MOL0     C71059   4.122   7.713   4.163 -0.3762  0.4352  0.2640
  527MOL0     C71060   4.214   7.795   4.236  0.9530  0.3432 -0.4275
  527MOL0     N71061   4.241   8.508   4.479 -0.5864 -0.1125  0.6245
  527MOL0     N71062   4.209   8.610   4.556  0.5942  0.3058  0.8614
  527MOL0     C71063   4.034   9.191   5.334  0.0438 -0.9306  0.0710
  527MOL0     C71064   3.920   9.222   5.399 -1.1321  0.2502 -0.1510
  527MOL0     C71065   3.569   9.289   5.686 -0.6283  0.4389 -0.5056
  527MOL0     C71066   3.459   9.379   5.663  0.0398 -0.2560  0.6992
  527MOL0     C71067   3.359   9.387   5.750  0.4387 -0.1654 -0.9832
  527MOL0     C71068   3.371   9.336   5.890 -0.1591  0.4828 -0.5442
  527MOL0     O71069   3.298   9.370   6.001  0.2006  0.8630  0.1945
  527MOL0     C71070   3.183   9.450   5.973  0.4093 -0.1527 -0.0895
  527MOL0     C71071   3.126   9.515   6.106 -0.5104 -1.5394 -0.4766
  527MOL0     C71072   2.978   9.545   6.072  0.1885  0.0194  0.1582
  527MOL0     C71073   2.911   9.613   6.200  0.1584  0.0355  0.1716
  527MOL0     C71074   2.769   9.619   6.190 -0.6378 -0.2475 -0.1163
  527MOL0     C71075   2.642   9.623   6.182 -0.8315 -0.2443  0.4404
  527MOL0     C71076   3.489   9.254   5.913  0.6534  0.1022 -0.9312
  527MOL0     C71077   3.573   9.220   5.810  0.2049 -0.5591  0.1737
  527MOL0     H71078   3.919   8.965   5.619 -1.7430  0.4365 -0.2637
  527MOL0     H71079   4.139   8.925   5.516  0.2380  0.4091 -0.8839
  527MOL0     H71080   4.334   9.111   5.447 -0.6204  3.5340 -2.5992
  527MOL0     H71081   4.358   8.937   5.396  0.5001  0.6517 -0.1746
  527MOL0     H71082   4.447   9.201   5.273 -2.1676  0.9595 -0.4629
  527MOL0     H71083   4.541   9.061   5.324  0.4151 -2.2294 -1.7080
  527MOL0     H71084   4.357   9.059   5.073 -0.5449  0.6750  0.6579
  527MOL0     H71085   4.539   9.080   5.073  2.4420 -1.7955  0.8964
  527MOL0     H71086   4.569   8.871   5.188  0.3939  4.3335  1.9271
  527MOL0     H71087   4.403   8.825   5.190  0.9910  1.2835  2.8746
  527MOL0     H71088   4.552   8.905   4.929  2.4270 -2.3003 -0.0304
  527MOL0     H71089   4.562   8.748   4.995 -2.0225 -2.0006 -2.3742
  527MOL0     H71090   4.291   8.796   5.013 -0.5686  2.4664 -0.2048
  527MOL0     H71091   4.333   8.881   4.861  0.5841  1.4462  1.8717
  527MOL0     H71092   4.448   8.682   4.765  0.1626  2.5542 -0.3117
  527MOL0     H71093   4.414   8.593   4.919  0.0809 -1.0653 -0.9288
  527MOL0     H71094   4.170   8.715   4.788  1.5375  0.7542 -3.5452
  527MOL0     H71095   4.202   8.560   4.887  3.3329 -1.3828 -0.2717
  527MOL0     H71096   4.259   8.352   4.761  0.5406  2.2679  0.9375
  527MOL0     H71097   4.196   8.198   4.492 -0.1518  0.4612  0.6689
  527MOL0     H71098   4.301   8.290   4.373  0.0041 -3.3018 -2.0572
  527MOL0     H71099   4.368   8.121   4.616 -2.8868  1.9041  1.1953
  527MOL0     H71100   4.475   8.235   4.597 -3.2671  0.5246  2.6749
  527MOL0     H71101   4.564   8.035   4.481 -0.8112 -0.6085  0.6190
  527MOL0     H71102   4.518   8.129   4.342 -3.5043  0.7292 -1.4383
  527MOL0     H71103   4.293   7.987   4.436 -0.1987 -0.9121 -1.4047
  527MOL0     H71104   4.433   7.867   4.415  2.3384  0.0542 -1.0265
  527MOL0     H71105   4.358   7.972   3.994 -0.9801  1.7068 -0.2609
  527MOL0     H71106   4.208   7.747   3.748 -1.6874  0.4826 -1.0234
  527MOL0     H71107   4.154   7.904   3.777 -0.3217  0.8992  3.5715
  527MOL0     H71108   4.334   7.859   3.790  0.5455 -1.7341  1.4611
  527MOL0     H71109   3.782   7.480   3.807 -2.8980 -0.2481  0.9474
  527MOL0     H71110   3.557   7.499   3.722 -0.0591 -0.4608  0.0461
  527MOL0     H71111   3.327   7.617   3.743 -3.6319 -1.1109 -0.3420
  527MOL0     H71112   3.252   7.724   3.630  0.2326 -0.2599 -3.3562
  527MOL0     H71113   3.416   7.500   3.529  1.2934  2.7320  0.8603
  527MOL0     H71114   3.235   7.491   3.571 -0.6862  0.6596 -3.2472
  527MOL0     H71115   3.355   7.674   3.376 -1.3667  2.0022  0.4318
  527MOL0     H71116   3.183   7.647   3.390 -0.4648  1.0977  2.4807
  527MOL0     H71117   3.375   7.446   3.248 -0.0266 -1.2024  0.0393
  527MOL0     H71118   3.221   7.396   3.321 -1.1465  1.7887  0.6557
  527MOL0     H71119   3.253   7.639   3.148  1.8110 -0.5035  1.5073
  527MOL0     H71120   3.103   7.570   3.191  0.7742  0.9563  0.3671
  527MOL0     H71121   3.309   7.402   3.037 -1.4578 -3.3762 -0.3826
  527MOL0     H71122   3.137   7.362   3.046  1.6097 -2.1576 -0.3763
  527MOL0     H71123   3.243   7.627   2.927  1.1415 -0.0180 -0.6072
  527MOL0     H71124   3.086   7.543   2.883  1.2056  2.0966 -0.3700
  527MOL0     H71125   3.225   7.370   2.762 -3.9009  1.8750  0.1139
  527MOL0     H71126   3.370   7.461   2.821  0.8120  1.4554 -2.3339
  527MOL0     H71127   3.630   7.927   3.664  3.4683  1.1428  0.6042
  527MOL0     H71128   3.856   7.912   3.746 -0.3120  0.8186  0.5387
  527MOL0     H71129   4.071   7.637   4.220  2.3953 -2.2199 -0.5351
  527MOL0     H71130   4.224   7.770   4.341 -1.2648 -1.0197 -0.4823
  527MOL0     H71131   4.056   9.245   5.243  1.7068  0.6916  1.3615
  527MOL0     H71132   3.871   9.310   5.359  0.5883  0.8955 -0.9226
  527MOL0     H71133   3.449   9.420   5.563 -1.6340  0.1794  1.0240
  527MOL0     H71134   3.270   9.439   5.713 -1.9607 -3.4526 -0.2632
  527MOL0     H71135   3.204   9.529   5.900  2.1514 -1.5476 -1.1784
  527MOL0     H71136   3.105   9.378   5.946  1.2422 -0.5480 -1.5278
  527MOL0     H71137   3.186   9.605   6.123 -3.1857  0.2861 -0.1675
  527MOL0     H71138   3.133   9.434   6.179  3.3914 -0.6502  0.3757
  527MOL0     H71139   2.925   9.450   6.058  2.7055 -1.2397 -1.5439
  527MOL0     H71140   2.959   9.607   5.984 -0.0086 -2.4578 -1.6578
  527MOL0     H71141   2.956   9.709   6.225  1.4865 -0.5626  0.1892
  527MOL0     H71142   2.948   9.547   6.280  0.8946  0.4960  0.2173
  527MOL0     H71143   2.536   9.617   6.169 -0.6729 -0.0671 -1.1372
  527MOL0     H71144   3.508   9.209   6.010  0.8273 -2.7612 -2.2193
  527MOL0     H71145   3.656   9.154   5.833  1.8806  1.4464  0.2029
  528MOL0     O71146   5.278   0.634   7.311  0.2616 -0.5811  0.1288
  528MOL0     C71147   5.388   0.610   7.354 -0.1053  1.0365  0.9565
  528MOL0     O71148   5.464   0.701   7.416  1.3445 -0.3923 -0.7542
  528MOL0     C71149   5.445   0.836   7.416  0.8934 -0.1323  0.2663
  528MOL0     C71150   5.394   0.909   7.311  0.6868 -0.3142  0.1429
  528MOL0     C71151   5.391   1.047   7.317  0.3819  0.7289 -0.9793
  528MOL0     C71152   5.438   1.124   7.422  0.1967  0.1493  0.7409
  528MOL0     O71153   5.423   1.263   7.430  0.0408 -0.1766  0.0521
  528MOL0     C71154   5.376   1.341   7.317 -0.6411  0.0016  0.7143
  528MOL0     C71155   5.401   1.488   7.348  0.3402  0.2574  0.9836
  528MOL0     C71156   5.550   1.517   7.337  0.1427 -0.5960 -0.1749
  528MOL0     C71157   5.617   1.492   7.474  0.8196  0.2339 -0.1361
  528MOL0     C71158   5.749   1.569   7.481  0.7734  0.0992  0.3486
  528MOL0     C71159   5.812   1.559   7.616  0.2741 -0.5457  0.1237
  528MOL0     C71160   5.949   1.630   7.614  0.0646  0.1287  0.7949
  528MOL0     C71161   6.079   1.548   7.602 -0.1842  0.1603  0.7164
  528MOL0     N71162   6.084   1.459   7.482 -0.5034  0.0705  0.1927
  528MOL0     C71163   6.042   1.331   7.464  0.4857  0.0507  0.8720
  528MOL0     C71164   6.089   1.293   7.340 -0.4265  0.3523  0.4038
  528MOL0     C71165   6.066   1.170   7.266 -0.7194 -1.2935  0.2149
  528MOL0     C71166   5.915   1.137   7.252  0.4113  0.1253  0.2629
  528MOL0     C71167   5.843   1.252   7.180 -0.2204  0.1859 -0.3921
  528MOL0     C71168   5.746   1.199   7.073 -0.6473 -0.1172  0.4468
  528MOL0     O71169   5.643   1.305   7.051  0.1713  0.1747  0.7007
  528MOL0     C71170   5.555   1.287   6.943 -0.5468 -0.0957  0.5692
  528MOL0     C71171   5.474   1.395   6.915  1.0288  0.1137 -0.6123
  528MOL0     C71172   5.361   1.381   6.828  0.0700  0.5750 -0.0035
  528MOL0     C71173   5.291   1.509   6.799 -0.3437  0.1047  0.5755
  528MOL0     C71174   5.334   1.256   6.778  0.4517 -0.1269  0.5830
  528MOL0     C71175   5.225   1.241   6.681  0.3598  0.6516  0.7275
  528MOL0     O71176   5.226   1.121   6.605  0.6675 -0.8830 -0.2532
  528MOL0     C71177   5.137   1.127   6.499 -0.1042 -0.5705  0.3454
  528MOL0     C71178   5.174   1.203   6.391 -0.0639  0.3373  0.3232
  528MOL0     C71179   5.099   1.203   6.276  0.2980  0.1393 -0.2605
  528MOL0     C71180   4.977   1.135   6.270  0.3197 -0.8755 -0.1202
  528MOL0     O71181   4.918   1.118   6.145  0.4511  0.7535  0.2351
  528MOL0     C71182   4.801   1.037   6.142  0.2146  0.0857  0.6891
  528MOL0     C71183   4.733   1.027   6.006 -0.4069  0.2125  1.3957
  528MOL0     C71184   4.822   0.940   5.906  0.7927  0.3503  0.0650
  528MOL0     C71185   4.751   0.830   5.830 -0.8545  0.1481 -0.6862
  528MOL0     C71186   4.826   0.769   5.716  0.5244  0.2083  0.3763
  528MOL0     C71187   4.983   0.750   5.725  0.8340 -0.1121  0.1870
  528MOL0     C71188   5.039   0.744   5.583 -0.3968 -0.1254 -0.4172
  528MOL0     C71189   5.188   0.692   5.583 -0.2115 -0.5043 -0.5972
  528MOL0    Cl71190   5.196   0.528   5.649 -0.3593 -0.0721  0.1846
  528MOL0     C71191   4.923   1.072   6.382 -0.1622  1.2315 -0.2158
  528MOL0     C71192   5.010   1.069   6.495 -0.4629  0.1434 -0.1624
  528MOL0     O71193   5.130   1.314   6.681  0.6022  0.0864  0.4042
  528MOL0     C71194   5.412   1.140   6.806  0.2580  0.7751 -0.4271
  528MOL0     C71195   5.521   1.154   6.891 -0.4074  0.3020  0.0060
  528MOL0     N71196   6.155   1.399   7.293 -0.5427 -0.7484  1.0602
  528MOL0     N71197   6.151   1.503   7.369 -0.0839 -0.6804  1.0793
  528MOL0     C71198   5.503   1.051   7.525  0.1195 -0.0988 -0.8198
  528MOL0     C71199   5.503   0.905   7.528  0.4534  0.6161 -0.0591
  528MOL0     C71200   5.448   0.474   7.322  0.1373  0.4937  0.4478
  528MOL0     C71201   5.399   0.379   7.231  0.5741 -0.4952 -0.1759
  528MOL0     C71202   5.464   0.257   7.224  0.0039  0.4229  0.1483
  528MOL0     C71203   5.577   0.230   7.297 -0.7489  0.3655 -0.6487
  528MOL0     O71204   5.656   0.120   7.272 -0.3039 -0.8937 -0.0043
  528MOL0     C71205   5.602  -0.009   7.270  0.0703 -0.8126 -1.5658
  528MOL0     C71206   5.503  -0.032   7.383 -0.8767 -0.3905  0.2897
  528MOL0     C71207   5.571  -0.006   7.517 -0.0553 -0.1169 -0.8371
  528MOL0     C71208   5.503  -0.080   7.645  0.5034  0.0690  0.2860
  528MOL0     C71209   5.364  -0.032   7.680 -0.3072 -0.4487 -0.9213
  528MOL0     C71210   5.248   0.014   7.709  0.4431  0.2281 -0.2725
  528MOL0     C71211   5.640   0.332   7.373 -0.8315  0.3304  0.6479
  528MOL0     C71212   5.572   0.449   7.385  0.3893  0.6513 -0.6369
  528MOL0     H71213   5.345   0.874   7.221 -0.1137  0.5527  0.2303
  528MOL0     H71214   5.344   1.110   7.242 -1.7741 -0.7373 -0.9372
  528MOL0     H71215   5.426   1.309   7.225 -1.9301  2.4692 -0.9523
  528MOL0     H71216   5.269   1.317   7.319 -0.3320 -1.8572 -1.3858
  528MOL0     H71217   5.359   1.548   7.266 -0.3461 -1.8258 -0.2581
  528MOL0     H71218   5.366   1.515   7.448  2.0956  1.4022  1.3361
  528MOL0     H71219   5.601   1.463   7.257  1.5998  2.3197 -1.3410
  528MOL0     H71220   5.576   1.619   7.307 -1.7632 -0.2931 -0.9464
  528MOL0     H71221   5.556   1.532   7.555 -0.5107  1.2086 -1.5864
  528MOL0     H71222   5.633   1.384   7.485  0.0384  0.2508  1.3792
  528MOL0     H71223   5.816   1.530   7.403  2.3045  1.9725  0.6576
  528MOL0     H71224   5.722   1.671   7.456 -2.5876 -0.2302  2.0506
  528MOL0     H71225   5.732   1.611   7.670 -0.6457  0.9121 -2.4825
  528MOL0     H71226   5.826   1.458   7.655  1.5303 -1.0370 -1.5179
  528MOL0     H71227   5.943   1.699   7.530 -0.2466  1.3411  1.7841
  528MOL0     H71228   5.967   1.686   7.706  3.1099 -0.4241  0.6333
  528MOL0     H71229   6.092   1.491   7.694  0.8731  1.3033  1.3040
  528MOL0     H71230   6.168   1.611   7.598  0.2602 -0.2967  2.6030
  528MOL0     H71231   5.980   1.275   7.532 -0.6890  1.9004  1.3825
  528MOL0     H71232   6.114   1.185   7.169 -2.7501  0.1605 -0.6275
  528MOL0     H71233   6.109   1.083   7.316  0.3190 -1.0062 -0.1577
  528MOL0     H71234   5.880   1.115   7.353  3.7055  1.1111  1.7598
  528MOL0     H71235   5.909   1.045   7.194 -3.8917  0.6893 -0.5184
  528MOL0     H71236   5.900   1.337   7.140  0.2675  2.8824  5.1403
  528MOL0     H71237   5.773   1.288   7.255  0.4187 -1.3449  1.0045
  528MOL0     H71238   5.707   1.103   7.108 -0.7178 -1.3451 -2.7051
  528MOL0     H71239   5.809   1.181   6.985 -0.8730  1.3525 -0.0444
  528MOL0     H71240   5.497   1.492   6.958 -0.6540 -0.2040  1.2095
  528MOL0     H71241   5.186   1.498   6.825 -0.4252  1.4482  0.9151
  528MOL0     H71242   5.333   1.596   6.851  2.7198  0.9196 -2.8419
  528MOL0     H71243   5.308   1.545   6.697 -1.1480  2.2096  1.1335
  528MOL0     H71244   5.269   1.255   6.391 -1.1555  2.4678 -0.5731
  528MOL0     H71245   5.151   1.241   6.188 -0.5399  1.6191 -0.1368
  528MOL0     H71246   4.812   0.934   6.178 -0.1534 -0.5846 -1.0168
  528MOL0     H71247   4.717   1.085   6.194 -2.4922 -0.1801 -3.0552
  528MOL0     H71248   4.633   0.985   6.020 -0.8912  0.8190 -0.0511
  528MOL0     H71249   4.715   1.121   5.953  1.6811  0.9118  1.8468
  528MOL0     H71250   4.917   0.908   5.949  2.3193  1.9374 -1.9007
  528MOL0     H71251   4.852   1.013   5.831  0.6659  2.0577  1.5811
  528MOL0     H71252   4.728   0.747   5.896  0.8705  1.1761  1.3234
  528MOL0     H71253   4.659   0.882   5.804 -0.3118  0.5531 -1.8782
  528MOL0     H71254   4.803   0.839   5.635 -2.3795 -0.8998  0.1484
  528MOL0     H71255   4.769   0.679   5.694 -1.0814  1.3010 -0.1031
  528MOL0     H71256   5.025   0.837   5.777  1.4574  0.2709 -0.9423
  528MOL0     H71257   4.996   0.660   5.785  0.5643 -0.9385 -0.9700
  528MOL0     H71258   5.035   0.842   5.535  0.0281  0.1868  0.1722
  528MOL0     H71259   4.976   0.676   5.524 -1.6262  1.0083 -0.4630
  528MOL0     H71260   5.258   0.752   5.642  0.3000 -1.8671  0.2138
  528MOL0     H71261   5.224   0.705   5.480  2.0575  0.9935  0.3060
  528MOL0     H71262   4.833   1.012   6.375  0.7732 -0.0277 -2.3160
  528MOL0     H71263   4.972   1.014   6.580  2.1667 -0.9538  0.3868
  528MOL0     H71264   5.390   1.037   6.778 -0.2850  0.8323 -0.2201
  528MOL0     H71265   5.577   1.067   6.925  2.2859  1.7678 -0.3604
  528MOL0     H71266   5.549   1.105   7.607 -1.8985 -0.6207  0.7521
  528MOL0     H71267   5.546   0.846   7.608 -0.4945 -0.7643 -0.5107
  528MOL0     H71268   5.310   0.402   7.174 -1.3133  0.3034  2.8756
  528MOL0     H71269   5.431   0.193   7.142  0.2462  1.2663 -0.6298
  528MOL0     H71270   5.543  -0.020   7.179 -2.7651  0.3545 -0.0066
  528MOL0     H71271   5.686  -0.080   7.266  0.9268  0.0838 -0.3703
  528MOL0     H71272   5.481  -0.139   7.382 -1.8377 -0.2006 -0.4746
  528MOL0     H71273   5.403   0.013   7.377 -1.3826 -1.6518 -1.6665
  528MOL0     H71274   5.570   0.101   7.540 -1.3457  0.6479 -3.9753
  528MOL0     H71275   5.669  -0.053   7.505  0.3412  0.0869  1.2747
  528MOL0     H71276   5.560  -0.071   7.738  0.2001 -0.9259  0.5735
  528MOL0     H71277   5.491  -0.187   7.629  1.7401 -0.2902  1.5155
  528MOL0     H71278   5.155   0.059   7.735  0.3854 -0.1317  0.1434
  528MOL0     H71279   5.734   0.307   7.421 -0.4932 -0.9927 -0.6340
  528MOL0     H71280   5.620   0.528   7.442 -0.7767  0.5421  0.5662
  529MOL0     O71281   2.277   5.588   4.661  0.3443 -0.4330 -0.3313
  529MOL0     C71282   2.203   5.486   4.654  0.0814 -0.6320 -0.0544
  529MOL0     O71283   2.093   5.466   4.731  0.5070  0.5969  0.5526
  529MOL0     C71284   2.052   5.564   4.816 -0.4669 -0.2402 -0.3638
  529MOL0     C71285   2.135   5.626   4.906  0.6852 -0.1848 -0.2462
  529MOL0     C71286   2.092   5.727   4.994  0.3084  0.0814 -0.8791
  529MOL0     C71287   1.954   5.769   4.982  0.3144 -0.2770 -0.2232
  529MOL0     O71288   1.884   5.861   5.051  0.6209  0.2476  0.2641
  529MOL0     C71289   1.957   5.980   5.089 -0.1030 -0.7450 -0.3620
  529MOL0     C71290   1.906   6.067   5.205 -0.4216 -0.9335  1.3698
  529MOL0     C71291   1.907   5.991   5.328 -0.0779 -0.0727 -0.0020
  529MOL0     C71292   2.043   5.924   5.370  0.2798 -0.2129 -1.4164
  529MOL0     C71293   2.032   5.879   5.523  0.2293 -0.0663  0.7173
  529MOL0     C71294   2.167   5.856   5.591  0.2974  0.7137 -0.7622
  529MOL0     C71295   2.139   5.790   5.727  0.3857 -0.4424 -0.4119
  529MOL0     C71296   2.268   5.794   5.818 -0.1575 -0.2472  0.3755
  529MOL0     N71297   2.330   5.664   5.822  0.4356  0.8485  0.1818
  529MOL0     C71298   2.269   5.549   5.871 -0.3754  0.8200  0.0907
  529MOL0     C71299   2.359   5.454   5.855 -0.2033  0.0267  0.1773
  529MOL0     C71300   2.330   5.311   5.903  0.5075  0.9460 -0.5221
  529MOL0     C71301   2.301   5.227   5.783 -0.2081  0.2008 -0.3133
  529MOL0     C71302   2.162   5.247   5.747  1.0198  0.7393  0.3658
  529MOL0     C71303   2.132   5.191   5.597 -0.6181 -0.4167 -0.0403
  529MOL0     O71304   2.129   5.053   5.581 -0.1260  0.3624  0.3025
  529MOL0     C71305   2.005   4.990   5.568 -0.3103 -0.0585  0.7790
  529MOL0     C71306   2.011   4.883   5.483 -0.1348  0.2792 -0.8722
  529MOL0     C71307   1.899   4.803   5.446 -0.8171  0.3505  1.2728
  529MOL0     C71308   1.923   4.683   5.357  0.2578 -0.7208  0.8878
  529MOL0     C71309   1.773   4.831   5.507  0.1615 -0.0908  0.6685
  529MOL0     C71310   1.649   4.761   5.474 -2.0984  0.0645  0.6817
  529MOL0     O71311   1.662   4.628   5.442  0.0621 -0.0216 -0.1856
  529MOL0     C71312   1.553   4.543   5.448  0.2070  0.5193 -0.6811
  529MOL0     C71313   1.549   4.439   5.357  0.0987  0.0491 -0.2269
  529MOL0     C71314   1.444   4.349   5.354  0.6254  0.3356 -0.3412
  529MOL0     C71315   1.335   4.359   5.443 -0.2214  0.8450  0.5437
  529MOL0     O71316   1.228   4.275   5.451 -0.3701  0.1480 -0.2963
  529MOL0     C71317   1.253   4.134   5.455  0.4302  0.7559  0.6025
  529MOL0     C71318   1.302   4.096   5.595 -0.1815 -0.0829 -0.4979
  529MOL0     C71319   1.305   3.952   5.632 -0.3147 -0.2446 -0.0045
  529MOL0     C71320   1.204   3.918   5.741  0.1922  0.4472  0.8410
  529MOL0     C71321   1.214   3.758   5.755 -0.7192 -0.9117 -0.0947
  529MOL0     C71322   1.193   3.694   5.895  0.2643 -0.4492 -0.1713
  529MOL0     C71323   1.059   3.750   5.960 -0.4530  1.0723  0.0500
  529MOL0     C71324   0.999   3.652   6.062 -0.1595 -0.9852 -0.0682
  529MOL0    Cl71325   0.858   3.724   6.126 -0.4652 -0.2333  0.1015
  529MOL0     C71326   1.335   4.466   5.534  0.6905 -0.8233 -0.2846
  529MOL0     C71327   1.444   4.552   5.541 -0.0217 -0.4206 -0.0985
  529MOL0     O71328   1.548   4.821   5.497  0.0310  0.1374 -0.1431
  529MOL0     C71329   1.768   4.946   5.602 -0.0008  0.8029  0.2326
  529MOL0     C71330   1.883   5.016   5.636 -0.4839 -0.0553  0.1009
  529MOL0     N71331   2.474   5.504   5.791 -0.4386 -0.2368  0.4467
  529MOL0     N71332   2.448   5.629   5.767 -0.4255 -0.1222  0.3612
  529MOL0     C71333   1.873   5.708   4.895  0.8221 -0.6119 -0.3814
  529MOL0     C71334   1.924   5.610   4.800  0.1193 -1.3203 -0.6337
  529MOL0     C71335   2.228   5.397   4.542  0.0331  0.5109  0.0700
  529MOL0     C71336   2.346   5.405   4.462 -0.8176 -0.7566  0.9609
  529MOL0     C71337   2.370   5.312   4.357 -0.5338 -1.2606  0.2439
  529MOL0     C71338   2.276   5.209   4.329  0.1882  0.2940 -0.7543
  529MOL0     O71339   2.276   5.130   4.218 -0.4514  0.3641  0.3091
  529MOL0     C71340   2.348   5.166   4.106 -0.1073 -0.2762  0.3358
  529MOL0     C71341   2.314   5.064   3.997  0.2802  0.1791 -0.1198
  529MOL0     C71342   2.338   5.121   3.855  0.0005  0.2673  0.4061
  529MOL0     C71343   2.453   5.045   3.782 -0.8809 -0.2865 -0.6916
  529MOL0     C71344   2.582   5.051   3.847  0.1067  0.7557 -0.8617
  529MOL0     C71345   2.684   5.064   3.916  0.1318  0.4651  0.4673
  529MOL0     C71346   2.155   5.205   4.417 -0.1759  0.9271 -0.7995
  529MOL0     C71347   2.133   5.300   4.515 -0.3091  0.1172  0.0881
  529MOL0     H71348   2.240   5.600   4.901  0.3932 -1.2446 -1.0564
  529MOL0     H71349   2.155   5.770   5.071 -0.7380 -1.1318  0.7176
  529MOL0     H71350   2.062   5.953   5.106  0.0863  0.2083  0.0922
  529MOL0     H71351   1.954   6.045   5.001 -3.1592  0.9347  0.8384
  529MOL0     H71352   1.967   6.155   5.226 -0.2385 -0.2578 -1.5471
  529MOL0     H71353   1.806   6.101   5.174  1.6449  3.7498 -1.1580
  529MOL0     H71354   1.873   6.056   5.409 -0.8109 -1.4624  0.8356
  529MOL0     H71355   1.823   5.921   5.328 -1.6652  1.7283  1.5905
  529MOL0     H71356   2.073   5.838   5.309  0.0825 -0.8783 -0.6053
  529MOL0     H71357   2.123   5.998   5.380  1.0807 -1.2540  0.3281
  529MOL0     H71358   1.981   5.957   5.581 -2.6385  0.2230 -1.9126
  529MOL0     H71359   1.973   5.788   5.532  0.2084 -0.1570 -0.1923
  529MOL0     H71360   2.225   5.779   5.539  0.7532  2.0438 -2.3024
  529MOL0     H71361   2.225   5.947   5.602  1.3489 -0.1422  1.3359
  529MOL0     H71362   2.071   5.852   5.785  0.2060 -2.3172  1.5037
  529MOL0     H71363   2.102   5.688   5.709  0.5725 -0.1150 -3.0804
  529MOL0     H71364   2.228   5.819   5.917  1.4361  2.0705  0.5019
  529MOL0     H71365   2.335   5.873   5.783 -1.8616  0.0390 -2.5230
  529MOL0     H71366   2.173   5.550   5.922 -0.1443 -0.5806  0.6145
  529MOL0     H71367   2.417   5.269   5.954  1.5941 -2.5110 -4.6478
  529MOL0     H71368   2.250   5.307   5.978 -0.5004 -0.8753 -1.6162
  529MOL0     H71369   2.328   5.124   5.805 -0.4872 -0.2889 -2.0711
  529MOL0     H71370   2.381   5.236   5.709  1.6813 -2.4063  1.2385
  529MOL0     H71371   2.119   5.348   5.751 -3.0935 -0.7710 -0.7024
  529MOL0     H71372   2.095   5.199   5.819 -0.5234  2.3075  0.0595
  529MOL0     H71373   2.215   5.232   5.539  2.5637 -0.3297  4.1225
  529MOL0     H71374   2.044   5.240   5.553  1.4832  1.6995 -2.2344
  529MOL0     H71375   2.105   4.873   5.429 -0.0895 -0.1797 -0.7124
  529MOL0     H71376   1.891   4.587   5.398  1.4276 -1.5586 -0.1015
  529MOL0     H71377   1.865   4.705   5.267 -2.3837 -0.8038  2.4518
  529MOL0     H71378   2.030   4.673   5.336  0.3085  2.9532 -1.6692
  529MOL0     H71379   1.622   4.431   5.276 -0.2150 -4.6745 -0.3338
  529MOL0     H71380   1.434   4.262   5.290 -1.2006  0.0084  0.3304
  529MOL0     H71381   1.150   4.100   5.438  0.0910  1.8871  0.2759
  529MOL0     H71382   1.303   4.096   5.366 -3.3009 -1.2063 -0.8966
  529MOL0     H71383   1.403   4.138   5.598 -0.2760  0.0828  1.0385
  529MOL0     H71384   1.242   4.143   5.673 -0.8102 -1.0249 -0.3972
  529MOL0     H71385   1.405   3.922   5.664 -0.0162 -0.9630 -1.5337
  529MOL0     H71386   1.287   3.891   5.543  1.2941 -0.1010 -0.4545
  529MOL0     H71387   1.237   3.957   5.837  0.3088  0.5069  0.7774
  529MOL0     H71388   1.109   3.966   5.714  0.2809  0.1322 -0.0833
  529MOL0     H71389   1.309   3.725   5.711  1.2260  2.2425  1.3374
  529MOL0     H71390   1.141   3.723   5.682  0.3999 -4.1402  0.1584
  529MOL0     H71391   1.183   3.585   5.899 -7.3260 -0.3165 -1.3532
  529MOL0     H71392   1.274   3.724   5.962  1.2115  1.7402 -2.1546
  529MOL0     H71393   0.979   3.769   5.888  0.0881 -0.5608 -1.0481
  529MOL0     H71394   1.078   3.846   6.009  3.9170 -1.5118  4.3051
  529MOL0     H71395   1.066   3.622   6.143  0.5575  2.3225  0.6891
  529MOL0     H71396   0.986   3.561   6.002  1.1326 -0.4700 -1.1798
  529MOL0     H71397   1.245   4.493   5.589  0.0441 -1.1629 -1.1545
  529MOL0     H71398   1.426   4.633   5.611 -0.7854 -1.5396  1.0523
  529MOL0     H71399   1.675   4.961   5.656 -1.0992 -2.0587 -0.7023
  529MOL0     H71400   1.875   5.112   5.687 -1.8558  0.9384 -1.8314
  529MOL0     H71401   1.767   5.734   4.890  0.8244 -0.5671 -0.2214
  529MOL0     H71402   1.862   5.564   4.724  0.3662 -0.6999 -1.2239
  529MOL0     H71403   2.417   5.486   4.476  0.2252 -0.3794 -4.3982
  529MOL0     H71404   2.452   5.336   4.290 -1.3396 -0.2213 -0.4150
  529MOL0     H71405   2.323   5.266   4.069  1.7532 -0.0753 -0.5277
  529MOL0     H71406   2.456   5.170   4.124 -0.2361  3.2172  0.9815
  529MOL0     H71407   2.205   5.054   4.000  0.2502 -0.0845  4.5948
  529MOL0     H71408   2.369   4.971   4.014 -0.1656  0.3022  2.4280
  529MOL0     H71409   2.364   5.227   3.867  0.4357  0.3361 -1.0517
  529MOL0     H71410   2.244   5.110   3.801 -1.7064 -1.6153  3.4334
  529MOL0     H71411   2.463   5.070   3.676 -2.8317  1.8198 -0.4531
  529MOL0     H71412   2.415   4.943   3.792  0.3608 -0.7558 -0.5782
  529MOL0     H71413   2.766   5.093   3.979  4.0060 -0.6959 -3.4754
  529MOL0     H71414   2.076   5.141   4.380 -0.0942  0.1813  0.2551
  529MOL0     H71415   2.041   5.294   4.571  0.0843 -3.0444  0.5497
  530MOL0     O71416   2.418   8.932   5.209 -0.0921  0.1760 -0.3328
  530MOL0     C71417   2.412   8.905   5.330  0.4380 -1.0197 -0.2734
  530MOL0     O71418   2.521   8.885   5.414  0.2291 -0.4781  0.4778
  530MOL0     C71419   2.640   8.836   5.365  0.8209 -0.9340  0.1300
  530MOL0     C71420   2.661   8.704   5.343 -0.1238  0.4288 -0.0423
  530MOL0     C71421   2.785   8.653   5.304  1.4171  0.0530  0.5334
  530MOL0     C71422   2.888   8.738   5.272 -0.1766  0.5695  0.0771
  530MOL0     O71423   2.999   8.675   5.220  0.2405 -0.0572 -0.1122
  530MOL0     C71424   3.090   8.680   5.325 -0.4600  0.7327 -0.0613
  530MOL0     C71425   3.088   8.557   5.418  0.4998 -0.2671 -0.3252
  530MOL0     C71426   3.190   8.543   5.538  0.0191  0.5435 -0.4435
  530MOL0     C71427   3.163   8.417   5.612 -0.6742  0.0643  0.0795
  530MOL0     C71428   3.226   8.283   5.551  0.4961 -0.6522  0.4829
  530MOL0     C71429   3.173   8.156   5.620  0.3163  0.5465  0.2628
  530MOL0     C71430   3.201   8.150   5.767  0.0763  0.8234  0.0569
  530MOL0     C71431   3.161   8.020   5.837  0.4043 -0.2338 -0.4925
  530MOL0     N71432   3.210   8.007   5.976  0.2533 -0.3862 -0.0145
  530MOL0     C71433   3.304   7.914   6.027 -0.2254  0.0211  0.0324
  530MOL0     C71434   3.334   7.947   6.153 -0.5316  0.4078  0.2964
  530MOL0     C71435   3.449   7.865   6.216 -0.7356  0.5846 -0.2223
  530MOL0     C71436   3.423   7.827   6.361 -0.7584  0.1966 -0.4626
  530MOL0     C71437   3.530   7.710   6.416  0.5648 -0.6465  0.4914
  530MOL0     C71438   3.544   7.705   6.572 -0.0040 -0.0670 -0.3725
  530MOL0     O71439   3.572   7.833   6.643 -0.1906  0.1021  0.2252
  530MOL0     C71440   3.702   7.884   6.628  1.5860  1.2318 -0.7323
  530MOL0     C71441   3.715   8.017   6.669 -1.1825 -0.0955 -0.1182
  530MOL0     C71442   3.837   8.078   6.664 -0.8042 -0.1851 -0.9690
  530MOL0     C71443   3.839   8.220   6.711 -0.5740  0.9584 -0.5697
  530MOL0     C71444   3.954   8.006   6.615  0.8622 -0.1191  0.2499
  530MOL0     C71445   4.093   8.057   6.597 -0.8656 -0.6684 -0.6177
  530MOL0     O71446   4.184   7.986   6.520 -0.3679  0.2020 -0.1944
  530MOL0     C71447   4.314   8.005   6.566 -0.6073 -0.8973 -0.3522
  530MOL0     C71448   4.372   7.903   6.638 -0.1241 -0.7441 -0.1675
  530MOL0     C71449   4.506   7.902   6.683  0.5029  0.1414 -0.4284
  530MOL0     C71450   4.595   8.000   6.642  0.2155  0.0656  0.9134
  530MOL0     O71451   4.722   7.982   6.685  0.9525  0.1021 -0.8199
  530MOL0     C71452   4.824   8.079   6.648  1.5045 -0.1733 -0.8292
  530MOL0     C71453   4.943   8.084   6.750 -0.0258  0.0702  0.2961
  530MOL0     C71454   4.919   8.121   6.893 -1.0066  0.4263 -0.3483
  530MOL0     C71455   5.047   8.161   6.973 -0.9823  0.1239 -0.3851
  530MOL0     C71456   5.047   8.169   7.123  0.3843 -0.0203 -0.2936
  530MOL0     C71457   5.179   8.181   7.201 -0.2055  0.2390 -0.2555
  530MOL0     C71458   5.142   8.177   7.349 -0.7205  0.7633 -0.1171
  530MOL0     C71459   5.262   8.186   7.443 -1.0003  1.0992  0.2085
  530MOL0    Cl71460   5.193   8.205   7.598  0.0237 -0.3027  0.3191
  530MOL0     C71461   4.542   8.094   6.538  0.4313  0.3104 -0.1577
  530MOL0     C71462   4.401   8.097   6.513  0.1266 -0.2513  0.6172
  530MOL0     O71463   4.113   8.173   6.637 -1.1333  0.3439 -0.0351
  530MOL0     C71464   3.934   7.877   6.569  0.2228 -0.1771  0.9713
  530MOL0     C71465   3.816   7.812   6.593 -0.0803  0.0606  0.3181
  530MOL0     N71466   3.259   8.062   6.178 -0.5080  0.3430  0.0562
  530MOL0     N71467   3.176   8.086   6.081 -0.0071 -0.1239  0.0725
  530MOL0     C71468   2.875   8.883   5.295  0.2794  0.1450  0.0495
  530MOL0     C71469   2.743   8.929   5.340  0.5734  0.2409 -0.1570
  530MOL0     C71470   2.290   8.927   5.388 -0.1147 -0.0907  0.0859
  530MOL0     C71471   2.195   9.010   5.345  0.1414  0.9399  0.3365
  530MOL0     C71472   2.081   9.022   5.421 -0.2655  0.0864  0.9211
  530MOL0     C71473   2.055   8.956   5.540  0.0163  0.5098 -0.0289
  530MOL0     O71474   1.948   9.004   5.617 -0.2096  0.4585 -0.1471
  530MOL0     C71475   1.882   8.904   5.696  0.3232  0.5673 -0.3839
  530MOL0     C71476   1.737   8.939   5.736  0.1780  0.0690 -0.2984
  530MOL0     C71477   1.666   8.991   5.612 -0.3211 -0.6072 -0.1467
  530MOL0     C71478   1.514   8.990   5.632 -0.1428  0.1894  0.6569
  530MOL0     C71479   1.444   9.010   5.500  0.5185  0.0741 -0.9584
  530MOL0     C71480   1.394   9.025   5.397  0.3036 -0.2283 -0.3863
  530MOL0     C71481   2.150   8.868   5.591  0.9580 -0.1311 -0.3472
  530MOL0     C71482   2.270   8.857   5.513 -0.0245  0.4441  0.4838
  530MOL0     H71483   2.585   8.627   5.353  2.4198 -2.0174  2.6799
  530MOL0     H71484   2.800   8.547   5.289  0.3580 -0.0671  0.2204
  530MOL0     H71485   3.192   8.668   5.287  0.5266 -0.2937  2.6562
  530MOL0     H71486   3.081   8.769   5.387 -0.0262  0.0344  1.0368
  530MOL0     H71487   2.988   8.564   5.463 -0.0568  0.3908 -1.6050
  530MOL0     H71488   3.084   8.463   5.361 -0.2394 -1.1153  1.0657
  530MOL0     H71489   3.291   8.542   5.495  0.5217 -2.0328  0.6105
  530MOL0     H71490   3.180   8.623   5.611 -0.6084  0.4208 -0.3913
  530MOL0     H71491   3.208   8.426   5.711 -2.8841  3.5977  0.9457
  530MOL0     H71492   3.055   8.414   5.630 -1.0365 -0.7348 -1.9302
  530MOL0     H71493   3.200   8.283   5.445 -2.5395  2.1089  1.0702
  530MOL0     H71494   3.335   8.294   5.557  0.3245  0.7186  1.8156
  530MOL0     H71495   3.064   8.154   5.604  0.6238  0.0557 -2.2004
  530MOL0     H71496   3.218   8.064   5.580 -1.9595 -0.1520 -0.8752
  530MOL0     H71497   3.308   8.168   5.783  0.3398 -1.2938  1.0588
  530MOL0     H71498   3.151   8.238   5.808 -1.2700 -0.7030  1.8640
  530MOL0     H71499   3.196   7.937   5.776  3.6734 -0.4887  1.4802
  530MOL0     H71500   3.051   8.020   5.840  0.2987  3.6181  1.3189
  530MOL0     H71501   3.367   7.848   5.968 -0.6067 -0.6560  0.3686
  530MOL0     H71502   3.447   7.762   6.178 -0.7140  0.4380  0.1704
  530MOL0     H71503   3.544   7.915   6.196 -0.9582  1.3499  0.6139
  530MOL0     H71504   3.322   7.785   6.357 -0.3666 -0.8384 -5.2283
  530MOL0     H71505   3.438   7.907   6.435  1.6204 -1.1620  0.6575
  530MOL0     H71506   3.631   7.730   6.378  0.9004  0.6068  1.9404
  530MOL0     H71507   3.498   7.609   6.387 -0.2027 -1.2270  3.1072
  530MOL0     H71508   3.619   7.631   6.599 -0.6612 -1.9617 -3.2840
  530MOL0     H71509   3.453   7.656   6.609 -0.2251 -0.1571 -1.0231
  530MOL0     H71510   3.628   8.065   6.712 -0.1452  0.2798  1.6827
  530MOL0     H71511   3.846   8.285   6.624 -0.1084  0.5240 -0.8663
  530MOL0     H71512   3.751   8.250   6.768 -1.1117 -0.9028 -0.3464
  530MOL0     H71513   3.916   8.237   6.787 -0.0471 -5.0925  0.7637
  530MOL0     H71514   4.309   7.817   6.658 -1.7665  0.5615  0.5159
  530MOL0     H71515   4.531   7.821   6.751 -1.0687 -0.2705 -0.2883
  530MOL0     H71516   4.843   8.053   6.543 -2.2990 -0.6008 -1.5263
  530MOL0     H71517   4.783   8.180   6.645  3.0427  0.5283  0.0450
  530MOL0     H71518   5.011   7.999   6.743 -0.5476 -0.3314 -0.0168
  530MOL0     H71519   5.000   8.168   6.710 -2.3074 -0.5755 -5.2079
  530MOL0     H71520   4.868   8.041   6.948 -0.9199  1.9135  2.0347
  530MOL0     H71521   4.858   8.211   6.900  1.2111  1.8827  2.7398
  530MOL0     H71522   5.130   8.094   6.947 -1.0797  0.7783 -2.6308
  530MOL0     H71523   5.071   8.254   6.922  1.3111 -0.5437 -0.6645
  530MOL0     H71524   5.000   8.074   7.149  0.5398  0.2375  0.9968
  530MOL0     H71525   4.990   8.262   7.135 -0.4607  0.0300 -3.7899
  530MOL0     H71526   5.228   8.087   7.174 -2.6097 -0.9830 -0.6520
  530MOL0     H71527   5.229   8.274   7.173 -0.0102 -0.0855 -1.0215
  530MOL0     H71528   5.071   8.098   7.375  1.3923 -1.5100 -0.9013
  530MOL0     H71529   5.084   8.268   7.366 -0.4801  0.7264  0.9801
  530MOL0     H71530   5.323   8.275   7.423 -1.7642  1.7521  0.7335
  530MOL0     H71531   5.326   8.098   7.440 -2.8268 -0.3047  0.9276
  530MOL0     H71532   4.620   8.156   6.495  0.8080 -0.0744 -0.0448
  530MOL0     H71533   4.374   8.169   6.437 -0.2010 -0.6321  0.3701
  530MOL0     H71534   4.014   7.812   6.535  3.0553  0.8348  4.9984
  530MOL0     H71535   3.805   7.705   6.580  2.4397 -0.3049  0.7380
  530MOL0     H71536   2.944   8.966   5.284  1.6250 -0.9311  0.1189
  530MOL0     H71537   2.731   9.033   5.365 -1.7350 -0.0972  0.3139
  530MOL0     H71538   2.197   9.069   5.253 -2.3333 -2.2343 -1.9675
  530MOL0     H71539   2.012   9.102   5.398 -0.2162  0.0632  0.6962
  530MOL0     H71540   1.893   8.813   5.637 -0.8481  0.5354 -0.5629
  530MOL0     H71541   1.935   8.885   5.790 -0.0401  0.3369 -0.2252
  530MOL0     H71542   1.741   9.008   5.821  0.3072 -1.9000  1.3565
  530MOL0     H71543   1.688   8.848   5.770  0.7137  0.4168  1.5058
  530MOL0     H71544   1.696   8.932   5.525  2.1552  3.3862 -2.3241
  530MOL0     H71545   1.703   9.092   5.594  1.2718 -0.9325  1.0577
  530MOL0     H71546   1.479   9.044   5.720 -1.1958 -1.1191  1.0877
  530MOL0     H71547   1.497   8.886   5.664  0.6458 -0.1433  0.0405
  530MOL0     H71548   1.380   9.059   5.296  0.5805  2.0380  0.2778
  530MOL0     H71549   2.149   8.815   5.686 -0.1143  1.9286  0.8516
  530MOL0     H71550   2.351   8.791   5.541  1.4358  0.8020 -2.5500
  531MOL0     O71551   7.768  10.533   6.833  0.3860  0.3241  0.1847
  531MOL0     C71552   7.781  10.645   6.881 -0.2794  1.0463  0.5619
  531MOL0     O71553   7.895  10.688   6.921 -0.2582 -0.1560  0.1769
  531MOL0     C71554   8.012  10.622   6.921 -0.4028  0.6120  0.4209
  531MOL0     C71555   8.125  10.706   6.914  0.3448 -0.6265  0.2530
  531MOL0     C71556   8.262  10.654   6.906 -0.2965 -0.3436 -0.1844
  531MOL0     C71557   8.279  10.514   6.892 -0.0505 -0.2157  0.2525
  531MOL0     O71558   8.408  10.467   6.882  0.4270 -0.0468 -0.3302
  531MOL0     C71559   8.436  10.371   6.779 -0.2815 -0.0392  0.2573
  531MOL0     C71560   8.426  10.222   6.838  0.1139 -0.3401  0.1363
  531MOL0     C71561   8.535  10.134   6.783  0.4235  0.1673  0.2230
  531MOL0     C71562   8.524  10.119   6.629  0.2253 -0.3233 -0.1654
  531MOL0     C71563   8.648  10.050   6.561 -0.4372 -0.0250 -0.8179
  531MOL0     C71564   8.662   9.901   6.593 -0.4515  0.1521 -0.8312
  531MOL0     C71565   8.784   9.834   6.515  1.1772  0.2388 -0.6871
  531MOL0     C71566   8.783   9.867   6.366  0.1508 -0.3996  0.6973
  531MOL0     N71567   8.890   9.805   6.287  0.5484 -0.4647  0.3741
  531MOL0     C71568   8.870   9.696   6.206  0.1813 -0.8836 -0.3325
  531MOL0     C71569   8.994   9.678   6.154  0.1805  0.3958  0.1179
  531MOL0     C71570   9.035   9.564   6.052  0.2008  0.0351 -0.0016
  531MOL0     C71571   9.134   9.463   6.116  0.2736  1.3675  1.0779
  531MOL0     C71572   9.181   9.364   6.010  0.7438 -0.1024  0.2454
  531MOL0     C71573   9.273   9.271   6.078 -0.4594  0.1003  0.0997
  531MOL0     O71574   9.403   9.241   6.014 -0.2484  0.3554  0.3718
  531MOL0     C71575   9.407   9.188   5.887  0.7408  0.8306  0.4265
  531MOL0     C71576   9.536   9.152   5.827  0.4027 -0.2830 -0.3085
  531MOL0     C71577   9.547   9.093   5.710  0.5029 -0.2006  0.5061
  531MOL0     C71578   9.688   9.078   5.659 -0.1151 -0.6291 -0.2407
  531MOL0     C71579   9.429   9.064   5.633  0.5826 -0.8393  0.0197
  531MOL0     C71580   9.418   8.994   5.505 -0.7260  0.2557  0.2650
  531MOL0     O71581   9.298   8.946   5.465 -0.0860 -0.3134 -0.4795
  531MOL0     C71582   9.275   8.889   5.342 -1.1212 -0.5721  0.7920
  531MOL0     C71583   9.291   8.961   5.220  0.3772 -1.4003 -0.5445
  531MOL0     C71584   9.249   8.900   5.099  0.6651 -0.5962  0.0081
  531MOL0     C71585   9.206   8.770   5.103  0.0860  0.9757  1.1440
  531MOL0     O71586   9.184   8.705   4.982 -0.2090 -0.5499 -0.2941
  531MOL0     C71587   9.193   8.562   4.966  0.0797 -0.2139 -0.7426
  531MOL0     C71588   9.180   8.498   4.832  0.2463  0.2542 -0.5602
  531MOL0     C71589   9.049   8.530   4.760  0.1369 -0.2644  0.1454
  531MOL0     C71590   9.030   8.411   4.655 -0.5788 -0.3525 -0.4439
  531MOL0     C71591   8.919   8.416   4.540  0.1823 -0.2404 -0.1690
  531MOL0     C71592   8.785   8.412   4.606  0.0733 -0.2005  0.0645
  531MOL0     C71593   8.682   8.401   4.491  0.5602 -0.1618 -0.5063
  531MOL0     C71594   8.536   8.431   4.550 -0.4108 -0.7477  1.2021
  531MOL0    Cl71595   8.484   8.289   4.654  0.0189  0.0603 -0.1754
  531MOL0     C71596   9.189   8.704   5.224  0.1292  0.9195  0.9932
  531MOL0     C71597   9.227   8.758   5.349 -0.2832  0.5670 -0.0532
  531MOL0     O71598   9.521   8.985   5.430  0.5168 -0.3363  0.1864
  531MOL0     C71599   9.301   9.088   5.695  0.8126 -0.2935 -0.0818
  531MOL0     C71600   9.292   9.152   5.819  0.1408 -0.3418 -0.2227
  531MOL0     N71601   9.077   9.776   6.203  0.5917  0.1656 -0.2893
  531MOL0     N71602   9.010   9.855   6.285  0.4737 -0.0320 -0.9682
  531MOL0     C71603   8.169  10.432   6.893  0.3127 -0.1575 -0.8761
  531MOL0     C71604   8.039  10.484   6.919 -0.4413 -0.4627 -0.1950
  531MOL0     C71605   7.668  10.728   6.876  0.2675 -0.0731  0.1996
  531MOL0     C71606   7.536  10.671   6.873 -0.1837  0.1439 -0.1694
  531MOL0     C71607   7.417  10.745   6.867 -0.4459 -0.3552 -0.0712
  531MOL0     C71608   7.426  10.883   6.854  0.0249  0.1300  0.0317
  531MOL0     O71609   7.317  10.956   6.823  0.6910 -1.1258  0.0038
  531MOL0     C71610   7.264  11.031   6.942 -0.0337  0.0366 -0.2058
  531MOL0     C71611   7.217  11.172   6.902  0.5496  0.0830  0.0386
  531MOL0     C71612   7.071  11.203   6.933  0.3630  0.0834  0.0640
  531MOL0     C71613   7.068  11.294   7.052 -0.8258  0.1548 -0.5910
  531MOL0     C71614   6.933  11.316   7.100 -0.2253  0.2538 -0.1926
  531MOL0     C71615   6.818  11.323   7.139  0.1527 -0.4764 -0.0503
  531MOL0     C71616   7.551  10.937   6.858 -0.3228 -0.6960 -0.4974
  531MOL0     C71617   7.670  10.868   6.872 -0.7722  0.6365  0.1495
  531MOL0     H71618   8.110  10.813   6.927  2.0611 -0.3138 -0.1339
  531MOL0     H71619   8.342  10.727   6.914 -3.5202  3.4511  0.1352
  531MOL0     H71620   8.384  10.393   6.685 -0.0133  0.5174  0.2325
  531MOL0     H71621   8.542  10.383   6.756  0.1391 -0.6730  1.7124
  531MOL0     H71622   8.439  10.220   6.946  3.3752 -5.5936  0.0087
  531MOL0     H71623   8.327  10.177   6.831 -1.1621  1.7232  3.1795
  531MOL0     H71624   8.631  10.186   6.793 -1.4506  4.0667 -0.2456
  531MOL0     H71625   8.543  10.034   6.825  2.5359 -1.1367 -2.8837
  531MOL0     H71626   8.433  10.067   6.599 -0.3144  1.5445 -1.9902
  531MOL0     H71627   8.518  10.219   6.585  0.8869  0.2224  0.9519
  531MOL0     H71628   8.614  10.063   6.458 -1.1732 -1.6885 -0.8098
  531MOL0     H71629   8.738  10.111   6.576 -3.3839  4.3608  1.0369
  531MOL0     H71630   8.690   9.886   6.697  2.1884  1.3547 -1.2743
  531MOL0     H71631   8.567   9.850   6.576  0.4978 -2.0159  0.0415
  531MOL0     H71632   8.878   9.864   6.563  1.6345 -1.1724 -0.6584
  531MOL0     H71633   8.793   9.726   6.529 -1.7646  0.3028  3.4962
  531MOL0     H71634   8.812   9.971   6.349 -0.7951  0.0566  1.7072
  531MOL0     H71635   8.689   9.829   6.324  1.7398 -1.6665 -1.8940
  531MOL0     H71636   8.778   9.643   6.184  0.1265 -2.1302  2.5200
  531MOL0     H71637   8.949   9.524   5.998  1.1935  0.0384 -1.6483
  531MOL0     H71638   9.091   9.608   5.969 -2.0015  0.1389 -1.5132
  531MOL0     H71639   9.078   9.407   6.191  3.0049 -0.4316  1.8929
  531MOL0     H71640   9.217   9.516   6.162  2.4716 -0.4867 -0.5506
  531MOL0     H71641   9.240   9.433   5.950 -2.1301  2.7740  0.4444
  531MOL0     H71642   9.100   9.317   5.953 -0.4475  1.6298  0.4351
  531MOL0     H71643   9.215   9.191   6.124 -1.4461  0.9181  0.3183
  531MOL0     H71644   9.306   9.323   6.169  1.4896 -0.6410 -0.1269
  531MOL0     H71645   9.626   9.171   5.884  2.9614 -0.1404 -4.0401
  531MOL0     H71646   9.768   9.113   5.724 -0.8459  1.6111 -0.4526
  531MOL0     H71647   9.702   8.972   5.637 -2.3630 -1.0996  0.3204
  531MOL0     H71648   9.701   9.127   5.562 -2.6267 -2.2861 -1.5286
  531MOL0     H71649   9.299   9.068   5.234 -1.1509 -1.6241  3.6260
  531MOL0     H71650   9.256   8.956   5.006 -0.9580 -1.5535 -0.7492
  531MOL0     H71651   9.298   8.546   4.995  0.1663  3.2105  1.3329
  531MOL0     H71652   9.116   8.522   5.032 -0.5131 -1.0439 -1.8896
  531MOL0     H71653   9.255   8.539   4.764  0.8850  1.9365  1.0536
  531MOL0     H71654   9.187   8.390   4.842 -0.1847  0.2992  0.3181
  531MOL0     H71655   9.063   8.629   4.715 -0.8615 -0.7286 -1.2776
  531MOL0     H71656   8.964   8.523   4.829 -0.4516  1.0751 -0.4086
  531MOL0     H71657   9.125   8.387   4.606 -0.7254 -2.1111  0.0420
  531MOL0     H71658   9.014   8.322   4.718 -1.7563 -1.2849 -2.0039
  531MOL0     H71659   8.936   8.330   4.474 -0.8798 -2.1268  1.8650
  531MOL0     H71660   8.944   8.505   4.481  2.7920  0.9640  2.4597
  531MOL0     H71661   8.779   8.329   4.677  1.3732 -0.1219  0.2940
  531MOL0     H71662   8.770   8.498   4.671 -0.6075 -1.9230  2.3189
  531MOL0     H71663   8.693   8.305   4.440 -1.2820 -0.0214 -1.2467
  531MOL0     H71664   8.715   8.471   4.414  2.7177 -0.7411 -0.1998
  531MOL0     H71665   8.457   8.465   4.483  0.3519 -0.5370  0.3919
  531MOL0     H71666   8.548   8.508   4.628  2.6923 -3.3252  3.5593
  531MOL0     H71667   9.138   8.609   5.226 -0.9687  1.5113  1.9102
  531MOL0     H71668   9.220   8.702   5.442 -0.9728  0.9425  0.1212
  531MOL0     H71669   9.205   9.055   5.656  1.3475 -0.0443 -1.6867
  531MOL0     H71670   9.190   9.167   5.852 -0.1866 -0.0264 -1.3082
  531MOL0     H71671   8.187  10.326   6.894 -0.2069 -0.2557 -1.2389
  531MOL0     H71672   7.962  10.410   6.936 -0.8274 -0.4604 -1.7791
  531MOL0     H71673   7.528  10.563   6.867  0.2136 -0.0263  1.7217
  531MOL0     H71674   7.319  10.698   6.873 -0.3636 -0.8356 -1.9091
  531MOL0     H71675   7.189  10.976   7.000  0.6494  0.6416  1.2894
  531MOL0     H71676   7.352  11.047   7.005 -0.3738 -2.9562  1.2003
  531MOL0     H71677   7.232  11.174   6.793 -3.8739 -0.0188 -0.7696
  531MOL0     H71678   7.283  11.242   6.952 -1.1309  0.8294  1.3030
  531MOL0     H71679   7.018  11.109   6.949  1.0169  0.0290  2.3528
  531MOL0     H71680   7.024  11.256   6.850  0.2501 -1.0398 -0.6041
  531MOL0     H71681   7.123  11.384   7.021 -0.5041 -0.2466 -1.2078
  531MOL0     H71682   7.119  11.237   7.129 -0.8347 -0.1530 -0.8079
  531MOL0     H71683   6.717  11.336   7.172  0.5303 -2.1427  1.9647
  531MOL0     H71684   7.545  11.044   6.871  2.4722 -0.7310  2.1791
  531MOL0     H71685   7.762  10.923   6.857  0.8902 -2.0817 -0.1170
  532MOL0     O71686   0.847  11.102   3.330 -0.0460  0.1167  0.3678
  532MOL0     C71687   0.951  11.099   3.400  0.5558  0.1019  0.8819
  532MOL0     O71688   1.019  11.212   3.442 -0.4032  0.2298 -0.1712
  532MOL0     C71689   1.005  11.342   3.397  0.1445 -0.1523  1.0056
  532MOL0     C71690   0.931  11.384   3.278  0.3026  0.1639 -1.0433
  532MOL0     C71691   0.917  11.512   3.239  0.3160  0.8389  0.4486
  532MOL0     C71692   0.989  11.608   3.304  0.3412 -0.7354 -0.2480
  532MOL0     O71693   0.987  11.735   3.257  0.2427 -0.3498  0.0796
  532MOL0     C71694   0.989  11.851   3.346 -0.7537 -0.5760 -0.1199
  532MOL0     C71695   0.886  11.963   3.304 -0.8286 -0.8818 -0.5881
  532MOL0     C71696   0.748  11.904   3.279  0.4675 -0.3823 -0.1494
  532MOL0     C71697   0.664  11.907   3.407 -0.5393  0.2423 -0.3431
  532MOL0     C71698   0.514  11.887   3.383 -0.2402 -0.5071  0.0144
  532MOL0     C71699   0.440  11.833   3.499  0.8553  0.4396  0.2266
  532MOL0     C71700   0.293  11.787   3.451  0.1744 -0.2273  0.6367
  532MOL0     C71701   0.223  11.715   3.566 -0.4595  0.0834 -0.1752
  532MOL0     N71702   0.088  11.669   3.534 -0.0335  0.0183 -0.4261
  532MOL0     C71703   0.061  11.541   3.493 -0.2405 -0.0948 -0.0463
  532MOL0     C71704  -0.073  11.528   3.485  0.2862  0.3006  0.6036
  532MOL0     C71705  -0.156  11.404   3.444 -0.4890 -0.4495 -1.0505
  532MOL0     C71706  -0.199  11.410   3.297 -0.1203 -0.5385  0.2100
  532MOL0     C71707  -0.272  11.277   3.266  0.5542 -0.3608  0.3700
  532MOL0     C71708  -0.319  11.279   3.124  0.1753 -0.3360  0.5048
  532MOL0     O71709  -0.433  11.368   3.127  0.4925 -0.9483  0.4398
  532MOL0     C71710  -0.523  11.353   3.031 -0.2564 -0.2616  0.0922
  532MOL0     C71711  -0.493  11.337   2.895 -0.4393  0.4807 -0.3561
  532MOL0     C71712  -0.592  11.314   2.794 -0.5741 -1.6233 -0.1559
  532MOL0     C71713  -0.541  11.317   2.659  0.3473  0.1929  0.3290
  532MOL0     C71714  -0.728  11.330   2.832 -0.8971  0.6836 -0.2825
  532MOL0     C71715  -0.844  11.307   2.731  1.3096  0.5681 -0.3092
  532MOL0     O71716  -0.819  11.246   2.602 -0.6811  0.0173  0.8230
  532MOL0     C71717  -0.925  11.254   2.518 -0.3531  0.1300 -0.0163
  532MOL0     C71718  -0.903  11.324   2.404  1.0607 -0.6436  0.5833
  532MOL0     C71719  -0.990  11.319   2.298 -0.7192 -0.2113 -0.2212
  532MOL0     C71720  -1.115  11.242   2.302  0.3900  0.1823 -0.8205
  532MOL0     O71721  -1.205  11.229   2.197  0.2890 -0.0712 -0.3062
  532MOL0     C71722  -1.262  11.358   2.164 -0.3034  0.3702  0.3078
  532MOL0     C71723  -1.381  11.325   2.088 -0.0163 -0.7969  0.4869
  532MOL0     C71724  -1.453  11.454   2.049  0.1146 -1.3475 -0.0391
  532MOL0     C71725  -1.574  11.427   1.949 -0.5446  0.0223  0.7330
  532MOL0     C71726  -1.584  11.556   1.866 -0.2388 -0.4637  0.3489
  532MOL0     C71727  -1.620  11.681   1.947 -0.6018 -0.0358 -0.0717
  532MOL0     C71728  -1.664  11.790   1.846  0.1448  0.0183  0.9202
  532MOL0     C71729  -1.683  11.924   1.919 -0.1779  0.4442 -0.3583
  532MOL0    Cl71730  -1.717  12.048   1.801 -0.0758 -0.4005  0.3344
  532MOL0     C71731  -1.133  11.174   2.425 -0.4980  0.4734  0.3583
  532MOL0     C71732  -1.033  11.169   2.524 -0.8789 -0.5770  0.1506
  532MOL0     O71733  -0.952  11.359   2.758  0.3346  0.2721 -0.1350
  532MOL0     C71734  -0.761  11.365   2.965 -0.1181 -0.1661  0.0747
  532MOL0     C71735  -0.657  11.375   3.057 -0.1797 -0.1098 -0.2262
  532MOL0     N71736  -0.127  11.647   3.536 -0.0201  0.3420  0.1233
  532MOL0     N71737  -0.026  11.731   3.572 -0.0801 -0.1810 -0.8777
  532MOL0     C71738   1.066  11.574   3.415  0.9082 -0.5256 -0.8452
  532MOL0     C71739   1.078  11.441   3.453  0.1886 -1.0719  0.1315
  532MOL0     C71740   0.986  10.971   3.464  0.5062 -0.1279 -1.4138
  532MOL0     C71741   0.972  10.846   3.405 -0.5931  0.3279 -0.3731
  532MOL0     C71742   0.997  10.728   3.468 -0.5583 -0.5697 -0.2308
  532MOL0     C71743   1.048  10.727   3.596 -0.5974  0.1225  0.1154
  532MOL0     O71744   1.064  10.600   3.639 -0.2714 -0.0333  0.6917
  532MOL0     C71745   1.121  10.574   3.770  0.0007 -0.1954  1.2425
  532MOL0     C71746   1.275  10.566   3.761 -0.0920 -0.7004  0.2094
  532MOL0     C71747   1.356  10.700   3.788  0.1947  0.5927 -0.9477
  532MOL0     C71748   1.505  10.672   3.817 -1.1843  0.1857 -0.0241
  532MOL0     C71749   1.582  10.696   3.700 -0.3313  0.0072  0.6576
  532MOL0     C71750   1.651  10.742   3.607 -0.4765  0.9175  0.1872
  532MOL0     C71751   1.062  10.849   3.664  0.2940 -0.0174  0.1002
  532MOL0     C71752   1.034  10.966   3.594  0.0108 -0.7794  1.0237
  532MOL0     H71753   0.874  11.314   3.218 -0.3716  1.3940 -1.8602
  532MOL0     H71754   0.858  11.530   3.150  2.1013 -0.6308 -1.1170
  532MOL0     H71755   0.976  11.832   3.453  0.1251  3.0516  0.7906
  532MOL0     H71756   1.085  11.903   3.343 -0.3617 -1.3259 -1.1023
  532MOL0     H71757   0.889  12.042   3.379 -0.5546 -1.9470  0.5578
  532MOL0     H71758   0.921  12.001   3.208  1.2164  1.2213  0.9092
  532MOL0     H71759   0.693  11.965   3.207 -2.6539 -0.2535  2.1330
  532MOL0     H71760   0.758  11.806   3.234  0.8552 -0.3538 -0.1317
  532MOL0     H71761   0.711  11.841   3.481  0.4032  0.2840 -0.8919
  532MOL0     H71762   0.677  12.004   3.456 -2.2216 -1.0562  2.9916
  532MOL0     H71763   0.473  11.976   3.334  0.7773  0.1547  0.3387
  532MOL0     H71764   0.518  11.816   3.299 -1.2092  2.1544 -2.4852
  532MOL0     H71765   0.498  11.752   3.543  1.3772 -0.0232 -1.2778
  532MOL0     H71766   0.431  11.902   3.584 -0.4935 -1.6198  1.8736
  532MOL0     H71767   0.223  11.863   3.418 -2.2983 -2.3668  0.6054
  532MOL0     H71768   0.311  11.725   3.363  0.9201 -0.2847  0.8177
  532MOL0     H71769   0.208  11.784   3.650  0.3362  1.3923 -1.0641
  532MOL0     H71770   0.281  11.632   3.607 -2.8424 -1.1570  0.8687
  532MOL0     H71771   0.140  11.473   3.464  0.5487  1.1085 -0.8012
  532MOL0     H71772  -0.097  11.315   3.468  1.2442  0.6933 -0.8950
  532MOL0     H71773  -0.235  11.399   3.519 -0.5604 -0.2701 -1.1128
  532MOL0     H71774  -0.114  11.407   3.229 -0.8319 -2.8327 -0.6462
  532MOL0     H71775  -0.269  11.491   3.273  0.3683 -0.3152 -0.4851
  532MOL0     H71776  -0.352  11.264   3.339  1.7918 -0.1994  1.8003
  532MOL0     H71777  -0.199  11.196   3.266  0.5786 -0.4732 -2.9347
  532MOL0     H71778  -0.354  11.176   3.113 -0.3633 -0.5144  3.1703
  532MOL0     H71779  -0.246  11.313   3.050 -1.8319 -0.6935 -1.7627
  532MOL0     H71780  -0.388  11.341   2.870  0.8138 -1.3118  3.7444
  532MOL0     H71781  -0.617  11.358   2.591  0.0469 -0.4111  0.2923
  532MOL0     H71782  -0.446  11.370   2.645  0.1389  0.3038 -0.7317
  532MOL0     H71783  -0.528  11.210   2.639  1.7183  0.7414 -2.1497
  532MOL0     H71784  -0.812  11.382   2.390 -0.4645  2.1187  1.3140
  532MOL0     H71785  -0.965  11.375   2.208  0.0255 -0.4843 -0.1898
  532MOL0     H71786  -1.294  11.422   2.246  1.2644  0.2364  1.0574
  532MOL0     H71787  -1.191  11.410   2.099 -1.7872  0.6422 -1.1704
  532MOL0     H71788  -1.353  11.279   1.993 -0.6955  0.6679 -0.4734
  532MOL0     H71789  -1.444  11.262   2.152  0.0719 -0.4183  0.9564
  532MOL0     H71790  -1.371  11.517   2.013  2.3498 -3.8024  0.4346
  532MOL0     H71791  -1.495  11.500   2.139  1.5127 -0.1968  0.0481
  532MOL0     H71792  -1.545  11.347   1.880  1.2377  1.2164 -0.0055
  532MOL0     H71793  -1.666  11.405   2.003 -0.2785 -2.9681  0.1357
  532MOL0     H71794  -1.661  11.527   1.794  3.5845 -3.7256 -2.8769
  532MOL0     H71795  -1.492  11.572   1.811 -0.2871 -1.1559  0.0584
  532MOL0     H71796  -1.709  11.654   2.004 -0.7387 -1.8249 -1.0470
  532MOL0     H71797  -1.545  11.727   2.012 -0.7050  3.6077 -2.2331
  532MOL0     H71798  -1.763  11.755   1.814 -0.2237 -0.4209  2.4620
  532MOL0     H71799  -1.597  11.799   1.760  3.7296  0.7809  3.5485
  532MOL0     H71800  -1.602  11.952   1.986 -0.7691  0.7849  0.2223
  532MOL0     H71801  -1.772  11.915   1.983 -1.1688  0.6211 -1.6571
  532MOL0     H71802  -1.223  11.117   2.443 -2.1100  2.4021 -1.2351
  532MOL0     H71803  -1.043  11.090   2.597 -0.2473 -3.8484 -2.9837
  532MOL0     H71804  -0.865  11.388   2.985 -0.3576 -0.2116 -1.0423
  532MOL0     H71805  -0.685  11.390   3.161  1.5955 -3.1801  0.8352
  532MOL0     H71806   1.122  11.654   3.463 -1.7516  1.0828 -0.2414
  532MOL0     H71807   1.141  11.412   3.536  1.1625 -0.3455 -0.3391
  532MOL0     H71808   0.928  10.854   3.306 -0.2794  5.1798 -0.3698
  532MOL0     H71809   0.977  10.637   3.413 -2.9490 -0.2640  0.0045
  532MOL0     H71810   1.083  10.635   3.853 -0.9647  1.4389 -0.3233
  532MOL0     H71811   1.090  10.474   3.802 -1.6154  0.9154  3.4843
  532MOL0     H71812   1.289  10.529   3.660 -0.3827  0.5208 -0.2953
  532MOL0     H71813   1.303  10.491   3.836 -4.4887 -1.1191  1.7331
  532MOL0     H71814   1.323  10.752   3.879 -1.4653  0.1088 -1.2415
  532MOL0     H71815   1.327  10.763   3.704 -1.5152  1.2934  0.0994
  532MOL0     H71816   1.517  10.565   3.839  2.2749  0.4379 -0.2122
  532MOL0     H71817   1.542  10.713   3.911  1.9366  1.9485 -1.8631
  532MOL0     H71818   1.727  10.782   3.542 -1.2885 -0.3803 -1.6408
  532MOL0     H71819   1.081  10.856   3.771 -2.9918 -0.2558  0.8153
  532MOL0     H71820   1.044  11.064   3.638 -1.2411 -0.9393  1.7043
  533MOL0     O71821  11.297   4.832   4.985  0.0826  0.3767  0.6785
  533MOL0     C71822  11.391   4.800   4.910  0.0194  0.7419 -0.5594
  533MOL0     O71823  11.372   4.754   4.781  0.1031 -0.4827 -0.4676
  533MOL0     C71824  11.238   4.745   4.729  0.1195  0.5466 -0.7020
  533MOL0     C71825  11.200   4.629   4.670 -0.2245 -0.8321  0.5732
  533MOL0     C71826  11.077   4.617   4.603 -0.0984  0.7588 -0.4042
  533MOL0     C71827  10.980   4.722   4.602  0.8248  0.5415 -0.2975
  533MOL0     O71828  10.862   4.706   4.535 -0.3625 -0.2016 -1.2204
  533MOL0     C71829  10.804   4.584   4.554  0.5046 -1.0948  0.3212
  533MOL0     C71830  10.657   4.604   4.551 -0.7206 -0.8922  0.9854
  533MOL0     C71831  10.601   4.652   4.688 -0.2767  0.3257  0.5266
  533MOL0     C71832  10.625   4.801   4.711 -0.5926  0.0709  0.7254
  533MOL0     C71833  10.524   4.855   4.802 -0.1580 -0.4417 -0.2178
  533MOL0     C71834  10.547   4.999   4.832  0.2690 -0.4575 -0.1785
  533MOL0     C71835  10.450   5.049   4.932  0.3816  0.3220 -0.7636
  533MOL0     C71836  10.445   5.204   4.935 -0.2211 -0.4373 -0.9948
  533MOL0     N71837  10.555   5.269   5.014 -0.0333  0.3727  0.4765
  533MOL0     C71838  10.575   5.271   5.146  0.0008 -1.1763  0.0210
  533MOL0     C71839  10.683   5.364   5.173  0.3616 -0.2198  0.9356
  533MOL0     C71840  10.763   5.388   5.295  0.9973 -0.7741 -0.4930
  533MOL0     C71841  10.696   5.322   5.419 -1.1667  0.2016  0.2245
  533MOL0     C71842  10.634   5.419   5.510 -0.3224  0.7250 -0.4306
  533MOL0     C71843  10.484   5.448   5.480  0.4050 -0.2470 -0.3286
  533MOL0     O71844  10.397   5.350   5.538  0.5208 -0.5543 -0.1492
  533MOL0     C71845  10.323   5.267   5.451  0.0849  0.0454 -0.3300
  533MOL0     C71846  10.239   5.318   5.360  0.6661 -1.0390  0.2894
  533MOL0     C71847  10.165   5.233   5.273  1.4401 -0.2000 -0.6894
  533MOL0     C71848  10.060   5.308   5.184 -0.9138  0.0217 -0.9165
  533MOL0     C71849  10.205   5.100   5.265 -0.7533 -0.1659 -0.0797
  533MOL0     C71850  10.161   5.018   5.154  0.1792 -0.0550 -0.6242
  533MOL0     O71851  10.201   4.889   5.159  0.0019 -0.3369 -0.7488
  533MOL0     C71852  10.198   4.796   5.050 -0.1264  0.7077  1.0278
  533MOL0     C71853  10.227   4.664   5.080  0.1034  0.2103  0.8504
  533MOL0     C71854  10.231   4.560   4.980  0.9100 -0.5552  0.8702
  533MOL0     C71855  10.190   4.585   4.848 -0.1158 -0.9113  0.9451
  533MOL0     O71856  10.192   4.505   4.739 -0.1022  0.4495  0.5822
  533MOL0     C71857  10.299   4.409   4.742 -0.2662 -0.3756  0.4227
  533MOL0     C71858  10.340   4.376   4.598 -0.7992 -0.2617 -0.1523
  533MOL0     C71859  10.228   4.343   4.501 -0.3150  0.2191 -0.3495
  533MOL0     C71860  10.281   4.282   4.380  0.7449  0.5991  0.5151
  533MOL0     C71861  10.389   4.363   4.303 -0.0102  0.0237 -0.9730
  533MOL0     C71862  10.424   4.298   4.171 -1.2813 -0.2762 -0.2253
  533MOL0     C71863  10.535   4.388   4.103 -0.2010  0.7351  0.4684
  533MOL0     C71864  10.683   4.351   4.155 -1.0992 -0.0220 -0.1546
  533MOL0    Cl71865  10.701   4.266   4.308 -0.0352 -0.0725  0.2088
  533MOL0     C71866  10.146   4.710   4.820 -0.1410 -0.6525  0.4216
  533MOL0     C71867  10.147   4.818   4.918  0.5392 -1.1634 -0.9903
  533MOL0     O71868  10.129   5.071   5.052  0.2551 -0.7184 -0.5396
  533MOL0     C71869  10.283   5.043   5.367 -0.9638 -0.3791 -0.5525
  533MOL0     C71870  10.343   5.128   5.458 -0.0312 -0.1471 -0.4935
  533MOL0     N71871  10.727   5.408   5.048  0.4496  0.1061 -0.2409
  533MOL0     N71872  10.654   5.345   4.961  0.0898 -0.4669  0.0190
  533MOL0     C71873  11.014   4.837   4.679 -0.4379 -0.7234  0.4405
  533MOL0     C71874  11.141   4.852   4.734 -0.7425  0.3178  0.0988
  533MOL0     C71875  11.535   4.808   4.959 -0.1388 -0.7706  0.6165
  533MOL0     C71876  11.564   4.866   5.079  0.2052 -0.1691  0.3113
  533MOL0     C71877  11.693   4.861   5.141 -0.0509  0.0696 -0.5583
  533MOL0     C71878  11.795   4.796   5.069 -0.0222  0.2620  0.0920
  533MOL0     O71879  11.923   4.806   5.125 -0.1460  0.1401  0.3427
  533MOL0     C71880  12.008   4.688   5.112 -0.0184  0.1435  0.0594
  533MOL0     C71881  12.144   4.716   5.160 -0.5348 -0.0598 -0.2104
  533MOL0     C71882  12.148   4.751   5.305 -0.8975  0.0801 -0.2460
  533MOL0     C71883  12.124   4.633   5.387  0.3671 -0.4548  0.0417
  533MOL0     C71884  12.111   4.669   5.531 -0.2724 -0.4400 -0.3959
  533MOL0     C71885  12.085   4.695   5.649 -0.8113 -0.3368  1.2622
  533MOL0     C71886  11.766   4.737   4.948  0.6741 -0.3758 -0.3156
  533MOL0     C71887  11.638   4.735   4.901  0.4651 -0.2173  0.0695
  533MOL0     H71888  11.273   4.549   4.658 -0.0971 -0.7511  0.8030
  533MOL0     H71889  11.060   4.525   4.548 -0.8250  1.1541 -0.8558
  533MOL0     H71890  10.840   4.535   4.464  1.7368  0.0238  0.1802
  533MOL0     H71891  10.827   4.533   4.648 -2.2631  0.1632  1.8305
  533MOL0     H71892  10.630   4.681   4.477 -1.0058 -2.7564 -0.9338
  533MOL0     H71893  10.602   4.512   4.529 -0.4151 -0.7794 -0.3355
  533MOL0     H71894  10.494   4.631   4.691 -0.8853  2.9649  4.2777
  533MOL0     H71895  10.653   4.588   4.759  1.6266 -3.1387 -3.4989
  533MOL0     H71896  10.728   4.811   4.747 -1.4597  0.6284  3.2497
  533MOL0     H71897  10.620   4.853   4.615 -1.6358  0.8249  1.1656
  533MOL0     H71898  10.422   4.841   4.765 -1.2160  3.8910  0.6020
  533MOL0     H71899  10.524   4.808   4.901  0.2268 -0.2060 -0.1038
  533MOL0     H71900  10.648   5.021   4.869 -0.1367  1.5372 -0.1221
  533MOL0     H71901  10.537   5.056   4.739 -0.5842  1.6425  1.1120
  533MOL0     H71902  10.356   4.994   4.935  1.9580 -2.4594  1.2901
  533MOL0     H71903  10.489   5.020   5.029  1.3181  0.5976 -1.0491
  533MOL0     H71904  10.354   5.219   4.993 -1.5006  1.2334 -3.2730
  533MOL0     H71905  10.448   5.235   4.831  2.8096 -1.9077 -1.4595
  533MOL0     H71906  10.529   5.226   5.233 -1.7862 -1.3465 -0.9640
  533MOL0     H71907  10.855   5.332   5.278  0.0003 -2.0627 -1.8070
  533MOL0     H71908  10.787   5.494   5.304  3.1553 -1.2303 -0.3612
  533MOL0     H71909  10.780   5.286   5.480 -1.3202 -1.5421 -0.5273
  533MOL0     H71910  10.637   5.230   5.410 -1.1412  0.1503  0.5568
  533MOL0     H71911  10.696   5.510   5.511 -1.2172  1.4625 -3.2941
  533MOL0     H71912  10.643   5.380   5.612 -1.3578  3.4588  0.8300
  533MOL0     H71913  10.483   5.462   5.372  3.3715  4.5621 -0.0351
  533MOL0     H71914  10.465   5.543   5.532  0.5739 -0.6315  0.4447
  533MOL0     H71915  10.233   5.423   5.335  0.1913 -1.9483 -4.2156
  533MOL0     H71916  10.118   5.380   5.125 -0.5537  1.6991  1.3259
  533MOL0     H71917   9.994   5.242   5.128 -0.4340 -0.4095 -0.9761
  533MOL0     H71918   9.993   5.368   5.246 -0.5500 -0.1177 -0.3752
  533MOL0     H71919  10.269   4.644   5.178  1.5252  0.6774  0.3645
  533MOL0     H71920  10.267   4.458   4.996  1.5905 -0.5427 -0.4446
  533MOL0     H71921  10.388   4.454   4.788  2.0085 -0.5881 -3.3228
  533MOL0     H71922  10.263   4.326   4.804 -1.6588  1.5606  2.3451
  533MOL0     H71923  10.398   4.460   4.558 -0.7865  1.4205  3.0551
  533MOL0     H71924  10.408   4.291   4.605 -1.5489 -1.2404 -3.3932
  533MOL0     H71925  10.161   4.429   4.496 -0.6743  0.0298  0.9601
  533MOL0     H71926  10.159   4.268   4.539 -0.3933 -1.1509 -2.9541
  533MOL0     H71927  10.308   4.179   4.405  2.3746  1.3316  1.8872
  533MOL0     H71928  10.190   4.276   4.319  0.1952 -1.6669  1.4588
  533MOL0     H71929  10.479   4.359   4.366 -1.5077 -0.4464  1.2728
  533MOL0     H71930  10.349   4.464   4.292 -0.0802 -0.0467 -1.3523
  533MOL0     H71931  10.460   4.195   4.186 -3.0762 -0.6219  2.1426
  533MOL0     H71932  10.335   4.296   4.108 -0.0210 -2.8268 -2.1206
  533MOL0     H71933  10.504   4.491   4.119  3.5936  2.0007  0.5276
  533MOL0     H71934  10.522   4.382   3.995  1.2804  0.7094  0.2688
  533MOL0     H71935  10.737   4.445   4.170  1.2093 -1.5143  1.5921
  533MOL0     H71936  10.742   4.295   4.081 -0.0476  0.2431  0.4564
  533MOL0     H71937  10.109   4.724   4.719 -4.1440 -2.0821  1.4642
  533MOL0     H71938  10.140   4.918   4.876  2.3376 -0.6945 -0.2424
  533MOL0     H71939  10.305   4.937   5.377  0.0916 -0.0302  1.1788
  533MOL0     H71940  10.415   5.089   5.529 -1.3223  1.2599  1.7164
  533MOL0     H71941  10.935   4.909   4.699 -2.0021 -2.2646  0.0654
  533MOL0     H71942  11.158   4.947   4.783 -4.1508 -0.2230  2.6703
  533MOL0     H71943  11.485   4.911   5.137 -1.1561  0.7613 -2.1386
  533MOL0     H71944  11.716   4.907   5.236 -1.3989  0.9843 -0.6399
  533MOL0     H71945  11.952   4.611   5.166 -1.1221 -0.1324 -1.4275
  533MOL0     H71946  12.002   4.648   5.011 -3.2888  0.5780 -0.0341
  533MOL0     H71947  12.201   4.797   5.114  1.9804 -0.0456  2.5973
  533MOL0     H71948  12.198   4.625   5.131 -3.3510 -2.0712  0.4900
  533MOL0     H71949  12.082   4.836   5.324  3.1431  3.9929 -1.9332
  533MOL0     H71950  12.250   4.786   5.321 -0.6374 -1.4835  1.9956
  533MOL0     H71951  12.215   4.573   5.373  0.5161  0.3101 -3.1236
  533MOL0     H71952  12.031   4.586   5.354 -0.3271  0.7028  0.3270
  533MOL0     H71953  12.076   4.718   5.753 -0.2299 -1.7654  1.6551
  533MOL0     H71954  11.846   4.693   4.890  1.5303  0.4483  0.2092
  533MOL0     H71955  11.613   4.673   4.815 -0.4245 -2.3485  1.7506
  534MOL0     O71956   6.732   8.530   6.478  0.1394 -0.4711 -0.5234
  534MOL0     C71957   6.757   8.645   6.449 -0.2345 -0.6029 -0.0435
  534MOL0     O71958   6.674   8.756   6.479  0.9363 -0.2795  0.2696
  534MOL0     C71959   6.561   8.735   6.559 -1.3652  0.1762 -0.3887
  534MOL0     C71960   6.578   8.681   6.688  0.0441 -0.0754 -0.2479
  534MOL0     C71961   6.466   8.657   6.773 -0.5221 -0.6786  0.0728
  534MOL0     C71962   6.334   8.687   6.725 -0.7460  0.0754  0.2134
  534MOL0     O71963   6.227   8.649   6.797  1.1547  0.3656 -0.0478
  534MOL0     C71964   6.252   8.581   6.925  0.3926 -0.8419 -0.8219
  534MOL0     C71965   6.120   8.540   6.983  0.2940 -0.5791 -0.4526
  534MOL0     C71966   6.141   8.427   7.089  0.1063 -0.3598 -0.4442
  534MOL0     C71967   6.006   8.372   7.141  0.1411 -0.8560  0.4339
  534MOL0     C71968   6.014   8.278   7.258  0.7798  0.7872 -1.1859
  534MOL0     C71969   6.033   8.131   7.224 -0.4851  1.0784  0.8650
  534MOL0     C71970   6.039   8.045   7.348  0.1467  0.4756  0.9425
  534MOL0     C71971   6.083   7.904   7.310 -0.2724  0.9663 -0.1775
  534MOL0     N71972   6.228   7.883   7.323  0.5401 -0.1313 -0.3789
  534MOL0     C71973   6.300   7.856   7.442  0.3123  0.5126  0.4465
  534MOL0     C71974   6.415   7.801   7.389  0.5804 -0.3876 -0.0989
  534MOL0     C71975   6.526   7.738   7.483  0.4608 -1.7746  0.7096
  534MOL0     C71976   6.566   7.603   7.427 -0.0024  0.1473 -0.5444
  534MOL0     C71977   6.492   7.484   7.480 -0.3802  0.6758  0.1154
  534MOL0     C71978   6.543   7.356   7.409  0.4653  0.4093  0.1063
  534MOL0     O71979   6.460   7.248   7.456  0.3712  0.1983 -0.7297
  534MOL0     C71980   6.335   7.231   7.418  0.7877 -0.2157  0.5016
  534MOL0     C71981   6.248   7.151   7.485  0.3358  0.4034 -0.2569
  534MOL0     C71982   6.116   7.118   7.447 -0.4182  0.2932 -0.7749
  534MOL0     C71983   6.048   7.021   7.536  0.4248 -0.2672  0.4102
  534MOL0     C71984   6.062   7.153   7.326 -0.9632  0.0344 -0.2944
  534MOL0     C71985   5.924   7.121   7.278  0.5814  0.0145 -0.1208
  534MOL0     O71986   5.834   7.043   7.347  0.2527 -0.2669  0.4315
  534MOL0     C71987   5.704   7.044   7.301  0.3162 -0.1860  0.6409
  534MOL0     C71988   5.662   6.938   7.218  0.8304 -0.0495 -0.2474
  534MOL0     C71989   5.534   6.937   7.164 -0.4848  0.0612  0.5665
  534MOL0     C71990   5.441   7.036   7.200  0.3831 -0.5059 -0.0898
  534MOL0     O71991   5.316   7.036   7.145 -0.3559  0.9111 -0.0042
  534MOL0     C71992   5.265   7.154   7.085 -0.5062 -0.9489  0.7846
  534MOL0     C71993   5.117   7.136   7.093  0.0238  0.1703 -0.2401
  534MOL0     C71994   5.035   7.263   7.086 -0.6672 -0.3481 -0.7471
  534MOL0     C71995   4.978   7.270   6.942 -0.8995 -0.0662  0.4387
  534MOL0     C71996   4.919   7.401   6.928  0.6487  0.9364 -0.2095
  534MOL0     C71997   4.855   7.434   6.796 -0.0196 -0.4087  0.4052
  534MOL0     C71998   4.806   7.575   6.802  0.2103  0.3862  0.1648
  534MOL0     C71999   4.706   7.604   6.687  0.6080 -0.4329  0.6193
  534MOL0    Cl72000   4.542   7.563   6.752  0.2004 -0.3362 -0.1971
  534MOL0     C72001   5.479   7.140   7.280 -0.4196 -0.0405 -0.1115
  534MOL0     C72002   5.616   7.148   7.325  0.1940 -1.4046 -0.3727
  534MOL0     O72003   5.896   7.172   7.174 -0.0761  0.2892  0.5594
  534MOL0     C72004   6.156   7.237   7.255  1.1848  0.0012  0.0268
  534MOL0     C72005   6.277   7.278   7.297 -0.3257 -0.6672 -0.4595
  534MOL0     N72006   6.414   7.816   7.253  0.7685  0.7857  0.2202
  534MOL0     N72007   6.303   7.869   7.220 -0.8185 -0.4117  0.3184
  534MOL0     C72008   6.318   8.736   6.595 -0.4977 -0.8119 -0.3049
  534MOL0     C72009   6.433   8.754   6.509 -0.0692  0.2918  0.4731
  534MOL0     C72010   6.883   8.663   6.375 -0.4111 -0.2353 -0.2550
  534MOL0     C72011   7.000   8.597   6.417 -0.2574  0.0800 -0.2614
  534MOL0     C72012   7.120   8.621   6.348 -0.2625  0.0908  0.1419
  534MOL0     C72013   7.131   8.710   6.248  0.2748 -0.6510  0.0432
  534MOL0     O72014   7.246   8.737   6.174  0.1714 -0.2794 -0.2639
  534MOL0     C72015   7.300   8.866   6.200 -0.1013  0.0500 -0.0458
  534MOL0     C72016   7.309   8.942   6.066  0.1097 -0.2408 -0.2306
  534MOL0     C72017   7.385   8.856   5.964 -0.1649 -0.1189  0.3149
  534MOL0     C72018   7.422   8.934   5.840 -0.1327  0.0740  0.1430
  534MOL0     C72019   7.537   9.020   5.880  1.0540  1.2754 -0.2228
  534MOL0     C72020   7.627   9.082   5.926 -0.2677 -0.6970 -0.6327
  534MOL0     C72021   7.012   8.781   6.215  0.2222 -0.0567 -0.0264
  534MOL0     C72022   6.895   8.756   6.273 -0.8349 -0.4288  0.0475
  534MOL0     H72023   6.673   8.641   6.720  0.7490  2.9088  1.8364
  534MOL0     H72024   6.476   8.606   6.868 -3.6557 -1.6740 -0.0276
  534MOL0     H72025   6.320   8.495   6.918 -0.1530 -1.2868 -0.7348
  534MOL0     H72026   6.289   8.652   7.000 -1.6154  1.5726 -1.9864
  534MOL0     H72027   6.083   8.618   7.050 -1.5662 -1.0317 -0.8971
  534MOL0     H72028   6.043   8.509   6.912  2.0573  1.0501 -3.2346
  534MOL0     H72029   6.198   8.343   7.050 -3.3955 -2.1759 -2.1761
  534MOL0     H72030   6.193   8.472   7.174  0.8214 -0.0924 -1.0129
  534MOL0     H72031   5.936   8.450   7.176 -0.5612 -1.8725  1.3786
  534MOL0     H72032   5.968   8.334   7.046  1.7504  0.7758 -0.9378
  534MOL0     H72033   6.085   8.317   7.331  0.0356  1.1163 -0.6375
  534MOL0     H72034   5.917   8.290   7.306  0.9496  1.6054 -1.0234
  534MOL0     H72035   5.954   8.093   7.158 -1.2890  0.8931  1.9016
  534MOL0     H72036   6.128   8.117   7.172 -1.8055  0.9010 -1.6574
  534MOL0     H72037   6.109   8.094   7.417  0.7770 -0.5323  1.0602
  534MOL0     H72038   5.937   8.041   7.387 -0.7832  3.4349 -0.9187
  534MOL0     H72039   6.055   7.866   7.212 -1.6956 -0.5059  0.7640
  534MOL0     H72040   6.023   7.842   7.377 -3.5129  1.7511 -2.1161
  534MOL0     H72041   6.265   7.846   7.545  0.8446 -1.0980  0.5056
  534MOL0     H72042   6.609   7.807   7.464 -1.5424  0.0383 -2.4504
  534MOL0     H72043   6.501   7.733   7.589  0.7090 -4.4081  0.7141
  534MOL0     H72044   6.672   7.589   7.449 -0.4582 -1.7083  0.7250
  534MOL0     H72045   6.562   7.609   7.318 -3.8305  1.3546 -0.5075
  534MOL0     H72046   6.384   7.493   7.465 -0.6478 -0.6017  1.0968
  534MOL0     H72047   6.505   7.468   7.588 -0.6646 -0.9420 -0.0704
  534MOL0     H72048   6.645   7.339   7.445  1.0321  2.5458 -0.3152
  534MOL0     H72049   6.548   7.365   7.300 -1.4901  2.2131  0.0994
  534MOL0     H72050   6.291   7.111   7.576 -2.6286  1.8986  1.9932
  534MOL0     H72051   5.958   7.065   7.578 -1.8084 -2.8974 -1.2857
  534MOL0     H72052   6.014   6.936   7.476  0.8718  0.3384 -0.7363
  534MOL0     H72053   6.118   6.989   7.614  0.8667 -2.3783 -0.7568
  534MOL0     H72054   5.728   6.857   7.190  2.9961  1.5008  0.0897
  534MOL0     H72055   5.511   6.857   7.094 -1.7019  1.4569 -0.6686
  534MOL0     H72056   5.298   7.247   7.132  0.7962 -0.8414 -0.2990
  534MOL0     H72057   5.292   7.167   6.980 -1.8100 -0.9392  0.4358
  534MOL0     H72058   5.085   7.055   7.028 -1.2539  1.0290 -0.7351
  534MOL0     H72059   5.103   7.104   7.196 -0.2705  0.7735 -0.0856
  534MOL0     H72060   5.086   7.353   7.121 -0.7081 -0.5908 -0.0613
  534MOL0     H72061   4.946   7.248   7.148 -1.1709 -0.4194 -1.4645
  534MOL0     H72062   5.060   7.262   6.871 -0.4986  2.1681  0.5718
  534MOL0     H72063   4.908   7.186   6.935 -1.2041  0.2273 -0.0361
  534MOL0     H72064   4.996   7.477   6.948 -0.7945  2.1266  1.1388
  534MOL0     H72065   4.836   7.404   6.999  0.3894 -2.8514 -0.1453
  534MOL0     H72066   4.932   7.433   6.718 -0.5878 -1.2969 -0.1670
  534MOL0     H72067   4.774   7.365   6.770  1.1901 -0.7663 -2.9659
  534MOL0     H72068   4.901   7.628   6.798 -0.1534  1.0509  0.1849
  534MOL0     H72069   4.764   7.606   6.898 -2.1005  0.3993 -0.7729
  534MOL0     H72070   4.720   7.549   6.593 -1.5537 -1.7570  1.0005
  534MOL0     H72071   4.695   7.702   6.641 -0.7443 -1.2517 -0.9250
  534MOL0     H72072   5.418   7.227   7.305  1.5568  2.0754 -2.1503
  534MOL0     H72073   5.643   7.239   7.378  0.2891  0.9769 -4.1372
  534MOL0     H72074   6.142   7.280   7.156  1.1846  1.1450  0.5080
  534MOL0     H72075   6.335   7.325   7.218 -2.7956 -0.2322 -2.1154
  534MOL0     H72076   6.215   8.754   6.564 -0.6047 -1.8028 -0.5388
  534MOL0     H72077   6.415   8.794   6.410  2.0526 -3.7004 -1.7419
  534MOL0     H72078   6.986   8.531   6.502  0.9539 -1.1887 -1.0152
  534MOL0     H72079   7.209   8.560   6.357 -0.9185 -1.5125 -3.0355
  534MOL0     H72080   7.243   8.933   6.265  3.2928  0.5444  2.6825
  534MOL0     H72081   7.403   8.856   6.235  1.5283 -1.3390 -4.5271
  534MOL0     H72082   7.364   9.036   6.080 -1.0116  0.1801  1.6011
  534MOL0     H72083   7.211   8.962   6.023  0.5722  2.6875 -0.1428
  534MOL0     H72084   7.334   8.764   5.936  1.6912 -1.3997  0.9625
  534MOL0     H72085   7.478   8.830   6.016  0.1998 -0.4134 -0.4696
  534MOL0     H72086   7.340   9.002   5.815  0.1608  0.2055 -0.4889
  534MOL0     H72087   7.444   8.860   5.763 -1.5429  2.2379 -2.5186
  534MOL0     H72088   7.703   9.143   5.972  0.1180  1.2667 -3.5547
  534MOL0     H72089   7.010   8.846   6.128 -0.3687 -0.6040 -0.4290
  534MOL0     H72090   6.802   8.796   6.236  0.0064  1.5662 -0.0412
  535MOL0     O72091   7.462   7.476   7.636 -0.1088  0.4610 -0.4462
  535MOL0     C72092   7.371   7.552   7.625  0.8380  0.5710 -0.3917
  535MOL0     O72093   7.332   7.618   7.513 -0.2460  0.3690 -0.1478
  535MOL0     C72094   7.430   7.603   7.412 -0.5614 -0.1364  0.3121
  535MOL0     C72095   7.395   7.557   7.278 -0.1905  1.3242  0.1997
  535MOL0     C72096   7.484   7.532   7.173  0.4476 -0.6592  1.4563
  535MOL0     C72097   7.621   7.554   7.204 -0.8810  0.5826 -1.0441
  535MOL0     O72098   7.705   7.528   7.096 -0.5526  0.0357 -0.7012
  535MOL0     C72099   7.823   7.613   7.076 -0.6227  0.2067  0.0287
  535MOL0     C72100   7.901   7.561   6.944  0.3235  0.0081  0.1330
  535MOL0     C72101   7.830   7.508   6.822  0.3553 -0.0480 -0.1814
  535MOL0     C72102   7.747   7.607   6.750  0.2367 -0.1752  0.6727
  535MOL0     C72103   7.689   7.541   6.617  0.7563  0.3455  0.0942
  535MOL0     C72104   7.688   7.662   6.514  0.5970  0.1029  1.0948
  535MOL0     C72105   7.613   7.624   6.386 -0.3920 -0.2637  0.3664
  535MOL0     C72106   7.600   7.750   6.296 -0.0011 -0.0753 -0.7888
  535MOL0     N72107   7.736   7.800   6.254  0.8191  0.3809 -0.1162
  535MOL0     C72108   7.800   7.908   6.308  1.0488  0.0328 -0.3010
  535MOL0     C72109   7.901   7.934   6.226  0.6376 -0.3823  0.1982
  535MOL0     C72110   7.993   8.049   6.239  0.0689 -1.2459  0.2545
  535MOL0     C72111   7.926   8.188   6.280  0.6031 -0.2436 -0.0329
  535MOL0     C72112   8.031   8.259   6.371  0.2875  0.0098 -0.4653
  535MOL0     C72113   8.138   8.318   6.288 -0.2202  0.2022 -0.7022
  535MOL0     O72114   8.217   8.405   6.370 -0.1516 -0.0993  1.0939
  535MOL0     C72115   8.337   8.440   6.306 -0.7341  0.2559 -0.0862
  535MOL0     C72116   8.401   8.370   6.201  0.4933  0.4582  0.4041
  535MOL0     C72117   8.521   8.410   6.133  0.4324  0.1278 -0.3387
  535MOL0     C72118   8.572   8.330   6.019  0.3599 -0.7989  1.1763
  535MOL0     C72119   8.591   8.522   6.191 -0.2859  0.0804  0.4564
  535MOL0     C72120   8.722   8.578   6.132  0.6544 -1.1204  0.5846
  535MOL0     O72121   8.785   8.663   6.215 -1.1587  0.1465 -0.5612
  535MOL0     C72122   8.923   8.691   6.186  0.4145  0.7128  0.1874
  535MOL0     C72123   8.957   8.820   6.186  0.4821 -0.6827  0.0899
  535MOL0     C72124   9.088   8.868   6.175  0.3513 -1.2191  0.1577
  535MOL0     C72125   9.191   8.776   6.159  0.2764 -0.1368 -0.2278
  535MOL0     O72126   9.315   8.829   6.143  0.3072 -0.0474 -0.5450
  535MOL0     C72127   9.425   8.737   6.164  0.1445  0.1749  0.5770
  535MOL0     C72128   9.552   8.815   6.147 -0.3101 -0.1217  0.1122
  535MOL0     C72129   9.566   8.935   6.245  0.1034  0.2083 -0.5307
  535MOL0     C72130   9.693   9.021   6.203 -0.3266  0.3318 -0.5552
  535MOL0     C72131   9.706   9.159   6.271 -0.2854  0.3320  0.3421
  535MOL0     C72132   9.824   9.230   6.218  0.0692  0.1156  0.0965
  535MOL0     C72133   9.789   9.383   6.203  0.4368  0.2175  0.5230
  535MOL0     C72134   9.908   9.473   6.190  0.0412 -0.3665  0.1918
  535MOL0    Cl72135   9.854   9.632   6.185  0.1661 -0.4364  0.3114
  535MOL0     C72136   9.155   8.641   6.155 -0.2398  0.0752 -0.2229
  535MOL0     C72137   9.023   8.598   6.166  0.1940  0.8952 -0.4535
  535MOL0     O72138   8.761   8.534   6.021 -0.1156  0.5181  0.0195
  535MOL0     C72139   8.536   8.575   6.318  0.4184  0.3685 -1.1663
  535MOL0     C72140   8.414   8.541   6.370 -0.4448  0.0092 -0.1070
  535MOL0     N72141   7.900   7.840   6.126  0.3506  0.3129  0.4961
  535MOL0     N72142   7.806   7.762   6.144  0.9405 -0.7311 -0.0745
  535MOL0     C72143   7.657   7.598   7.327 -1.3462 -0.4434  0.1989
  535MOL0     C72144   7.570   7.620   7.428  0.2073 -0.0131 -0.3788
  535MOL0     C72145   7.273   7.575   7.752  0.3108  0.0928  0.0715
  535MOL0     C72146   7.210   7.696   7.779  0.6212 -1.4663 -0.5961
  535MOL0     C72147   7.126   7.706   7.890  0.1041 -0.2666  0.0974
  535MOL0     C72148   7.113   7.594   7.977 -0.0239 -0.1133 -0.3633
  535MOL0     O72149   7.014   7.584   8.079 -0.0274 -0.4413 -0.4309
  535MOL0     C72150   6.967   7.702   8.144 -0.7126  0.3240 -0.5798
  535MOL0     C72151   6.860   7.686   8.238  0.1001 -0.0569 -0.7128
  535MOL0     C72152   6.882   7.582   8.346 -0.7433  0.2425 -0.4564
  535MOL0     C72153   6.980   7.623   8.451  0.0298  0.3640  0.1577
  535MOL0     C72154   6.950   7.744   8.534 -0.3558  0.2611  0.7512
  535MOL0     C72155   6.932   7.856   8.579  0.0918  0.1287 -0.3944
  535MOL0     C72156   7.178   7.480   7.947 -0.5982  1.1953  0.3090
  535MOL0     C72157   7.257   7.467   7.837  0.8413  1.0129  1.2867
  535MOL0     H72158   7.287   7.549   7.268 -0.3018 -0.7295  2.2994
  535MOL0     H72159   7.469   7.525   7.066  3.3417  2.7036  0.6780
  535MOL0     H72160   7.803   7.719   7.062  1.4983  0.6794  0.2662
  535MOL0     H72161   7.885   7.612   7.166 -0.9003 -1.2690  0.2327
  535MOL0     H72162   7.975   7.636   6.913  2.2063 -0.4222  3.1198
  535MOL0     H72163   7.964   7.483   6.988 -0.2622  0.1508  1.2637
  535MOL0     H72164   7.913   7.483   6.756  2.3088  0.4125  1.9614
  535MOL0     H72165   7.774   7.417   6.847  1.5103 -0.6983  0.1194
  535MOL0     H72166   7.670   7.644   6.819  3.1849  2.2803  2.9434
  535MOL0     H72167   7.810   7.694   6.731  1.3827  0.0558  4.6422
  535MOL0     H72168   7.760   7.462   6.588  2.1951  1.6355 -0.0694
  535MOL0     H72169   7.587   7.504   6.623  0.0771  2.3408  1.8527
  535MOL0     H72170   7.652   7.756   6.556  3.1405  2.8322 -2.2408
  535MOL0     H72171   7.791   7.688   6.488 -0.1522  1.0500 -1.1343
  535MOL0     H72172   7.668   7.547   6.332 -2.1574 -0.3042 -1.4908
  535MOL0     H72173   7.513   7.580   6.397 -0.4428 -0.9402 -2.1943
  535MOL0     H72174   7.546   7.832   6.344  0.6845  0.1435 -0.3788
  535MOL0     H72175   7.557   7.718   6.201  5.7421  0.6320 -4.1126
  535MOL0     H72176   7.779   7.966   6.397 -0.0499 -0.8287  0.0229
  535MOL0     H72177   8.069   8.025   6.314  1.0104  1.0939  0.1235
  535MOL0     H72178   8.043   8.063   6.143  0.5573 -0.4744  0.6168
  535MOL0     H72179   7.835   8.179   6.339 -0.3538  5.2400 -0.0864
  535MOL0     H72180   7.899   8.252   6.195 -3.0482 -0.1125  1.0951
  535MOL0     H72181   8.061   8.194   6.454 -2.9082 -0.7014  0.2641
  535MOL0     H72182   8.000   8.355   6.413 -0.2674  1.1171 -3.2273
  535MOL0     H72183   8.100   8.370   6.200 -0.0948  0.4556 -0.6076
  535MOL0     H72184   8.202   8.236   6.253 -2.2538 -1.8812  0.1984
  535MOL0     H72185   8.353   8.287   6.150  2.0414 -0.8627  1.0122
  535MOL0     H72186   8.664   8.283   6.054  1.9174  0.2928 -1.1505
  535MOL0     H72187   8.515   8.243   5.985  1.0587 -0.5077 -0.9335
  535MOL0     H72188   8.592   8.389   5.929 -0.0098 -0.6216  1.2069
  535MOL0     H72189   8.874   8.889   6.196 -2.9929 -4.5762  1.0100
  535MOL0     H72190   9.107   8.975   6.169 -2.1105 -0.8212 -2.9021
  535MOL0     H72191   9.416   8.687   6.261  0.9525 -0.5638  0.2817
  535MOL0     H72192   9.432   8.667   6.080  1.3954  2.1068 -1.0252
  535MOL0     H72193   9.638   8.750   6.164 -1.5074 -1.6304  0.5768
  535MOL0     H72194   9.555   8.848   6.043 -0.1894 -0.6581 -0.0545
  535MOL0     H72195   9.598   8.912   6.347 -2.9348  3.6664  1.4462
  535MOL0     H72196   9.478   9.000   6.244 -0.7655 -0.9169  0.4382
  535MOL0     H72197   9.780   8.955   6.198 -0.5797 -0.0674  0.1496
  535MOL0     H72198   9.678   9.056   6.100  0.0275  1.7640 -0.1346
  535MOL0     H72199   9.718   9.151   6.379 -0.3291 -2.9599  0.2096
  535MOL0     H72200   9.618   9.216   6.240  1.2144  0.7159 -3.7485
  535MOL0     H72201   9.910   9.225   6.285  2.7997 -2.4403 -3.2531
  535MOL0     H72202   9.850   9.184   6.123  0.2757  0.6428 -0.1068
  535MOL0     H72203   9.739   9.412   6.295 -1.2497 -0.8508 -0.0049
  535MOL0     H72204   9.718   9.392   6.120 -0.8295 -1.0131  1.4306
  535MOL0     H72205   9.951   9.454   6.092 -3.9005 -1.1134 -1.6226
  535MOL0     H72206   9.975   9.451   6.273 -0.2919 -0.8581  0.3386
  535MOL0     H72207   9.232   8.568   6.133  1.0305  1.0363  0.8934
  535MOL0     H72208   9.002   8.493   6.150 -0.1722  0.7479  0.8418
  535MOL0     H72209   8.591   8.648   6.376  2.2542 -2.8590  1.4977
  535MOL0     H72210   8.373   8.592   6.456 -0.2805 -0.9425  0.5565
  535MOL0     H72211   7.759   7.622   7.355 -1.4176  2.1061 -1.3820
  535MOL0     H72212   7.611   7.632   7.528 -2.7444 -1.0209  1.0533
  535MOL0     H72213   7.227   7.782   7.716  0.3447 -1.0212 -0.0718
  535MOL0     H72214   7.082   7.805   7.903 -2.2492 -1.2815  0.5263
  535MOL0     H72215   7.046   7.758   8.195 -1.7586  0.1781  1.2768
  535MOL0     H72216   6.928   7.777   8.075  1.5317  4.0850  1.9083
  535MOL0     H72217   6.772   7.655   8.180 -0.0920 -0.1256 -0.3893
  535MOL0     H72218   6.841   7.789   8.271  0.1855 -0.5169  0.8751
  535MOL0     H72219   6.911   7.487   8.300 -2.9915 -0.4286 -0.6089
  535MOL0     H72220   6.788   7.560   8.396  0.2384 -3.6885 -0.0160
  535MOL0     H72221   7.079   7.639   8.407 -1.2301 -1.0308 -3.5072
  535MOL0     H72222   6.978   7.532   8.511 -2.7485  0.4842  0.3735
  535MOL0     H72223   6.905   7.948   8.627 -2.5532 -0.5923 -0.2994
  535MOL0     H72224   7.164   7.389   8.003  1.7207 -0.8297 -2.0975
  535MOL0     H72225   7.306   7.372   7.816 -1.0773  0.1709  0.3067
  536MOL0     O72226   2.493   5.257   8.885  0.2785 -0.3272  0.2279
  536MOL0     C72227   2.462   5.357   8.953  0.6579 -0.0088  0.8963
  536MOL0     O72228   2.454   5.359   9.089 -0.0448  0.6863 -0.2233
  536MOL0     C72229   2.474   5.240   9.161  0.6270  0.9782 -1.1567
  536MOL0     C72230   2.394   5.209   9.273  0.4126 -0.8502  1.1349
  536MOL0     C72231   2.411   5.089   9.345 -0.2734 -0.5225 -0.1096
  536MOL0     C72232   2.515   4.995   9.318 -0.6397  0.0755 -0.7268
  536MOL0     O72233   2.536   4.882   9.391 -0.4586 -0.0352 -0.0586
  536MOL0     C72234   2.505   4.901   9.542  0.2115 -0.5557  0.2567
  536MOL0     C72235   2.597   4.833   9.640 -1.1668  1.2235 -0.6324
  536MOL0     C72236   2.622   4.680   9.619 -1.0741 -0.0985  0.8400
  536MOL0     C72237   2.492   4.603   9.624  0.4764 -1.0713 -0.4422
  536MOL0     C72238   2.507   4.451   9.621 -0.2597 -0.6295  0.4088
  536MOL0     C72239   2.373   4.376   9.592  0.5064 -0.5251  0.8178
  536MOL0     C72240   2.283   4.329   9.709 -0.6078 -0.6188 -0.4658
  536MOL0     C72241   2.149   4.266   9.654  0.8572 -0.5381 -0.7451
  536MOL0     N72242   2.185   4.147   9.581  0.2339 -0.1584 -0.5391
  536MOL0     C72243   2.202   4.021   9.635 -0.5189  0.4203 -0.8337
  536MOL0     C72244   2.242   3.945   9.525  0.2024 -0.7798  0.1002
  536MOL0     C72245   2.266   3.804   9.508  0.0071  0.1285 -0.3263
  536MOL0     C72246   2.407   3.744   9.573 -0.7831  0.0935 -0.5040
  536MOL0     C72247   2.401   3.608   9.646  0.2691 -0.5446  0.0385
  536MOL0     C72248   2.318   3.498   9.562  0.0583  0.2062  0.3037
  536MOL0     O72249   2.379   3.471   9.443  0.1231 -0.8608  0.6820
  536MOL0     C72250   2.299   3.393   9.375  0.3658  0.5002  0.1685
  536MOL0     C72251   2.266   3.257   9.405 -0.6990 -0.6997 -0.4232
  536MOL0     C72252   2.193   3.175   9.322 -0.1587 -0.5895  0.8833
  536MOL0     C72253   2.159   3.036   9.353 -0.6847 -1.6577  0.1922
  536MOL0     C72254   2.151   3.234   9.196  0.1108  0.0740 -0.7467
  536MOL0     C72255   2.068   3.159   9.099 -0.9006 -0.2358 -0.2648
  536MOL0     O72256   2.053   3.221   8.976 -0.6924 -0.4794 -0.1777
  536MOL0     C72257   2.014   3.159   8.863  0.9593 -0.5359  0.4194
  536MOL0     C72258   2.068   3.039   8.817  0.1655  0.1794 -0.4512
  536MOL0     C72259   2.033   2.990   8.694  0.2066  0.0202 -0.1293
  536MOL0     C72260   1.930   3.045   8.614 -0.3080 -0.5647  0.3677
  536MOL0     O72261   1.890   3.016   8.487 -0.2761 -0.9278 -0.1229
  536MOL0     C72262   1.981   2.941   8.399 -0.3773 -1.3463  0.1574
  536MOL0     C72263   1.940   2.962   8.254 -0.2601  0.0409 -0.2780
  536MOL0     C72264   1.787   2.926   8.216 -0.3881  0.5304  0.1137
  536MOL0     C72265   1.750   2.775   8.208  0.4256 -0.5416 -0.3885
  536MOL0     C72266   1.609   2.764   8.151  0.8500 -0.4013  0.7905
  536MOL0     C72267   1.554   2.618   8.167 -0.3211 -0.3077 -0.0887
  536MOL0     C72268   1.616   2.523   8.058  0.8961  0.5461  0.1047
  536MOL0     C72269   1.572   2.374   8.072 -0.8091  0.2347  0.7114
  536MOL0    Cl72270   1.659   2.309   8.222 -0.3377  0.0056  0.0957
  536MOL0     C72271   1.867   3.155   8.673  0.5090 -0.2889  0.8544
  536MOL0     C72272   1.904   3.213   8.790 -0.7885 -0.3317 -0.0290
  536MOL0     O72273   2.025   3.050   9.125  0.1763  0.2291 -0.0541
  536MOL0     C72274   2.177   3.368   9.168 -0.0297  0.1031 -0.2942
  536MOL0     C72275   2.253   3.445   9.258  0.3897  0.5808  0.3904
  536MOL0     N72276   2.230   4.028   9.413 -0.9717 -0.0214 -0.3237
  536MOL0     N72277   2.197   4.142   9.444  0.2436  0.3084 -0.2437
  536MOL0     C72278   2.597   5.027   9.212 -0.1799 -0.4839  0.2789
  536MOL0     C72279   2.580   5.151   9.140 -0.5842  0.2102  0.6337
  536MOL0     C72280   2.423   5.478   8.871  0.1522 -0.5756  0.0548
  536MOL0     C72281   2.358   5.584   8.939 -0.3879 -1.1803  0.3254
  536MOL0     C72282   2.318   5.700   8.865 -0.0436  0.4818  0.2884
  536MOL0     C72283   2.358   5.719   8.731  0.4847  0.2187 -0.3711
  536MOL0     O72284   2.335   5.834   8.667 -0.6957 -0.7379 -0.6909
  536MOL0     C72285   2.351   5.853   8.527 -0.0120  0.0803 -0.6059
  536MOL0     C72286   2.287   5.982   8.491 -0.7896 -0.5267 -0.3378
  536MOL0     C72287   2.367   6.104   8.553  0.1495  0.0075 -0.2152
  536MOL0     C72288   2.353   6.239   8.486  0.1444  0.3760  0.9844
  536MOL0     C72289   2.215   6.282   8.460 -0.2247  0.2486  0.6111
  536MOL0     C72290   2.115   6.340   8.429  0.4931 -0.2960  0.7486
  536MOL0     C72291   2.437   5.622   8.670 -0.3550  0.3069 -1.0147
  536MOL0     C72292   2.463   5.499   8.740 -1.0683 -0.3332 -0.1915
  536MOL0     H72293   2.329   5.288   9.310  2.6601  1.5434  0.3493
  536MOL0     H72294   2.339   5.071   9.424 -0.4367  0.1240 -0.0974
  536MOL0     H72295   2.518   5.008   9.564 -0.0962  0.1887 -2.7453
  536MOL0     H72296   2.398   4.891   9.562  0.3832 -1.3846  0.7949
  536MOL0     H72297   2.697   4.873   9.628  0.9650 -3.2521  0.0120
  536MOL0     H72298   2.549   4.856   9.736  0.9447  2.2966  0.2222
  536MOL0     H72299   2.662   4.660   9.519 -0.6270  1.4704  0.6688
  536MOL0     H72300   2.691   4.639   9.693  0.1503  2.2644  1.1006
  536MOL0     H72301   2.445   4.638   9.717  0.6486 -0.5733 -0.5392
  536MOL0     H72302   2.431   4.641   9.541 -1.3648  1.8930  2.0468
  536MOL0     H72303   2.567   4.441   9.530 -3.3235 -2.4086 -1.5987
  536MOL0     H72304   2.566   4.427   9.710 -0.0302 -0.2354  0.3666
  536MOL0     H72305   2.312   4.443   9.531  2.1588  1.7893  1.6069
  536MOL0     H72306   2.397   4.288   9.531 -0.6138  0.8678 -1.7832
  536MOL0     H72307   2.332   4.253   9.770  0.4038 -1.9888 -2.8184
  536MOL0     H72308   2.251   4.421   9.758 -2.4647 -0.1017 -2.4518
  536MOL0     H72309   2.092   4.329   9.586 -0.1178  1.4925  1.8035
  536MOL0     H72310   2.083   4.245   9.738 -0.5718 -3.2910 -2.4070
  536MOL0     H72311   2.198   3.988   9.739  1.3529  1.8308 -0.2651
  536MOL0     H72312   2.190   3.748   9.563  1.0691  0.3521  1.4777
  536MOL0     H72313   2.255   3.779   9.403 -2.4878  0.9016 -0.2998
  536MOL0     H72314   2.434   3.805   9.659 -0.7067 -0.4814 -0.1142
  536MOL0     H72315   2.484   3.748   9.495 -1.9420  1.6780 -1.6457
  536MOL0     H72316   2.353   3.616   9.744 -3.5352 -1.2790 -1.6022
  536MOL0     H72317   2.496   3.556   9.660 -0.1138 -1.2119  0.2020
  536MOL0     H72318   2.217   3.538   9.542  0.2832  0.1151 -1.1475
  536MOL0     H72319   2.319   3.411   9.627  1.0125  0.9282  1.2875
  536MOL0     H72320   2.297   3.222   9.503  2.5537 -1.4295 -1.5839
  536MOL0     H72321   2.220   3.008   9.440  1.3980  0.7145 -0.3945
  536MOL0     H72322   2.051   3.023   9.363 -2.0516  2.9125 -4.6496
  536MOL0     H72323   2.189   2.968   9.273 -3.5404 -0.4136 -2.1200
  536MOL0     H72324   2.145   2.987   8.875 -1.8509 -3.6413 -0.8934
  536MOL0     H72325   2.097   2.913   8.652  2.2741  1.0003  1.0640
  536MOL0     H72326   2.076   2.991   8.421 -0.3900 -0.8700 -0.8189
  536MOL0     H72327   1.977   2.837   8.433  0.4108 -1.7298 -0.8680
  536MOL0     H72328   1.953   3.070   8.243  1.2206  0.6590  4.8833
  536MOL0     H72329   2.006   2.917   8.179 -1.7201  2.0860 -2.9897
  536MOL0     H72330   1.790   2.975   8.118  2.1078 -0.6840 -0.4998
  536MOL0     H72331   1.720   2.977   8.285 -0.2760 -0.0160  0.6340
  536MOL0     H72332   1.823   2.721   8.146 -0.8814 -1.2340 -1.3809
  536MOL0     H72333   1.767   2.739   8.309  2.8003  3.7433  1.0429
  536MOL0     H72334   1.613   2.798   8.047 -0.8174  0.1260  0.8698
  536MOL0     H72335   1.545   2.843   8.192 -0.5384  0.6569 -2.9586
  536MOL0     H72336   1.580   2.577   8.265  1.3884  0.8818 -0.0052
  536MOL0     H72337   1.447   2.617   8.143  0.2386  0.7229 -3.0425
  536MOL0     H72338   1.725   2.529   8.059  0.9125  0.2760  0.3253
  536MOL0     H72339   1.585   2.555   7.958  0.3071 -0.1659  0.0503
  536MOL0     H72340   1.611   2.318   7.986 -1.1416  0.6128  0.3135
  536MOL0     H72341   1.463   2.363   8.080 -0.6424 -1.9581  0.6766
  536MOL0     H72342   1.794   3.213   8.617  1.9236  0.5155 -0.2046
  536MOL0     H72343   1.866   3.302   8.838 -0.4148 -0.7101  0.9980
  536MOL0     H72344   2.136   3.415   9.079  2.0922 -0.0178 -1.3940
  536MOL0     H72345   2.283   3.548   9.241 -0.2944  0.6404 -0.5382
  536MOL0     H72346   2.675   4.957   9.181  0.0698  0.1729 -0.6162
  536MOL0     H72347   2.654   5.176   9.063 -3.6314  3.4841 -1.5231
  536MOL0     H72348   2.329   5.563   9.041 -1.8383 -2.5216 -0.3146
  536MOL0     H72349   2.242   5.763   8.910  0.6449 -0.4393  2.9594
  536MOL0     H72350   2.456   5.842   8.500 -0.2401 -1.3030 -0.9988
  536MOL0     H72351   2.296   5.770   8.483  0.1705 -0.3092 -0.1203
  536MOL0     H72352   2.184   5.997   8.523 -0.2545 -0.0976  1.2593
  536MOL0     H72353   2.291   5.993   8.382  1.0029  2.0686 -0.1149
  536MOL0     H72354   2.472   6.073   8.552 -0.0746 -1.2362  3.2265
  536MOL0     H72355   2.330   6.119   8.654 -2.4317  0.2188 -1.1080
  536MOL0     H72356   2.408   6.243   8.391  3.4541  4.0579  2.7794
  536MOL0     H72357   2.406   6.310   8.550 -0.5132  2.4694 -0.6631
  536MOL0     H72358   2.035   6.404   8.399  1.7463 -0.2425 -2.9824
  536MOL0     H72359   2.491   5.631   8.577  0.3018  0.4985 -0.6243
  536MOL0     H72360   2.526   5.422   8.698 -0.2917 -0.8421  1.8377
  537MOL0     O72361   3.114   6.213   7.029 -0.5203  0.7718 -0.6479
  537MOL0     C72362   3.183   6.239   6.928 -0.5434 -0.3342  0.2221
  537MOL0     O72363   3.305   6.212   6.900 -0.1696  0.0770 -0.1611
  537MOL0     C72364   3.404   6.193   6.993  0.2965  0.2531 -0.4194
  537MOL0     C72365   3.388   6.223   7.128  0.2102 -0.2042  0.3224
  537MOL0     C72366   3.499   6.247   7.211  0.4803 -0.0223  0.0182
  537MOL0     C72367   3.623   6.207   7.170 -1.0541  0.0233 -0.1184
  537MOL0     O72368   3.734   6.199   7.250 -0.2150  0.5501  0.5782
  537MOL0     C72369   3.721   6.169   7.390  0.1661 -0.0599  0.5118
  537MOL0     C72370   3.835   6.084   7.437  0.4281 -0.0972 -0.2055
  537MOL0     C72371   3.829   5.935   7.390  0.1960  0.2413 -0.2768
  537MOL0     C72372   3.855   5.842   7.512  0.3660 -0.1520 -0.2483
  537MOL0     C72373   3.864   5.703   7.472  0.4373  0.0799 -0.4099
  537MOL0     C72374   3.730   5.634   7.413 -0.5602 -0.6232  0.2059
  537MOL0     C72375   3.758   5.494   7.367  0.0796 -0.1045  0.4037
  537MOL0     C72376   3.633   5.414   7.321  0.1164  0.0458  0.0257
  537MOL0     N72377   3.659   5.285   7.259 -0.1020  0.8984  0.2947
  537MOL0     C72378   3.710   5.181   7.323  0.2134 -0.0492  0.8644
  537MOL0     C72379   3.748   5.098   7.224  0.1733  0.1642 -0.2126
  537MOL0     C72380   3.812   4.957   7.251  0.5048  0.2635  0.5184
  537MOL0     C72381   3.719   4.837   7.209  0.2919  0.5556  0.5064
  537MOL0     C72382   3.749   4.786   7.062 -0.6577 -0.0163  0.0630
  537MOL0     C72383   3.644   4.677   7.031  0.4263  1.3392 -0.0207
  537MOL0     O72384   3.714   4.562   6.990 -0.3455  0.1418  0.4957
  537MOL0     C72385   3.689   4.478   6.881  0.1803 -0.1007 -0.3315
  537MOL0     C72386   3.748   4.353   6.869 -0.8166 -0.5628  0.5605
  537MOL0     C72387   3.736   4.276   6.753 -0.3493  0.4190 -0.8465
  537MOL0     C72388   3.822   4.154   6.736  0.3916  0.0350  0.8258
  537MOL0     C72389   3.642   4.316   6.654 -0.7764 -0.7461 -0.2901
  537MOL0     C72390   3.634   4.235   6.520 -0.3553  0.0429  0.0774
  537MOL0     O72391   3.601   4.101   6.523  0.1623  0.4825 -0.4329
  537MOL0     C72392   3.544   4.029   6.424  0.6110 -1.2228  0.4850
  537MOL0     C72393   3.582   3.899   6.418  0.4950 -0.0130 -1.1325
  537MOL0     C72394   3.530   3.810   6.317 -0.7312 -1.0201  0.3716
  537MOL0     C72395   3.426   3.857   6.236 -0.1123 -0.0645  0.2342
  537MOL0     O72396   3.383   3.766   6.140 -0.0051  0.0445 -0.2721
  537MOL0     C72397   3.249   3.778   6.077  0.0186  0.6440 -0.6856
  537MOL0     C72398   3.195   3.630   6.115 -0.2863 -0.5323 -0.4949
  537MOL0     C72399   3.061   3.612   6.060 -0.5374  0.0848  0.5972
  537MOL0     C72400   2.962   3.519   6.135  0.3718  0.6352 -0.0163
  537MOL0     C72401   2.988   3.373   6.101  0.5856  0.5272  0.8165
  537MOL0     C72402   3.110   3.316   6.163 -0.5191 -0.9422 -0.8516
  537MOL0     C72403   3.107   3.158   6.171  0.1245  0.1558  0.8960
  537MOL0     C72404   3.080   3.066   6.050 -0.2638 -0.6894 -0.9637
  537MOL0    Cl72405   3.214   3.100   5.929 -0.0327 -0.4278 -0.3863
  537MOL0     C72406   3.389   3.989   6.245 -0.4897  0.1030  0.2628
  537MOL0     C72407   3.439   4.074   6.345 -0.1621 -1.1276 -0.3069
  537MOL0     O72408   3.656   4.292   6.415  0.6471  0.7569  0.5726
  537MOL0     C72409   3.566   4.433   6.676 -0.0565 -0.2413  0.4284
  537MOL0     C72410   3.589   4.518   6.782  0.2482  0.7873 -1.1606
  537MOL0     N72411   3.726   5.148   7.097 -0.7104 -0.5922  0.7214
  537MOL0     N72412   3.673   5.262   7.124 -0.0631  0.3400 -0.3357
  537MOL0     C72413   3.643   6.174   7.037  0.8480 -0.5926  0.6860
  537MOL0     C72414   3.532   6.159   6.948  0.5219 -0.1135 -0.0953
  537MOL0     C72415   3.095   6.305   6.818 -0.9571  0.1628 -0.7114
  537MOL0     C72416   3.161   6.379   6.719 -0.1627 -0.8613 -0.3958
  537MOL0     C72417   3.090   6.428   6.608 -0.7267  0.4197 -0.0377
  537MOL0     C72418   2.944   6.420   6.598 -0.6285  0.3942  0.0655
  537MOL0     O72419   2.897   6.474   6.486 -0.1250  0.2285  0.8836
  537MOL0     C72420   2.772   6.436   6.443 -0.5371 -0.2427 -0.2194
  537MOL0     C72421   2.776   6.452   6.295  1.1575 -0.3526 -0.3098
  537MOL0     C72422   2.877   6.356   6.226 -0.5855 -0.1427 -0.5792
  537MOL0     C72423   2.806   6.295   6.093  0.1139 -1.0594 -0.2998
  537MOL0     C72424   2.919   6.264   5.995  0.4858  0.1409 -0.1437
  537MOL0     C72425   3.007   6.237   5.919  0.5481 -0.9854 -1.1121
  537MOL0     C72426   2.887   6.358   6.714 -0.6681  0.6009  0.7533
  537MOL0     C72427   2.958   6.292   6.816 -0.0094  0.1118  0.5550
  537MOL0     H72428   3.293   6.259   7.166 -0.7366 -0.2753 -1.7890
  537MOL0     H72429   3.475   6.284   7.310 -1.1794 -4.1052  1.3590
  537MOL0     H72430   3.718   6.265   7.443 -2.8330  0.0298  0.3353
  537MOL0     H72431   3.627   6.118   7.412 -0.5021  1.4424  1.3081
  537MOL0     H72432   3.932   6.125   7.407 -0.0368  0.0620 -1.5385
  537MOL0     H72433   3.819   6.088   7.545  0.2456 -1.6747 -0.1513
  537MOL0     H72434   3.728   5.906   7.357 -0.3428 -1.4476  2.5264
  537MOL0     H72435   3.903   5.919   7.311  2.8967 -0.3678  2.2316
  537MOL0     H72436   3.950   5.866   7.562 -0.1530  0.8546  0.2801
  537MOL0     H72437   3.774   5.851   7.585  0.5737  2.9619 -0.2699
  537MOL0     H72438   3.945   5.696   7.399  0.8349 -1.5800  0.1380
  537MOL0     H72439   3.905   5.650   7.558  1.6000  1.1794 -0.2482
  537MOL0     H72440   3.652   5.630   7.490 -0.3185  1.2656  0.5892
  537MOL0     H72441   3.693   5.691   7.327 -2.5473 -1.9017  0.1346
  537MOL0     H72442   3.840   5.494   7.295 -0.0346  1.1373  0.2471
  537MOL0     H72443   3.805   5.450   7.455  4.5652  2.3688 -0.4228
  537MOL0     H72444   3.591   5.480   7.244  0.4349  0.4873  0.2285
  537MOL0     H72445   3.563   5.404   7.404 -0.2102  3.3443  0.2804
  537MOL0     H72446   3.712   5.147   7.427 -0.4818 -2.0308  0.2735
  537MOL0     H72447   3.906   4.955   7.194  1.4773  4.5587  1.6250
  537MOL0     H72448   3.833   4.956   7.358 -3.1319  0.8731  1.3511
  537MOL0     H72449   3.614   4.858   7.227  0.9250  3.6748  1.2198
  537MOL0     H72450   3.732   4.749   7.272 -2.1018 -1.3098 -1.4184
  537MOL0     H72451   3.850   4.746   7.069 -0.1556  1.3078  0.7607
  537MOL0     H72452   3.743   4.865   6.987 -4.3550  1.1766  1.3517
  537MOL0     H72453   3.575   4.708   6.951 -2.3881 -2.3980  0.6875
  537MOL0     H72454   3.586   4.645   7.118  2.6243 -1.0195  0.6919
  537MOL0     H72455   3.810   4.337   6.956  2.7798  0.1845 -1.6683
  537MOL0     H72456   3.853   4.102   6.827  3.4270 -0.3416 -0.3083
  537MOL0     H72457   3.774   4.072   6.683  0.7773  0.0298  0.4859
  537MOL0     H72458   3.915   4.185   6.688  0.8248 -0.6985  1.1808
  537MOL0     H72459   3.652   3.863   6.493 -1.9578  0.6559  1.6675
  537MOL0     H72460   3.566   3.711   6.292 -0.5261 -0.1852 -3.2743
  537MOL0     H72461   3.191   3.855   6.129 -1.4151 -0.2075 -0.9848
  537MOL0     H72462   3.246   3.795   5.969 -1.6603 -0.3870 -0.8420
  537MOL0     H72463   3.260   3.547   6.086 -1.3205 -2.0057  1.2559
  537MOL0     H72464   3.183   3.621   6.223  2.5417  1.3352  0.0763
  537MOL0     H72465   3.076   3.570   5.961  4.0752 -0.1232  1.1417
  537MOL0     H72466   3.018   3.712   6.062  1.1766  0.8575  0.9812
  537MOL0     H72467   2.977   3.542   6.241 -0.3939 -0.5057  0.3621
  537MOL0     H72468   2.855   3.541   6.122 -0.7308 -2.6260  2.1728
  537MOL0     H72469   3.003   3.352   5.994  2.2029  2.2466  0.6565
  537MOL0     H72470   2.903   3.312   6.134 -0.1186 -0.0943 -1.8394
  537MOL0     H72471   3.196   3.351   6.104  0.4738 -0.5872  0.7659
  537MOL0     H72472   3.128   3.349   6.265  1.2378 -2.3848 -0.6513
  537MOL0     H72473   3.032   3.135   6.247  1.4153  0.8739  2.4405
  537MOL0     H72474   3.205   3.125   6.207  0.5914  0.2064 -0.2708
  537MOL0     H72475   2.981   3.096   6.014 -0.0371 -1.6109 -2.4663
  537MOL0     H72476   3.087   2.963   6.089 -0.7213 -0.8403 -1.2714
  537MOL0     H72477   3.305   4.025   6.185 -1.8616 -0.4955  1.7334
  537MOL0     H72478   3.404   4.176   6.359 -1.9763 -2.1180  3.9673
  537MOL0     H72479   3.503   4.481   6.601 -2.5311 -0.4923  2.2268
  537MOL0     H72480   3.527   4.606   6.795 -2.5772 -1.3465  1.1166
  537MOL0     H72481   3.737   6.138   6.996 -0.6956 -4.8214  0.3592
  537MOL0     H72482   3.540   6.130   6.844  2.0788 -2.6505  0.6325
  537MOL0     H72483   3.268   6.393   6.730 -0.2838 -0.8719  1.0574
  537MOL0     H72484   3.142   6.484   6.532  5.0511 -3.8782  0.1071
  537MOL0     H72485   2.740   6.335   6.470 -5.4145  1.5348  1.8272
  537MOL0     H72486   2.693   6.497   6.488 -1.1327 -1.3527  0.3045
  537MOL0     H72487   2.776   6.556   6.261 -1.5627  0.7766  2.6475
  537MOL0     H72488   2.678   6.421   6.258  1.3755 -1.3747 -0.0541
  537MOL0     H72489   2.900   6.270   6.290  2.2420  1.1583  0.3014
  537MOL0     H72490   2.975   6.403   6.209 -1.0831  1.3732  0.5543
  537MOL0     H72491   2.740   6.370   6.049 -0.8665 -2.5266 -1.4073
  537MOL0     H72492   2.750   6.209   6.131  2.4155 -1.4558  2.4904
  537MOL0     H72493   3.077   6.224   5.839 -1.4757  0.2459 -3.2031
  537MOL0     H72494   2.779   6.345   6.702 -0.2858 -0.2956 -6.6627
  537MOL0     H72495   2.898   6.238   6.889  0.7485 -2.6642 -0.7514
  538MOL0     O72496  10.884   6.574   2.688  0.6930 -0.3745  0.5271
  538MOL0     C72497  10.857   6.692   2.670  0.6107  0.1262 -0.3336
  538MOL0     O72498  10.765   6.731   2.572 -0.0566 -0.5786 -0.0478
  538MOL0     C72499  10.708   6.634   2.487 -0.8916  0.0189 -0.4211
  538MOL0     C72500  10.628   6.524   2.533 -0.2001  0.3063  0.3935
  538MOL0     C72501  10.578   6.446   2.435 -0.0564  0.7470 -0.4871
  538MOL0     C72502  10.612   6.455   2.294  1.5152  0.2382  0.1349
  538MOL0     O72503  10.565   6.370   2.202  0.0728 -0.2327  0.5997
  538MOL0     C72504  10.644   6.255   2.195 -0.9696 -0.4695 -0.1155
  538MOL0     C72505  10.563   6.129   2.237 -0.2291 -0.2813 -0.2844
  538MOL0     C72506  10.431   6.122   2.174  0.7727 -0.0261  0.5092
  538MOL0     C72507  10.403   5.975   2.139 -0.5746  0.0277 -0.7198
  538MOL0     C72508  10.257   5.946   2.120  0.2495  0.2516 -0.0427
  538MOL0     C72509  10.202   6.027   2.001 -0.1724  0.5638 -0.9129
  538MOL0     C72510  10.259   5.966   1.872 -0.5949 -0.3002 -0.6249
  538MOL0     C72511  10.183   6.038   1.753 -0.6263  0.1612 -0.3778
  538MOL0     N72512  10.212   5.965   1.630 -0.0109  0.3374 -0.2918
  538MOL0     C72513  10.335   5.977   1.569  0.3132  0.0200 -0.2813
  538MOL0     C72514  10.331   5.884   1.465  0.6691  0.6917 -0.5247
  538MOL0     C72515  10.436   5.830   1.375 -0.0268  0.6834 -0.0335
  538MOL0     C72516  10.467   5.929   1.258 -0.0394 -0.0333  0.5376
  538MOL0     C72517  10.544   5.860   1.143 -0.2687  0.8178 -1.0245
  538MOL0     C72518  10.547   5.928   1.005 -0.4550  0.3517 -0.6325
  538MOL0     O72519  10.420   5.976   0.950  0.2663  0.3290 -0.1329
  538MOL0     C72520  10.420   6.084   0.861  0.6075 -0.3178  1.0713
  538MOL0     C72521  10.306   6.164   0.853  0.1705 -0.5618  0.2752
  538MOL0     C72522  10.293   6.264   0.749  0.8322 -0.1312 -0.7520
  538MOL0     C72523  10.163   6.350   0.742 -0.0791 -0.1051 -0.7010
  538MOL0     C72524  10.406   6.303   0.670 -0.0704 -1.1578  0.0930
  538MOL0     C72525  10.414   6.418   0.577  0.2665  0.3704  0.5202
  538MOL0     O72526  10.537   6.469   0.575 -0.4056 -0.8935 -0.6900
  538MOL0     C72527  10.564   6.565   0.482  0.0056  1.4204 -1.0347
  538MOL0     C72528  10.591   6.697   0.525 -0.0487 -0.5943 -0.6666
  538MOL0     C72529  10.650   6.794   0.433 -0.4425  0.2819 -0.0031
  538MOL0     C72530  10.646   6.770   0.291 -0.3663 -0.4570 -0.5336
  538MOL0     O72531  10.673   6.867   0.197  0.3169  0.3821 -0.1833
  538MOL0     C72532  10.732   6.991   0.228 -0.4812  0.2053  0.1222
  538MOL0     C72533  10.788   7.050   0.092  0.3143  0.2339  0.0541
  538MOL0     C72534  10.807   7.200   0.070  1.7309  1.1118  0.4806
  538MOL0     C72535  10.669   7.261   0.051 -0.0547 -0.2607  0.8690
  538MOL0     C72536  10.695   7.416   0.027 -0.0514  0.3234 -0.4118
  538MOL0     C72537  10.570   7.485   0.074  0.6923 -0.2211 -0.8762
  538MOL0     C72538  10.596   7.638   0.098  0.3317 -0.3226 -0.3539
  538MOL0     C72539  10.482   7.720   0.047 -0.4121 -0.3329  0.2518
  538MOL0    Cl72540  10.341   7.659   0.130 -0.0230  0.0903 -0.3223
  538MOL0     C72541  10.600   6.641   0.246 -0.0991  0.4227 -0.6948
  538MOL0     C72542  10.566   6.541   0.346  0.0194  0.2178 -0.0269
  538MOL0     O72543  10.321   6.447   0.509  0.3447  0.3433  0.5908
  538MOL0     C72544  10.520   6.232   0.695 -0.7456 -0.0974 -0.0303
  538MOL0     C72545  10.534   6.116   0.780  0.2684 -0.2446 -1.0169
  538MOL0     N72546  10.207   5.821   1.474  0.4156 -0.1384  0.6923
  538MOL0     N72547  10.141   5.867   1.573 -0.5164 -0.2951 -0.6100
  538MOL0     C72548  10.693   6.558   2.255 -1.0615 -0.5129  0.5266
  538MOL0     C72549  10.742   6.652   2.357  0.4630  0.9055  0.2245
  538MOL0     C72550  10.900   6.792   2.763 -0.2563 -0.3576  0.6516
  538MOL0     C72551  10.852   6.925   2.770  0.6249 -0.2109  0.6320
  538MOL0     C72552  10.901   7.027   2.857  0.9324  0.5510  0.0219
  538MOL0     C72553  11.019   6.993   2.933 -0.2872 -0.0991  0.6630
  538MOL0     O72554  11.066   7.065   3.040  0.7303 -0.0824 -0.3995
  538MOL0     C72555  11.015   7.032   3.172  0.4175  0.4962 -0.0608
  538MOL0     C72556  10.981   7.151   3.252 -0.9427 -0.1758  0.4320
  538MOL0     C72557  11.108   7.222   3.290  0.0279 -0.0077 -0.2036
  538MOL0     C72558  11.096   7.335   3.400 -0.4897  0.7294  1.0330
  538MOL0     C72559  10.985   7.426   3.366  0.4818  0.5279 -0.3910
  538MOL0     C72560  10.910   7.518   3.333 -0.2525  0.8473  0.0211
  538MOL0     C72561  11.088   6.872   2.897  0.3636 -0.2028 -0.7548
  538MOL0     C72562  11.016   6.769   2.832 -0.3609  0.3519 -0.4065
  538MOL0     H72563  10.593   6.512   2.635 -4.5770 -4.1484 -1.2433
  538MOL0     H72564  10.501   6.377   2.468  1.9212  0.6039  4.6846
  538MOL0     H72565  10.671   6.237   2.091  0.0844 -3.5085  0.5821
  538MOL0     H72566  10.740   6.264   2.247 -0.5637  3.6831 -1.2812
  538MOL0     H72567  10.622   6.038   2.221  1.9456  0.7138  1.4499
  538MOL0     H72568  10.553   6.140   2.345 -2.0019  0.9099 -0.5472
  538MOL0     H72569  10.347   6.143   2.241  0.1934 -0.3148 -0.1142
  538MOL0     H72570  10.432   6.194   2.092  2.2838  0.4741  0.9476
  538MOL0     H72571  10.465   5.946   2.054  0.5276  3.2718 -1.1798
  538MOL0     H72572  10.429   5.914   2.225 -0.2676  2.1790  0.7793
  538MOL0     H72573  10.236   5.840   2.104 -2.3691  0.7500 -0.2919
  538MOL0     H72574  10.208   5.986   2.208  0.6240 -0.1339  0.3501
  538MOL0     H72575  10.095   6.013   2.016  0.2173  0.6217  3.3072
  538MOL0     H72576  10.224   6.133   2.018 -1.7143  0.4780  2.3389
  538MOL0     H72577  10.366   5.973   1.852 -0.1080 -0.3548  1.6646
  538MOL0     H72578  10.242   5.858   1.868 -0.5567 -0.3282 -0.1263
  538MOL0     H72579  10.215   6.142   1.740  1.8646  0.1777  4.0717
  538MOL0     H72580  10.076   6.048   1.778 -0.1005  1.0877  1.7714
  538MOL0     H72581  10.415   6.036   1.612  0.4127 -1.7668  2.2273
  538MOL0     H72582  10.533   5.825   1.426  0.6492  3.7093 -0.8157
  538MOL0     H72583  10.407   5.736   1.327  0.2622  1.8361 -2.5847
  538MOL0     H72584  10.522   6.016   1.295 -0.0479 -0.2182  0.9900
  538MOL0     H72585  10.370   5.965   1.222  0.6586  1.1440 -0.2515
  538MOL0     H72586  10.486   5.769   1.130 -4.1912  2.4130  2.7846
  538MOL0     H72587  10.650   5.843   1.164 -0.0658  2.1700 -0.8478
  538MOL0     H72588  10.583   5.855   0.933  2.0930 -0.0261  0.9105
  538MOL0     H72589  10.620   6.008   1.010 -1.6449  1.4971 -0.9692
  538MOL0     H72590  10.217   6.146   0.912  1.6725  0.1611  2.9084
  538MOL0     H72591  10.120   6.333   0.643 -1.9680  4.2980 -0.8827
  538MOL0     H72592  10.091   6.329   0.822 -0.5404  1.6740 -0.6064
  538MOL0     H72593  10.186   6.454   0.765 -0.3972 -0.7692  3.4407
  538MOL0     H72594  10.585   6.722   0.631 -1.6330  0.4982 -0.9907
  538MOL0     H72595  10.678   6.897   0.452 -3.6267  1.3434 -0.4746
  538MOL0     H72596  10.655   7.051   0.278  1.4130  1.9942  1.0557
  538MOL0     H72597  10.806   6.967   0.305 -1.1942  0.3303  0.8661
  538MOL0     H72598  10.882   6.999   0.070  0.3128 -0.1615  0.9238
  538MOL0     H72599  10.717   7.015   0.016 -0.7061  2.0869  0.1128
  538MOL0     H72600  10.857   7.205  -0.027  2.2299 -1.9820  0.4904
  538MOL0     H72601  10.858   7.252   0.152  0.7165 -1.0896  2.6537
  538MOL0     H72602  10.618   7.229  -0.041 -0.9005  2.6388  0.2320
  538MOL0     H72603  10.605   7.236   0.136 -2.5987 -1.8262 -1.3315
  538MOL0     H72604  10.705   7.434  -0.081  0.2525  0.2203 -0.3991
  538MOL0     H72605  10.777   7.457   0.086  0.2071 -1.2504  0.3752
  538MOL0     H72606  10.487   7.454   0.010  0.2581 -1.1251  0.0912
  538MOL0     H72607  10.538   7.452   0.174 -3.3642  0.1247 -1.8822
  538MOL0     H72608  10.686   7.675   0.048  0.9786 -2.1648 -0.6358
  538MOL0     H72609  10.617   7.636   0.205 -1.2353 -4.7018  0.0869
  538MOL0     H72610  10.474   7.710  -0.062  1.7721 -4.1471  0.2728
  538MOL0     H72611  10.505   7.823   0.077 -1.7085  0.3361 -0.9283
  538MOL0     H72612  10.602   6.606   0.143 -1.2050  0.2753 -0.6771
  538MOL0     H72613  10.529   6.441   0.328 -1.0831  0.1169  2.3650
  538MOL0     H72614  10.619   6.234   0.651  0.5264  1.5986  2.6425
  538MOL0     H72615  10.627   6.061   0.781  2.4677  2.8454  4.3270
  538MOL0     H72616  10.726   6.559   2.152  1.4829 -0.2101  1.2653
  538MOL0     H72617  10.802   6.737   2.327  1.4438  0.5300  1.0922
  538MOL0     H72618  10.758   6.951   2.720  0.0745 -2.0303  0.6741
  538MOL0     H72619  10.859   7.118   2.900  5.1464  0.4097  5.4694
  538MOL0     H72620  10.917   6.983   3.166 -1.7625  4.5167 -1.0890
  538MOL0     H72621  11.097   6.981   3.223  1.2389 -0.5928 -2.3101
  538MOL0     H72622  10.915   7.130   3.337  1.1269 -0.2821  2.0860
  538MOL0     H72623  10.935   7.218   3.178 -1.7821 -0.2285  0.8878
  538MOL0     H72624  11.164   7.245   3.198 -0.1282  0.2302 -0.2412
  538MOL0     H72625  11.173   7.145   3.332  1.3509  0.9755 -0.3774
  538MOL0     H72626  11.190   7.391   3.393 -1.3732  2.1465  0.1227
  538MOL0     H72627  11.085   7.284   3.497 -1.6392 -4.0099 -1.2865
  538MOL0     H72628  10.851   7.607   3.317 -1.7142 -0.2498 -0.9171
  538MOL0     H72629  11.190   6.866   2.933 -0.2349  2.8329  1.8407
  538MOL0     H72630  11.062   6.671   2.823 -0.5409  0.3773 -1.7822
  539MOL0     O72631   8.118   9.910   6.491 -0.1481 -0.0046 -0.2044
  539MOL0     C72632   8.109   9.789   6.484  0.4014 -0.5616 -0.3264
  539MOL0     O72633   8.064   9.727   6.376  0.6670  0.5927  0.1477
  539MOL0     C72634   8.064   9.795   6.256 -0.0143 -1.0060  0.0171
  539MOL0     C72635   7.986   9.903   6.232 -0.1019 -0.6526 -0.0015
  539MOL0     C72636   7.967   9.959   6.102 -0.0029  0.1813 -0.3397
  539MOL0     C72637   8.036   9.901   5.996 -0.8247 -0.3008  0.5619
  539MOL0     O72638   8.028   9.951   5.875  0.2895  0.3087 -0.2411
  539MOL0     C72639   8.103  10.074   5.849 -0.7412 -0.7151  0.0346
  539MOL0     C72640   8.070  10.129   5.711 -0.0290 -1.3528  0.2791
  539MOL0     C72641   8.075  10.029   5.596 -0.6414  0.7680  0.3949
  539MOL0     C72642   8.210   9.940   5.599 -0.2003  0.1638 -1.2946
  539MOL0     C72643   8.233   9.872   5.466  1.1811 -1.7955  0.4235
  539MOL0     C72644   8.358   9.786   5.456  0.9596 -0.1484  0.3163
  539MOL0     C72645   8.390   9.661   5.542  0.6654  0.2195 -0.7100
  539MOL0     C72646   8.300   9.541   5.519  0.7543 -0.2556  0.2754
  539MOL0     N72647   8.302   9.442   5.625  0.3161  0.0229  0.0441
  539MOL0     C72648   8.209   9.441   5.719 -0.5195  0.0911  0.1994
  539MOL0     C72649   8.233   9.326   5.792 -0.3504  0.9136 -0.9248
  539MOL0     C72650   8.152   9.270   5.909  0.2119 -1.1233 -0.1698
  539MOL0     C72651   8.183   9.351   6.040  0.4725  0.3763 -0.4540
  539MOL0     C72652   8.142   9.284   6.174  0.2336 -0.1348  0.4384
  539MOL0     C72653   8.209   9.353   6.303 -0.4797 -0.1725 -0.4669
  539MOL0     O72654   8.344   9.401   6.290 -0.1010 -0.1401  0.2502
  539MOL0     C72655   8.417   9.396   6.402 -0.5346 -0.8463 -0.1810
  539MOL0     C72656   8.453   9.289   6.472  0.3727  0.1173 -0.6258
  539MOL0     C72657   8.526   9.295   6.590 -0.1968  0.4213 -0.1751
  539MOL0     C72658   8.549   9.168   6.660  0.5341 -0.6091 -0.3121
  539MOL0     C72659   8.573   9.418   6.639  0.7855  0.4076 -0.2312
  539MOL0     C72660   8.640   9.440   6.774  0.7428  1.0529  1.0835
  539MOL0     O72661   8.716   9.547   6.768 -1.2449  0.3486  0.2081
  539MOL0     C72662   8.779   9.570   6.891  0.4386 -0.1622  0.9465
  539MOL0     C72663   8.712   9.627   7.002 -0.5944  0.6094 -0.7858
  539MOL0     C72664   8.786   9.651   7.124  0.2406  0.0423  0.1059
  539MOL0     C72665   8.927   9.641   7.132  0.5618  0.9197  0.4291
  539MOL0     O72666   8.983   9.653   7.256 -0.2186 -0.2128  0.2164
  539MOL0     C72667   9.122   9.646   7.264  0.0178  0.1713  0.5816
  539MOL0     C72668   9.181   9.691   7.393 -0.7408 -0.0309 -0.4920
  539MOL0     C72669   9.146   9.836   7.439  0.3641 -0.1199 -0.9548
  539MOL0     C72670   9.196   9.871   7.581 -0.9910 -0.0999  0.7524
  539MOL0     C72671   9.101   9.967   7.652 -0.2078 -0.5553 -0.4715
  539MOL0     C72672   9.150  10.110   7.615  0.3214 -0.7095 -0.2839
  539MOL0     C72673   9.036  10.206   7.646 -0.0862  0.3645 -0.1936
  539MOL0     C72674   9.088  10.342   7.675 -0.1282  0.1096  0.1051
  539MOL0    Cl72675   8.965  10.428   7.772  0.2909 -0.3691 -0.2509
  539MOL0     C72676   8.992   9.589   7.022  0.0224  0.4537 -0.2140
  539MOL0     C72677   8.919   9.551   6.904 -0.9627 -0.1960  0.4696
  539MOL0     O72678   8.627   9.359   6.866  0.2344 -0.3628 -1.3381
  539MOL0     C72679   8.542   9.530   6.566 -0.6962 -0.1062  0.5384
  539MOL0     C72680   8.465   9.522   6.454  0.4082  0.7280  0.0166
  539MOL0     N72681   8.354   9.271   5.737  0.1798 -0.6876  0.4661
  539MOL0     N72682   8.393   9.340   5.639 -0.0075  0.3904 -0.2845
  539MOL0     C72683   8.113   9.794   6.015 -0.9809  0.3573  0.5235
  539MOL0     C72684   8.127   9.741   6.147 -0.6119 -0.1014 -0.7504
  539MOL0     C72685   8.131   9.713   6.610  0.1823  0.0104  1.0802
  539MOL0     C72686   8.190   9.777   6.724  0.7018 -0.0201 -0.8780
  539MOL0     C72687   8.211   9.720   6.843  0.3847  0.0120  0.4774
  539MOL0     C72688   8.189   9.581   6.853  0.2045 -0.2653  1.0332
  539MOL0     O72689   8.218   9.506   6.963  0.0920 -0.1809 -0.3522
  539MOL0     C72690   8.300   9.555   7.069  0.7684 -0.4300 -0.1068
  539MOL0     C72691   8.287   9.448   7.171 -0.1136  0.5083 -0.4806
  539MOL0     C72692   8.347   9.493   7.300 -0.3525 -0.2936 -0.1578
  539MOL0     C72693   8.501   9.517   7.292  0.7694  1.1752  0.1245
  539MOL0     C72694   8.572   9.526   7.424 -0.6141 -0.2892 -0.5067
  539MOL0     C72695   8.640   9.534   7.525 -0.4812 -0.8391  0.5261
  539MOL0     C72696   8.154   9.509   6.738 -0.0180  0.3052 -0.5538
  539MOL0     C72697   8.125   9.572   6.614 -0.2232  1.3210  0.1326
  539MOL0     H72698   7.954   9.968   6.312 -0.6809  0.9032 -1.4357
  539MOL0     H72699   7.895  10.041   6.098  1.5242  1.9650  3.4676
  539MOL0     H72700   8.082  10.157   5.916 -2.0200  0.7200 -2.0357
  539MOL0     H72701   8.212  10.061   5.854 -0.7587 -2.2779 -2.1322
  539MOL0     H72702   7.967  10.166   5.719  1.4238  2.7514  2.9924
  539MOL0     H72703   8.129  10.216   5.684 -0.6472 -0.4513  1.7522
  539MOL0     H72704   7.990   9.962   5.584  0.9256 -1.2301 -0.3255
  539MOL0     H72705   8.086  10.078   5.499 -0.6164 -0.7191 -0.3970
  539MOL0     H72706   8.298  10.004   5.611 -0.7860  0.7662 -0.0093
  539MOL0     H72707   8.208   9.868   5.681  0.2431  2.8375  1.2340
  539MOL0     H72708   8.137   9.827   5.440 -2.5401  4.4794  1.2643
  539MOL0     H72709   8.253   9.951   5.393  1.5355 -0.3809  1.9807
  539MOL0     H72710   8.356   9.749   5.353 -0.0058  1.6001 -0.3498
  539MOL0     H72711   8.441   9.854   5.476  0.2770  0.6513  0.4980
  539MOL0     H72712   8.494   9.627   5.537  0.6020 -0.4119  1.3205
  539MOL0     H72713   8.382   9.688   5.648  1.1221 -1.9615 -0.0660
  539MOL0     H72714   8.323   9.479   5.432 -1.7320  0.3389 -0.9013
  539MOL0     H72715   8.201   9.573   5.483 -1.3024 -3.8847  2.0947
  539MOL0     H72716   8.117   9.497   5.729 -0.0038  0.7393  1.5200
  539MOL0     H72717   8.045   9.272   5.885 -0.2230  2.5959  1.3741
  539MOL0     H72718   8.191   9.170   5.927  2.4281 -0.4821 -1.0417
  539MOL0     H72719   8.132   9.447   6.031 -1.5574 -0.4003  1.6511
  539MOL0     H72720   8.292   9.355   6.042  0.5461 -0.8470  2.3178
  539MOL0     H72721   8.173   9.179   6.169 -3.4922 -1.3465 -3.3051
  539MOL0     H72722   8.033   9.279   6.175  0.0517  2.3472  1.7713
  539MOL0     H72723   8.198   9.286   6.389  2.5020  1.4755  1.3287
  539MOL0     H72724   8.146   9.438   6.328 -0.5742 -0.6934  1.1619
  539MOL0     H72725   8.422   9.196   6.427  0.1597 -0.6427  1.0002
  539MOL0     H72726   8.489   9.144   6.748  2.0016 -1.5362  0.4968
  539MOL0     H72727   8.532   9.076   6.602  1.2787 -1.6934  1.1063
  539MOL0     H72728   8.657   9.160   6.678  0.5452 -2.5223 -0.9614
  539MOL0     H72729   8.606   9.646   6.996 -0.8431 -1.0332 -2.2338
  539MOL0     H72730   8.747   9.707   7.208  0.0954  0.7110 -0.4027
  539MOL0     H72731   9.161   9.545   7.247 -0.2697  0.3145 -1.1413
  539MOL0     H72732   9.168   9.711   7.188  1.8824  1.2380  2.5019
  539MOL0     H72733   9.155   9.617   7.469 -1.5584  1.4057  0.6929
  539MOL0     H72734   9.289   9.690   7.374 -0.2862  0.3650  1.7244
  539MOL0     H72735   9.037   9.851   7.442  0.1268 -1.7984  1.3741
  539MOL0     H72736   9.195   9.909   7.373  1.5490  1.6778  1.7609
  539MOL0     H72737   9.202   9.772   7.627  0.0543 -0.8031 -0.7940
  539MOL0     H72738   9.293   9.922   7.586 -0.9509 -0.2871  2.0174
  539MOL0     H72739   9.102   9.941   7.758 -0.8906  0.7436 -0.1223
  539MOL0     H72740   8.997   9.957   7.620 -0.1481  0.3364 -0.9855
  539MOL0     H72741   9.238  10.133   7.675 -0.7599 -3.8755  2.9020
  539MOL0     H72742   9.174  10.127   7.509  1.0542 -0.1888 -0.0420
  539MOL0     H72743   8.991  10.165   7.737  0.0556 -0.9018 -0.6768
  539MOL0     H72744   8.952  10.214   7.576 -0.8754 -1.5856  0.4580
  539MOL0     H72745   9.119  10.398   7.587 -0.5368 -1.1040 -0.8388
  539MOL0     H72746   9.179  10.341   7.735 -0.4931 -0.4750  0.6608
  539MOL0     H72747   9.098   9.566   7.020  0.4614  2.3077 -0.1905
  539MOL0     H72748   8.976   9.499   6.827  0.3265  0.3838  0.9919
  539MOL0     H72749   8.577   9.626   6.602 -2.2600 -0.3278  2.9073
  539MOL0     H72750   8.453   9.622   6.413 -1.2530  1.1146  1.3839
  539MOL0     H72751   8.173   9.752   5.935  1.3537  3.2793  0.5496
  539MOL0     H72752   8.188   9.654   6.167  0.3138  0.1951 -2.1521
  539MOL0     H72753   8.207   9.883   6.710  0.5218  0.0015 -0.9341
  539MOL0     H72754   8.241   9.772   6.933 -0.0055  0.0384  0.5954
  539MOL0     H72755   8.393   9.563   7.013  0.0012 -0.1227 -1.3797
  539MOL0     H72756   8.283   9.655   7.109 -0.6980 -1.3889  1.8976
  539MOL0     H72757   8.328   9.354   7.131 -4.1159 -1.7678  0.2016
  539MOL0     H72758   8.183   9.421   7.190  0.0727  0.1607  0.0768
  539MOL0     H72759   8.344   9.408   7.369 -1.6404  0.2638  0.5023
  539MOL0     H72760   8.285   9.575   7.338  0.1130  0.3934 -0.8591
  539MOL0     H72761   8.519   9.605   7.231  0.9336  1.6631  0.8656
  539MOL0     H72762   8.550   9.429   7.248 -1.1440  0.9472 -1.7156
  539MOL0     H72763   8.701   9.532   7.613 -2.8985  0.1702  2.3388
  539MOL0     H72764   8.157   9.401   6.738 -0.7686  0.1840  2.4311
  539MOL0     H72765   8.091   9.509   6.532 -1.4711 -1.9286  2.9537
  540MOL0     O72766   1.372   3.958   6.245 -0.5232  0.1056  0.0553
  540MOL0     C72767   1.338   4.033   6.156  0.5752 -0.2453 -0.5605
  540MOL0     O72768   1.212   4.085   6.131  0.4629  0.7081 -0.2986
  540MOL0     C72769   1.113   4.078   6.225  0.0067  0.1982  0.6214
  540MOL0     C72770   1.128   4.069   6.367 -0.4790 -0.4140  0.4739
  540MOL0     C72771   1.021   4.038   6.450  1.0566 -0.2853  0.4667
  540MOL0     C72772   0.893   4.034   6.399  0.1891  0.8561  0.3446
  540MOL0     O72773   0.798   3.992   6.492  0.0394 -0.6126 -0.0176
  540MOL0     C72774   0.709   3.881   6.446 -0.0953 -0.4077  0.0684
  540MOL0     C72775   0.603   3.848   6.558  0.1088  0.3486 -0.4659
  540MOL0     C72776   0.509   3.732   6.518  0.5991 -0.2242 -0.2760
  540MOL0     C72777   0.380   3.782   6.438  0.4544  1.0330  0.4433
  540MOL0     C72778   0.287   3.661   6.427 -0.7075  0.5116 -0.1132
  540MOL0     C72779   0.162   3.703   6.349 -1.0497 -0.3161 -0.5384
  540MOL0     C72780   0.067   3.583   6.323 -0.2669 -0.2519  0.3633
  540MOL0     C72781  -0.009   3.568   6.448 -0.0808 -0.7958 -0.2527
  540MOL0     N72782  -0.128   3.489   6.439 -0.1272 -0.0751  0.4775
  540MOL0     C72783  -0.246   3.538   6.391 -0.2007  1.1995  0.0176
  540MOL0     C72784  -0.328   3.433   6.397 -0.0382 -0.3952  0.0996
  540MOL0     C72785  -0.468   3.433   6.348 -0.5896 -0.5046  0.0218
  540MOL0     C72786  -0.546   3.560   6.397  0.0242  0.1776 -0.0937
  540MOL0     C72787  -0.703   3.528   6.401 -0.6384 -0.5928  0.1591
  540MOL0     C72788  -0.780   3.639   6.473  0.2006  0.2645 -0.6899
  540MOL0     O72789  -0.725   3.775   6.457  0.1251  0.5191 -0.1173
  540MOL0     C72790  -0.751   3.878   6.544 -0.8619 -0.2788 -0.6821
  540MOL0     C72791  -0.645   3.979   6.545  0.4322 -0.4473  0.5064
  540MOL0     C72792  -0.655   4.102   6.623 -0.5168 -0.3733  0.2106
  540MOL0     C72793  -0.541   4.198   6.625  0.0230 -0.4145 -0.1071
  540MOL0     C72794  -0.778   4.106   6.707 -0.5245 -0.6915  0.6173
  540MOL0     C72795  -0.800   4.217   6.802 -0.2468  0.1486 -0.4299
  540MOL0     O72796  -0.933   4.242   6.828  0.0851 -0.6088 -0.6843
  540MOL0     C72797  -0.963   4.320   6.940  1.2548  0.1089  0.9148
  540MOL0     C72798  -1.037   4.253   7.042  0.8440  1.2843 -0.4209
  540MOL0     C72799  -1.090   4.329   7.146 -0.1295 -0.4691 -0.6184
  540MOL0     C72800  -1.039   4.462   7.164 -0.5008 -0.0545  0.1492
  540MOL0     O72801  -1.075   4.549   7.259  0.3967 -0.1953 -0.0227
  540MOL0     C72802  -1.151   4.498   7.372  0.3048  0.1595  0.6279
  540MOL0     C72803  -1.220   4.615   7.430  0.3208  0.4311  0.2989
  540MOL0     C72804  -1.300   4.564   7.547  0.1562 -0.0608 -0.0664
  540MOL0     C72805  -1.389   4.675   7.589  0.4313 -0.6190  0.1985
  540MOL0     C72806  -1.502   4.629   7.688  0.6752 -0.3691  0.1075
  540MOL0     C72807  -1.453   4.606   7.837 -0.3140 -0.1806  0.2489
  540MOL0     C72808  -1.578   4.577   7.924 -0.1463 -0.1569 -0.6342
  540MOL0     C72809  -1.527   4.555   8.074  1.1642 -0.1865 -0.0327
  540MOL0    Cl72810  -1.477   4.384   8.090 -0.2014 -0.1248  0.1592
  540MOL0     C72811  -0.962   4.523   7.057  1.2885 -0.4283 -0.6228
  540MOL0     C72812  -0.933   4.461   6.938  0.1246  0.0263 -0.8661
  540MOL0     O72813  -0.711   4.275   6.855 -0.0338 -0.3693 -0.4810
  540MOL0     C72814  -0.885   4.013   6.695 -0.5863 -0.1466  0.5684
  540MOL0     C72815  -0.870   3.899   6.619 -0.3701  0.3743 -0.1896
  540MOL0     N72816  -0.253   3.321   6.443  0.1628  0.7900 -0.0054
  540MOL0     N72817  -0.134   3.359   6.475 -0.2412  0.7873 -0.0885
  540MOL0     C72818   0.871   4.073   6.259 -0.2629 -0.4541 -1.0344
  540MOL0     C72819   0.981   4.078   6.176 -0.5826  0.8207  0.7141
  540MOL0     C72820   1.461   4.086   6.083  0.3559  0.7595  0.8578
  540MOL0     C72821   1.596   4.071   6.119  0.8550  0.2872 -0.7897
  540MOL0     C72822   1.700   4.135   6.048 -0.1862  0.5774 -1.0506
  540MOL0     C72823   1.663   4.217   5.941 -0.2525  0.6840 -0.1169
  540MOL0     O72824   1.765   4.289   5.886 -0.0639  0.1778  0.1451
  540MOL0     C72825   1.758   4.365   5.763 -0.5794 -0.2461 -0.0323
  540MOL0     C72826   1.741   4.279   5.641  0.7489 -0.1919  0.1671
  540MOL0     C72827   1.860   4.197   5.596  0.7757  0.6726  0.1019
  540MOL0     C72828   1.853   4.165   5.451  0.1489 -0.3767  0.1026
  540MOL0     C72829   1.919   4.034   5.431  0.8573  0.0165  0.3398
  540MOL0     C72830   1.966   3.926   5.414  0.2918  0.9701 -0.3245
  540MOL0     C72831   1.532   4.224   5.897  0.6241 -0.2820  0.2384
  540MOL0     C72832   1.435   4.168   5.972  0.9874  0.7360 -0.2652
  540MOL0     H72833   1.225   4.069   6.414 -0.8480 -0.2415  1.2409
  540MOL0     H72834   1.019   4.022   6.557 -6.7677  5.5329  2.1000
  540MOL0     H72835   0.653   3.906   6.355 -0.7430 -0.7822  0.3520
  540MOL0     H72836   0.759   3.785   6.427 -1.3750 -0.8701 -1.1576
  540MOL0     H72837   0.652   3.822   6.653 -1.3581  0.0734  0.2572
  540MOL0     H72838   0.552   3.943   6.574  0.3355  0.4503 -0.3472
  540MOL0     H72839   0.554   3.661   6.448  1.6350  1.0645 -0.9681
  540MOL0     H72840   0.481   3.680   6.611  1.7645  0.7630  0.6602
  540MOL0     H72841   0.320   3.870   6.462  0.1010  1.6726 -2.3996
  540MOL0     H72842   0.416   3.806   6.337 -0.6169  0.6029 -0.0582
  540MOL0     H72843   0.339   3.585   6.369  1.9160  5.1987 -4.7671
  540MOL0     H72844   0.255   3.634   6.528 -0.0014 -0.0397 -0.0291
  540MOL0     H72845   0.098   3.781   6.390 -1.1540 -2.1621  3.2545
  540MOL0     H72846   0.197   3.731   6.249 -0.8568  1.2750 -0.0402
  540MOL0     H72847  -0.003   3.618   6.246 -2.4614 -1.8008  1.5083
  540MOL0     H72848   0.123   3.497   6.285  0.4211 -0.4045  1.6623
  540MOL0     H72849  -0.035   3.668   6.483 -1.4243 -0.8119 -1.1274
  540MOL0     H72850   0.051   3.527   6.530  0.5502 -1.3665 -0.9812
  540MOL0     H72851  -0.275   3.638   6.360  0.2794  0.6016 -2.5754
  540MOL0     H72852  -0.454   3.418   6.241  3.2955 -1.5437  0.5154
  540MOL0     H72853  -0.527   3.347   6.380 -2.2178  0.2500 -0.8489
  540MOL0     H72854  -0.527   3.648   6.335  0.0644 -0.7255 -1.4319
  540MOL0     H72855  -0.509   3.591   6.495 -0.6502  1.8471 -0.3385
  540MOL0     H72856  -0.705   3.433   6.455  5.2104 -1.7539 -1.0131
  540MOL0     H72857  -0.738   3.524   6.297 -0.4180 -0.6446  0.0851
  540MOL0     H72858  -0.783   3.602   6.577 -1.6875 -0.1931 -0.8798
  540MOL0     H72859  -0.885   3.642   6.445  0.5825  1.1770 -2.0848
  540MOL0     H72860  -0.567   3.963   6.471 -0.7619 -0.0526 -0.8742
  540MOL0     H72861  -0.505   4.225   6.725  1.3985  2.0034 -1.1620
  540MOL0     H72862  -0.454   4.163   6.568  0.9382 -0.3741  1.2178
  540MOL0     H72863  -0.577   4.284   6.568 -2.1616 -2.0673 -1.3696
  540MOL0     H72864  -1.062   4.149   7.030  3.8155  0.5440 -1.0769
  540MOL0     H72865  -1.163   4.282   7.212  0.9999 -2.6476 -0.8442
  540MOL0     H72866  -1.226   4.423   7.346  1.2238 -0.9426  1.0635
  540MOL0     H72867  -1.086   4.448   7.444 -1.4480 -1.6379  1.0207
  540MOL0     H72868  -1.144   4.688   7.459 -0.0867 -0.3747  3.7383
  540MOL0     H72869  -1.284   4.645   7.346 -1.3277 -2.4350  0.3874
  540MOL0     H72870  -1.234   4.545   7.633 -0.6208 -1.1450  0.3072
  540MOL0     H72871  -1.375   4.486   7.534 -0.1139 -0.1695  1.8384
  540MOL0     H72872  -1.336   4.757   7.638 -0.1014 -0.6712  0.8689
  540MOL0     H72873  -1.439   4.708   7.497  1.1810 -1.8120 -0.6694
  540MOL0     H72874  -1.563   4.547   7.650 -3.2775  1.5628  1.6459
  540MOL0     H72875  -1.569   4.716   7.687  2.8257  1.4516  2.2954
  540MOL0     H72876  -1.393   4.515   7.831 -0.2993 -0.4325  2.8833
  540MOL0     H72877  -1.398   4.693   7.872  1.7872 -1.3096 -0.1033
  540MOL0     H72878  -1.633   4.489   7.889 -2.2206  0.5735  0.6281
  540MOL0     H72879  -1.642   4.664   7.913 -0.4875 -0.3350 -0.0759
  540MOL0     H72880  -1.621   4.573   8.127  1.0465  3.7587 -1.2815
  540MOL0     H72881  -1.441   4.618   8.096  1.7727 -1.3736  1.1126
  540MOL0     H72882  -0.938   4.628   7.068 -3.5018  1.2339 -3.0347
  540MOL0     H72883  -0.886   4.513   6.856  2.9976  0.9262  1.1844
  540MOL0     H72884  -0.984   4.025   6.737 -0.8971  0.3295 -0.2664
  540MOL0     H72885  -0.951   3.827   6.615  1.5337 -1.8028 -2.0982
  540MOL0     H72886   0.767   4.092   6.234 -1.6371 -1.6959  2.9092
  540MOL0     H72887   0.961   4.089   6.069  0.7666 -0.7146  0.2601
  540MOL0     H72888   1.619   3.997   6.196 -2.0586 -1.5691 -1.5416
  540MOL0     H72889   1.800   4.113   6.084 -0.5929 -0.6814 -0.6196
  540MOL0     H72890   1.678   4.439   5.754 -0.8184 -0.7486 -2.9236
  540MOL0     H72891   1.849   4.424   5.752  0.6430 -1.9042  0.7955
  540MOL0     H72892   1.718   4.354   5.565  0.0600 -1.7020 -1.1790
  540MOL0     H72893   1.653   4.215   5.653 -0.3297  1.3469  0.9164
  540MOL0     H72894   1.850   4.111   5.662  0.8089 -0.0758 -0.8532
  540MOL0     H72895   1.954   4.247   5.619  2.3463 -0.1263 -3.8255
  540MOL0     H72896   1.907   4.241   5.394  1.4442  0.1690  1.9872
  540MOL0     H72897   1.753   4.165   5.406  0.5556 -1.3924 -0.8547
  540MOL0     H72898   2.026   3.838   5.399 -2.9996 -1.6282  0.3899
  540MOL0     H72899   1.506   4.288   5.813 -0.7650 -0.5482  0.4349
  540MOL0     H72900   1.331   4.174   5.941  1.5666 -2.5137 -3.4472
  541MOL0     O72901   4.452   4.971   7.156  0.4322  0.8392 -0.0304
  541MOL0     C72902   4.495   4.858   7.146 -0.2514 -0.5448  0.9666
  541MOL0     O72903   4.432   4.739   7.191 -0.1334  0.0585 -0.8073
  541MOL0     C72904   4.311   4.745   7.258 -1.0138 -0.2154 -0.0250
  541MOL0     C72905   4.324   4.773   7.394  0.6754 -0.5536 -0.3240
  541MOL0     C72906   4.208   4.791   7.478  0.6944 -0.4057  0.0146
  541MOL0     C72907   4.080   4.749   7.434 -0.2829 -0.0888  0.1926
  541MOL0     O72908   3.972   4.736   7.518 -0.5150  0.6355 -0.2333
  541MOL0     C72909   3.977   4.777   7.660  0.4904 -0.1292  0.6263
  541MOL0     C72910   3.973   4.656   7.758 -0.2520 -0.7235  0.2639
  541MOL0     C72911   4.097   4.579   7.748  0.7900 -1.0528 -0.4211
  541MOL0     C72912   4.081   4.462   7.838  0.7391 -0.2869  0.1193
  541MOL0     C72913   4.194   4.368   7.804 -0.3075  0.4736  0.9519
  541MOL0     C72914   4.198   4.233   7.880  0.4762  0.3881 -0.4953
  541MOL0     C72915   4.206   4.269   8.031  0.8559 -0.3443  0.5087
  541MOL0     C72916   4.200   4.151   8.127  0.0242  0.7265  0.7798
  541MOL0     N72917   4.171   4.173   8.268  0.0722  0.1788 -0.5798
  541MOL0     C72918   4.271   4.196   8.358  0.2211 -0.1710  0.8679
  541MOL0     C72919   4.204   4.228   8.473 -0.9391 -0.6012  0.5069
  541MOL0     C72920   4.249   4.255   8.614  0.7449 -0.0964  0.1824
  541MOL0     C72921   4.363   4.171   8.683  0.3231  0.1290  0.0592
  541MOL0     C72922   4.302   4.055   8.753  0.5480 -0.6776 -0.2256
  541MOL0     C72923   4.402   3.981   8.838  0.2302  0.7260 -0.5830
  541MOL0     O72924   4.457   4.079   8.932  0.0272 -0.1995  0.3485
  541MOL0     C72925   4.510   4.040   9.045 -0.8155  0.0066 -0.2918
  541MOL0     C72926   4.531   3.911   9.081 -0.2298  0.5758 -0.4798
  541MOL0     C72927   4.593   3.873   9.205  0.0944  0.7292  0.2371
  541MOL0     C72928   4.597   3.720   9.231  0.8882  0.2639  0.2887
  541MOL0     C72929   4.614   3.981   9.296 -0.1929 -0.1355 -0.1612
  541MOL0     C72930   4.655   3.960   9.437 -0.5828 -0.1185  0.3743
  541MOL0     O72931   4.649   4.073   9.518 -0.4074 -0.1565  0.9753
  541MOL0     C72932   4.699   4.068   9.642  0.0412  0.6032 -0.7369
  541MOL0     C72933   4.833   4.015   9.655 -0.6874 -0.3329 -0.2960
  541MOL0     C72934   4.900   4.023   9.780  0.8915 -0.2545  0.0879
  541MOL0     C72935   4.823   4.067   9.892  0.1773 -0.4124 -0.0511
  541MOL0     O72936   4.884   4.071  10.014 -0.0256  0.0291 -1.0988
  541MOL0     C72937   4.916   3.937  10.053  0.2663 -0.2201  0.2079
  541MOL0     C72938   4.893   3.920  10.197  0.2942  0.3872 -0.5752
  541MOL0     C72939   5.004   3.991  10.283  1.2890  0.3774 -0.1891
  541MOL0     C72940   5.016   3.923  10.416 -0.2396  0.3129 -0.2629
  541MOL0     C72941   5.150   3.962  10.487 -0.6417  0.2022 -0.2074
  541MOL0     C72942   5.138   3.949  10.636  0.2867 -0.3188  0.9488
  541MOL0     C72943   5.094   3.812  10.698 -0.4603  0.3872 -0.8396
  541MOL0     C72944   5.206   3.700  10.685  0.0374 -0.6442  0.3936
  541MOL0    Cl72945   5.148   3.549  10.780 -0.3737  0.2498 -0.2852
  541MOL0     C72946   4.711   4.139   9.877 -0.4559  0.9483  0.1957
  541MOL0     C72947   4.648   4.139   9.750  0.0747 -0.5160  0.2301
  541MOL0     O72948   4.699   3.851   9.475 -0.8201 -0.5132 -0.0730
  541MOL0     C72949   4.597   4.109   9.252  0.0388 -0.1618 -0.7045
  541MOL0     C72950   4.540   4.138   9.131 -0.7842 -0.2479 -0.6503
  541MOL0     N72951   4.066   4.216   8.446  0.0319 -0.2613  0.6426
  541MOL0     N72952   4.047   4.183   8.327 -0.5776 -0.7785 -0.6271
  541MOL0     C72953   4.064   4.722   7.299 -0.2151  0.0259 -0.1596
  541MOL0     C72954   4.182   4.716   7.213  0.3353  0.1616  1.0526
  541MOL0     C72955   4.617   4.844   7.067  0.1892  0.7122  2.0109
  541MOL0     C72956   4.674   4.950   6.996  0.3238 -0.2256  0.1679
  541MOL0     C72957   4.802   4.932   6.934  0.4185 -0.6688  0.2626
  541MOL0     C72958   4.861   4.806   6.923  0.8660 -0.4783 -0.5895
  541MOL0     O72959   4.990   4.797   6.864  0.1929 -0.3554 -0.4159
  541MOL0     C72960   4.986   4.762   6.725 -0.1508  0.2351  0.0696
  541MOL0     C72961   4.993   4.609   6.699  0.2731  0.3421 -0.2623
  541MOL0     C72962   4.972   4.577   6.549  0.5957  0.5935 -0.1873
  541MOL0     C72963   4.970   4.421   6.541 -0.5450  0.1582 -0.3317
  541MOL0     C72964   4.925   4.367   6.418 -0.4688  1.1519  0.1589
  541MOL0     C72965   4.885   4.314   6.315 -0.1221 -0.0543 -1.3399
  541MOL0     C72966   4.791   4.700   6.971 -0.6874  0.6667 -0.7569
  541MOL0     C72967   4.676   4.716   7.054 -0.1328 -0.1778  0.1212
  541MOL0     H72968   4.422   4.777   7.439  0.8668  1.3343 -0.8202
  541MOL0     H72969   4.231   4.817   7.581 -1.1077 -1.0814  0.6407
  541MOL0     H72970   4.066   4.840   7.659 -0.2929  1.1337 -2.1664
  541MOL0     H72971   3.881   4.826   7.680 -2.0275 -4.1741 -0.4085
  541MOL0     H72972   3.952   4.691   7.859 -2.8360 -0.8331 -0.1592
  541MOL0     H72973   3.884   4.603   7.722 -2.0408  1.0465  1.8422
  541MOL0     H72974   4.123   4.547   7.646 -0.6811 -1.0842 -0.8171
  541MOL0     H72975   4.178   4.645   7.778 -0.6087  1.0581 -1.0936
  541MOL0     H72976   4.065   4.502   7.938 -1.9586  0.2012 -0.4162
  541MOL0     H72977   3.986   4.412   7.818  0.9653 -0.0051 -1.9351
  541MOL0     H72978   4.192   4.334   7.700  1.6144  1.5395  0.5153
  541MOL0     H72979   4.284   4.429   7.816 -1.7177  2.9316 -0.1912
  541MOL0     H72980   4.106   4.174   7.872  0.7688  0.0067 -1.1114
  541MOL0     H72981   4.284   4.173   7.848  0.5101 -0.0048  0.3211
  541MOL0     H72982   4.292   4.333   8.053  1.1618 -0.4733 -0.2841
  541MOL0     H72983   4.115   4.322   8.062  0.1963  0.3450 -2.3182
  541MOL0     H72984   4.295   4.097   8.130 -0.8370 -0.8133  1.3179
  541MOL0     H72985   4.116   4.095   8.085 -1.7791  3.5841  0.2824
  541MOL0     H72986   4.377   4.181   8.344  0.4228  1.2447  0.6942
  541MOL0     H72987   4.281   4.359   8.605 -2.7561  1.0634 -0.7983
  541MOL0     H72988   4.155   4.254   8.671  0.6490 -1.0186  0.0179
  541MOL0     H72989   4.407   4.234   8.761  0.7956 -0.8752  0.6149
  541MOL0     H72990   4.437   4.147   8.606  1.8815  1.4099  1.0949
  541MOL0     H72991   4.257   3.987   8.681 -0.4805 -0.5787  0.3020
  541MOL0     H72992   4.230   4.096   8.825  1.7578 -2.7368  2.3407
  541MOL0     H72993   4.484   3.930   8.787  2.3034  1.5761  1.7197
  541MOL0     H72994   4.339   3.911   8.894  2.6998 -2.1119 -1.0823
  541MOL0     H72995   4.528   3.825   9.015  4.8973 -0.0408 -0.3311
  541MOL0     H72996   4.506   3.669   9.196  1.3076 -0.6896  0.5610
  541MOL0     H72997   4.687   3.672   9.192  2.2130  1.1953  2.0839
  541MOL0     H72998   4.595   3.693   9.337 -1.8216  0.0915  0.2745
  541MOL0     H72999   4.875   3.965   9.569 -3.0207 -4.0066  0.4843
  541MOL0     H73000   5.001   3.984   9.789  1.0776  0.3314  0.6304
  541MOL0     H73001   4.867   3.864   9.988  0.2898  1.8791 -2.3190
  541MOL0     H73002   5.024   3.917  10.044  0.4162  1.2945 -2.0386
  541MOL0     H73003   4.796   3.966  10.216  0.5309  0.1570  1.4062
  541MOL0     H73004   4.875   3.816  10.227 -6.6083  1.8156  2.3661
  541MOL0     H73005   4.979   4.097  10.288 -2.4432 -0.2353 -2.1042
  541MOL0     H73006   5.109   3.981  10.253  0.5625  1.9286 -3.7476
  541MOL0     H73007   4.936   3.960  10.480 -1.8407  2.6689 -3.3252
  541MOL0     H73008   4.992   3.817  10.412 -0.0170  0.2808 -1.0121
  541MOL0     H73009   5.183   4.063  10.463  1.2592 -0.9196 -2.8331
  541MOL0     H73010   5.223   3.884  10.462  1.6770  1.9268  0.9006
  541MOL0     H73011   5.232   3.967  10.690 -0.4184 -1.2198  2.5425
  541MOL0     H73012   5.071   4.031  10.662 -0.8718  0.8166 -4.3642
  541MOL0     H73013   5.008   3.770  10.645  1.1842 -1.3187 -2.3513
  541MOL0     H73014   5.075   3.817  10.805  0.3785 -1.6256 -0.5582
  541MOL0     H73015   5.300   3.737  10.726 -1.6761  1.6029  2.6477
  541MOL0     H73016   5.214   3.655  10.586  2.3373  1.0879 -0.2826
  541MOL0     H73017   4.669   4.192   9.962 -1.6600  0.2136  0.0902
  541MOL0     H73018   4.555   4.187   9.721 -1.3030 -1.4668  2.7864
  541MOL0     H73019   4.617   4.203   9.304  1.9297 -2.1264  2.4557
  541MOL0     H73020   4.516   4.242   9.114 -1.4520  0.2598  2.6715
  541MOL0     H73021   3.970   4.686   7.259  0.5554  0.8459 -2.9848
  541MOL0     H73022   4.154   4.686   7.113 -0.8855 -0.4770  1.5499
  541MOL0     H73023   4.634   5.051   6.995 -3.5455 -1.5671 -1.4385
  541MOL0     H73024   4.854   5.017   6.890 -2.2857 -0.8549 -3.8326
  541MOL0     H73025   4.886   4.795   6.695 -0.0719  0.3826 -0.0273
  541MOL0     H73026   5.059   4.820   6.669 -1.2846  1.5148 -0.1268
  541MOL0     H73027   4.907   4.572   6.755 -0.6435 -0.4604 -2.1049
  541MOL0     H73028   5.083   4.565   6.743 -2.1498 -3.9010  1.0526
  541MOL0     H73029   5.051   4.599   6.476 -0.3654 -0.1572 -1.5144
  541MOL0     H73030   4.879   4.629   6.525 -0.0809  0.0331  1.1203
  541MOL0     H73031   4.907   4.378   6.620  4.7927 -2.0757  3.3606
  541MOL0     H73032   5.074   4.392   6.558 -0.3221 -0.7148 -2.7947
  541MOL0     H73033   4.853   4.259   6.230  0.6606 -2.6449 -0.0457
  541MOL0     H73034   4.820   4.596   6.958  0.6247  1.2188 -2.6905
  541MOL0     H73035   4.638   4.630   7.108 -2.2635  0.1273 -0.8173
  542MOL0     O73036   1.036  10.055  11.136  0.1197 -0.0864 -0.1842
  542MOL0     C73037   1.117   9.981  11.192 -0.1006 -0.5952 -0.1891
  542MOL0     O73038   1.138   9.965  11.330  0.1267 -0.3210  0.1096
  542MOL0     C73039   1.082  10.055  11.426  0.2118  0.3341 -0.2474
  542MOL0     C73040   0.942  10.061  11.440  0.2579  0.1047  0.6731
  542MOL0     C73041   0.900  10.158  11.529  0.4958 -0.2028  0.3372
  542MOL0     C73042   0.977  10.212  11.630 -0.6293  1.0238 -0.4272
  542MOL0     O73043   0.917  10.285  11.730 -0.2963 -0.7426  0.3700
  542MOL0     C73044   0.994  10.382  11.810 -0.2576  0.2242 -0.7999
  542MOL0     C73045   0.898  10.464  11.903  0.5596 -0.7385  0.5193
  542MOL0     C73046   0.962  10.489  12.040 -0.4197 -0.0609 -0.6095
  542MOL0     C73047   0.857  10.563  12.118 -0.0264 -0.7083  0.1183
  542MOL0     C73048   0.872  10.558  12.272 -1.0312 -0.0694 -0.1621
  542MOL0     C73049   0.802  10.667  12.343 -0.0139  0.8019 -0.2061
  542MOL0     C73050   0.658  10.623  12.353  0.5431 -0.6708  0.0789
  542MOL0     C73051   0.568  10.742  12.385  0.2996  0.7839 -0.4894
  542MOL0     N73052   0.621  10.818  12.500  0.2457  0.4710 -0.5930
  542MOL0     C73053   0.637  10.759  12.626 -0.2994  0.8621 -1.1210
  542MOL0     C73054   0.702  10.847  12.700 -0.0167 -0.4377 -0.1458
  542MOL0     C73055   0.739  10.835  12.841  0.0696 -0.2503 -0.7086
  542MOL0     C73056   0.679  10.934  12.938 -0.3048 -0.3031 -0.8302
  542MOL0     C73057   0.533  10.926  12.957  0.0953 -0.4129  0.1587
  542MOL0     C73058   0.477  10.978  13.090  0.0333 -0.1025  0.0942
  542MOL0     O73059   0.469  11.121  13.118 -0.3243  0.3791  0.7583
  542MOL0     C73060   0.380  11.154  13.213  0.5945  0.1950 -1.0161
  542MOL0     C73061   0.389  11.109  13.339 -0.6132 -0.1076 -0.2750
  542MOL0     C73062   0.286  11.109  13.437 -0.1783 -0.3192  0.2959
  542MOL0     C73063   0.299  11.025  13.562  0.1877  0.0109  0.4595
  542MOL0     C73064   0.180  11.204  13.411  0.2056 -0.5035  0.2058
  542MOL0     C73065   0.067  11.241  13.507 -0.7309 -0.1123 -0.6961
  542MOL0     O73066   0.006  11.353  13.475 -0.4188 -0.2090  0.5973
  542MOL0     C73067  -0.085  11.394  13.567  0.7376  0.0152 -0.2720
  542MOL0     C73068  -0.050  11.454  13.691 -0.6462 -0.1041 -0.6276
  542MOL0     C73069  -0.149  11.504  13.784  0.0085 -0.1246  0.1823
  542MOL0     C73070  -0.279  11.499  13.747  0.2253  0.7660  0.3544
  542MOL0     O73071  -0.380  11.556  13.829 -0.3813  0.5627 -0.2194
  542MOL0     C73072  -0.518  11.512  13.805  0.2388  0.1891  0.0965
  542MOL0     C73073  -0.583  11.624  13.727 -0.1365 -0.6332 -0.5317
  542MOL0     C73074  -0.733  11.615  13.673  0.3447  0.4077  0.5818
  542MOL0     C73075  -0.763  11.746  13.599 -0.2266  0.1615  0.1807
  542MOL0     C73076  -0.911  11.746  13.555 -0.0971 -0.1877  0.8150
  542MOL0     C73077  -0.940  11.880  13.478 -0.0956 -0.1249  0.2075
  542MOL0     C73078  -1.074  11.845  13.408  0.2065  0.4351  0.4122
  542MOL0     C73079  -1.201  11.856  13.493 -0.7247 -0.4465 -0.1567
  542MOL0    Cl73080  -1.282  12.019  13.484 -0.2287 -0.3009 -0.1851
  542MOL0     C73081  -0.304  11.442  13.628  0.9338  0.2155  0.1712
  542MOL0     C73082  -0.214  11.387  13.539  1.2995  1.0517 -0.5428
  542MOL0     O73083   0.038  11.166  13.596  0.4472  0.0604  0.0656
  542MOL0     C73084   0.182  11.276  13.288 -0.9033  0.1084 -0.1848
  542MOL0     C73085   0.278  11.243  13.190 -0.1835 -0.5661 -0.7084
  542MOL0     N73086   0.703  10.967  12.629 -0.5585  0.6521  0.2146
  542MOL0     N73087   0.659  10.942  12.512  0.2026  0.1696  0.2551
  542MOL0     C73088   1.115  10.201  11.620  0.0118  0.2840  0.7641
  542MOL0     C73089   1.164  10.120  11.511 -0.4721 -0.5468  0.4457
  542MOL0     C73090   1.177   9.880  11.110 -0.6710 -0.3437 -0.8872
  542MOL0     C73091   1.279   9.800  11.163 -0.1728  1.5230  0.2265
  542MOL0     C73092   1.322   9.693  11.086  0.1013 -1.1317 -0.9536
  542MOL0     C73093   1.289   9.663  10.954  0.7595 -0.3988  0.0229
  542MOL0     O73094   1.304   9.551  10.886  0.6319  0.8860  0.1609
  542MOL0     C73095   1.438   9.498  10.885  0.5265  0.3163 -0.9518
  542MOL0     C73096   1.436   9.346  10.884  0.3514 -0.5930  0.1391
  542MOL0     C73097   1.569   9.292  10.846 -0.0571  0.1217 -0.4917
  542MOL0     C73098   1.572   9.141  10.848 -0.2695  0.6237  0.7096
  542MOL0     C73099   1.696   9.079  10.894 -0.6906  0.0234 -0.0231
  542MOL0     C73100   1.795   9.006  10.906  0.0866 -0.1082 -0.2839
  542MOL0     C73101   1.190   9.757  10.903 -0.0328 -0.1619  0.8714
  542MOL0     C73102   1.134   9.854  10.975  0.5854 -1.1492  0.1145
  542MOL0     H73103   0.873  10.003  11.379  2.1479 -2.5534  0.8694
  542MOL0     H73104   0.793  10.176  11.531  0.3078 -0.9111 -1.3160
  542MOL0     H73105   1.051  10.320  11.880 -3.2632 -0.1681  1.5213
  542MOL0     H73106   1.051  10.457  11.755  0.8351  0.8784  1.1447
  542MOL0     H73107   0.864  10.555  11.853  3.1209  0.6086  1.0354
  542MOL0     H73108   0.809  10.404  11.924 -1.1749  1.5684  0.1585
  542MOL0     H73109   0.979  10.391  12.086  2.0161  0.9077  0.7632
  542MOL0     H73110   1.055  10.546  12.042 -1.0259  0.9766 -1.4503
  542MOL0     H73111   0.833  10.664  12.083 -0.1077 -0.0085  2.0451
  542MOL0     H73112   0.766  10.509  12.091  0.2208 -1.8596  1.4534
  542MOL0     H73113   0.845  10.462  12.318 -0.6947  0.3867  1.0448
  542MOL0     H73114   0.977  10.574  12.295 -0.6095 -2.5366 -0.0251
  542MOL0     H73115   0.845  10.676  12.443 -0.4349  1.6726 -0.0909
  542MOL0     H73116   0.815  10.756  12.282  0.8957 -1.2043 -3.1515
  542MOL0     H73117   0.626  10.563  12.268  1.6172  0.9244 -1.5210
  542MOL0     H73118   0.645  10.554  12.437 -1.6959  0.1513  0.4838
  542MOL0     H73119   0.468  10.709  12.416 -0.0951 -0.3931 -2.8114
  542MOL0     H73120   0.546  10.801  12.296 -2.3789 -2.0371 -1.9103
  542MOL0     H73121   0.611  10.659  12.659  1.7864 -1.3066 -5.1884
  542MOL0     H73122   0.720  10.735  12.881 -1.2123  0.2334 -0.0138
  542MOL0     H73123   0.846  10.848  12.859 -0.3356  2.0074  0.4562
  542MOL0     H73124   0.698  11.040  12.916 -0.7412  0.4190  1.8669
  542MOL0     H73125   0.710  10.921  13.042  1.8541 -0.3078 -1.4299
  542MOL0     H73126   0.502  10.821  12.965  0.0513 -0.3162  1.5803
  542MOL0     H73127   0.479  10.961  12.869 -0.8987  1.6046  1.4992
  542MOL0     H73128   0.529  10.928  13.172 -1.5686  3.9054  3.9309
  542MOL0     H73129   0.374  10.942  13.079  0.0461 -0.3397  0.7046
  542MOL0     H73130   0.483  11.058  13.359 -1.8875 -1.4214  2.9454
  542MOL0     H73131   0.373  10.944  13.559 -1.8738 -2.0750  2.0532
  542MOL0     H73132   0.310  11.096  13.644  0.5202  2.0408 -1.2787
  542MOL0     H73133   0.201  10.976  13.565  1.2596 -2.2773  0.9477
  542MOL0     H73134   0.056  11.470  13.711 -1.1209 -0.4539  2.8844
  542MOL0     H73135  -0.114  11.547  13.878  1.0902  0.9512 -0.6760
  542MOL0     H73136  -0.529  11.413  13.760 -4.9019  1.3634 -1.9554
  542MOL0     H73137  -0.558  11.494  13.905 -1.5339  0.3636 -0.5342
  542MOL0     H73138  -0.580  11.717  13.783 -0.7766 -0.8438 -0.1354
  542MOL0     H73139  -0.530  11.640  13.633 -0.5579  1.0720 -0.4987
  542MOL0     H73140  -0.790  11.600  13.766 -2.4766  1.6992 -0.8182
  542MOL0     H73141  -0.748  11.532  13.605  1.2267  0.8622 -0.1813
  542MOL0     H73142  -0.742  11.828  13.668  0.1965  2.0274 -2.0458
  542MOL0     H73143  -0.682  11.754  13.527 -1.3142  2.1364 -0.9170
  542MOL0     H73144  -0.977  11.730  13.641  4.1592 -3.3213  3.9593
  542MOL0     H73145  -0.924  11.662  13.486  2.1618  1.2232 -1.5313
  542MOL0     H73146  -0.956  11.965  13.546  0.9076 -0.7003  1.2114
  542MOL0     H73147  -0.861  11.898  13.405 -1.5099  2.6397 -0.7819
  542MOL0     H73148  -1.066  11.751  13.353 -0.4900  1.7289 -2.0400
  542MOL0     H73149  -1.082  11.918  13.327  0.6192  1.7395  1.5083
  542MOL0     H73150  -1.190  11.824  13.598  1.4535 -2.9810 -1.0361
  542MOL0     H73151  -1.260  11.775  13.449 -1.8440 -0.6995  1.6635
  542MOL0     H73152  -0.400  11.434  13.579  1.3708  2.6427 -1.2624
  542MOL0     H73153  -0.246  11.342  13.445 -0.3503 -0.6171  0.7507
  542MOL0     H73154   0.102  11.341  13.254 -2.3716 -2.0389 -1.0756
  542MOL0     H73155   0.277  11.292  13.093 -2.1115  1.9778  0.4805
  542MOL0     H73156   1.182  10.256  11.686 -0.0136  1.3104 -0.0349
  542MOL0     H73157   1.269  10.108  11.484 -0.2811  1.3085  0.2122
  542MOL0     H73158   1.336   9.832  11.250  5.7788 -2.4097 -1.6230
  542MOL0     H73159   1.380   9.624  11.147  1.1169 -0.9880 -1.7224
  542MOL0     H73160   1.480   9.541  10.794 -0.7449  3.6930 -0.0973
  542MOL0     H73161   1.506   9.528  10.966  2.4006 -2.3539 -1.3976
  542MOL0     H73162   1.370   9.315  10.803  3.6033 -1.7292 -2.2695
  542MOL0     H73163   1.403   9.303  10.979  0.7157 -1.8522 -0.2919
  542MOL0     H73164   1.654   9.328  10.904  0.3515  1.3536 -1.8037
  542MOL0     H73165   1.587   9.334  10.747 -2.5359 -1.1629 -1.5869
  542MOL0     H73166   1.544   9.100  10.749 -4.1016  2.9136  0.6280
  542MOL0     H73167   1.492   9.095  10.907 -0.5715 -1.8353 -1.3864
  542MOL0     H73168   1.889   8.954  10.915 -0.9684 -1.8770  1.4249
  542MOL0     H73169   1.151   9.742  10.803 -2.1737  2.8481  1.1100
  542MOL0     H73170   1.053   9.903  10.920  0.9264 -0.1521  0.4854
  543MOL0     O73171   8.958   0.004   6.112 -0.7056  0.3858  0.4599
  543MOL0     C73172   8.985  -0.093   6.187 -1.7688 -0.8762 -0.2397
  543MOL0     O73173   8.917  -0.120   6.314  0.3902  0.0056 -0.4083
  543MOL0     C73174   8.801  -0.041   6.334 -1.0160  0.9102 -0.8787
  543MOL0     C73175   8.810   0.095   6.352 -0.6151  0.6293 -0.0860
  543MOL0     C73176   8.694   0.180   6.374 -0.4116  0.4599 -0.3552
  543MOL0     C73177   8.566   0.112   6.360  0.4731  0.5686  1.0944
  543MOL0     O73178   8.452   0.188   6.365 -0.1979 -0.1616 -0.4175
  543MOL0     C73179   8.336   0.132   6.303  0.0139  0.0748  0.0810
  543MOL0     C73180   8.209   0.225   6.307 -0.0692  0.0801 -0.1428
  543MOL0     C73181   8.193   0.309   6.437  0.0819  0.1569  0.1249
  543MOL0     C73182   8.193   0.224   6.569 -0.3852  0.1050 -0.2014
  543MOL0     C73183   8.093   0.268   6.677  1.8162 -0.6818 -0.2880
  543MOL0     C73184   7.953   0.199   6.673 -0.3589 -0.2252 -0.8662
  543MOL0     C73185   7.856   0.253   6.781  1.1069 -0.5451  0.3998
  543MOL0     C73186   7.710   0.225   6.733 -0.0208 -1.2826 -0.2068
  543MOL0     N73187   7.601   0.243   6.831  1.2546  0.0787 -0.1700
  543MOL0     C73188   7.468   0.256   6.795  1.3125 -0.8365 -0.1933
  543MOL0     C73189   7.405   0.280   6.911 -0.7247  0.0728  0.1673
  543MOL0     C73190   7.257   0.312   6.932 -0.2821  0.5128  1.3051
  543MOL0     C73191   7.240   0.457   6.967 -1.0775 -0.0095 -0.5204
  543MOL0     C73192   7.100   0.500   7.002 -0.2011 -0.3954 -0.2976
  543MOL0     C73193   7.038   0.430   7.119  0.0028  0.7038  0.4499
  543MOL0     O73194   6.893   0.453   7.140  0.1327  0.4982  0.0305
  543MOL0     C73195   6.859   0.589   7.120 -0.0992  0.6198  1.4322
  543MOL0     C73196   6.741   0.605   7.045 -0.7343  0.9024  0.1804
  543MOL0     C73197   6.698   0.730   6.999  0.9228 -0.3354  1.0017
  543MOL0     C73198   6.578   0.723   6.903  0.0088 -0.1624  0.2623
  543MOL0     C73199   6.759   0.850   7.035  0.8823 -0.3087 -0.6810
  543MOL0     C73200   6.721   0.991   6.994  0.2822  0.2001  0.0809
  543MOL0     O73201   6.813   1.082   7.025  0.9246 -0.8743 -0.6941
  543MOL0     C73202   6.776   1.214   7.034  0.6426  0.0913 -0.2454
  543MOL0     C73203   6.700   1.258   7.152 -0.4929  0.3702  1.0680
  543MOL0     C73204   6.679   1.399   7.158  0.4850 -0.0534  0.0243
  543MOL0     C73205   6.728   1.488   7.062 -1.1231  0.2673  0.7131
  543MOL0     O73206   6.702   1.614   7.054  0.0500 -0.4208 -0.2909
  543MOL0     C73207   6.558   1.631   7.033  0.1603 -1.4170  0.1091
  543MOL0     C73208   6.529   1.769   6.958 -0.0686  0.4304  0.4190
  543MOL0     C73209   6.602   1.800   6.824  0.4005 -0.6202 -0.6645
  543MOL0     C73210   6.591   1.955   6.802 -1.2928  0.6318  0.5585
  543MOL0     C73211   6.588   2.010   6.655 -0.0782 -0.0501 -0.0376
  543MOL0     C73212   6.720   1.966   6.580  0.0961  0.6036  0.5567
  543MOL0     C73213   6.847   2.043   6.603 -0.6940  0.2364  0.2062
  543MOL0     C73214   6.956   1.969   6.534 -0.5268 -0.5204  0.4391
  543MOL0    Cl73215   6.907   1.951   6.353  0.1035 -0.3057 -0.5098
  543MOL0     C73216   6.813   1.437   6.963 -0.0785 -0.1978  0.2697
  543MOL0     C73217   6.836   1.302   6.953  0.0260  0.1504 -0.1988
  543MOL0     O73218   6.611   1.009   6.935  0.2725 -0.2849 -0.5000
  543MOL0     C73219   6.875   0.826   7.113  0.4557 -0.6008 -0.3332
  543MOL0     C73220   6.917   0.704   7.160  0.5698 -0.5825  0.3034
  543MOL0     N73221   7.497   0.274   7.013  0.2920  0.6873 -0.0034
  543MOL0     N73222   7.613   0.244   6.973 -0.2585 -0.3232 -0.5629
  543MOL0     C73223   8.565  -0.025   6.350 -0.3617  0.5825 -0.5376
  543MOL0     C73224   8.677  -0.099   6.336 -0.2431 -0.8542 -0.1285
  543MOL0     C73225   9.115  -0.164   6.150 -0.0969  0.1720 -0.6148
  543MOL0     C73226   9.135  -0.294   6.194  0.0208  0.0522 -0.4643
  543MOL0     C73227   9.255  -0.360   6.164 -0.1750  0.2270 -0.0739
  543MOL0     C73228   9.344  -0.315   6.063 -0.3577  0.1154 -1.2438
  543MOL0     O73229   9.433  -0.408   6.007 -0.1740  0.4157 -0.2279
  543MOL0     C73230   9.465  -0.385   5.870  0.3712  0.4579  0.3617
  543MOL0     C73231   9.607  -0.319   5.858  0.0527  0.3739 -0.2300
  543MOL0     C73232   9.652  -0.290   5.715  0.7692 -0.4710  0.0174
  543MOL0     C73233   9.734  -0.158   5.691  0.8828 -0.7003 -0.0843
  543MOL0     C73234   9.651  -0.044   5.733  0.0111  0.3887  0.1922
  543MOL0     C73235   9.575   0.045   5.771 -0.0657  0.4196  0.4815
  543MOL0     C73236   9.322  -0.188   6.025 -1.0864  0.5202 -0.5611
  543MOL0     C73237   9.217  -0.107   6.065  0.5504 -0.3257 -0.4347
  543MOL0     H73238   8.910   0.137   6.355 -1.5331  2.9347 -0.2798
  543MOL0     H73239   8.699   0.282   6.411  1.1823  0.3815 -0.3064
  543MOL0     H73240   8.350   0.086   6.205 -1.8494 -0.0634 -0.1494
  543MOL0     H73241   8.303   0.048   6.366 -2.8615  0.5622 -0.6413
  543MOL0     H73242   8.206   0.296   6.224 -5.1496  1.6954  1.0780
  543MOL0     H73243   8.117   0.167   6.291 -0.5648  0.9533 -0.5363
  543MOL0     H73244   8.279   0.375   6.426 -1.2382  2.3633  2.0766
  543MOL0     H73245   8.105   0.374   6.440  2.3041  3.4068  0.1760
  543MOL0     H73246   8.167   0.120   6.545 -2.4872 -0.3101  3.2488
  543MOL0     H73247   8.293   0.212   6.611 -0.7819 -2.6399  0.1427
  543MOL0     H73248   8.135   0.240   6.774 -0.2152 -0.9201  0.5735
  543MOL0     H73249   8.068   0.375   6.674 -1.0284 -1.1505  2.0456
  543MOL0     H73250   7.919   0.200   6.570 -1.7378 -0.4340 -0.4302
  543MOL0     H73251   7.976   0.096   6.701  3.8045  0.8120  0.2187
  543MOL0     H73252   7.871   0.200   6.876  0.9402 -2.4034 -0.5622
  543MOL0     H73253   7.876   0.360   6.783 -0.6913 -0.1823  1.3710
  543MOL0     H73254   7.710   0.118   6.710  2.1699 -1.5455  0.8404
  543MOL0     H73255   7.697   0.277   6.637  0.8650 -3.9307 -1.8909
  543MOL0     H73256   7.431   0.264   6.693  2.4056  0.3037 -0.5302
  543MOL0     H73257   7.194   0.281   6.848  0.8585 -0.1034  0.6605
  543MOL0     H73258   7.219   0.252   7.015 -4.7836  2.9489  1.3507
  543MOL0     H73259   7.283   0.511   6.882  0.8280 -2.4122 -1.1763
  543MOL0     H73260   7.305   0.466   7.055 -2.1826 -4.1675  0.9307
  543MOL0     H73261   7.036   0.487   6.914  1.2495  2.9756 -2.0446
  543MOL0     H73262   7.114   0.606   7.022  2.9092 -0.6566 -0.5919
  543MOL0     H73263   7.095   0.458   7.208  0.6090  0.9485 -0.0148
  543MOL0     H73264   7.047   0.322   7.106 -1.9440  0.3547  1.6122
  543MOL0     H73265   6.705   0.507   7.015  1.3430 -1.0792  3.6151
  543MOL0     H73266   6.619   0.738   6.803  1.7152  2.4327  1.2551
  543MOL0     H73267   6.528   0.626   6.910  0.8068 -0.7500 -1.5956
  543MOL0     H73268   6.498   0.793   6.930 -0.2974 -0.1058 -0.7266
  543MOL0     H73269   6.654   1.193   7.225 -0.6864 -0.7549 -0.0136
  543MOL0     H73270   6.610   1.430   7.235 -1.8808  1.6912 -2.5912
  543MOL0     H73271   6.508   1.557   6.971  0.4482 -0.6121 -1.1173
  543MOL0     H73272   6.498   1.638   7.125  0.3575 -4.7552  0.5846
  543MOL0     H73273   6.421   1.769   6.939 -0.0700 -0.2320  0.3955
  543MOL0     H73274   6.557   1.838   7.038  0.0748  1.5167 -0.5364
  543MOL0     H73275   6.538   1.750   6.750 -1.4357  0.8174 -0.1169
  543MOL0     H73276   6.702   1.756   6.817  0.2144 -1.3954  0.9551
  543MOL0     H73277   6.498   1.987   6.850 -1.2412 -0.7345  1.5941
  543MOL0     H73278   6.676   2.008   6.848  1.3284 -2.5055 -0.2924
  543MOL0     H73279   6.575   2.118   6.650 -0.7451 -0.1903 -2.1304
  543MOL0     H73280   6.508   1.971   6.591  1.9260  0.5375 -3.1237
  543MOL0     H73281   6.743   1.860   6.596  0.5947  0.1725 -2.3856
  543MOL0     H73282   6.699   1.976   6.473  2.1596 -2.3080 -0.2540
  543MOL0     H73283   6.866   2.052   6.710 -1.7429 -2.2994  0.6674
  543MOL0     H73284   6.821   2.141   6.561 -1.6692 -1.3074 -3.1583
  543MOL0     H73285   6.993   1.880   6.585  1.0567  0.2279  0.6640
  543MOL0     H73286   7.048   2.029   6.540  0.7172 -2.4921  3.9705
  543MOL0     H73287   6.873   1.503   6.901 -0.5040 -1.0062 -1.0634
  543MOL0     H73288   6.911   1.273   6.880  1.5085  0.2029  1.2457
  543MOL0     H73289   6.930   0.905   7.163  0.4410 -3.2037  4.3972
  543MOL0     H73290   7.003   0.698   7.226 -0.1409 -3.6508  1.0780
  543MOL0     H73291   8.472  -0.079   6.339  0.3041 -0.7021  0.0024
  543MOL0     H73292   8.666  -0.205   6.318  0.1245 -1.2958  1.9013
  543MOL0     H73293   9.058  -0.351   6.244  0.8502 -1.2029 -0.5890
  543MOL0     H73294   9.260  -0.461   6.202  1.4463  0.9027  1.7350
  543MOL0     H73295   9.483  -0.487   5.834 -3.6461  0.2557 -1.7153
  543MOL0     H73296   9.390  -0.332   5.811 -2.1923 -1.4293  1.7440
  543MOL0     H73297   9.691  -0.371   5.905  0.5383  2.2693  1.0993
  543MOL0     H73298   9.588  -0.228   5.915  0.1551 -0.7865  1.7552
  543MOL0     H73299   9.560  -0.283   5.657  1.3480  0.0391 -0.8562
  543MOL0     H73300   9.696  -0.383   5.679  2.4202  1.0251 -2.1155
  543MOL0     H73301   9.767  -0.158   5.587 -0.9101 -0.0044 -0.6905
  543MOL0     H73302   9.825  -0.162   5.751  1.1955  1.7079 -0.3050
  543MOL0     H73303   9.516   0.132   5.790 -2.1591 -0.6664 -0.6543
  543MOL0     H73304   9.391  -0.142   5.955  1.2257 -0.2972  1.0593
  543MOL0     H73305   9.195  -0.007   6.031 -1.4965 -0.1950  1.1124
  544MOL0     O73306   0.706   2.298   8.506 -0.5917  0.2216  0.1030
  544MOL0     C73307   0.695   2.264   8.626 -0.7627  0.0556  0.1429
  544MOL0     O73308   0.691   2.352   8.732 -1.0162 -0.4986 -0.1044
  544MOL0     C73309   0.686   2.490   8.700 -0.1094  0.5069 -0.1067
  544MOL0     C73310   0.804   2.566   8.707 -0.2295 -0.4266  0.5279
  544MOL0     C73311   0.801   2.702   8.675 -0.2016  0.1740 -0.0466
  544MOL0     C73312   0.689   2.762   8.613 -0.5845 -0.5172 -1.1845
  544MOL0     O73313   0.667   2.894   8.595 -0.1735 -0.6860  1.3108
  544MOL0     C73314   0.775   2.983   8.595 -0.8090 -0.5182  0.1962
  544MOL0     C73315   0.809   3.009   8.445  0.8592 -0.3305  0.5497
  544MOL0     C73316   0.690   3.058   8.362  0.8082  0.2911 -0.2923
  544MOL0     C73317   0.725   3.089   8.214 -1.6672  0.0699 -0.2591
  544MOL0     C73318   0.597   3.101   8.130 -0.2147 -0.8635 -0.3139
  544MOL0     C73319   0.479   3.161   8.205 -0.6604  0.1117 -0.4148
  544MOL0     C73320   0.354   3.188   8.118  0.7051  0.2663  0.4854
  544MOL0     C73321   0.239   3.279   8.177 -0.4126 -0.0965 -0.4439
  544MOL0     N73322   0.293   3.410   8.221  0.0884  0.1529 -0.1263
  544MOL0     C73323   0.365   3.491   8.139 -0.0360  0.2118  0.7255
  544MOL0     C73324   0.436   3.565   8.229 -0.2324  1.2155 -0.2348
  544MOL0     C73325   0.531   3.671   8.183 -0.2017 -0.8319  0.3282
  544MOL0     C73326   0.670   3.610   8.150  0.8345  0.4423 -0.3225
  544MOL0     C73327   0.783   3.722   8.160  0.6672  0.1770 -0.9140
  544MOL0     C73328   0.855   3.724   8.302  0.4719 -0.8766  0.7562
  544MOL0     O73329   0.991   3.727   8.262 -0.0899  0.5065  0.6969
  544MOL0     C73330   1.084   3.713   8.363 -0.2588  0.6376 -0.0598
  544MOL0     C73331   1.058   3.701   8.501 -0.4995 -0.3281 -0.0286
  544MOL0     C73332   1.152   3.695   8.589 -0.3655  0.0895  0.0834
  544MOL0     C73333   1.116   3.724   8.729  0.1594  0.6084  0.2809
  544MOL0     C73334   1.291   3.682   8.545 -0.7646  0.0432 -0.3289
  544MOL0     C73335   1.402   3.660   8.642  0.8711  0.4095 -0.4392
  544MOL0     O73336   1.373   3.611   8.765  0.0558 -0.4280 -0.4097
  544MOL0     C73337   1.478   3.574   8.844  0.8454  0.0688 -0.2482
  544MOL0     C73338   1.491   3.443   8.886  0.0514 -0.3134  0.1815
  544MOL0     C73339   1.595   3.406   8.971  0.0238 -0.2890  0.5620
  544MOL0     C73340   1.694   3.505   8.997  0.4778  0.6821 -0.0976
  544MOL0     O73341   1.812   3.484   9.056  0.0788  0.0353 -0.4855
  544MOL0     C73342   1.812   3.408   9.179 -0.3215 -0.8881 -0.2878
  544MOL0     C73343   1.732   3.448   9.294 -0.0178  0.6135  0.1122
  544MOL0     C73344   1.766   3.596   9.334 -0.3247 -1.0684 -0.3761
  544MOL0     C73345   1.708   3.638   9.475 -0.1035 -0.9959 -0.2668
  544MOL0     C73346   1.727   3.784   9.520  0.5231 -0.2313 -0.2579
  544MOL0     C73347   1.634   3.818   9.627  0.7681 -0.2462  0.3195
  544MOL0     C73348   1.659   3.952   9.697 -0.3270  0.6275 -0.4375
  544MOL0     C73349   1.755   3.941   9.817  0.2631  0.5501 -0.8898
  544MOL0    Cl73350   1.751   4.092   9.905  0.2713  0.6142 -0.1031
  544MOL0     C73351   1.682   3.639   8.952 -0.1431 -0.1262  0.6939
  544MOL0     C73352   1.568   3.677   8.876  0.6792  0.2693  0.0384
  544MOL0     O73353   1.510   3.698   8.608  0.4823  0.0801  0.7592
  544MOL0     C73354   1.322   3.673   8.406  0.8718 -0.2079  0.2949
  544MOL0     C73355   1.218   3.697   8.316 -0.4875  0.0867 -0.0437
  544MOL0     N73356   0.412   3.538   8.355 -0.2857  0.3100 -0.3521
  544MOL0     N73357   0.322   3.448   8.350 -0.1638 -0.6391  0.3264
  544MOL0     C73358   0.573   2.685   8.594 -0.1975 -0.0225 -1.0292
  544MOL0     C73359   0.572   2.555   8.647  0.7338  0.5368 -0.0278
  544MOL0     C73360   0.669   2.118   8.659  0.0184  0.1743  0.4583
  544MOL0     C73361   0.693   2.082   8.789  0.1297 -0.5520 -0.9622
  544MOL0     C73362   0.667   1.955   8.835 -0.6323 -0.2297 -0.0450
  544MOL0     C73363   0.603   1.860   8.750 -0.6356  0.2528  0.3125
  544MOL0     O73364   0.582   1.728   8.790  0.3923  0.1851  0.6533
  544MOL0     C73365   0.685   1.662   8.872 -0.0549 -0.0957  0.2865
  544MOL0     C73366   0.776   1.567   8.793  1.1358 -0.0979 -0.0600
  544MOL0     C73367   0.686   1.452   8.731  0.3924  0.4989  0.1720
  544MOL0     C73368   0.766   1.339   8.666  0.3484 -1.2908  0.0107
  544MOL0     C73369   0.836   1.385   8.546 -0.0042  0.1119  0.3945
  544MOL0     C73370   0.875   1.449   8.448 -0.7837  0.0616  0.0858
  544MOL0     C73371   0.572   1.894   8.620 -0.5840  0.4455 -0.0767
  544MOL0     C73372   0.599   2.020   8.570  0.0628 -0.5406 -0.2559
  544MOL0     H73373   0.888   2.511   8.750 -0.1895 -1.1701 -0.4793
  544MOL0     H73374   0.891   2.756   8.702 -2.3111  2.9190  2.0914
  544MOL0     H73375   0.745   3.073   8.649 -0.4509  0.0003 -0.4631
  544MOL0     H73376   0.871   2.950   8.637 -0.1185  1.7646  0.5289
  544MOL0     H73377   0.882   3.090   8.439  2.0119 -1.1845  2.3464
  544MOL0     H73378   0.858   2.922   8.403  0.1684  0.5460 -2.2868
  544MOL0     H73379   0.633   2.965   8.364  1.8550 -0.3549  0.6295
  544MOL0     H73380   0.640   3.139   8.416 -0.7474 -2.0854  2.1179
  544MOL0     H73381   0.787   3.177   8.195  0.8931 -1.6233 -0.4007
  544MOL0     H73382   0.797   3.008   8.199  0.8805  1.5448  2.8798
  544MOL0     H73383   0.621   3.160   8.041 -1.9929 -0.1338 -0.3460
  544MOL0     H73384   0.561   3.007   8.086  5.4324 -3.2313 -0.7638
  544MOL0     H73385   0.448   3.089   8.281  1.9950  2.0514  2.7538
  544MOL0     H73386   0.504   3.253   8.258  0.1003 -0.9473  1.1560
  544MOL0     H73387   0.382   3.230   8.021  1.6038  2.5278  1.6496
  544MOL0     H73388   0.320   3.091   8.081  0.5174  0.7584 -0.6645
  544MOL0     H73389   0.195   3.226   8.262 -0.3264  3.2753  1.8755
  544MOL0     H73390   0.158   3.286   8.104  0.4899 -2.6248 -1.8563
  544MOL0     H73391   0.365   3.513   8.033 -1.1466  2.7736  1.1955
  544MOL0     H73392   0.481   3.725   8.102  1.9582  0.2058 -0.4093
  544MOL0     H73393   0.551   3.737   8.268  1.9226 -2.4625  1.2106
  544MOL0     H73394   0.665   3.557   8.055  0.8577 -0.8957  0.3899
  544MOL0     H73395   0.698   3.529   8.218 -0.1889 -0.9977 -1.5615
  544MOL0     H73396   0.743   3.818   8.126  0.2047 -0.3006 -1.7770
  544MOL0     H73397   0.854   3.694   8.081  1.0838  1.0701 -0.8598
  544MOL0     H73398   0.852   3.628   8.355  2.3321 -1.8545 -0.7715
  544MOL0     H73399   0.822   3.801   8.371 -2.6688 -0.7166 -0.7257
  544MOL0     H73400   0.956   3.716   8.537 -0.7706 -1.8458 -0.1032
  544MOL0     H73401   1.176   3.809   8.762 -1.9502  1.0167  3.6179
  544MOL0     H73402   1.011   3.754   8.734  0.7368  2.8075  0.3572
  544MOL0     H73403   1.141   3.643   8.798  0.0221 -1.8059 -2.3156
  544MOL0     H73404   1.417   3.370   8.853 -0.2207  0.2857 -0.5782
  544MOL0     H73405   1.601   3.299   8.991 -3.3721 -0.7807 -0.3422
  544MOL0     H73406   1.772   3.311   9.151  0.4901 -1.8161  1.5687
  544MOL0     H73407   1.912   3.378   9.211 -0.4777 -2.7163 -1.4039
  544MOL0     H73408   1.626   3.442   9.266 -0.4172  0.7819  1.5235
  544MOL0     H73409   1.755   3.376   9.372  1.7402  0.3083 -0.6618
  544MOL0     H73410   1.724   3.656   9.253  0.8798 -0.3350 -0.4717
  544MOL0     H73411   1.872   3.620   9.334 -0.2678 -0.4029  3.9797
  544MOL0     H73412   1.602   3.612   9.478 -0.1395 -0.7919  2.0671
  544MOL0     H73413   1.770   3.583   9.547  1.1399 -0.6795 -1.0583
  544MOL0     H73414   1.723   3.861   9.442  5.0290  0.6558  0.1159
  544MOL0     H73415   1.825   3.804   9.564 -0.7230  6.6537  0.6007
  544MOL0     H73416   1.529   3.812   9.595  0.1947  2.0919  1.5320
  544MOL0     H73417   1.646   3.740   9.702  1.1543 -0.2012  0.3073
  544MOL0     H73418   1.567   3.988   9.745 -1.1999  0.0584 -1.6345
  544MOL0     H73419   1.687   4.033   9.630 -0.2205  1.3858  0.5062
  544MOL0     H73420   1.848   3.887   9.794 -0.3671 -1.2927  0.6206
  544MOL0     H73421   1.704   3.883   9.895  2.1113  3.4021  2.7592
  544MOL0     H73422   1.750   3.712   8.994  0.0180  1.9734 -2.8057
  544MOL0     H73423   1.543   3.778   8.844 -1.3803 -0.4522 -0.7977
  544MOL0     H73424   1.421   3.641   8.375 -0.5173 -4.6785 -0.1899
  544MOL0     H73425   1.231   3.674   8.211  0.9960 -2.1595  0.5581
  544MOL0     H73426   0.483   2.735   8.559 -0.1132  0.0502 -1.1431
  544MOL0     H73427   0.482   2.496   8.634 -0.2047  1.6904  0.9855
  544MOL0     H73428   0.753   2.147   8.851  2.3299  0.0994 -3.5892
  544MOL0     H73429   0.695   1.933   8.937  0.1535  0.3647 -0.1281
  544MOL0     H73430   0.751   1.737   8.917 -0.5641  0.6322 -0.1781
  544MOL0     H73431   0.630   1.597   8.941 -0.8669 -1.8530 -1.9056
  544MOL0     H73432   0.846   1.517   8.861 -0.8383  0.5956  2.6504
  544MOL0     H73433   0.828   1.638   8.727  2.1145  2.6567  3.3648
  544MOL0     H73434   0.614   1.489   8.657  0.9573  0.4454 -0.4109
  544MOL0     H73435   0.625   1.394   8.800 -0.6762 -0.7339 -1.7029
  544MOL0     H73436   0.691   1.270   8.627  0.9508 -2.5632  1.0300
  544MOL0     H73437   0.825   1.290   8.743  0.9781  0.0875  0.4462
  544MOL0     H73438   0.916   1.506   8.368 -1.7438  3.3588  1.7672
  544MOL0     H73439   0.539   1.810   8.559 -0.1656 -0.2929  0.6944
  544MOL0     H73440   0.579   2.032   8.464 -2.8250  2.1195  0.4416
  545MOL0     O73441   5.061   4.503   7.095  0.8279 -0.7638  0.0794
  545MOL0     C73442   5.047   4.407   7.171  0.0782 -0.6376 -0.7527
  545MOL0     O73443   5.094   4.277   7.160 -0.1899 -0.3397 -0.2588
  545MOL0     C73444   5.147   4.229   7.042 -0.1905 -1.4657 -0.7443
  545MOL0     C73445   5.276   4.161   7.035  0.3332  0.8911 -0.3064
  545MOL0     C73446   5.317   4.097   6.919 -0.6234  0.4476  0.0801
  545MOL0     C73447   5.236   4.095   6.798  0.3273 -0.4122 -0.8305
  545MOL0     O73448   5.289   4.036   6.684 -0.1108 -0.4456  0.7139
  545MOL0     C73449   5.205   4.006   6.571  0.7069  0.7666 -0.3525
  545MOL0     C73450   5.209   4.102   6.455 -0.0309  0.3035  0.6386
  545MOL0     C73451   5.128   4.048   6.330  0.2497  0.0067 -0.8678
  545MOL0     C73452   5.199   3.942   6.263 -0.5076  0.4857  0.0700
  545MOL0     C73453   5.131   3.894   6.133 -0.9727  0.1312  0.0946
  545MOL0     C73454   5.156   3.742   6.131  0.4549  0.2689  0.3384
  545MOL0     C73455   5.131   3.684   5.993 -0.1602  0.4002 -0.5068
  545MOL0     C73456   5.145   3.528   5.987 -0.2323  0.2118  0.3021
  545MOL0     N73457   5.113   3.469   5.848 -0.3265  0.5575  0.4201
  545MOL0     C73458   5.138   3.516   5.723  0.2952 -0.1020  0.4438
  545MOL0     C73459   5.059   3.441   5.641 -0.0040  0.0796  0.2822
  545MOL0     C73460   5.041   3.440   5.498 -0.1140  0.7464  0.6405
  545MOL0     C73461   4.906   3.403   5.450  0.0982  1.0640 -0.0330
  545MOL0     C73462   4.813   3.518   5.430  0.2267  1.5707  0.0031
  545MOL0     C73463   4.774   3.595   5.552  0.3921  0.2625 -0.6263
  545MOL0     O73464   4.712   3.501   5.643 -0.3761 -0.7926  0.5337
  545MOL0     C73465   4.691   3.520   5.775  0.1596 -0.5808 -0.0537
  545MOL0     C73466   4.680   3.420   5.869  0.1658  0.2710 -0.9403
  545MOL0     C73467   4.662   3.431   6.001  0.0815 -1.0083 -0.2806
  545MOL0     C73468   4.663   3.306   6.087  0.4781 -1.4432 -0.6306
  545MOL0     C73469   4.666   3.565   6.054 -0.6252  0.4537 -0.1470
  545MOL0     C73470   4.652   3.596   6.199 -0.1472 -0.4931  0.2569
  545MOL0     O73471   4.661   3.730   6.211  0.6952  0.8963 -0.1269
  545MOL0     C73472   4.706   3.805   6.320 -0.1823 -0.6491  0.1158
  545MOL0     C73473   4.791   3.758   6.424  0.7664  0.5471  0.5714
  545MOL0     C73474   4.835   3.839   6.523  0.2512 -0.5838  0.6881
  545MOL0     C73475   4.793   3.980   6.523 -0.0799  0.8344 -0.2340
  545MOL0     O73476   4.828   4.065   6.628  0.2814  0.1812  0.3065
  545MOL0     C73477   4.718   4.095   6.717 -0.2973  0.6836 -0.3618
  545MOL0     C73478   4.750   4.032   6.857 -0.7789  0.2616 -0.4171
  545MOL0     C73479   4.668   4.099   6.968 -0.0856 -0.4752 -0.9316
  545MOL0     C73480   4.752   4.202   7.050  0.8811 -0.3036  0.3437
  545MOL0     C73481   4.695   4.222   7.192 -0.8738  0.0845  0.4007
  545MOL0     C73482   4.566   4.301   7.205 -0.4610 -0.0808  0.6412
  545MOL0     C73483   4.536   4.353   7.344 -0.2240  0.3379  0.3589
  545MOL0     C73484   4.512   4.235   7.439  1.0093  0.4626  0.6330
  545MOL0    Cl73485   4.450   4.306   7.593 -0.3882  0.9764 -0.2722
  545MOL0     C73486   4.714   4.029   6.417 -1.0451 -1.0827  0.2700
  545MOL0     C73487   4.675   3.939   6.315 -0.1036 -0.7414 -0.0114
  545MOL0     O73488   4.656   3.518   6.291  0.5648  0.8072 -0.0192
  545MOL0     C73489   4.670   3.669   5.967  0.9583 -0.5133  0.7883
  545MOL0     C73490   4.684   3.647   5.830  0.0659  0.8810 -0.6094
  545MOL0     N73491   4.997   3.346   5.711 -0.0935  1.1782  0.0891
  545MOL0     N73492   5.019   3.368   5.834 -0.3826  0.5080  0.1985
  545MOL0     C73493   5.120   4.183   6.800  0.6848  0.1337 -0.7506
  545MOL0     C73494   5.075   4.241   6.918 -0.5951 -0.7690 -0.7872
  545MOL0     C73495   4.963   4.440   7.291 -0.3383 -0.1519  1.5698
  545MOL0     C73496   4.966   4.348   7.391 -0.7731  0.1504 -0.3244
  545MOL0     C73497   4.885   4.385   7.509  0.6306 -0.1712  0.0419
  545MOL0     C73498   4.825   4.507   7.524 -0.0285 -0.0453 -0.2576
  545MOL0     O73499   4.767   4.532   7.653 -0.1659 -0.5760  0.4144
  545MOL0     C73500   4.740   4.670   7.694 -0.4040 -0.1758 -0.3465
  545MOL0     C73501   4.701   4.679   7.841  0.8263 -0.5235  0.1743
  545MOL0     C73502   4.562   4.646   7.866  0.1255  0.6274 -0.0591
  545MOL0     C73503   4.525   4.677   8.012 -0.6673  0.6443  0.2208
  545MOL0     C73504   4.376   4.690   8.015  0.6553 -0.4545 -0.1284
  545MOL0     C73505   4.258   4.716   8.025  0.1164  0.6494  1.0173
  545MOL0     C73506   4.821   4.595   7.415  0.2226 -0.0772  0.0825
  545MOL0     C73507   4.886   4.557   7.297 -0.2278  0.3241 -0.1019
  545MOL0     H73508   5.333   4.164   7.128  1.1083  0.2725 -0.7522
  545MOL0     H73509   5.416   4.055   6.933  0.4645  0.5604 -5.1647
  545MOL0     H73510   5.234   3.905   6.540  1.0379  0.5169  0.7174
  545MOL0     H73511   5.100   3.993   6.602  1.4080 -0.5426  1.6885
  545MOL0     H73512   5.172   4.200   6.488  0.8890  0.4336  1.3349
  545MOL0     H73513   5.317   4.110   6.435 -0.5883  2.5087 -2.1277
  545MOL0     H73514   5.035   4.009   6.373  0.2197  0.9265 -0.0643
  545MOL0     H73515   5.099   4.123   6.257  2.8338 -1.4471 -3.6237
  545MOL0     H73516   5.289   3.999   6.236 -2.8199  4.5669  0.1228
  545MOL0     H73517   5.238   3.865   6.330  1.6523  0.7290 -0.8159
  545MOL0     H73518   5.024   3.916   6.127 -1.1884 -0.8199  0.2611
  545MOL0     H73519   5.193   3.949   6.061 -2.7560  0.5537 -1.1894
  545MOL0     H73520   5.255   3.713   6.168 -0.6543 -4.5235  0.1687
  545MOL0     H73521   5.095   3.695   6.208 -2.6110  2.7905 -0.3345
  545MOL0     H73522   5.038   3.713   5.944  1.4336  1.6055 -3.0912
  545MOL0     H73523   5.194   3.719   5.910 -3.5759  0.7625 -3.1464
  545MOL0     H73524   5.082   3.476   6.059 -2.9476  1.4452 -1.0548
  545MOL0     H73525   5.250   3.498   5.993 -0.7861 -2.0421 -0.0873
  545MOL0     H73526   5.208   3.593   5.695  0.1908  0.3279  1.3159
  545MOL0     H73527   5.068   3.539   5.459 -0.8053  0.7182  0.0765
  545MOL0     H73528   5.118   3.373   5.458 -1.1316 -3.0010  4.3231
  545MOL0     H73529   4.860   3.320   5.503 -0.8944  1.8197  0.3162
  545MOL0     H73530   4.914   3.361   5.349  2.0182  2.5453 -0.5645
  545MOL0     H73531   4.723   3.461   5.403  0.1209 -0.3568  3.8240
  545MOL0     H73532   4.846   3.590   5.353 -1.0034  0.9969 -1.1049
  545MOL0     H73533   4.702   3.673   5.525  0.6968  0.2211 -1.5955
  545MOL0     H73534   4.864   3.639   5.596  2.6160 -4.1845 -0.1764
  545MOL0     H73535   4.715   3.327   5.826  1.4663  0.4430 -0.3039
  545MOL0     H73536   4.566   3.290   6.135 -1.1648  1.4667 -2.6499
  545MOL0     H73537   4.686   3.216   6.029  0.2577 -0.9472 -1.5199
  545MOL0     H73538   4.744   3.315   6.160  0.3080  2.1697 -0.7011
  545MOL0     H73539   4.829   3.656   6.425 -0.2514  0.1640  0.9611
  545MOL0     H73540   4.914   3.815   6.595  1.7758 -2.3950 -1.4490
  545MOL0     H73541   4.713   4.203   6.732  0.9024  0.8654 -1.0976
  545MOL0     H73542   4.626   4.051   6.678  0.5903 -1.7674  0.1515
  545MOL0     H73543   4.732   3.924   6.855  1.4329 -0.3651  3.5560
  545MOL0     H73544   4.858   4.045   6.872 -1.0061 -0.6717  2.6178
  545MOL0     H73545   4.626   4.027   7.039  3.7524  0.7271  3.0573
  545MOL0     H73546   4.585   4.159   6.928 -1.1449  0.3893  2.2519
  545MOL0     H73547   4.851   4.157   7.056  1.7390  1.1334 -1.8374
  545MOL0     H73548   4.744   4.303   7.007  1.3707 -0.6192 -0.5037
  545MOL0     H73549   4.778   4.271   7.244 -1.1001 -0.6877  1.5171
  545MOL0     H73550   4.686   4.120   7.230  0.7826 -1.1099 -2.1196
  545MOL0     H73551   4.562   4.380   7.129 -0.1652 -1.7340 -1.1725
  545MOL0     H73552   4.491   4.228   7.174  0.5368 -1.4733  1.4210
  545MOL0     H73553   4.446   4.410   7.318  0.1971  0.1859 -1.6211
  545MOL0     H73554   4.593   4.438   7.382 -1.2134  1.9629 -1.5462
  545MOL0     H73555   4.607   4.182   7.430  0.5687 -0.0443 -1.9594
  545MOL0     H73556   4.444   4.164   7.392  1.7767  1.0463 -1.4705
  545MOL0     H73557   4.704   4.137   6.421 -4.0793 -1.2800  0.5183
  545MOL0     H73558   4.623   3.981   6.230  1.3235  0.2221 -0.4479
  545MOL0     H73559   4.676   3.776   5.986 -1.0480 -0.4040  1.0165
  545MOL0     H73560   4.697   3.745   5.784 -2.3978  0.5529 -2.2441
  545MOL0     H73561   5.068   4.213   6.710  2.3322 -0.5319 -1.9726
  545MOL0     H73562   4.983   4.297   6.924 -0.3962 -0.5969  1.2095
  545MOL0     H73563   5.017   4.253   7.375  1.1942  1.1557 -0.4016
  545MOL0     H73564   4.895   4.311   7.587  0.8445 -0.1695  0.0162
  545MOL0     H73565   4.833   4.726   7.679 -0.7771  0.1007 -1.8376
  545MOL0     H73566   4.667   4.718   7.628 -1.8359  1.1766  2.1080
  545MOL0     H73567   4.721   4.782   7.871  1.9419 -0.1733 -1.6707
  545MOL0     H73568   4.769   4.608   7.888  0.0008 -1.6316 -0.2515
  545MOL0     H73569   4.550   4.538   7.851  0.5048  1.0141 -3.9287
  545MOL0     H73570   4.495   4.692   7.794 -1.4192 -1.7261 -0.2258
  545MOL0     H73571   4.581   4.765   8.044 -0.6716  0.4914  0.6541
  545MOL0     H73572   4.550   4.592   8.076 -1.6556 -1.2758 -1.8045
  545MOL0     H73573   4.153   4.737   8.027  0.1747  0.8819  2.0613
  545MOL0     H73574   4.776   4.693   7.415  0.2289 -0.0700 -0.5010
  545MOL0     H73575   4.903   4.629   7.217  2.2148 -2.4754 -2.3557
  546MOL0     O73576   5.583   0.135   8.470  0.4677  0.6542  0.3463
  546MOL0     C73577   5.502   0.166   8.554 -0.2060 -0.7893  0.2310
  546MOL0     O73578   5.369   0.197   8.531 -0.7869 -0.3991  0.3907
  546MOL0     C73579   5.315   0.208   8.404 -0.7636  0.2086  0.4705
  546MOL0     C73580   5.179   0.185   8.394  0.4893 -0.4668  0.8535
  546MOL0     C73581   5.116   0.213   8.269 -0.2715 -0.4774  0.3040
  546MOL0     C73582   5.181   0.255   8.152 -0.5529 -0.5148 -0.2409
  546MOL0     O73583   5.107   0.273   8.035 -0.0156  0.1817 -0.1263
  546MOL0     C73584   5.158   0.374   7.949 -0.3058  0.3170 -0.1681
  546MOL0     C73585   5.056   0.412   7.840  0.5115  0.0376  0.2630
  546MOL0     C73586   5.128   0.502   7.738 -0.9974 -0.1055  0.3596
  546MOL0     C73587   5.042   0.612   7.702 -0.3199 -0.2101 -0.1613
  546MOL0     C73588   5.101   0.724   7.602  0.3404 -0.5843 -0.1018
  546MOL0     C73589   5.005   0.823   7.536  0.1537  0.5214 -0.7860
  546MOL0     C73590   4.898   0.753   7.451  0.3621  0.3985 -0.5509
  546MOL0     C73591   4.961   0.688   7.326  0.6604  0.2213 -0.9934
  546MOL0     N73592   4.847   0.652   7.236 -0.4645  0.4700  0.7998
  546MOL0     C73593   4.776   0.538   7.259 -0.7779  0.1313 -0.2815
  546MOL0     C73594   4.695   0.528   7.149 -0.4408 -0.6062 -0.2321
  546MOL0     C73595   4.590   0.425   7.124 -0.5482  0.1935  0.5815
  546MOL0     C73596   4.518   0.383   7.251  0.2670  1.0134  0.5466
  546MOL0     C73597   4.418   0.483   7.316  0.2193  0.1485  0.0643
  546MOL0     C73598   4.465   0.623   7.338 -0.1238 -0.2496  0.7082
  546MOL0     O73599   4.557   0.610   7.444  0.2379  0.3425 -0.2562
  546MOL0     C73600   4.571   0.711   7.533 -0.3378 -0.4646  0.3125
  546MOL0     C73601   4.606   0.669   7.657  0.0019  0.3764 -0.0925
  546MOL0     C73602   4.637   0.749   7.767 -0.0190  0.0472  0.1673
  546MOL0     C73603   4.663   0.682   7.891  0.3317  0.4973 -0.4258
  546MOL0     C73604   4.640   0.892   7.745  0.1754 -0.6469 -0.1516
  546MOL0     C73605   4.686   0.990   7.848  0.0799 -0.1696  0.9994
  546MOL0     O73606   4.677   1.120   7.809 -0.0121  0.1716 -0.3772
  546MOL0     C73607   4.762   1.220   7.861  0.9305 -0.3426  0.0153
  546MOL0     C73608   4.850   1.220   7.976  0.7273  1.4947 -0.1484
  546MOL0     C73609   4.916   1.338   8.007 -0.6072  0.1476 -0.7002
  546MOL0     C73610   4.898   1.460   7.936 -0.8819 -1.0201  0.9609
  546MOL0     O73611   4.955   1.576   7.978  0.2019 -0.8952 -0.3118
  546MOL0     C73612   4.876   1.637   8.079 -0.6203 -0.1271 -0.4371
  546MOL0     C73613   4.744   1.700   8.029 -0.4148  0.1180 -0.6779
  546MOL0     C73614   4.670   1.771   8.135 -0.3993 -0.0026  0.5477
  546MOL0     C73615   4.666   1.708   8.276  0.1087 -0.2599  0.2358
  546MOL0     C73616   4.589   1.795   8.374 -0.3321 -0.3124 -0.5521
  546MOL0     C73617   4.635   1.754   8.513  0.1024 -0.5729  0.3512
  546MOL0     C73618   4.606   1.863   8.613  0.0689 -0.9801  0.2715
  546MOL0     C73619   4.451   1.875   8.614  0.2378  0.3362 -0.8625
  546MOL0    Cl73620   4.416   2.015   8.709  0.1481  0.3430  0.0162
  546MOL0     C73621   4.812   1.459   7.830  0.2246 -1.2721 -1.2084
  546MOL0     C73622   4.741   1.339   7.798 -0.6024  0.2473 -0.4624
  546MOL0     O73623   4.755   0.941   7.933  0.1879 -0.5498 -0.7484
  546MOL0     C73624   4.588   0.935   7.619 -0.0227  0.2956 -0.8222
  546MOL0     C73625   4.559   0.844   7.521 -0.3076 -0.5837  0.5772
  546MOL0     N73626   4.744   0.631   7.061 -0.1129 -0.0307  0.3133
  546MOL0     N73627   4.834   0.701   7.116 -0.0994  0.2870  0.6635
  546MOL0     C73628   5.325   0.284   8.163  0.5659 -0.4355 -0.3765
  546MOL0     C73629   5.390   0.248   8.290  0.2922 -1.4893  1.2838
  546MOL0     C73630   5.549   0.170   8.690  1.1036  0.9427 -0.0286
  546MOL0     C73631   5.674   0.114   8.722  0.0922  0.8477 -0.0957
  546MOL0     C73632   5.712   0.088   8.854  0.4425 -1.2315  0.1168
  546MOL0     C73633   5.627   0.135   8.966  0.7440  0.3210  0.1182
  546MOL0     O73634   5.665   0.099   9.094  0.1097  1.0407  0.2435
  546MOL0     C73635   5.580   0.152   9.207 -0.0146  0.4950  0.5609
  546MOL0     C73636   5.637   0.095   9.342 -1.0668 -0.7624  0.0445
  546MOL0     C73637   5.574  -0.033   9.375 -0.3161  0.3976 -0.4830
  546MOL0     C73638   5.578  -0.095   9.517  0.8314 -0.0133  0.1845
  546MOL0     C73639   5.511  -0.003   9.614  0.9881  0.2852  0.2938
  546MOL0     C73640   5.468   0.081   9.688  0.0427 -0.5009  0.2178
  546MOL0     C73641   5.502   0.194   8.930  0.7109 -1.4027 -0.3335
  546MOL0     C73642   5.466   0.224   8.797  0.3182 -0.1733 -0.0311
  546MOL0     H73643   5.108   0.157   8.472  2.1954 -1.6105  2.0597
  546MOL0     H73644   5.008   0.204   8.270 -0.4346  1.1592  1.6273
  546MOL0     H73645   5.191   0.462   8.005  2.6273 -1.5829  1.3366
  546MOL0     H73646   5.248   0.329   7.904  0.0104 -1.3314  1.9442
  546MOL0     H73647   5.025   0.320   7.791 -1.2563  0.4527  0.5576
  546MOL0     H73648   4.967   0.457   7.884 -0.8253 -0.4976 -1.7882
  546MOL0     H73649   5.218   0.540   7.786  1.3142 -0.8250 -3.0201
  546MOL0     H73650   5.152   0.441   7.651 -1.9318  1.8864 -1.3922
  546MOL0     H73651   4.948   0.570   7.665 -1.6423 -0.8533  3.4735
  546MOL0     H73652   5.021   0.661   7.797  2.0615  0.0618  0.2724
  546MOL0     H73653   5.183   0.783   7.644  0.4298  0.4261 -1.6305
  546MOL0     H73654   5.148   0.668   7.521  3.1944  0.8297  0.4457
  546MOL0     H73655   4.945   0.872   7.614  2.2291  1.8949  0.0176
  546MOL0     H73656   5.074   0.888   7.483  0.7411  0.8020  0.2984
  546MOL0     H73657   4.839   0.681   7.509  2.3906  0.5755  1.8885
  546MOL0     H73658   4.814   0.816   7.419 -0.9311  1.1891  3.7580
  546MOL0     H73659   5.022   0.602   7.359  1.4558  0.7135 -1.1505
  546MOL0     H73660   5.020   0.757   7.266 -0.1231  0.9361 -0.9455
  546MOL0     H73661   4.799   0.468   7.338  1.0632  0.7792 -0.2019
  546MOL0     H73662   4.514   0.449   7.048 -2.2132  0.2445  2.2013
  546MOL0     H73663   4.640   0.336   7.086 -3.5790 -0.2309 -3.1424
  546MOL0     H73664   4.598   0.360   7.323  3.7571  3.3234 -2.2278
  546MOL0     H73665   4.451   0.297   7.243  0.2578  0.6981  3.0944
  546MOL0     H73666   4.381   0.440   7.409 -0.8483  0.9257  0.0193
  546MOL0     H73667   4.330   0.478   7.252  1.2256 -1.8062 -1.2449
  546MOL0     H73668   4.374   0.683   7.350  0.4331  1.6837 -3.1124
  546MOL0     H73669   4.511   0.665   7.248  0.6593 -0.5612  0.9558
  546MOL0     H73670   4.632   0.564   7.666  1.1987  0.6338 -0.3699
  546MOL0     H73671   4.763   0.695   7.933  0.5609  1.8361 -1.3175
  546MOL0     H73672   4.584   0.709   7.963 -0.2685 -1.6773 -0.1912
  546MOL0     H73673   4.643   0.576   7.878 -0.0450  0.4346  0.5494
  546MOL0     H73674   4.872   1.130   8.033 -2.2694  1.3883  1.0602
  546MOL0     H73675   4.981   1.338   8.094  2.5204  2.3224 -2.8111
  546MOL0     H73676   4.865   1.586   8.175 -1.0980  2.1935  0.8288
  546MOL0     H73677   4.942   1.717   8.113 -1.0613 -0.7169  2.0574
  546MOL0     H73678   4.775   1.775   7.956  0.1262  0.3202 -0.2460
  546MOL0     H73679   4.682   1.619   7.988 -0.0732 -2.7224  3.7284
  546MOL0     H73680   4.565   1.782   8.106 -0.0337  2.8290  0.0449
  546MOL0     H73681   4.716   1.870   8.146  0.5679  0.5083 -5.0977
  546MOL0     H73682   4.625   1.608   8.259  1.0604 -0.5381 -0.5018
  546MOL0     H73683   4.768   1.696   8.313  0.4489 -0.0601 -0.6209
  546MOL0     H73684   4.481   1.798   8.360 -0.6180 -1.0195  1.2646
  546MOL0     H73685   4.614   1.902   8.368  1.3989 -0.5390  1.2567
  546MOL0     H73686   4.596   1.654   8.536  0.0846 -0.8219 -0.7213
  546MOL0     H73687   4.744   1.740   8.517  0.2440  0.6126  1.5322
  546MOL0     H73688   4.654   1.957   8.584  0.4256 -1.6507 -1.4464
  546MOL0     H73689   4.644   1.845   8.714 -0.4702  1.8510  1.0739
  546MOL0     H73690   4.404   1.789   8.661 -1.7994  1.0322 -1.5291
  546MOL0     H73691   4.419   1.901   8.512  1.4583 -1.4372 -1.7501
  546MOL0     H73692   4.800   1.556   7.783  2.0715  0.8076  2.2041
  546MOL0     H73693   4.673   1.350   7.714  2.0469  2.6631 -2.5381
  546MOL0     H73694   4.596   1.041   7.594 -1.2308  0.3288 -1.1351
  546MOL0     H73695   4.539   0.879   7.420  3.1246  1.7108  0.5221
  546MOL0     H73696   5.393   0.315   8.085  2.7825  1.5471  2.1981
  546MOL0     H73697   5.494   0.279   8.293 -0.5979  3.3217 -3.4829
  546MOL0     H73698   5.740   0.079   8.643  1.6984  0.9163  1.1512
  546MOL0     H73699   5.802   0.035   8.882  0.5590 -0.8291  0.5152
  546MOL0     H73700   5.586   0.260   9.198 -1.5907  0.3833 -3.6058
  546MOL0     H73701   5.477   0.117   9.199  0.7903 -2.2125  0.9576
  546MOL0     H73702   5.611   0.170   9.417  2.5036  0.7514 -0.0448
  546MOL0     H73703   5.746   0.098   9.329 -1.3151 -1.0555 -3.0066
  546MOL0     H73704   5.620  -0.109   9.311 -2.0244 -0.5956 -0.5739
  546MOL0     H73705   5.468  -0.035   9.347  0.0543  0.0177 -1.9665
  546MOL0     H73706   5.681  -0.116   9.546  0.1693 -2.2932  1.1343
  546MOL0     H73707   5.527  -0.190   9.500  2.5300 -0.8004 -0.7079
  546MOL0     H73708   5.443   0.155   9.761 -1.8050 -2.5935  1.8258
  546MOL0     H73709   5.442   0.222   9.016  1.4851 -0.5724 -0.0447
  546MOL0     H73710   5.374   0.273   8.766  0.6202 -1.0168 -2.4654
  547MOL0     O73711   5.912   6.874   4.534 -0.2673  0.0107  0.4194
  547MOL0     C73712   6.004   6.796   4.551 -0.2341  0.0373  0.4504
  547MOL0     O73713   6.130   6.830   4.598 -1.1132  0.3529 -1.1838
  547MOL0     C73714   6.151   6.955   4.650  0.3012  0.2832  0.1848
  547MOL0     C73715   6.187   6.969   4.776 -0.3255  0.4853  0.2565
  547MOL0     C73716   6.211   7.091   4.837 -1.0807 -0.6711  0.6873
  547MOL0     C73717   6.203   7.204   4.750 -0.4786 -0.2068 -0.0138
  547MOL0     O73718   6.236   7.327   4.793 -0.1913  0.6266 -0.1882
  547MOL0     C73719   6.302   7.344   4.921  0.0747 -0.2696  0.0589
  547MOL0     C73720   6.346   7.491   4.919  0.1666 -0.7219  0.0444
  547MOL0     C73721   6.443   7.528   4.806 -0.1973 -0.4322  0.8359
  547MOL0     C73722   6.455   7.675   4.787 -0.3562  0.1446  0.3566
  547MOL0     C73723   6.526   7.731   4.906 -1.2523 -0.4710 -1.7501
  547MOL0     C73724   6.555   7.879   4.877  0.0863 -0.0713 -0.5510
  547MOL0     C73725   6.424   7.958   4.903 -0.3659 -0.3475 -0.0182
  547MOL0     C73726   6.468   8.094   4.908 -0.2803 -0.0620 -0.0928
  547MOL0     N73727   6.353   8.191   4.914  0.0107 -0.1131 -0.3914
  547MOL0     C73728   6.264   8.219   4.810 -0.4906  0.5951 -0.3677
  547MOL0     C73729   6.193   8.332   4.846  0.4759  0.2217  0.1068
  547MOL0     C73730   6.095   8.407   4.758  0.7150  1.2194 -1.0627
  547MOL0     C73731   6.154   8.511   4.658 -0.9334 -0.0254  0.8505
  547MOL0     C73732   6.242   8.618   4.732  0.6037  0.6081  0.8953
  547MOL0     C73733   6.304   8.721   4.627  0.6970 -0.4746 -0.4715
  547MOL0     O73734   6.209   8.823   4.596  0.2385  0.4944  0.0827
  547MOL0     C73735   6.232   8.922   4.506  0.1481  0.5889  0.3078
  547MOL0     C73736   6.141   9.027   4.504  0.1391  0.0337 -1.3242
  547MOL0     C73737   6.151   9.139   4.425 -0.3482 -0.5967 -0.4226
  547MOL0     C73738   6.042   9.233   4.441 -0.7419  0.8365 -1.0159
  547MOL0     C73739   6.246   9.132   4.321 -1.2340  0.0412 -0.3552
  547MOL0     C73740   6.259   9.240   4.227 -0.3475  1.1588 -0.6690
  547MOL0     O73741   6.279   9.212   4.092 -0.5788  0.0215 -0.5011
  547MOL0     C73742   6.360   9.299   4.023  0.7147  0.4789  0.7509
  547MOL0     C73743   6.319   9.331   3.894 -0.5780  0.4001 -0.0696
  547MOL0     C73744   6.395   9.421   3.816 -1.1943 -0.1411  0.3002
  547MOL0     C73745   6.511   9.480   3.863 -0.3427  0.1298 -0.3965
  547MOL0     O73746   6.597   9.545   3.780 -0.1725 -0.0668 -0.5062
  547MOL0     C73747   6.709   9.618   3.829 -0.1718  0.6446  0.9052
  547MOL0     C73748   6.721   9.754   3.755 -0.8676 -0.2797 -0.1625
  547MOL0     C73749   6.743   9.746   3.604 -0.1090 -0.1838 -0.6216
  547MOL0     C73750   6.882   9.673   3.571  1.3930 -0.1588  0.1729
  547MOL0     C73751   6.904   9.645   3.426 -0.2494 -0.5102 -0.0880
  547MOL0     C73752   7.049   9.585   3.417  0.1994  0.1434  0.8573
  547MOL0     C73753   7.104   9.573   3.268  0.3731 -0.0736 -0.4191
  547MOL0     C73754   7.110   9.431   3.191 -0.0581 -0.8530 -0.0575
  547MOL0    Cl73755   6.952   9.352   3.243 -0.4912 -0.2186  0.1395
  547MOL0     C73756   6.555   9.442   3.994  0.2912 -0.6018 -0.3364
  547MOL0     C73757   6.479   9.355   4.073  0.2725  0.8541 -0.8553
  547MOL0     O73758   6.269   9.350   4.278  0.5699  0.2601  0.5550
  547MOL0     C73759   6.336   9.026   4.308 -0.8410  0.4340 -0.1375
  547MOL0     C73760   6.329   8.917   4.404 -0.7316 -0.2605 -0.0317
  547MOL0     N73761   6.239   8.361   4.974  0.1966  0.2583  0.4947
  547MOL0     N73762   6.347   8.293   5.002  0.0712 -0.1965  0.6180
  547MOL0     C73763   6.155   7.189   4.617  0.3714  0.1200 -0.8171
  547MOL0     C73764   6.137   7.064   4.567 -0.4216  0.5721  0.1835
  547MOL0     C73765   5.993   6.661   4.479  0.1655  0.7226 -1.0380
  547MOL0     C73766   6.089   6.558   4.499  0.2429 -0.0435  0.5383
  547MOL0     C73767   6.083   6.437   4.430  0.0450  0.5235 -0.4035
  547MOL0     C73768   5.966   6.410   4.359  0.8379 -0.6230 -0.3319
  547MOL0     O73769   5.965   6.286   4.301 -0.2138  0.5361 -0.1919
  547MOL0     C73770   5.838   6.216   4.270  0.0652  0.2506  0.1004
  547MOL0     C73771   5.867   6.137   4.128 -0.9098  0.9679 -0.4546
  547MOL0     C73772   5.838   6.223   4.010  0.4323 -0.2611  0.0159
  547MOL0     C73773   5.919   6.354   4.009  0.2083  1.6263 -0.0722
  547MOL0     C73774   5.929   6.408   3.871 -0.6853 -1.1068 -0.1534
  547MOL0     C73775   5.955   6.454   3.757  0.0525 -0.2736 -0.0049
  547MOL0     C73776   5.870   6.504   4.337 -0.1446 -0.7492  0.2677
  547MOL0     C73777   5.880   6.624   4.409  0.5844  0.3500 -0.0232
  547MOL0     H73778   6.190   6.884   4.843  0.4208 -1.1273 -1.7134
  547MOL0     H73779   6.241   7.092   4.942 -1.3290  1.7637  0.8072
  547MOL0     H73780   6.250   7.325   5.015  0.6582  1.3414  0.7504
  547MOL0     H73781   6.399   7.294   4.927 -0.0686 -0.3683  2.9287
  547MOL0     H73782   6.263   7.561   4.918  0.9074  0.1734  0.3075
  547MOL0     H73783   6.391   7.505   5.018 -0.6520 -3.9767  1.0282
  547MOL0     H73784   6.539   7.480   4.828  1.1841  2.3002  1.1815
  547MOL0     H73785   6.417   7.487   4.708  1.9756 -1.4639  0.6497
  547MOL0     H73786   6.500   7.705   4.691 -0.4043  1.4363  0.7295
  547MOL0     H73787   6.361   7.730   4.781 -0.0933  0.4544 -2.2331
  547MOL0     H73788   6.470   7.710   4.998 -2.2824 -1.7547 -2.6371
  547MOL0     H73789   6.615   7.669   4.915  1.1555  3.0050  3.6222
  547MOL0     H73790   6.632   7.907   4.949 -0.2004  0.3486 -0.4046
  547MOL0     H73791   6.598   7.879   4.776  0.8628 -1.7560 -0.2556
  547MOL0     H73792   6.351   7.943   4.823 -2.6769 -2.6386  2.3424
  547MOL0     H73793   6.384   7.934   5.002 -2.1398  0.3402 -0.5362
  547MOL0     H73794   6.525   8.123   4.819 -2.3807  2.9439 -0.6170
  547MOL0     H73795   6.537   8.099   4.993 -1.4563 -4.4314  1.3885
  547MOL0     H73796   6.251   8.158   4.721 -0.2833  0.6339 -0.4250
  547MOL0     H73797   6.036   8.329   4.710  2.2671 -1.4419  1.0416
  547MOL0     H73798   6.027   8.459   4.826  2.2198  0.1716  1.4164
  547MOL0     H73799   6.077   8.569   4.606 -0.7584 -0.7941 -0.3267
  547MOL0     H73800   6.214   8.453   4.587  3.3697  0.9533  3.3393
  547MOL0     H73801   6.325   8.587   4.796 -2.8855  0.8576  6.1443
  547MOL0     H73802   6.178   8.678   4.798 -0.5765 -1.0931  1.3637
  547MOL0     H73803   6.348   8.668   4.542  4.2186  3.6138 -1.6134
  547MOL0     H73804   6.398   8.766   4.661  0.7391 -0.7613 -0.2099
  547MOL0     H73805   6.060   9.008   4.572  1.2622 -0.5010 -0.0948
  547MOL0     H73806   5.952   9.178   4.412  0.7942 -1.9540 -0.9000
  547MOL0     H73807   6.041   9.264   4.546 -0.8281  1.7590 -1.2836
  547MOL0     H73808   6.039   9.321   4.377 -1.4748 -0.9492 -3.5588
  547MOL0     H73809   6.220   9.304   3.860 -0.7755  1.2049 -0.1570
  547MOL0     H73810   6.350   9.445   3.720 -0.0026  0.8902 -0.0284
  547MOL0     H73811   6.710   9.653   3.932 -0.0492  0.7023  0.8855
  547MOL0     H73812   6.797   9.555   3.811 -0.4755  0.6453 -0.7432
  547MOL0     H73813   6.630   9.813   3.768  0.8183  2.3593  0.4003
  547MOL0     H73814   6.806   9.813   3.790 -0.6339 -1.1931  0.8597
  547MOL0     H73815   6.737   9.843   3.553 -1.4712  0.7394  1.1932
  547MOL0     H73816   6.663   9.681   3.567  1.5032 -1.6601 -1.6966
  547MOL0     H73817   6.955   9.746   3.607  1.6407  0.7472 -2.0192
  547MOL0     H73818   6.881   9.580   3.629 -3.2961  1.1054  2.5474
  547MOL0     H73819   6.889   9.741   3.375 -0.2179 -0.8305 -0.7220
  547MOL0     H73820   6.827   9.574   3.392 -0.9881 -0.2579  1.0360
  547MOL0     H73821   7.111   9.651   3.478 -0.6084  3.8451 -1.8988
  547MOL0     H73822   7.047   9.485   3.459  0.2190 -0.0053  0.5106
  547MOL0     H73823   7.208   9.608   3.270  0.5761 -0.7138  0.8340
  547MOL0     H73824   7.056   9.648   3.203  1.9121  1.9155  0.6163
  547MOL0     H73825   7.194   9.371   3.227 -0.3516  0.2062  2.5993
  547MOL0     H73826   7.115   9.441   3.082  0.5567  1.0213  0.1076
  547MOL0     H73827   6.653   9.470   4.031 -0.1349  1.3719 -0.5995
  547MOL0     H73828   6.512   9.312   4.167 -2.9079 -2.4895 -1.0713
  547MOL0     H73829   6.416   9.029   4.236 -1.7198 -0.1108 -1.1672
  547MOL0     H73830   6.404   8.840   4.392 -0.6600  0.1987 -3.8509
  547MOL0     H73831   6.127   7.268   4.548  0.1605 -1.0730 -2.1356
  547MOL0     H73832   6.097   7.055   4.467 -0.2686  1.8457 -0.0064
  547MOL0     H73833   6.164   6.580   4.574  0.4724  5.5217 -0.8798
  547MOL0     H73834   6.151   6.353   4.441  1.1822  0.9967 -3.0869
  547MOL0     H73835   5.823   6.136   4.344  1.0203 -0.1052 -0.0669
  547MOL0     H73836   5.750   6.279   4.260 -0.2921 -0.1804  0.4772
  547MOL0     H73837   5.802   6.048   4.119 -2.0049  1.7938 -0.9729
  547MOL0     H73838   5.963   6.086   4.124 -1.0753  0.3741  1.7024
  547MOL0     H73839   5.731   6.243   4.017  0.5539  0.0731  0.9504
  547MOL0     H73840   5.870   6.170   3.919 -0.5619 -0.8713  0.0073
  547MOL0     H73841   6.024   6.338   4.035  1.3703  4.0064 -2.6710
  547MOL0     H73842   5.874   6.424   4.080 -0.2996 -1.0177  2.3865
  547MOL0     H73843   5.970   6.496   3.660 -2.8703 -0.6065 -0.6928
  547MOL0     H73844   5.775   6.481   4.290 -1.0660  1.3376  0.9485
  547MOL0     H73845   5.785   6.675   4.393 -0.4171 -1.6484 -0.8332
  548MOL0     O73846   0.479   2.512   9.278 -0.1918  0.0053  0.1302
  548MOL0     C73847   0.593   2.485   9.310 -0.1798 -0.7601  0.3671
  548MOL0     O73848   0.661   2.556   9.393 -0.9434 -0.4261 -0.1826
  548MOL0     C73849   0.593   2.663   9.448  0.2389 -0.1755  0.7487
  548MOL0     C73850   0.603   2.787   9.391  0.7081  0.8072  0.9427
  548MOL0     C73851   0.527   2.888   9.446  0.0141 -0.8529 -0.9840
  548MOL0     C73852   0.464   2.873   9.567  0.0424 -0.4650  0.6972
  548MOL0     O73853   0.424   2.986   9.625 -0.3140  0.2044 -0.7042
  548MOL0     C73854   0.504   3.105   9.637  0.5853 -0.1449  0.2058
  548MOL0     C73855   0.416   3.229   9.633 -0.9202  0.2144  0.6218
  548MOL0     C73856   0.296   3.225   9.536 -0.6903 -1.0336 -0.0896
  548MOL0     C73857   0.237   3.366   9.525  0.7394 -0.2893 -0.6512
  548MOL0     C73858   0.110   3.364   9.442 -0.3855  0.2175  0.9251
  548MOL0     C73859   0.152   3.353   9.293  0.1805 -0.0635 -0.2844
  548MOL0     C73860   0.048   3.304   9.195  0.2413  0.1243  0.0818
  548MOL0     C73861  -0.008   3.162   9.221  0.3313 -0.8091  0.8532
  548MOL0     N73862   0.085   3.057   9.242  0.6336  0.9865  0.2367
  548MOL0     C73863   0.161   2.998   9.141  0.7717 -0.2255  0.6671
  548MOL0     C73864   0.232   2.902   9.206 -0.3401 -0.5707  0.5452
  548MOL0     C73865   0.327   2.827   9.119 -0.3696 -0.5905 -0.6660
  548MOL0     C73866   0.244   2.713   9.060 -0.4375 -0.5988 -0.1409
  548MOL0     C73867   0.308   2.649   8.932  0.2665 -0.1130 -0.2902
  548MOL0     C73868   0.354   2.509   8.955  0.3810  0.0779 -1.1253
  548MOL0     O73869   0.369   2.411   8.851  0.1290 -0.3916 -0.3948
  548MOL0     C73870   0.259   2.374   8.779  0.2053  0.1641  0.5945
  548MOL0     C73871   0.270   2.288   8.668 -0.1015  0.0093  0.3064
  548MOL0     C73872   0.156   2.249   8.587  0.3452  0.4316 -0.4963
  548MOL0     C73873   0.190   2.155   8.473 -0.6274  0.4837  0.1859
  548MOL0     C73874   0.020   2.294   8.610 -1.4045 -0.5850 -0.0487
  548MOL0     C73875  -0.080   2.256   8.516 -0.1583 -0.0203  0.1239
  548MOL0     O73876  -0.194   2.201   8.563  0.2280  0.0510 -0.2443
  548MOL0     C73877  -0.304   2.178   8.486 -0.4966  0.1137  0.7058
  548MOL0     C73878  -0.389   2.278   8.446  0.3436  0.0952  0.4592
  548MOL0     C73879  -0.507   2.243   8.378 -0.3573 -0.1235  0.4016
  548MOL0     C73880  -0.536   2.116   8.355 -0.3824 -0.2744  0.9366
  548MOL0     O73881  -0.658   2.100   8.299  0.0035 -0.1509 -0.4290
  548MOL0     C73882  -0.652   2.027   8.178  0.3314 -0.0547  1.0772
  548MOL0     C73883  -0.792   1.977   8.124  0.2974 -0.7450  0.0274
  548MOL0     C73884  -0.838   1.862   8.208 -0.8111 -0.4824  1.1383
  548MOL0     C73885  -0.988   1.834   8.195 -0.4331 -0.4790 -0.7216
  548MOL0     C73886  -1.037   1.818   8.056  0.2564 -0.2153  0.4308
  548MOL0     C73887  -1.016   1.685   7.975 -0.0103  0.5536  0.1781
  548MOL0     C73888  -1.111   1.578   8.022  0.9507 -0.3856 -0.5292
  548MOL0     C73889  -1.243   1.575   7.954  0.1394  0.0523  0.4710
  548MOL0    Cl73890  -1.306   1.410   7.996  0.2821  0.0828  0.2939
  548MOL0     C73891  -0.450   2.012   8.396 -0.2960 -0.0460  0.5523
  548MOL0     C73892  -0.329   2.047   8.459  1.0174  0.6563  0.0665
  548MOL0     O73893  -0.064   2.285   8.393  0.2482  0.0095 -0.4144
  548MOL0     C73894   0.008   2.379   8.726 -0.4081 -0.1522 -0.0680
  548MOL0     C73895   0.120   2.419   8.802  0.1397 -0.4162  0.5113
  548MOL0     N73896   0.191   2.896   9.341  0.5545  1.1965 -0.2220
  548MOL0     N73897   0.108   2.992   9.360  0.4138  0.0250 -0.7928
  548MOL0     C73898   0.469   2.751   9.626  0.5047 -0.4306 -0.0159
  548MOL0     C73899   0.522   2.641   9.564 -0.3425  0.3139  0.3704
  548MOL0     C73900   0.676   2.367   9.252  0.6338 -0.4036  0.0471
  548MOL0     C73901   0.603   2.290   9.163 -0.1274 -0.2463 -0.4580
  548MOL0     C73902   0.658   2.168   9.123 -0.9097 -0.2082  0.8096
  548MOL0     C73903   0.782   2.123   9.172 -1.1337  0.1321 -0.6922
  548MOL0     O73904   0.821   2.002   9.128 -0.5883  0.4043  0.4321
  548MOL0     C73905   0.950   1.958   9.159  0.1742  0.7544 -0.8882
  548MOL0     C73906   1.060   2.019   9.073  0.8896  0.5213  0.3629
  548MOL0     C73907   1.039   2.015   8.926  0.5350 -0.5466 -0.4618
  548MOL0     C73908   1.125   2.113   8.845  0.7660 -0.6305 -0.0626
  548MOL0     C73909   1.270   2.113   8.888  0.0140 -1.2074  0.3603
  548MOL0     C73910   1.380   2.119   8.935  0.3330  0.8746  0.5369
  548MOL0     C73911   0.849   2.206   9.262  0.2900  0.2715 -0.0329
  548MOL0     C73912   0.802   2.323   9.303  0.2833 -0.6403  0.1478
  548MOL0     H73913   0.650   2.803   9.295 -1.1782  3.0326  0.3031
  548MOL0     H73914   0.527   2.979   9.386  1.6482  1.0559  1.6797
  548MOL0     H73915   0.555   3.103   9.734  0.5653 -0.0135  0.2193
  548MOL0     H73916   0.572   3.115   9.552 -1.8029  1.3443 -1.6693
  548MOL0     H73917   0.390   3.244   9.738 -1.2874 -0.4479  0.6258
  548MOL0     H73918   0.487   3.308   9.605 -0.7690 -0.1023  0.0944
  548MOL0     H73919   0.339   3.188   9.442  0.6341 -0.5846  0.3241
  548MOL0     H73920   0.222   3.150   9.563 -0.5186 -1.6263 -1.1988
  548MOL0     H73921   0.212   3.393   9.628  4.3098 -0.6160  0.4281
  548MOL0     H73922   0.296   3.448   9.484 -0.9344  3.2108  3.1551
  548MOL0     H73923   0.057   3.276   9.480  0.1679 -1.2702 -1.5098
  548MOL0     H73924   0.052   3.457   9.443 -2.0200 -0.7406  0.0156
  548MOL0     H73925   0.186   3.453   9.266  4.0001 -0.7297  1.4313
  548MOL0     H73926   0.242   3.293   9.279  0.7742  0.5265  0.8515
  548MOL0     H73927  -0.044   3.363   9.184 -1.5245 -2.5889 -0.9410
  548MOL0     H73928   0.097   3.287   9.099  1.9888 -2.3697  1.2965
  548MOL0     H73929  -0.077   3.127   9.143 -2.3244  0.4716  2.4811
  548MOL0     H73930  -0.073   3.170   9.309 -1.1792 -2.6748 -0.0256
  548MOL0     H73931   0.167   3.029   9.037  0.1051  0.7137  0.8914
  548MOL0     H73932   0.368   2.874   9.030 -2.1522  0.4717 -0.9588
  548MOL0     H73933   0.402   2.790   9.190  0.2685 -1.0384 -1.5561
  548MOL0     H73934   0.144   2.751   9.042  0.9214  2.9710 -0.9804
  548MOL0     H73935   0.230   2.629   9.129  1.6411  0.6542  1.9876
  548MOL0     H73936   0.393   2.700   8.886 -0.4427  0.6494 -0.7798
  548MOL0     H73937   0.236   2.654   8.849  0.2556  1.1381 -0.2326
  548MOL0     H73938   0.288   2.460   9.027  1.4702 -0.2072 -0.2949
  548MOL0     H73939   0.455   2.520   8.995 -0.5159 -0.0669  1.2954
  548MOL0     H73940   0.365   2.236   8.657  0.7871  0.6433  3.9298
  548MOL0     H73941   0.290   2.112   8.486 -1.1091 -0.2239  1.6907
  548MOL0     H73942   0.120   2.072   8.458  0.0295 -0.1207  0.4141
  548MOL0     H73943   0.186   2.214   8.380 -0.2299  2.7714  1.5287
  548MOL0     H73944  -0.358   2.377   8.477 -1.9475  0.4791  1.7457
  548MOL0     H73945  -0.573   2.327   8.362 -1.4187 -1.1823 -0.9860
  548MOL0     H73946  -0.614   2.087   8.096 -1.4679 -1.4404 -0.8807
  548MOL0     H73947  -0.587   1.940   8.187  0.6598 -0.2794 -2.3531
  548MOL0     H73948  -0.850   2.070   8.132  5.8096  3.2110  0.0470
  548MOL0     H73949  -0.774   1.941   8.023  1.3496 -2.5622  0.8274
  548MOL0     H73950  -0.828   1.889   8.314 -1.6616  2.0847  0.6245
  548MOL0     H73951  -0.776   1.775   8.182 -0.4205  0.2117 -0.3746
  548MOL0     H73952  -1.002   1.745   8.257  0.3685  1.0471  1.8424
  548MOL0     H73953  -1.042   1.918   8.240  1.1559  1.0972 -1.5955
  548MOL0     H73954  -0.982   1.893   7.999  1.6739 -1.5789 -0.0788
  548MOL0     H73955  -1.137   1.862   8.060  0.5095  0.2739  1.8673
  548MOL0     H73956  -1.027   1.694   7.866 -0.9905 -0.7753  0.1414
  548MOL0     H73957  -0.913   1.649   7.977 -0.7122 -1.8346 -1.5280
  548MOL0     H73958  -1.125   1.570   8.130 -0.8184  1.4071 -0.5686
  548MOL0     H73959  -1.057   1.485   7.999  0.5149  0.2177 -4.9431
  548MOL0     H73960  -1.230   1.583   7.846  3.5945 -0.6869  0.7163
  548MOL0     H73961  -1.311   1.649   7.998 -0.3245 -0.9758  1.5636
  548MOL0     H73962  -0.468   1.905   8.395 -1.1386  0.0878  0.7720
  548MOL0     H73963  -0.256   1.970   8.485 -3.1018 -2.4852  3.8548
  548MOL0     H73964  -0.088   2.417   8.758 -0.5605  2.6195 -3.2373
  548MOL0     H73965   0.106   2.478   8.892  0.1163 -2.4672  1.9237
  548MOL0     H73966   0.433   2.740   9.727  1.9767  2.9135  1.0195
  548MOL0     H73967   0.510   2.540   9.602  1.6429 -0.1473 -0.1202
  548MOL0     H73968   0.512   2.333   9.121  0.8603  1.2583 -1.1387
  548MOL0     H73969   0.599   2.096   9.066  1.0192 -0.2545 -1.2895
  548MOL0     H73970   0.970   1.975   9.265  4.1801 -0.6775 -1.2786
  548MOL0     H73971   0.977   1.853   9.145  1.1685  1.0987 -1.6810
  548MOL0     H73972   1.152   1.967   9.104  0.7582 -1.1319 -1.8088
  548MOL0     H73973   1.064   2.124   9.103  0.6473  1.5435 -2.8080
  548MOL0     H73974   0.934   2.016   8.894  0.9414 -0.4384 -1.8490
  548MOL0     H73975   1.082   1.922   8.888 -0.8693 -2.1699  1.6464
  548MOL0     H73976   1.085   2.215   8.850 -0.7456 -1.2594  2.8581
  548MOL0     H73977   1.113   2.080   8.741 -1.0777  1.6349 -0.6717
  548MOL0     H73978   1.477   2.111   8.978  0.8306 -0.6340 -0.7510
  548MOL0     H73979   0.945   2.180   9.306  0.9842 -3.7337 -3.2581
  548MOL0     H73980   0.851   2.388   9.375  1.1041 -0.3062 -0.6928
  549MOL0     O73981   0.546   6.345   5.646 -0.8039 -0.8236 -0.1538
  549MOL0     C73982   0.426   6.366   5.668 -1.0789  0.3474  0.1685
  549MOL0     O73983   0.332   6.424   5.588  0.1152 -0.3820  0.2174
  549MOL0     C73984   0.362   6.434   5.458  0.2805 -0.2382  0.9550
  549MOL0     C73985   0.476   6.509   5.411  0.4094  0.3577  1.1008
  549MOL0     C73986   0.509   6.508   5.274  0.9410  0.5345  0.8347
  549MOL0     C73987   0.430   6.426   5.188  0.1252 -0.4831  1.6651
  549MOL0     O73988   0.470   6.405   5.056 -0.2021 -0.9698 -0.3826
  549MOL0     C73989   0.493   6.524   4.977 -0.5168  0.1133  0.2394
  549MOL0     C73990   0.634   6.533   4.918 -0.5462  0.6875  0.0912
  549MOL0     C73991   0.664   6.671   4.849 -0.5138  1.4731 -0.2274
  549MOL0     C73992   0.673   6.785   4.948  0.6785  0.4277  0.3390
  549MOL0     C73993   0.715   6.915   4.873 -0.2009  0.1691  0.0489
  549MOL0     C73994   0.740   7.023   4.978  0.4347 -0.6466 -0.3749
  549MOL0     C73995   0.770   7.161   4.907 -0.4338  0.3806  0.9562
  549MOL0     C73996   0.928   7.175   4.870 -0.1135 -0.1714 -0.3250
  549MOL0     N73997   0.977   7.060   4.784  0.5181 -0.8468  0.8106
  549MOL0     C73998   1.059   6.972   4.845 -0.2006  0.0411  0.4980
  549MOL0     C73999   1.091   6.885   4.745  0.3074  0.1072  0.2949
  549MOL0     C74000   1.171   6.767   4.760  0.5860  0.5489 -0.9452
  549MOL0     C74001   1.087   6.658   4.835 -0.8311  1.3345  0.0592
  549MOL0     C74002   1.169   6.534   4.871  0.6034  0.3863 -0.3222
  549MOL0     C74003   1.078   6.413   4.869  0.2946 -0.0727  0.8906
  549MOL0     O74004   0.978   6.431   4.969  0.3332  0.0989  0.3959
  549MOL0     C74005   1.003   6.380   5.095 -0.6582  0.7395  0.3218
  549MOL0     C74006   0.894   6.371   5.177 -1.2585  0.0090 -0.1647
  549MOL0     C74007   0.905   6.327   5.309  0.0231  0.3716  0.6268
  549MOL0     C74008   0.767   6.312   5.373 -0.5533  0.7820  0.4942
  549MOL0     C74009   1.027   6.285   5.359 -0.5394  0.8628 -0.3915
  549MOL0     C74010   1.034   6.227   5.501 -0.0268  0.7272  0.7740
  549MOL0     O74011   1.113   6.117   5.518 -0.1424  0.0490 -0.5457
  549MOL0     C74012   1.131   6.094   5.657 -0.4186  0.2272 -0.3137
  549MOL0     C74013   1.027   6.043   5.734  0.6648 -1.0002 -0.1519
  549MOL0     C74014   1.041   6.011   5.865 -0.7266 -0.1637 -0.1186
  549MOL0     C74015   1.174   6.018   5.914  0.2347 -0.3049 -0.7155
  549MOL0     O74016   1.210   5.964   6.038 -0.0020 -0.3319  0.7085
  549MOL0     C74017   1.127   5.993   6.152  0.2296 -0.4335  0.3098
  549MOL0     C74018   1.106   5.879   6.256 -0.0698  0.8358  0.2085
  549MOL0     C74019   1.220   5.858   6.349 -0.7187 -0.9111  0.4257
  549MOL0     C74020   1.203   5.746   6.457 -0.7534 -0.1434  0.0815
  549MOL0     C74021   1.327   5.714   6.542  0.0999 -0.9928 -0.1489
  549MOL0     C74022   1.313   5.600   6.645 -1.1687  0.1758  0.4508
  549MOL0     C74023   1.447   5.548   6.701  0.2304  0.3494  0.1133
  549MOL0     C74024   1.431   5.448   6.810  0.2578 -1.0846  0.0996
  549MOL0    Cl74025   1.586   5.451   6.895  0.5276 -0.4036  0.3559
  549MOL0     C74026   1.280   6.060   5.837 -0.8933  0.0185  0.4119
  549MOL0     C74027   1.262   6.103   5.707  1.0810  0.0298 -0.9850
  549MOL0     O74028   0.977   6.292   5.587  0.2984  0.8152  0.6501
  549MOL0     C74029   1.137   6.284   5.282 -0.2344 -0.4366  0.8589
  549MOL0     C74030   1.133   6.338   5.149 -0.2975  0.5610  0.5580
  549MOL0     N74031   1.029   6.936   4.628 -0.5655  0.2774  0.1341
  549MOL0     N74032   0.975   7.049   4.652 -0.6214 -0.4027 -0.4909
  549MOL0     C74033   0.303   6.370   5.230  0.6802  0.5649  0.3535
  549MOL0     C74034   0.272   6.384   5.371  0.5053  0.6670  0.7985
  549MOL0     C74035   0.381   6.324   5.800 -1.9866  0.3632  0.2972
  549MOL0     C74036   0.249   6.340   5.829  0.1196 -0.7315  1.0131
  549MOL0     C74037   0.189   6.305   5.950 -0.3937  0.1769  0.1182
  549MOL0     C74038   0.269   6.258   6.049  0.7023 -0.2921 -0.1626
  549MOL0     O74039   0.193   6.222   6.162 -0.4008  0.1036 -0.2660
  549MOL0     C74040   0.270   6.153   6.258 -0.1988 -0.0593  0.1562
  549MOL0     C74041   0.179   6.098   6.369 -0.2813  0.2187 -0.3403
  549MOL0     C74042   0.097   5.981   6.312  0.0147  0.5844  0.0213
  549MOL0     C74043  -0.013   5.927   6.408 -0.2970  0.2058  0.7829
  549MOL0     C74044   0.029   5.932   6.550  0.2800  0.5087  0.3993
  549MOL0     C74045   0.054   5.937   6.666  0.2573 -0.3194 -0.3614
  549MOL0     C74046   0.406   6.240   6.023 -0.1253  0.7622 -0.1501
  549MOL0     C74047   0.470   6.274   5.904 -0.1440 -0.6253  0.6687
  549MOL0     H74048   0.546   6.554   5.480  0.2188  1.8068  0.3837
  549MOL0     H74049   0.601   6.555   5.242  1.1080  0.3538  1.0393
  549MOL0     H74050   0.417   6.521   4.899 -0.3051 -2.9988  0.0294
  549MOL0     H74051   0.486   6.617   5.035 -1.7657 -0.2862  0.7446
  549MOL0     H74052   0.704   6.523   5.002  0.2163 -0.6250 -0.6689
  549MOL0     H74053   0.663   6.455   4.847  2.8371  1.9024 -0.0275
  549MOL0     H74054   0.762   6.668   4.799 -0.7479  2.0703 -0.7400
  549MOL0     H74055   0.586   6.692   4.775 -0.0340  1.2413 -0.8129
  549MOL0     H74056   0.580   6.812   5.000  1.7861  1.7600  1.7367
  549MOL0     H74057   0.748   6.768   5.026  0.1347 -0.3957  0.6982
  549MOL0     H74058   0.806   6.881   4.822 -0.3605 -5.3844  2.7953
  549MOL0     H74059   0.635   6.936   4.802  2.1267 -0.5886 -3.0323
  549MOL0     H74060   0.652   7.026   5.043  0.2482 -5.5474 -0.0249
  549MOL0     H74061   0.821   6.999   5.048 -0.2137 -2.0483 -0.0700
  549MOL0     H74062   0.713   7.162   4.814  1.5828 -1.4684 -0.4206
  549MOL0     H74063   0.742   7.244   4.972 -2.5651 -0.2605  0.9381
  549MOL0     H74064   0.985   7.172   4.963  1.5132  2.4055 -1.1294
  549MOL0     H74065   0.947   7.277   4.836 -3.2213  0.4666 -0.4229
  549MOL0     H74066   1.109   6.976   4.941  2.4961 -2.0513 -0.6878
  549MOL0     H74067   1.207   6.733   4.662 -0.8829  0.4401 -1.4693
  549MOL0     H74068   1.245   6.810   4.829 -2.9045  2.5054  1.9108
  549MOL0     H74069   0.996   6.631   4.781  0.7490  1.1117 -2.7054
  549MOL0     H74070   1.060   6.700   4.932 -1.6975 -0.4088  0.6184
  549MOL0     H74071   1.233   6.549   4.959 -0.5308  2.9226  0.1713
  549MOL0     H74072   1.247   6.514   4.797 -0.4368 -1.5118 -0.9550
  549MOL0     H74073   1.131   6.317   4.875  1.7106  0.3735 -2.1663
  549MOL0     H74074   1.022   6.411   4.775  1.3805 -0.5110  0.2253
  549MOL0     H74075   0.792   6.386   5.143 -1.2845  0.6072  0.1532
  549MOL0     H74076   0.756   6.215   5.421  0.2317  0.6601  0.4430
  549MOL0     H74077   0.761   6.390   5.450 -0.2188  1.3627 -0.0557
  549MOL0     H74078   0.683   6.322   5.303  0.3727 -0.4829 -0.8514
  549MOL0     H74079   0.925   6.060   5.703 -0.2672 -1.7185  2.2919
  549MOL0     H74080   0.961   5.964   5.922 -0.1420  0.0009  0.8784
  549MOL0     H74081   1.179   6.075   6.203 -2.9494  1.6268  0.5064
  549MOL0     H74082   1.025   6.026   6.131 -1.5738 -4.3503  1.9577
  549MOL0     H74083   1.025   5.913   6.322 -0.5261  0.8883 -0.3689
  549MOL0     H74084   1.088   5.779   6.216 -1.1177  0.2599  1.9819
  549MOL0     H74085   1.231   5.953   6.402 -1.7808  0.2505 -1.3204
  549MOL0     H74086   1.316   5.844   6.299 -0.4615 -3.3338  1.4759
  549MOL0     H74087   1.127   5.792   6.520 -0.5433 -1.4276  1.3486
  549MOL0     H74088   1.157   5.660   6.406 -2.6639 -0.1300  1.6734
  549MOL0     H74089   1.341   5.814   6.586  3.2324 -0.7406 -1.4876
  549MOL0     H74090   1.421   5.700   6.488  0.6833  2.4698 -0.2771
  549MOL0     H74091   1.252   5.625   6.732 -0.1726  0.8888  0.9655
  549MOL0     H74092   1.273   5.513   6.592 -2.3047  0.3642  0.9785
  549MOL0     H74093   1.508   5.629   6.744  1.6593 -1.1781  1.0836
  549MOL0     H74094   1.516   5.502   6.630  0.4603 -0.9147  1.1300
  549MOL0     H74095   1.403   5.347   6.777 -2.0603 -0.2020 -0.7867
  549MOL0     H74096   1.355   5.482   6.881  1.0795 -0.3257  0.6419
  549MOL0     H74097   1.381   6.057   5.876 -0.5197 -0.9835 -0.5687
  549MOL0     H74098   1.346   6.145   5.652  1.7407  0.5073  0.3491
  549MOL0     H74099   1.234   6.261   5.323  0.2256 -0.5532 -0.2657
  549MOL0     H74100   1.228   6.343   5.096 -0.8948  1.4070 -0.4702
  549MOL0     H74101   0.234   6.325   5.160 -0.8137  2.3704  0.5974
  549MOL0     H74102   0.182   6.330   5.397  0.2494  1.2961  1.2397
  549MOL0     H74103   0.182   6.387   5.758  2.0117  1.7644  0.7655
  549MOL0     H74104   0.084   6.319   5.973 -0.3045 -1.7780  2.0646
  549MOL0     H74105   0.319   6.066   6.212 -0.7727  0.4592 -1.5004
  549MOL0     H74106   0.344   6.214   6.312  1.0897 -0.7538 -0.7526
  549MOL0     H74107   0.119   6.177   6.414 -0.2331 -0.5644  1.1396
  549MOL0     H74108   0.251   6.061   6.442 -1.0422 -3.0425 -1.0808
  549MOL0     H74109   0.169   5.905   6.281 -1.6351 -0.5277 -1.2243
  549MOL0     H74110   0.053   6.018   6.219 -2.0235  2.7950  1.7353
  549MOL0     H74111  -0.056   5.828   6.389  0.2997 -0.1537  1.2500
  549MOL0     H74112  -0.088   6.006   6.399 -1.1773 -0.5010  1.6640
  549MOL0     H74113   0.074   5.962   6.769 -0.6843 -1.6367  0.1658
  549MOL0     H74114   0.469   6.210   6.107 -0.7087 -0.1709 -0.0408
  549MOL0     H74115   0.571   6.244   5.877 -1.3475 -1.4170 -3.6908
  550MOL0     O74116   4.393   4.423   9.835 -0.1875 -0.9272  0.0288
  550MOL0     C74117   4.362   4.305   9.848  0.7778 -0.4961 -0.6425
  550MOL0     O74118   4.312   4.223   9.745 -0.0343  0.8587  0.0362
  550MOL0     C74119   4.314   4.267   9.611  0.1465 -0.1721 -0.9769
  550MOL0     C74120   4.417   4.349   9.552  0.1202  0.2317 -0.2314
  550MOL0     C74121   4.396   4.392   9.420 -0.2591 -0.8869 -0.6880
  550MOL0     C74122   4.288   4.355   9.343 -0.2579 -0.0991  0.1871
  550MOL0     O74123   4.279   4.397   9.216  0.0437 -0.3875  0.3359
  550MOL0     C74124   4.202   4.318   9.122  0.2648  0.7001  0.4489
  550MOL0     C74125   4.219   4.358   8.978 -0.0213 -0.0149 -0.7315
  550MOL0     C74126   4.186   4.509   8.969 -0.8386 -0.1138  0.3842
  550MOL0     C74127   4.173   4.551   8.822  0.7697  0.2377 -0.6297
  550MOL0     C74128   4.116   4.694   8.813 -0.1283 -0.5757 -0.1882
  550MOL0     C74129   4.025   4.708   8.689  0.6489  0.9437  0.6820
  550MOL0     C74130   3.969   4.847   8.689  0.8381  0.5592 -0.0522
  550MOL0     C74131   3.852   4.886   8.590 -0.0141 -0.0715 -0.0335
  550MOL0     N74132   3.873   4.821   8.460 -0.1412  0.1031 -0.4932
  550MOL0     C74133   3.829   4.692   8.450 -0.6240 -0.5962  0.4831
  550MOL0     C74134   3.882   4.656   8.333 -0.5192  0.1438 -0.3821
  550MOL0     C74135   3.848   4.531   8.261  0.6697  0.2497 -0.5226
  550MOL0     C74136   3.763   4.569   8.138  0.0913 -0.2504  0.0389
  550MOL0     C74137   3.732   4.447   8.050 -0.4091 -0.0504 -0.2906
  550MOL0     C74138   3.653   4.480   7.929  0.7401  0.7802  0.0833
  550MOL0     O74139   3.588   4.356   7.893  0.2794  0.4100 -1.7700
  550MOL0     C74140   3.500   4.354   7.793  0.1497 -0.1628  0.7649
  550MOL0     C74141   3.524   4.427   7.676 -0.1626 -0.6760  0.0890
  550MOL0     C74142   3.421   4.433   7.583 -0.3662  0.3853 -0.2107
  550MOL0     C74143   3.462   4.513   7.461 -0.7746 -0.7081  0.3296
  550MOL0     C74144   3.297   4.361   7.589 -0.5022  0.0234 -0.3574
  550MOL0     C74145   3.179   4.368   7.490  0.4647 -0.6425  0.0157
  550MOL0     O74146   3.074   4.281   7.522  0.8097 -0.6559  0.0650
  550MOL0     C74147   2.951   4.293   7.452  0.2751 -0.1213 -0.3001
  550MOL0     C74148   2.884   4.410   7.418  0.2423  0.2766  0.1396
  550MOL0     C74149   2.769   4.413   7.331 -1.1757 -0.0696 -0.4512
  550MOL0     C74150   2.715   4.288   7.285  0.6465  0.1792  0.0796
  550MOL0     O74151   2.604   4.275   7.210  0.1959  0.0363  0.3614
  550MOL0     C74152   2.526   4.401   7.193 -0.2789  0.4907  0.3819
  550MOL0     C74153   2.388   4.375   7.141  1.1281  0.7126 -0.3722
  550MOL0     C74154   2.327   4.502   7.075 -0.8912 -0.1098 -0.8279
  550MOL0     C74155   2.204   4.481   6.988 -0.2895  0.0221  0.4477
  550MOL0     C74156   2.115   4.602   6.966 -0.9703  1.3963  0.3468
  550MOL0     C74157   1.984   4.562   6.900  0.3434 -0.1626  1.0738
  550MOL0     C74158   1.880   4.682   6.899 -0.0309 -0.5783  0.2235
  550MOL0     C74159   1.910   4.794   6.799 -0.1746 -0.2164 -0.6948
  550MOL0    Cl74160   1.952   4.733   6.631  0.1305  0.1521  0.0956
  550MOL0     C74161   2.794   4.176   7.324 -0.3951  0.0922  0.0513
  550MOL0     C74162   2.897   4.165   7.413  0.0938 -0.6245 -0.2087
  550MOL0     O74163   3.175   4.446   7.399 -0.2612  0.1459  0.6040
  550MOL0     C74164   3.283   4.280   7.706  0.0046  0.0448  0.2040
  550MOL0     C74165   3.380   4.279   7.801 -0.1689 -0.9846 -0.1013
  550MOL0     N74166   3.966   4.748   8.281  0.6015 -0.9857 -0.5631
  550MOL0     N74167   3.963   4.851   8.359  0.5298 -0.4159 -0.0559
  550MOL0     C74168   4.202   4.265   9.402  0.4140  0.8385 -1.3285
  550MOL0     C74169   4.214   4.221   9.540 -0.3777  0.2676  0.5901
  550MOL0     C74170   4.397   4.247   9.982  1.4105  0.3957 -0.0884
  550MOL0     C74171   4.359   4.112  10.001 -0.5639 -0.1774  1.3985
  550MOL0     C74172   4.360   4.053  10.128 -0.6513  0.2284  0.2563
  550MOL0     C74173   4.421   4.123  10.231 -0.7601  1.3559 -1.1411
  550MOL0     O74174   4.442   4.071  10.354 -0.2613  1.0050  0.6153
  550MOL0     C74175   4.474   3.929  10.374  0.7722  0.0546  0.8726
  550MOL0     C74176   4.502   3.894  10.520  0.3610 -0.2985  0.1861
  550MOL0     C74177   4.642   3.948  10.552  0.1109 -0.0357  1.0687
  550MOL0     C74178   4.678   3.924  10.707 -0.3349 -0.5933  0.2027
  550MOL0     C74179   4.711   3.782  10.739  1.2666  0.3828 -0.2554
  550MOL0     C74180   4.749   3.673  10.777  0.5355  0.6306  1.2824
  550MOL0     C74181   4.464   4.254  10.207 -0.0269  0.0765  0.0165
  550MOL0     C74182   4.458   4.321  10.088 -0.4805 -0.2400  0.5021
  550MOL0     H74183   4.501   4.380   9.612 -0.2193  0.7888 -0.0368
  550MOL0     H74184   4.465   4.470   9.390 -1.5098  0.0294 -1.2830
  550MOL0     H74185   4.235   4.213   9.122  1.8874  1.1439 -2.0377
  550MOL0     H74186   4.095   4.323   9.142 -0.0017  2.8553 -1.1986
  550MOL0     H74187   4.324   4.345   8.953  0.1143 -1.6669  0.5625
  550MOL0     H74188   4.154   4.309   8.905 -1.3640  0.7847 -0.1206
  550MOL0     H74189   4.094   4.529   9.026  0.1380  1.5327  1.4564
  550MOL0     H74190   4.258   4.574   9.019 -1.9493  0.8864  0.7432
  550MOL0     H74191   4.271   4.552   8.772  0.9267 -2.0600 -0.4365
  550MOL0     H74192   4.110   4.480   8.769 -2.5905  0.8049  2.2668
  550MOL0     H74193   4.062   4.709   8.907  0.3153 -1.9737  0.3162
  550MOL0     H74194   4.201   4.762   8.813  0.6188 -1.4750 -0.7908
  550MOL0     H74195   4.079   4.688   8.596 -0.6429  0.0955  0.0808
  550MOL0     H74196   3.947   4.631   8.695  2.3818 -1.1097 -1.1873
  550MOL0     H74197   3.930   4.876   8.787  1.9897  4.2388 -0.5488
  550MOL0     H74198   4.054   4.915   8.679  0.4277  1.4261  1.8596
  550MOL0     H74199   3.876   4.992   8.577  0.9915 -0.0901  1.4967
  550MOL0     H74200   3.751   4.866   8.627 -0.3759  0.5547 -0.6501
  550MOL0     H74201   3.750   4.654   8.514 -2.9055  3.8040  0.6985
  550MOL0     H74202   3.939   4.474   8.241  0.2778 -0.1995 -1.0564
  550MOL0     H74203   3.783   4.464   8.318 -0.8100  3.0871  1.3506
  550MOL0     H74204   3.827   4.640   8.085  1.6617  0.1992  2.3847
  550MOL0     H74205   3.670   4.620   8.164 -0.7652 -1.7152 -0.0102
  550MOL0     H74206   3.678   4.374   8.111  0.4143 -1.9856 -1.7735
  550MOL0     H74207   3.815   4.380   8.024 -3.3813 -5.9033  3.0676
  550MOL0     H74208   3.723   4.508   7.850  0.5054  2.9026  0.5669
  550MOL0     H74209   3.585   4.563   7.949 -0.9101 -0.2619 -0.9768
  550MOL0     H74210   3.620   4.475   7.661 -0.4917  0.0247  0.1537
  550MOL0     H74211   3.561   4.559   7.461 -0.3818 -1.3684 -2.9712
  550MOL0     H74212   3.445   4.456   7.369  2.2511  0.1945 -0.9086
  550MOL0     H74213   3.413   4.611   7.458  2.6192  1.3211  2.9561
  550MOL0     H74214   2.933   4.502   7.450 -0.1723  0.5159  0.0951
  550MOL0     H74215   2.722   4.501   7.289  0.9936  1.3921  0.0334
  550MOL0     H74216   2.516   4.444   7.294 -1.4148 -1.4703  1.1405
  550MOL0     H74217   2.584   4.456   7.118  0.8779 -1.2329 -0.0353
  550MOL0     H74218   2.406   4.296   7.067 -2.0420 -1.8573  1.3322
  550MOL0     H74219   2.321   4.331   7.216  0.1459 -1.1152 -2.2317
  550MOL0     H74220   2.405   4.559   7.023 -0.8442  0.3560 -0.2629
  550MOL0     H74221   2.293   4.569   7.155  0.0367 -0.9346  0.2943
  550MOL0     H74222   2.242   4.423   6.904 -0.6411  2.7055 -1.6846
  550MOL0     H74223   2.143   4.407   7.042  1.1085 -0.4794  1.3950
  550MOL0     H74224   2.170   4.669   6.899  0.1280  0.3489  0.1811
  550MOL0     H74225   2.095   4.648   7.064 -1.3015 -3.3446  2.7769
  550MOL0     H74226   2.005   4.515   6.803 -0.2810 -0.2504  0.9758
  550MOL0     H74227   1.928   4.487   6.957  2.0573 -1.2970  1.3301
  550MOL0     H74228   1.887   4.727   6.999 -0.1776 -0.8387  0.3533
  550MOL0     H74229   1.778   4.646   6.880 -1.3593  2.4167  1.0422
  550MOL0     H74230   1.981   4.865   6.841  2.0996 -2.1251 -1.1442
  550MOL0     H74231   1.814   4.845   6.779 -1.3310 -1.7782  0.6122
  550MOL0     H74232   2.753   4.081   7.291 -2.5971  2.0389 -3.4707
  550MOL0     H74233   2.948   4.070   7.427  2.6792  0.6552 -0.3739
  550MOL0     H74234   3.190   4.226   7.722  0.4391 -1.4869 -1.9886
  550MOL0     H74235   3.389   4.219   7.891  0.7773 -1.1146 -0.2724
  550MOL0     H74236   4.113   4.240   9.345 -0.9785 -0.8669  1.3700
  550MOL0     H74237   4.139   4.157   9.585  0.7066  0.3794  2.7026
  550MOL0     H74238   4.315   4.061   9.916 -0.4286  1.2988  0.4126
  550MOL0     H74239   4.339   3.947  10.123  0.0705  0.1131 -0.5127
  550MOL0     H74240   4.392   3.873  10.329 -0.0633  1.6922  0.2762
  550MOL0     H74241   4.558   3.894  10.314 -0.8375 -4.9433  1.0868
  550MOL0     H74242   4.502   3.785  10.526 -2.5879 -0.6460 -2.9875
  550MOL0     H74243   4.430   3.940  10.589 -0.2795  0.7606 -1.1439
  550MOL0     H74244   4.647   4.056  10.533  2.1271 -0.2889 -0.2261
  550MOL0     H74245   4.709   3.892  10.486 -2.5929  1.6159 -3.6139
  550MOL0     H74246   4.601   3.963  10.774  0.6482 -0.3356  1.2097
  550MOL0     H74247   4.763   3.982  10.744 -0.8569  1.1654 -1.1985
  550MOL0     H74248   4.787   3.576  10.800 -0.7042 -0.1420  0.2338
  550MOL0     H74249   4.515   4.314  10.283  1.5331  0.4704 -1.2853
  550MOL0     H74250   4.482   4.426  10.079  1.4562 -0.7325 -0.6172
  551MOL0     O74251   8.699   2.922   5.097  0.1867 -0.2752  0.3315
  551MOL0     C74252   8.641   2.957   4.990 -0.1943  0.6502 -0.5117
  551MOL0     O74253   8.687   2.929   4.865  0.1656 -0.1064  0.2161
  551MOL0     C74254   8.799   2.844   4.861  0.0474  0.7361  0.2074
  551MOL0     C74255   8.912   2.900   4.799 -0.3291 -0.1571  0.0669
  551MOL0     C74256   9.029   2.835   4.766 -0.4292 -0.6485 -0.3486
  551MOL0     C74257   9.027   2.701   4.802 -0.1691 -0.0723 -0.4179
  551MOL0     O74258   9.134   2.619   4.785  0.0366  0.5849  0.3239
  551MOL0     C74259   9.202   2.577   4.900 -0.1338  0.1806  0.6814
  551MOL0     C74260   9.304   2.471   4.865  0.0338  1.2358 -0.7372
  551MOL0     C74261   9.429   2.531   4.802 -0.0330  0.6513  0.1923
  551MOL0     C74262   9.520   2.448   4.726 -0.2388  0.1722  0.1592
  551MOL0     C74263   9.507   2.475   4.580 -0.2211  0.0128 -0.1856
  551MOL0     C74264   9.590   2.589   4.537 -0.1455 -0.1889  0.7678
  551MOL0     C74265   9.538   2.660   4.410  0.3854 -0.1128  0.4891
  551MOL0     C74266   9.624   2.772   4.358  0.2177 -0.1005 -0.0326
  551MOL0     N74267   9.571   2.839   4.242  0.0991  0.0541 -0.2315
  551MOL0     C74268   9.552   2.788   4.119  0.2081  1.0932 -0.0373
  551MOL0     C74269   9.523   2.881   4.036 -0.1645 -0.7978 -0.7540
  551MOL0     C74270   9.507   2.862   3.883 -0.1700  0.1741  0.1182
  551MOL0     C74271   9.395   2.959   3.832  0.0046  1.4419 -0.3312
  551MOL0     C74272   9.267   2.884   3.781 -0.0314  0.3920 -1.1282
  551MOL0     C74273   9.148   2.986   3.781 -0.2866 -0.3058  0.0679
  551MOL0     O74274   9.187   3.093   3.696  0.4034  0.1980 -0.3794
  551MOL0     C74275   9.089   3.189   3.662  0.1277 -1.0585  1.1095
  551MOL0     C74276   9.140   3.305   3.602 -0.9148  0.3473 -0.6472
  551MOL0     C74277   9.063   3.412   3.561 -0.4937  0.3875  0.0728
  551MOL0     C74278   9.128   3.522   3.485 -0.1130 -0.1062 -0.2506
  551MOL0     C74279   8.926   3.400   3.587  0.0954  0.5015  0.4710
  551MOL0     C74280   8.830   3.515   3.584 -0.8448  0.3390  0.7347
  551MOL0     O74281   8.859   3.619   3.505  0.6816 -0.5259 -0.1642
  551MOL0     C74282   8.877   3.744   3.565 -0.1377 -0.2503  0.5670
  551MOL0     C74283   8.897   3.858   3.492 -0.0441  0.3014  0.7111
  551MOL0     C74284   8.925   3.981   3.548 -0.1156 -0.0290  0.1168
  551MOL0     C74285   8.929   3.996   3.685 -0.2033  0.2357 -0.6496
  551MOL0     O74286   8.939   4.129   3.731  0.3663  0.2851  0.1106
  551MOL0     C74287   8.900   4.172   3.864  0.2048 -0.8928  0.7791
  551MOL0     C74288   8.952   4.320   3.888  0.4536 -0.0026 -0.4136
  551MOL0     C74289   8.873   4.430   3.817  0.2622  0.1309  0.3909
  551MOL0     C74290   8.941   4.558   3.857  0.8071 -0.4784 -0.1495
  551MOL0     C74291   8.860   4.674   3.816 -1.1488  0.3001  0.0739
  551MOL0     C74292   8.852   4.792   3.913 -0.5931  0.6782 -0.3427
  551MOL0     C74293   8.766   4.911   3.856 -0.4573 -0.0968 -0.0420
  551MOL0     C74294   8.620   4.905   3.894  0.0743  0.9164 -0.1097
  551MOL0    Cl74295   8.566   4.975   4.044  0.4899  0.1514 -0.1109
  551MOL0     C74296   8.911   3.883   3.764  0.0174  0.6430 -0.4436
  551MOL0     C74297   8.881   3.765   3.701  0.7628  0.1854  0.0409
  551MOL0     O74298   8.736   3.500   3.656  0.1204  0.1627 -0.8310
  551MOL0     C74299   8.875   3.282   3.643  0.1155 -0.4718 -0.3638
  551MOL0     C74300   8.952   3.177   3.689  0.3850  0.2843 -0.4220
  551MOL0     N74301   9.540   2.999   4.107 -0.0418  0.4288 -0.6088
  551MOL0     N74302   9.568   2.972   4.227  0.3986  0.0294 -0.4214
  551MOL0     C74303   8.917   2.638   4.865 -0.0414 -0.4325  0.5237
  551MOL0     C74304   8.799   2.703   4.890  0.6637  0.0327 -0.6355
  551MOL0     C74305   8.514   3.036   4.992  0.2690 -0.3437  0.6895
  551MOL0     C74306   8.447   3.077   5.110 -0.0559  0.5784 -0.1527
  551MOL0     C74307   8.322   3.144   5.101  0.6451  0.4357 -0.0376
  551MOL0     C74308   8.261   3.168   4.977  0.2889  0.5610 -0.8279
  551MOL0     O74309   8.139   3.224   4.961 -0.0011 -0.4322  0.4153
  551MOL0     C74310   8.144   3.365   4.953  0.7504  0.2898 -0.3667
  551MOL0     C74311   8.139   3.404   4.800 -1.1134 -0.5116 -0.3519
  551MOL0     C74312   8.072   3.549   4.789 -0.5956  0.2720 -0.1743
  551MOL0     C74313   8.060   3.593   4.646  0.5856 -0.5311 -0.4207
  551MOL0     C74314   7.950   3.521   4.581 -0.0268  0.8537 -0.3805
  551MOL0     C74315   7.861   3.461   4.528  0.6124  0.5235  0.3107
  551MOL0     C74316   8.327   3.132   4.859 -0.4982  0.1970 -0.2362
  551MOL0     C74317   8.449   3.067   4.873  0.1308  0.6326  0.7992
  551MOL0     H74318   8.918   3.007   4.783 -2.3156  0.0112  0.1397
  551MOL0     H74319   9.119   2.883   4.731 -0.5881  1.9336  2.4312
  551MOL0     H74320   9.257   2.659   4.948 -0.4898  0.8332  0.0129
  551MOL0     H74321   9.135   2.524   4.968  0.6614 -2.5366 -0.5200
  551MOL0     H74322   9.332   2.397   4.940  0.5645  1.3899 -0.7799
  551MOL0     H74323   9.257   2.407   4.789 -1.4236  1.5082 -0.1006
  551MOL0     H74324   9.396   2.617   4.742  0.5991  4.2163  4.4511
  551MOL0     H74325   9.484   2.585   4.879 -1.2049  1.5590  0.4189
  551MOL0     H74326   9.621   2.462   4.765 -0.2740  2.4596 -0.4622
  551MOL0     H74327   9.482   2.345   4.735  2.6375 -1.3959 -3.1377
  551MOL0     H74328   9.543   2.384   4.531 -0.8332  0.3309 -1.2561
  551MOL0     H74329   9.401   2.490   4.557  0.1335  2.0286 -0.6448
  551MOL0     H74330   9.591   2.665   4.615  3.6015  0.9516 -0.1893
  551MOL0     H74331   9.692   2.553   4.519 -0.1505  0.0779  0.1930
  551MOL0     H74332   9.527   2.588   4.328  0.0982 -1.5054  1.7005
  551MOL0     H74333   9.438   2.702   4.427  0.4895  1.5613 -2.4389
  551MOL0     H74334   9.719   2.726   4.328  2.0157  1.3918  2.8324
  551MOL0     H74335   9.634   2.837   4.445  0.1598 -0.8213  0.5215
  551MOL0     H74336   9.572   2.683   4.100 -1.0993  0.7796  0.2330
  551MOL0     H74337   9.598   2.869   3.824  0.5716 -3.4384  0.6351
  551MOL0     H74338   9.478   2.758   3.866  0.2436  0.4907 -3.1253
  551MOL0     H74339   9.439   3.018   3.751 -1.1876  2.0128 -0.5746
  551MOL0     H74340   9.377   3.037   3.907  0.7771  1.3375 -0.0242
  551MOL0     H74341   9.229   2.805   3.847 -0.9501  0.2864 -1.7700
  551MOL0     H74342   9.275   2.833   3.685 -2.1769  0.0445 -1.1738
  551MOL0     H74343   9.120   3.024   3.879  0.3992 -0.7581  0.4439
  551MOL0     H74344   9.066   2.928   3.737  1.8652 -1.8199 -2.2170
  551MOL0     H74345   9.248   3.315   3.603 -0.6667 -1.8452 -1.0741
  551MOL0     H74346   9.124   3.610   3.550  2.5200 -0.1979  0.1808
  551MOL0     H74347   9.233   3.503   3.459  0.4411  3.0399 -0.7445
  551MOL0     H74348   9.083   3.536   3.386 -1.0727 -3.2840 -0.3828
  551MOL0     H74349   8.891   3.853   3.384  0.0833  3.0179  0.5252
  551MOL0     H74350   8.939   4.069   3.486 -0.1684  0.4856  0.8223
  551MOL0     H74351   8.791   4.169   3.876  0.1259  2.0434  1.6505
  551MOL0     H74352   8.953   4.105   3.932 -0.0312 -2.4608 -0.5301
  551MOL0     H74353   8.953   4.334   3.997  2.6115  0.7823 -0.4787
  551MOL0     H74354   9.057   4.327   3.856  1.3203 -2.3162  1.5816
  551MOL0     H74355   8.768   4.433   3.848  0.5577  0.0860  1.4032
  551MOL0     H74356   8.860   4.409   3.710 -2.6628  1.3798  0.3992
  551MOL0     H74357   8.955   4.561   3.966  3.2259 -0.4096 -0.4017
  551MOL0     H74358   9.044   4.569   3.822  1.1007 -0.9488  0.5395
  551MOL0     H74359   8.755   4.651   3.793 -0.7523 -0.3326 -1.1916
  551MOL0     H74360   8.906   4.697   3.719  0.1329 -2.6523 -0.1179
  551MOL0     H74361   8.809   4.769   4.011  2.7402  1.3930  1.4494
  551MOL0     H74362   8.950   4.838   3.931 -1.5361  2.6566 -0.0614
  551MOL0     H74363   8.780   4.922   3.748 -0.9695 -5.2714 -0.8810
  551MOL0     H74364   8.798   5.006   3.900 -3.3138 -0.0538  2.2782
  551MOL0     H74365   8.595   4.799   3.889 -1.6308  1.3254 -1.4085
  551MOL0     H74366   8.562   4.965   3.823  0.6463  4.0651  1.8428
  551MOL0     H74367   8.918   3.881   3.872 -0.2770  0.8380 -0.4200
  551MOL0     H74368   8.840   3.694   3.772 -4.7851  1.7493 -1.1619
  551MOL0     H74369   8.767   3.275   3.653 -0.2103  2.9668 -0.3029
  551MOL0     H74370   8.905   3.088   3.729 -0.4928 -0.1070 -2.2345
  551MOL0     H74371   8.925   2.534   4.894  2.5189 -1.1407 -2.1711
  551MOL0     H74372   8.706   2.660   4.926  0.9845  1.2871  2.0238
  551MOL0     H74373   8.487   3.059   5.209  0.0292 -0.4630 -0.3586
  551MOL0     H74374   8.267   3.169   5.192  2.4702 -3.3421  2.3802
  551MOL0     H74375   8.066   3.418   5.008 -0.1621 -0.6985 -0.6691
  551MOL0     H74376   8.239   3.399   4.994  0.3912  1.4712 -0.4848
  551MOL0     H74377   8.087   3.336   4.731 -2.3873 -0.8718  0.9278
  551MOL0     H74378   8.242   3.424   4.769 -0.0941 -1.6743  2.0911
  551MOL0     H74379   8.136   3.623   4.837  2.1226  0.1037 -3.1599
  551MOL0     H74380   7.979   3.554   4.846  0.2005  1.7522  1.0777
  551MOL0     H74381   8.158   3.586   4.597  0.5528  2.5939 -1.1992
  551MOL0     H74382   8.036   3.700   4.639 -1.6811 -0.6392  3.3288
  551MOL0     H74383   7.780   3.409   4.482 -0.5778 -0.2962  3.0766
  551MOL0     H74384   8.288   3.164   4.763 -2.2338 -0.3360  0.2460
  551MOL0     H74385   8.504   3.066   4.780 -1.3417  2.2136 -0.1556
  552MOL0     O74386   8.122   7.938   1.512 -0.5554 -0.4213  0.2579
  552MOL0     C74387   8.212   7.985   1.439  0.7575 -0.2741 -0.0333
  552MOL0     O74388   8.331   7.923   1.407 -0.0499  0.1160  0.1433
  552MOL0     C74389   8.368   7.797   1.455  0.7715  0.0619 -0.0168
  552MOL0     C74390   8.462   7.728   1.381  1.1144 -0.0835  0.2916
  552MOL0     C74391   8.522   7.612   1.430 -1.1368  0.1142  0.2892
  552MOL0     C74392   8.479   7.554   1.553  0.4652  0.7577 -0.8373
  552MOL0     O74393   8.529   7.435   1.595  0.9833  0.3609 -0.7507
  552MOL0     C74394   8.475   7.321   1.532  0.2752  0.0044  0.2495
  552MOL0     C74395   8.567   7.195   1.573  0.4019  0.2634  0.1716
  552MOL0     C74396   8.481   7.063   1.544 -0.7339  0.1728 -0.1785
  552MOL0     C74397   8.552   6.924   1.570  0.4306 -0.5175 -0.7159
  552MOL0     C74398   8.454   6.814   1.557  0.0917 -0.0253 -0.2626
  552MOL0     C74399   8.505   6.673   1.587  0.7076 -0.0509 -0.0192
  552MOL0     C74400   8.398   6.571   1.541  0.3267  0.2500  0.1813
  552MOL0     C74401   8.443   6.431   1.554  0.5020  0.0135  0.0605
  552MOL0     N74402   8.452   6.375   1.695  0.2996 -0.7927  0.2319
  552MOL0     C74403   8.383   6.424   1.801 -0.6402  0.1237 -0.0455
  552MOL0     C74404   8.420   6.349   1.906 -0.1964 -0.2365  0.1810
  552MOL0     C74405   8.388   6.376   2.052 -0.8578  0.1781  0.0462
  552MOL0     C74406   8.450   6.517   2.106 -0.1225  1.1038  0.8038
  552MOL0     C74407   8.600   6.529   2.080 -0.4621 -0.4258  0.1722
  552MOL0     C74408   8.640   6.673   2.129 -0.0280 -0.2177 -0.4265
  552MOL0     O74409   8.637   6.694   2.271 -0.1166  0.0563  0.2078
  552MOL0     C74410   8.724   6.632   2.352  0.8149  0.1488 -0.0087
  552MOL0     C74411   8.702   6.662   2.489 -0.7583 -0.0048  0.1379
  552MOL0     C74412   8.797   6.622   2.592  0.5988 -0.7998  0.5016
  552MOL0     C74413   8.765   6.665   2.728 -0.7321 -0.0347 -0.2104
  552MOL0     C74414   8.910   6.543   2.552 -0.1642  0.1499  0.2698
  552MOL0     C74415   9.017   6.494   2.648  1.2833 -0.5394 -0.2472
  552MOL0     O74416   9.146   6.490   2.593  0.5196  0.3511 -0.5005
  552MOL0     C74417   9.250   6.424   2.653  0.3042 -0.2917 -0.1087
  552MOL0     C74418   9.235   6.299   2.709 -0.1866 -0.3658  0.2676
  552MOL0     C74419   9.345   6.217   2.752  1.4625 -0.2785 -0.4997
  552MOL0     C74420   9.469   6.267   2.743  0.1527 -0.2028  0.2537
  552MOL0     O74421   9.593   6.199   2.767  0.0159 -0.1753  0.8145
  552MOL0     C74422   9.602   6.064   2.809  0.0743 -0.4821  0.8337
  552MOL0     C74423   9.741   6.026   2.763 -0.0020  0.4477  0.3061
  552MOL0     C74424   9.745   5.877   2.805  0.0003  0.1580 -0.6550
  552MOL0     C74425   9.887   5.841   2.828 -1.4188  0.7242 -0.1652
  552MOL0     C74426   9.925   5.689   2.828 -0.7485 -0.1947 -0.2380
  552MOL0     C74427   9.938   5.604   2.700  0.2436 -0.1906 -0.6480
  552MOL0     C74428   9.823   5.604   2.611 -0.7457 -1.0594  0.1895
  552MOL0     C74429   9.849   5.506   2.499  0.0508 -1.2621 -0.4459
  552MOL0    Cl74430   9.698   5.467   2.422 -0.6947 -0.4822 -0.2691
  552MOL0     C74431   9.487   6.404   2.701 -0.5291  0.9423  0.1125
  552MOL0     C74432   9.377   6.481   2.653 -0.8086  0.3354  0.3199
  552MOL0     O74433   8.989   6.464   2.766  0.0610  0.3279  0.2051
  552MOL0     C74434   8.920   6.501   2.417 -0.3024 -0.1465 -0.7403
  552MOL0     C74435   8.824   6.543   2.318 -0.0693 -0.2367  0.6234
  552MOL0     N74436   8.516   6.264   1.862 -0.7521  1.2160 -0.4604
  552MOL0     N74437   8.545   6.284   1.739 -0.0743  0.1589 -0.3755
  552MOL0     C74438   8.386   7.620   1.627 -0.8039 -0.8839  0.4794
  552MOL0     C74439   8.335   7.740   1.578 -0.5795  0.1254 -0.1370
  552MOL0     C74440   8.185   8.119   1.377 -0.5658  0.9299 -0.0688
  552MOL0     C74441   8.214   8.119   1.240 -1.0532 -0.0010 -0.4567
  552MOL0     C74442   8.164   8.227   1.163  0.2153 -0.4266  0.2863
  552MOL0     C74443   8.089   8.327   1.216 -0.0873  0.0421 -0.1227
  552MOL0     O74444   8.033   8.423   1.130 -0.6524  0.4757  0.1222
  552MOL0     C74445   7.938   8.526   1.175  0.0079  0.8070  0.1878
  552MOL0     C74446   7.806   8.473   1.236  0.5770 -0.3786  0.1310
  552MOL0     C74447   7.690   8.570   1.235  0.4541 -0.5599  0.0947
  552MOL0     C74448   7.562   8.497   1.260  1.1904 -0.3700 -0.0679
  552MOL0     C74449   7.451   8.584   1.319 -0.3903 -0.1044  1.1080
  552MOL0     C74450   7.364   8.642   1.381  0.2438 -0.4581  0.8944
  552MOL0     C74451   8.076   8.330   1.360  1.0430  0.0569  0.0508
  552MOL0     C74452   8.121   8.226   1.438  0.3479 -0.2239  0.1131
  552MOL0     H74453   8.477   7.779   1.287  1.8527  1.1580  1.0505
  552MOL0     H74454   8.587   7.552   1.368 -2.8687 -0.0654 -1.4683
  552MOL0     H74455   8.375   7.308   1.574 -0.4519 -0.1566 -1.4548
  552MOL0     H74456   8.459   7.328   1.424 -0.7604  2.5014  0.4707
  552MOL0     H74457   8.648   7.192   1.500 -2.1614 -2.4856 -2.8619
  552MOL0     H74458   8.612   7.195   1.672  5.3814 -3.2816 -1.6653
  552MOL0     H74459   8.401   7.065   1.619 -1.0552  3.0583 -0.5173
  552MOL0     H74460   8.436   7.055   1.445  1.2788 -1.2681 -1.0435
  552MOL0     H74461   8.626   6.916   1.490  0.7826  1.1930 -0.6166
  552MOL0     H74462   8.589   6.933   1.673 -0.4664 -1.2215 -0.3216
  552MOL0     H74463   8.365   6.814   1.621  0.3582 -0.1112  0.1163
  552MOL0     H74464   8.411   6.819   1.457  3.1740  1.5291 -1.6645
  552MOL0     H74465   8.596   6.638   1.538  1.1618  0.7867  0.2092
  552MOL0     H74466   8.525   6.660   1.694 -2.3271  3.4983  1.1674
  552MOL0     H74467   8.300   6.572   1.588  0.1223 -0.1635 -0.2271
  552MOL0     H74468   8.383   6.596   1.435  1.5093  2.7858  0.5299
  552MOL0     H74469   8.536   6.411   1.501 -0.2725  2.1180 -2.2795
  552MOL0     H74470   8.366   6.377   1.498  2.3889 -1.5242 -1.1667
  552MOL0     H74471   8.316   6.510   1.803 -0.5820  0.1570  0.8817
  552MOL0     H74472   8.281   6.391   2.073 -0.4428  1.3515  1.5518
  552MOL0     H74473   8.429   6.293   2.109 -2.3424 -1.0553 -0.6143
  552MOL0     H74474   8.448   6.530   2.214  2.1933  0.4108  0.9851
  552MOL0     H74475   8.388   6.599   2.067  0.6477  1.5405  0.4716
  552MOL0     H74476   8.642   6.522   1.979  2.3655  1.5315  1.0826
  552MOL0     H74477   8.654   6.450   2.133  0.2195  1.0883  1.8434
  552MOL0     H74478   8.578   6.748   2.078 -1.2278 -0.9334 -0.0597
  552MOL0     H74479   8.743   6.695   2.100 -0.1994  0.2813 -0.6777
  552MOL0     H74480   8.619   6.730   2.504 -1.6305 -0.1667 -3.2964
  552MOL0     H74481   8.674   6.726   2.732 -0.5033  0.2549  1.4054
  552MOL0     H74482   8.761   6.580   2.797 -1.2515  0.6148  0.5825
  552MOL0     H74483   8.844   6.733   2.763 -2.9430  2.6463 -0.1053
  552MOL0     H74484   9.137   6.251   2.708  0.1264 -1.0621 -1.8070
  552MOL0     H74485   9.331   6.121   2.800  0.0699  0.7693  1.3306
  552MOL0     H74486   9.597   6.061   2.918 -1.2180 -2.7958  0.7532
  552MOL0     H74487   9.526   5.997   2.768 -0.4499  0.1248  0.7976
  552MOL0     H74488   9.751   6.035   2.655  1.4515 -2.1378  0.1249
  552MOL0     H74489   9.813   6.096   2.805 -0.9610  3.0808 -2.1748
  552MOL0     H74490   9.687   5.818   2.734 -0.0947 -0.3530 -0.1631
  552MOL0     H74491   9.701   5.866   2.904 -0.9875 -4.2985 -1.3344
  552MOL0     H74492   9.945   5.884   2.746 -2.4223  0.9516 -0.7760
  552MOL0     H74493   9.912   5.884   2.926  0.3216 -1.6042  0.4981
  552MOL0     H74494   9.873   5.633   2.905  1.5612 -1.7216  0.3193
  552MOL0     H74495  10.026   5.686   2.870 -1.0412 -1.8401  0.4065
  552MOL0     H74496  10.016   5.633   2.629  0.7547  1.2963  0.4632
  552MOL0     H74497   9.948   5.497   2.722  0.0087 -0.7588 -3.0500
  552MOL0     H74498   9.811   5.705   2.569  1.7015 -1.4284 -1.6751
  552MOL0     H74499   9.733   5.570   2.661 -3.6009  2.8708 -1.6796
  552MOL0     H74500   9.886   5.416   2.548 -3.4114 -2.0137  1.0707
  552MOL0     H74501   9.924   5.542   2.428 -1.8933 -1.7054 -2.8633
  552MOL0     H74502   9.589   6.437   2.687 -0.6863  0.6071 -2.2476
  552MOL0     H74503   9.400   6.574   2.602 -0.6129 -0.4300 -1.0116
  552MOL0     H74504   8.993   6.424   2.393 -0.7804 -0.7599 -0.2645
  552MOL0     H74505   8.831   6.523   2.212 -2.4311 -0.5390  0.4668
  552MOL0     H74506   8.351   7.584   1.723  0.4438 -0.5807  1.0693
  552MOL0     H74507   8.259   7.797   1.631  0.0691 -0.6529  1.7002
  552MOL0     H74508   8.256   8.025   1.208 -1.9932  0.1404 -2.2516
  552MOL0     H74509   8.181   8.243   1.056 -0.1677  2.0938  0.5262
  552MOL0     H74510   7.987   8.601   1.237 -0.1130 -0.7386  2.2671
  552MOL0     H74511   7.908   8.582   1.086 -2.1564 -2.0986 -1.0890
  552MOL0     H74512   7.823   8.433   1.336  0.6630 -1.7712 -0.4158
  552MOL0     H74513   7.786   8.384   1.175  0.1871  0.9689 -1.7939
  552MOL0     H74514   7.681   8.618   1.137 -2.6586  0.9610  0.9996
  552MOL0     H74515   7.701   8.634   1.322  1.8386 -2.0314  1.0539
  552MOL0     H74516   7.581   8.415   1.329  0.9559  0.5974  1.1697
  552MOL0     H74517   7.524   8.451   1.168  2.7127  0.1317 -0.9745
  552MOL0     H74518   7.280   8.689   1.428  0.3090  0.1344  0.4291
  552MOL0     H74519   8.022   8.415   1.400 -0.6702 -0.7219 -0.4873
  552MOL0     H74520   8.097   8.230   1.544 -3.7316 -1.0386 -0.6351
  553MOL0     O74521   2.868   7.300   6.205  0.5127 -0.2317 -0.0107
  553MOL0     C74522   2.851   7.237   6.096  0.0666 -0.2986 -0.1120
  553MOL0     O74523   2.914   7.125   6.061  0.1997 -0.3033  0.1065
  553MOL0     C74524   2.977   7.046   6.154 -0.9911 -0.2341 -0.4408
  553MOL0     C74525   2.918   6.931   6.207  0.0129  0.2272 -0.7002
  553MOL0     C74526   2.995   6.856   6.298 -0.6530 -1.0971 -0.1969
  553MOL0     C74527   3.121   6.902   6.337 -0.5739  0.5642 -0.1947
  553MOL0     O74528   3.188   6.821   6.428 -0.4104 -0.3625  0.7324
  553MOL0     C74529   3.333   6.805   6.414 -0.4744  0.1456  0.1757
  553MOL0     C74530   3.400   6.882   6.523  0.0527  0.1326  0.1383
  553MOL0     C74531   3.338   6.878   6.662 -0.5343  0.0291 -0.2914
  553MOL0     C74532   3.347   6.747   6.737  0.2729 -0.1949 -0.0688
  553MOL0     C74533   3.488   6.690   6.739 -0.4649  1.1660  0.3173
  553MOL0     C74534   3.511   6.576   6.838 -0.0871 -0.3462  0.1783
  553MOL0     C74535   3.662   6.543   6.845  0.9774 -0.1367 -0.3071
  553MOL0     C74536   3.713   6.464   6.723  0.7602 -0.6090  0.2425
  553MOL0     N74537   3.854   6.446   6.740  0.4791 -0.2636 -0.0256
  553MOL0     C74538   3.946   6.530   6.678 -0.3071 -1.0449 -1.4944
  553MOL0     C74539   4.063   6.454   6.676  0.5352 -0.5959 -0.4354
  553MOL0     C74540   4.183   6.507   6.606 -0.5043 -0.3391 -0.6542
  553MOL0     C74541   4.169   6.478   6.456  0.8213 -0.2849 -0.8606
  553MOL0     C74542   4.305   6.524   6.389 -0.0541  0.1705 -0.7679
  553MOL0     C74543   4.354   6.442   6.280 -0.0672 -0.8644  0.1095
  553MOL0     O74544   4.420   6.325   6.337 -0.3211  0.4778  0.4657
  553MOL0     C74545   4.559   6.319   6.354  0.4265  0.2358 -0.7763
  553MOL0     C74546   4.644   6.428   6.369 -0.6394  0.1644  0.2243
  553MOL0     C74547   4.786   6.421   6.388  0.2699  0.5728 -0.5836
  553MOL0     C74548   4.865   6.549   6.404 -0.1845  0.0311  0.0987
  553MOL0     C74549   4.836   6.290   6.396 -0.9267 -0.1284  0.7510
  553MOL0     C74550   4.986   6.261   6.400  0.1091  0.6679  0.1059
  553MOL0     O74551   5.059   6.310   6.496  0.2223 -0.2267  0.1547
  553MOL0     C74552   5.196   6.309   6.490  0.0486  1.3567 -0.2956
  553MOL0     C74553   5.261   6.310   6.618 -1.7148 -0.1444  0.0521
  553MOL0     C74554   5.403   6.352   6.631  0.3944  0.3673  0.5585
  553MOL0     C74555   5.469   6.375   6.510  0.2644 -0.5131 -0.2572
  553MOL0     O74556   5.603   6.414   6.526  0.2406  0.4907 -0.1699
  553MOL0     C74557   5.691   6.340   6.444 -0.5392 -0.6682 -0.0346
  553MOL0     C74558   5.805   6.302   6.541  0.9734  0.3875 -1.4859
  553MOL0     C74559   5.762   6.205   6.658 -0.3262  0.4196  0.1877
  553MOL0     C74560   5.890   6.155   6.741  0.1996 -0.4113  0.2546
  553MOL0     C74561   5.955   6.265   6.842 -0.1133  0.1908  0.3202
  553MOL0     C74562   6.087   6.205   6.894  0.0336  0.3007  0.1575
  553MOL0     C74563   6.162   6.307   6.979  0.0162  0.2419  0.2863
  553MOL0     C74564   6.283   6.248   7.057 -0.2713  0.3358  0.2107
  553MOL0    Cl74565   6.426   6.210   6.946  0.0057  0.2604 -0.4012
  553MOL0     C74566   5.408   6.373   6.384  0.2155 -1.0184 -0.7058
  553MOL0     C74567   5.274   6.341   6.373 -0.2833  0.5521  0.1543
  553MOL0     O74568   5.029   6.176   6.322  1.1232 -0.7223 -0.4730
  553MOL0     C74569   4.751   6.173   6.365 -0.8140  0.3151  0.2205
  553MOL0     C74570   4.613   6.192   6.350 -0.6391 -0.3105 -0.8949
  553MOL0     N74571   4.037   6.343   6.750 -0.1530  0.5521 -0.4131
  553MOL0     N74572   3.910   6.340   6.783  0.1818  0.1305 -0.5535
  553MOL0     C74573   3.179   7.015   6.279 -0.4095  0.1591 -0.0644
  553MOL0     C74574   3.111   7.085   6.187  0.3815  0.2996  0.2522
  553MOL0     C74575   2.784   7.296   5.980  0.4870  0.0551  0.9959
  553MOL0     C74576   2.786   7.235   5.853  0.2724  0.1653  0.2888
  553MOL0     C74577   2.716   7.297   5.744  0.0333  0.6876 -0.4513
  553MOL0     C74578   2.630   7.404   5.765  0.8207  0.0666 -0.9331
  553MOL0     O74579   2.569   7.472   5.666 -0.8525 -0.7116 -0.8138
  553MOL0     C74580   2.425   7.501   5.680 -0.0225 -0.2233  0.3026
  553MOL0     C74581   2.357   7.410   5.574  0.4985 -0.1294 -0.8448
  553MOL0     C74582   2.215   7.476   5.531  0.5825 -0.7644  0.6708
  553MOL0     C74583   2.231   7.582   5.432  0.6249 -0.7821 -0.4790
  553MOL0     C74584   2.101   7.609   5.374  0.7117 -1.0628  0.4571
  553MOL0     C74585   1.990   7.633   5.334 -0.5866 -0.6874  0.6264
  553MOL0     C74586   2.617   7.453   5.895  0.5251 -0.8474 -0.3634
  553MOL0     C74587   2.687   7.394   6.005  0.8639 -0.4868 -0.2822
  553MOL0     H74588   2.824   6.894   6.168 -0.4506 -1.0267  1.4443
  553MOL0     H74589   2.954   6.764   6.338 -0.3199 -0.1422  2.5283
  553MOL0     H74590   3.353   6.698   6.423 -4.5518 -0.7648  0.8142
  553MOL0     H74591   3.364   6.830   6.312  1.5711 -3.1605 -0.1808
  553MOL0     H74592   3.506   6.859   6.536  0.0414  0.8110  1.7539
  553MOL0     H74593   3.386   6.987   6.495 -0.7846 -0.0490 -0.1464
  553MOL0     H74594   3.385   6.954   6.725 -0.1291 -1.4434  1.2332
  553MOL0     H74595   3.233   6.905   6.652 -2.3748 -4.0460  4.0721
  553MOL0     H74596   3.307   6.754   6.838  2.2411 -3.8918  1.1718
  553MOL0     H74597   3.277   6.685   6.680 -1.4406 -1.5136  3.2337
  553MOL0     H74598   3.501   6.657   6.636 -0.8094 -2.7457  1.3722
  553MOL0     H74599   3.566   6.764   6.757  1.1299  0.3777 -2.6865
  553MOL0     H74600   3.483   6.615   6.936 -0.7052 -0.3032 -0.0117
  553MOL0     H74601   3.456   6.486   6.808  0.6246 -1.1754  1.3025
  553MOL0     H74602   3.728   6.628   6.865 -1.4829  1.8194 -0.0157
  553MOL0     H74603   3.663   6.473   6.929 -0.3162 -0.1414 -0.2732
  553MOL0     H74604   3.675   6.512   6.632 -1.4126 -1.7445  0.4860
  553MOL0     H74605   3.668   6.365   6.732 -2.4129  0.8436  2.6269
  553MOL0     H74606   3.938   6.621   6.620 -0.1183 -2.1953 -3.4418
  553MOL0     H74607   4.200   6.615   6.617  0.2371 -0.1068 -3.3863
  553MOL0     H74608   4.264   6.448   6.647 -0.7207  1.4075  2.5921
  553MOL0     H74609   4.087   6.526   6.401  0.3508 -1.9692 -1.7052
  553MOL0     H74610   4.160   6.371   6.435 -0.5056 -0.0510 -1.6180
  553MOL0     H74611   4.388   6.534   6.460  2.9582 -0.8338 -3.8475
  553MOL0     H74612   4.292   6.627   6.355  2.5488  0.9899  0.4938
  553MOL0     H74613   4.427   6.492   6.216  1.0452 -1.6568  0.7343
  553MOL0     H74614   4.275   6.408   6.212 -2.3320  0.8647  1.7350
  553MOL0     H74615   4.593   6.524   6.365 -2.3819 -0.6705  1.1927
  553MOL0     H74616   4.878   6.594   6.305  1.2530 -0.7041 -0.0766
  553MOL0     H74617   4.826   6.617   6.480 -0.2109 -2.8500  2.8801
  553MOL0     H74618   4.963   6.537   6.451  0.6219 -0.4172 -1.6084
  553MOL0     H74619   5.210   6.272   6.706  0.5859 -1.1028  1.0450
  553MOL0     H74620   5.447   6.347   6.730 -0.4530 -0.1259  0.9161
  553MOL0     H74621   5.654   6.252   6.391  0.8269 -1.4280  0.2233
  553MOL0     H74622   5.731   6.404   6.364 -2.8816  1.6090  0.4790
  553MOL0     H74623   5.883   6.247   6.486  2.5045  0.3181  0.6284
  553MOL0     H74624   5.853   6.394   6.575 -1.7249  2.0057 -1.8431
  553MOL0     H74625   5.719   6.110   6.625  0.8485 -0.5289  1.2587
  553MOL0     H74626   5.699   6.247   6.738 -2.6301 -0.8112 -0.8884
  553MOL0     H74627   5.852   6.084   6.816  0.0857  2.0978  2.7395
  553MOL0     H74628   5.947   6.104   6.663 -3.0510 -0.0001 -2.6322
  553MOL0     H74629   5.886   6.287   6.924  0.3030  0.9092  0.4893
  553MOL0     H74630   5.961   6.363   6.793  3.0464  0.4932  1.1431
  553MOL0     H74631   6.070   6.113   6.951 -0.0097  1.0051  1.3174
  553MOL0     H74632   6.141   6.192   6.800  4.7654 -0.0313  2.6294
  553MOL0     H74633   6.094   6.334   7.060 -0.4997 -0.0693 -0.0435
  553MOL0     H74634   6.200   6.395   6.926  3.5480 -1.0711  0.3822
  553MOL0     H74635   6.242   6.158   7.103 -5.5238  1.8688 -0.8441
  553MOL0     H74636   6.327   6.326   7.120  3.4275  0.0970 -1.7758
  553MOL0     H74637   5.478   6.395   6.305  1.0334  3.8447  1.0154
  553MOL0     H74638   5.225   6.340   6.277 -4.3214 -1.0472  2.0064
  553MOL0     H74639   4.781   6.074   6.333 -2.1602 -0.5424  1.4950
  553MOL0     H74640   4.546   6.108   6.336 -0.4283 -0.3773 -1.5344
  553MOL0     H74641   3.276   7.057   6.303  0.1431 -1.1353  0.0439
  553MOL0     H74642   3.139   7.180   6.144 -0.6947  0.2521 -0.5940
  553MOL0     H74643   2.841   7.146   5.824 -0.7882  0.7885 -4.5410
  553MOL0     H74644   2.745   7.261   5.646  1.9375 -2.0930  0.9740
  553MOL0     H74645   2.388   7.488   5.782 -1.8098  2.3559  0.0853
  553MOL0     H74646   2.407   7.604   5.648 -1.7993 -0.8511 -0.8849
  553MOL0     H74647   2.329   7.312   5.612 -1.3991 -0.0660 -1.9583
  553MOL0     H74648   2.419   7.397   5.485 -2.0661 -0.7879 -2.6539
  553MOL0     H74649   2.175   7.520   5.623  0.2712 -0.2865  0.3111
  553MOL0     H74650   2.154   7.395   5.491 -1.2400 -0.4483  2.6422
  553MOL0     H74651   2.302   7.556   5.353 -0.5065 -3.7351 -0.6730
  553MOL0     H74652   2.265   7.673   5.482 -0.9625  0.5252 -1.6403
  553MOL0     H74653   1.892   7.656   5.296  0.3292  0.0190 -1.4280
  553MOL0     H74654   2.557   7.542   5.913  2.9022  0.3669  2.3820
  553MOL0     H74655   2.665   7.427   6.106  0.1553 -2.2294  0.1611
  554MOL0     O74656   4.777   7.607   2.787  0.6219 -0.1149 -0.8030
  554MOL0     C74657   4.714   7.500   2.771  0.3363 -0.9464 -0.2141
  554MOL0     O74658   4.595   7.482   2.720 -0.3811  0.0146  0.0765
  554MOL0     C74659   4.515   7.596   2.695 -0.2284  0.9326  0.2206
  554MOL0     C74660   4.423   7.601   2.583 -0.8024 -0.4988 -0.1386
  554MOL0     C74661   4.334   7.709   2.559  0.0108 -0.4866  1.4205
  554MOL0     C74662   4.317   7.811   2.655  0.1547  0.9359 -0.4422
  554MOL0     O74663   4.230   7.914   2.633 -0.1797  0.2058 -0.6073
  554MOL0     C74664   4.153   7.933   2.517 -0.1024  0.1025  0.0825
  554MOL0     C74665   4.024   7.847   2.529 -0.1564 -0.4834 -0.5522
  554MOL0     C74666   3.918   7.857   2.409 -0.1681  0.7989  0.7689
  554MOL0     C74667   3.780   7.897   2.465 -0.0864  0.5136  0.7052
  554MOL0     C74668   3.661   7.898   2.363  0.3874  0.0904 -0.6202
  554MOL0     C74669   3.518   7.928   2.418  0.3933 -0.5275  0.0477
  554MOL0     C74670   3.410   7.933   2.308  0.2890  0.1070 -1.1029
  554MOL0     C74671   3.278   7.970   2.364 -0.0079  0.7177 -0.6695
  554MOL0     N74672   3.182   7.971   2.257  0.9856  0.3114  0.4655
  554MOL0     C74673   3.159   8.059   2.153  0.5789  0.1704  0.1002
  554MOL0     C74674   3.070   8.011   2.064  0.0771  0.0909 -0.3647
  554MOL0     C74675   3.014   8.072   1.938  0.3560  1.7957  0.5308
  554MOL0     C74676   3.070   8.202   1.898 -0.3234 -0.2546  0.2343
  554MOL0     C74677   3.196   8.184   1.820  0.4318  0.9097  0.2747
  554MOL0     C74678   3.282   8.310   1.816 -0.0175  0.5438  0.0257
  554MOL0     O74679   3.222   8.426   1.760 -0.6394  0.4157  0.6087
  554MOL0     C74680   3.298   8.467   1.648  0.3479  0.0543  0.3182
  554MOL0     C74681   3.372   8.584   1.652 -0.2854 -0.2048 -0.4357
  554MOL0     C74682   3.441   8.633   1.540  0.4123 -0.2324  0.3587
  554MOL0     C74683   3.506   8.766   1.549 -0.6068 -0.2007 -0.1330
  554MOL0     C74684   3.422   8.566   1.421 -0.3929  0.3454  0.4787
  554MOL0     C74685   3.487   8.599   1.294  0.6306 -0.0324 -0.5441
  554MOL0     O74686   3.486   8.731   1.250 -0.0354  0.0394  0.3261
  554MOL0     C74687   3.571   8.752   1.140  0.0336 -0.4829  0.0144
  554MOL0     C74688   3.544   8.712   1.005 -0.2209  0.6220  0.5684
  554MOL0     C74689   3.637   8.734   0.900 -1.1292 -0.0950  0.1337
  554MOL0     C74690   3.764   8.792   0.940  0.5425 -0.3836  0.2926
  554MOL0     O74691   3.868   8.817   0.856 -1.0347 -0.1896  0.5526
  554MOL0     C74692   3.859   8.755   0.723  0.2030 -0.2130 -0.4353
  554MOL0     C74693   3.980   8.791   0.632  0.6636 -0.2583  0.3814
  554MOL0     C74694   4.124   8.769   0.693  0.3487  0.4506  0.7380
  554MOL0     C74695   4.218   8.870   0.631 -0.3314  0.4067  0.3631
  554MOL0     C74696   4.239   8.832   0.483 -0.4253 -0.3495 -0.1429
  554MOL0     C74697   4.337   8.937   0.429 -0.2671  0.1228 -0.4850
  554MOL0     C74698   4.349   8.915   0.270 -0.0263 -0.1406 -0.9549
  554MOL0     C74699   4.448   9.013   0.206 -0.1275 -0.7105  0.8232
  554MOL0    Cl74700   4.375   9.171   0.218 -0.0675  0.7637  0.3797
  554MOL0     C74701   3.792   8.828   1.075 -0.3576 -0.5187  0.3171
  554MOL0     C74702   3.693   8.813   1.177 -0.6949  0.1116  0.1944
  554MOL0     O74703   3.535   8.501   1.234 -0.2793  0.9512  0.3580
  554MOL0     C74704   3.361   8.445   1.415  0.7461  0.6296 -0.4639
  554MOL0     C74705   3.292   8.397   1.525 -0.0535  0.6368 -0.9246
  554MOL0     N74706   3.035   7.884   2.118  0.1795  0.1798 -0.1962
  554MOL0     N74707   3.100   7.860   2.232 -0.4972 -0.7337  0.1815
  554MOL0     C74708   4.395   7.809   2.767 -1.0265  0.4399 -0.5635
  554MOL0     C74709   4.496   7.703   2.788 -1.0419  0.9702  0.0865
  554MOL0     C74710   4.778   7.366   2.790 -1.6742 -0.2376  0.2124
  554MOL0     C74711   4.731   7.248   2.743  0.4423 -0.1566  0.4790
  554MOL0     C74712   4.805   7.134   2.743  0.9810  1.1043  0.0528
  554MOL0     C74713   4.929   7.130   2.793 -0.8168  0.8058 -0.8503
  554MOL0     O74714   4.999   7.016   2.765  0.0419  0.1114  0.0293
  554MOL0     C74715   5.128   6.991   2.812 -0.0608 -0.0745  0.2574
  554MOL0     C74716   5.207   6.901   2.713  0.0136  0.1645  0.4694
  554MOL0     C74717   5.266   6.994   2.601 -0.1226  0.3601 -0.0278
  554MOL0     C74718   5.327   6.914   2.483 -0.8708  0.3183 -1.3205
  554MOL0     C74719   5.448   6.836   2.531 -0.6660 -0.2227  1.4254
  554MOL0     C74720   5.537   6.766   2.568 -0.4656 -0.2305  0.5737
  554MOL0     C74721   4.988   7.250   2.846  0.1387 -0.0824 -0.1885
  554MOL0     C74722   4.910   7.363   2.846 -0.9865  1.1836  0.7939
  554MOL0     H74723   4.419   7.524   2.506 -2.4259 -1.6153  1.0137
  554MOL0     H74724   4.267   7.708   2.473 -0.2948 -1.6346  1.6587
  554MOL0     H74725   4.130   8.039   2.528  2.9579  0.8604  0.0796
  554MOL0     H74726   4.199   7.923   2.418 -0.7865  2.5338 -0.5465
  554MOL0     H74727   4.051   7.742   2.543  0.0177 -0.3282  0.3269
  554MOL0     H74728   3.970   7.877   2.620  0.3517  1.1010 -0.7413
  554MOL0     H74729   3.963   7.929   2.340  0.9989  2.3043  2.9792
  554MOL0     H74730   3.897   7.759   2.367 -2.0282  0.5665  2.1155
  554MOL0     H74731   3.774   7.813   2.536  4.1519 -0.7928 -0.2313
  554MOL0     H74732   3.782   7.991   2.521  1.4909  1.6257 -1.1463
  554MOL0     H74733   3.679   7.982   2.296 -2.5161  4.9287  3.8388
  554MOL0     H74734   3.663   7.801   2.313 -0.3114  0.4854 -1.4513
  554MOL0     H74735   3.484   7.864   2.500  0.1397  0.7023  0.9180
  554MOL0     H74736   3.513   8.026   2.465 -1.7168 -0.3193 -0.5056
  554MOL0     H74737   3.435   8.007   2.231 -1.6700  3.4524  1.2108
  554MOL0     H74738   3.386   7.834   2.267 -1.8025  0.3996 -0.7294
  554MOL0     H74739   3.270   8.069   2.410 -2.2870  0.1465  0.2680
  554MOL0     H74740   3.247   7.904   2.445  1.9856  0.3891 -0.1273
  554MOL0     H74741   3.210   8.153   2.135 -1.5268  1.1927 -0.8853
  554MOL0     H74742   3.018   8.000   1.856  0.1432  2.4915 -0.1001
  554MOL0     H74743   2.907   8.085   1.960  0.1428  0.9000  0.0697
  554MOL0     H74744   3.078   8.272   1.982 -2.8434  0.8136 -0.3046
  554MOL0     H74745   2.997   8.245   1.829 -1.6716 -0.5479  1.4212
  554MOL0     H74746   3.165   8.150   1.721  1.5334  0.1291  0.1775
  554MOL0     H74747   3.257   8.104   1.862  1.5888  0.9321 -1.2730
  554MOL0     H74748   3.380   8.286   1.772 -1.4514  2.2255 -4.7670
  554MOL0     H74749   3.305   8.332   1.920 -0.8659 -1.4773  0.6926
  554MOL0     H74750   3.385   8.642   1.743  0.8200 -0.2137 -0.5674
  554MOL0     H74751   3.606   8.769   1.505 -0.8373 -0.8001 -0.7005
  554MOL0     H74752   3.445   8.842   1.499 -0.3405  0.1377  0.0519
  554MOL0     H74753   3.509   8.794   1.655 -0.3112 -0.4098 -0.0840
  554MOL0     H74754   3.444   8.676   0.983 -0.9721  2.3855  0.9066
  554MOL0     H74755   3.598   8.709   0.802  0.9272 -2.7603 -0.1204
  554MOL0     H74756   3.848   8.647   0.736 -2.3703 -0.4653 -3.5896
  554MOL0     H74757   3.765   8.784   0.676 -1.1527 -1.1085  1.6104
  554MOL0     H74758   3.974   8.727   0.544  1.9379  0.7569 -0.4784
  554MOL0     H74759   3.967   8.890   0.589 -2.9839 -0.4373  0.7570
  554MOL0     H74760   4.154   8.670   0.658 -2.1800 -0.3277  0.5638
  554MOL0     H74761   4.134   8.764   0.802  0.2547 -0.7469  0.7070
  554MOL0     H74762   4.175   8.969   0.647  1.7976  0.9826  3.4796
  554MOL0     H74763   4.312   8.878   0.686 -0.3487  2.8240  0.1355
  554MOL0     H74764   4.144   8.835   0.429 -1.3857 -0.1914  1.5192
  554MOL0     H74765   4.284   8.732   0.486 -1.2965 -0.7633  3.6466
  554MOL0     H74766   4.293   9.035   0.449  0.4493  0.4571 -0.5013
  554MOL0     H74767   4.434   8.933   0.480 -1.0006  2.6296  1.3258
  554MOL0     H74768   4.251   8.939   0.228  0.4812  2.1576 -0.9570
  554MOL0     H74769   4.379   8.811   0.258  0.1912 -0.1600 -0.2739
  554MOL0     H74770   4.454   8.985   0.101 -0.4650 -1.6974  1.0585
  554MOL0     H74771   4.549   9.003   0.247  0.3197 -4.5908 -0.8485
  554MOL0     H74772   3.884   8.883   1.097  0.7019 -1.4083 -1.6018
  554MOL0     H74773   3.708   8.841   1.281  0.8536  2.1411 -0.4951
  554MOL0     H74774   3.365   8.377   1.330 -1.5373 -1.1714  0.7557
  554MOL0     H74775   3.238   8.303   1.521  1.2360 -0.2026  0.3811
  554MOL0     H74776   4.392   7.897   2.830 -0.8969  1.6754 -2.2245
  554MOL0     H74777   4.558   7.714   2.876  2.5096  1.4663 -2.2609
  554MOL0     H74778   4.627   7.247   2.712 -0.3473 -0.4787  2.9537
  554MOL0     H74779   4.763   7.046   2.696 -1.4169 -1.0657  5.4175
  554MOL0     H74780   5.186   7.083   2.822 -1.2480  0.9329 -1.5797
  554MOL0     H74781   5.127   6.936   2.907  0.8879 -2.7209 -1.1839
  554MOL0     H74782   5.134   6.829   2.672  0.3874 -0.8817  1.5910
  554MOL0     H74783   5.283   6.854   2.776 -2.2146 -0.0193  3.2217
  554MOL0     H74784   5.348   7.059   2.633  0.9050 -0.9563  0.0735
  554MOL0     H74785   5.196   7.070   2.564  3.4442  2.2744 -3.6014
  554MOL0     H74786   5.368   6.988   2.413  0.8118 -0.3753 -1.1083
  554MOL0     H74787   5.249   6.858   2.430 -5.3998 -0.4483  4.9819
  554MOL0     H74788   5.605   6.691   2.601  1.0725  0.8327 -0.0573
  554MOL0     H74789   5.096   7.258   2.853  0.2582  1.2494 -2.7492
  554MOL0     H74790   4.944   7.459   2.884 -3.2238  0.8953  3.9201
  555MOL0     O74791   5.983   3.927   0.436  0.0174  0.1901  0.0155
  555MOL0     C74792   6.058   4.019   0.469 -0.6050  0.0018 -0.1444
  555MOL0     O74793   6.052   4.100   0.584  0.1016  0.1949 -0.6085
  555MOL0     C74794   5.940   4.110   0.667 -1.1826  0.3134  0.4052
  555MOL0     C74795   5.834   4.023   0.672 -0.2227 -0.8058 -0.1098
  555MOL0     C74796   5.741   4.051   0.761  0.3782 -0.5104 -0.2677
  555MOL0     C74797   5.737   4.164   0.845  0.0947 -0.3698  0.1034
  555MOL0     O74798   5.626   4.183   0.925  0.7222  0.3834  0.1022
  555MOL0     C74799   5.513   4.223   0.844 -0.1380 -0.0065 -0.1686
  555MOL0     C74800   5.505   4.374   0.837  0.2097  0.5040 -0.2869
  555MOL0     C74801   5.500   4.431   0.979 -0.1691 -0.1920 -0.1184
  555MOL0     C74802   5.514   4.587   0.976 -0.1273  0.4499  0.1954
  555MOL0     C74803   5.664   4.637   0.990 -0.0450  0.4636 -0.7073
  555MOL0     C74804   5.706   4.669   1.130 -0.0054  0.0277  0.4069
  555MOL0     C74805   5.768   4.552   1.204 -0.1029  0.5070  0.2070
  555MOL0     C74806   5.845   4.601   1.315 -0.4302  0.2204 -0.0246
  555MOL0     N74807   5.939   4.501   1.364 -1.1591  0.3437 -1.2269
  555MOL0     C74808   6.053   4.529   1.423  0.1016 -0.6218 -0.0479
  555MOL0     C74809   6.098   4.409   1.475  0.7169 -0.5373 -0.0070
  555MOL0     C74810   6.209   4.385   1.575  0.1678 -0.0903 -0.0450
  555MOL0     C74811   6.195   4.435   1.721  0.5598  0.0698  0.7537
  555MOL0     C74812   6.299   4.389   1.816  0.2718  0.2124 -0.6644
  555MOL0     C74813   6.300   4.460   1.950  0.0578 -0.1010 -0.0688
  555MOL0     O74814   6.370   4.372   2.042 -0.0153 -0.2668  0.2587
  555MOL0     C74815   6.510   4.387   2.047 -0.0706 -0.4038 -0.4786
  555MOL0     C74816   6.584   4.485   1.978 -0.7266 -0.0142 -0.3687
  555MOL0     C74817   6.719   4.499   1.996  0.1428 -0.7057  0.7255
  555MOL0     C74818   6.781   4.610   1.912  0.2017  0.3055  0.9364
  555MOL0     C74819   6.795   4.423   2.092  0.9465 -0.8161 -0.5286
  555MOL0     C74820   6.928   4.448   2.136 -0.0551  0.1502 -0.8723
  555MOL0     O74821   6.975   4.376   2.239  0.0699 -0.5429 -0.3703
  555MOL0     C74822   7.110   4.360   2.255  0.2466  0.1544  0.2128
  555MOL0     C74823   7.183   4.460   2.312 -0.1183  0.1021 -0.0761
  555MOL0     C74824   7.313   4.440   2.343 -0.2258  0.3065  0.6839
  555MOL0     C74825   7.374   4.323   2.316 -0.2521  0.5658  0.5648
  555MOL0     O74826   7.502   4.311   2.353  0.8273  0.2792 -0.4500
  555MOL0     C74827   7.584   4.194   2.350 -0.7704  0.4279  0.2616
  555MOL0     C74828   7.703   4.204   2.446  0.0621  0.2375 -1.6332
  555MOL0     C74829   7.774   4.068   2.462 -0.0008 -0.4310  0.3973
  555MOL0     C74830   7.917   4.094   2.530  0.3998 -0.9403  0.9056
  555MOL0     C74831   7.992   3.956   2.544  0.1940  0.0253  1.3708
  555MOL0     C74832   8.140   3.976   2.534  0.6131 -1.1982 -0.4004
  555MOL0     C74833   8.219   3.855   2.566  1.0501 -0.1380 -0.2584
  555MOL0     C74834   8.373   3.881   2.567 -0.5393 -0.7807 -0.9802
  555MOL0    Cl74835   8.476   3.739   2.584  0.1766  0.0021 -0.3520
  555MOL0     C74836   7.303   4.220   2.250  0.1321 -0.1523 -0.1795
  555MOL0     C74837   7.171   4.240   2.217 -0.3763  0.4053  1.0910
  555MOL0     O74838   6.993   4.531   2.084 -0.3617 -0.0501  0.8081
  555MOL0     C74839   6.718   4.325   2.162 -0.9969  0.4221  0.5388
  555MOL0     C74840   6.584   4.310   2.140  0.3111  0.0088 -0.2393
  555MOL0     N74841   6.003   4.320   1.449 -0.6540  0.7653 -0.1383
  555MOL0     N74842   5.909   4.369   1.385  0.3211 -0.2472 -0.7369
  555MOL0     C74843   5.847   4.250   0.845  0.1736  0.6015  0.3401
  555MOL0     C74844   5.950   4.221   0.756 -0.6443  0.0675  0.2847
  555MOL0     C74845   6.171   4.049   0.366  1.4226  0.2433 -0.0574
  555MOL0     C74846   6.177   3.978   0.236  1.2115 -0.3173 -0.7491
  555MOL0     C74847   6.270   4.036   0.148 -0.0453 -0.3124  1.2256
  555MOL0     C74848   6.364   4.137   0.182  0.7457  0.3863 -0.6877
  555MOL0     O74849   6.462   4.153   0.094 -1.1331 -0.6081  0.3603
  555MOL0     C74850   6.564   4.250   0.119  0.3196 -1.1035 -0.2371
  555MOL0     C74851   6.510   4.403   0.116 -0.5884  0.6397 -0.0159
  555MOL0     C74852   6.630   4.502   0.092 -0.0655 -0.3546 -0.3486
  555MOL0     C74853   6.581   4.653   0.104  0.1952 -0.9380  0.0603
  555MOL0     C74854   6.520   4.715  -0.022  0.0831  0.4575 -0.1900
  555MOL0     C74855   6.477   4.760  -0.132 -0.7863  0.4078  0.5980
  555MOL0     C74856   6.353   4.196   0.309 -0.0544 -0.2912  0.7903
  555MOL0     C74857   6.258   4.148   0.398 -0.1975 -1.1221 -0.2057
  555MOL0     H74858   5.826   3.938   0.604  1.0670 -0.1276 -1.1615
  555MOL0     H74859   5.656   3.984   0.773  0.5285 -0.4716  1.1934
  555MOL0     H74860   5.518   4.195   0.738  0.3285  0.8688 -0.3836
  555MOL0     H74861   5.418   4.188   0.886 -0.5777  2.4671  1.0611
  555MOL0     H74862   5.583   4.403   0.766 -0.2210 -0.7369 -1.2998
  555MOL0     H74863   5.406   4.395   0.795 -0.4892  0.1738  1.1433
  555MOL0     H74864   5.397   4.407   1.008 -0.0196 -2.0791 -1.0207
  555MOL0     H74865   5.571   4.390   1.052 -0.2706  1.2063  0.8000
  555MOL0     H74866   5.463   4.620   0.886  1.1471 -3.3385 -2.1576
  555MOL0     H74867   5.466   4.612   1.071 -0.9509  3.0882 -0.8360
  555MOL0     H74868   5.735   4.568   0.942 -0.6455 -1.0201  0.4696
  555MOL0     H74869   5.662   4.731   0.934 -2.4962  2.8978  3.0215
  555MOL0     H74870   5.767   4.759   1.119 -0.5629  0.7121  2.3892
  555MOL0     H74871   5.619   4.712   1.180 -0.9484  0.5421 -1.5715
  555MOL0     H74872   5.695   4.479   1.242 -0.2295 -0.8792 -2.4545
  555MOL0     H74873   5.823   4.491   1.132 -1.9709  1.1098 -1.8578
  555MOL0     H74874   5.781   4.636   1.397 -1.7414  2.4688 -1.8592
  555MOL0     H74875   5.903   4.687   1.281  1.5304  0.2164  2.9609
  555MOL0     H74876   6.110   4.620   1.441 -0.3818 -0.3101 -0.0984
  555MOL0     H74877   6.217   4.276   1.568  2.1694  0.0752 -0.9774
  555MOL0     H74878   6.304   4.429   1.542  0.2352  0.0807  0.3740
  555MOL0     H74879   6.098   4.433   1.771  2.2174  0.4109  4.3160
  555MOL0     H74880   6.214   4.542   1.710  1.1968 -0.1806 -0.7885
  555MOL0     H74881   6.394   4.412   1.768  0.2762  3.0609  0.5175
  555MOL0     H74882   6.293   4.281   1.835  0.4433  0.1159 -1.1506
  555MOL0     H74883   6.197   4.487   1.976 -0.6423 -1.8277 -0.9145
  555MOL0     H74884   6.344   4.560   1.943  1.1071 -0.6463 -1.7551
  555MOL0     H74885   6.548   4.558   1.907 -0.3105 -0.2208 -0.7975
  555MOL0     H74886   6.849   4.560   1.843 -1.3978  0.7258 -1.0600
  555MOL0     H74887   6.713   4.673   1.854  1.6345  1.8937  0.9245
  555MOL0     H74888   6.839   4.678   1.974  2.0729  1.2292 -1.6658
  555MOL0     H74889   7.129   4.541   2.361 -0.8620 -0.0505 -0.6176
  555MOL0     H74890   7.370   4.519   2.390  1.1160 -1.9362  3.0519
  555MOL0     H74891   7.527   4.105   2.379 -0.0048  0.5449  2.2885
  555MOL0     H74892   7.617   4.174   2.247  0.4133  0.2474  0.6531
  555MOL0     H74893   7.767   4.289   2.419  1.1355  0.2877  0.8076
  555MOL0     H74894   7.665   4.226   2.546  2.3060  0.0816 -0.6968
  555MOL0     H74895   7.777   4.035   2.358  1.5872  0.8965 -0.0106
  555MOL0     H74896   7.712   3.990   2.508 -1.6771  0.2336 -0.6348
  555MOL0     H74897   7.968   4.166   2.465  1.8536 -2.7128 -0.0087
  555MOL0     H74898   7.905   4.135   2.631 -0.3846 -0.3664  0.5908
  555MOL0     H74899   7.959   3.886   2.466  3.3835 -0.4564  0.3058
  555MOL0     H74900   7.963   3.902   2.634  1.3094 -2.5192  0.2897
  555MOL0     H74901   8.173   4.005   2.434 -0.9023  2.6851  0.0329
  555MOL0     H74902   8.168   4.064   2.593 -1.1899 -1.3493  0.7820
  555MOL0     H74903   8.203   3.781   2.487 -2.5036 -0.0885  0.2451
  555MOL0     H74904   8.187   3.826   2.667  2.6728  0.0281  0.3333
  555MOL0     H74905   8.395   3.935   2.659  3.0888  0.9898 -2.6811
  555MOL0     H74906   8.420   3.942   2.489 -1.1198  0.6458 -0.2339
  555MOL0     H74907   7.336   4.120   2.223 -4.3470 -1.7225 -0.6685
  555MOL0     H74908   7.114   4.157   2.176 -0.7605  0.4543  1.5168
  555MOL0     H74909   6.761   4.262   2.239  0.3444  0.7110  0.0536
  555MOL0     H74910   6.536   4.230   2.196  1.1903 -0.0053  0.5074
  555MOL0     H74911   5.863   4.342   0.900  3.4667  1.4243 -1.7167
  555MOL0     H74912   6.031   4.291   0.743 -1.0247  0.9061  2.0501
  555MOL0     H74913   6.110   3.897   0.208 -1.3308  0.7646  1.7345
  555MOL0     H74914   6.272   3.991   0.049 -2.7073  0.9722  0.4864
  555MOL0     H74915   6.611   4.232   0.217 -3.0076 -0.9110  1.5375
  555MOL0     H74916   6.639   4.237   0.040  2.0185 -1.1319  1.3107
  555MOL0     H74917   6.444   4.432   0.198 -1.4713  0.2923 -0.5734
  555MOL0     H74918   6.453   4.403   0.022 -0.1494 -1.4083 -0.3257
  555MOL0     H74919   6.659   4.466  -0.007 -2.4892 -2.4020 -0.4073
  555MOL0     H74920   6.714   4.495   0.162 -0.0564  3.1855  0.1980
  555MOL0     H74921   6.671   4.706   0.134 -0.0048 -0.2006 -0.6023
  555MOL0     H74922   6.498   4.670   0.174  0.8988  3.3607  0.0989
  555MOL0     H74923   6.463   4.792  -0.233  2.9982 -0.5834 -0.4158
  555MOL0     H74924   6.410   4.278   0.351 -1.4289  0.5212  1.1071
  555MOL0     H74925   6.264   4.207   0.489 -2.3671 -0.0460 -0.6905
  556MOL0     O74926   5.457   2.064   8.173  0.0589  0.7033 -0.0283
  556MOL0     C74927   5.390   1.959   8.144  0.9942 -0.3870 -0.1005
  556MOL0     O74928   5.327   1.873   8.240 -0.0852  0.0966 -0.3757
  556MOL0     C74929   5.324   1.924   8.370  0.2855 -0.2797 -0.1942
  556MOL0     C74930   5.221   2.016   8.398  0.3121 -0.1185  0.4430
  556MOL0     C74931   5.215   2.083   8.526  0.0342 -0.5563  0.4292
  556MOL0     C74932   5.314   2.066   8.630  0.4480 -1.0900  0.4581
  556MOL0     O74933   5.308   2.135   8.750 -0.0630 -0.0090 -0.2448
  556MOL0     C74934   5.419   2.115   8.835 -0.2523  0.0972 -0.7579
  556MOL0     C74935   5.405   2.227   8.937 -0.3369  0.1001  0.8246
  556MOL0     C74936   5.259   2.274   8.982  0.5165  0.0821 -0.2149
  556MOL0     C74937   5.256   2.395   9.069  0.4974  0.1283  0.3372
  556MOL0     C74938   5.114   2.392   9.151 -0.3383  0.0516  0.4674
  556MOL0     C74939   5.126   2.495   9.272 -0.1866 -0.7451  0.9860
  556MOL0     C74940   4.982   2.540   9.317  0.0985  0.0854 -0.4136
  556MOL0     C74941   4.983   2.651   9.421  0.5266 -1.4749 -0.2462
  556MOL0     N74942   4.848   2.707   9.451 -0.3158 -0.8052  0.0337
  556MOL0     C74943   4.834   2.819   9.535  0.1028  0.2133 -0.5151
  556MOL0     C74944   4.709   2.857   9.502  0.4932  0.7829 -1.1586
  556MOL0     C74945   4.639   2.974   9.562  1.1273 -0.8415 -0.5130
  556MOL0     C74946   4.588   2.957   9.709 -0.1287  0.6154  0.2674
  556MOL0     C74947   4.488   2.842   9.734  0.0241 -1.3388 -0.3478
  556MOL0     C74948   4.373   2.855   9.637 -0.7749 -0.6044  0.0181
  556MOL0     O74949   4.300   2.982   9.649 -0.3041  0.0909 -0.1479
  556MOL0     C74950   4.206   3.016   9.556 -0.0320 -0.0327  0.1958
  556MOL0     C74951   4.088   3.065   9.621  0.8754 -0.5555  0.0878
  556MOL0     C74952   3.974   3.098   9.548 -0.8228  0.1795  0.6496
  556MOL0     C74953   3.855   3.149   9.618  0.2869 -0.6701 -0.7523
  556MOL0     C74954   3.969   3.069   9.406 -0.3397  0.9409  1.1438
  556MOL0     C74955   3.846   3.077   9.320 -0.0823 -0.6401 -0.4605
  556MOL0     O74956   3.728   3.035   9.372  0.1053  0.1556 -0.3803
  556MOL0     C74957   3.619   2.998   9.295  0.2634 -1.0172 -0.3030
  556MOL0     C74958   3.496   3.016   9.365 -0.1448  0.0079  0.1033
  556MOL0     C74959   3.377   2.965   9.311 -0.3521 -0.0075  0.5249
  556MOL0     C74960   3.381   2.883   9.196  0.2503 -0.9862 -0.5833
  556MOL0     O74961   3.266   2.845   9.134 -0.3361  0.0752 -0.4623
  556MOL0     C74962   3.132   2.872   9.166 -0.2808 -0.4651 -0.8516
  556MOL0     C74963   3.053   2.820   9.042  0.0079  0.0910  0.3323
  556MOL0     C74964   2.913   2.807   9.083  0.3195 -0.5094 -0.9457
  556MOL0     C74965   2.830   2.779   8.963 -0.8982  0.3595 -0.3758
  556MOL0     C74966   2.685   2.806   9.012  0.2008  0.9223  0.2722
  556MOL0     C74967   2.584   2.783   8.918  0.0207  0.5470  0.1275
  556MOL0     C74968   2.443   2.794   8.978 -0.8857  0.5165 -1.1998
  556MOL0     C74969   2.355   2.680   8.930  0.4004  0.7862 -0.2474
  556MOL0    Cl74970   2.284   2.706   8.765  0.3643  0.1901  0.2196
  556MOL0     C74971   3.501   2.858   9.132 -0.3587  0.1953 -0.4204
  556MOL0     C74972   3.622   2.922   9.170 -0.4869 -0.7973 -0.9960
  556MOL0     O74973   3.866   3.104   9.198  0.3258  0.3696 -0.5364
  556MOL0     C74974   4.085   3.013   9.346 -0.1593 -0.8859 -0.4795
  556MOL0     C74975   4.203   2.987   9.417 -0.2500 -0.2647  0.2220
  556MOL0     N74976   4.661   2.776   9.404  0.8796  0.3450  0.2137
  556MOL0     N74977   4.745   2.693   9.358 -0.7483 -0.6176  0.1001
  556MOL0     C74978   5.406   1.966   8.602 -0.8789 -0.1517  0.3232
  556MOL0     C74979   5.418   1.895   8.478 -0.2136  0.1823  0.8935
  556MOL0     C74980   5.366   1.940   8.004  0.7947  0.3016 -0.4804
  556MOL0     C74981   5.450   1.992   7.903 -0.4478 -0.1248  0.1463
  556MOL0     C74982   5.428   1.977   7.767  0.6006  0.6160  0.5098
  556MOL0     C74983   5.331   1.897   7.723  0.6054  1.1724  0.2669
  556MOL0     O74984   5.302   1.870   7.591  0.2434 -0.7539  0.0737
  556MOL0     C74985   5.362   1.950   7.485  0.3806 -0.7637 -1.7332
  556MOL0     C74986   5.385   1.859   7.371 -0.0264 -0.0008  0.4058
  556MOL0     C74987   5.358   1.949   7.250  0.0996 -0.6196  0.8253
  556MOL0     C74988   5.369   1.897   7.111 -0.6243 -0.0478 -0.0454
  556MOL0     C74989   5.270   1.793   7.085 -0.0726 -0.7958 -0.9557
  556MOL0     C74990   5.177   1.720   7.064  0.2152  0.1945 -0.0506
  556MOL0     C74991   5.254   1.830   7.821 -0.8949 -0.9178  0.1355
  556MOL0     C74992   5.265   1.859   7.958  0.6057  0.8049  0.7267
  556MOL0     H74993   5.151   2.035   8.318 -1.2890 -0.9446  1.5991
  556MOL0     H74994   5.135   2.152   8.548 -3.7192 -3.8993 -1.5403
  556MOL0     H74995   5.403   2.019   8.884  1.0371  0.6428  0.8223
  556MOL0     H74996   5.515   2.129   8.783  0.5130 -0.6520  0.4140
  556MOL0     H74997   5.466   2.179   9.013 -0.7068 -2.7291 -0.5139
  556MOL0     H74998   5.455   2.316   8.896  3.8809 -2.1335  0.5450
  556MOL0     H74999   5.199   2.305   8.896  1.0107  1.0193 -0.2255
  556MOL0     H75000   5.214   2.184   9.026 -0.4745  0.9295  0.5326
  556MOL0     H75001   5.345   2.390   9.132  0.6596  2.1517  0.3231
  556MOL0     H75002   5.275   2.487   9.014  1.7646  0.1249  0.7329
  556MOL0     H75003   5.029   2.420   9.088  0.0962  1.0044  0.2832
  556MOL0     H75004   5.091   2.292   9.189  2.5076 -1.7466 -2.0519
  556MOL0     H75005   5.183   2.448   9.353  0.2078 -2.0706 -0.0263
  556MOL0     H75006   5.183   2.585   9.244 -0.9314 -0.3710  0.6302
  556MOL0     H75007   4.926   2.572   9.229  1.3458  1.6986 -0.6532
  556MOL0     H75008   4.925   2.458   9.363 -0.2708  0.6379  0.1293
  556MOL0     H75009   5.028   2.741   9.378  1.4394 -0.3319  2.8117
  556MOL0     H75010   5.031   2.617   9.513 -2.8388 -1.1205  1.8401
  556MOL0     H75011   4.903   2.869   9.602 -0.7231  2.7140 -1.4145
  556MOL0     H75012   4.708   3.058   9.569  0.3906 -0.1818 -0.9061
  556MOL0     H75013   4.559   3.006   9.494  0.6076 -3.3995 -1.2140
  556MOL0     H75014   4.555   3.054   9.749  0.1780  1.9151 -2.3953
  556MOL0     H75015   4.676   2.923   9.764  1.4635  0.3197 -2.3115
  556MOL0     H75016   4.464   2.825   9.839 -1.9206 -1.8516 -0.8355
  556MOL0     H75017   4.544   2.750   9.716 -0.1305 -1.5895  0.4305
  556MOL0     H75018   4.309   2.773   9.672  0.0743 -0.4307  2.1176
  556MOL0     H75019   4.407   2.843   9.534 -2.1427 -0.5518 -0.4682
  556MOL0     H75020   4.087   3.084   9.728  0.1779 -1.2735  0.2183
  556MOL0     H75021   3.880   3.200   9.712  4.8711 -0.0324 -2.0707
  556MOL0     H75022   3.809   3.227   9.555  0.0071  1.6352  2.0800
  556MOL0     H75023   3.777   3.072   9.621 -0.4370  0.0544  1.9474
  556MOL0     H75024   3.496   3.071   9.459 -0.4061  2.7922 -1.4006
  556MOL0     H75025   3.285   2.994   9.361 -0.0384  0.0189  1.0937
  556MOL0     H75026   3.106   2.811   9.254  2.7044 -0.5463  0.1145
  556MOL0     H75027   3.114   2.979   9.178 -1.2250 -0.6937 -0.1106
  556MOL0     H75028   3.057   2.906   8.974  2.4478 -0.8729 -0.8538
  556MOL0     H75029   3.096   2.731   8.997 -1.9067 -0.6208 -0.1912
  556MOL0     H75030   2.881   2.903   9.125  0.3496 -0.9427  0.1084
  556MOL0     H75031   2.919   2.725   9.156 -1.3343  0.3351  0.1995
  556MOL0     H75032   2.836   2.857   8.886  0.0568  0.3165 -0.3577
  556MOL0     H75033   2.864   2.685   8.920 -4.5639 -0.5668 -1.6101
  556MOL0     H75034   2.675   2.905   9.056  1.8712  1.0066  0.5248
  556MOL0     H75035   2.667   2.729   9.088 -1.1614 -2.5753 -3.2137
  556MOL0     H75036   2.605   2.849   8.833 -0.3427  0.8237  0.2484
  556MOL0     H75037   2.598   2.685   8.872  1.0004 -0.7635  2.9772
  556MOL0     H75038   2.396   2.889   8.951 -1.3442  1.3301  1.9912
  556MOL0     H75039   2.434   2.796   9.087 -2.0233 -1.6214 -1.1923
  556MOL0     H75040   2.279   2.648   9.002  0.9353  0.6849  0.2842
  556MOL0     H75041   2.424   2.597   8.912  0.5572  1.0795 -1.0285
  556MOL0     H75042   3.501   2.792   9.045 -2.6482 -0.4973  0.0438
  556MOL0     H75043   3.711   2.906   9.110 -0.6820  3.0287 -2.6040
  556MOL0     H75044   4.082   3.001   9.238 -0.8882  0.4501 -0.6342
  556MOL0     H75045   4.294   2.952   9.369  0.5210 -0.5276  1.7802
  556MOL0     H75046   5.480   1.927   8.671  1.6894 -1.5344 -2.9622
  556MOL0     H75047   5.481   1.807   8.468 -2.5397 -1.3441 -1.2186
  556MOL0     H75048   5.540   2.048   7.926 -1.3115  0.8674  1.2723
  556MOL0     H75049   5.502   2.021   7.701 -1.1895  2.6502 -0.2774
  556MOL0     H75050   5.299   2.038   7.475  0.2827 -0.7419 -0.9770
  556MOL0     H75051   5.459   1.986   7.522 -1.2804 -0.5125  3.2231
  556MOL0     H75052   5.318   1.774   7.354 -1.2645  1.1982 -1.0056
  556MOL0     H75053   5.486   1.818   7.379 -0.3947 -1.2019 -0.6375
  556MOL0     H75054   5.438   2.023   7.250  0.0263 -0.5027 -1.0475
  556MOL0     H75055   5.275   2.020   7.259  1.1314  0.6108  0.9044
  556MOL0     H75056   5.468   1.852   7.103 -1.8000 -2.7684 -0.4417
  556MOL0     H75057   5.363   1.978   7.038  3.4578 -1.9627 -2.9153
  556MOL0     H75058   5.089   1.661   7.048 -0.5450  0.6274  2.1730
  556MOL0     H75059   5.177   1.763   7.785 -1.9221  0.0376  0.5073
  556MOL0     H75060   5.201   1.807   8.029  1.0005 -2.0788 -0.8808
  557MOL0     O75061   4.798   6.995   9.570  0.2368  0.0752 -1.2946
  557MOL0     C75062   4.824   7.009   9.452  0.3222 -0.6818 -0.8686
  557MOL0     O75063   4.803   6.912   9.359 -1.0612  0.1547  1.3269
  557MOL0     C75064   4.759   6.787   9.385 -0.0897 -0.6682  0.0771
  557MOL0     C75065   4.653   6.766   9.473 -0.0072 -0.2324 -0.2328
  557MOL0     C75066   4.609   6.635   9.488  0.1605  0.1844 -0.8467
  557MOL0     C75067   4.679   6.520   9.440  1.1720 -0.4886 -0.1752
  557MOL0     O75068   4.637   6.401   9.490  0.4174 -0.0909 -0.3003
  557MOL0     C75069   4.689   6.277   9.447  0.3152  0.5777 -0.5143
  557MOL0     C75070   4.575   6.177   9.446 -0.0452  1.4336  0.0410
  557MOL0     C75071   4.442   6.218   9.377  0.5675  0.3203  0.4711
  557MOL0     C75072   4.457   6.258   9.231 -0.0338 -0.6129  0.4243
  557MOL0     C75073   4.327   6.295   9.158  0.7707 -0.4782  0.1374
  557MOL0     C75074   4.265   6.439   9.164 -0.1050  0.4666 -0.3853
  557MOL0     C75075   4.123   6.453   9.104  0.4628  0.1565 -0.3713
  557MOL0     C75076   4.129   6.420   8.953 -0.4528  0.3736  0.3021
  557MOL0     N75077   4.029   6.490   8.866  0.4970  0.2005  0.4594
  557MOL0     C75078   3.891   6.513   8.886 -0.2975  0.8079 -0.1412
  557MOL0     C75079   3.845   6.581   8.780 -0.2604  0.2456  0.5499
  557MOL0     C75080   3.707   6.633   8.742  1.0568  0.3191 -0.6462
  557MOL0     C75081   3.609   6.625   8.860 -0.7832  0.8399 -0.6763
  557MOL0     C75082   3.464   6.659   8.827 -0.0258 -0.6076 -0.7318
  557MOL0     C75083   3.359   6.583   8.912 -0.6349 -0.1944 -0.2049
  557MOL0     O75084   3.237   6.587   8.840 -0.3935  0.4078  0.1279
  557MOL0     C75085   3.161   6.703   8.834 -0.4842 -0.6296  0.2531
  557MOL0     C75086   3.051   6.708   8.748 -0.4080  0.4250  0.7905
  557MOL0     C75087   2.991   6.827   8.716 -0.3136  0.2781 -0.3991
  557MOL0     C75088   2.905   6.820   8.596 -1.2010 -0.2878 -0.4117
  557MOL0     C75089   3.015   6.948   8.784  1.2719 -0.0314  0.2456
  557MOL0     C75090   2.944   7.076   8.755 -0.4916 -0.7191 -0.3498
  557MOL0     O75091   3.019   7.187   8.764  0.3451  0.2690 -0.6109
  557MOL0     C75092   2.963   7.308   8.764  0.9531 -0.5462 -0.4313
  557MOL0     C75093   3.019   7.411   8.694  0.4262  1.1354 -0.1558
  557MOL0     C75094   2.961   7.544   8.692  0.4232 -0.1770 -0.1524
  557MOL0     C75095   2.841   7.565   8.757 -0.5496  0.6328 -0.4405
  557MOL0     O75096   2.777   7.687   8.760  0.2149 -0.2754  0.5349
  557MOL0     C75097   2.848   7.808   8.713  0.7467  0.5112  0.7822
  557MOL0     C75098   2.747   7.917   8.717  0.0113  0.4182  0.4673
  557MOL0     C75099   2.760   8.015   8.825 -0.4802  0.2567 -1.1258
  557MOL0     C75100   2.648   8.129   8.818  0.3460  0.7265 -0.1101
  557MOL0     C75101   2.641   8.205   8.949  0.0540  0.0565 -0.2901
  557MOL0     C75102   2.597   8.123   9.085  0.7871  0.3383 -0.2519
  557MOL0     C75103   2.490   8.019   9.069 -0.2105 -0.3488 -0.9983
  557MOL0     C75104   2.352   8.078   9.025 -0.3908 -0.5539 -0.1072
  557MOL0    Cl75105   2.228   7.949   8.986 -0.0635  0.0329  0.0369
  557MOL0     C75106   2.780   7.463   8.827  0.6256  1.3428 -0.4438
  557MOL0     C75107   2.850   7.336   8.842  0.4082  0.3917  0.0278
  557MOL0     O75108   2.832   7.072   8.717  0.1726 -0.0258  0.1919
  557MOL0     C75109   3.105   6.941   8.887 -0.6396  0.7081  0.5064
  557MOL0     C75110   3.184   6.826   8.897  0.0022  0.1567  0.5898
  557MOL0     N75111   3.958   6.606   8.707 -0.6802 -0.2538 -0.4674
  557MOL0     N75112   4.064   6.546   8.745  0.2731  0.1785 -0.7536
  557MOL0     C75113   4.793   6.548   9.356  0.6831 -0.3978 -0.1251
  557MOL0     C75114   4.824   6.679   9.328  0.0585  0.1041  0.4281
  557MOL0     C75115   4.885   7.145   9.421 -0.3224 -0.5250  0.4191
  557MOL0     C75116   4.931   7.170   9.295 -0.2721  0.2196  0.3051
  557MOL0     C75117   4.999   7.286   9.261 -0.7084 -0.3804  0.3189
  557MOL0     C75118   5.017   7.391   9.358 -0.7871 -0.6958  0.1659
  557MOL0     O75119   5.101   7.490   9.325 -0.1436  0.4062 -0.2604
  557MOL0     C75120   5.064   7.620   9.368  0.0323 -0.5025 -0.8579
  557MOL0     C75121   4.938   7.661   9.302  1.2586  0.4604 -0.0968
  557MOL0     C75122   4.890   7.800   9.353 -0.4414  0.2079 -0.6664
  557MOL0     C75123   4.795   7.873   9.255 -0.5465 -0.0596 -0.3625
  557MOL0     C75124   4.676   7.797   9.211 -0.8547 -0.2539 -0.8122
  557MOL0     C75125   4.575   7.732   9.188 -0.6041  0.1879 -0.0057
  557MOL0     C75126   4.963   7.364   9.481  0.2448  0.1896 -0.1885
  557MOL0     C75127   4.890   7.250   9.516  0.0061  0.1637  0.0615
  557MOL0     H75128   4.611   6.849   9.529 -1.8404 -2.0881  1.3164
  557MOL0     H75129   4.527   6.610   9.555  1.5518 -1.5222  0.3065
  557MOL0     H75130   4.737   6.281   9.349 -1.6052 -0.5626 -1.5751
  557MOL0     H75131   4.764   6.248   9.521  0.2146 -1.6896 -1.2216
  557MOL0     H75132   4.604   6.082   9.401 -2.2302 -0.4289  2.3196
  557MOL0     H75133   4.538   6.154   9.546 -3.6913  1.3520 -1.1742
  557MOL0     H75134   4.380   6.129   9.371 -2.5917  2.4506 -2.2242
  557MOL0     H75135   4.383   6.295   9.428  1.7550  1.7076 -0.1707
  557MOL0     H75136   4.518   6.348   9.223 -3.8237  2.1197 -0.5213
  557MOL0     H75137   4.492   6.170   9.176  1.3597 -0.1709  0.5642
  557MOL0     H75138   4.347   6.276   9.052 -1.1199 -0.7674 -0.2074
  557MOL0     H75139   4.244   6.230   9.189  1.0847  0.6080  3.7094
  557MOL0     H75140   4.242   6.459   9.270  0.7961  1.1268 -0.2993
  557MOL0     H75141   4.330   6.517   9.124  0.1229  0.1063 -0.7205
  557MOL0     H75142   4.054   6.376   9.140  1.1860 -0.9710 -1.2970
  557MOL0     H75143   4.078   6.551   9.123  1.6568  0.4201  1.3441
  557MOL0     H75144   4.121   6.312   8.942 -1.9345  0.5041 -0.1418
  557MOL0     H75145   4.227   6.448   8.914 -0.7919  1.7705  0.3886
  557MOL0     H75146   3.839   6.474   8.972 -0.8386  0.7519 -0.4887
  557MOL0     H75147   3.720   6.734   8.702 -2.1301  1.2990  0.4973
  557MOL0     H75148   3.683   6.557   8.666 -0.2064 -3.1152  2.8456
  557MOL0     H75149   3.641   6.692   8.941  1.9166 -3.1275  1.9091
  557MOL0     H75150   3.611   6.527   8.908  0.7030  1.5476  0.8204
  557MOL0     H75151   3.454   6.643   8.719 -0.2939 -0.7025 -0.6954
  557MOL0     H75152   3.449   6.767   8.835 -0.7397 -0.7571  0.0714
  557MOL0     H75153   3.355   6.611   9.018 -0.8174 -0.8954 -0.0220
  557MOL0     H75154   3.390   6.479   8.922 -0.6103  0.0641  4.2354
  557MOL0     H75155   3.042   6.620   8.684 -0.1918  0.0107  1.3237
  557MOL0     H75156   2.798   6.814   8.616 -1.1461  0.9518  0.4157
  557MOL0     H75157   2.921   6.917   8.549 -0.2080  1.3497  2.9269
  557MOL0     H75158   2.924   6.735   8.529 -1.8574  1.0952 -2.4297
  557MOL0     H75159   3.101   7.387   8.626 -0.4061  2.6535 -1.7516
  557MOL0     H75160   2.992   7.627   8.630  1.0903 -0.6267 -0.4401
  557MOL0     H75161   2.930   7.828   8.783 -1.2662  0.5863  3.2515
  557MOL0     H75162   2.869   7.797   8.606 -4.2192  0.5322 -0.4282
  557MOL0     H75163   2.736   7.958   8.616  1.1867  3.4436  1.4884
  557MOL0     H75164   2.650   7.876   8.747  0.5067 -0.7597  0.5245
  557MOL0     H75165   2.858   8.064   8.825  0.0271 -0.7159 -0.0638
  557MOL0     H75166   2.758   7.964   8.922 -0.4599  2.5791  0.1750
  557MOL0     H75167   2.670   8.204   8.742  3.8976  0.0716  0.0963
  557MOL0     H75168   2.549   8.086   8.802  1.8923 -3.6910  0.7452
  557MOL0     H75169   2.572   8.288   8.937  3.4083  3.0907 -0.2648
  557MOL0     H75170   2.742   8.244   8.966  1.9488 -4.1411 -0.4342
  557MOL0     H75171   2.683   8.064   9.117  0.3787 -0.9636 -1.4644
  557MOL0     H75172   2.567   8.197   9.161 -3.4537 -1.5961  0.2621
  557MOL0     H75173   2.484   7.977   9.170  1.5565  3.0005  0.6614
  557MOL0     H75174   2.525   7.943   8.999 -1.6352 -1.9677 -0.0403
  557MOL0     H75175   2.371   8.138   8.936 -0.7303  0.5887  0.5791
  557MOL0     H75176   2.318   8.147   9.102  2.0367 -0.4196  0.9555
  557MOL0     H75177   2.693   7.480   8.890  0.1118  1.7829 -1.2413
  557MOL0     H75178   2.819   7.264   8.917  0.0032 -1.9821 -2.3007
  557MOL0     H75179   3.129   7.038   8.928 -0.2060  1.4850 -1.4745
  557MOL0     H75180   3.269   6.827   8.965 -0.0739 -4.7165  1.1033
  557MOL0     H75181   4.838   6.465   9.304 -0.9950 -1.3040 -0.1982
  557MOL0     H75182   4.889   6.706   9.246 -0.1653  1.7067  0.7306
  557MOL0     H75183   4.926   7.086   9.228 -2.5714 -0.0092  0.6973
  557MOL0     H75184   5.056   7.292   9.169  1.0730  2.0115  1.4548
  557MOL0     H75185   5.052   7.631   9.476 -1.5854 -2.8980 -0.7164
  557MOL0     H75186   5.146   7.685   9.336  1.8795 -2.3760 -0.1724
  557MOL0     H75187   4.854   7.595   9.325  2.5509 -2.2963 -2.6219
  557MOL0     H75188   4.954   7.656   9.194  1.0465 -0.5550 -0.0908
  557MOL0     H75189   4.973   7.862   9.387 -1.5015  0.7789  1.0043
  557MOL0     H75190   4.835   7.777   9.445  1.3267 -1.8537 -0.0435
  557MOL0     H75191   4.851   7.892   9.163  0.7104  1.5122  0.6930
  557MOL0     H75192   4.779   7.971   9.301  1.2087  0.4441 -0.7646
  557MOL0     H75193   4.478   7.691   9.167  0.5648 -1.0485 -3.6824
  557MOL0     H75194   4.990   7.434   9.559  0.4854 -2.1983  1.9918
  557MOL0     H75195   4.859   7.230   9.618 -1.1528 -5.3969 -1.0894
  558MOL0     O75196   3.779   1.917  11.216  0.6373  0.3612 -0.8530
  558MOL0     C75197   3.751   2.022  11.273 -0.5458 -0.0081 -0.3227
  558MOL0     O75198   3.846   2.105  11.343 -0.2610  0.6077  0.7475
  558MOL0     C75199   3.978   2.069  11.338  0.4219  0.5057  0.1515
  558MOL0     C75200   4.058   2.071  11.449 -0.2849 -1.2286 -0.2916
  558MOL0     C75201   4.181   2.024  11.439  0.3420 -0.2011  0.1346
  558MOL0     C75202   4.250   1.994  11.322  0.0172  0.3954 -0.1273
  558MOL0     O75203   4.381   1.951  11.308 -0.3855  0.2427 -0.6180
  558MOL0     C75204   4.451   1.893  11.413 -0.4048  0.0820  0.3244
  558MOL0     C75205   4.602   1.855  11.377 -0.2608  0.0607 -0.9759
  558MOL0     C75206   4.694   1.980  11.368  0.3879  0.1054 -1.0994
  558MOL0     C75207   4.830   1.937  11.383 -0.4210  0.2528  0.0153
  558MOL0     C75208   4.935   2.058  11.374  0.7116 -0.4766  0.0850
  558MOL0     C75209   5.073   1.998  11.383 -0.9918 -0.5119 -0.2073
  558MOL0     C75210   5.198   2.099  11.394  0.9284 -0.2763 -1.3173
  558MOL0     C75211   5.245   2.150  11.256  0.2433  0.3329 -0.4908
  558MOL0     N75212   5.167   2.263  11.212  0.6329  0.4748  0.4357
  558MOL0     C75213   5.078   2.250  11.106 -0.2478 -0.3342 -0.6736
  558MOL0     C75214   5.036   2.378  11.079  0.5085 -0.0935  0.0787
  558MOL0     C75215   4.935   2.404  10.964 -0.6835 -0.7029  0.1426
  558MOL0     C75216   4.797   2.443  11.020  0.5080  0.4850  0.2036
  558MOL0     C75217   4.764   2.370  11.160  0.4513 -0.0879 -0.4157
  558MOL0     C75218   4.612   2.343  11.179 -0.3282  0.2964 -0.2661
  558MOL0     O75219   4.550   2.467  11.222  0.0434  0.1172 -0.4283
  558MOL0     C75220   4.419   2.483  11.189  0.8717 -0.3063  0.4760
  558MOL0     C75221   4.350   2.605  11.163 -0.4406  0.0447  0.0063
  558MOL0     C75222   4.221   2.627  11.124  0.1867 -0.3488  0.7906
  558MOL0     C75223   4.176   2.773  11.125  0.1933 -0.5325  0.4233
  558MOL0     C75224   4.135   2.517  11.106 -0.4562 -0.6360  0.5379
  558MOL0     C75225   3.999   2.523  11.044  0.3491 -0.5762 -0.5495
  558MOL0     O75226   3.958   2.431  10.951 -0.1878  0.6165 -0.1204
  558MOL0     C75227   3.829   2.435  10.925 -0.0186  0.4375 -0.4608
  558MOL0     C75228   3.746   2.375  11.022 -0.7326  0.1594 -0.0047
  558MOL0     C75229   3.609   2.384  11.001  0.1420 -0.7699 -0.4491
  558MOL0     C75230   3.557   2.454  10.883  0.8819  0.7247 -0.0665
  558MOL0     O75231   3.424   2.495  10.877 -0.3916  0.5085  0.7749
  558MOL0     C75232   3.328   2.416  10.964  0.7274 -0.0216  0.1318
  558MOL0     C75233   3.185   2.430  10.900 -0.4954  0.7868 -0.0134
  558MOL0     C75234   3.096   2.340  10.994 -0.1419  0.9371 -0.1755
  558MOL0     C75235   2.959   2.313  10.941 -0.2988  0.7517  0.3772
  558MOL0     C75236   2.880   2.448  10.946  0.7045 -0.7078  0.2219
  558MOL0     C75237   2.720   2.427  10.933 -0.1427  0.9499  0.5734
  558MOL0     C75238   2.647   2.556  10.976 -0.2705  0.4809  0.5306
  558MOL0     C75239   2.490   2.543  10.970 -0.2803  0.1699  0.1511
  558MOL0    Cl75240   2.429   2.430  11.106  0.2513  0.2323 -0.2138
  558MOL0     C75241   3.640   2.498  10.788  0.0766  0.6405 -0.1303
  558MOL0     C75242   3.777   2.494  10.806 -0.5845  0.5709 -0.1819
  558MOL0     O75243   3.925   2.613  11.089 -0.2989 -0.2959 -0.3026
  558MOL0     C75244   4.190   2.387  11.131 -0.4241 -0.1278 -0.6579
  558MOL0     C75245   4.325   2.372  11.182 -1.6230 -0.1820  0.1935
  558MOL0     N75246   5.095   2.472  11.168  0.0734 -0.3794  0.5987
  558MOL0     N75247   5.169   2.397  11.248 -0.2486  1.2552 -0.6272
  558MOL0     C75248   4.170   1.986  11.212 -0.5598  0.0013 -0.2345
  558MOL0     C75249   4.032   2.025  11.216 -0.7286  0.0885  0.9697
  558MOL0     C75250   3.601   2.055  11.284 -0.4335 -0.4189 -0.4054
  558MOL0     C75251   3.548   2.176  11.352 -0.2342  0.2320  0.4972
  558MOL0     C75252   3.411   2.214  11.332 -0.3025 -0.5232  0.8739
  558MOL0     C75253   3.324   2.125  11.269 -0.6455  0.4439 -0.7307
  558MOL0     O75254   3.193   2.155  11.250  0.2855  0.4250 -0.2874
  558MOL0     C75255   3.124   2.229  11.355  0.5301  0.0385  1.1478
  558MOL0     C75256   2.980   2.185  11.365  0.1272 -0.2577  0.6170
  558MOL0     C75257   2.887   2.307  11.373 -0.0117  0.3044 -0.0362
  558MOL0     C75258   2.748   2.273  11.404 -0.2395  0.3209  0.0934
  558MOL0     C75259   2.735   2.246  11.553  0.5055 -1.0439  0.8561
  558MOL0     C75260   2.746   2.211  11.668  0.8502 -1.1207 -0.6400
  558MOL0     C75261   3.375   2.018  11.199  0.8380 -0.1497 -0.3979
  558MOL0     C75262   3.511   1.983  11.199  0.2525  0.8018 -0.3092
  558MOL0     H75263   4.013   2.100  11.543  0.7480  1.5724 -0.5895
  558MOL0     H75264   4.241   2.013  11.529 -1.2667 -2.0618  1.0584
  558MOL0     H75265   4.470   1.956  11.500  1.5491 -2.7606  2.1622
  558MOL0     H75266   4.393   1.808  11.450  2.0158 -1.9385 -0.2136
  558MOL0     H75267   4.633   1.775  11.445  1.8474  1.1435 -0.5752
  558MOL0     H75268   4.606   1.804  11.281  0.8332  1.0590 -1.4873
  558MOL0     H75269   4.672   2.030  11.273 -2.9062  1.6562  0.3018
  558MOL0     H75270   4.660   2.049  11.446 -1.2471 -0.2559 -1.4608
  558MOL0     H75271   4.840   1.895  11.483  4.2478  1.3057  0.1964
  558MOL0     H75272   4.857   1.856  11.315 -1.2575 -0.8989  1.0175
  558MOL0     H75273   4.926   2.101  11.274 -2.8604 -0.7687  0.1508
  558MOL0     H75274   4.918   2.134  11.450 -1.5724 -0.3825 -0.4470
  558MOL0     H75275   5.079   1.932  11.470  0.6406  1.4452  1.2843
  558MOL0     H75276   5.095   1.939  11.293 -1.2192 -0.5460 -0.2402
  558MOL0     H75277   5.186   2.186  11.458 -1.5547  0.0469 -2.1138
  558MOL0     H75278   5.275   2.039  11.444 -2.4456 -1.2662  3.3122
  558MOL0     H75279   5.252   2.071  11.181 -4.4055  0.7030 -1.6175
  558MOL0     H75280   5.341   2.203  11.261  0.5089 -0.1318 -0.6697
  558MOL0     H75281   5.062   2.161  11.047  2.0309 -1.3367  0.0730
  558MOL0     H75282   4.978   2.489  10.910  1.4572  1.1020  4.2533
  558MOL0     H75283   4.930   2.324  10.890  1.6937 -0.2820 -0.5459
  558MOL0     H75284   4.722   2.431  10.941  0.7775  2.2133 -0.3461
  558MOL0     H75285   4.780   2.549  11.043 -7.0165 -0.3694  1.1299
  558MOL0     H75286   4.793   2.448  11.231 -0.4065 -0.2065  0.0809
  558MOL0     H75287   4.819   2.280  11.187  0.0094  0.8221  4.3844
  558MOL0     H75288   4.602   2.294  11.277 -2.4561  2.8885  0.9562
  558MOL0     H75289   4.568   2.290  11.094 -2.6811 -0.3665  1.2471
  558MOL0     H75290   4.413   2.693  11.167 -0.1606 -0.1363 -0.3477
  558MOL0     H75291   4.258   2.833  11.086 -2.6658  2.0665 -2.2225
  558MOL0     H75292   4.101   2.799  11.049 -0.0576  0.9593  1.1340
  558MOL0     H75293   4.143   2.802  11.225  0.5471 -1.1269  0.7178
  558MOL0     H75294   3.799   2.329  11.105  0.7350 -1.0615 -1.5653
  558MOL0     H75295   3.534   2.371  11.079 -0.8665  0.7125 -1.1211
  558MOL0     H75296   3.362   2.311  10.968  3.7368  0.8561  3.4784
  558MOL0     H75297   3.321   2.447  11.068 -0.2574  2.4884 -0.6219
  558MOL0     H75298   3.145   2.532  10.900 -2.9392 -0.0516 -2.8790
  558MOL0     H75299   3.183   2.386  10.800 -2.0990  0.5672  0.1031
  558MOL0     H75300   3.082   2.381  11.094  0.3162 -0.4661  0.4910
  558MOL0     H75301   3.135   2.241  11.018 -3.2223 -0.2135  0.5174
  558MOL0     H75302   2.967   2.275  10.839 -0.0531 -0.1529  0.7216
  558MOL0     H75303   2.915   2.235  11.004  3.7501 -2.7943 -0.7342
  558MOL0     H75304   2.898   2.509  10.857 -0.2136 -3.0882 -1.7140
  558MOL0     H75305   2.897   2.504  11.039 -0.4320 -1.8524  1.1633
  558MOL0     H75306   2.697   2.407  10.827  1.0890  0.1866  0.4268
  558MOL0     H75307   2.675   2.340  10.982 -2.6633  1.4556 -0.6618
  558MOL0     H75308   2.662   2.629  10.896  1.0225  0.6977  0.9349
  558MOL0     H75309   2.684   2.576  11.077  0.7212  0.7892  0.1164
  558MOL0     H75310   2.463   2.496  10.875  3.2702 -0.2363 -0.7983
  558MOL0     H75311   2.447   2.643  10.973 -0.6930  0.0018 -0.1116
  558MOL0     H75312   3.595   2.540  10.699  2.7861  2.4827 -0.7719
  558MOL0     H75313   3.851   2.528  10.734 -2.0478  2.5585 -0.8355
  558MOL0     H75314   4.142   2.297  11.094  1.0017 -0.4096 -1.9403
  558MOL0     H75315   4.360   2.270  11.193  3.3285  1.3845  2.0581
  558MOL0     H75316   4.212   1.943  11.121 -1.4539 -1.7789  0.1692
  558MOL0     H75317   3.972   2.017  11.125  3.5878 -0.6892 -2.1025
  558MOL0     H75318   3.622   2.242  11.396 -2.4342  2.3294  1.2642
  558MOL0     H75319   3.372   2.306  11.375  1.9623  0.0605  1.8259
  558MOL0     H75320   3.163   2.234  11.457  0.8018 -0.0924  1.0513
  558MOL0     H75321   3.123   2.335  11.329 -2.3889  0.3944  2.3375
  558MOL0     H75322   2.974   2.111  11.445  1.0226 -0.3936  0.5669
  558MOL0     H75323   2.955   2.128  11.274  2.1325 -0.2371  0.0052
  558MOL0     H75324   2.890   2.362  11.278  1.0254  0.4811  0.0879
  558MOL0     H75325   2.912   2.374  11.456  0.6922  0.1849 -0.1518
  558MOL0     H75326   2.705   2.188  11.350 -1.5956  1.2496 -0.3511
  558MOL0     H75327   2.692   2.363  11.375  0.5389  0.4389 -1.1038
  558MOL0     H75328   2.753   2.165  11.765 -4.4733 -0.2244  0.4610
  558MOL0     H75329   3.300   1.962  11.145  1.6443 -2.9254  1.1452
  558MOL0     H75330   3.553   1.894  11.154 -0.5904 -0.4149  1.2130
  559MOL0     O75331   2.122  10.459   6.996  0.7779 -0.3985 -0.1837
  559MOL0     C75332   2.042  10.527   7.064 -0.2824  0.9912  0.1544
  559MOL0     O75333   1.911  10.538   7.032  0.9018  0.7155  0.2471
  559MOL0     C75334   1.875  10.515   6.904 -0.3259  0.4145 -0.1803
  559MOL0     C75335   1.848  10.618   6.817 -0.0384  0.0698  0.7756
  559MOL0     C75336   1.819  10.589   6.680 -0.1406  0.0708  0.1958
  559MOL0     C75337   1.828  10.458   6.634  0.6166 -0.4530  0.7883
  559MOL0     O75338   1.789  10.424   6.503  0.0131  0.7108  0.1943
  559MOL0     C75339   1.886  10.449   6.404  0.0748  0.0081 -0.4443
  559MOL0     C75340   1.875  10.341   6.302  0.1714  0.8164 -0.3157
  559MOL0     C75341   1.957  10.359   6.188 -0.0840 -0.5668  0.3744
  559MOL0     C75342   1.912  10.477   6.092  0.2385  0.3053 -0.7005
  559MOL0     C75343   1.947  10.454   5.944 -0.3749  0.0339  0.2178
  559MOL0     C75344   1.895  10.550   5.833  0.7010 -0.2276 -0.1223
  559MOL0     C75345   1.930  10.493   5.687 -1.2147  0.4675  0.2572
  559MOL0     C75346   1.876  10.585   5.575  0.0476 -0.1002 -0.7872
  559MOL0     N75347   1.932  10.548   5.441  0.8166  0.0587  0.3796
  559MOL0     C75348   1.962  10.636   5.346  1.8388  0.0094 -0.1644
  559MOL0     C75349   1.995  10.561   5.244  0.6630 -0.2298  1.0892
  559MOL0     C75350   2.038  10.601   5.111  0.0175  0.5893 -0.8316
  559MOL0     C75351   2.004  10.495   5.007 -0.8227 -0.2541  0.3772
  559MOL0     C75352   1.985  10.558   4.864 -1.6567  0.2215 -0.4143
  559MOL0     C75353   2.020  10.460   4.752 -0.5172 -0.0395  0.1750
  559MOL0     O75354   1.926  10.351   4.757  0.2601  0.7743  0.4155
  559MOL0     C75355   1.801  10.359   4.689  0.1935 -1.0822 -0.4773
  559MOL0     C75356   1.716  10.250   4.718 -0.2818  0.2545  0.3164
  559MOL0     C75357   1.586  10.244   4.668  0.7167 -0.0086  0.5356
  559MOL0     C75358   1.490  10.133   4.719 -0.6125 -0.4496 -0.5398
  559MOL0     C75359   1.531  10.347   4.582  0.6101 -0.1965  1.0994
  559MOL0     C75360   1.397  10.337   4.511  1.0437  0.1790  0.5078
  559MOL0     O75361   1.406  10.376   4.377  0.4285  0.1667 -0.5615
  559MOL0     C75362   1.286  10.407   4.312 -0.3160 -0.8837 -0.6248
  559MOL0     C75363   1.191  10.320   4.266  0.6353  0.1420  0.4780
  559MOL0     C75364   1.066  10.360   4.206 -1.0080  0.2894  0.1475
  559MOL0     C75365   1.046  10.502   4.194 -0.2975  0.4827  0.9153
  559MOL0     O75366   0.934  10.563   4.140 -0.0759 -0.1826  0.8704
  559MOL0     C75367   0.819  10.477   4.127 -0.1068 -0.0894  0.6473
  559MOL0     C75368   0.813  10.427   3.978  0.1931  0.1115 -1.3476
  559MOL0     C75369   0.680  10.448   3.907  0.5794 -0.4477  0.4180
  559MOL0     C75370   0.558  10.358   3.950 -0.2985  0.2220 -0.9386
  559MOL0     C75371   0.429  10.435   3.919  0.1694 -0.7917 -0.6017
  559MOL0     C75372   0.303  10.366   3.959 -0.2009  1.0096 -0.1151
  559MOL0     C75373   0.266  10.235   3.877 -1.1068 -0.1512  0.3695
  559MOL0     C75374   0.121  10.202   3.841  0.2596  0.2121 -0.9771
  559MOL0    Cl75375   0.017  10.173   3.969 -0.4465  0.2454  0.3622
  559MOL0     C75376   1.144  10.588   4.251  0.4922 -0.4455 -0.3095
  559MOL0     C75377   1.260  10.539   4.309 -0.6742  0.2783 -0.2637
  559MOL0     O75378   1.293  10.328   4.573  0.2234  0.9005  0.2803
  559MOL0     C75379   1.627  10.444   4.545 -0.7896  0.8781  0.5657
  559MOL0     C75380   1.754  10.446   4.594  0.6609 -0.5129  0.0202
  559MOL0     N75381   2.001  10.426   5.281  0.5488 -0.7716  0.0956
  559MOL0     N75382   1.950  10.415   5.400 -0.9870  0.2293  0.2341
  559MOL0     C75383   1.844  10.351   6.716  0.0507  0.5806  0.2164
  559MOL0     C75384   1.863  10.376   6.858  0.2180  0.1534  0.6310
  559MOL0     C75385   2.097  10.593   7.185  0.3155  0.4598 -0.5742
  559MOL0     C75386   2.017  10.692   7.246 -0.2710 -0.0845  0.6356
  559MOL0     C75387   2.054  10.739   7.373  0.3655  0.7487 -0.7371
  559MOL0     C75388   2.177  10.704   7.429 -0.7270 -0.6549  0.3799
  559MOL0     O75389   2.219  10.753   7.550 -0.4721  0.1650 -0.1888
  559MOL0     C75390   2.139  10.822   7.646  1.3555 -1.1275  0.4895
  559MOL0     C75391   2.114  10.972   7.614 -0.0405  0.1193  0.4079
  559MOL0     C75392   2.236  11.067   7.610 -0.7281 -0.2819  0.6167
  559MOL0     C75393   2.194  11.199   7.666 -0.8565 -0.1222  0.6907
  559MOL0     C75394   2.314  11.275   7.687  1.1357  0.3916 -0.7739
  559MOL0     C75395   2.425  11.320   7.711 -0.1706  0.4152  0.2909
  559MOL0     C75396   2.250  10.597   7.376 -0.7776 -1.1678  0.0872
  559MOL0     C75397   2.210  10.540   7.249  0.0200 -0.5069 -0.1575
  559MOL0     H75398   1.838  10.721   6.851 -0.3784  2.3813 -5.1054
  559MOL0     H75399   1.770  10.667   6.622  0.3701  3.7299  4.1000
  559MOL0     H75400   1.866  10.550   6.365  4.3004  1.1789 -0.0386
  559MOL0     H75401   1.985  10.449   6.449 -0.3268  0.0358  0.4685
  559MOL0     H75402   1.891  10.245   6.352  0.3387  1.2932  0.5645
  559MOL0     H75403   1.771  10.346   6.270  0.3337 -1.1140 -1.2878
  559MOL0     H75404   2.060  10.381   6.220 -0.7584  0.0899  2.2419
  559MOL0     H75405   1.950  10.266   6.130 -3.3479  0.8877 -1.8464
  559MOL0     H75406   1.804  10.495   6.086  0.1495  0.7616  1.5504
  559MOL0     H75407   1.948  10.575   6.123 -1.1697  0.8469 -0.7115
  559MOL0     H75408   2.056  10.459   5.935 -0.4411  1.4798  0.0499
  559MOL0     H75409   1.924  10.352   5.910  2.9836  0.3134 -3.6599
  559MOL0     H75410   1.791  10.579   5.845  0.9323  0.4740  0.2786
  559MOL0     H75411   1.944  10.648   5.839 -2.1740  1.2001  2.2875
  559MOL0     H75412   2.038  10.488   5.672 -1.3984 -0.9543 -0.8037
  559MOL0     H75413   1.879  10.397   5.670  0.1356 -0.4082  1.0071
  559MOL0     H75414   1.898  10.688   5.604 -0.7559 -0.1124 -0.0870
  559MOL0     H75415   1.767  10.572   5.569  0.0390  0.3572 -1.7942
  559MOL0     H75416   1.959  10.744   5.356 -2.8178 -0.0922  1.9182
  559MOL0     H75417   1.975  10.688   5.088 -2.3272 -0.6682  0.4271
  559MOL0     H75418   2.144  10.628   5.111  0.3834 -0.7585 -1.3605
  559MOL0     H75419   1.915  10.434   5.022 -0.8085 -0.5351 -0.5801
  559MOL0     H75420   2.085  10.422   5.000  0.0076  0.6366  0.3725
  559MOL0     H75421   2.046  10.649   4.866 -0.6122 -0.4621 -0.4786
  559MOL0     H75422   1.882  10.592   4.859 -1.2068  1.7397  0.0222
  559MOL0     H75423   2.115  10.414   4.783 -1.6834 -0.4700  3.6205
  559MOL0     H75424   2.029  10.509   4.655  0.9627  0.7085  0.6502
  559MOL0     H75425   1.750  10.186   4.799 -0.4470  1.0225  0.9969
  559MOL0     H75426   1.550  10.083   4.796  1.2751  1.1655 -0.8960
  559MOL0     H75427   1.396  10.163   4.765  0.2807 -0.6784  1.5730
  559MOL0     H75428   1.486  10.058   4.639  2.7754 -0.2431 -1.0539
  559MOL0     H75429   1.217  10.215   4.269  0.1012  0.0224  0.9734
  559MOL0     H75430   0.990  10.286   4.184 -2.7642  1.3658  2.1628
  559MOL0     H75431   0.810  10.395   4.199 -0.2489  2.0098  3.1739
  559MOL0     H75432   0.731  10.540   4.144  0.4495  1.7017 -2.3511
  559MOL0     H75433   0.882  10.478   3.910  1.2204  0.8821  0.2095
  559MOL0     H75434   0.847  10.323   3.980 -0.0449  0.0461  0.3811
  559MOL0     H75435   0.701  10.424   3.803  0.1531  0.8269  0.0229
  559MOL0     H75436   0.655  10.553   3.896  0.2125 -0.8109 -3.3108
  559MOL0     H75437   0.573  10.264   3.897  1.9049  0.2651 -0.4852
  559MOL0     H75438   0.571  10.338   4.057  1.0853  0.1270 -1.1089
  559MOL0     H75439   0.436  10.476   3.817 -0.2928 -1.0207 -0.7265
  559MOL0     H75440   0.437  10.528   3.976 -0.1227 -0.2457 -1.4337
  559MOL0     H75441   0.306  10.343   4.066  0.7272  0.8307 -0.1680
  559MOL0     H75442   0.218  10.434   3.952 -0.4601  2.0007  6.3267
  559MOL0     H75443   0.320  10.158   3.933 -3.5923 -1.5812  0.9785
  559MOL0     H75444   0.311  10.241   3.777 -1.5150  2.5027  0.2831
  559MOL0     H75445   0.116  10.110   3.783  0.0492 -1.4884  1.6012
  559MOL0     H75446   0.080  10.291   3.791 -0.0435  0.7254  0.1373
  559MOL0     H75447   1.122  10.694   4.256 -0.5525 -0.6936  2.2121
  559MOL0     H75448   1.332  10.617   4.334 -3.1326  2.4555  0.4935
  559MOL0     H75449   1.589  10.503   4.462 -1.4113 -1.7545 -1.1176
  559MOL0     H75450   1.823  10.520   4.554  0.0533 -0.0787 -0.2382
  559MOL0     H75451   1.840  10.255   6.667 -0.6928  1.6305 -1.8960
  559MOL0     H75452   1.866  10.295   6.931 -1.9734  0.6302  1.3242
  559MOL0     H75453   1.923  10.722   7.200  0.3535  0.0668 -0.5812
  559MOL0     H75454   1.992  10.791   7.444  0.6794 -0.5785  0.5594
  559MOL0     H75455   2.042  10.773   7.657  0.0495  1.0121 -0.8921
  559MOL0     H75456   2.170  10.822   7.751 -3.1068  1.9768  2.1111
  559MOL0     H75457   2.033  10.998   7.682  0.5652 -0.4671  1.3855
  559MOL0     H75458   2.073  10.983   7.513 -0.3972 -0.1050  0.5271
  559MOL0     H75459   2.258  11.088   7.504 -0.0404  1.9612  1.1554
  559MOL0     H75460   2.328  11.024   7.651  0.2876  2.1173  1.0213
  559MOL0     H75461   2.135  11.185   7.757  1.4110 -0.3231  2.2019
  559MOL0     H75462   2.127  11.250   7.596 -1.3897 -1.1050  0.4715
  559MOL0     H75463   2.510  11.380   7.737 -0.9712  2.3067 -1.2342
  559MOL0     H75464   2.343  10.563   7.421  0.2765  0.8127 -0.4600
  559MOL0     H75465   2.277  10.469   7.200  1.3543 -0.1662  1.1316
  560MOL0     O75466   4.501   5.790   9.165 -0.0893  0.4474 -0.1447
  560MOL0     C75467   4.395   5.776   9.103 -0.5934  1.2067 -0.1363
  560MOL0     O75468   4.377   5.790   8.966  0.6641  0.9578  0.3648
  560MOL0     C75469   4.478   5.828   8.886  0.4997  0.0680  0.5218
  560MOL0     C75470   4.507   5.760   8.767 -0.2270  0.1255  0.3803
  560MOL0     C75471   4.610   5.803   8.679 -0.3316  0.9684  0.0591
  560MOL0     C75472   4.691   5.908   8.717 -0.1587  0.2104 -0.6230
  560MOL0     O75473   4.799   5.946   8.633  0.8300  0.1501 -0.3700
  560MOL0     C75474   4.922   5.913   8.692 -0.7163 -0.0683  0.6936
  560MOL0     C75475   5.004   6.032   8.702 -0.5251  0.5078 -0.8274
  560MOL0     C75476   5.148   6.024   8.750 -0.1523 -0.5144 -0.5419
  560MOL0     C75477   5.182   6.140   8.842  0.7844  0.7561  0.3341
  560MOL0     C75478   5.321   6.121   8.889  0.4807  0.8367  0.0039
  560MOL0     C75479   5.343   6.225   9.004  1.0027  0.4030 -0.9909
  560MOL0     C75480   5.492   6.222   9.047  0.7809  0.3869  0.3019
  560MOL0     C75481   5.569   6.265   8.917 -0.8030  0.6470 -0.0929
  560MOL0     N75482   5.695   6.331   8.958 -0.2882  0.5490  0.0428
  560MOL0     C75483   5.788   6.295   9.053  0.3468 -0.0989 -0.0998
  560MOL0     C75484   5.874   6.399   9.070  0.8803  0.4068  0.4782
  560MOL0     C75485   5.976   6.407   9.178 -0.3343  0.0042 -0.3623
  560MOL0     C75486   5.919   6.438   9.317  0.2373  0.1523  0.2581
  560MOL0     C75487   6.011   6.364   9.415  0.0412 -0.2247 -1.0571
  560MOL0     C75488   5.973   6.414   9.567 -0.6363  0.0162  0.3912
  560MOL0     O75489   5.879   6.316   9.605  1.1169  0.1391  0.1256
  560MOL0     C75490   5.839   6.313   9.735  0.9268 -0.1548 -0.5599
  560MOL0     C75491   5.719   6.241   9.753  0.9631  1.4220  0.1844
  560MOL0     C75492   5.660   6.239   9.884  0.2490  0.7135 -0.3690
  560MOL0     C75493   5.541   6.137   9.888  0.5190 -0.4575 -0.4389
  560MOL0     C75494   5.713   6.316   9.991  0.4886 -0.1121  0.2559
  560MOL0     C75495   5.646   6.333  10.126  0.1105 -0.4371  0.8245
  560MOL0     O75496   5.542   6.247  10.152 -0.4487 -0.4599  0.8160
  560MOL0     C75497   5.479   6.247  10.277  0.5631 -0.0614  0.0137
  560MOL0     C75498   5.412   6.361  10.330 -0.9548  0.0889 -0.5537
  560MOL0     C75499   5.359   6.357  10.456 -0.1824  0.5158 -0.6620
  560MOL0     C75500   5.358   6.237  10.527 -0.4514 -0.6368  0.8281
  560MOL0     O75501   5.299   6.243  10.653  0.5850 -0.2855  0.2761
  560MOL0     C75502   5.229   6.133  10.701 -0.2853  0.0332 -0.8571
  560MOL0     C75503   5.211   6.143  10.856 -0.6314 -0.1017  0.4225
  560MOL0     C75504   5.092   6.069  10.912 -0.0361 -0.4125  0.2407
  560MOL0     C75505   5.053   6.131  11.052 -0.2215  0.4656  0.3859
  560MOL0     C75506   5.043   6.020  11.167 -0.1628 -0.6552 -0.9826
  560MOL0     C75507   4.966   6.063  11.291  0.4815  0.1592 -0.2419
  560MOL0     C75508   5.029   6.171  11.360 -0.1405 -0.8972  1.5773
  560MOL0     C75509   4.949   6.199  11.495  0.1092  0.3932  0.3286
  560MOL0    Cl75510   5.036   6.151  11.634 -0.6051 -0.3001  0.1864
  560MOL0     C75511   5.413   6.125  10.473  0.9246  0.0263  0.2203
  560MOL0     C75512   5.479   6.126  10.351 -0.6223 -0.7304 -0.2067
  560MOL0     O75513   5.691   6.420  10.203 -0.3248  0.1782  0.0892
  560MOL0     C75514   5.838   6.379   9.974 -0.3036  0.8184  0.6357
  560MOL0     C75515   5.898   6.373   9.845  0.1823 -0.4121 -0.0272
  560MOL0     N75516   5.828   6.503   8.998  0.3479 -0.4284  0.8275
  560MOL0     N75517   5.728   6.460   8.926 -0.0354 -0.5534  0.0345
  560MOL0     C75518   4.662   5.978   8.832 -0.3419  0.7124  0.4194
  560MOL0     C75519   4.553   5.939   8.907 -0.4820 -0.3240 -0.1704
  560MOL0     C75520   4.287   5.703   9.179  0.1208 -0.8744 -0.4885
  560MOL0     C75521   4.217   5.593   9.126  0.2016  0.5515 -0.6288
  560MOL0     C75522   4.111   5.530   9.200  0.4881 -0.7834  1.1700
  560MOL0     C75523   4.074   5.578   9.328 -0.9051 -0.0810 -0.0750
  560MOL0     O75524   3.974   5.509   9.386 -0.5881  0.0662 -0.4335
  560MOL0     C75525   3.958   5.528   9.527  1.1885 -0.2369 -0.1771
  560MOL0     C75526   3.807   5.482   9.556  0.0072 -0.1141  0.1854
  560MOL0     C75527   3.814   5.332   9.598 -0.3491  0.4314 -0.4025
  560MOL0     C75528   3.695   5.251   9.553 -0.7537  0.6296  0.1537
  560MOL0     C75529   3.694   5.215   9.416 -0.3851  0.1309  0.4315
  560MOL0     C75530   3.699   5.188   9.299  0.3832 -0.0687  0.0606
  560MOL0     C75531   4.154   5.686   9.385 -0.0548 -0.1647 -0.1977
  560MOL0     C75532   4.260   5.745   9.310 -0.3695 -1.1797 -0.0217
  560MOL0     H75533   4.440   5.676   8.751  0.0848 -0.5434  2.3062
  560MOL0     H75534   4.631   5.741   8.593 -1.3894 -0.0900  0.5447
  560MOL0     H75535   4.910   5.885   8.797  2.1731 -0.8940  0.9041
  560MOL0     H75536   4.968   5.834   8.632 -2.7979  0.4199 -1.7067
  560MOL0     H75537   5.008   6.089   8.609  1.0625 -0.4059 -1.3454
  560MOL0     H75538   4.953   6.095   8.776 -1.8694 -1.5797  0.1221
  560MOL0     H75539   5.163   5.925   8.795  1.0946 -0.4583 -0.8230
  560MOL0     H75540   5.217   6.034   8.666 -1.0259 -1.4972 -1.4151
  560MOL0     H75541   5.187   6.233   8.785  0.2272  0.6205  0.0569
  560MOL0     H75542   5.110   6.153   8.923  0.3933  1.7675 -0.1564
  560MOL0     H75543   5.350   6.018   8.910 -2.3743 -0.1460 -0.3714
  560MOL0     H75544   5.384   6.148   8.804  0.7855 -0.5909 -0.2485
  560MOL0     H75545   5.309   6.326   8.979  1.1869  0.7640  0.1445
  560MOL0     H75546   5.287   6.205   9.096  0.6068  0.7056 -1.1587
  560MOL0     H75547   5.507   6.306   9.116 -2.2820  1.5366 -0.2872
  560MOL0     H75548   5.512   6.124   9.091 -3.1634 -1.7062 -1.9825
  560MOL0     H75549   5.521   6.336   8.850  2.3186  2.6104 -0.4625
  560MOL0     H75550   5.599   6.174   8.864  5.0529  1.1492  1.6658
  560MOL0     H75551   5.786   6.203   9.110 -2.3881 -0.8983 -1.3386
  560MOL0     H75552   6.046   6.323   9.173  0.3286  0.3209  2.3136
  560MOL0     H75553   6.042   6.490   9.150  1.1921 -1.2309 -0.5189
  560MOL0     H75554   5.826   6.381   9.312  2.5945 -4.1092 -2.6204
  560MOL0     H75555   5.895   6.544   9.325  1.3966  0.3658  1.1152
  560MOL0     H75556   6.118   6.384   9.400  0.8772 -3.6848 -0.5814
  560MOL0     H75557   6.007   6.255   9.424 -3.4428 -0.1758 -0.9007
  560MOL0     H75558   5.942   6.519   9.566  1.6667  0.8797 -3.6359
  560MOL0     H75559   6.062   6.409   9.631  1.4589  1.5211 -2.2065
  560MOL0     H75560   5.697   6.168   9.676  0.9024 -0.8286  2.2249
  560MOL0     H75561   5.440   6.178   9.888 -0.4285 -2.5470 -2.5882
  560MOL0     H75562   5.534   6.074   9.799 -0.2329  0.6475 -1.1876
  560MOL0     H75563   5.568   6.068   9.968  0.9924  0.6726  0.4070
  560MOL0     H75564   5.416   6.458  10.281  1.5834 -0.6241 -1.8969
  560MOL0     H75565   5.324   6.443  10.512 -2.7240 -0.1884 -1.0349
  560MOL0     H75566   5.132   6.128  10.650 -1.3087  1.2057  0.8501
  560MOL0     H75567   5.285   6.042  10.680  1.5101  1.1871 -1.3283
  560MOL0     H75568   5.293   6.094  10.910 -1.6134  0.6398  2.6888
  560MOL0     H75569   5.208   6.249  10.885  0.5127  0.9287 -2.7862
  560MOL0     H75570   5.109   5.963  10.932 -0.0525 -0.2786  1.0253
  560MOL0     H75571   5.009   6.081  10.842  0.6539 -2.2658 -0.9512
  560MOL0     H75572   5.126   6.206  11.083  0.6821 -0.2562  0.0532
  560MOL0     H75573   4.960   6.184  11.031 -1.0228 -1.3146 -0.8572
  560MOL0     H75574   5.144   5.995  11.199 -1.0649 -0.1832  2.7299
  560MOL0     H75575   4.990   5.934  11.126  1.4098 -1.5885 -1.1110
  560MOL0     H75576   4.870   6.098  11.253  0.0409  0.4862  1.0996
  560MOL0     H75577   4.945   5.979  11.358  0.5445 -0.1823 -0.6494
  560MOL0     H75578   5.036   6.255  11.291  2.2499  0.4807  3.3224
  560MOL0     H75579   5.132   6.140  11.383  0.7049 -0.4502 -1.3069
  560MOL0     H75580   4.846   6.162  11.493 -0.0728  0.8112  1.4349
  560MOL0     H75581   4.932   6.306  11.510  0.9345  0.4732  0.7134
  560MOL0     H75582   5.417   6.027  10.520  0.2107 -1.5100 -2.6753
  560MOL0     H75583   5.529   6.040  10.306  0.9658 -0.4937  1.0176
  560MOL0     H75584   5.883   6.435  10.055 -1.7064 -1.2941  3.0353
  560MOL0     H75585   5.985   6.436   9.827  1.4251 -2.1740 -0.3883
  560MOL0     H75586   4.719   6.063   8.869  2.1595 -1.0205  0.8051
  560MOL0     H75587   4.516   6.006   8.983 -5.8972 -1.5395 -1.2882
  560MOL0     H75588   4.241   5.552   9.029  0.3109 -0.9541 -0.0007
  560MOL0     H75589   4.051   5.453   9.151  2.0992 -0.6223 -1.2061
  560MOL0     H75590   4.026   5.471   9.590  0.7152  1.9949  2.5566
  560MOL0     H75591   3.959   5.633   9.559 -1.0644 -0.6087  1.3453
  560MOL0     H75592   3.739   5.506   9.474 -2.3639  0.5116  2.2238
  560MOL0     H75593   3.769   5.547   9.635  0.5184  2.3859 -1.5089
  560MOL0     H75594   3.821   5.341   9.707 -1.1227  1.4187 -0.4229
  560MOL0     H75595   3.903   5.280   9.561  0.1522  0.1341  1.1225
  560MOL0     H75596   3.605   5.307   9.579 -0.0306  0.7615  2.5806
  560MOL0     H75597   3.688   5.159   9.612 -2.2140 -0.1738 -1.1889
  560MOL0     H75598   3.677   5.140   9.205  1.2589  0.2135 -0.2997
  560MOL0     H75599   4.133   5.717   9.487  0.5386 -0.9851  0.1842
  560MOL0     H75600   4.316   5.830   9.348 -1.9898 -0.0913  0.0762
  561MOL0     O75601   0.795   4.183   4.460 -1.1425 -0.0683 -0.6183
  561MOL0     C75602   0.682   4.236   4.482 -0.7809 -0.8463 -0.1429
  561MOL0     O75603   0.571   4.168   4.523 -0.1014 -0.0013  0.7172
  561MOL0     C75604   0.585   4.055   4.595 -0.2868  0.9847 -0.3651
  561MOL0     C75605   0.672   4.021   4.700  0.5987  0.0478 -0.0373
  561MOL0     C75606   0.667   3.905   4.771 -0.4025  0.4193 -0.6233
  561MOL0     C75607   0.574   3.812   4.747  0.7758  0.2680  0.2132
  561MOL0     O75608   0.559   3.696   4.824 -0.0655  0.2983  0.1797
  561MOL0     C75609   0.612   3.578   4.759 -0.1927  0.9973  0.5906
  561MOL0     C75610   0.764   3.583   4.784 -0.6249 -0.6929  0.0262
  561MOL0     C75611   0.788   3.566   4.932  0.0816  0.0273  0.1420
  561MOL0     C75612   0.928   3.547   4.981  0.8431 -0.3549  0.0942
  561MOL0     C75613   0.997   3.425   4.923  0.3630  0.0006  0.4218
  561MOL0     C75614   1.137   3.434   4.984 -0.3682 -0.1471 -0.3620
  561MOL0     C75615   1.224   3.318   4.936 -0.5648  0.2350 -0.2027
  561MOL0     C75616   1.378   3.355   4.944 -0.5649 -0.3411  0.7263
  561MOL0     N75617   1.485   3.263   4.889 -0.0123 -0.4433  0.5966
  561MOL0     C75618   1.554   3.266   4.772 -0.9749  0.3391  0.2451
  561MOL0     C75619   1.622   3.152   4.748  0.6929  0.4454 -0.5417
  561MOL0     C75620   1.716   3.114   4.641 -0.1017 -0.0108  0.2856
  561MOL0     C75621   1.793   3.227   4.576  0.2251 -0.3359 -0.4636
  561MOL0     C75622   1.907   3.201   4.485  0.1272  0.9230 -0.4069
  561MOL0     C75623   1.984   3.324   4.449  0.2057 -0.0273 -0.2939
  561MOL0     O75624   2.047   3.375   4.565  0.2582  1.1494 -0.5195
  561MOL0     C75625   2.109   3.500   4.560  0.4315 -0.4999 -0.8265
  561MOL0     C75626   2.118   3.582   4.453  0.3463 -0.2537 -0.7569
  561MOL0     C75627   2.185   3.703   4.456 -0.4585 -0.1202  0.6312
  561MOL0     C75628   2.192   3.778   4.322 -0.2279  0.3843 -0.1825
  561MOL0     C75629   2.257   3.744   4.573  0.1607  0.0764 -0.6396
  561MOL0     C75630   2.356   3.859   4.576 -0.2210  0.0551  0.5518
  561MOL0     O75631   2.404   3.880   4.697  0.1238 -0.3875 -0.5256
  561MOL0     C75632   2.533   3.926   4.719 -1.4164  0.0955  0.1974
  561MOL0     C75633   2.626   3.861   4.809  0.2218 -0.1244 -0.0923
  561MOL0     C75634   2.750   3.909   4.819 -0.0998 -0.1294 -0.5515
  561MOL0     C75635   2.800   4.018   4.749 -0.8944  0.1259 -0.6533
  561MOL0     O75636   2.934   4.058   4.758 -0.9209 -0.0224  0.3766
  561MOL0     C75637   2.986   4.129   4.644 -0.9736 -0.1595  0.0754
  561MOL0     C75638   3.096   4.228   4.677 -0.5983 -0.4613  0.4498
  561MOL0     C75639   3.159   4.284   4.543  0.2494  0.0973 -0.2433
  561MOL0     C75640   3.240   4.411   4.578 -0.1748 -0.4973  0.6521
  561MOL0     C75641   3.381   4.389   4.614 -0.0232  0.3825  0.2363
  561MOL0     C75642   3.460   4.519   4.612  0.6464  0.1485 -0.7126
  561MOL0     C75643   3.597   4.515   4.688 -0.0440  0.7212  0.7095
  561MOL0     C75644   3.607   4.597   4.805 -1.6044  0.1688 -0.4452
  561MOL0    Cl75645   3.785   4.606   4.850 -0.3137  0.4465  0.2905
  561MOL0     C75646   2.707   4.088   4.675 -0.1001 -0.3843 -1.1005
  561MOL0     C75647   2.576   4.039   4.653 -0.5487 -0.5569 -0.2233
  561MOL0     O75648   2.397   3.910   4.476  0.0986  0.7878  0.6424
  561MOL0     C75649   2.230   3.672   4.687  0.0231  0.5614 -0.3080
  561MOL0     C75650   2.165   3.550   4.679 -0.0044 -0.7404 -0.0182
  561MOL0     N75651   1.595   3.087   4.867 -0.1774  0.6020  0.4793
  561MOL0     N75652   1.504   3.144   4.942 -0.3587  0.0675  0.8179
  561MOL0     C75653   0.475   3.844   4.646 -0.8836  0.2985  0.4099
  561MOL0     C75654   0.493   3.957   4.569  0.1931  0.3939  0.2037
  561MOL0     C75655   0.654   4.377   4.427 -0.6080 -0.5383 -1.5316
  561MOL0     C75656   0.756   4.465   4.382 -0.7466 -0.7807  0.8891
  561MOL0     C75657   0.733   4.587   4.320 -0.0489 -0.0036 -0.0248
  561MOL0     C75658   0.607   4.637   4.321  0.0576  0.4873  0.2143
  561MOL0     O75659   0.574   4.764   4.309  0.4032  0.2683 -0.1490
  561MOL0     C75660   0.632   4.820   4.196 -0.6525 -0.0889  0.9993
  561MOL0     C75661   0.612   4.976   4.187  0.8428 -0.0715  0.5266
  561MOL0     C75662   0.645   5.029   4.052  0.1739 -0.6242 -0.0073
  561MOL0     C75663   0.534   5.005   3.938  0.1774  0.2850 -0.2468
  561MOL0     C75664   0.427   5.102   3.948  0.0623  0.8037  0.1188
  561MOL0     C75665   0.342   5.188   3.974 -0.6424  0.6369 -0.4180
  561MOL0     C75666   0.508   4.554   4.356 -0.2519  0.3920  0.6797
  561MOL0     C75667   0.519   4.416   4.401 -0.9059 -0.5585  0.1791
  561MOL0     H75668   0.749   4.094   4.723  0.5194  1.1857 -3.0071
  561MOL0     H75669   0.721   3.889   4.864 -2.5017  4.8144  1.6673
  561MOL0     H75670   0.573   3.486   4.803  2.7563 -0.7128 -0.0600
  561MOL0     H75671   0.584   3.570   4.654  0.5379 -0.3559  0.4844
  561MOL0     H75672   0.804   3.511   4.712  0.6803  1.1864 -1.1793
  561MOL0     H75673   0.812   3.674   4.749  3.8564 -2.2076  1.5147
  561MOL0     H75674   0.751   3.653   4.988 -0.7903  0.1720 -0.6365
  561MOL0     H75675   0.722   3.484   4.964 -2.0602  0.4838 -2.6922
  561MOL0     H75676   0.982   3.638   4.956 -0.3596  0.1069 -0.9442
  561MOL0     H75677   0.922   3.544   5.091 -2.2211 -3.3502  0.0501
  561MOL0     H75678   0.940   3.334   4.943  0.4942 -1.3636 -4.2232
  561MOL0     H75679   1.005   3.440   4.815  1.3952 -1.4420  0.2693
  561MOL0     H75680   1.189   3.527   4.960 -1.1665  0.6852  0.9882
  561MOL0     H75681   1.131   3.432   5.094 -0.4028 -4.8085 -0.2637
  561MOL0     H75682   1.199   3.230   4.997 -0.3635 -1.9671 -3.1070
  561MOL0     H75683   1.197   3.291   4.834 -2.1660  1.7117 -0.2112
  561MOL0     H75684   1.407   3.374   5.048 -1.0864  0.0759  0.7977
  561MOL0     H75685   1.386   3.445   4.884 -0.8280 -0.3777  0.6348
  561MOL0     H75686   1.553   3.359   4.715  0.2811  0.6334  0.6765
  561MOL0     H75687   1.792   3.047   4.683 -0.1982 -0.6999 -0.6053
  561MOL0     H75688   1.659   3.065   4.562 -0.3839  1.8935 -0.7669
  561MOL0     H75689   1.830   3.281   4.663 -0.2556 -0.5227 -0.1370
  561MOL0     H75690   1.714   3.287   4.529  0.4318 -0.0948 -0.5023
  561MOL0     H75691   1.867   3.147   4.398 -1.0091 -1.2539  1.3501
  561MOL0     H75692   1.977   3.132   4.533 -1.8488  0.3130  1.7774
  561MOL0     H75693   1.913   3.402   4.420 -1.2878 -0.4192  2.0681
  561MOL0     H75694   2.055   3.293   4.372  1.6519  1.3787  0.4132
  561MOL0     H75695   2.074   3.554   4.358 -0.0847 -2.0954 -0.0563
  561MOL0     H75696   2.180   3.886   4.330  0.0739  0.5729 -1.8371
  561MOL0     H75697   2.287   3.758   4.272 -0.7015 -3.5581  0.1649
  561MOL0     H75698   2.096   3.750   4.276 -0.2978 -0.9118  0.7056
  561MOL0     H75699   2.586   3.779   4.869 -2.1237  1.1209  0.1844
  561MOL0     H75700   2.825   3.861   4.880 -0.2758 -0.3224 -0.4874
  561MOL0     H75701   3.032   4.049   4.586 -0.2763 -1.1608  1.9037
  561MOL0     H75702   2.914   4.179   4.579  2.1338  2.2221 -1.8037
  561MOL0     H75703   3.061   4.308   4.743 -1.8539  1.0516 -1.9097
  561MOL0     H75704   3.182   4.180   4.726 -0.4820 -0.4004  0.3071
  561MOL0     H75705   3.080   4.324   4.480  1.9461  4.0358 -0.1056
  561MOL0     H75706   3.225   4.213   4.492  0.4522  0.1683 -0.0820
  561MOL0     H75707   3.236   4.467   4.484 -0.2914  1.6857  1.9045
  561MOL0     H75708   3.196   4.483   4.647 -0.6048  0.0504 -0.1770
  561MOL0     H75709   3.424   4.312   4.550 -1.1964 -1.2344  1.3209
  561MOL0     H75710   3.381   4.338   4.711 -1.6537 -1.3019 -0.5949
  561MOL0     H75711   3.478   4.568   4.516 -1.2179  5.0725  1.0991
  561MOL0     H75712   3.402   4.597   4.662  0.5620  0.5379 -1.3982
  561MOL0     H75713   3.683   4.540   4.625  0.2851 -0.3351  0.7218
  561MOL0     H75714   3.618   4.413   4.721 -0.3077 -0.2519 -1.9516
  561MOL0     H75715   3.550   4.546   4.883  1.4035  1.1671  2.6065
  561MOL0     H75716   3.569   4.698   4.786 -1.7470  0.3134  0.5798
  561MOL0     H75717   2.707   4.185   4.626 -3.0369 -0.2968 -1.1130
  561MOL0     H75718   2.507   4.088   4.585  0.7923  0.4348 -0.9249
  561MOL0     H75719   2.256   3.699   4.789  1.4085 -1.1894 -0.1416
  561MOL0     H75720   2.176   3.481   4.762 -3.9930 -0.3931  0.9709
  561MOL0     H75721   0.404   3.765   4.620  0.0593 -0.6648  0.6893
  561MOL0     H75722   0.421   3.978   4.491 -4.6142 -1.9016  3.5725
  561MOL0     H75723   0.858   4.431   4.394 -1.1948 -3.5806 -1.8163
  561MOL0     H75724   0.821   4.639   4.284 -0.5297  0.6214 -0.3150
  561MOL0     H75725   0.736   4.789   4.179 -1.0066 -0.4708 -0.7283
  561MOL0     H75726   0.582   4.794   4.102  3.8058  1.8019 -2.2976
  561MOL0     H75727   0.678   5.025   4.259  0.4385  3.7129 -1.4165
  561MOL0     H75728   0.513   5.004   4.222  1.4500 -0.6168  2.8756
  561MOL0     H75729   0.743   4.981   4.040 -0.2346 -1.9092  1.3451
  561MOL0     H75730   0.665   5.135   4.066 -0.4928 -0.3205 -1.2137
  561MOL0     H75731   0.488   4.907   3.948  1.5724 -0.7261 -2.7296
  561MOL0     H75732   0.588   5.014   3.843  0.8390 -1.5752 -0.0838
  561MOL0     H75733   0.264   5.256   3.999  1.0420  2.5641 -0.1716
  561MOL0     H75734   0.407   4.594   4.356  0.3930  2.0658  1.1956
  561MOL0     H75735   0.437   4.346   4.410 -0.0243 -2.0290 -2.3087
  562MOL0     O75736   8.698  10.095   1.153 -0.2763 -0.3529  0.1887
  562MOL0     C75737   8.812  10.076   1.188  0.2126 -0.3861 -0.7356
  562MOL0     O75738   8.858   9.966   1.263  1.0196 -0.3934  0.4896
  562MOL0     C75739   8.766   9.879   1.314  0.4119  1.0995 -0.5363
  562MOL0     C75740   8.680   9.917   1.419  0.6611 -0.7318 -0.5133
  562MOL0     C75741   8.598   9.817   1.479 -0.3162 -0.6033  0.3392
  562MOL0     C75742   8.606   9.683   1.455  0.2218  0.1957 -0.6176
  562MOL0     O75743   8.526   9.595   1.529  0.5684  0.5383  0.1933
  562MOL0     C75744   8.466   9.503   1.431 -0.7246 -0.0152  0.1055
  562MOL0     C75745   8.312   9.510   1.443 -0.1492  0.5788 -0.5130
  562MOL0     C75746   8.269   9.518   1.595  0.6725 -0.0814  0.4536
  562MOL0     C75747   8.116   9.492   1.621 -0.1431  0.8211  0.2094
  562MOL0     C75748   8.081   9.490   1.769  0.1736  0.0577 -0.0347
  562MOL0     C75749   7.951   9.416   1.802 -0.6124  0.1943 -0.3233
  562MOL0     C75750   7.832   9.472   1.720  0.3441 -0.2175 -1.1426
  562MOL0     C75751   7.727   9.363   1.710  0.0420  0.1501 -0.9539
  562MOL0     N75752   7.675   9.310   1.836  0.2763  0.8381 -0.1826
  562MOL0     C75753   7.615   9.396   1.924  0.6532  0.2377 -0.2617
  562MOL0     C75754   7.599   9.324   2.038  0.0513  0.2950 -0.4635
  562MOL0     C75755   7.523   9.360   2.167  0.4098 -0.7552 -0.1235
  562MOL0     C75756   7.522   9.512   2.203 -0.9207  0.9445  0.6161
  562MOL0     C75757   7.643   9.548   2.290 -0.5942 -0.6870  0.0462
  562MOL0     C75758   7.770   9.548   2.211 -0.5912  0.8149 -0.2300
  562MOL0     O75759   7.872   9.635   2.273  0.5789 -0.1883  0.0623
  562MOL0     C75760   8.002   9.620   2.227  0.2583  0.7313 -0.0526
  562MOL0     C75761   8.066   9.725   2.172 -0.5018  0.1108  1.7990
  562MOL0     C75762   8.202   9.718   2.120 -0.6933 -0.1008 -0.6719
  562MOL0     C75763   8.260   9.842   2.056  0.0205 -0.2097  0.8819
  562MOL0     C75764   8.266   9.594   2.142  0.0168 -0.3883 -0.2655
  562MOL0     C75765   8.409   9.571   2.079  0.2675 -0.0846  0.6429
  562MOL0     O75766   8.450   9.646   1.962  0.5944  0.2657 -0.0906
  562MOL0     C75767   8.576   9.634   1.915  0.6049  0.7036  0.2472
  562MOL0     C75768   8.603   9.536   1.818  0.1896  0.5223  0.5121
  562MOL0     C75769   8.731   9.536   1.763  1.0233  0.2995  0.6251
  562MOL0     C75770   8.828   9.615   1.814 -0.1725 -1.0340  0.7390
  562MOL0     O75771   8.957   9.624   1.764  0.0107  0.2545 -0.0674
  562MOL0     C75772   9.005   9.524   1.672 -0.6190 -0.2156 -0.1727
  562MOL0     C75773   9.153   9.495   1.681  1.0264 -1.0629  0.0874
  562MOL0     C75774   9.231   9.622   1.660  0.6225 -0.7804 -0.1423
  562MOL0     C75775   9.383   9.619   1.659 -1.3226  0.2571 -0.9878
  562MOL0     C75776   9.420   9.770   1.652 -0.7184 -0.0519 -0.6144
  562MOL0     C75777   9.575   9.801   1.654  0.2945  0.6708  0.0193
  562MOL0     C75778   9.623   9.943   1.686  0.5221  0.4349 -0.0209
  562MOL0     C75779   9.767   9.983   1.697  0.1775 -0.2154 -0.0487
  562MOL0    Cl75780   9.781  10.160   1.756  0.2961  0.1346 -0.2245
  562MOL0     C75781   8.796   9.705   1.908  0.8423  0.3948  0.9335
  562MOL0     C75782   8.672   9.721   1.961  0.6135 -0.0835  0.5487
  562MOL0     O75783   8.478   9.487   2.141  0.6042  0.0199  0.6937
  562MOL0     C75784   8.201   9.488   2.210 -0.8830 -0.6560 -0.3724
  562MOL0     C75785   8.064   9.496   2.255 -1.3589 -0.6190  0.1416
  562MOL0     N75786   7.673   9.204   2.029 -0.2417  0.1002 -1.1876
  562MOL0     N75787   7.699   9.193   1.895  0.3116  0.4577  0.1506
  562MOL0     C75788   8.699   9.642   1.360 -0.1684  0.0365  1.3802
  562MOL0     C75789   8.776   9.733   1.286 -0.3263 -0.8110  0.3527
  562MOL0     C75790   8.907  10.186   1.152 -0.5446  0.4025  1.4147
  562MOL0     C75791   9.028  10.208   1.220  0.0002  0.0854 -0.3355
  562MOL0     C75792   9.122  10.305   1.188  0.1384  0.3538  0.5485
  562MOL0     C75793   9.084  10.389   1.075  0.0798 -0.5656 -0.4604
  562MOL0     O75794   9.165  10.479   1.012  0.4054  0.2799  0.8884
  562MOL0     C75795   9.290  10.517   1.074  0.2345 -0.0185  0.1303
  562MOL0     C75796   9.282  10.674   1.077  0.6066  0.1243  0.6543
  562MOL0     C75797   9.176  10.728   1.178  0.5003 -0.2045  0.4512
  562MOL0     C75798   9.150  10.883   1.186  0.3772 -0.1908 -0.8867
  562MOL0     C75799   9.275  10.957   1.215 -0.4401 -0.8351 -0.4202
  562MOL0     C75800   9.371  11.028   1.230  0.3242  0.1761  0.8173
  562MOL0     C75801   8.957  10.373   1.013 -0.1229 -0.2150  0.6801
  562MOL0     C75802   8.863  10.276   1.050 -0.8552 -0.0944 -0.4832
  562MOL0     H75803   8.671  10.018   1.459 -0.7427 -0.7795 -0.6393
  562MOL0     H75804   8.529   9.839   1.560  1.5368 -2.5762  2.6069
  562MOL0     H75805   8.482   9.521   1.324 -3.6807 -0.6330 -0.5425
  562MOL0     H75806   8.515   9.407   1.450  0.0086  0.1292 -0.9667
  562MOL0     H75807   8.263   9.588   1.385 -1.2670 -0.7699 -1.4283
  562MOL0     H75808   8.267   9.418   1.406  0.3646 -0.4069  1.1607
  562MOL0     H75809   8.315   9.430   1.641  0.4233 -1.8048 -2.3300
  562MOL0     H75810   8.307   9.608   1.644 -1.4835  1.5615 -0.6895
  562MOL0     H75811   8.061   9.570   1.568 -1.8801 -0.7062 -0.3162
  562MOL0     H75812   8.093   9.391   1.586  1.6070  0.0285  1.2143
  562MOL0     H75813   8.170   9.447   1.816  0.9411  2.3144  0.7618
  562MOL0     H75814   8.083   9.594   1.805 -1.4489  1.2943 -3.1150
  562MOL0     H75815   7.961   9.309   1.781  1.4359  0.4134 -0.6971
  562MOL0     H75816   7.945   9.435   1.909 -3.1892  0.4870 -0.4620
  562MOL0     H75817   7.789   9.554   1.777 -3.5268 -2.6365 -0.1608
  562MOL0     H75818   7.855   9.502   1.617  1.8523 -1.3402 -1.1811
  562MOL0     H75819   7.774   9.281   1.655 -1.5781 -0.3183 -1.7016
  562MOL0     H75820   7.648   9.400   1.645  1.1295  2.0680 -1.2641
  562MOL0     H75821   7.574   9.493   1.896 -2.1937 -1.1740 -1.3386
  562MOL0     H75822   7.419   9.329   2.153  0.0877 -0.2736  1.0641
  562MOL0     H75823   7.568   9.306   2.251 -0.6833  0.1513  1.0784
  562MOL0     H75824   7.445   9.522   2.280 -1.5749  0.7641 -0.0024
  562MOL0     H75825   7.501   9.582   2.121  1.7160  0.4827 -0.5284
  562MOL0     H75826   7.646   9.490   2.383 -0.5697  1.4648  1.4653
  562MOL0     H75827   7.650   9.655   2.313  1.7053 -0.6049 -0.7171
  562MOL0     H75828   7.753   9.585   2.110 -3.6693  0.1161 -0.0511
  562MOL0     H75829   7.816   9.450   2.193  0.2476  1.8810 -5.2575
  562MOL0     H75830   8.005   9.815   2.165 -1.6540 -0.5028  3.3856
  562MOL0     H75831   8.361   9.865   2.093 -1.2003  2.4124  2.8996
  562MOL0     H75832   8.264   9.824   1.948  1.7908 -0.1818  0.9052
  562MOL0     H75833   8.201   9.933   2.069  0.9475  0.5499 -0.1015
  562MOL0     H75834   8.528   9.465   1.785  0.8347 -0.8967  1.9932
  562MOL0     H75835   8.758   9.466   1.684 -0.0268 -1.4525  1.7400
  562MOL0     H75836   8.955   9.428   1.692  2.9479 -3.1052 -3.5210
  562MOL0     H75837   8.967   9.556   1.574  0.4490  2.2979  0.1570
  562MOL0     H75838   9.171   9.452   1.780 -1.2804 -1.7904  0.2443
  562MOL0     H75839   9.183   9.412   1.615  3.4595 -0.0026 -0.2630
  562MOL0     H75840   9.202   9.693   1.738  0.1514  0.3567 -1.3217
  562MOL0     H75841   9.190   9.667   1.569  0.9084  4.1447  1.8634
  562MOL0     H75842   9.420   9.564   1.746  1.7220 -2.0357 -3.5057
  562MOL0     H75843   9.419   9.562   1.573 -0.7628 -0.0278 -0.5762
  562MOL0     H75844   9.371   9.815   1.739 -0.7509 -2.4830  0.7073
  562MOL0     H75845   9.383   9.819   1.562  4.2253  3.1842 -1.3152
  562MOL0     H75846   9.610   9.742   1.740  0.2546  1.1826  0.3933
  562MOL0     H75847   9.625   9.764   1.564  0.6213 -1.8524  1.1475
  562MOL0     H75848   9.576   9.970   1.781 -1.9686 -2.4648 -0.2760
  562MOL0     H75849   9.567  10.009   1.618  0.7068  0.5847 -0.0281
  562MOL0     H75850   9.818   9.984   1.600  0.3288  2.4320 -0.0163
  562MOL0     H75851   9.820   9.921   1.770  1.0881 -3.5923 -3.3072
  562MOL0     H75852   8.873   9.767   1.953  0.0175  0.5210  2.2306
  562MOL0     H75853   8.648   9.797   2.035  2.1904  3.2096 -2.0683
  562MOL0     H75854   8.256   9.395   2.217  0.6184  0.1871 -0.4277
  562MOL0     H75855   8.013   9.416   2.308  0.8707 -2.1144  0.1673
  562MOL0     H75856   8.720   9.537   1.342  2.9615  0.8448 -0.4518
  562MOL0     H75857   8.849   9.710   1.209 -1.5020  0.3926 -1.1867
  562MOL0     H75858   9.053  10.143   1.303 -0.5307  2.7319  2.0400
  562MOL0     H75859   9.216  10.307   1.244  0.5776 -3.8065  0.2573
  562MOL0     H75860   9.304  10.481   1.176 -3.0998  0.0915  0.7239
  562MOL0     H75861   9.372  10.487   1.008 -1.5756 -3.2715 -0.8541
  562MOL0     H75862   9.275  10.722   0.979  3.3743  0.5184  0.5636
  562MOL0     H75863   9.377  10.719   1.107  0.1587  0.3071  1.8605
  562MOL0     H75864   9.204  10.685   1.275  0.6595 -2.9489 -0.6969
  562MOL0     H75865   9.076  10.683   1.170  1.0483 -1.2229 -1.1893
  562MOL0     H75866   9.076  10.903   1.264  1.9202 -1.5315  1.0339
  562MOL0     H75867   9.111  10.928   1.094 -0.4008  2.4664  0.6401
  562MOL0     H75868   9.453  11.096   1.221  0.7627 -0.4469  0.0070
  562MOL0     H75869   8.919  10.451   0.948 -2.1997  0.3825  2.4680
  562MOL0     H75870   8.771  10.262   0.993 -0.7449  0.0933 -0.7089
  563MOL0     O75871   8.274  10.815   1.298  0.0193  0.0994  0.1229
  563MOL0     C75872   8.381  10.866   1.346 -0.0606 -0.6511  0.0182
  563MOL0     O75873   8.404  10.909   1.471 -0.5925  0.7210 -0.1436
  563MOL0     C75874   8.307  10.878   1.562  0.3107 -0.1566  0.5694
  563MOL0     C75875   8.250  10.990   1.635  0.1888 -1.0810 -0.4092
  563MOL0     C75876   8.157  10.976   1.741  0.1675  0.4103  0.3111
  563MOL0     C75877   8.118  10.843   1.774  0.3611 -0.2555  0.2955
  563MOL0     O75878   8.031  10.833   1.880 -0.6468 -0.5473  0.6928
  563MOL0     C75879   7.922  10.751   1.849  0.6499  0.6233  0.3668
  563MOL0     C75880   7.816  10.773   1.957  0.3658 -0.7605 -0.2766
  563MOL0     C75881   7.693  10.698   1.920  0.7629 -0.3042  0.2667
  563MOL0     C75882   7.570  10.756   1.989  0.1736  0.0485 -0.1264
  563MOL0     C75883   7.442  10.682   1.948 -0.3575 -0.3171  0.6142
  563MOL0     C75884   7.318  10.752   1.991  0.2527  0.8454 -0.0658
  563MOL0     C75885   7.179  10.684   1.955 -0.6902 -0.1581 -0.5416
  563MOL0     C75886   7.069  10.776   2.006  0.9204  0.3514  0.1214
  563MOL0     N75887   7.072  10.912   1.955  0.2267  0.4376  0.2720
  563MOL0     C75888   7.057  10.928   1.822 -0.3915 -0.7848  0.3454
  563MOL0     C75889   7.030  11.063   1.810  0.0931  0.5335 -0.0471
  563MOL0     C75890   6.994  11.124   1.682  0.2705  0.5179  0.4486
  563MOL0     C75891   7.130  11.123   1.604  0.2662  0.2578 -0.1600
  563MOL0     C75892   7.106  11.059   1.473 -0.0910 -0.1254  1.2862
  563MOL0     C75893   7.212  11.102   1.382 -0.1962  0.6027  0.4395
  563MOL0     O75894   7.146  11.103   1.253 -0.1608  0.5633  0.0044
  563MOL0     C75895   7.226  11.153   1.152  0.5695  0.7480  0.3115
  563MOL0     C75896   7.368  11.185   1.166  0.7532  0.6586  0.2940
  563MOL0     C75897   7.453  11.205   1.056  0.3735  0.2934 -0.0440
  563MOL0     C75898   7.603  11.233   1.086  0.4895  0.4100  0.3177
  563MOL0     C75899   7.407  11.217   0.928  0.4244 -0.3524  0.5602
  563MOL0     C75900   7.480  11.252   0.802  0.3438  0.3904  0.3300
  563MOL0     O75901   7.584  11.336   0.813 -0.0444  0.5386  0.6939
  563MOL0     C75902   7.627  11.389   0.695  0.4771  0.3881  0.0514
  563MOL0     C75903   7.730  11.323   0.615 -0.4378 -0.4904 -0.7494
  563MOL0     C75904   7.781  11.386   0.497 -0.0571 -0.1489  0.3242
  563MOL0     C75905   7.746  11.511   0.461  0.3971  0.8041 -0.7820
  563MOL0     O75906   7.804  11.593   0.378 -0.1798 -0.2146 -0.1209
  563MOL0     C75907   7.943  11.584   0.376 -0.5854  1.8834 -0.1970
  563MOL0     C75908   7.995  11.505   0.253 -1.2286 -0.4530 -0.6981
  563MOL0     C75909   7.933  11.551   0.120 -0.2742  0.1842 -0.3879
  563MOL0     C75910   7.943  11.706   0.099 -0.9097  1.1147  0.3171
  563MOL0     C75911   7.875  11.750  -0.041 -0.1458 -0.3354 -1.0385
  563MOL0     C75912   7.734  11.706  -0.054  0.8669 -0.0363  0.2971
  563MOL0     C75913   7.631  11.728   0.061 -0.3176  0.8941 -0.0585
  563MOL0     C75914   7.630  11.868   0.102 -0.9522 -0.6762 -0.0122
  563MOL0    Cl75915   7.538  11.890   0.250 -0.0047  0.1672 -0.1209
  563MOL0     C75916   7.652  11.573   0.541 -0.0372  1.1780  0.3596
  563MOL0     C75917   7.589  11.519   0.659 -0.1836  0.7935  0.1359
  563MOL0     O75918   7.440  11.201   0.694 -0.9076 -0.2328 -0.1631
  563MOL0     C75919   7.282  11.165   0.902  0.0396 -0.0575 -0.4158
  563MOL0     C75920   7.199  11.122   1.015 -0.5132  0.2936  0.2491
  563MOL0     N75921   7.041  11.120   1.935  0.8699 -0.5050 -0.1885
  563MOL0     N75922   7.062  11.030   2.023  0.6154  0.1718 -0.1085
  563MOL0     C75923   8.191  10.735   1.703 -0.0061  0.5412 -0.2396
  563MOL0     C75924   8.275  10.749   1.597  0.2776 -0.4542 -0.3190
  563MOL0     C75925   8.493  10.881   1.252  0.1571 -0.4605  0.4778
  563MOL0     C75926   8.632  10.890   1.285  0.2825 -0.4695  0.5134
  563MOL0     C75927   8.730  10.915   1.189 -0.0298  0.8572 -0.2704
  563MOL0     C75928   8.712  10.908   1.051  0.2510 -0.4141  0.7582
  563MOL0     O75929   8.818  10.935   0.966  0.0013  0.3761 -0.1898
  563MOL0     C75930   8.817  10.902   0.822 -0.5248 -0.5148  0.0236
  563MOL0     C75931   8.947  10.925   0.746 -0.3244  0.2201  0.6068
  563MOL0     C75932   8.939  10.877   0.598  0.3671  0.1951 -0.0414
  563MOL0     C75933   9.066  10.921   0.516 -0.4551 -1.0369  0.2449
  563MOL0     C75934   9.073  10.861   0.378 -0.1285 -0.5896 -0.1477
  563MOL0     C75935   9.066  10.800   0.275 -0.1735 -0.8267 -0.3668
  563MOL0     C75936   8.577  10.899   1.018  1.5265  0.7240  0.6693
  563MOL0     C75937   8.467  10.880   1.111 -0.3848 -0.1536  0.0061
  563MOL0     H75938   8.271  11.093   1.608  1.5258 -0.4489  2.5992
  563MOL0     H75939   8.119  11.065   1.789 -0.8307  0.9286 -1.3496
  563MOL0     H75940   7.880  10.766   1.749 -0.7855 -1.2178  0.6432
  563MOL0     H75941   7.959  10.648   1.850  1.0034  0.7131 -0.8607
  563MOL0     H75942   7.845  10.736   2.056 -0.5248 -1.6254 -0.3183
  563MOL0     H75943   7.801  10.881   1.951  2.1007 -0.5921 -2.6509
  563MOL0     H75944   7.678  10.720   1.814 -2.3613 -2.3295  0.1626
  563MOL0     H75945   7.700  10.589   1.920  2.6394 -0.2684 -1.6741
  563MOL0     H75946   7.594  10.765   2.095  1.6256 -0.1405 -0.4292
  563MOL0     H75947   7.557  10.855   1.946 -2.7407 -0.2540 -0.1959
  563MOL0     H75948   7.444  10.665   1.840 -0.1341 -2.5804  0.9270
  563MOL0     H75949   7.442  10.579   1.984 -2.5447  0.2074  2.3471
  563MOL0     H75950   7.334  10.767   2.098 -1.2652  1.1970  0.1258
  563MOL0     H75951   7.305  10.848   1.941 -1.5698 -0.9183 -3.3103
  563MOL0     H75952   7.167  10.672   1.847  0.2845  1.5509 -0.8711
  563MOL0     H75953   7.163  10.586   2.001  2.7135 -0.2024  0.8052
  563MOL0     H75954   7.074  10.778   2.115 -0.4946 -0.7764  0.2407
  563MOL0     H75955   6.972  10.730   1.986  1.1517  0.2294 -0.7670
  563MOL0     H75956   7.061  10.852   1.745  1.5624 -1.2354  0.8374
  563MOL0     H75957   6.909  11.072   1.637  1.5486 -0.3225 -1.0961
  563MOL0     H75958   6.955  11.225   1.702  1.9658  0.7717  2.8539
  563MOL0     H75959   7.210  11.067   1.655  2.2416  0.4635 -2.7827
  563MOL0     H75960   7.157  11.228   1.594 -0.5364  0.2537 -3.5205
  563MOL0     H75961   7.018  11.113   1.436  0.2633  0.7239  1.6491
  563MOL0     H75962   7.079  10.954   1.485 -3.5401  0.6255  1.4180
  563MOL0     H75963   7.292  11.027   1.387  0.4754  0.9997 -2.5541
  563MOL0     H75964   7.254  11.194   1.423  0.7539 -0.4646  2.0318
  563MOL0     H75965   7.406  11.171   1.267 -0.2257  0.0406  0.5925
  563MOL0     H75966   7.673  11.237   1.002  1.5076  1.7980  1.1869
  563MOL0     H75967   7.608  11.334   1.128  0.3131  1.9772 -3.1303
  563MOL0     H75968   7.636  11.165   1.166 -0.2185 -1.6437 -1.0574
  563MOL0     H75969   7.770  11.224   0.636  1.5430  0.4506  0.1355
  563MOL0     H75970   7.852  11.351   0.422  0.8925  2.6262 -0.1932
  563MOL0     H75971   7.986  11.684   0.371  4.6990 -0.0016  0.9232
  563MOL0     H75972   7.981  11.529   0.463 -4.9926 -0.6315  0.4721
  563MOL0     H75973   8.099  11.536   0.245 -1.1036 -1.0285 -1.4550
  563MOL0     H75974   7.980  11.397   0.266 -0.8070 -0.3188  1.0575
  563MOL0     H75975   7.829  11.517   0.117  0.3529 -1.9127 -0.3575
  563MOL0     H75976   7.969  11.495   0.033 -2.2055 -1.4817 -0.2025
  563MOL0     H75977   7.883  11.744   0.182 -0.8717 -1.3064  1.5523
  563MOL0     H75978   8.050  11.721   0.112 -0.6611 -1.1152  1.2626
  563MOL0     H75979   7.938  11.709  -0.121  0.8045 -1.4248  0.2273
  563MOL0     H75980   7.870  11.858  -0.052 -5.4551 -0.4668 -3.3509
  563MOL0     H75981   7.695  11.764  -0.138  3.9417  3.0171  0.7630
  563MOL0     H75982   7.731  11.601  -0.083  1.5698 -0.7671  2.6280
  563MOL0     H75983   7.654  11.670   0.150  4.0454  1.9645 -0.2690
  563MOL0     H75984   7.531  11.701   0.023  0.3074  0.3697 -1.4057
  563MOL0     H75985   7.594  11.931   0.020 -1.0586 -2.7764 -1.6730
  563MOL0     H75986   7.733  11.894   0.127 -0.8935  0.2102 -1.1038
  563MOL0     H75987   7.632  11.676   0.511 -1.2019  0.8673  0.0244
  563MOL0     H75988   7.526  11.577   0.726 -1.3481  1.3939 -1.3951
  563MOL0     H75989   7.244  11.148   0.802 -0.5884 -3.8166  0.2935
  563MOL0     H75990   7.110  11.070   0.983 -0.8898  0.9646  0.1728
  563MOL0     H75991   8.172  10.634   1.736 -1.6834  0.9519  0.1577
  563MOL0     H75992   8.321  10.665   1.545 -1.1548 -2.0714  0.9116
  563MOL0     H75993   8.649  10.901   1.391  1.1603  0.0121  0.3285
  563MOL0     H75994   8.834  10.929   1.216  0.4073 -1.1164 -0.7596
  563MOL0     H75995   8.784  10.798   0.808 -2.0733  0.1995 -2.1331
  563MOL0     H75996   8.732  10.961   0.789 -1.8678 -0.2101  3.6124
  563MOL0     H75997   9.038  10.880   0.786 -1.5402 -1.0835  2.0481
  563MOL0     H75998   8.968  11.033   0.749  1.2059 -0.0062 -0.7616
  563MOL0     H75999   8.858  10.937   0.556  0.8554  2.5697  2.1314
  563MOL0     H76000   8.921  10.769   0.601 -2.1263  0.5464  0.1202
  563MOL0     H76001   9.156  10.893   0.572 -0.3052 -0.5965  0.2278
  563MOL0     H76002   9.071  11.028   0.492 -1.9306 -1.5514 -2.7960
  563MOL0     H76003   9.050  10.749   0.182 -1.1691  2.3025 -2.0523
  563MOL0     H76004   8.555  10.878   0.914  0.9573  0.9984  0.7274
  563MOL0     H76005   8.369  10.865   1.065 -1.4269 -2.2429  2.6635
  564MOL0     O76006   4.958   6.313   1.037  0.2570 -0.6238  0.0317
  564MOL0     C76007   4.858   6.394   1.021 -0.0159 -0.1735 -0.0967
  564MOL0     O76008   4.792   6.457   1.121 -0.2215  0.3284 -0.0665
  564MOL0     C76009   4.831   6.429   1.252 -0.1413 -0.9691 -1.2075
  564MOL0     C76010   4.851   6.306   1.316  0.0808  0.2005 -0.4971
  564MOL0     C76011   4.874   6.292   1.454  0.3524 -0.2135 -0.1607
  564MOL0     C76012   4.859   6.403   1.532  0.2010  0.3354  0.5952
  564MOL0     O76013   4.870   6.409   1.668  0.0518  0.6233 -0.0643
  564MOL0     C76014   4.925   6.292   1.737 -0.5709 -0.3195  0.2101
  564MOL0     C76015   4.971   6.343   1.869 -0.4884  0.5455 -0.1912
  564MOL0     C76016   4.860   6.406   1.960 -0.2085 -0.3868  0.3842
  564MOL0     C76017   4.910   6.495   2.068 -0.3265  0.4973 -0.1583
  564MOL0     C76018   4.955   6.634   2.014  0.0166 -0.4401 -1.1787
  564MOL0     C76019   4.842   6.720   1.961 -0.2290 -0.4449 -0.2081
  564MOL0     C76020   4.892   6.844   1.884  0.4003  0.1501 -0.2377
  564MOL0     C76021   4.903   6.805   1.741  0.0835 -0.6262 -0.4303
  564MOL0     N76022   4.932   6.925   1.667 -0.1009  0.4415  0.4724
  564MOL0     C76023   4.920   7.049   1.699 -0.3331 -0.5661  0.3826
  564MOL0     C76024   4.971   7.124   1.602  0.3581 -0.1884  0.4996
  564MOL0     C76025   5.009   7.268   1.603 -0.1880 -0.3972  0.3277
  564MOL0     C76026   4.910   7.359   1.510  0.0839  0.4147 -0.7713
  564MOL0     C76027   4.929   7.511   1.515  0.1722 -0.8379 -0.2680
  564MOL0     C76028   5.028   7.553   1.412  0.0478 -0.0760  0.1528
  564MOL0     O76029   5.072   7.679   1.448  0.3162  0.0125  0.0458
  564MOL0     C76030   5.153   7.750   1.359 -0.9006 -0.5889 -0.3899
  564MOL0     C76031   5.175   7.887   1.399  1.0321  1.0939  0.2598
  564MOL0     C76032   5.250   7.973   1.319 -0.5684  0.4853  0.8501
  564MOL0     C76033   5.255   8.111   1.371  1.2926  0.2955 -0.0844
  564MOL0     C76034   5.318   7.930   1.207  0.3841 -0.5469 -0.6020
  564MOL0     C76035   5.396   8.014   1.114 -1.1173 -0.2999  0.0164
  564MOL0     O76036   5.416   7.969   0.980  0.9832  0.0853 -0.4331
  564MOL0     C76037   5.527   8.010   0.922 -1.0065  0.3638  0.1602
  564MOL0     C76038   5.637   7.939   0.884 -0.1324  0.0847  0.8041
  564MOL0     C76039   5.734   7.984   0.801 -0.0864 -0.0080  0.0663
  564MOL0     C76040   5.739   8.117   0.753 -0.4271 -0.5672  0.2569
  564MOL0     O76041   5.823   8.175   0.669 -0.3558  0.2014  0.4214
  564MOL0     C76042   5.958   8.119   0.662  0.3996  0.2303 -0.0037
  564MOL0     C76043   6.056   8.175   0.562 -0.4268 -0.3925  0.0779
  564MOL0     C76044   6.078   8.328   0.572  0.3693 -0.4626 -0.2540
  564MOL0     C76045   6.156   8.383   0.456  0.0665  0.0715  1.0274
  564MOL0     C76046   6.320   8.375   0.461  0.5023  0.1228 -0.0971
  564MOL0     C76047   6.392   8.438   0.343  0.3757  0.1792  0.0315
  564MOL0     C76048   6.542   8.412   0.350  0.6653 -0.7837  0.1257
  564MOL0     C76049   6.612   8.472   0.224  0.3329  0.1570  0.3154
  564MOL0    Cl76050   6.791   8.460   0.230 -0.4216  0.1910 -0.1138
  564MOL0     C76051   5.627   8.206   0.793  0.2000  0.1523  0.1522
  564MOL0     C76052   5.518   8.143   0.866  0.0454  0.1077  0.0439
  564MOL0     O76053   5.455   8.114   1.154 -0.2646  0.0489  0.0523
  564MOL0     C76054   5.292   7.801   1.167 -0.2284  0.1736  0.3910
  564MOL0     C76055   5.215   7.709   1.243  0.8445 -0.7897 -0.0374
  564MOL0     N76056   5.013   7.038   1.501 -0.6306 -0.0378 -0.6213
  564MOL0     N76057   4.981   6.919   1.542  0.4883 -0.8927  0.9737
  564MOL0     C76058   4.833   6.527   1.473 -0.0853  0.1922 -0.1096
  564MOL0     C76059   4.816   6.537   1.341 -0.3035 -0.5016  0.1625
  564MOL0     C76060   4.825   6.424   0.881 -0.3059  0.8262  0.0758
  564MOL0     C76061   4.690   6.469   0.855  0.3420 -0.1879 -0.7892
  564MOL0     C76062   4.649   6.476   0.725 -0.6995 -0.7553  0.2706
  564MOL0     C76063   4.752   6.460   0.621 -0.3436  0.3666  0.5083
  564MOL0     O76064   4.724   6.488   0.494  0.2327  0.3183 -0.0516
  564MOL0     C76065   4.594   6.509   0.447 -0.1268  0.8884  0.6333
  564MOL0     C76066   4.571   6.540   0.298 -0.2929  0.2812  0.1074
  564MOL0     C76067   4.422   6.516   0.263 -0.2353 -0.7137 -0.0269
  564MOL0     C76068   4.382   6.565   0.122  0.2200  0.7425  0.7734
  564MOL0     C76069   4.392   6.706   0.111  0.5642 -0.3004 -0.1022
  564MOL0     C76070   4.381   6.826   0.083 -0.0853 -0.1393 -0.1148
  564MOL0     C76071   4.887   6.442   0.649 -0.5561  0.1152  0.3266
  564MOL0     C76072   4.927   6.412   0.783 -0.1749  0.3460  0.4502
  564MOL0     H76073   4.869   6.223   1.249  2.9379  0.4773 -0.1983
  564MOL0     H76074   4.909   6.199   1.499 -3.3995 -1.0379  1.3940
  564MOL0     H76075   4.850   6.213   1.736 -0.7171 -0.1823 -0.6608
  564MOL0     H76076   5.022   6.260   1.697 -0.2655 -0.4773  1.0607
  564MOL0     H76077   5.019   6.252   1.907  2.6703  2.8842  1.9609
  564MOL0     H76078   5.066   6.397   1.870 -0.9987  1.4665 -0.1962
  564MOL0     H76079   4.791   6.462   1.896  0.2652  0.4798  0.6157
  564MOL0     H76080   4.801   6.319   1.988 -1.5058 -0.4336 -2.2306
  564MOL0     H76081   4.833   6.499   2.145  0.4614  3.0136  0.5766
  564MOL0     H76082   5.000   6.456   2.117  1.7224  4.6301 -0.2405
  564MOL0     H76083   5.002   6.682   2.100  2.1957 -1.1717 -1.8761
  564MOL0     H76084   5.032   6.612   1.939  3.6581  1.1558  1.7602
  564MOL0     H76085   4.773   6.668   1.894  0.8996 -2.3623  0.0416
  564MOL0     H76086   4.796   6.761   2.052  1.1078  0.4336  0.1151
  564MOL0     H76087   4.820   6.926   1.888  2.7706  2.4336 -1.2557
  564MOL0     H76088   4.983   6.885   1.929 -1.1040 -0.0205  3.2940
  564MOL0     H76089   4.812   6.765   1.695  0.7131  0.3511 -2.6668
  564MOL0     H76090   4.967   6.718   1.723  0.8629 -0.1927  0.2127
  564MOL0     H76091   4.895   7.101   1.792 -5.1561 -1.2020 -0.3085
  564MOL0     H76092   5.016   7.312   1.703 -0.0619  0.8853 -0.2240
  564MOL0     H76093   5.113   7.263   1.570  0.7482  2.6883  2.3760
  564MOL0     H76094   4.806   7.354   1.544  0.1813  0.4456 -0.4656
  564MOL0     H76095   4.933   7.327   1.408 -1.0426  0.2776 -0.9921
  564MOL0     H76096   4.945   7.549   1.616  0.2821 -2.2875  0.2954
  564MOL0     H76097   4.834   7.550   1.478  1.5463 -0.5027 -3.8115
  564MOL0     H76098   4.979   7.548   1.315 -0.2412  1.6558  0.1799
  564MOL0     H76099   5.112   7.483   1.404 -0.2912 -0.3778 -0.7564
  564MOL0     H76100   5.130   7.925   1.490  1.8333  1.2517  0.5960
  564MOL0     H76101   5.172   8.138   1.437  1.0801  0.4431 -0.4134
  564MOL0     H76102   5.352   8.130   1.417  1.6305 -1.1237 -0.1617
  564MOL0     H76103   5.245   8.180   1.287 -1.2344 -0.3254 -0.3755
  564MOL0     H76104   5.650   7.837   0.921  2.2394  0.4837  1.2422
  564MOL0     H76105   5.821   7.922   0.785 -0.7186 -1.2790  1.2900
  564MOL0     H76106   5.990   8.118   0.767 -1.5477 -4.5292  0.7747
  564MOL0     H76107   5.948   8.016   0.628  0.3074  0.1797  0.1729
  564MOL0     H76108   6.157   8.135   0.575 -0.4026 -1.0108 -1.6481
  564MOL0     H76109   6.036   8.145   0.458  0.7175 -0.4702 -0.1384
  564MOL0     H76110   6.135   8.350   0.662 -0.4648 -1.2617  0.4918
  564MOL0     H76111   5.978   8.370   0.589 -0.2391 -1.1639 -1.8650
  564MOL0     H76112   6.125   8.331   0.364 -1.6906  0.8499  1.1489
  564MOL0     H76113   6.128   8.488   0.449  2.6396  0.6967 -1.7158
  564MOL0     H76114   6.354   8.272   0.468  1.8738 -0.2137 -6.2449
  564MOL0     H76115   6.350   8.432   0.549  0.9118  1.1617 -0.8801
  564MOL0     H76116   6.346   8.414   0.247 -1.2418  1.5801  0.3935
  564MOL0     H76117   6.370   8.543   0.365 -0.4398  0.2724 -1.0929
  564MOL0     H76118   6.574   8.309   0.368 -0.9252 -1.1554  1.0053
  564MOL0     H76119   6.595   8.455   0.435  2.3964 -2.6844  0.1037
  564MOL0     H76120   6.584   8.577   0.241  1.2659  0.6252 -0.8769
  564MOL0     H76121   6.577   8.426   0.132  2.2783 -0.3085 -0.2467
  564MOL0     H76122   5.628   8.312   0.770 -0.2334 -0.0210 -0.6944
  564MOL0     H76123   5.437   8.212   0.887 -0.3291  0.5705 -2.6320
  564MOL0     H76124   5.338   7.759   1.078 -1.2644 -2.3407  0.9537
  564MOL0     H76125   5.202   7.607   1.208  1.6388 -0.5029 -1.2146
  564MOL0     H76126   4.824   6.617   1.532  0.9135  1.2904 -1.5634
  564MOL0     H76127   4.794   6.630   1.289 -0.7352  0.0100  1.2388
  564MOL0     H76128   4.619   6.467   0.937  0.8082  1.0039 -0.3218
  564MOL0     H76129   4.549   6.512   0.704 -0.5718  0.0108  0.9236
  564MOL0     H76130   4.527   6.425   0.466 -1.4627  1.8770  0.4481
  564MOL0     H76131   4.567   6.596   0.508  1.8527  2.9312 -1.2168
  564MOL0     H76132   4.639   6.475   0.241  1.1525  1.7816  0.0603
  564MOL0     H76133   4.594   6.643   0.271  4.1334 -0.2472  1.0785
  564MOL0     H76134   4.357   6.568   0.334 -0.2572  0.0187 -0.5656
  564MOL0     H76135   4.408   6.408   0.273  0.2517 -0.5701  3.3223
  564MOL0     H76136   4.278   6.533   0.105  0.6973 -0.7392  0.4143
  564MOL0     H76137   4.444   6.517   0.046 -0.9211 -1.0731  0.9230
  564MOL0     H76138   4.360   6.926   0.052  0.1068 -0.5814 -1.7635
  564MOL0     H76139   4.963   6.460   0.573 -1.7953  2.4910 -0.4488
  564MOL0     H76140   5.026   6.381   0.815  0.1426 -0.9374 -1.5578
  565MOL0     O76141   9.880   4.674   8.814 -0.4730 -0.5952  0.4589
  565MOL0     C76142   9.890   4.724   8.923 -0.5441 -0.4284  1.0796
  565MOL0     O76143   9.952   4.834   8.951 -0.0219  0.4458 -0.1688
  565MOL0     C76144  10.012   4.909   8.851 -0.3851  0.4383  1.2752
  565MOL0     C76145  10.142   4.964   8.872  0.2250 -0.4621 -0.3636
  565MOL0     C76146  10.203   5.044   8.772 -0.1689 -0.4391  0.3686
  565MOL0     C76147  10.142   5.074   8.647  0.1323  0.2720  0.0619
  565MOL0     O76148  10.204   5.164   8.562 -0.1175  0.2020  0.2446
  565MOL0     C76149  10.209   5.122   8.425  0.0841 -0.1540 -0.6414
  565MOL0     C76150  10.256   5.232   8.335  0.8892  0.3269 -0.1284
  565MOL0     C76151  10.173   5.362   8.328  0.3911  0.8146  0.7030
  565MOL0     C76152  10.021   5.324   8.300 -0.3970 -0.2495  0.4460
  565MOL0     C76153   9.945   5.421   8.203  0.1292  0.0180  0.1628
  565MOL0     C76154   9.817   5.365   8.157  0.4888 -0.3143  0.6533
  565MOL0     C76155   9.697   5.347   8.255 -0.1989  0.3614  0.1219
  565MOL0     C76156   9.700   5.211   8.329  0.4547  0.6723  0.3019
  565MOL0     N76157   9.606   5.210   8.452  0.1203  0.3694  0.6558
  565MOL0     C76158   9.477   5.249   8.444  0.0737  0.4732 -0.6288
  565MOL0     C76159   9.436   5.265   8.572  0.0877  0.2756 -0.0822
  565MOL0     C76160   9.288   5.283   8.617 -0.1814 -0.5196 -0.2231
  565MOL0     C76161   9.205   5.345   8.503 -0.8249 -0.3149 -0.8201
  565MOL0     C76162   9.062   5.385   8.542 -0.9925 -0.0125 -0.2712
  565MOL0     C76163   9.017   5.515   8.486  0.2349 -0.4450  0.0709
  565MOL0     O76164   9.044   5.514   8.338  0.1811 -0.5150 -0.3691
  565MOL0     C76165   9.023   5.629   8.272 -0.4978 -0.0509 -0.3938
  565MOL0     C76166   8.919   5.715   8.304 -0.0351  0.3142  0.4828
  565MOL0     C76167   8.894   5.827   8.208  0.6187  0.6137  0.4819
  565MOL0     C76168   8.766   5.899   8.243  0.6899  0.3893  0.2921
  565MOL0     C76169   8.969   5.850   8.098 -0.1778  0.2456  0.2039
  565MOL0     C76170   8.946   5.960   8.000 -0.3003  0.0765  0.3007
  565MOL0     O76171   8.979   5.929   7.870  0.6541  0.7122 -0.0923
  565MOL0     C76172   8.972   6.019   7.769 -0.0098  0.3057 -0.1847
  565MOL0     C76173   9.034   6.143   7.779 -0.3659 -0.9731 -0.1088
  565MOL0     C76174   9.043   6.230   7.668  0.7270  0.7385  0.0945
  565MOL0     C76175   8.989   6.200   7.543  0.5312 -0.0647 -0.2964
  565MOL0     O76176   9.010   6.277   7.431 -0.3399 -0.1751  0.1754
  565MOL0     C76177   9.031   6.223   7.299  0.0938 -0.5654 -1.6668
  565MOL0     C76178   9.085   6.315   7.196  0.6701 -0.5552  0.6558
  565MOL0     C76179   9.229   6.363   7.208 -0.3419 -0.7463  0.1350
  565MOL0     C76180   9.270   6.398   7.349  0.1776  0.7431 -0.2931
  565MOL0     C76181   9.401   6.470   7.344  0.1511  0.1037 -0.2123
  565MOL0     C76182   9.450   6.503   7.496  0.4486 -0.3747  0.3135
  565MOL0     C76183   9.347   6.596   7.569 -1.0592  0.3509  0.3348
  565MOL0     C76184   9.334   6.724   7.494  0.5549 -0.7215  0.1370
  565MOL0    Cl76185   9.205   6.813   7.587  0.3391  0.3842  0.1397
  565MOL0     C76186   8.927   6.074   7.528  0.1244  0.3615  0.3888
  565MOL0     C76187   8.918   5.982   7.642  1.0298 -0.3293 -0.3120
  565MOL0     O76188   8.906   6.066   8.036 -0.1004 -0.6820 -1.2537
  565MOL0     C76189   9.075   5.754   8.070  0.3544 -0.4341 -0.2627
  565MOL0     C76190   9.102   5.650   8.154 -0.9141  0.4967 -0.7442
  565MOL0     N76191   9.542   5.235   8.661  0.0293  1.3579 -0.4680
  565MOL0     N76192   9.641   5.207   8.587  0.3034 -0.2773 -0.2528
  565MOL0     C76193  10.017   5.018   8.626  1.0534 -0.1538 -0.0662
  565MOL0     C76194   9.957   4.942   8.720  0.1774 -0.2538 -0.8392
  565MOL0     C76195   9.879   4.637   9.038 -0.1755  1.0284 -0.5664
  565MOL0     C76196   9.874   4.696   9.172 -0.0512 -0.8202  1.2409
  565MOL0     C76197   9.875   4.612   9.281  0.5649 -0.1202 -0.5656
  565MOL0     C76198   9.874   4.477   9.270  1.0848  1.6243  0.2102
  565MOL0     O76199   9.899   4.396   9.373 -0.6321 -0.4621 -1.3534
  565MOL0     C76200   9.967   4.436   9.495 -0.2036 -0.3290 -0.2872
  565MOL0     C76201   9.864   4.449   9.601  0.7663 -0.6236  0.1680
  565MOL0     C76202   9.941   4.483   9.737  0.7171 -0.6301 -0.0196
  565MOL0     C76203   9.848   4.454   9.854 -0.3279 -1.2252 -0.5832
  565MOL0     C76204   9.826   4.310   9.886  0.3815 -1.0161  0.0628
  565MOL0     C76205   9.786   4.199   9.914 -0.2542  0.3738 -0.2831
  565MOL0     C76206   9.864   4.416   9.151 -0.4205 -0.3966  1.1954
  565MOL0     C76207   9.876   4.494   9.033  0.5986  0.2743 -0.9266
  565MOL0     H76208  10.197   4.968   8.965 -1.9726 -2.6046  1.1725
  565MOL0     H76209  10.301   5.086   8.794  0.3668 -3.4544  5.1259
  565MOL0     H76210  10.283   5.041   8.423  0.5137  0.0517  2.1578
  565MOL0     H76211  10.114   5.080   8.393 -1.8360  2.5915  1.0271
  565MOL0     H76212  10.356   5.254   8.375  1.5063 -2.1683 -0.1287
  565MOL0     H76213  10.259   5.188   8.235  0.0393 -2.5727  1.0351
  565MOL0     H76214  10.191   5.422   8.417 -1.9986 -0.6414  2.3026
  565MOL0     H76215  10.204   5.422   8.242  2.2112  2.3729  2.3660
  565MOL0     H76216  10.018   5.223   8.257 -0.6810  0.8767 -2.4001
  565MOL0     H76217   9.981   5.324   8.402  1.6905  1.2591  1.3423
  565MOL0     H76218   9.931   5.518   8.251  1.1370 -0.4225  1.4057
  565MOL0     H76219  10.004   5.434   8.112  0.6819  2.2694  0.8011
  565MOL0     H76220   9.778   5.433   8.081  1.3532 -1.4200 -0.8465
  565MOL0     H76221   9.845   5.273   8.104 -0.9379 -0.1008 -0.5465
  565MOL0     H76222   9.684   5.428   8.327 -3.3360 -2.2893  2.8388
  565MOL0     H76223   9.601   5.350   8.204  0.3128  4.4470 -0.9009
  565MOL0     H76224   9.800   5.198   8.371 -0.3919  0.0227  2.2396
  565MOL0     H76225   9.678   5.124   8.266 -0.7818 -1.7951  3.7966
  565MOL0     H76226   9.409   5.258   8.360 -1.0526  2.6540  0.4532
  565MOL0     H76227   9.248   5.183   8.636  1.9678 -1.8378 -2.1259
  565MOL0     H76228   9.282   5.351   8.703 -1.9642 -0.5962 -0.2525
  565MOL0     H76229   9.194   5.280   8.416 -0.3614 -1.5880  0.0339
  565MOL0     H76230   9.246   5.443   8.477 -0.5641 -0.2739 -0.2793
  565MOL0     H76231   9.062   5.393   8.651  0.8848 -0.1930 -0.2218
  565MOL0     H76232   8.990   5.308   8.515 -0.7222  0.5140 -2.6935
  565MOL0     H76233   9.069   5.601   8.528 -0.0803  0.4661 -1.3090
  565MOL0     H76234   8.911   5.529   8.507  0.2027 -0.0239 -0.3652
  565MOL0     H76235   8.847   5.684   8.379 -0.6470 -1.7276 -0.8666
  565MOL0     H76236   8.733   5.867   8.343  1.9869 -0.8956  0.3425
  565MOL0     H76237   8.790   6.005   8.246 -0.5426  0.7731 -1.4919
  565MOL0     H76238   8.685   5.884   8.171 -0.7813 -0.5208  2.0399
  565MOL0     H76239   9.098   6.157   7.865  1.2844 -0.7705 -1.3393
  565MOL0     H76240   9.087   6.329   7.659  0.3978  0.9063  0.2715
  565MOL0     H76241   9.098   6.138   7.310 -1.3815 -1.6692 -0.7094
  565MOL0     H76242   8.937   6.180   7.262 -0.1416 -1.3252 -0.2477
  565MOL0     H76243   9.097   6.268   7.098  1.8572 -0.5628  0.7923
  565MOL0     H76244   9.007   6.391   7.188  0.5040 -0.8007 -0.0303
  565MOL0     H76245   9.233   6.441   7.132 -1.9281 -2.5824 -1.9614
  565MOL0     H76246   9.306   6.294   7.174 -0.2259 -0.8141  0.5301
  565MOL0     H76247   9.198   6.467   7.393 -0.9978 -0.2408 -0.6293
  565MOL0     H76248   9.284   6.299   7.394 -1.1885  1.1693  1.1743
  565MOL0     H76249   9.387   6.564   7.290  0.6007 -0.7489 -1.8537
  565MOL0     H76250   9.465   6.398   7.291 -1.4068 -1.6351  0.1734
  565MOL0     H76251   9.460   6.411   7.553  0.5275 -2.0542 -2.2337
  565MOL0     H76252   9.552   6.544   7.497  0.6016  0.0778 -4.7809
  565MOL0     H76253   9.387   6.618   7.669  1.8130  0.1286 -0.6914
  565MOL0     H76254   9.248   6.553   7.585 -1.4975  0.9214 -0.7482
  565MOL0     H76255   9.325   6.720   7.385  1.0014  2.0317 -0.0851
  565MOL0     H76256   9.426   6.783   7.503  0.2137  0.0289 -1.0186
  565MOL0     H76257   8.887   6.050   7.430  0.7900  0.0656  0.1889
  565MOL0     H76258   8.862   5.890   7.637 -0.1562  0.3397  0.2504
  565MOL0     H76259   9.138   5.782   7.986 -0.1297  2.3169  0.1801
  565MOL0     H76260   9.177   5.575   8.132  0.7469  2.2783 -1.3965
  565MOL0     H76261   9.969   5.029   8.529 -0.2773  0.0103  0.5886
  565MOL0     H76262   9.855   4.904   8.714  0.2268 -0.4373 -0.5499
  565MOL0     H76263   9.876   4.805   9.180  1.9385 -0.5533 -1.4616
  565MOL0     H76264   9.879   4.668   9.374 -0.1208  5.0755 -3.2932
  565MOL0     H76265  10.052   4.372   9.520  0.3116  1.0221  1.6735
  565MOL0     H76266  10.011   4.534   9.475  1.3427 -1.2040 -1.4436
  565MOL0     H76267   9.794   4.365   9.608  0.9219 -1.0108 -2.0464
  565MOL0     H76268   9.800   4.538   9.592  0.9929 -0.6242 -2.1048
  565MOL0     H76269   9.989   4.581   9.727  0.1299 -0.0554  2.2805
  565MOL0     H76270  10.022   4.411   9.748  0.2262 -1.0356  1.0081
  565MOL0     H76271   9.753   4.508   9.854  0.7769  0.9613  1.9745
  565MOL0     H76272   9.902   4.496   9.939 -0.2162  0.8155 -1.5910
  565MOL0     H76273   9.770   4.107   9.967  2.7153  0.9814  1.9740
  565MOL0     H76274   9.845   4.310   9.140 -1.0274 -0.4335  2.4506
  565MOL0     H76275   9.873   4.431   8.945  0.3356 -3.4272  1.4943
  566MOL0     O76276  10.372   8.719   4.580 -0.4482  0.2280 -0.3319
  566MOL0     C76277  10.362   8.598   4.570 -0.1975 -0.3485  0.0002
  566MOL0     O76278  10.377   8.506   4.671  0.9057  0.0751  0.0698
  566MOL0     C76279  10.419   8.535   4.800  0.6421  0.2575 -0.1275
  566MOL0     C76280  10.415   8.658   4.872 -1.1986  0.1867  0.4863
  566MOL0     C76281  10.453   8.666   5.007 -0.5193  0.5087 -0.2657
  566MOL0     C76282  10.491   8.555   5.077  0.4769  0.8796  0.3981
  566MOL0     O76283  10.525   8.543   5.210 -0.0128 -0.5299  0.2442
  566MOL0     C76284  10.588   8.660   5.264  0.3115  0.4512  0.1148
  566MOL0     C76285  10.485   8.767   5.325 -0.3875 -0.9975 -0.4567
  566MOL0     C76286  10.557   8.890   5.386 -0.1388  0.8112 -0.8578
  566MOL0     C76287  10.667   8.955   5.295  0.1288 -0.0995 -0.7086
  566MOL0     C76288  10.711   9.095   5.348  0.7457 -0.3610 -0.6819
  566MOL0     C76289  10.794   9.088   5.470  0.2181  0.0675  0.3053
  566MOL0     C76290  10.825   9.226   5.526 -0.2298  0.1678 -0.3521
  566MOL0     C76291  10.923   9.210   5.649  1.0820  0.5372 -0.0778
  566MOL0     N76292  10.855   9.288   5.750 -0.0912  0.4977  0.0185
  566MOL0     C76293  10.861   9.427   5.747  0.8496 -1.2169  0.2263
  566MOL0     C76294  10.781   9.465   5.853  0.0410  0.4421 -0.1914
  566MOL0     C76295  10.745   9.602   5.892 -0.3054  0.2197  0.2876
  566MOL0     C76296  10.610   9.656   5.838 -0.2453  0.6064  0.3271
  566MOL0     C76297  10.586   9.807   5.847  0.8836 -1.2637 -0.3287
  566MOL0     C76298  10.478   9.865   5.763  0.7606  0.3910  0.1445
  566MOL0     O76299  10.486  10.007   5.762 -0.2850  0.8785 -0.5744
  566MOL0     C76300  10.442  10.080   5.872 -0.0027  0.2267  0.0020
  566MOL0     C76301  10.438  10.220   5.854  0.0693 -0.6141 -0.0056
  566MOL0     C76302  10.418  10.310   5.966 -1.0209 -0.4608 -1.2733
  566MOL0     C76303  10.440  10.460   5.941  0.2045 -0.1382 -0.0729
  566MOL0     C76304  10.380  10.259   6.094 -0.5046  0.5930  0.1108
  566MOL0     C76305  10.336  10.337   6.208 -0.9857  0.1391  0.5860
  566MOL0     O76306  10.370  10.298   6.333  0.6888  0.5835 -0.6478
  566MOL0     C76307  10.353  10.391   6.439  0.3864  0.2048  0.3411
  566MOL0     C76308  10.312  10.347   6.561 -0.4049  0.1261 -0.2541
  566MOL0     C76309  10.282  10.428   6.671  0.1977 -0.4658 -0.3234
  566MOL0     C76310  10.320  10.566   6.661  0.5386  0.3513 -0.0376
  566MOL0     O76311  10.306  10.651   6.772  0.0562 -0.1003  0.2227
  566MOL0     C76312  10.416  10.741   6.785  0.0651 -0.1171  0.2203
  566MOL0     C76313  10.486  10.741   6.921  0.4515 -0.1552 -0.3215
  566MOL0     C76314  10.535  10.607   6.978 -0.1755 -1.0021  0.1290
  566MOL0     C76315  10.570  10.604   7.131  0.2749 -0.3463 -0.9049
  566MOL0     C76316  10.721  10.620   7.174 -0.6252  0.7437  0.0560
  566MOL0     C76317  10.790  10.750   7.131  0.1664 -0.1539  0.9150
  566MOL0     C76318  10.922  10.783   7.210  1.0278  0.6837  0.2517
  566MOL0     C76319  10.975  10.923   7.197 -1.4027  0.7590  0.0317
  566MOL0    Cl76320  10.854  11.026   7.266  0.0127 -0.2830  0.0938
  566MOL0     C76321  10.349  10.619   6.532  0.5683  0.6574 -0.8753
  566MOL0     C76322  10.376  10.528   6.426 -0.1735 -0.0733  0.2488
  566MOL0     O76323  10.263  10.435   6.186 -0.0610 -0.7761 -0.7078
  566MOL0     C76324  10.377  10.116   6.103  0.9376 -1.4214 -0.2046
  566MOL0     C76325  10.407  10.032   6.000  0.0805 -0.7223 -0.1753
  566MOL0     N76326  10.753   9.343   5.917 -0.0684 -0.5935 -0.5644
  566MOL0     N76327  10.779   9.233   5.847 -0.6531 -0.1408  0.5607
  566MOL0     C76328  10.476   8.422   5.021 -0.4419  0.8586  0.3406
  566MOL0     C76329  10.451   8.415   4.878 -0.2275  0.4433 -0.0424
  566MOL0     C76330  10.322   8.536   4.442 -0.0787  0.1765  0.4001
  566MOL0     C76331  10.279   8.402   4.425 -0.6289  0.0192  0.3179
  566MOL0     C76332  10.237   8.349   4.296 -1.1112  0.7225  0.0704
  566MOL0     C76333  10.258   8.431   4.185  0.1955 -0.1885  0.2326
  566MOL0     O76334  10.210   8.394   4.053 -0.4023  0.4440  0.1341
  566MOL0     C76335  10.115   8.287   4.042 -0.4623  0.0048 -0.6368
  566MOL0     C76336  10.179   8.149   4.013 -0.5876  0.1359  1.0075
  566MOL0     C76337  10.240   8.150   3.869  0.4451 -0.4107  0.0194
  566MOL0     C76338  10.255   8.005   3.831  1.1579 -0.3552  0.2343
  566MOL0     C76339  10.368   7.944   3.896  0.2077 -0.4208  0.8352
  566MOL0     C76340  10.453   7.881   3.946  0.6897 -0.5421  0.3532
  566MOL0     C76341  10.312   8.558   4.202 -0.0575  0.1269 -0.3469
  566MOL0     C76342  10.342   8.613   4.325  0.3201 -0.2444 -0.5144
  566MOL0     H76343  10.383   8.748   4.822 -0.5862  0.1286 -0.0242
  566MOL0     H76344  10.462   8.767   5.044 -0.4994  0.7990 -1.0430
  566MOL0     H76345  10.656   8.628   5.344 -1.0592  2.5504  2.2915
  566MOL0     H76346  10.645   8.711   5.187 -0.5548  0.0624 -0.8036
  566MOL0     H76347  10.424   8.814   5.246 -2.1714 -0.4418  1.1635
  566MOL0     H76348  10.416   8.715   5.392  0.1209 -2.0142 -0.6963
  566MOL0     H76349  10.491   8.964   5.431  1.0323 -1.2529  5.2340
  566MOL0     H76350  10.614   8.868   5.477  1.9551 -1.2951 -2.5486
  566MOL0     H76351  10.744   8.884   5.264 -1.6919 -1.8840 -1.2974
  566MOL0     H76352  10.613   8.974   5.202 -2.0325 -1.4194  0.2010
  566MOL0     H76353  10.778   9.135   5.271 -0.8091  2.5151 -0.6969
  566MOL0     H76354  10.630   9.168   5.362  1.1719  0.0849 -0.5307
  566MOL0     H76355  10.753   9.024   5.549  0.8721 -1.0991 -0.2761
  566MOL0     H76356  10.889   9.039   5.446  0.3376 -0.6831  2.0654
  566MOL0     H76357  10.862   9.296   5.451  1.3554 -0.4335 -0.1693
  566MOL0     H76358  10.726   9.258   5.559 -0.5328  1.2011 -2.1561
  566MOL0     H76359  11.019   9.255   5.624  1.2416 -0.4913 -1.4146
  566MOL0     H76360  10.934   9.104   5.673  2.5387  1.0712  1.8613
  566MOL0     H76361  10.913   9.492   5.677 -1.7126 -1.6358 -2.2418
  566MOL0     H76362  10.747   9.611   6.001 -0.4223  0.3709  0.2768
  566MOL0     H76363  10.823   9.675   5.866 -2.7541  2.2978 -1.7439
  566MOL0     H76364  10.528   9.597   5.879  0.6593 -2.2830 -1.7107
  566MOL0     H76365  10.603   9.637   5.730  1.0632 -0.7841  0.4629
  566MOL0     H76366  10.678   9.855   5.812 -0.0553 -1.7391 -3.7969
  566MOL0     H76367  10.581   9.836   5.952 -1.0547 -2.9374  0.1047
  566MOL0     H76368  10.381   9.830   5.800  2.4829 -3.4212  1.5822
  566MOL0     H76369  10.485   9.821   5.663 -0.1410 -0.8743  0.6245
  566MOL0     H76370  10.467  10.267   5.760 -1.1815  1.6066  0.6484
  566MOL0     H76371  10.535  10.486   5.988  0.6653 -3.0592  0.8470
  566MOL0     H76372  10.444  10.482   5.834 -0.8915  0.5104  0.0057
  566MOL0     H76373  10.357  10.517   5.984  1.3726  2.6427 -1.2849
  566MOL0     H76374  10.310  10.238   6.555  1.6943  0.1218 -3.5413
  566MOL0     H76375  10.255  10.387   6.768 -0.7888  1.0881  0.0922
  566MOL0     H76376  10.491  10.747   6.705  0.3245 -1.0208  0.3903
  566MOL0     H76377  10.382  10.845   6.783  2.9036  0.9538  1.5259
  566MOL0     H76378  10.571  10.809   6.916 -0.2297  0.7806  0.5701
  566MOL0     H76379  10.410  10.773   6.992  1.3561 -0.7743  0.9592
  566MOL0     H76380  10.618  10.577   6.914  1.2962  3.3700 -0.3269
  566MOL0     H76381  10.452  10.535   6.980 -0.2786 -0.8801  0.4528
  566MOL0     H76382  10.515  10.683   7.184  1.9159  0.0018  0.3802
  566MOL0     H76383  10.536  10.510   7.175 -2.4383  1.1976  0.6507
  566MOL0     H76384  10.777  10.536   7.133 -0.3219  0.0129  1.8923
  566MOL0     H76385  10.731  10.621   7.283  0.0686 -0.7513  0.0260
  566MOL0     H76386  10.815  10.738   7.025 -0.2698  0.9446  0.6803
  566MOL0     H76387  10.727  10.839   7.144  2.7701  2.4521 -2.4111
  566MOL0     H76388  11.000  10.714   7.179 -0.3592 -1.3698  1.1327
  566MOL0     H76389  10.908  10.774   7.318 -1.4800 -1.8944 -0.1507
  566MOL0     H76390  10.999  10.959   7.096 -4.6846 -0.0828 -1.1532
  566MOL0     H76391  11.067  10.920   7.257 -1.7814  4.2390  1.0452
  566MOL0     H76392  10.370  10.724   6.514  2.7814  0.3825 -0.2411
  566MOL0     H76393  10.409  10.564   6.329 -2.3471 -0.6130 -0.7545
  566MOL0     H76394  10.347  10.088   6.204 -1.5137  1.8844  0.1279
  566MOL0     H76395  10.405   9.925   6.021  0.1472 -0.9153 -1.1191
  566MOL0     H76396  10.506   8.342   5.089 -1.9304  1.2197  1.4777
  566MOL0     H76397  10.471   8.325   4.822  1.2328 -0.3492  1.6788
  566MOL0     H76398  10.261   8.343   4.514  0.0858 -0.9167 -0.1373
  566MOL0     H76399  10.210   8.244   4.295 -1.3762  0.7710  0.8189
  566MOL0     H76400  10.058   8.279   4.135  0.5465  0.5989  0.0546
  566MOL0     H76401  10.037   8.307   3.967 -0.3136  3.9023  0.0254
  566MOL0     H76402  10.097   8.078   4.010 -0.6291  0.1283 -3.2001
  566MOL0     H76403  10.262   8.122   4.080  1.7927  0.2549 -1.7130
  566MOL0     H76404  10.338   8.198   3.865  2.0606 -3.3773  0.6157
  566MOL0     H76405  10.169   8.200   3.803  0.1161  0.2651  0.8746
  566MOL0     H76406  10.267   8.012   3.722 -3.4257 -2.9471 -0.7061
  566MOL0     H76407  10.155   7.961   3.839  0.8667 -0.4407 -2.6778
  566MOL0     H76408  10.527   7.818   3.991 -0.3846  0.0626  3.1887
  566MOL0     H76409  10.329   8.626   4.120  0.0498  1.5947  0.8540
  566MOL0     H76410  10.380   8.714   4.327  2.7557 -1.0504 -1.8537
  567MOL0     O76411   5.535   1.994   2.397  0.1301  0.6062 -0.4776
  567MOL0     C76412   5.606   2.057   2.469  0.5427  0.0802 -0.4864
  567MOL0     O76413   5.573   2.102   2.599 -0.2630 -0.9876 -0.6138
  567MOL0     C76414   5.465   2.033   2.651  0.5190  0.4919 -0.2259
  567MOL0     C76415   5.338   2.096   2.641 -0.1370 -0.3938 -0.2811
  567MOL0     C76416   5.230   2.042   2.716  0.4097 -1.5254 -0.0121
  567MOL0     C76417   5.241   1.933   2.799 -0.2424  0.2981  0.1288
  567MOL0     O76418   5.135   1.883   2.872  0.2907  0.5429  0.1380
  567MOL0     C76419   5.043   1.974   2.936 -0.5675 -0.3468 -0.0960
  567MOL0     C76420   4.919   1.904   2.986  0.4115  0.5599  0.3568
  567MOL0     C76421   4.859   1.810   2.891 -0.0587  0.3396 -0.0085
  567MOL0     C76422   4.931   1.661   2.906 -0.5141 -0.6398 -0.3087
  567MOL0     C76423   4.898   1.560   2.788  0.6838  0.1976 -0.2015
  567MOL0     C76424   4.835   1.441   2.856  0.7331 -0.0369  0.6214
  567MOL0     C76425   4.810   1.330   2.744  0.1540  0.0336 -0.0132
  567MOL0     C76426   4.705   1.368   2.650  0.3300  0.1423  0.4449
  567MOL0     N76427   4.578   1.358   2.716  0.2146 -0.6775 -0.1297
  567MOL0     C76428   4.504   1.246   2.725  0.2666 -0.2626  0.2141
  567MOL0     C76429   4.384   1.276   2.788  0.3341 -0.0468  0.7190
  567MOL0     C76430   4.264   1.182   2.809 -0.3033  0.3177  0.1693
  567MOL0     C76431   4.136   1.222   2.726  0.9838  0.0418  0.5244
  567MOL0     C76432   4.079   1.356   2.765  1.3082  0.3051  0.6943
  567MOL0     C76433   3.942   1.379   2.687 -0.0136 -0.5549 -0.4900
  567MOL0     O76434   3.887   1.516   2.730 -0.2729  0.2803  0.4606
  567MOL0     C76435   3.928   1.636   2.674  0.0560  0.0514 -0.4269
  567MOL0     C76436   3.996   1.652   2.555 -0.0377  0.8813  0.0463
  567MOL0     C76437   4.009   1.772   2.491 -0.1386 -0.3200  0.6710
  567MOL0     C76438   4.049   1.771   2.350  0.2822 -0.3870 -0.0677
  567MOL0     C76439   3.967   1.889   2.557  0.1108 -0.1585 -1.8512
  567MOL0     C76440   3.990   2.027   2.519 -0.5597  0.5142  0.8579
  567MOL0     O76441   3.908   2.138   2.553 -0.5382  0.7162 -0.4873
  567MOL0     C76442   3.949   2.263   2.513 -0.1799  0.7880  0.6242
  567MOL0     C76443   3.866   2.330   2.433 -0.4389 -0.7971  0.1259
  567MOL0     C76444   3.885   2.467   2.413  0.5629  0.5655  0.1740
  567MOL0     C76445   3.986   2.536   2.476 -0.1773  0.5061 -0.1649
  567MOL0     O76446   3.990   2.673   2.443  0.3476  0.0463 -0.7523
  567MOL0     C76447   4.077   2.766   2.507  0.4607  0.6155  0.9105
  567MOL0     C76448   4.204   2.786   2.420 -0.3004  0.5740  0.7667
  567MOL0     C76449   4.307   2.872   2.498  0.2903  0.4274  0.7573
  567MOL0     C76450   4.420   2.924   2.415 -0.5246  0.0706  0.4081
  567MOL0     C76451   4.537   2.961   2.505 -0.2341  0.5122  0.0451
  567MOL0     C76452   4.646   3.020   2.417 -0.3262  0.6832 -0.0328
  567MOL0     C76453   4.625   3.165   2.371  0.3006 -0.9601 -0.7834
  567MOL0     C76454   4.717   3.207   2.254 -0.0078  0.3549 -0.6560
  567MOL0    Cl76455   4.642   3.130   2.110  0.1440  0.0786  0.1682
  567MOL0     C76456   4.071   2.467   2.561  0.6189 -0.2846  0.0432
  567MOL0     C76457   4.053   2.332   2.581  0.0739  0.4013 -0.1306
  567MOL0     O76458   4.107   2.038   2.474  0.7403  0.5392 -1.1029
  567MOL0     C76459   3.916   1.878   2.690  0.0840  0.7890  0.5091
  567MOL0     C76460   3.882   1.748   2.738 -0.1759 -0.1445 -0.2195
  567MOL0     N76461   4.396   1.409   2.822  0.4340 -0.2211  0.1720
  567MOL0     N76462   4.503   1.457   2.775 -0.8459  0.2681 -0.3191
  567MOL0     C76463   5.371   1.874   2.809 -0.5505 -0.6153 -0.5135
  567MOL0     C76464   5.486   1.929   2.739  0.9333 -0.4570  0.1754
  567MOL0     C76465   5.736   2.097   2.418  0.1880  0.2332  0.2222
  567MOL0     C76466   5.824   2.167   2.496 -0.5228 -0.0083 -1.2480
  567MOL0     C76467   5.949   2.201   2.447 -0.5420  0.6297  0.4207
  567MOL0     C76468   5.992   2.165   2.321  0.2658  0.6854 -0.4131
  567MOL0     O76469   6.110   2.210   2.275 -0.3799  0.3016  0.3245
  567MOL0     C76470   6.097   2.334   2.202 -0.4447  0.7280  0.2606
  567MOL0     C76471   6.231   2.388   2.168  0.3690 -0.1282 -1.0352
  567MOL0     C76472   6.318   2.294   2.089  0.3253  0.3996 -0.8056
  567MOL0     C76473   6.450   2.364   2.052 -0.1285 -0.2107 -0.2378
  567MOL0     C76474   6.432   2.439   1.924 -0.6920  0.4096  0.0602
  567MOL0     C76475   6.444   2.506   1.824 -1.0533 -0.2081  0.1503
  567MOL0     C76476   5.911   2.092   2.229 -0.2104  0.7280 -0.7766
  567MOL0     C76477   5.785   2.052   2.289  1.3905  0.3961 -0.2151
  567MOL0     H76478   5.314   2.187   2.587  1.3030  1.6558  2.2343
  567MOL0     H76479   5.141   2.104   2.716  3.7082  3.8065  0.1478
  567MOL0     H76480   5.098   2.021   3.018  0.5220  0.9952 -1.5532
  567MOL0     H76481   5.011   2.057   2.872 -2.0723 -0.1696  0.8378
  567MOL0     H76482   4.928   1.865   3.088  1.7816  0.2197  0.1195
  567MOL0     H76483   4.836   1.973   3.006 -2.2279 -2.6834  1.5597
  567MOL0     H76484   4.752   1.808   2.910 -0.0721  0.7188 -0.0320
  567MOL0     H76485   4.882   1.838   2.787 -1.1682  2.7053  0.3262
  567MOL0     H76486   5.040   1.676   2.908 -0.4281 -0.6414 -2.3772
  567MOL0     H76487   4.901   1.613   2.999 -0.7968 -0.3160 -0.2309
  567MOL0     H76488   4.827   1.599   2.715  1.0513  0.2740 -0.5219
  567MOL0     H76489   4.989   1.534   2.733  3.5241  4.0689  2.1379
  567MOL0     H76490   4.893   1.405   2.941  0.1393 -1.2276  0.5435
  567MOL0     H76491   4.737   1.463   2.901  0.8413 -2.1039  1.9860
  567MOL0     H76492   4.905   1.323   2.690  1.5281  0.0650  2.2948
  567MOL0     H76493   4.785   1.239   2.800 -2.1467  1.0689  0.7694
  567MOL0     H76494   4.719   1.304   2.562  0.8207 -0.4626  0.9524
  567MOL0     H76495   4.716   1.470   2.613  0.5025 -0.3788 -1.0286
  567MOL0     H76496   4.530   1.146   2.692 -1.7207 -0.3704 -1.2023
  567MOL0     H76497   4.301   1.083   2.780 -0.2152  0.4464 -0.1609
  567MOL0     H76498   4.235   1.171   2.914  1.2127 -3.2205  0.3557
  567MOL0     H76499   4.060   1.144   2.721  1.5082 -0.4648  0.2927
  567MOL0     H76500   4.154   1.231   2.619 -0.6877 -2.9000 -0.1101
  567MOL0     H76501   4.142   1.441   2.737 -0.4737  1.8158  1.0717
  567MOL0     H76502   4.057   1.354   2.872 -0.0277 -0.8835  0.4167
  567MOL0     H76503   3.876   1.295   2.713 -0.3200  0.2937  1.7188
  567MOL0     H76504   3.953   1.377   2.579 -0.3546  0.6171 -0.5599
  567MOL0     H76505   4.029   1.564   2.499 -2.1021  0.4817 -0.6160
  567MOL0     H76506   3.987   1.847   2.300 -0.3928 -0.1246  1.1325
  567MOL0     H76507   4.153   1.805   2.351  0.6929 -1.5005  2.3105
  567MOL0     H76508   4.025   1.679   2.296 -3.6585  1.0346 -1.0832
  567MOL0     H76509   3.782   2.272   2.394  0.2795 -1.9434  0.2258
  567MOL0     H76510   3.811   2.520   2.354 -1.4624 -1.8407  0.4077
  567MOL0     H76511   4.034   2.866   2.509  0.2890  0.5399  1.2095
  567MOL0     H76512   4.099   2.744   2.612 -1.0608  2.7476  1.7411
  567MOL0     H76513   4.259   2.695   2.391 -0.1093  0.1727  2.2800
  567MOL0     H76514   4.184   2.850   2.334  1.0067 -1.0676 -0.8764
  567MOL0     H76515   4.342   2.817   2.586 -3.2710 -1.3053  1.2772
  567MOL0     H76516   4.264   2.963   2.542  1.6564  0.4701  2.0674
  567MOL0     H76517   4.446   2.863   2.328  1.3734  2.2147 -0.6459
  567MOL0     H76518   4.388   3.017   2.367  0.8420  0.6224  0.5029
  567MOL0     H76519   4.577   2.869   2.549  0.9640  0.7965 -0.4134
  567MOL0     H76520   4.508   3.026   2.588  1.4103  0.3851  0.7687
  567MOL0     H76521   4.739   3.026   2.475  0.0611 -1.3003 -0.3441
  567MOL0     H76522   4.647   2.951   2.332 -4.7534 -2.7302  2.2462
  567MOL0     H76523   4.656   3.230   2.453  1.8640 -3.2101  0.5416
  567MOL0     H76524   4.520   3.183   2.346  0.5147  1.9777  0.0491
  567MOL0     H76525   4.819   3.168   2.259 -1.4278 -4.3122 -2.5546
  567MOL0     H76526   4.719   3.316   2.243 -1.7706  0.2722 -2.2223
  567MOL0     H76527   4.152   2.525   2.604 -0.3409  0.2308  1.2114
  567MOL0     H76528   4.116   2.261   2.635 -0.1727 -0.2901 -0.7319
  567MOL0     H76529   3.911   1.969   2.750  1.2362  2.5918 -1.9095
  567MOL0     H76530   3.834   1.718   2.831  0.5842 -1.9441 -0.3620
  567MOL0     H76531   5.400   1.801   2.883  0.6444  1.4254  1.1522
  567MOL0     H76532   5.586   1.894   2.761  1.0951 -0.0724  0.0548
  567MOL0     H76533   5.793   2.186   2.598 -1.3066  1.2739 -1.6988
  567MOL0     H76534   6.019   2.247   2.517 -1.2809 -2.2886  3.3121
  567MOL0     H76535   6.041   2.313   2.111 -0.1160 -1.1470  0.4375
  567MOL0     H76536   6.034   2.395   2.266 -1.1190 -1.1031  1.4260
  567MOL0     H76537   6.282   2.428   2.256  1.2719 -1.8938 -0.7112
  567MOL0     H76538   6.220   2.482   2.113 -0.4810  0.8564  0.7137
  567MOL0     H76539   6.265   2.272   1.995 -2.1143  0.4746  0.4866
  567MOL0     H76540   6.339   2.200   2.141 -0.7940 -0.6574 -2.1574
  567MOL0     H76541   6.524   2.284   2.045  0.2354  0.0739  0.2659
  567MOL0     H76542   6.500   2.413   2.136  3.0689 -3.1300 -0.2123
  567MOL0     H76543   6.461   2.563   1.735  1.0018 -0.0185  0.6294
  567MOL0     H76544   5.951   2.070   2.131  2.7966  3.3101 -0.2808
  567MOL0     H76545   5.723   1.984   2.230 -1.8081  2.8566  0.0470
  568MOL0     O76546   0.132   7.678   2.108  0.3794 -0.1572 -1.1917
  568MOL0     C76547   0.206   7.780   2.112  0.2142 -0.0381  0.7802
  568MOL0     O76548   0.166   7.911   2.105  0.8179 -0.3078 -0.4988
  568MOL0     C76549   0.038   7.942   2.108  0.4219 -0.1260 -0.0132
  568MOL0     C76550  -0.027   7.986   1.998  0.4151 -0.2898  0.0408
  568MOL0     C76551  -0.168   8.025   2.001 -0.0737  0.1214  0.4488
  568MOL0     C76552  -0.237   8.014   2.126 -0.1104 -0.0449  0.5544
  568MOL0     O76553  -0.376   8.038   2.132 -0.3516  0.4725  0.3217
  568MOL0     C76554  -0.446   8.117   2.036  0.1205 -0.6185 -0.2799
  568MOL0     C76555  -0.562   8.177   2.107  0.0957  0.3746 -0.4380
  568MOL0     C76556  -0.646   8.062   2.176  0.0768 -0.2289  0.1943
  568MOL0     C76557  -0.706   7.956   2.079  0.1243  1.0724 -0.2316
  568MOL0     C76558  -0.817   7.871   2.147 -1.1558  0.3142  0.5221
  568MOL0     C76559  -0.884   7.782   2.043 -0.1587 -0.1844  0.2806
  568MOL0     C76560  -1.018   7.734   2.087 -0.5240 -0.3964  0.5724
  568MOL0     C76561  -1.070   7.625   1.987  0.1664 -0.2671  0.1250
  568MOL0     N76562  -1.214   7.564   2.001 -0.4990 -0.1127  0.4637
  568MOL0     C76563  -1.244   7.459   2.084  0.1148  0.2449 -0.3105
  568MOL0     C76564  -1.382   7.454   2.080  0.1686  0.0275 -1.1458
  568MOL0     C76565  -1.489   7.363   2.141 -0.8238  0.0159  0.1984
  568MOL0     C76566  -1.630   7.430   2.142  0.3555  0.1211 -0.4285
  568MOL0     C76567  -1.731   7.308   2.152 -0.8667 -0.7544 -0.2204
  568MOL0     C76568  -1.747   7.253   2.297 -0.3906  0.6115  0.0865
  568MOL0     O76569  -1.627   7.187   2.349  0.3499  0.3667  0.4303
  568MOL0     C76570  -1.627   7.185   2.480  0.9611 -0.5612 -0.3107
  568MOL0     C76571  -1.529   7.260   2.545  0.1634  0.1369 -0.5792
  568MOL0     C76572  -1.543   7.276   2.682  0.2554 -0.1424 -0.1731
  568MOL0     C76573  -1.442   7.367   2.725 -0.5992 -0.9317 -0.7083
  568MOL0     C76574  -1.642   7.211   2.767  0.2739  0.2544  0.2439
  568MOL0     C76575  -1.657   7.216   2.917 -0.6701 -0.4051  0.3969
  568MOL0     O76576  -1.781   7.187   2.963  0.2823 -0.3749 -0.5186
  568MOL0     C76577  -1.797   7.171   3.101 -0.7573 -1.1648 -0.0507
  568MOL0     C76578  -1.812   7.275   3.195 -0.2237  0.3504 -0.0090
  568MOL0     C76579  -1.815   7.238   3.333 -0.3818 -0.0143 -0.8956
  568MOL0     C76580  -1.817   7.101   3.374 -0.4260  0.1985 -0.7660
  568MOL0     O76581  -1.811   7.069   3.510  0.1554 -0.1715  0.0376
  568MOL0     C76582  -1.682   7.002   3.554  0.1483  0.4086  0.1804
  568MOL0     C76583  -1.603   7.091   3.642 -0.2201  0.0569 -0.6699
  568MOL0     C76584  -1.560   7.235   3.600  0.5065 -1.1141  0.1905
  568MOL0     C76585  -1.477   7.218   3.482 -0.1313 -0.4115  0.2649
  568MOL0     C76586  -1.425   7.340   3.421  0.0685  0.9321 -0.2498
  568MOL0     C76587  -1.364   7.318   3.277  0.6134 -0.2948 -0.3786
  568MOL0     C76588  -1.309   7.440   3.213  0.4911 -0.2426 -0.5229
  568MOL0     C76589  -1.417   7.542   3.170 -0.1690  0.4428 -0.0238
  568MOL0    Cl76590  -1.381   7.694   3.228 -0.1302 -0.4611 -0.7325
  568MOL0     C76591  -1.820   7.003   3.275 -0.3551 -0.2857 -0.1833
  568MOL0     C76592  -1.803   7.039   3.143  0.7388 -0.5265  0.5032
  568MOL0     O76593  -1.561   7.248   2.990 -0.6287  0.1345  0.1498
  568MOL0     C76594  -1.734   7.125   2.694 -0.1785 -0.7099 -1.0434
  568MOL0     C76595  -1.729   7.124   2.553  0.5712  0.0834  0.2495
  568MOL0     N76596  -1.420   7.538   1.978  0.3395  0.4693  1.0517
  568MOL0     N76597  -1.329   7.613   1.948  0.1120 -0.0468 -0.2643
  568MOL0     C76598  -0.160   7.968   2.233 -0.6889  0.0222  0.0301
  568MOL0     C76599  -0.025   7.939   2.227  0.4910  1.0312 -0.2955
  568MOL0     C76600   0.356   7.764   2.083  0.2224  0.5779  0.2978
  568MOL0     C76601   0.415   7.654   2.017  0.3239  0.3637 -0.1334
  568MOL0     C76602   0.555   7.647   1.976 -0.2035  0.9816 -0.2258
  568MOL0     C76603   0.632   7.766   1.996 -0.9555 -0.3483 -0.5353
  568MOL0     O76604   0.771   7.755   1.970  0.4004  0.5519  0.1771
  568MOL0     C76605   0.854   7.865   1.921  0.5487  0.8043  0.5190
  568MOL0     C76606   0.994   7.815   1.878  0.1854  1.0331 -0.6612
  568MOL0     C76607   1.070   7.740   1.990  0.6552  0.0510 -0.2023
  568MOL0     C76608   1.164   7.625   1.941 -0.6427 -0.0828 -0.0262
  568MOL0     C76609   1.246   7.568   2.047 -0.8869  0.5172  0.8524
  568MOL0     C76610   1.320   7.524   2.133 -0.2823 -0.1721 -0.5173
  568MOL0     C76611   0.576   7.869   2.063  0.2529 -0.3734  0.7666
  568MOL0     C76612   0.442   7.866   2.112 -0.6609  0.0541 -0.0683
  568MOL0     H76613   0.016   7.981   1.899 -0.8467 -1.5627 -0.4815
  568MOL0     H76614  -0.222   8.059   1.913 -0.0511 -2.0001 -0.4416
  568MOL0     H76615  -0.385   8.187   1.978 -1.5333 -0.5233 -1.9801
  568MOL0     H76616  -0.478   8.044   1.961  0.6769  0.3440 -1.4903
  568MOL0     H76617  -0.529   8.239   2.191  0.5981 -1.2943  0.6280
  568MOL0     H76618  -0.617   8.237   2.034  0.8580 -3.4372 -4.5878
  568MOL0     H76619  -0.589   8.019   2.259 -3.2514 -0.8061  2.4028
  568MOL0     H76620  -0.728   8.113   2.227  0.4907  0.6713 -0.0169
  568MOL0     H76621  -0.737   8.008   1.988 -0.7921 -2.0399 -1.8284
  568MOL0     H76622  -0.631   7.885   2.043 -1.2394 -1.7945  2.1946
  568MOL0     H76623  -0.774   7.807   2.225  2.2077  1.0375 -0.5818
  568MOL0     H76624  -0.889   7.940   2.191 -1.8391  0.1199 -0.2589
  568MOL0     H76625  -0.900   7.815   1.940 -0.2548 -1.6466 -0.1974
  568MOL0     H76626  -0.809   7.703   2.040  2.7473  2.3591  1.0585
  568MOL0     H76627  -1.012   7.686   2.184  0.4284 -3.7571 -1.0167
  568MOL0     H76628  -1.096   7.811   2.084 -0.5898 -0.4883 -0.9240
  568MOL0     H76629  -1.000   7.542   1.995  0.6559 -0.0097 -1.1858
  568MOL0     H76630  -1.067   7.668   1.886 -1.5878 -1.2446 -0.3959
  568MOL0     H76631  -1.175   7.396   2.140 -0.0902 -0.8874 -1.2857
  568MOL0     H76632  -1.483   7.278   2.073  2.4574  2.8426 -3.5020
  568MOL0     H76633  -1.447   7.332   2.237  2.4050  3.0137 -0.0746
  568MOL0     H76634  -1.661   7.487   2.054  0.4297 -1.1617 -1.3144
  568MOL0     H76635  -1.646   7.490   2.232  1.2537 -1.2751  0.7194
  568MOL0     H76636  -1.697   7.225   2.090  4.9815  0.8432  0.3023
  568MOL0     H76637  -1.823   7.346   2.107  0.0400 -0.0416 -1.5120
  568MOL0     H76638  -1.830   7.183   2.294 -1.5646  1.9981 -0.5264
  568MOL0     H76639  -1.769   7.334   2.368 -0.9659 -1.6102  2.6317
  568MOL0     H76640  -1.456   7.309   2.481  1.6913 -1.3383 -0.0425
  568MOL0     H76641  -1.364   7.367   2.648 -1.1407 -1.2844 -1.2749
  568MOL0     H76642  -1.479   7.469   2.735 -1.0122 -1.1063 -0.4304
  568MOL0     H76643  -1.397   7.340   2.821 -1.3307  2.5176  0.7401
  568MOL0     H76644  -1.824   7.376   3.159 -1.0288  1.2050  2.4810
  568MOL0     H76645  -1.826   7.305   3.417 -0.5173 -1.5220  0.3297
  568MOL0     H76646  -1.705   6.904   3.596 -3.3664  1.6713  1.6096
  568MOL0     H76647  -1.613   6.989   3.470  1.9924 -0.2933  1.7204
  568MOL0     H76648  -1.660   7.100   3.735  0.5304 -1.4143 -0.0370
  568MOL0     H76649  -1.511   7.034   3.659  1.6565  3.0869  0.2260
  568MOL0     H76650  -1.507   7.275   3.688  0.7773 -0.1495 -0.3978
  568MOL0     H76651  -1.643   7.302   3.576  2.1755  0.8267 -0.4271
  568MOL0     H76652  -1.406   7.136   3.497 -0.9195 -0.7342  2.6976
  568MOL0     H76653  -1.536   7.175   3.401 -1.7844 -1.0192  1.7414
  568MOL0     H76654  -1.342   7.381   3.479 -2.0248  1.7667  2.3917
  568MOL0     H76655  -1.511   7.408   3.422 -0.2095  0.6787 -2.2526
  568MOL0     H76656  -1.283   7.245   3.270 -0.6456 -1.7224 -0.5278
  568MOL0     H76657  -1.443   7.278   3.213 -1.3659 -0.3539  1.9731
  568MOL0     H76658  -1.264   7.413   3.117  0.0878 -0.7227 -0.5782
  568MOL0     H76659  -1.239   7.486   3.283 -3.3368  0.6186  3.2035
  568MOL0     H76660  -1.515   7.514   3.209  0.4541 -0.4992  0.8959
  568MOL0     H76661  -1.417   7.540   3.060  3.0727 -2.7183 -0.1488
  568MOL0     H76662  -1.829   6.899   3.307  0.0466 -0.1545  0.3680
  568MOL0     H76663  -1.801   6.961   3.068  0.7839 -0.2850  0.2523
  568MOL0     H76664  -1.813   7.073   2.747 -3.0865  0.7414 -3.6068
  568MOL0     H76665  -1.801   7.070   2.493  4.8893 -2.0797 -3.6329
  568MOL0     H76666  -0.206   7.952   2.330 -0.8095  0.5270  0.0610
  568MOL0     H76667   0.026   7.922   2.322 -1.4448 -0.9473  0.4931
  568MOL0     H76668   0.355   7.565   2.000  1.2568 -0.4837  0.8520
  568MOL0     H76669   0.603   7.556   1.942 -1.0086  0.5948 -0.3452
  568MOL0     H76670   0.800   7.931   1.852  0.0944  1.4384  1.4599
  568MOL0     H76671   0.864   7.927   2.011  2.3958 -0.3086  1.1344
  568MOL0     H76672   1.054   7.906   1.869  0.1635  1.4434  2.4323
  568MOL0     H76673   0.990   7.757   1.785  3.2478 -1.1556  0.4060
  568MOL0     H76674   0.996   7.700   2.060 -0.1670  0.7166 -0.6654
  568MOL0     H76675   1.125   7.815   2.047  0.0481 -0.3072  0.8917
  568MOL0     H76676   1.235   7.650   1.861 -1.6424 -0.1055 -0.9363
  568MOL0     H76677   1.104   7.539   1.910 -0.7660 -0.1899  0.4998
  568MOL0     H76678   1.380   7.482   2.211 -0.2370  1.7047  0.5224
  568MOL0     H76679   0.636   7.959   2.058 -1.9220  1.0776 -1.6029
  568MOL0     H76680   0.393   7.941   2.173 -1.8957 -1.7316  1.2188
  569MOL0     O76681   2.160   1.496   5.528 -0.1858  0.0727  0.9740
  569MOL0     C76682   2.147   1.609   5.474  0.1958  0.8580  0.0573
  569MOL0     O76683   2.116   1.633   5.340 -0.3952  0.2523  0.5239
  569MOL0     C76684   2.154   1.535   5.241  0.0429 -0.2080  0.1720
  569MOL0     C76685   2.228   1.416   5.264 -0.2804 -0.1095  0.5697
  569MOL0     C76686   2.248   1.337   5.149 -0.0711  0.3978  0.4031
  569MOL0     C76687   2.198   1.370   5.021 -0.0944 -0.2179 -0.7336
  569MOL0     O76688   2.241   1.284   4.921  0.5171 -0.4389 -0.0883
  569MOL0     C76689   2.142   1.203   4.849 -0.2523  0.1762  0.2399
  569MOL0     C76690   2.196   1.110   4.742  0.3121  0.2962  0.9439
  569MOL0     C76691   2.078   1.067   4.650 -0.7741  0.3698 -0.6846
  569MOL0     C76692   2.127   0.959   4.539  0.2915 -0.2957  0.6807
  569MOL0     C76693   2.235   1.009   4.438  0.2973  0.0120 -0.3064
  569MOL0     C76694   2.169   1.110   4.339 -0.2110 -0.1554 -0.3564
  569MOL0     C76695   2.269   1.183   4.258 -0.6605  0.1409  0.2111
  569MOL0     C76696   2.312   1.332   4.318  0.0173  0.2185 -0.8295
  569MOL0     N76697   2.201   1.433   4.315 -0.3181 -0.3031 -0.2410
  569MOL0     C76698   2.219   1.573   4.324 -0.6743 -0.5320 -0.3722
  569MOL0     C76699   2.105   1.630   4.283  0.1330  0.0978 -0.3570
  569MOL0     C76700   2.071   1.774   4.297  0.1347 -0.1644  0.6459
  569MOL0     C76701   2.033   1.793   4.445 -0.1309 -0.0018 -0.7457
  569MOL0     C76702   2.040   1.946   4.488  0.5296  0.1755  1.3294
  569MOL0     C76703   2.031   1.961   4.639 -0.2688 -0.0487  0.8322
  569MOL0     O76704   2.030   2.102   4.671  0.2965  0.1335 -0.2880
  569MOL0     C76705   2.059   2.149   4.791 -0.3665 -0.2821 -0.5310
  569MOL0     C76706   2.090   2.285   4.821 -0.2676  0.2692  1.2579
  569MOL0     C76707   2.128   2.326   4.944  1.0832 -0.2511  0.6044
  569MOL0     C76708   2.171   2.465   4.958  1.6501 -0.2256  0.3759
  569MOL0     C76709   2.132   2.233   5.054 -0.1321 -0.6785 -0.3726
  569MOL0     C76710   2.178   2.269   5.190  0.2336  0.7575  0.6090
  569MOL0     O76711   2.304   2.321   5.192 -0.2327 -1.2340 -0.7715
  569MOL0     C76712   2.373   2.348   5.302  0.1025  0.8074 -0.7105
  569MOL0     C76713   2.508   2.314   5.297  0.4989 -0.6104 -0.3135
  569MOL0     C76714   2.596   2.354   5.400  1.1013 -0.0277  0.5637
  569MOL0     C76715   2.552   2.417   5.519  0.0571  0.4610 -0.2629
  569MOL0     O76716   2.616   2.438   5.645  0.6257 -0.1067 -0.1962
  569MOL0     C76717   2.755   2.444   5.638  0.7816  0.2594 -0.2258
  569MOL0     C76718   2.793   2.466   5.783  0.3876  0.2801 -0.1395
  569MOL0     C76719   2.766   2.612   5.846  0.7496  0.4064  0.0594
  569MOL0     C76720   2.744   2.591   5.996 -0.2027 -0.0494 -0.9220
  569MOL0     C76721   2.707   2.722   6.061 -0.3448 -0.1462 -0.2104
  569MOL0     C76722   2.827   2.806   6.104 -0.2250 -0.1930 -0.5801
  569MOL0     C76723   2.803   2.921   6.199  0.2356 -0.1625 -0.8606
  569MOL0     C76724   2.711   3.027   6.136 -0.0489  0.4871 -0.8405
  569MOL0    Cl76725   2.666   3.151   6.244 -0.7395 -0.2092  0.1719
  569MOL0     C76726   2.413   2.450   5.518  0.0270  0.7179 -0.2870
  569MOL0     C76727   2.320   2.410   5.418 -0.4475 -1.0991  0.6955
  569MOL0     O76728   2.112   2.227   5.291  0.0802 -0.1359 -0.4390
  569MOL0     C76729   2.086   2.104   5.035 -0.1236  0.1963  0.2699
  569MOL0     C76730   2.057   2.058   4.906 -0.4162 -0.0927 -0.1197
  569MOL0     N76731   2.018   1.526   4.241  0.0830  0.2605  0.0683
  569MOL0     N76732   2.076   1.410   4.262  0.0652 -0.3908 -1.0454
  569MOL0     C76733   2.123   1.484   5.002  0.0685  0.2016  0.2639
  569MOL0     C76734   2.104   1.570   5.110  1.4532  0.4275 -0.6046
  569MOL0     C76735   2.128   1.729   5.570  0.0273  0.2583 -0.8411
  569MOL0     C76736   2.120   1.706   5.708 -0.5774  0.1910 -1.1485
  569MOL0     C76737   2.124   1.810   5.799 -0.1620 -0.3298 -0.5777
  569MOL0     C76738   2.112   1.942   5.756 -0.1730  0.4061  0.4510
  569MOL0     O76739   2.108   2.053   5.839  0.1184 -0.3355  0.3663
  569MOL0     C76740   2.079   2.022   5.977  0.5918 -0.9857 -0.0533
  569MOL0     C76741   2.054   2.147   6.060  0.2188 -0.3573 -0.4303
  569MOL0     C76742   2.183   2.216   6.097  0.6012  0.0265 -0.0982
  569MOL0     C76743   2.156   2.337   6.192 -0.2178  0.5904  0.5280
  569MOL0     C76744   2.259   2.443   6.189  0.6850  1.3761  1.4110
  569MOL0     C76745   2.340   2.531   6.173 -0.3787 -0.4424 -0.8666
  569MOL0     C76746   2.106   1.972   5.620 -0.1327 -0.2045 -0.4512
  569MOL0     C76747   2.107   1.862   5.527  0.1123  0.4468  0.6129
  569MOL0     H76748   2.265   1.375   5.357  1.7003 -0.2832 -0.2336
  569MOL0     H76749   2.300   1.242   5.143  0.2714  0.5670  0.6930
  569MOL0     H76750   2.092   1.151   4.930  1.9245 -0.2370  1.3988
  569MOL0     H76751   2.075   1.269   4.794 -0.0783 -0.9284 -1.3907
  569MOL0     H76752   2.266   1.172   4.687 -0.2403  1.9041  1.9913
  569MOL0     H76753   2.242   1.019   4.781 -0.2369 -0.5934 -0.4060
  569MOL0     H76754   2.005   1.018   4.715 -0.6367  0.7235 -0.2589
  569MOL0     H76755   2.033   1.153   4.600 -0.2748  1.6694  1.0002
  569MOL0     H76756   2.155   0.864   4.585 -1.8158 -0.6925  1.2658
  569MOL0     H76757   2.040   0.924   4.482 -0.2465 -1.0115  1.9001
  569MOL0     H76758   2.315   1.057   4.494  2.0767  0.2299 -2.8721
  569MOL0     H76759   2.276   0.921   4.388  0.6005  0.4171 -0.7796
  569MOL0     H76760   2.101   1.056   4.274  0.2255  1.5597 -2.3245
  569MOL0     H76761   2.106   1.177   4.398  1.0340 -0.3166  1.2451
  569MOL0     H76762   2.358   1.121   4.241  1.0668  2.1754  1.3587
  569MOL0     H76763   2.236   1.207   4.157  0.1689  0.0116 -0.1047
  569MOL0     H76764   2.396   1.362   4.254  1.8147 -3.3746 -0.4386
  569MOL0     H76765   2.350   1.331   4.421 -0.5468  0.7482 -0.6103
  569MOL0     H76766   2.303   1.624   4.369 -1.6436  1.6361 -0.8857
  569MOL0     H76767   2.159   1.834   4.274 -0.8893  0.7517 -1.1211
  569MOL0     H76768   1.988   1.800   4.230  1.7659  0.8002 -1.0907
  569MOL0     H76769   2.099   1.737   4.512 -1.6691 -0.6801  0.2610
  569MOL0     H76770   1.932   1.751   4.451  0.0525 -0.4695  5.9127
  569MOL0     H76771   1.951   1.983   4.437  1.4195  0.9067  0.2434
  569MOL0     H76772   2.124   2.009   4.455 -0.3146 -0.8146 -3.4328
  569MOL0     H76773   2.109   1.896   4.680  0.2364 -0.4573 -0.7115
  569MOL0     H76774   1.942   1.911   4.679 -0.8241  0.8531  0.7418
  569MOL0     H76775   2.073   2.360   4.743 -1.3618 -2.6740 -1.5480
  569MOL0     H76776   2.106   2.492   5.042  0.0300 -2.4092 -0.0908
  569MOL0     H76777   2.278   2.483   4.969  1.3077  1.1249  1.9519
  569MOL0     H76778   2.123   2.529   4.883  1.0718 -0.0319  0.9018
  569MOL0     H76779   2.566   2.280   5.212  0.2235 -0.7299 -0.4545
  569MOL0     H76780   2.697   2.320   5.377  0.1542 -0.9978 -2.6942
  569MOL0     H76781   2.791   2.343   5.614 -1.1750 -0.1065 -1.9602
  569MOL0     H76782   2.789   2.524   5.572  4.0356  0.2825  1.3150
  569MOL0     H76783   2.727   2.402   5.842  2.6369  1.5213  4.1504
  569MOL0     H76784   2.898   2.440   5.800 -0.1962 -3.6269 -1.4708
  569MOL0     H76785   2.680   2.663   5.801  0.8051  1.7187  1.3733
  569MOL0     H76786   2.850   2.678   5.822  0.6554  0.7798  0.7481
  569MOL0     H76787   2.654   2.530   6.009 -0.2686  0.2310  0.0725
  569MOL0     H76788   2.828   2.541   6.044 -1.8854  0.3772  2.8795
  569MOL0     H76789   2.655   2.693   6.153 -2.1023 -1.7128 -1.6512
  569MOL0     H76790   2.646   2.784   5.996 -0.4052 -2.0994 -2.1241
  569MOL0     H76791   2.902   2.742   6.152 -3.4903 -0.5260  5.0244
  569MOL0     H76792   2.860   2.854   6.012  0.0026  1.4400  0.3193
  569MOL0     H76793   2.900   2.968   6.218  0.2733 -1.0555  1.4866
  569MOL0     H76794   2.774   2.888   6.299  0.0962 -3.0492 -1.7673
  569MOL0     H76795   2.615   2.975   6.125  0.8403 -0.7271 -3.7663
  569MOL0     H76796   2.732   3.065   6.036 -1.6915 -2.4361 -2.4296
  569MOL0     H76797   2.364   2.493   5.605 -1.6034 -1.8140  0.1422
  569MOL0     H76798   2.217   2.441   5.433 -0.2396 -0.1691  0.2593
  569MOL0     H76799   2.090   2.038   5.121  1.7699  0.7968  0.7021
  569MOL0     H76800   2.030   1.956   4.882 -4.7316  1.1419 -1.5425
  569MOL0     H76801   2.070   1.512   4.912 -0.4670  1.3644  0.9182
  569MOL0     H76802   2.034   1.653   5.114 -2.3674 -2.5320  0.3915
  569MOL0     H76803   2.126   1.603   5.742 -1.0064  0.3112 -0.7007
  569MOL0     H76804   2.140   1.788   5.904  0.3573  0.5408 -0.4711
  569MOL0     H76805   1.994   1.955   5.993  2.2386 -3.4876 -1.2963
  569MOL0     H76806   2.162   1.973   6.027 -0.4518 -3.0257 -0.2191
  569MOL0     H76807   2.003   2.105   6.148  0.9610 -0.9831 -0.2874
  569MOL0     H76808   1.982   2.219   6.021  2.1462  2.4423  0.8840
  569MOL0     H76809   2.226   2.247   6.002  1.4324  1.1719  0.6334
  569MOL0     H76810   2.245   2.145   6.154 -2.7923  0.3102  4.5605
  569MOL0     H76811   2.149   2.295   6.292  0.5385  0.5065  0.5509
  569MOL0     H76812   2.061   2.387   6.170 -0.0837  1.0971  1.0750
  569MOL0     H76813   2.405   2.617   6.170  1.9552 -1.9423  1.8357
  569MOL0     H76814   2.102   2.073   5.580 -2.2321 -0.4622 -1.0062
  569MOL0     H76815   2.118   1.878   5.420  1.3376 -2.8234  0.1325
  570MOL0     O76816   3.543   1.477   8.594 -0.1242 -0.4690 -0.0628
  570MOL0     C76817   3.474   1.536   8.679  0.6390 -0.3164 -0.0640
  570MOL0     O76818   3.336   1.565   8.672 -0.2661 -0.3124  0.1579
  570MOL0     C76819   3.268   1.524   8.559 -0.3610 -0.5916  0.4591
  570MOL0     C76820   3.195   1.408   8.555 -0.0764 -0.3885  0.6241
  570MOL0     C76821   3.132   1.360   8.435 -0.8897  0.4095 -0.4850
  570MOL0     C76822   3.140   1.430   8.321 -0.5138  0.1925  0.7297
  570MOL0     O76823   3.103   1.395   8.192  0.1436 -1.2003  0.4059
  570MOL0     C76824   2.979   1.327   8.187 -1.0435  0.2430  0.5724
  570MOL0     C76825   2.995   1.229   8.076 -0.8044  0.0362 -0.9976
  570MOL0     C76826   2.969   1.281   7.937 -0.0457 -0.7531  0.5959
  570MOL0     C76827   2.969   1.174   7.831  0.1117 -0.2879  0.4398
  570MOL0     C76828   2.844   1.086   7.841 -0.6552 -0.1320 -0.3749
  570MOL0     C76829   2.807   1.013   7.714 -0.3334 -0.0566  0.4653
  570MOL0     C76830   2.659   0.964   7.706 -0.3041  0.5144 -0.6995
  570MOL0     C76831   2.569   1.067   7.645 -0.3339 -0.3425  0.2888
  570MOL0     N76832   2.572   1.196   7.718  0.7464  0.6538  0.5233
  570MOL0     C76833   2.513   1.216   7.843 -0.7766  0.0501 -0.5144
  570MOL0     C76834   2.531   1.339   7.883 -0.4806  0.4464  0.9369
  570MOL0     C76835   2.477   1.398   8.018  0.4003 -0.0365  0.6626
  570MOL0     C76836   2.335   1.368   8.032 -0.3831  0.0516  0.4931
  570MOL0     C76837   2.271   1.441   8.146 -0.6961  0.5975 -0.8455
  570MOL0     C76838   2.140   1.375   8.192 -0.9486 -0.0622 -1.6171
  570MOL0     O76839   2.045   1.358   8.082  0.1809  0.0016  0.9541
  570MOL0     C76840   1.974   1.466   8.046  0.1109 -0.6909  0.5329
  570MOL0     C76841   2.029   1.559   7.970 -0.1882 -0.1624  0.8434
  570MOL0     C76842   1.957   1.679   7.940 -0.8153  1.0749 -0.0984
  570MOL0     C76843   2.047   1.776   7.871  0.2129 -0.3050  0.5269
  570MOL0     C76844   1.820   1.698   7.981 -0.6653  0.3842 -0.3649
  570MOL0     C76845   1.731   1.804   7.928 -0.8772  0.4256 -0.5253
  570MOL0     O76846   1.601   1.778   7.939 -0.5062  0.4972  0.7555
  570MOL0     C76847   1.508   1.875   7.978 -0.9477 -0.1413 -1.2327
  570MOL0     C76848   1.530   1.950   8.093 -0.3154 -0.7170 -0.3929
  570MOL0     C76849   1.444   2.056   8.133 -0.2647  0.4286  0.0187
  570MOL0     C76850   1.326   2.076   8.061  0.1584  0.8174 -0.2555
  570MOL0     O76851   1.257   2.192   8.106  0.2811 -0.0334  0.6279
  570MOL0     C76852   1.141   2.229   8.019  0.2193  0.3838  0.2228
  570MOL0     C76853   1.196   2.324   7.910  0.2782  0.7965  0.7159
  570MOL0     C76854   1.209   2.476   7.951  0.2384 -0.0676  0.1306
  570MOL0     C76855   1.270   2.560   7.840  0.3999 -0.1071  0.0292
  570MOL0     C76856   1.270   2.701   7.895 -0.5773  0.1271 -0.5795
  570MOL0     C76857   1.348   2.790   7.800  0.2203  0.1076  0.1286
  570MOL0     C76858   1.246   2.850   7.694  0.2510  0.7547 -0.2777
  570MOL0     C76859   1.324   2.905   7.568  0.1350  0.1392  0.3517
  570MOL0    Cl76860   1.433   3.043   7.619 -0.0513  0.1891  0.2710
  570MOL0     C76861   1.296   1.979   7.956  0.0739 -1.2146  0.4371
  570MOL0     C76862   1.382   1.885   7.918 -0.6545 -0.0957  0.2152
  570MOL0     O76863   1.779   1.916   7.913  0.4266  0.1385  0.5164
  570MOL0     C76864   1.770   1.598   8.058  0.5520  0.0810  0.3158
  570MOL0     C76865   1.847   1.490   8.099 -1.4341  0.2605 -0.0018
  570MOL0     N76866   2.597   1.400   7.780 -1.5825 -0.8709  0.2687
  570MOL0     N76867   2.619   1.321   7.685 -0.3783 -0.0604  0.9855
  570MOL0     C76868   3.217   1.549   8.322 -0.2313  0.6141 -0.7220
  570MOL0     C76869   3.280   1.597   8.436 -0.4383 -0.2592 -0.5556
  570MOL0     C76870   3.535   1.556   8.804  0.7688 -0.3095  0.7550
  570MOL0     C76871   3.501   1.665   8.892 -0.0936 -0.1825  0.8564
  570MOL0     C76872   3.545   1.677   9.023  0.1107  0.0762  0.5810
  570MOL0     C76873   3.634   1.578   9.067 -0.1643 -0.6446  0.2524
  570MOL0     O76874   3.682   1.591   9.198 -0.3175  0.4126  0.7054
  570MOL0     C76875   3.809   1.651   9.211  0.7129  0.5502 -0.6180
  570MOL0     C76876   3.797   1.802   9.249 -0.8646  0.1166  0.2516
  570MOL0     C76877   3.913   1.844   9.347  0.4096 -0.5069 -0.0285
  570MOL0     C76878   3.936   1.992   9.346  0.2526 -0.6157  0.0202
  570MOL0     C76879   4.042   2.028   9.437  0.7955  0.2214  0.7444
  570MOL0     C76880   4.102   2.086   9.522  0.2914  0.5354  0.1891
  570MOL0     C76881   3.687   1.477   8.980  0.5861  0.0683 -0.0478
  570MOL0     C76882   3.638   1.466   8.845  0.0316  0.4548  0.2358
  570MOL0     H76883   3.189   1.354   8.649  0.8171  0.2851  1.0882
  570MOL0     H76884   3.074   1.269   8.426 -2.2555  1.2670 -0.7320
  570MOL0     H76885   2.940   1.274   8.274 -0.0211  0.1986  1.0182
  570MOL0     H76886   2.889   1.387   8.168 -0.4920  0.9852  0.2828
  570MOL0     H76887   3.105   1.226   8.070 -0.4322  0.1898  3.2704
  570MOL0     H76888   2.940   1.136   8.092  0.6559 -1.1802 -2.5924
  570MOL0     H76889   2.876   1.338   7.937 -0.5644 -1.5429  1.8995
  570MOL0     H76890   3.044   1.355   7.907 -2.3864  0.7104 -2.1426
  570MOL0     H76891   2.953   1.223   7.734 -2.7706 -0.3113  0.8011
  570MOL0     H76892   3.055   1.107   7.828 -0.7119 -1.4281  1.3931
  570MOL0     H76893   2.865   1.011   7.917  0.3115 -1.7312 -2.1192
  570MOL0     H76894   2.760   1.155   7.857  0.5183  2.0998 -2.9566
  570MOL0     H76895   2.836   1.070   7.626 -0.4101 -1.6932 -0.6524
  570MOL0     H76896   2.877   0.929   7.711 -1.8524 -1.5368  2.9149
  570MOL0     H76897   2.644   0.889   7.628  2.9677 -0.1290 -0.8393
  570MOL0     H76898   2.620   0.928   7.802 -2.1279 -3.1915 -2.5971
  570MOL0     H76899   2.466   1.034   7.632 -0.4416  0.8868 -2.9228
  570MOL0     H76900   2.601   1.093   7.544 -1.1275  0.8249  0.3196
  570MOL0     H76901   2.472   1.145   7.914 -2.6290 -1.3349 -2.8078
  570MOL0     H76902   2.533   1.354   8.101 -1.5061 -0.9435  1.5314
  570MOL0     H76903   2.496   1.505   8.008 -0.9149  0.0892 -0.8021
  570MOL0     H76904   2.328   1.259   8.039  0.4647  0.0418  1.4562
  570MOL0     H76905   2.278   1.404   7.946 -0.0054 -0.4878  0.0136
  570MOL0     H76906   2.249   1.543   8.115 -0.8116  0.1827 -2.2215
  570MOL0     H76907   2.339   1.447   8.231  2.7225 -0.6727 -3.2818
  570MOL0     H76908   2.093   1.428   8.275  1.0235 -2.1156  1.0041
  570MOL0     H76909   2.161   1.275   8.232 -3.4454 -1.1464 -2.7840
  570MOL0     H76910   2.129   1.553   7.929 -1.2893  1.6257 -2.5025
  570MOL0     H76911   2.086   1.725   7.782  2.4628  2.4198 -0.1882
  570MOL0     H76912   1.988   1.861   7.834 -1.2253 -1.6156 -0.3234
  570MOL0     H76913   2.134   1.801   7.933 -1.3836  1.8938  2.0616
  570MOL0     H76914   1.628   1.947   8.141  0.3281 -1.2929 -1.6828
  570MOL0     H76915   1.485   2.131   8.200  1.0354 -1.2081  1.1466
  570MOL0     H76916   1.080   2.150   7.974 -1.2599  1.3618  0.4413
  570MOL0     H76917   1.076   2.284   8.087  0.0659  2.1791 -1.2782
  570MOL0     H76918   1.297   2.293   7.881  0.8929  3.3600 -0.1885
  570MOL0     H76919   1.129   2.327   7.824 -0.4094  3.5948  1.2397
  570MOL0     H76920   1.268   2.481   8.043  0.1553  0.2217  0.1671
  570MOL0     H76921   1.105   2.506   7.964 -0.8931 -2.4749 -2.3349
  570MOL0     H76922   1.369   2.521   7.817 -0.9949 -5.4210  1.6265
  570MOL0     H76923   1.205   2.550   7.753  0.0151 -1.6395  0.4678
  570MOL0     H76924   1.317   2.700   7.993  2.1791  0.0924 -1.8279
  570MOL0     H76925   1.169   2.736   7.919 -0.2152 -0.3992  1.9392
  570MOL0     H76926   1.397   2.872   7.854 -3.1922  2.9143 -0.6131
  570MOL0     H76927   1.427   2.734   7.750 -1.6057 -1.7763 -0.8017
  570MOL0     H76928   1.185   2.930   7.737  1.8318  1.9899 -0.2483
  570MOL0     H76929   1.183   2.767   7.660  1.7401 -1.3327  1.8131
  570MOL0     H76930   1.257   2.951   7.495  1.5575  0.7784 -0.6210
  570MOL0     H76931   1.370   2.825   7.509 -1.1607  0.1462 -0.7158
  570MOL0     H76932   1.199   1.958   7.911  0.5043 -0.9342 -0.6324
  570MOL0     H76933   1.354   1.807   7.848 -0.3858 -0.6834  0.7496
  570MOL0     H76934   1.664   1.608   8.079  0.4289  0.7079 -0.5826
  570MOL0     H76935   1.796   1.408   8.149 -0.2756 -1.4408 -1.4877
  570MOL0     H76936   3.216   1.614   8.235 -1.2242 -0.3673 -1.4699
  570MOL0     H76937   3.335   1.691   8.435 -0.4676 -0.2523 -1.4621
  570MOL0     H76938   3.424   1.735   8.860  0.0694  0.0489  0.9669
  570MOL0     H76939   3.537   1.769   9.080 -0.4479 -0.7379  1.8629
  570MOL0     H76940   3.866   1.603   9.290 -2.0915  1.3406  2.0724
  570MOL0     H76941   3.859   1.622   9.118 -3.0875  0.2804 -2.7859
  570MOL0     H76942   3.703   1.828   9.298 -1.0772 -0.9252  0.4033
  570MOL0     H76943   3.812   1.864   9.160  1.3167  1.0100  1.1597
  570MOL0     H76944   4.008   1.792   9.331  0.0004 -1.8751  1.7909
  570MOL0     H76945   3.884   1.804   9.444 -0.0860  0.0198  0.0447
  570MOL0     H76946   3.841   2.042   9.369  1.3712  2.2107 -1.1100
  570MOL0     H76947   3.963   2.025   9.246 -5.1157 -1.2109 -1.9559
  570MOL0     H76948   4.142   2.129   9.611  1.6413 -0.1192 -0.0783
  570MOL0     H76949   3.771   1.417   9.011 -0.0725 -0.2258  1.1912
  570MOL0     H76950   3.691   1.388   8.790  2.6539  2.6095 -0.4861
  571MOL0     O76951   5.062   8.573   5.768 -0.6890 -0.0242  0.2438
  571MOL0     C76952   5.083   8.576   5.644 -0.3669  0.3271  0.0909
  571MOL0     O76953   5.207   8.601   5.582  0.2247 -0.1603  0.1179
  571MOL0     C76954   5.310   8.650   5.658  0.1998  0.4420  0.4422
  571MOL0     C76955   5.373   8.568   5.744  1.0677  0.0719 -0.7453
  571MOL0     C76956   5.464   8.620   5.830 -0.3462 -0.3179 -0.6067
  571MOL0     C76957   5.512   8.740   5.818  0.0810 -0.5218 -0.1495
  571MOL0     O76958   5.616   8.794   5.898  0.4735  0.2318 -0.8767
  571MOL0     C76959   5.677   8.720   6.000 -0.2336 -0.0970 -0.3423
  571MOL0     C76960   5.824   8.680   5.970 -0.2396 -1.2263  0.0865
  571MOL0     C76961   5.842   8.547   5.888 -0.0930 -0.1582 -0.0622
  571MOL0     C76962   5.989   8.499   5.874 -0.5275  0.0139 -1.4425
  571MOL0     C76963   5.997   8.362   5.791  0.7275 -0.3038 -0.3350
  571MOL0     C76964   6.145   8.317   5.778  0.7570  0.1013  0.5473
  571MOL0     C76965   6.173   8.212   5.672 -0.4129  0.9062 -0.8843
  571MOL0     C76966   6.333   8.196   5.645  0.7775  0.6688  0.3921
  571MOL0     N76967   6.362   8.086   5.547  0.0399  0.5636  0.0657
  571MOL0     C76968   6.430   8.111   5.431 -0.3418 -0.5665  0.7644
  571MOL0     C76969   6.484   7.995   5.400 -0.6598 -0.3322 -0.5795
  571MOL0     C76970   6.551   7.972   5.273 -0.1792  0.6731  0.5331
  571MOL0     C76971   6.700   7.935   5.280  0.4588  0.9355  0.0105
  571MOL0     C76972   6.737   7.819   5.372  0.0665 -0.4721 -0.1776
  571MOL0     C76973   6.675   7.684   5.349 -0.7733 -0.1615  0.6144
  571MOL0     O76974   6.712   7.625   5.224  0.0256 -0.1330 -0.3122
  571MOL0     C76975   6.669   7.500   5.184 -0.2100  0.4765  0.0990
  571MOL0     C76976   6.590   7.411   5.256  0.1850 -0.2168  0.5668
  571MOL0     C76977   6.566   7.286   5.198  0.3437  0.1535 -0.0156
  571MOL0     C76978   6.485   7.185   5.279  1.1207 -0.5133 -0.5173
  571MOL0     C76979   6.624   7.251   5.068 -0.5135  0.3605 -0.1324
  571MOL0     C76980   6.611   7.120   5.005 -1.0323  0.4634  0.5542
  571MOL0     O76981   6.695   7.090   4.903 -0.8026  0.3096  0.2903
  571MOL0     C76982   6.673   6.966   4.836  1.0636  0.8991 -0.6068
  571MOL0     C76983   6.671   6.837   4.896  0.6945  0.5094  0.1474
  571MOL0     C76984   6.648   6.715   4.828 -0.6569  0.1012 -0.3342
  571MOL0     C76985   6.644   6.718   4.685 -0.0648 -0.1725  0.0964
  571MOL0     O76986   6.637   6.600   4.613 -0.0070  0.2080 -0.0695
  571MOL0     C76987   6.663   6.607   4.466 -0.5051 -0.5167 -0.2998
  571MOL0     C76988   6.685   6.470   4.414  0.3441 -0.4995  0.4491
  571MOL0     C76989   6.811   6.420   4.469  0.4319 -1.0411  0.2629
  571MOL0     C76990   6.851   6.302   4.405  0.0457  0.8609 -0.0019
  571MOL0     C76991   6.988   6.256   4.450 -0.2681  0.2952 -0.3822
  571MOL0     C76992   7.022   6.129   4.391  1.0404  0.3253 -0.7297
  571MOL0     C76993   7.161   6.076   4.422 -0.0547  0.3977 -0.4012
  571MOL0     C76994   7.184   5.927   4.394 -0.4080  0.0631 -0.4523
  571MOL0    Cl76995   7.165   5.887   4.224 -0.1424  0.6156  0.3523
  571MOL0     C76996   6.645   6.844   4.630 -0.6458 -0.2761 -0.0398
  571MOL0     C76997   6.671   6.961   4.698 -0.1380  0.4104  0.3699
  571MOL0     O76998   6.513   7.045   5.031 -0.0727 -0.3891 -0.2101
  571MOL0     C76999   6.714   7.336   5.003 -0.7880 -0.3684 -0.6558
  571MOL0     C77000   6.733   7.463   5.070 -0.1611 -0.5735 -0.2043
  571MOL0     N77001   6.449   7.898   5.493  1.4813 -0.2145  0.8105
  571MOL0     N77002   6.375   7.962   5.586 -0.3227  0.4570 -0.5902
  571MOL0     C77003   5.448   8.822   5.730 -0.1734 -0.2773 -0.1654
  571MOL0     C77004   5.346   8.776   5.640 -0.1013 -0.9730  0.0344
  571MOL0     C77005   4.972   8.548   5.565  0.7760 -0.3351  0.7095
  571MOL0     C77006   4.982   8.579   5.427 -0.1399  0.0151  0.2678
  571MOL0     C77007   4.859   8.566   5.355  0.1840  0.6596 -0.0198
  571MOL0     C77008   4.739   8.513   5.408 -0.0404 -0.8446  0.1848
  571MOL0     O77009   4.648   8.494   5.304  0.5081  0.6804 -0.0194
  571MOL0     C77010   4.514   8.459   5.337  0.5706  0.1176 -0.2489
  571MOL0     C77011   4.440   8.579   5.414 -0.8168  0.2540 -0.7395
  571MOL0     C77012   4.294   8.552   5.452  0.6377  0.4175 -0.6511
  571MOL0     C77013   4.235   8.670   5.520 -0.1171  0.2176 -0.8529
  571MOL0     C77014   4.095   8.647   5.552  0.1289  1.1991 -0.2219
  571MOL0     C77015   3.976   8.635   5.591 -0.2716 -0.7829 -1.2220
  571MOL0     C77016   4.727   8.496   5.549  0.1144 -0.0825 -0.3091
  571MOL0     C77017   4.846   8.510   5.619  0.2644 -0.1151 -0.5218
  571MOL0     H77018   5.349   8.464   5.761  0.3174  0.5602  1.5307
  571MOL0     H77019   5.501   8.560   5.912  2.0819  2.8931  0.8628
  571MOL0     H77020   5.678   8.789   6.086 -1.4441 -1.0134  0.4340
  571MOL0     H77021   5.625   8.630   6.034 -1.2057  0.2355 -0.9223
  571MOL0     H77022   5.877   8.757   5.913  1.8562 -4.1192 -2.1897
  571MOL0     H77023   5.874   8.679   6.068 -0.7987 -1.0658  0.3770
  571MOL0     H77024   5.780   8.462   5.920  1.1105 -0.8625  0.4912
  571MOL0     H77025   5.801   8.584   5.793  2.2297  3.7921  0.2546
  571MOL0     H77026   6.060   8.570   5.829  3.2735 -2.1803  0.5628
  571MOL0     H77027   6.034   8.478   5.972 -2.7453 -1.5632 -0.6804
  571MOL0     H77028   5.945   8.284   5.847  2.1811 -0.0481  1.4478
  571MOL0     H77029   5.954   8.372   5.691  3.1334 -1.1363 -1.5373
  571MOL0     H77030   6.199   8.403   5.737 -2.1451  1.2746 -1.0904
  571MOL0     H77031   6.184   8.287   5.876 -0.1978 -1.0372  0.6059
  571MOL0     H77032   6.126   8.120   5.708 -1.4654  2.0055  0.6442
  571MOL0     H77033   6.123   8.246   5.581 -4.3244 -4.2616 -1.1649
  571MOL0     H77034   6.383   8.159   5.735  1.5741  2.0836  0.5723
  571MOL0     H77035   6.380   8.294   5.628  0.4808  0.8365  0.5221
  571MOL0     H77036   6.428   8.198   5.367  0.1521 -1.6646 -0.8261
  571MOL0     H77037   6.505   7.892   5.215 -2.2715  2.7903 -0.8972
  571MOL0     H77038   6.543   8.064   5.214 -3.4529  1.0749  1.4270
  571MOL0     H77039   6.770   8.018   5.286  1.1978  0.7159 -3.4566
  571MOL0     H77040   6.715   7.896   5.179  1.7553 -0.0425  0.5532
  571MOL0     H77041   6.724   7.846   5.477  3.7093  0.8550  0.0826
  571MOL0     H77042   6.847   7.816   5.370  0.2295 -3.0039  2.9927
  571MOL0     H77043   6.568   7.704   5.349 -0.4197  2.1629 -1.6878
  571MOL0     H77044   6.707   7.614   5.427 -0.6333 -0.0941  0.6177
  571MOL0     H77045   6.557   7.438   5.356  0.0058 -3.9404  1.6683
  571MOL0     H77046   6.381   7.181   5.244  2.0067 -0.7642 -3.3633
  571MOL0     H77047   6.518   7.083   5.261  1.7655 -0.2896 -0.6282
  571MOL0     H77048   6.474   7.204   5.386 -2.9023 -0.0774 -0.8656
  571MOL0     H77049   6.679   6.818   5.002  2.8999 -1.5579 -0.3000
  571MOL0     H77050   6.642   6.623   4.886  1.5394 -0.7376 -1.3509
  571MOL0     H77051   6.573   6.640   4.414 -0.6465 -0.0247  0.2424
  571MOL0     H77052   6.745   6.674   4.438  0.2954 -0.7428  1.4029
  571MOL0     H77053   6.602   6.408   4.449  0.3391  0.4611  2.2595
  571MOL0     H77054   6.696   6.466   4.306 -0.0484 -2.3654  0.4592
  571MOL0     H77055   6.807   6.398   4.576 -1.3353 -0.1023  0.4204
  571MOL0     H77056   6.888   6.497   4.467 -0.4480 -0.0946  1.4211
  571MOL0     H77057   6.778   6.226   4.434 -1.0069  2.8149  2.8290
  571MOL0     H77058   6.849   6.310   4.296 -0.7004  1.2242  0.0298
  571MOL0     H77059   6.979   6.251   4.559 -0.6904  3.8372 -0.1353
  571MOL0     H77060   7.064   6.327   4.418  1.0774 -1.0140 -0.2247
  571MOL0     H77061   6.944   6.071   4.442  2.0674 -0.4393 -0.0111
  571MOL0     H77062   6.999   6.127   4.283 -0.4950 -1.0470 -0.4187
  571MOL0     H77063   7.175   6.112   4.524 -0.5537  2.4281 -0.9999
  571MOL0     H77064   7.246   6.119   4.369 -0.8557  0.3639 -1.7622
  571MOL0     H77065   7.116   5.862   4.450 -0.1975  1.5193  1.5848
  571MOL0     H77066   7.277   5.888   4.436 -0.4538  2.2813  1.9102
  571MOL0     H77067   6.616   6.854   4.526 -1.6977  1.0862  0.3633
  571MOL0     H77068   6.668   7.059   4.650  4.1059  1.6946  2.2628
  571MOL0     H77069   6.772   7.329   4.912 -1.0827 -0.1710 -0.8605
  571MOL0     H77070   6.806   7.530   5.026 -0.1365 -0.8253 -0.5556
  571MOL0     H77071   5.459   8.930   5.724  2.6893 -0.2222  2.8822
  571MOL0     H77072   5.304   8.842   5.565 -0.5513  0.4843  1.5020
  571MOL0     H77073   5.074   8.610   5.379 -0.2750  0.3609  0.2318
  571MOL0     H77074   4.856   8.594   5.250 -0.6918 -0.7009 -0.3936
  571MOL0     H77075   4.456   8.445   5.245 -2.6494  1.8270  1.3440
  571MOL0     H77076   4.498   8.368   5.394 -0.4632  0.7659  0.5334
  571MOL0     H77077   4.431   8.666   5.349 -3.0994 -1.0057 -2.2655
  571MOL0     H77078   4.480   8.601   5.513  0.8592  1.9347 -1.7330
  571MOL0     H77079   4.297   8.464   5.517  2.8254 -0.3162 -1.6596
  571MOL0     H77080   4.240   8.525   5.361 -2.3048  2.2776  0.4023
  571MOL0     H77081   4.246   8.758   5.457 -3.2904  1.8785  0.6890
  571MOL0     H77082   4.298   8.681   5.609 -1.5020 -2.7750  0.6377
  571MOL0     H77083   3.876   8.624   5.629  1.4985 -1.8116  4.0353
  571MOL0     H77084   4.630   8.466   5.587  0.3621 -0.4048  0.0751
  571MOL0     H77085   4.834   8.493   5.725  1.2237  2.0767 -0.0078
  572MOL0     O77086   6.265   1.824   2.028 -0.1126 -0.2965  0.1860
  572MOL0     C77087   6.280   1.841   2.148 -0.2833  0.8158  0.2661
  572MOL0     O77088   6.186   1.822   2.236  0.7620 -0.6603  0.0509
  572MOL0     C77089   6.079   1.747   2.199  0.1507 -0.2919  0.0501
  572MOL0     C77090   5.986   1.775   2.097 -0.6573  0.5255  0.1375
  572MOL0     C77091   5.859   1.714   2.095  0.5100  0.4101 -0.1591
  572MOL0     C77092   5.836   1.604   2.176  0.3167 -0.7181 -0.2163
  572MOL0     O77093   5.729   1.521   2.169 -0.0898  0.4901 -0.2402
  572MOL0     C77094   5.620   1.546   2.073  0.0017 -0.6547  0.2780
  572MOL0     C77095   5.654   1.479   1.933  0.1478 -0.5036 -0.7018
  572MOL0     C77096   5.698   1.336   1.931  0.8155  0.6798 -0.8040
  572MOL0     C77097   5.850   1.313   1.935 -0.1565 -0.2024  0.3221
  572MOL0     C77098   5.914   1.350   1.795 -0.9667 -0.0005 -0.1684
  572MOL0     C77099   6.058   1.295   1.788  0.5982  0.6181 -0.0663
  572MOL0     C77100   6.154   1.362   1.893  0.3836  0.8383 -0.9350
  572MOL0     C77101   6.286   1.292   1.904 -1.0440 -0.3665  0.0522
  572MOL0     N77102   6.382   1.328   2.004 -0.0267 -0.1507  0.2394
  572MOL0     C77103   6.371   1.427   2.090  0.4185 -1.2963 -0.0547
  572MOL0     C77104   6.484   1.433   2.160 -0.3065  1.3242 -0.5122
  572MOL0     C77105   6.522   1.516   2.278 -1.3980  0.8270  0.7044
  572MOL0     C77106   6.405   1.543   2.368 -0.1353  0.0644  0.0477
  572MOL0     C77107   6.446   1.590   2.511 -1.0065  0.4185  0.6919
  572MOL0     C77108   6.340   1.614   2.613  0.6691 -0.0271  0.1390
  572MOL0     O77109   6.253   1.708   2.558 -0.0136 -1.0566  0.6267
  572MOL0     C77110   6.253   1.833   2.614 -0.1265 -0.5649 -0.6390
  572MOL0     C77111   6.373   1.896   2.668  0.6868 -0.7422  0.2147
  572MOL0     C77112   6.355   2.006   2.745  0.6277 -1.1728  0.7881
  572MOL0     C77113   6.481   2.066   2.808  0.1117  0.9350  0.0488
  572MOL0     C77114   6.221   2.065   2.762 -0.5504  0.5748  1.5756
  572MOL0     C77115   6.201   2.183   2.853 -0.0627  0.6136  1.2859
  572MOL0     O77116   6.299   2.224   2.933 -0.5089  0.3447 -0.1327
  572MOL0     C77117   6.276   2.302   3.046  0.6171  0.1569 -0.3527
  572MOL0     C77118   6.391   2.313   3.143 -0.1049 -0.3299  0.6015
  572MOL0     C77119   6.374   2.378   3.264 -0.0519 -0.5957 -0.0949
  572MOL0     C77120   6.256   2.435   3.299 -0.0453  0.4476  0.4656
  572MOL0     O77121   6.254   2.488   3.427 -0.8458  0.5044 -0.3310
  572MOL0     C77122   6.123   2.506   3.491 -0.4085 -0.3379 -0.1575
  572MOL0     C77123   6.161   2.595   3.610  0.0218  0.1018 -0.7402
  572MOL0     C77124   6.030   2.633   3.687 -0.5831 -0.5250  0.2884
  572MOL0     C77125   6.049   2.754   3.788 -0.1295 -0.5440  0.0528
  572MOL0     C77126   6.047   2.889   3.717  0.1955  0.3623 -0.3065
  572MOL0     C77127   5.904   2.950   3.682  0.7726  0.6709  0.3040
  572MOL0     C77128   5.915   3.082   3.594 -0.1515 -0.0142 -0.4099
  572MOL0     C77129   5.789   3.114   3.500 -0.6829  0.4152 -0.4107
  572MOL0    Cl77130   5.840   3.249   3.393 -0.0058  0.5576  0.3370
  572MOL0     C77131   6.147   2.436   3.209 -0.1529  0.8234  0.2837
  572MOL0     C77132   6.156   2.380   3.080  0.4489  0.1264  0.1284
  572MOL0     O77133   6.099   2.247   2.816  0.2043 -0.7598 -0.4806
  572MOL0     C77134   6.124   2.012   2.684  0.5007  0.1882 -0.3662
  572MOL0     C77135   6.132   1.898   2.608  0.4105  0.6737 -0.3583
  572MOL0     N77136   6.569   1.322   2.109  0.2583 -0.7727 -0.0213
  572MOL0     N77137   6.502   1.265   2.016 -0.5247  0.0619 -0.4398
  572MOL0     C77138   5.924   1.576   2.274 -0.1923 -0.1768  0.5347
  572MOL0     C77139   6.046   1.643   2.289 -0.6290 -0.1649  0.9674
  572MOL0     C77140   6.395   1.905   2.198  0.2468 -0.2116 -0.2425
  572MOL0     C77141   6.386   1.994   2.311 -0.0572  0.0457 -0.5753
  572MOL0     C77142   6.503   2.061   2.365  0.3469 -0.4170 -0.0466
  572MOL0     C77143   6.623   2.038   2.299 -0.7108  0.3591 -0.1792
  572MOL0     O77144   6.738   2.106   2.331  0.2050  0.2841  0.5156
  572MOL0     C77145   6.745   2.163   2.467  0.1964  0.5831  0.7410
  572MOL0     C77146   6.885   2.173   2.510 -0.1127 -0.0019 -0.4266
  572MOL0     C77147   6.903   2.170   2.663  0.1322  0.0596  0.1899
  572MOL0     C77148   7.044   2.198   2.717  0.5302  0.7961  0.4441
  572MOL0     C77149   7.099   2.324   2.668  0.2056  0.3185  0.2941
  572MOL0     C77150   7.145   2.426   2.619  0.4699 -0.6058  0.1809
  572MOL0     C77151   6.634   1.947   2.196 -0.9537  0.0624  0.4152
  572MOL0     C77152   6.523   1.890   2.145 -0.1592  0.7954  0.2422
  572MOL0     H77153   6.015   1.840   2.014 -0.1915 -0.0367 -0.1509
  572MOL0     H77154   5.796   1.743   2.012 -2.2113 -1.7240  1.0256
  572MOL0     H77155   5.525   1.505   2.108 -1.0608  2.4814  1.4598
  572MOL0     H77156   5.596   1.651   2.049  0.1005 -0.3107  1.6309
  572MOL0     H77157   5.557   1.485   1.884 -1.4615  3.7575  2.3445
  572MOL0     H77158   5.725   1.538   1.875  3.1050 -2.8477  0.2844
  572MOL0     H77159   5.653   1.280   2.013  0.5238  0.5032 -1.0813
  572MOL0     H77160   5.649   1.291   1.844  1.7723 -0.8731 -0.5854
  572MOL0     H77161   5.902   1.368   2.014  1.4685 -1.2447  0.0194
  572MOL0     H77162   5.868   1.206   1.939 -3.5719 -1.4162 -5.2364
  572MOL0     H77163   5.854   1.318   1.709 -0.9116  0.2080 -0.2836
  572MOL0     H77164   5.918   1.459   1.788 -2.2612  0.1847  1.3057
  572MOL0     H77165   6.062   1.186   1.797 -1.7867  0.5639  1.3538
  572MOL0     H77166   6.088   1.326   1.688  0.6947 -0.1752 -0.2873
  572MOL0     H77167   6.168   1.470   1.881 -2.9298  1.7378  1.7442
  572MOL0     H77168   6.104   1.346   1.989  0.7123  1.4860 -0.6526
  572MOL0     H77169   6.349   1.291   1.815 -0.0494  1.6531  0.6598
  572MOL0     H77170   6.252   1.188   1.911 -2.6732 -0.2152 -3.5306
  572MOL0     H77171   6.295   1.505   2.091  1.4654 -0.1759 -1.8074
  572MOL0     H77172   6.604   1.472   2.335 -1.4527 -0.6242 -0.2639
  572MOL0     H77173   6.548   1.614   2.238 -0.1704  1.2738  2.4538
  572MOL0     H77174   6.342   1.454   2.381  0.7504 -0.3424  2.0292
  572MOL0     H77175   6.342   1.617   2.318  0.0646 -0.4194 -0.9494
  572MOL0     H77176   6.517   1.672   2.514  1.7710 -1.7806 -0.5205
  572MOL0     H77177   6.502   1.507   2.555  1.7129  0.6543 -2.0200
  572MOL0     H77178   6.390   1.642   2.706 -1.5104  0.9212  1.0706
  572MOL0     H77179   6.286   1.519   2.613  0.0680  0.2243 -2.7091
  572MOL0     H77180   6.466   1.842   2.655  0.2342 -1.2987 -0.8150
  572MOL0     H77181   6.566   2.003   2.781 -1.0108  0.0500 -1.5893
  572MOL0     H77182   6.494   2.167   2.769 -0.9660  2.6051  3.6390
  572MOL0     H77183   6.476   2.079   2.917 -1.2194 -1.4241  0.3334
  572MOL0     H77184   6.487   2.268   3.119  2.1741  3.3391  1.9154
  572MOL0     H77185   6.456   2.399   3.331 -0.4762  0.8988 -0.0137
  572MOL0     H77186   6.043   2.551   3.431 -1.5512 -0.1279  1.4391
  572MOL0     H77187   6.078   2.415   3.532 -0.0485  0.5068  2.3292
  572MOL0     H77188   6.229   2.545   3.679  0.3291 -0.4833 -1.4552
  572MOL0     H77189   6.220   2.684   3.587  2.0109  0.2077  3.7976
  572MOL0     H77190   5.988   2.545   3.737  0.1965 -1.5349 -0.7658
  572MOL0     H77191   5.952   2.666   3.617 -0.2591  4.0557  1.7736
  572MOL0     H77192   5.972   2.747   3.866 -0.0622 -4.5123 -0.0258
  572MOL0     H77193   6.142   2.729   3.841 -1.0895 -1.9261  1.1903
  572MOL0     H77194   6.100   2.871   3.623  0.1948 -0.8239 -0.1010
  572MOL0     H77195   6.101   2.953   3.788 -1.9095 -0.1762  1.9186
  572MOL0     H77196   5.852   2.877   3.620  0.8924 -0.5839  1.6345
  572MOL0     H77197   5.841   2.965   3.770 -1.0845  0.5500 -0.9430
  572MOL0     H77198   5.996   3.059   3.525  0.6669 -1.7968  1.0565
  572MOL0     H77199   5.945   3.172   3.649  1.3965  0.5462 -2.0713
  572MOL0     H77200   5.699   3.134   3.559 -1.2886 -1.4233 -0.6653
  572MOL0     H77201   5.775   3.023   3.442  2.7047  1.0083 -2.4664
  572MOL0     H77202   6.054   2.483   3.241 -1.3505  0.0583 -1.8295
  572MOL0     H77203   6.069   2.388   3.015 -0.4838 -0.9472  1.1951
  572MOL0     H77204   6.027   2.060   2.692  0.5090 -0.1528  3.3831
  572MOL0     H77205   6.068   1.857   2.531  1.8449  0.7923 -1.6717
  572MOL0     H77206   5.899   1.504   2.351 -0.1954 -1.6739 -0.8158
  572MOL0     H77207   6.106   1.622   2.377  0.0097  0.1707  0.6194
  572MOL0     H77208   6.290   2.010   2.359  0.8599 -0.7470  1.6690
  572MOL0     H77209   6.497   2.131   2.448  0.2196  0.5314 -0.8419
  572MOL0     H77210   6.684   2.254   2.461 -1.7442 -0.7286 -0.1677
  572MOL0     H77211   6.698   2.099   2.541  1.1986  1.4527  2.1925
  572MOL0     H77212   6.925   2.262   2.461 -0.6760 -0.5302 -1.9103
  572MOL0     H77213   6.938   2.092   2.460 -1.4008 -0.6355 -0.7961
  572MOL0     H77214   6.868   2.073   2.697 -3.1965  0.7817 -0.7804
  572MOL0     H77215   6.843   2.247   2.714 -0.2077 -1.3333  1.9775
  572MOL0     H77216   7.095   2.106   2.686  2.4934  2.8324 -3.0374
  572MOL0     H77217   7.028   2.200   2.825  3.1466  0.1005  0.8992
  572MOL0     H77218   7.182   2.520   2.583 -1.5938 -0.4300 -1.7146
  572MOL0     H77219   6.728   1.935   2.143 -0.1923  1.7747  1.2843
  572MOL0     H77220   6.524   1.826   2.057 -2.9584  0.3549  0.4332
  573MOL0     O77221  10.686   3.494   7.645  0.2062 -0.3054 -0.3305
  573MOL0     C77222  10.688   3.597   7.577  0.4339 -0.2612  0.4691
  573MOL0     O77223  10.645   3.607   7.447 -0.3785 -0.7007 -0.2985
  573MOL0     C77224  10.606   3.492   7.381 -0.7448  0.3342 -0.7709
  573MOL0     C77225  10.679   3.447   7.274  0.8010  1.3099 -0.5075
  573MOL0     C77226  10.651   3.319   7.228 -0.4553  0.1351  0.3328
  573MOL0     C77227  10.559   3.235   7.278  0.0655 -0.2475 -0.1038
  573MOL0     O77228  10.532   3.114   7.219 -0.5377  0.5769  0.2520
  573MOL0     C77229  10.627   3.034   7.148 -0.7972  0.3961 -1.0847
  573MOL0     C77230  10.564   2.896   7.112  0.0528  0.2283  0.5401
  573MOL0     C77231  10.455   2.896   6.994 -0.0868  0.5413  0.4153
  573MOL0     C77232  10.509   2.919   6.848  0.6401  0.4858  0.6470
  573MOL0     C77233  10.402   2.938   6.745  0.0769 -0.3108  0.2916
  573MOL0     C77234  10.457   2.973   6.604  0.8299 -0.0232 -0.1239
  573MOL0     C77235  10.477   2.850   6.521 -0.8356  0.0723  0.1640
  573MOL0     C77236  10.512   2.870   6.371  0.0628 -0.5895  0.8434
  573MOL0     N77237  10.636   2.940   6.347  0.2955 -0.7381 -0.2158
  573MOL0     C77238  10.745   2.859   6.327  0.2957 -0.1038  0.1415
  573MOL0     C77239  10.828   2.944   6.255 -0.2163  0.2975  0.3263
  573MOL0     C77240  10.971   2.914   6.225  1.1041 -0.9027  0.1962
  573MOL0     C77241  11.045   2.879   6.357  0.3241  0.6580  0.0968
  573MOL0     C77242  11.086   3.007   6.431 -0.0795 -0.2953 -0.2187
  573MOL0     C77243  11.149   2.974   6.560 -0.0600 -0.6774 -0.8482
  573MOL0     O77244  11.259   2.899   6.534 -0.5424 -0.0676 -0.3914
  573MOL0     C77245  11.371   2.906   6.620  0.3455  0.1328  0.3741
  573MOL0     C77246  11.458   2.801   6.601  0.6958  0.8389 -0.0047
  573MOL0     C77247  11.578   2.781   6.680  0.7585  0.3594  0.1148
  573MOL0     C77248  11.651   2.657   6.677  0.1592 -0.5721  0.3725
  573MOL0     C77249  11.596   2.875   6.779 -0.3380  0.1988 -0.5971
  573MOL0     C77250  11.715   2.869   6.871  0.3116 -0.7595 -0.1429
  573MOL0     O77251  11.842   2.856   6.824 -0.0299  0.1967 -0.2644
  573MOL0     C77252  11.938   2.849   6.930  0.2583  0.1620 -0.2688
  573MOL0     C77253  11.979   2.720   6.973 -0.4172  0.6155 -0.4887
  573MOL0     C77254  12.071   2.701   7.076  0.6997  0.5150  0.3805
  573MOL0     C77255  12.116   2.815   7.143  0.1995 -1.2591 -0.8695
  573MOL0     O77256  12.208   2.797   7.241  0.5494 -0.6885 -0.4756
  573MOL0     C77257  12.164   2.838   7.374 -0.3018 -0.7824 -0.0235
  573MOL0     C77258  12.133   2.732   7.476 -0.0256  0.8864 -0.4216
  573MOL0     C77259  12.262   2.650   7.502  0.3221  0.1009 -0.5459
  573MOL0     C77260  12.230   2.534   7.589 -0.0433 -0.8623 -0.7644
  573MOL0     C77261  12.354   2.458   7.633  0.3330 -0.0395 -0.6681
  573MOL0     C77262  12.445   2.413   7.516  0.3720  0.1192  0.0560
  573MOL0     C77263  12.397   2.283   7.444  0.0850  0.7012  0.3527
  573MOL0     C77264  12.461   2.152   7.502 -0.1986  0.5347 -0.0972
  573MOL0    Cl77265  12.636   2.138   7.464  0.4425 -0.0969  0.5598
  573MOL0     C77266  12.070   2.940   7.107  0.2285 -0.6927  0.1615
  573MOL0     C77267  11.980   2.965   7.006 -0.0115 -0.0946  0.3690
  573MOL0     O77268  11.682   2.882   6.988  0.5859  0.0677 -0.4165
  573MOL0     C77269  11.516   2.994   6.791  0.3106  0.2838  0.3862
  573MOL0     C77270  11.401   3.001   6.715  0.4463 -0.4537  0.5804
  573MOL0     N77271  10.772   3.066   6.235  0.1366 -0.2996 -0.1423
  573MOL0     N77272  10.654   3.065   6.284 -0.2627 -0.2055 -0.0537
  573MOL0     C77273  10.487   3.275   7.382 -1.2038  0.8253 -0.2875
  573MOL0     C77274  10.509   3.408   7.439 -0.5357  0.5718 -1.0060
  573MOL0     C77275  10.724   3.717   7.657  0.1124 -0.3061  0.5203
  573MOL0     C77276  10.737   3.704   7.796  0.4412 -0.0058  0.7561
  573MOL0     C77277  10.784   3.806   7.876  1.0788 -0.9005 -0.1184
  573MOL0     C77278  10.803   3.933   7.824 -0.5186 -0.5823 -0.7379
  573MOL0     O77279  10.851   4.035   7.904 -1.0933 -0.5088 -0.5397
  573MOL0     C77280  10.847   4.176   7.862 -0.6880 -0.1464  0.3923
  573MOL0     C77281  10.984   4.222   7.812 -0.6595  0.7105  1.1509
  573MOL0     C77282  10.972   4.364   7.758 -0.3771  0.8257 -0.8966
  573MOL0     C77283  11.112   4.418   7.721 -0.4268 -0.2120  0.0780
  573MOL0     C77284  11.185   4.363   7.600 -1.1691 -0.0571  0.4561
  573MOL0     C77285  11.249   4.308   7.514  1.1940 -0.9221  0.5934
  573MOL0     C77286  10.790   3.951   7.686 -0.2360  0.4099 -0.5034
  573MOL0     C77287  10.751   3.850   7.606 -0.2148  0.2683  0.2491
  573MOL0     H77288  10.761   3.503   7.232  3.4506 -1.4719  0.5280
  573MOL0     H77289  10.699   3.285   7.137 -2.2511  0.2364 -0.7116
  573MOL0     H77290  10.664   3.090   7.062  2.9623  4.4208  2.6025
  573MOL0     H77291  10.713   3.017   7.214 -1.7401  1.1424  0.3910
  573MOL0     H77292  10.644   2.825   7.090 -0.1874 -0.5054  1.8801
  573MOL0     H77293  10.518   2.853   7.202 -1.3859 -2.9824 -1.5372
  573MOL0     H77294  10.393   2.806   6.995 -1.6145  1.5354 -0.1480
  573MOL0     H77295  10.381   2.976   7.011 -1.8630 -0.8638 -0.4177
  573MOL0     H77296  10.576   3.006   6.853  1.7232 -0.3333  0.8442
  573MOL0     H77297  10.565   2.829   6.823 -0.7521 -0.6735  1.5177
  573MOL0     H77298  10.341   2.846   6.744 -1.9367  0.8924 -2.3330
  573MOL0     H77299  10.329   3.014   6.776  2.2749  1.6098  1.0075
  573MOL0     H77300  10.387   3.045   6.560 -1.2462 -0.1769  2.6495
  573MOL0     H77301  10.558   3.012   6.618  0.2871  0.8506  1.6901
  573MOL0     H77302  10.549   2.787   6.574  0.0907  0.9201 -0.0507
  573MOL0     H77303  10.397   2.776   6.510  2.0958 -3.4121  0.2604
  573MOL0     H77304  10.426   2.926   6.334 -1.5503 -1.0679  3.5632
  573MOL0     H77305  10.526   2.768   6.333  1.6779 -0.1845  0.2778
  573MOL0     H77306  10.768   2.759   6.363 -1.8796 -0.6988 -0.0031
  573MOL0     H77307  10.974   2.822   6.166 -1.3518 -0.7329 -0.2817
  573MOL0     H77308  11.022   2.989   6.164  1.3349  2.2361  3.8584
  573MOL0     H77309  11.139   2.831   6.331  1.2014  0.7149  2.8824
  573MOL0     H77310  10.983   2.808   6.412 -0.0092 -0.7610 -1.9723
  573MOL0     H77311  11.010   3.085   6.431 -0.6979 -0.7456 -3.5154
  573MOL0     H77312  11.153   3.063   6.365  0.2380  0.6218  0.8494
  573MOL0     H77313  11.083   2.903   6.610  0.9919 -0.6072  0.6807
  573MOL0     H77314  11.173   3.069   6.610  0.2607 -1.3268  0.2518
  573MOL0     H77315  11.437   2.721   6.531 -0.2054 -0.2334  1.4458
  573MOL0     H77316  11.649   2.629   6.571 -4.0372  1.2400 -0.2180
  573MOL0     H77317  11.755   2.674   6.707 -0.5094  0.0041  2.4937
  573MOL0     H77318  11.590   2.588   6.734 -1.0450 -0.1005 -0.3067
  573MOL0     H77319  11.948   2.629   6.922  4.1376 -2.2660  1.2153
  573MOL0     H77320  12.127   2.613   7.107  3.6645  1.5359 -1.5458
  573MOL0     H77321  12.246   2.900   7.411  0.0672 -0.9523 -0.5280
  573MOL0     H77322  12.080   2.907   7.370 -0.1413 -0.4315  1.9464
  573MOL0     H77323  12.099   2.775   7.571  0.9463  0.7768 -0.0099
  573MOL0     H77324  12.044   2.682   7.438  0.8054 -0.8379 -0.2116
  573MOL0     H77325  12.338   2.713   7.548 -0.3973  1.1708 -0.7981
  573MOL0     H77326  12.298   2.609   7.407  1.2119  2.4840 -1.2984
  573MOL0     H77327  12.179   2.563   7.681  2.1722 -2.0110  0.9195
  573MOL0     H77328  12.169   2.460   7.537  0.2928 -1.5277 -0.2298
  573MOL0     H77329  12.321   2.363   7.677 -0.7131  0.6227  0.0419
  573MOL0     H77330  12.403   2.513   7.714 -3.7047 -1.1435  2.9262
  573MOL0     H77331  12.461   2.487   7.437 -1.6786  1.2795  0.6321
  573MOL0     H77332  12.546   2.386   7.548 -0.2091 -0.6439  1.3247
  573MOL0     H77333  12.417   2.291   7.337  3.5021  1.5153  0.9272
  573MOL0     H77334  12.288   2.277   7.445  0.1160  0.1356  0.1898
  573MOL0     H77335  12.429   2.057   7.457  1.7094 -0.0269 -0.3500
  573MOL0     H77336  12.448   2.134   7.609 -1.3018 -0.3380 -0.3637
  573MOL0     H77337  12.107   3.030   7.155  0.6202 -0.1058 -1.2026
  573MOL0     H77338  11.950   3.068   6.987 -0.2754  0.3661  2.9908
  573MOL0     H77339  11.536   3.077   6.858 -0.7595  0.5958  0.3380
  573MOL0     H77340  11.333   3.084   6.731 -0.1151 -0.9470  0.7810
  573MOL0     H77341  10.433   3.194   7.429  0.3048  0.1067  0.2767
  573MOL0     H77342  10.470   3.431   7.538 -1.4463 -0.0359 -1.2188
  573MOL0     H77343  10.702   3.618   7.852  0.1074 -0.9363 -0.8168
  573MOL0     H77344  10.804   3.810   7.983  3.9119  5.5729 -0.4413
  573MOL0     H77345  10.767   4.188   7.789  0.2614 -3.2984 -1.3448
  573MOL0     H77346  10.821   4.241   7.946 -4.4797  0.9964 -1.4464
  573MOL0     H77347  11.017   4.159   7.729  1.1953  1.0468  1.5902
  573MOL0     H77348  11.060   4.228   7.891  1.4678  0.7064 -0.7796
  573MOL0     H77349  10.927   4.431   7.832 -3.6108 -1.5970 -0.4450
  573MOL0     H77350  10.910   4.364   7.669  0.4289  1.3191 -1.4678
  573MOL0     H77351  11.171   4.401   7.812  1.8070  3.2705 -0.5202
  573MOL0     H77352  11.114   4.527   7.718  0.0457 -0.2450 -1.5768
  573MOL0     H77353  11.297   4.249   7.438  1.9468 -0.4969  0.7311
  573MOL0     H77354  10.823   4.047   7.647  2.8260 -0.4808 -0.3469
  573MOL0     H77355  10.750   3.873   7.499 -2.6008  3.3527  0.7797
  574MOL0     O77356   5.341   7.675   6.204 -0.2824 -0.6095  0.4044
  574MOL0     C77357   5.465   7.676   6.206 -0.4913  0.2482  0.5948
  574MOL0     O77358   5.546   7.708   6.097 -0.9568  0.4393 -0.7857
  574MOL0     C77359   5.497   7.753   5.975 -1.0124  0.2118 -0.3017
  574MOL0     C77360   5.590   7.842   5.915 -0.1572 -0.1534 -0.2540
  574MOL0     C77361   5.564   7.901   5.795  0.0414  0.5746  0.8050
  574MOL0     C77362   5.445   7.877   5.733  1.0525 -0.4406 -0.3406
  574MOL0     O77363   5.413   7.933   5.607 -0.0148  0.3936 -0.2547
  574MOL0     C77364   5.503   7.920   5.499  0.4847  0.3117 -0.1011
  574MOL0     C77365   5.578   8.051   5.484  0.0705  1.7828  0.3803
  574MOL0     C77366   5.481   8.169   5.450 -0.0311 -0.0157  0.0002
  574MOL0     C77367   5.406   8.140   5.324  0.4875 -0.3303 -0.1675
  574MOL0     C77368   5.314   8.257   5.274 -1.0676  1.0502 -0.3488
  574MOL0     C77369   5.289   8.242   5.127 -0.2992  0.5737  1.6329
  574MOL0     C77370   5.212   8.116   5.081  0.6614  0.3705 -0.4952
  574MOL0     C77371   5.189   8.110   4.929  0.1300  0.3794 -1.1848
  574MOL0     N77372   5.087   8.214   4.886 -0.5558  0.5541  0.2313
  574MOL0     C77373   4.967   8.236   4.944  0.1653 -0.5121 -0.1631
  574MOL0     C77374   4.926   8.351   4.890  0.3574 -0.2701 -0.1073
  574MOL0     C77375   4.795   8.416   4.927  0.0866  0.4529  0.6199
  574MOL0     C77376   4.684   8.396   4.820 -0.0900  0.3941  0.6186
  574MOL0     C77377   4.720   8.424   4.669  1.0010 -1.2129  0.8497
  574MOL0     C77378   4.784   8.558   4.645 -0.1974 -0.2817 -0.0643
  574MOL0     O77379   4.838   8.572   4.515 -0.3046 -0.1468  0.2046
  574MOL0     C77380   4.761   8.615   4.414 -0.1439 -0.3268  0.9848
  574MOL0     C77381   4.626   8.649   4.406 -0.6179  0.2978  0.0139
  574MOL0     C77382   4.566   8.718   4.299 -0.6368  1.0070  0.2536
  574MOL0     C77383   4.420   8.766   4.303 -0.7197  0.5473 -0.0900
  574MOL0     C77384   4.646   8.735   4.181  0.9410  0.3343 -0.2722
  574MOL0     C77385   4.598   8.813   4.062 -1.0551  0.0792  1.1401
  574MOL0     O77386   4.507   8.905   4.074 -0.5909  0.0327 -0.2713
  574MOL0     C77387   4.446   8.978   3.977 -0.2240 -0.3786  0.3135
  574MOL0     C77388   4.311   9.015   4.010 -0.2254 -0.7182  0.4584
  574MOL0     C77389   4.230   9.091   3.924 -0.1196 -0.2019  0.1472
  574MOL0     C77390   4.287   9.135   3.811 -0.1738 -0.2157 -0.1939
  574MOL0     O77391   4.202   9.208   3.737  0.4629  0.4338 -0.6530
  574MOL0     C77392   4.236   9.242   3.598  0.0328 -0.6438 -0.4508
  574MOL0     C77393   4.107   9.323   3.555 -0.1654 -0.3589  1.1508
  574MOL0     C77394   4.143   9.382   3.417  0.1610 -0.0266  0.2547
  574MOL0     C77395   4.029   9.479   3.372 -0.0278  0.2496 -0.2657
  574MOL0     C77396   4.045   9.531   3.224  0.3773  0.1462  0.5741
  574MOL0     C77397   4.105   9.444   3.112  1.1819  0.2654 -0.9206
  574MOL0     C77398   4.021   9.321   3.091 -0.3174 -0.2267 -0.5360
  574MOL0     C77399   4.084   9.231   2.985 -0.7606  0.5886  0.6194
  574MOL0    Cl77400   4.254   9.183   3.009 -0.5550  0.2817 -0.2354
  574MOL0     C77401   4.420   9.110   3.778 -0.2581 -0.1708 -0.4068
  574MOL0     C77402   4.498   9.035   3.862 -0.0022  0.4546  0.3932
  574MOL0     O77403   4.650   8.775   3.959  0.6487  0.0810  0.3465
  574MOL0     C77404   4.786   8.689   4.182  0.4302  0.4854 -0.0099
  574MOL0     C77405   4.838   8.640   4.294 -0.3854 -0.2178 -0.3850
  574MOL0     N77406   5.003   8.384   4.782 -0.1497 -0.0287 -0.5510
  574MOL0     N77407   5.110   8.303   4.789  0.4666 -0.2686 -0.6597
  574MOL0     C77408   5.348   7.786   5.787  0.1656 -0.4148 -0.6627
  574MOL0     C77409   5.373   7.726   5.912 -0.5494  0.9787 -0.0407
  574MOL0     C77410   5.537   7.640   6.333  0.0986 -0.1581 -0.5970
  574MOL0     C77411   5.473   7.616   6.455 -0.3721  0.1550 -0.1185
  574MOL0     C77412   5.549   7.579   6.566  0.7637  0.0627  0.2379
  574MOL0     C77413   5.685   7.570   6.558 -0.7039  0.0971  0.2100
  574MOL0     O77414   5.735   7.523   6.673  0.6932 -0.9788 -0.3745
  574MOL0     C77415   5.864   7.563   6.693  0.1512  0.0379 -1.0538
  574MOL0     C77416   5.890   7.719   6.718 -0.3782 -0.1362  0.2856
  574MOL0     C77417   6.034   7.737   6.791  1.0044 -0.8757  0.0057
  574MOL0     C77418   6.075   7.888   6.803 -0.2880  0.1688  0.3096
  574MOL0     C77419   5.984   7.978   6.874  0.4881 -0.3885 -0.1443
  574MOL0     C77420   5.892   8.045   6.918  0.2883  0.0476  0.1609
  574MOL0     C77421   5.752   7.603   6.439 -0.1532  1.1926  0.4402
  574MOL0     C77422   5.677   7.638   6.332 -0.7601 -0.0832  0.2633
  574MOL0     H77423   5.688   7.865   5.957 -0.3711 -0.0370  0.1884
  574MOL0     H77424   5.650   7.956   5.758  1.2242 -0.7689  1.4777
  574MOL0     H77425   5.579   7.843   5.517 -1.2329 -2.1688 -2.5993
  574MOL0     H77426   5.451   7.896   5.405 -0.4803  1.2898  0.1567
  574MOL0     H77427   5.637   8.077   5.572 -1.0732 -0.8618  2.0541
  574MOL0     H77428   5.656   8.052   5.407  1.9593  0.4372  2.1664
  574MOL0     H77429   5.412   8.178   5.534  0.5532  1.6087  0.3402
  574MOL0     H77430   5.526   8.268   5.440 -0.6276  0.5588  2.4501
  574MOL0     H77431   5.475   8.115   5.242  0.7101  2.6168 -1.0116
  574MOL0     H77432   5.325   8.070   5.343 -3.8365  4.0909 -0.3254
  574MOL0     H77433   5.227   8.261   5.340 -1.0010  2.7625 -0.3353
  574MOL0     H77434   5.358   8.352   5.304  3.0112  0.5756 -3.8159
  574MOL0     H77435   5.231   8.335   5.115  1.1016  1.3006  0.1750
  574MOL0     H77436   5.373   8.253   5.058 -1.2379 -3.9165 -0.5634
  574MOL0     H77437   5.261   8.022   5.105 -0.6754 -0.7800 -2.0218
  574MOL0     H77438   5.121   8.126   5.141  0.2079 -0.1739 -1.0837
  574MOL0     H77439   5.158   8.010   4.899  0.6607 -0.7589  1.7321
  574MOL0     H77440   5.282   8.130   4.874 -0.0288  0.3281 -1.4702
  574MOL0     H77441   4.928   8.176   5.026 -1.1210 -1.2459 -1.2695
  574MOL0     H77442   4.754   8.389   5.025  1.2286  0.2334  1.0482
  574MOL0     H77443   4.809   8.524   4.937 -0.0377  1.0230 -3.6368
  574MOL0     H77444   4.601   8.459   4.853 -1.0515 -0.9918  0.9245
  574MOL0     H77445   4.656   8.290   4.813  2.3173 -0.3061  0.6011
  574MOL0     H77446   4.628   8.416   4.610 -0.0840  1.1385  2.0823
  574MOL0     H77447   4.781   8.345   4.626 -0.1091 -1.7605  0.2357
  574MOL0     H77448   4.863   8.573   4.719  0.4868 -3.7445  0.0545
  574MOL0     H77449   4.711   8.636   4.670 -2.9058 -1.5312 -3.2452
  574MOL0     H77450   4.559   8.633   4.490 -0.9091 -2.8630 -0.6802
  574MOL0     H77451   4.416   8.874   4.318  0.5201  0.3751  1.9423
  574MOL0     H77452   4.365   8.728   4.217  1.5671 -3.8089  0.0966
  574MOL0     H77453   4.372   8.712   4.385 -4.1087 -1.4909 -3.1091
  574MOL0     H77454   4.260   8.962   4.089 -1.2058 -1.7485 -0.8314
  574MOL0     H77455   4.126   9.112   3.947  0.0861 -0.5350  1.4220
  574MOL0     H77456   4.310   9.323   3.605 -1.1110  0.3366  0.6884
  574MOL0     H77457   4.262   9.161   3.530  2.6658 -0.4441  0.1994
  574MOL0     H77458   4.023   9.254   3.548 -0.6967  0.4358 -1.1599
  574MOL0     H77459   4.100   9.406   3.626 -1.1760 -1.6296  2.6023
  574MOL0     H77460   4.153   9.301   3.343  0.7485 -1.7757  2.1530
  574MOL0     H77461   4.239   9.434   3.419  1.5297 -2.2724 -1.8373
  574MOL0     H77462   3.938   9.418   3.365 -1.1296  1.5298  2.0982
  574MOL0     H77463   4.009   9.563   3.438  0.0952 -0.3454  0.5373
  574MOL0     H77464   4.105   9.622   3.232  0.1054  0.3009  0.8975
  574MOL0     H77465   3.942   9.555   3.197  0.6071  2.4900  1.5544
  574MOL0     H77466   4.114   9.494   3.015  0.1053 -2.2378 -2.4234
  574MOL0     H77467   4.202   9.419   3.156  1.3879  4.2460  1.3337
  574MOL0     H77468   3.922   9.360   3.066  1.1279  2.4155 -2.6168
  574MOL0     H77469   4.013   9.259   3.181  1.1851 -2.8167 -2.0592
  574MOL0     H77470   4.077   9.285   2.890 -0.3133 -0.7055 -0.1739
  574MOL0     H77471   4.033   9.134   2.973  3.9854 -1.9698 -1.4389
  574MOL0     H77472   4.459   9.148   3.684 -0.1246  0.5908 -0.0509
  574MOL0     H77473   4.602   9.020   3.836  0.4301  1.7780  1.2697
  574MOL0     H77474   4.854   8.687   4.097 -0.2283  1.8820 -0.6039
  574MOL0     H77475   4.942   8.613   4.304  0.7085  4.0318  1.7822
  574MOL0     H77476   5.254   7.769   5.736 -0.9055  3.7201 -0.4183
  574MOL0     H77477   5.305   7.667   5.973  0.9364 -1.0797 -0.2603
  574MOL0     H77478   5.366   7.624   6.469 -0.3821 -0.2622  0.0450
  574MOL0     H77479   5.506   7.557   6.663  0.3568 -3.3547 -0.5636
  574MOL0     H77480   5.903   7.511   6.782  2.4664  1.9138 -0.8651
  574MOL0     H77481   5.929   7.528   6.612 -0.1779  0.7519 -1.6357
  574MOL0     H77482   5.811   7.748   6.788  1.7208 -0.3001  2.9322
  574MOL0     H77483   5.888   7.784   6.630 -0.4358  1.5669  1.4947
  574MOL0     H77484   6.105   7.682   6.728  0.0690 -0.2718 -1.6600
  574MOL0     H77485   6.024   7.707   6.895 -0.6473  3.1047  1.1545
  574MOL0     H77486   6.090   7.941   6.709 -1.4008 -0.9344 -0.5234
  574MOL0     H77487   6.177   7.886   6.844 -0.3321 -4.0669  0.7391
  574MOL0     H77488   5.803   8.092   6.955 -0.5544  0.2580 -1.9721
  574MOL0     H77489   5.860   7.616   6.442 -0.4126  5.7766 -1.1431
  574MOL0     H77490   5.730   7.674   6.244 -0.0865  0.2518  0.7994
  575MOL0     O77491   9.194   9.225   4.659 -0.4133  0.4181 -0.2786
  575MOL0     C77492   9.268   9.148   4.720 -0.8180  0.1580 -0.5348
  575MOL0     O77493   9.284   9.011   4.702 -0.4093 -0.7719  0.0321
  575MOL0     C77494   9.224   8.965   4.590  0.2507 -0.3704 -0.1996
  575MOL0     C77495   9.111   8.878   4.586 -0.4121  0.2626 -0.1816
  575MOL0     C77496   9.056   8.827   4.467  0.8634 -0.9029 -0.1193
  575MOL0     C77497   9.117   8.874   4.342 -1.0289  0.0059  0.2444
  575MOL0     O77498   9.059   8.843   4.220  0.4327  0.0907 -0.1481
  575MOL0     C77499   9.011   8.710   4.191  0.3381 -0.3407 -0.3520
  575MOL0     C77500   8.886   8.739   4.104 -0.4303 -1.1399 -0.3168
  575MOL0     C77501   8.778   8.817   4.179 -0.5958  0.6202  0.3675
  575MOL0     C77502   8.658   8.825   4.077 -0.4892 -0.5195  0.2264
  575MOL0     C77503   8.556   8.938   4.101 -0.7567  0.1337 -0.5634
  575MOL0     C77504   8.495   8.978   3.968 -0.2671  0.6701  0.4905
  575MOL0     C77505   8.400   9.089   4.005 -0.3646 -1.1440  0.5627
  575MOL0     C77506   8.320   9.139   3.880  0.9103  0.8852 -0.0678
  575MOL0     N77507   8.400   9.238   3.806 -0.2942  0.1190  0.7139
  575MOL0     C77508   8.476   9.338   3.854  0.1775 -0.1051  0.0244
  575MOL0     C77509   8.540   9.389   3.747 -0.8457  0.0911 -0.4484
  575MOL0     C77510   8.621   9.515   3.746  0.9036  0.0464 -0.3540
  575MOL0     C77511   8.776   9.496   3.780  0.1315 -0.2645 -0.6009
  575MOL0     C77512   8.835   9.410   3.663 -0.2179 -1.0167  0.2228
  575MOL0     C77513   8.869   9.497   3.535  0.1090 -0.5442 -0.7676
  575MOL0     O77514   8.892   9.405   3.427 -0.2561  0.5025  0.7369
  575MOL0     C77515   9.009   9.340   3.414  0.4399  0.1313 -0.1861
  575MOL0     C77516   9.009   9.230   3.328  0.6310 -0.8492 -0.9250
  575MOL0     C77517   9.113   9.137   3.322  0.6179  0.3477  0.4563
  575MOL0     C77518   9.100   9.023   3.219 -0.6853  0.7203 -0.3522
  575MOL0     C77519   9.229   9.163   3.395 -0.6386  0.5063  0.4705
  575MOL0     C77520   9.354   9.089   3.373  0.5203  0.1660  0.3111
  575MOL0     O77521   9.344   8.958   3.409 -0.3571  1.0470 -0.2653
  575MOL0     C77522   9.457   8.881   3.400 -0.4747 -0.1312  0.2493
  575MOL0     C77523   9.562   8.906   3.483  1.1611 -0.8531  0.6878
  575MOL0     C77524   9.683   8.840   3.464  0.2697  0.6146 -0.2240
  575MOL0     C77525   9.703   8.736   3.367 -0.6844  0.8638  0.4273
  575MOL0     O77526   9.829   8.678   3.354  0.2495  0.1800  0.6007
  575MOL0     C77527   9.820   8.534   3.332 -0.8620 -1.4578 -0.4057
  575MOL0     C77528   9.951   8.465   3.372  1.1714 -0.5192 -0.8086
  575MOL0     C77529   9.952   8.423   3.518 -0.6958 -0.3533  0.0766
  575MOL0     C77530  10.023   8.296   3.545 -0.7802 -0.8262  0.4747
  575MOL0     C77531   9.937   8.173   3.511 -0.4963 -0.7266  0.3843
  575MOL0     C77532  10.015   8.048   3.548  0.4864 -0.7314  0.6158
  575MOL0     C77533   9.964   7.913   3.514 -0.4786  0.5702 -0.0714
  575MOL0     C77534  10.069   7.811   3.554  0.3465 -0.2521  0.3216
  575MOL0    Cl77535  10.002   7.651   3.546 -0.4365  0.4779  0.6608
  575MOL0     C77536   9.589   8.705   3.291  0.7032  0.4354 -0.4311
  575MOL0     C77537   9.465   8.775   3.306  0.3105 -0.5153 -1.1244
  575MOL0     O77538   9.459   9.143   3.336 -0.1186 -0.2949 -0.4913
  575MOL0     C77539   9.226   9.265   3.484 -0.2064 -0.8734  0.9642
  575MOL0     C77540   9.117   9.350   3.500  0.1439 -0.4783  0.5325
  575MOL0     N77541   8.499   9.329   3.635  0.2075 -0.3440 -0.6371
  575MOL0     N77542   8.420   9.229   3.670 -0.0575 -0.4646  0.2196
  575MOL0     C77543   9.235   8.951   4.344  0.3138 -0.0774 -0.3607
  575MOL0     C77544   9.285   8.993   4.469 -0.4898 -0.6850  0.6761
  575MOL0     C77545   9.341   9.205   4.843  0.9528 -0.5968 -0.0334
  575MOL0     C77546   9.289   9.303   4.927  0.4031  0.3805 -0.7419
  575MOL0     C77547   9.359   9.347   5.036  0.5047 -0.6838 -0.7912
  575MOL0     C77548   9.474   9.282   5.077 -0.4941  0.1760 -0.1036
  575MOL0     O77549   9.523   9.313   5.207 -0.4735  0.0277 -0.2984
  575MOL0     C77550   9.654   9.274   5.263  0.0844  0.5639 -0.6012
  575MOL0     C77551   9.773   9.317   5.181 -0.5173 -0.8603 -0.1404
  575MOL0     C77552   9.787   9.463   5.142 -0.0831 -0.0921  0.4036
  575MOL0     C77553   9.715   9.509   5.014 -0.3698  0.4187  0.3494
  575MOL0     C77554   9.785   9.617   4.936  0.8171  0.5139  0.0464
  575MOL0     C77555   9.825   9.708   4.865 -0.1575 -0.4308  0.4330
  575MOL0     C77556   9.532   9.186   5.000  0.2019 -0.3245 -0.0511
  575MOL0     C77557   9.465   9.146   4.884  0.0437  0.0991 -0.3714
  575MOL0     H77558   9.068   8.844   4.680  1.9332  0.3973  1.0255
  575MOL0     H77559   8.957   8.783   4.463  1.0135 -1.4776  1.6565
  575MOL0     H77560   9.091   8.672   4.127  2.0997  4.0087 -1.0891
  575MOL0     H77561   8.990   8.646   4.277 -3.1180  2.3802  1.0908
  575MOL0     H77562   8.926   8.802   4.024  1.4281 -1.3607  0.3830
  575MOL0     H77563   8.852   8.653   4.045  1.4093 -0.5075 -2.4541
  575MOL0     H77564   8.746   8.773   4.275 -1.2015 -1.4826 -0.7258
  575MOL0     H77565   8.817   8.916   4.201 -1.9053  1.4862 -1.0322
  575MOL0     H77566   8.711   8.846   3.984 -0.2403  0.9384  0.6759
  575MOL0     H77567   8.610   8.728   4.060 -1.5198  0.0780 -0.3635
  575MOL0     H77568   8.479   8.896   4.166  2.4532 -1.3706  2.6346
  575MOL0     H77569   8.620   9.008   4.156 -0.0885 -0.4541 -0.5729
  575MOL0     H77570   8.574   9.006   3.898 -0.2179 -0.4568  0.0723
  575MOL0     H77571   8.438   8.896   3.922  1.6261 -1.8285  2.3435
  575MOL0     H77572   8.317   9.054   4.067 -0.0419 -1.1832  0.9772
  575MOL0     H77573   8.447   9.178   4.046 -0.4762 -0.8155 -0.0168
  575MOL0     H77574   8.231   9.194   3.910  0.0424  2.5170 -4.7949
  575MOL0     H77575   8.290   9.050   3.824 -0.5203  0.8028  0.7851
  575MOL0     H77576   8.472   9.382   3.953 -2.4346  3.3934 -1.4327
  575MOL0     H77577   8.614   9.562   3.647  2.6290 -0.8629 -0.9457
  575MOL0     H77578   8.580   9.586   3.818 -0.8556  0.0609 -1.3071
  575MOL0     H77579   8.784   9.444   3.876 -0.3991 -0.2068 -0.5178
  575MOL0     H77580   8.831   9.589   3.794  0.7815 -0.8363  0.7648
  575MOL0     H77581   8.766   9.329   3.635  0.5110 -2.3295  2.0098
  575MOL0     H77582   8.924   9.355   3.694  1.7604  1.3734 -0.9016
  575MOL0     H77583   8.956   9.557   3.565 -0.9679  1.4748 -1.4511
  575MOL0     H77584   8.787   9.570   3.529 -0.2153 -0.6728  1.2949
  575MOL0     H77585   8.919   9.222   3.268 -1.2453  1.1357  1.4166
  575MOL0     H77586   9.178   8.948   3.233 -1.1063  0.6183  1.7717
  575MOL0     H77587   9.008   8.964   3.219  1.4439 -3.1018  3.0810
  575MOL0     H77588   9.112   9.072   3.122  1.2274  1.9112  0.4258
  575MOL0     H77589   9.553   8.984   3.557  1.7748 -2.6039  2.6816
  575MOL0     H77590   9.779   8.860   3.512  0.3450  2.4836 -1.0435
  575MOL0     H77591   9.738   8.476   3.376 -0.2756 -1.6845  0.4104
  575MOL0     H77592   9.804   8.511   3.227 -1.3561 -1.0937 -0.4169
  575MOL0     H77593   9.938   8.376   3.309  0.9805 -1.6594  0.7846
  575MOL0     H77594  10.045   8.508   3.335  0.1889  0.5908 -2.1314
  575MOL0     H77595   9.849   8.410   3.553 -0.9784  0.3756 -0.4618
  575MOL0     H77596   9.997   8.491   3.592  2.6430 -1.7729 -0.4791
  575MOL0     H77597  10.124   8.296   3.504 -0.8375  0.3542  0.2983
  575MOL0     H77598  10.047   8.300   3.652  0.3740 -0.3457  0.2036
  575MOL0     H77599   9.920   8.173   3.403 -0.4483  2.0388  0.3049
  575MOL0     H77600   9.847   8.166   3.573 -0.5654  0.3090  0.4205
  575MOL0     H77601  10.115   8.066   3.508  1.1747 -3.6946  0.7731
  575MOL0     H77602  10.024   8.045   3.657 -0.5835 -1.5528  0.6948
  575MOL0     H77603   9.928   7.898   3.412 -1.2767 -0.9869  0.4158
  575MOL0     H77604   9.874   7.896   3.573 -0.1566 -0.2861  0.1894
  575MOL0     H77605  10.092   7.811   3.661  0.8918  1.1329  0.2139
  575MOL0     H77606  10.170   7.827   3.516 -0.1120  1.1165 -0.3678
  575MOL0     H77607   9.594   8.631   3.212 -0.5852 -1.2336  0.9826
  575MOL0     H77608   9.386   8.746   3.237 -0.3735  1.4504 -1.2070
  575MOL0     H77609   9.314   9.283   3.544  1.5961 -2.4661 -1.0426
  575MOL0     H77610   9.121   9.420   3.582  0.4310 -0.9720  0.9446
  575MOL0     H77611   9.279   8.980   4.248 -0.3853  0.9936 -0.3761
  575MOL0     H77612   9.374   9.055   4.473 -1.0690  0.4451 -1.6608
  575MOL0     H77613   9.191   9.341   4.897  1.2852 -0.2908 -5.2979
  575MOL0     H77614   9.334   9.432   5.098 -1.2570 -0.8755 -1.1783
  575MOL0     H77615   9.655   9.313   5.365 -1.8782 -1.6776  0.3810
  575MOL0     H77616   9.657   9.166   5.280 -0.8922  0.7434  0.9466
  575MOL0     H77617   9.798   9.255   5.094  1.8175 -0.6998  0.3417
  575MOL0     H77618   9.860   9.296   5.244 -0.7328 -1.2065  0.0463
  575MOL0     H77619   9.893   9.481   5.121 -0.2470  2.9177  1.6092
  575MOL0     H77620   9.758   9.528   5.225 -2.5632 -0.5203 -0.0345
  575MOL0     H77621   9.616   9.531   5.054  0.0262  3.6294 -0.1310
  575MOL0     H77622   9.714   9.427   4.942 -0.0773  0.6936  0.0239
  575MOL0     H77623   9.854   9.790   4.803 -1.6503 -0.7539 -0.7664
  575MOL0     H77624   9.628   9.150   5.034 -0.3639 -0.6741  1.2133
  575MOL0     H77625   9.503   9.057   4.835  0.0613 -2.6828  4.1263
  576MOL0     O77626  10.657   6.804   4.376 -0.1113  0.8520  0.1028
  576MOL0     C77627  10.618   6.919   4.355  0.7662 -0.4022 -0.4688
  576MOL0     O77628  10.489   6.961   4.334  0.1844 -0.8299  0.2077
  576MOL0     C77629  10.394   6.864   4.333 -0.5499  0.3878 -0.7359
  576MOL0     C77630  10.412   6.741   4.254  0.0318 -0.7448 -0.5097
  576MOL0     C77631  10.323   6.642   4.263  0.8931  0.5841  0.2668
  576MOL0     C77632  10.211   6.654   4.353 -0.0597  0.3751  0.3321
  576MOL0     O77633  10.126   6.546   4.343 -0.2449 -0.7089 -0.2529
  576MOL0     C77634  10.081   6.496   4.474 -0.5891 -0.2094  0.4249
  576MOL0     C77635   9.985   6.386   4.455  0.5780 -0.9964 -0.2966
  576MOL0     C77636   9.924   6.336   4.589  0.4156 -0.1095  0.1880
  576MOL0     C77637   9.800   6.416   4.643 -0.3977  0.0103  0.0361
  576MOL0     C77638   9.755   6.367   4.775 -0.1812 -0.5925 -0.1838
  576MOL0     C77639   9.665   6.255   4.770  0.3161  0.5839 -0.2178
  576MOL0     C77640   9.588   6.243   4.900  0.4733  0.8843 -0.0324
  576MOL0     C77641   9.543   6.090   4.916 -0.1657  0.3109  0.2652
  576MOL0     N77642   9.446   6.059   4.807 -0.3580 -0.1704  0.1345
  576MOL0     C77643   9.479   6.006   4.685 -0.4103 -0.3438  0.5185
  576MOL0     C77644   9.359   5.979   4.622  0.1297 -0.1613 -0.8282
  576MOL0     C77645   9.348   5.940   4.480  0.5424  0.1656 -0.6335
  576MOL0     C77646   9.311   6.068   4.401  0.5833  0.6111  0.9662
  576MOL0     C77647   9.283   6.048   4.253 -0.6108  0.4508  0.4302
  576MOL0     C77648   9.239   6.168   4.172  0.8352  0.0344 -0.2362
  576MOL0     O77649   9.182   6.111   4.054  0.3117 -0.0846 -0.0032
  576MOL0     C77650   9.054   6.062   4.047  0.0370 -0.2479 -0.0190
  576MOL0     C77651   9.025   5.972   3.942 -0.5925  0.0165 -0.5401
  576MOL0     C77652   8.903   5.915   3.931  1.0995  0.6348 -0.3300
  576MOL0     C77653   8.874   5.856   3.793 -0.7804 -0.7066 -1.2548
  576MOL0     C77654   8.809   5.916   4.041  0.4491  0.9973  1.1036
  576MOL0     C77655   8.688   5.835   4.033  0.3038 -0.2297 -0.2284
  576MOL0     O77656   8.577   5.893   4.086 -0.0148 -0.1150  0.1930
  576MOL0     C77657   8.476   5.812   4.128 -0.9596 -0.5014  0.6545
  576MOL0     C77658   8.493   5.727   4.236  0.1525 -0.2720 -0.0768
  576MOL0     C77659   8.392   5.648   4.281  0.4198  0.1633 -0.6454
  576MOL0     C77660   8.269   5.655   4.206  0.5966 -0.8610  0.4085
  576MOL0     O77661   8.153   5.584   4.237 -0.1027  1.0569  0.1915
  576MOL0     C77662   8.170   5.448   4.270 -0.4469  0.3057  0.1035
  576MOL0     C77663   8.181   5.361   4.142 -0.0845 -0.7132 -0.1346
  576MOL0     C77664   8.058   5.366   4.055 -0.1704 -0.4261  0.9581
  576MOL0     C77665   7.949   5.266   4.096  0.6676  0.5553  0.1236
  576MOL0     C77666   7.821   5.250   4.008 -0.4068 -1.0300 -0.4825
  576MOL0     C77667   7.770   5.389   3.959 -0.1252  0.6733 -0.4146
  576MOL0     C77668   7.629   5.383   3.896 -0.2805 -0.1272 -0.1903
  576MOL0     C77669   7.600   5.275   3.793  0.4307  0.0388 -0.5143
  576MOL0    Cl77670   7.701   5.298   3.634  0.1381 -0.1180 -0.2765
  576MOL0     C77671   8.248   5.754   4.102 -0.3335  0.2897  0.7211
  576MOL0     C77672   8.353   5.836   4.067  0.7081  0.2075 -0.1595
  576MOL0     O77673   8.687   5.721   3.987 -0.5681  0.2292 -0.0623
  576MOL0     C77674   8.828   6.012   4.134  0.1722 -0.6103 -0.7373
  576MOL0     C77675   8.945   6.090   4.131 -0.1328 -0.5029 -0.1862
  576MOL0     N77676   9.256   5.991   4.712  1.5633  0.2645  0.0002
  576MOL0     N77677   9.308   6.038   4.820  0.1422  0.1106 -0.1140
  576MOL0     C77678  10.198   6.773   4.427  1.0598 -0.2682 -1.6322
  576MOL0     C77679  10.286   6.880   4.410  0.9742 -0.4644 -0.3556
  576MOL0     C77680  10.715   7.021   4.379  0.5365  0.3411 -0.4598
  576MOL0     C77681  10.849   6.993   4.417 -0.2031  1.4290 -0.7059
  576MOL0     C77682  10.952   7.101   4.421  0.8199 -0.0247 -0.0932
  576MOL0     C77683  10.914   7.237   4.390 -0.1719  0.3461 -0.2300
  576MOL0     O77684  10.997   7.344   4.374 -0.5210  0.2576 -0.2458
  576MOL0     C77685  11.137   7.329   4.358 -0.4921 -0.1333  0.1654
  576MOL0     C77686  11.179   7.260   4.220 -0.3581  0.3191  0.5073
  576MOL0     C77687  11.157   7.351   4.101  0.1251 -0.3079 -0.4300
  576MOL0     C77688  11.232   7.319   3.978  0.2879 -0.3108  0.4737
  576MOL0     C77689  11.199   7.407   3.868  1.1113  0.4451 -0.6759
  576MOL0     C77690  11.167   7.479   3.780  0.1319  0.2751  0.6796
  576MOL0     C77691  10.777   7.260   4.368 -0.4511 -0.8200  0.2390
  576MOL0     C77692  10.676   7.159   4.355 -0.7124 -0.3511  0.3906
  576MOL0     H77693  10.508   6.723   4.208  1.4261  0.1409  1.8459
  576MOL0     H77694  10.348   6.558   4.198  4.8762  0.1458  2.0293
  576MOL0     H77695  10.165   6.448   4.525  0.2626 -1.1988 -1.8124
  576MOL0     H77696  10.036   6.578   4.530 -2.2977 -0.1136 -1.0179
  576MOL0     H77697   9.906   6.415   4.385 -0.2887 -1.5439  0.4310
  576MOL0     H77698  10.025   6.303   4.397 -0.6167 -0.1875 -2.3502
  576MOL0     H77699   9.903   6.229   4.579 -1.3482  0.3771 -2.2960
  576MOL0     H77700  10.010   6.340   4.656 -0.4610 -2.6596  1.6225
  576MOL0     H77701   9.825   6.522   4.641 -2.1968  0.4913 -2.6338
  576MOL0     H77702   9.718   6.413   4.571 -0.6669  1.7278  0.2472
  576MOL0     H77703   9.833   6.346   4.849  2.4011  1.0304 -2.3027
  576MOL0     H77704   9.697   6.450   4.816 -4.2770 -1.9774 -2.5133
  576MOL0     H77705   9.597   6.282   4.689  2.4381  2.7485 -1.4532
  576MOL0     H77706   9.721   6.164   4.748 -0.2151 -0.0640  1.0055
  576MOL0     H77707   9.650   6.275   4.984  1.5162  0.0393 -0.4537
  576MOL0     H77708   9.508   6.318   4.899  0.4986  0.9265  0.6337
  576MOL0     H77709   9.499   6.072   5.014 -1.1858 -2.9901 -0.6553
  576MOL0     H77710   9.630   6.024   4.918 -2.2639 -2.6414  1.3436
  576MOL0     H77711   9.579   6.004   4.643 -0.5011  1.2790  0.1591
  576MOL0     H77712   9.436   5.886   4.443 -1.4019 -2.9468 -1.1056
  576MOL0     H77713   9.262   5.873   4.472  1.1766 -0.7697  0.2301
  576MOL0     H77714   9.385   6.147   4.415 -0.1989  1.2903  1.3927
  576MOL0     H77715   9.224   6.106   4.456  0.1509 -0.5693  1.1367
  576MOL0     H77716   9.208   5.971   4.236 -1.2671  0.7137  1.9476
  576MOL0     H77717   9.375   6.017   4.203  0.5970  3.1367  0.7827
  576MOL0     H77718   9.314   6.244   4.146 -0.4898  0.7478 -2.2214
  576MOL0     H77719   9.151   6.215   4.217 -0.8291 -0.1767 -3.0661
  576MOL0     H77720   9.091   5.950   3.858  2.6360  0.5202  1.6611
  576MOL0     H77721   8.880   5.747   3.802 -1.8951 -0.9612 -3.0337
  576MOL0     H77722   8.767   5.872   3.777 -1.1244 -1.0182  0.5471
  576MOL0     H77723   8.945   5.888   3.716 -1.0503 -0.4474 -1.4012
  576MOL0     H77724   8.586   5.727   4.292  0.4530  0.6863 -0.5536
  576MOL0     H77725   8.415   5.589   4.368  1.0376  0.4970 -0.5708
  576MOL0     H77726   8.241   5.430   4.351 -0.2636 -1.8249 -0.4919
  576MOL0     H77727   8.087   5.393   4.315  1.6973 -2.3586  1.0851
  576MOL0     H77728   8.264   5.382   4.075  1.6475 -1.2825  1.7254
  576MOL0     H77729   8.212   5.261   4.173  2.1202  0.4837  1.7908
  576MOL0     H77730   8.091   5.350   3.952  1.5884 -1.7899  1.6881
  576MOL0     H77731   8.008   5.464   4.055  1.3398  0.4183 -1.0148
  576MOL0     H77732   7.987   5.166   4.121  1.0714  1.1597  2.0752
  576MOL0     H77733   7.919   5.307   4.192  0.4818  1.9809 -0.5163
  576MOL0     H77734   7.734   5.204   4.055  0.7809 -2.3939  0.4509
  576MOL0     H77735   7.844   5.187   3.922 -1.8376 -0.2982 -1.4592
  576MOL0     H77736   7.768   5.457   4.044 -1.1532 -0.1212  0.2315
  576MOL0     H77737   7.844   5.421   3.885 -1.0033 -0.0757 -1.6717
  576MOL0     H77738   7.610   5.483   3.855  3.1144  0.5065 -0.5385
  576MOL0     H77739   7.551   5.362   3.971 -1.2272 -2.7155 -1.7644
  576MOL0     H77740   7.493   5.277   3.772  0.5400 -0.3754 -1.1690
  576MOL0     H77741   7.619   5.177   3.839  1.8030 -0.3823 -1.8683
  576MOL0     H77742   8.156   5.755   4.045 -0.4357 -0.5176  0.8589
  576MOL0     H77743   8.332   5.907   3.987 -0.8220 -0.1809 -0.1336
  576MOL0     H77744   8.752   6.024   4.210 -0.7463  0.9266 -1.8483
  576MOL0     H77745   8.958   6.169   4.204 -0.6193 -0.9127  0.3590
  576MOL0     H77746  10.107   6.777   4.486  1.0874  1.1162 -1.6685
  576MOL0     H77747  10.268   6.966   4.473 -2.4353  0.1659 -1.9672
  576MOL0     H77748  10.871   6.889   4.436 -0.8620  1.2072 -1.1449
  576MOL0     H77749  11.051   7.081   4.460  0.6968  1.6289  1.1937
  576MOL0     H77750  11.178   7.431   4.360 -1.3710  0.2263  0.6921
  576MOL0     H77751  11.181   7.292   4.451  1.9923  1.3313 -0.3323
  576MOL0     H77752  11.122   7.167   4.205  1.9550 -0.7370 -3.1121
  576MOL0     H77753  11.286   7.237   4.217 -0.0268  1.7853 -2.8746
  576MOL0     H77754  11.185   7.454   4.125  0.9889 -0.6619  0.1327
  576MOL0     H77755  11.049   7.348   4.080  0.3600  4.1301 -3.9512
  576MOL0     H77756  11.234   7.212   3.956 -0.6674  0.1336 -2.1498
  576MOL0     H77757  11.338   7.343   3.995 -0.1379  1.9078  0.2741
  576MOL0     H77758  11.135   7.558   3.714 -0.3631  0.4541  1.1265
  576MOL0     H77759  10.759   7.365   4.348 -0.6776 -0.4508  2.1760
  576MOL0     H77760  10.574   7.189   4.331 -0.0721  1.6610 -0.0105
  577MOL0     O77761  10.866   0.621   6.733 -0.1908 -0.0860  0.0158
  577MOL0     C77762  10.752   0.664   6.765 -0.3366  1.3947  0.2328
  577MOL0     O77763  10.697   0.787   6.735 -0.4400 -0.6741 -0.1251
  577MOL0     C77764  10.776   0.882   6.676 -0.6164  0.2272  0.0938
  577MOL0     C77765  10.816   0.995   6.747  0.7603 -0.1113  0.1393
  577MOL0     C77766  10.900   1.085   6.692  0.3604 -0.3538  0.2859
  577MOL0     C77767  10.946   1.085   6.560  0.2740 -0.9366 -0.2870
  577MOL0     O77768  11.029   1.186   6.518  0.4177 -0.4466  0.1766
  577MOL0     C77769  11.046   1.209   6.381  0.8554 -0.9783  0.1981
  577MOL0     C77770  10.927   1.296   6.334 -0.1212  0.6849 -0.0843
  577MOL0     C77771  10.928   1.318   6.185 -0.6021  0.2723 -0.0254
  577MOL0     C77772  10.786   1.323   6.116 -0.1320 -0.3219 -0.4893
  577MOL0     C77773  10.720   1.189   6.079  0.2005 -1.0253  0.4038
  577MOL0     C77774  10.760   1.135   5.946 -0.4349  0.1887 -1.0083
  577MOL0     C77775  10.910   1.105   5.926  1.3872  0.0801  0.1931
  577MOL0     C77776  10.954   0.989   6.020  0.7838  0.3240  0.5303
  577MOL0     N77777  10.917   0.856   5.965  0.7372 -0.0777 -0.5124
  577MOL0     C77778  10.812   0.777   6.006 -1.0201 -0.1907 -0.4348
  577MOL0     C77779  10.826   0.661   5.942  0.0407 -0.3656  0.3625
  577MOL0     C77780  10.736   0.540   5.977 -0.1801  0.5097  0.0826
  577MOL0     C77781  10.717   0.443   5.862 -0.2146 -0.5277  0.4971
  577MOL0     C77782  10.579   0.468   5.800 -0.2797 -0.4720 -0.0010
  577MOL0     C77783  10.551   0.357   5.695  0.4081 -0.8788 -0.0677
  577MOL0     O77784  10.461   0.272   5.762 -0.1973 -1.1851 -0.4953
  577MOL0     C77785  10.378   0.200   5.681 -0.9694  0.2083 -0.2824
  577MOL0     C77786  10.257   0.157   5.737 -0.1915  0.4486 -0.1333
  577MOL0     C77787  10.178   0.064   5.679  0.1467  0.2369  0.3249
  577MOL0     C77788  10.057   0.023   5.762  0.5416 -0.7154  0.6090
  577MOL0     C77789  10.212   0.008   5.557  0.2493 -0.4609  0.1270
  577MOL0     C77790  10.138  -0.109   5.492 -0.1020 -0.6977 -0.6146
  577MOL0     O77791  10.045  -0.190   5.558  0.6850  0.7705 -0.1572
  577MOL0     C77792   9.989  -0.288   5.486  0.0768  0.1583 -0.2098
  577MOL0     C77793   9.915  -0.256   5.365 -0.3147  0.1585 -0.4373
  577MOL0     C77794   9.853  -0.361   5.301 -1.0638  0.6509  1.0357
  577MOL0     C77795   9.868  -0.492   5.338  0.5423 -0.5780  0.1073
  577MOL0     O77796   9.812  -0.597   5.272  0.1783  0.4321 -0.3444
  577MOL0     C77797   9.716  -0.574   5.163  0.0467  1.2623  0.0286
  577MOL0     C77798   9.687  -0.712   5.106 -0.7484 -1.3018 -0.6133
  577MOL0     C77799   9.774  -0.739   4.970  0.1590 -0.1395 -0.2058
  577MOL0     C77800   9.809  -0.879   4.957 -0.0377 -0.2573  0.5246
  577MOL0     C77801   9.694  -0.977   4.938  0.3055  0.7368 -0.0731
  577MOL0     C77802   9.747  -1.121   4.925  0.7323  0.7974  0.1011
  577MOL0     C77803   9.629  -1.215   4.885  0.3560  0.1326  0.0612
  577MOL0     C77804   9.667  -1.358   4.870  0.2396 -0.0099 -0.0950
  577MOL0    Cl77805   9.840  -1.368   4.809  0.1738 -0.1143 -0.1913
  577MOL0     C77806   9.932  -0.515   5.459  0.3168  0.8216  0.2432
  577MOL0     C77807  10.002  -0.419   5.530  0.0988 -0.3511 -0.0523
  577MOL0     O77808  10.171  -0.127   5.375  0.1744  0.1393  0.9259
  577MOL0     C77809  10.334   0.051   5.499 -0.8056  0.3418  0.0473
  577MOL0     C77810  10.407   0.147   5.552 -0.9061 -0.0705 -0.3957
  577MOL0     N77811  10.923   0.680   5.849 -0.1173 -0.5493 -0.1499
  577MOL0     N77812  10.977   0.795   5.861  0.1706  0.1442  0.5866
  577MOL0     C77813  10.904   0.969   6.490  0.6157 -0.0719  0.6079
  577MOL0     C77814  10.815   0.866   6.545 -0.5413 -0.5515  0.8896
  577MOL0     C77815  10.671   0.574   6.861 -1.1579 -0.6479  0.6089
  577MOL0     C77816  10.718   0.449   6.909  0.0260 -0.2551 -0.2675
  577MOL0     C77817  10.631   0.372   6.985  0.0137 -0.4597 -0.8073
  577MOL0     C77818  10.505   0.421   7.029 -0.7400  0.2330 -1.2677
  577MOL0     O77819  10.428   0.339   7.110  0.3462 -0.7828 -0.9419
  577MOL0     C77820  10.489   0.269   7.216 -0.5469  0.6174 -0.3219
  577MOL0     C77821  10.387   0.242   7.325  0.0992  0.6548 -0.3368
  577MOL0     C77822  10.251   0.193   7.293  0.3104 -1.2489  0.7202
  577MOL0     C77823  10.182   0.144   7.418 -0.7823  1.3236  0.2062
  577MOL0     C77824  10.042   0.116   7.386  0.0389 -0.5917  0.3076
  577MOL0     C77825   9.927   0.092   7.354 -0.2223 -0.4636 -0.2381
  577MOL0     C77826  10.465   0.546   6.988 -0.1572  0.2316  0.0103
  577MOL0     C77827  10.542   0.618   6.903 -0.2030 -0.5414 -0.0806
  577MOL0     H77828  10.780   1.018   6.846  1.5990 -0.2604  0.4890
  577MOL0     H77829  10.926   1.163   6.763 -4.8976  0.9798  1.1907
  577MOL0     H77830  11.139   1.263   6.365  0.4617 -0.3789 -0.1084
  577MOL0     H77831  11.058   1.112   6.330  2.9199 -0.0156 -1.2728
  577MOL0     H77832  10.837   1.239   6.360  1.1576 -2.4447 -2.0314
  577MOL0     H77833  10.922   1.391   6.388  2.3379  2.3039 -2.4758
  577MOL0     H77834  10.985   1.408   6.158 -1.9138  0.8738 -0.8894
  577MOL0     H77835  10.989   1.237   6.145 -1.2413 -0.8129  1.1145
  577MOL0     H77836  10.722   1.388   6.177 -1.2962 -2.5280  0.7512
  577MOL0     H77837  10.804   1.380   6.024 -1.6012  1.3366  0.1905
  577MOL0     H77838  10.745   1.119   6.159  0.1502  1.6612  2.9461
  577MOL0     H77839  10.611   1.194   6.073  0.3149  1.8253 -1.5248
  577MOL0     H77840  10.717   1.035   5.939  2.2397 -1.1534  0.3505
  577MOL0     H77841  10.737   1.209   5.868  1.5662 -1.1036 -2.9382
  577MOL0     H77842  10.937   1.092   5.821 -1.1798 -1.0810 -0.4129
  577MOL0     H77843  10.959   1.201   5.940 -2.0849  2.1534 -0.6068
  577MOL0     H77844  10.928   0.995   6.126  0.1836 -2.1870  0.5985
  577MOL0     H77845  11.063   0.986   6.015  0.7192 -1.2572 -1.3089
  577MOL0     H77846  10.740   0.784   6.087  0.0979 -0.8989  0.6400
  577MOL0     H77847  10.787   0.488   6.059 -4.0878 -1.5654  1.4929
  577MOL0     H77848  10.643   0.573   6.025 -0.9553 -2.6717  1.0107
  577MOL0     H77849  10.709   0.337   5.887 -3.0619 -0.9565 -1.7032
  577MOL0     H77850  10.795   0.462   5.788  0.1008 -1.0758  0.6862
  577MOL0     H77851  10.575   0.558   5.739 -0.0655  1.5329  2.7894
  577MOL0     H77852  10.505   0.472   5.880 -1.1452 -1.2978 -0.7332
  577MOL0     H77853  10.643   0.305   5.667  0.7229 -1.7296  2.3152
  577MOL0     H77854  10.504   0.400   5.606 -2.1314  0.5285  1.8065
  577MOL0     H77855  10.221   0.205   5.827  0.1816  0.9323 -0.2348
  577MOL0     H77856  10.047   0.073   5.859 -0.8716 -3.0783  1.7604
  577MOL0     H77857   9.964   0.035   5.705 -0.1388 -1.5180  1.5284
  577MOL0     H77858  10.065  -0.082   5.791 -2.1696 -0.9667  0.6775
  577MOL0     H77859   9.900  -0.154   5.333 -0.3561  0.8825  1.7294
  577MOL0     H77860   9.784  -0.336   5.221 -1.2360 -4.4885 -0.8289
  577MOL0     H77861   9.633  -0.518   5.208 -0.1809  1.8635 -1.0979
  577MOL0     H77862   9.756  -0.504   5.090 -1.9398  3.6148  1.0435
  577MOL0     H77863   9.687  -0.780   5.192  0.5974  0.7953  1.1331
  577MOL0     H77864   9.582  -0.701   5.075 -0.3368  1.4202 -1.2755
  577MOL0     H77865   9.870  -0.687   4.966 -0.1455  0.3948 -0.6972
  577MOL0     H77866   9.720  -0.693   4.887  2.2639  2.4388 -0.3039
  577MOL0     H77867   9.875  -0.880   4.870  0.5106  2.2144  0.8420
  577MOL0     H77868   9.873  -0.915   5.038  4.1194  1.0262 -1.8734
  577MOL0     H77869   9.651  -0.955   4.840 -1.1967 -0.1260  0.3728
  577MOL0     H77870   9.617  -0.979   5.016  0.5254 -2.5815  0.1891
  577MOL0     H77871   9.828  -1.126   4.853 -2.6163  1.2807 -4.0838
  577MOL0     H77872   9.787  -1.156   5.021 -3.1406 -2.9866  0.6771
  577MOL0     H77873   9.594  -1.186   4.786  1.5224  1.1107 -0.0845
  577MOL0     H77874   9.556  -1.210   4.966  1.8042  2.1104  1.3506
  577MOL0     H77875   9.601  -1.413   4.803  0.6563 -2.0144  1.0588
  577MOL0     H77876   9.665  -1.408   4.968 -0.9414  0.1142 -0.0499
  577MOL0     H77877   9.925  -0.621   5.482 -2.9853  0.8294 -0.1815
  577MOL0     H77878  10.055  -0.439   5.623 -0.3279 -0.2504  0.2192
  577MOL0     H77879  10.376  -0.015   5.424 -4.1987 -1.2649 -0.6434
  577MOL0     H77880  10.509   0.162   5.518  0.0856 -0.8842  2.0107
  577MOL0     H77881  10.928   0.959   6.385  1.1040 -3.8506  0.9342
  577MOL0     H77882  10.786   0.776   6.492  2.3238 -0.7470 -0.5612
  577MOL0     H77883  10.813   0.413   6.869  0.5025 -2.2595  2.3999
  577MOL0     H77884  10.658   0.268   6.998  1.2235  0.1674  2.9128
  577MOL0     H77885  10.526   0.173   7.178 -2.7798 -1.5184  2.4399
  577MOL0     H77886  10.562   0.335   7.264  0.8257 -1.1350  0.1551
  577MOL0     H77887  10.370   0.339   7.372  0.1646  2.0481 -3.0160
  577MOL0     H77888  10.432   0.171   7.396  0.2064  1.2198  0.1680
  577MOL0     H77889  10.248   0.120   7.212 -0.0547  1.2035 -1.6232
  577MOL0     H77890  10.188   0.275   7.258  2.7695 -0.1147 -1.4455
  577MOL0     H77891  10.186   0.224   7.493  2.7899 -0.1756  1.8425
  577MOL0     H77892  10.241   0.058   7.452 -3.5475  0.1559  2.4967
  577MOL0     H77893   9.827   0.057   7.334 -0.0376 -1.0429 -0.1684
  577MOL0     H77894  10.369   0.578   7.028  0.1207  3.4277 -1.5323
  577MOL0     H77895  10.499   0.713   6.874 -0.7259 -1.2027 -1.5814
  578MOL0     O77896   3.299   0.549   6.296  0.2462  0.4985  0.7998
  578MOL0     C77897   3.321   0.428   6.274 -0.1896  0.0093 -0.0296
  578MOL0     O77898   3.232   0.329   6.266  0.4611  0.5795  0.1159
  578MOL0     C77899   3.093   0.331   6.261  1.4911 -0.1312  0.6010
  578MOL0     C77900   3.024   0.451   6.280  0.9375 -0.1543 -0.3260
  578MOL0     C77901   2.889   0.445   6.280  0.8378 -0.1075 -0.1854
  578MOL0     C77902   2.819   0.327   6.251 -0.3621  0.2856  0.2875
  578MOL0     O77903   2.688   0.329   6.267 -1.5774  0.4644  0.0024
  578MOL0     C77904   2.622   0.324   6.136  0.2047 -0.1876  0.0720
  578MOL0     C77905   2.476   0.348   6.155  0.5554 -0.3582  0.4739
  578MOL0     C77906   2.398   0.414   6.043  0.1346 -0.0579  0.3109
  578MOL0     C77907   2.254   0.431   6.099  0.2610  0.4923 -0.0421
  578MOL0     C77908   2.170   0.553   6.067  0.0117  0.1822 -0.0040
  578MOL0     C77909   2.051   0.562   6.164  0.3780  0.4633  0.5868
  578MOL0     C77910   1.952   0.665   6.104 -0.0238  0.5134 -0.2436
  578MOL0     C77911   1.825   0.665   6.189 -0.5507  0.0720 -0.0815
  578MOL0     N77912   1.736   0.549   6.157  0.1160  0.1161 -0.6737
  578MOL0     C77913   1.644   0.542   6.055  0.5291  0.2733  0.1510
  578MOL0     C77914   1.597   0.417   6.054 -0.1507  0.9706  0.3414
  578MOL0     C77915   1.489   0.363   5.970  0.5556  0.3553  0.1307
  578MOL0     C77916   1.479   0.440   5.836  0.1117  0.7439  0.6934
  578MOL0     C77917   1.359   0.383   5.750  0.3705 -0.6043 -0.3773
  578MOL0     C77918   1.219   0.439   5.795 -1.1482  0.1102 -0.7362
  578MOL0     O77919   1.212   0.589   5.774 -0.3782 -0.2409  0.3235
  578MOL0     C77920   1.097   0.650   5.805 -0.0455 -0.3088  0.2322
  578MOL0     C77921   1.106   0.784   5.830 -0.2672  1.1414  1.1826
  578MOL0     C77922   0.998   0.872   5.869  0.9052  0.6669 -0.8176
  578MOL0     C77923   1.018   1.023   5.863  0.4870 -0.5417 -0.3218
  578MOL0     C77924   0.870   0.804   5.888  0.5800  0.7185 -0.5253
  578MOL0     C77925   0.748   0.881   5.913  0.0707  0.2574  0.5329
  578MOL0     O77926   0.632   0.823   5.889  0.4401  1.0313  0.0777
  578MOL0     C77927   0.520   0.897   5.911 -0.0256 -0.3786 -0.4318
  578MOL0     C77928   0.427   0.863   6.009  0.0739 -0.2045 -0.1448
  578MOL0     C77929   0.296   0.923   6.014  0.3434 -0.3114  0.1375
  578MOL0     C77930   0.255   1.008   5.914  0.1017  0.6685  0.7679
  578MOL0     O77931   0.125   1.057   5.926 -0.4245 -0.5976  0.0126
  578MOL0     C77932   0.067   1.086   5.799  0.0914  0.7202 -0.7431
  578MOL0     C77933  -0.087   1.053   5.792  0.1476  0.2655  1.4475
  578MOL0     C77934  -0.135   1.058   5.644  0.1214  0.1561  0.8472
  578MOL0     C77935  -0.264   1.152   5.626 -0.4854 -0.6980 -0.0817
  578MOL0     C77936  -0.328   1.157   5.480 -0.6521 -0.9306 -0.2600
  578MOL0     C77937  -0.474   1.200   5.486  0.4296 -0.4126 -0.3633
  578MOL0     C77938  -0.527   1.253   5.356  0.1154 -0.5384 -0.1210
  578MOL0     C77939  -0.561   1.152   5.255 -0.1749 -0.6677  0.5032
  578MOL0    Cl77940  -0.626   1.212   5.096  0.1485  0.3653 -0.0591
  578MOL0     C77941   0.351   1.060   5.824  1.1130 -0.2222 -0.3972
  578MOL0     C77942   0.478   0.997   5.817  0.3331 -0.2263 -0.0518
  578MOL0     O77943   0.760   0.993   5.961 -0.2409  0.6306 -0.9117
  578MOL0     C77944   0.853   0.670   5.861  0.2389  0.0023 -1.0457
  578MOL0     C77945   0.961   0.599   5.806  0.0385  0.6844 -0.4740
  578MOL0     N77946   1.643   0.343   6.163 -0.0103  0.0682  0.0842
  578MOL0     N77947   1.719   0.432   6.222 -0.2955 -0.4157 -0.4579
  578MOL0     C77948   2.883   0.206   6.239  0.6684  0.5868 -0.1843
  578MOL0     C77949   3.026   0.207   6.241  0.6723 -0.5870 -0.3695
  578MOL0     C77950   3.452   0.370   6.299 -1.1966 -0.2721  0.4165
  578MOL0     C77951   3.481   0.234   6.316  0.2713 -0.1224  0.2010
  578MOL0     C77952   3.615   0.187   6.332 -0.4615  0.1018 -0.2317
  578MOL0     C77953   3.719   0.280   6.337  0.4411 -0.3886 -0.4972
  578MOL0     O77954   3.841   0.238   6.357 -0.5853 -0.2987  0.0046
  578MOL0     C77955   3.884   0.235   6.496  1.0206 -0.7543  0.2378
  578MOL0     C77956   3.874   0.095   6.550  0.0960 -0.1772 -0.2770
  578MOL0     C77957   3.960  -0.010   6.486 -0.3496  0.3177  0.4228
  578MOL0     C77958   4.110   0.002   6.509 -0.7407  0.1603 -0.5460
  578MOL0     C77959   4.170  -0.124   6.462 -0.6199  0.9751  0.0011
  578MOL0     C77960   4.223  -0.231   6.427 -0.5548  0.2133 -0.0406
  578MOL0     C77961   3.693   0.410   6.309 -0.0093 -0.1308  0.6120
  578MOL0     C77962   3.566   0.462   6.297  0.8118  1.0644 -0.0344
  578MOL0     H77963   3.070   0.545   6.310  2.1438 -1.4012  2.0504
  578MOL0     H77964   2.824   0.531   6.289 -1.1047 -1.0666 -3.4515
  578MOL0     H77965   2.659   0.401   6.068 -2.3046  1.4760  0.4431
  578MOL0     H77966   2.633   0.236   6.073  1.0479  0.0310 -0.1008
  578MOL0     H77967   2.425   0.261   6.198 -1.6098  0.3319 -0.5360
  578MOL0     H77968   2.473   0.428   6.230 -1.1315 -0.1845  0.2641
  578MOL0     H77969   2.442   0.511   6.020  2.7714 -1.2607 -0.0602
  578MOL0     H77970   2.398   0.354   5.952 -0.8127  1.7807 -0.9716
  578MOL0     H77971   2.203   0.341   6.061  1.2148 -1.5390  3.1508
  578MOL0     H77972   2.256   0.424   6.208 -1.2507  2.0278  0.1301
  578MOL0     H77973   2.225   0.643   6.097 -1.6004  1.4524 -0.6396
  578MOL0     H77974   2.147   0.541   5.961  1.6473  0.1083 -0.3758
  578MOL0     H77975   1.995   0.468   6.163 -3.4816  2.5520  1.1011
  578MOL0     H77976   2.078   0.580   6.269 -0.8517 -1.2812  1.2518
  578MOL0     H77977   1.996   0.764   6.114 -4.1515  2.5983 -0.6947
  578MOL0     H77978   1.924   0.649   5.999  1.2062 -1.2982 -0.3610
  578MOL0     H77979   1.761   0.753   6.188  1.3825  1.6535 -3.4391
  578MOL0     H77980   1.851   0.648   6.294  1.6793  0.7400 -0.4718
  578MOL0     H77981   1.616   0.617   5.980  1.8991 -0.0062 -0.6749
  578MOL0     H77982   1.512   0.256   5.968 -2.7812 -0.5404  1.8933
  578MOL0     H77983   1.391   0.362   6.018  1.7461  0.9570  2.6972
  578MOL0     H77984   1.572   0.439   5.777 -0.6130  3.0675 -0.6282
  578MOL0     H77985   1.456   0.545   5.854  1.0141  1.4657 -1.8777
  578MOL0     H77986   1.354   0.275   5.761 -1.5407 -0.5567 -0.4659
  578MOL0     H77987   1.370   0.418   5.647  1.3010  0.1234 -0.0450
  578MOL0     H77988   1.207   0.423   5.903 -0.7432  0.4772 -0.6327
  578MOL0     H77989   1.138   0.383   5.748 -1.8127 -2.2908  2.8884
  578MOL0     H77990   1.205   0.823   5.810 -0.2548 -0.5681 -3.1050
  578MOL0     H77991   0.999   1.063   5.963  0.2215 -1.1879 -0.1068
  578MOL0     H77992   1.117   1.060   5.832  1.5935 -1.4381  1.8786
  578MOL0     H77993   0.941   1.063   5.798 -2.5734 -1.2836  2.5424
  578MOL0     H77994   0.457   0.778   6.070 -1.2286 -0.5794  0.0053
  578MOL0     H77995   0.234   0.894   6.098 -0.8575  2.2603  0.2398
  578MOL0     H77996   0.071   1.195   5.800 -0.3672  0.7749  1.4946
  578MOL0     H77997   0.119   1.037   5.716 -1.4692  1.5645 -2.2805
  578MOL0     H77998  -0.098   0.950   5.828  0.2485 -0.1769  0.2744
  578MOL0     H77999  -0.142   1.123   5.854  2.6672  3.6631  0.1390
  578MOL0     H78000  -0.155   0.959   5.603 -2.6337  1.4030 -1.1745
  578MOL0     H78001  -0.053   1.088   5.577  1.4451 -0.6776  2.0449
  578MOL0     H78002  -0.348   1.144   5.696 -1.6709  2.3724 -1.0286
  578MOL0     H78003  -0.226   1.253   5.642  0.2485 -0.5972 -2.1712
  578MOL0     H78004  -0.334   1.052   5.448  1.0713 -1.3800  0.8011
  578MOL0     H78005  -0.271   1.218   5.410  1.5276  1.7702  3.4999
  578MOL0     H78006  -0.521   1.109   5.525  0.1933  0.0887  0.5206
  578MOL0     H78007  -0.491   1.268   5.569 -0.4168 -1.7572  0.5979
  578MOL0     H78008  -0.449   1.323   5.323 -0.8795 -0.0962 -1.6516
  578MOL0     H78009  -0.605   1.327   5.374  0.5926  0.2104 -0.9795
  578MOL0     H78010  -0.647   1.102   5.300 -1.5619  0.5838 -0.6196
  578MOL0     H78011  -0.473   1.090   5.234  0.5381 -0.0524  1.6018
  578MOL0     H78012   0.327   1.143   5.759 -2.0528  0.8185  1.8521
  578MOL0     H78013   0.545   1.022   5.735 -2.4341  1.1936 -2.0462
  578MOL0     H78014   0.767   0.615   5.897 -1.5044  3.4738  0.4812
  578MOL0     H78015   0.958   0.496   5.771  2.1651  0.1615  0.6672
  578MOL0     H78016   2.839   0.107   6.241  1.8904 -0.0029 -1.2454
  578MOL0     H78017   3.088   0.118   6.243 -1.1502 -1.8853  1.0712
  578MOL0     H78018   3.406   0.157   6.298  0.8624 -0.7614  0.4151
  578MOL0     H78019   3.648   0.084   6.337 -2.1695 -0.5816 -1.9761
  578MOL0     H78020   3.989   0.268   6.502  1.3101 -1.8318  1.5384
  578MOL0     H78021   3.820   0.302   6.554  0.6638  0.0119 -0.9811
  578MOL0     H78022   3.770   0.062   6.546  0.8309 -3.0831  1.4597
  578MOL0     H78023   3.917   0.089   6.651  1.1832  2.4832 -0.4964
  578MOL0     H78024   3.934  -0.017   6.380 -1.1417 -0.6927  0.6642
  578MOL0     H78025   3.932  -0.110   6.518 -0.4268 -0.5931 -2.2216
  578MOL0     H78026   4.130  -0.001   6.617 -0.2638 -0.5439 -0.6443
  578MOL0     H78027   4.153   0.090   6.459  0.8336  1.4655  2.7631
  578MOL0     H78028   4.284  -0.307   6.382  0.1871  0.3797  0.6591
  578MOL0     H78029   3.774   0.481   6.299 -1.9166  2.4516  2.4067
  578MOL0     H78030   3.534   0.565   6.285 -1.0698  0.4196 -0.8827
  579MOL0     O78031   0.036  10.131   5.360  0.6020  0.1331 -0.2157
  579MOL0     C78032  -0.001  10.232   5.301 -0.2104  0.7690 -0.4236
  579MOL0     O78033  -0.128  10.282   5.303 -0.7627  0.3436 -0.2980
  579MOL0     C78034  -0.227  10.225   5.382 -0.2747  0.1421 -0.0645
  579MOL0     C78035  -0.219  10.148   5.506 -0.4827 -0.5529  0.4757
  579MOL0     C78036  -0.332  10.128   5.585 -0.5619  0.5889  0.1799
  579MOL0     C78037  -0.459  10.156   5.535 -0.3281  0.5566 -0.3166
  579MOL0     O78038  -0.589  10.125   5.586 -0.9270 -0.1027 -0.8953
  579MOL0     C78039  -0.603  10.033   5.700  0.4915  0.1373 -0.0901
  579MOL0     C78040  -0.554  10.094   5.836  0.7456  0.7273  1.3907
  579MOL0     C78041  -0.660  10.152   5.921 -0.3601  0.0697 -0.5323
  579MOL0     C78042  -0.616  10.203   6.056 -0.4502  0.5614 -0.8663
  579MOL0     C78043  -0.705  10.306   6.128 -0.6647 -1.3250  0.3356
  579MOL0     C78044  -0.640  10.358   6.256 -0.6254 -0.1073 -1.5708
  579MOL0     C78045  -0.745  10.447   6.326 -0.3762  0.4524 -1.0702
  579MOL0     C78046  -0.677  10.529   6.433 -0.0674 -0.4615  1.6499
  579MOL0     N78047  -0.670  10.434   6.545  0.3013  0.0974  0.5103
  579MOL0     C78048  -0.763  10.431   6.645  0.0302  0.1955 -0.4756
  579MOL0     C78049  -0.729  10.323   6.720  0.5728  0.2618  0.4646
  579MOL0     C78050  -0.784  10.278   6.851 -0.0837  0.0978 -0.6881
  579MOL0     C78051  -0.891  10.171   6.826  1.2363 -0.2695 -0.2455
  579MOL0     C78052  -0.830  10.031   6.773  0.4163  0.2196 -0.1850
  579MOL0     C78053  -0.884  10.000   6.628  0.4567  0.2917 -0.1134
  579MOL0     O78054  -1.032   9.976   6.619 -0.0368  0.1287 -0.3745
  579MOL0     C78055  -1.070   9.908   6.511 -0.5728  0.8201  0.2758
  579MOL0     C78056  -1.181   9.830   6.526 -0.5124 -0.0432  0.5793
  579MOL0     C78057  -1.228   9.742   6.431 -0.5237 -1.2897 -0.6206
  579MOL0     C78058  -1.358   9.662   6.451  0.1264 -0.0267 -0.9086
  579MOL0     C78059  -1.155   9.732   6.309  0.0741  0.1110  0.7085
  579MOL0     C78060  -1.193   9.651   6.194 -0.8120  0.5459 -1.1037
  579MOL0     O78061  -1.195   9.519   6.229 -0.0601 -0.5121  0.3748
  579MOL0     C78062  -1.209   9.416   6.144 -0.2844 -0.4755  1.2230
  579MOL0     C78063  -1.262   9.296   6.194 -0.6431 -0.6892  0.6301
  579MOL0     C78064  -1.297   9.182   6.123 -0.6323  0.5954  1.2168
  579MOL0     C78065  -1.269   9.187   5.982 -0.1594 -0.1484  0.0716
  579MOL0     O78066  -1.290   9.090   5.891  0.6011 -0.4212 -0.7253
  579MOL0     C78067  -1.371   8.974   5.931 -0.3285  0.9830 -0.4261
  579MOL0     C78068  -1.427   8.896   5.811 -0.8038  0.6679 -0.4809
  579MOL0     C78069  -1.484   8.757   5.827  0.6420  0.1563  1.1321
  579MOL0     C78070  -1.502   8.693   5.692 -0.4377 -0.8257 -0.0555
  579MOL0     C78071  -1.612   8.586   5.693 -0.5956  0.6124 -0.2012
  579MOL0     C78072  -1.638   8.527   5.549  0.4594  0.3051  1.0550
  579MOL0     C78073  -1.750   8.434   5.538  0.3019 -0.1605 -0.9969
  579MOL0     C78074  -1.790   8.406   5.391  0.5882 -0.0082 -0.5451
  579MOL0    Cl78075  -1.663   8.323   5.304  0.0359 -0.3072  0.5012
  579MOL0     C78076  -1.216   9.303   5.928  0.6930  0.2357 -0.1600
  579MOL0     C78077  -1.194   9.416   6.004  0.0195 -1.0132  0.3748
  579MOL0     O78078  -1.208   9.708   6.092 -0.2198  0.5072  0.5980
  579MOL0     C78079  -1.031   9.785   6.297  0.8119 -0.1830 -0.2914
  579MOL0     C78080  -0.991   9.878   6.395  0.2244 -0.9927 -0.4582
  579MOL0     N78081  -0.624  10.264   6.662 -1.3704  0.1593  0.0687
  579MOL0     N78082  -0.590  10.329   6.554 -0.6577 -0.5342 -0.2939
  579MOL0     C78083  -0.467  10.225   5.419 -0.6700  0.6769 -0.6020
  579MOL0     C78084  -0.354  10.265   5.342 -0.1839 -0.1396 -1.1064
  579MOL0     C78085   0.097  10.298   5.217 -0.4609 -0.1148 -0.7606
  579MOL0     C78086   0.056  10.402   5.137 -0.2628  0.0766  0.7887
  579MOL0     C78087   0.145  10.476   5.061 -0.8094  0.3697  0.5606
  579MOL0     C78088   0.281  10.448   5.051  0.7021  0.0158 -0.0387
  579MOL0     O78089   0.384  10.511   4.988 -0.8991 -0.2552  0.4259
  579MOL0     C78090   0.345  10.603   4.883 -0.6925 -0.6193  0.0713
  579MOL0     C78091   0.469  10.656   4.824 -1.1915 -0.1377  0.4076
  579MOL0     C78092   0.552  10.765   4.887  0.8896 -0.1706  0.6209
  579MOL0     C78093   0.655  10.717   4.988 -1.5890  0.0821 -0.4885
  579MOL0     C78094   0.783  10.702   4.927 -0.4794 -0.6564  1.0080
  579MOL0     C78095   0.885  10.704   4.873  0.3498 -0.5556  0.6917
  579MOL0     C78096   0.323  10.342   5.135 -0.5191  0.3928  0.8529
  579MOL0     C78097   0.237  10.267   5.209  0.6227  0.2172 -0.1291
  579MOL0     H78098  -0.131  10.131   5.567 -2.4928 -0.0225  3.7836
  579MOL0     H78099  -0.319  10.085   5.684 -2.0393  2.1731  1.1064
  579MOL0     H78100  -0.709  10.006   5.707  0.6312 -3.1552 -5.0819
  579MOL0     H78101  -0.540   9.947   5.672 -0.5434 -0.9842  0.9165
  579MOL0     H78102  -0.517  10.008   5.892  0.3747 -0.3264  0.0656
  579MOL0     H78103  -0.465  10.157   5.825  0.5488  0.9286  0.9223
  579MOL0     H78104  -0.705  10.241   5.877 -3.1478 -0.9312  0.0904
  579MOL0     H78105  -0.735  10.075   5.940 -2.1062  1.7656 -0.2358
  579MOL0     H78106  -0.602  10.126   6.133  2.2611  1.3848 -0.4138
  579MOL0     H78107  -0.517  10.245   6.033 -0.3674  0.1392 -1.2843
  579MOL0     H78108  -0.735  10.387   6.061 -0.8322 -2.5763 -1.1418
  579MOL0     H78109  -0.801  10.254   6.142 -1.2776 -0.2267  0.3861
  579MOL0     H78110  -0.609  10.274   6.319 -0.3722  1.1580  0.0333
  579MOL0     H78111  -0.545  10.408   6.239  0.5908 -0.6518  2.6051
  579MOL0     H78112  -0.803  10.503   6.253 -1.8767 -0.3704 -0.5623
  579MOL0     H78113  -0.825  10.389   6.373 -0.4082 -0.2838 -1.9933
  579MOL0     H78114  -0.731  10.622   6.456  0.8983  1.0628 -1.6193
  579MOL0     H78115  -0.586  10.571   6.390 -2.6618  2.9233 -1.2539
  579MOL0     H78116  -0.841  10.506   6.657  1.6158  1.8001  0.3038
  579MOL0     H78117  -0.711  10.222   6.911 -0.7677  2.2277  2.3411
  579MOL0     H78118  -0.826  10.365   6.900  3.7156  3.4686 -2.7617
  579MOL0     H78119  -0.956  10.221   6.753 -0.3104 -0.4116  0.9913
  579MOL0     H78120  -0.952  10.167   6.916 -1.4549  0.4124 -1.9122
  579MOL0     H78121  -0.868   9.958   6.845  0.5191  1.1916  0.8785
  579MOL0     H78122  -0.722  10.019   6.768  0.1798 -2.4305 -0.8102
  579MOL0     H78123  -0.832   9.908   6.601 -1.0006 -0.7494  0.4794
  579MOL0     H78124  -0.856  10.077   6.556  1.7731 -1.1270 -1.1769
  579MOL0     H78125  -1.234   9.833   6.621  1.0709 -0.9056  1.5175
  579MOL0     H78126  -1.347   9.554   6.468 -1.8447 -0.2624 -0.8781
  579MOL0     H78127  -1.416   9.693   6.539  2.2211 -2.4120  1.5002
  579MOL0     H78128  -1.421   9.674   6.362  2.1987  1.9619 -2.2063
  579MOL0     H78129  -1.281   9.286   6.300 -2.1478 -2.5989  0.2275
  579MOL0     H78130  -1.342   9.094   6.167  0.6789  0.2420  1.9126
  579MOL0     H78131  -1.306   8.911   5.993 -1.7365  1.5875  1.7697
  579MOL0     H78132  -1.459   9.001   5.990  0.4847 -0.8808  1.8150
  579MOL0     H78133  -1.490   8.962   5.749  2.5382  1.2093 -3.6199
  579MOL0     H78134  -1.335   8.877   5.756 -0.0484  0.3317  0.8766
  579MOL0     H78135  -1.580   8.766   5.880  1.2208 -0.9690  2.4471
  579MOL0     H78136  -1.434   8.686   5.894 -0.0987 -3.0790 -1.5134
  579MOL0     H78137  -1.538   8.765   5.618 -0.3192 -2.7850 -2.1366
  579MOL0     H78138  -1.401   8.665   5.662 -0.0084  0.3596  0.2196
  579MOL0     H78139  -1.707   8.634   5.718 -0.1871  1.5775 -0.4505
  579MOL0     H78140  -1.592   8.496   5.751 -0.5087 -1.0026 -2.6066
  579MOL0     H78141  -1.654   8.604   5.473  0.8086  0.2312  0.9058
  579MOL0     H78142  -1.544   8.473   5.531  2.5441  4.6100 -2.9941
  579MOL0     H78143  -1.839   8.482   5.580  0.8197  0.9839 -1.1954
  579MOL0     H78144  -1.717   8.349   5.599  1.5152  0.8744 -0.1737
  579MOL0     H78145  -1.817   8.496   5.336  0.8783  0.7709  0.5605
  579MOL0     H78146  -1.877   8.340   5.386  0.6289  0.0313 -2.2771
  579MOL0     H78147  -1.192   9.289   5.823 -2.2453 -3.9522 -0.5040
  579MOL0     H78148  -1.160   9.500   5.945  2.6201 -0.6647  2.2223
  579MOL0     H78149  -0.980   9.778   6.201 -0.8736 -0.8494 -1.1808
  579MOL0     H78150  -0.897   9.931   6.381 -1.3887  1.4339 -2.9274
  579MOL0     H78151  -0.569  10.231   5.383 -1.8164 -3.1091  1.4541
  579MOL0     H78152  -0.359  10.312   5.245  0.2215 -2.0895 -2.1175
  579MOL0     H78153  -0.046  10.438   5.144 -1.1991 -2.0887 -0.4765
  579MOL0     H78154   0.118  10.571   5.014  4.4327  2.3124  0.8109
  579MOL0     H78155   0.283  10.544   4.814 -1.9636  0.3963  0.2924
  579MOL0     H78156   0.280  10.682   4.921 -0.9467 -1.7454  2.0925
  579MOL0     H78157   0.453  10.688   4.721  0.9400 -1.2749 -0.3440
  579MOL0     H78158   0.542  10.576   4.811  2.5182  2.5582  2.3439
  579MOL0     H78159   0.492  10.837   4.943  0.0590 -0.4329  0.0809
  579MOL0     H78160   0.588  10.822   4.801 -2.2177 -0.0858 -0.7580
  579MOL0     H78161   0.639  10.617   5.028  4.6121 -0.1539  2.5996
  579MOL0     H78162   0.664  10.779   5.078  0.1739 -0.0175 -0.5660
  579MOL0     H78163   0.985  10.681   4.843 -0.0968 -2.8741  0.7360
  579MOL0     H78164   0.430  10.330   5.144 -0.3364  1.3297  0.0602
  579MOL0     H78165   0.279  10.191   5.274 -0.2408 -0.4889 -0.3793
  580MOL0     O78166   1.841   0.581   2.899 -0.0388 -0.5410 -0.2501
  580MOL0     C78167   1.831   0.589   3.019  0.6952  0.0659 -0.0955
  580MOL0     O78168   1.879   0.502   3.109  0.7014  0.7999 -0.6667
  580MOL0     C78169   1.932   0.384   3.066 -0.2324 -0.4470  0.6084
  580MOL0     C78170   2.052   0.333   3.118  0.1068 -0.4500 -0.5999
  580MOL0     C78171   2.100   0.209   3.103 -0.0861  0.2018 -0.5755
  580MOL0     C78172   2.013   0.121   3.030 -0.2062 -0.7390 -0.1714
  580MOL0     O78173   2.062  -0.005   3.017  0.1300 -0.2280 -0.3135
  580MOL0     C78174   1.982  -0.122   3.027  0.2040 -0.4128 -1.1193
  580MOL0     C78175   1.902  -0.105   3.159  0.0694  0.7815 -1.1949
  580MOL0     C78176   1.799  -0.216   3.175 -0.2069 -0.5148  0.2622
  580MOL0     C78177   1.679  -0.206   3.088 -0.8575  0.5471  0.2577
  580MOL0     C78178   1.606  -0.345   3.091  0.2196  0.6906 -0.3330
  580MOL0     C78179   1.511  -0.357   2.978  0.2521  0.7187  0.3799
  580MOL0     C78180   1.420  -0.483   2.981  0.7908 -0.0990 -0.1776
  580MOL0     C78181   1.322  -0.501   2.862  0.0793  0.0579 -0.8992
  580MOL0     N78182   1.380  -0.565   2.748  0.0171  0.3232 -0.1524
  580MOL0     C78183   1.442  -0.506   2.644 -1.4207 -0.5995 -0.0012
  580MOL0     C78184   1.489  -0.612   2.574 -0.4395 -0.5295 -0.3640
  580MOL0     C78185   1.548  -0.608   2.437 -0.2398  0.2581  0.6675
  580MOL0     C78186   1.496  -0.502   2.336 -0.6268  0.0572 -0.4965
  580MOL0     C78187   1.343  -0.497   2.325  0.0632  0.5764  0.2260
  580MOL0     C78188   1.311  -0.513   2.180  0.8013  0.7413 -0.2607
  580MOL0     O78189   1.174  -0.529   2.171 -0.6609  0.3764  0.3840
  580MOL0     C78190   1.100  -0.418   2.142 -0.3107 -0.5467 -0.0399
  580MOL0     C78191   0.964  -0.458   2.137 -1.4673  0.5111 -0.2188
  580MOL0     C78192   0.859  -0.374   2.103 -1.2489  0.3678 -0.3314
  580MOL0     C78193   0.725  -0.437   2.079  0.4715  0.6766 -0.4848
  580MOL0     C78194   0.880  -0.232   2.093 -0.3772  1.2816  0.9903
  580MOL0     C78195   0.770  -0.133   2.076 -0.5406 -0.3761 -0.3147
  580MOL0     O78196   0.789  -0.042   1.976  0.4971 -0.5732 -0.0390
  580MOL0     C78197   0.804  -0.099   1.853 -0.2357 -1.0485 -1.1554
  580MOL0     C78198   0.747  -0.217   1.804 -0.0750 -1.0876 -0.9181
  580MOL0     C78199   0.803  -0.275   1.696  0.7056 -0.1290 -0.0137
  580MOL0     C78200   0.913  -0.219   1.630  0.8888 -0.2328 -0.2375
  580MOL0     O78201   0.972  -0.293   1.525 -0.0413 -0.5329 -0.4896
  580MOL0     C78202   0.952  -0.232   1.396  0.9365  0.2645 -0.2518
  580MOL0     C78203   1.052  -0.125   1.345  0.5004 -0.0909  0.2446
  580MOL0     C78204   1.056  -0.111   1.187  0.6611 -0.5186  0.3823
  580MOL0     C78205   1.137  -0.221   1.123 -0.5906 -0.0284  0.2472
  580MOL0     C78206   1.064  -0.283   0.999 -0.1424 -0.0519 -0.1649
  580MOL0     C78207   1.160  -0.379   0.940 -0.3652  0.9370  0.9638
  580MOL0     C78208   1.197  -0.502   1.025 -0.1034  0.6313 -0.1007
  580MOL0     C78209   1.069  -0.582   1.081 -1.9106  0.0369  0.3223
  580MOL0    Cl78210   1.155  -0.712   1.159 -0.3190 -0.3543  0.6586
  580MOL0     C78211   0.963  -0.103   1.678  0.0782 -0.3153  0.6341
  580MOL0     C78212   0.910  -0.040   1.788 -0.2105 -0.2609  0.4513
  580MOL0     O78213   0.681  -0.135   2.160  0.4403  0.2108  0.0882
  580MOL0     C78214   1.012  -0.196   2.104  0.1459  0.4474 -1.1488
  580MOL0     C78215   1.118  -0.284   2.135 -0.5983 -0.6830 -0.8568
  580MOL0     N78216   1.477  -0.730   2.646  0.4083 -0.2674 -0.4236
  580MOL0     N78217   1.410  -0.695   2.751  0.2906  0.6626 -0.7985
  580MOL0     C78218   1.894   0.169   2.987 -0.5711 -0.8493  0.3620
  580MOL0     C78219   1.848   0.301   3.005  0.1907  0.0444  0.1975
  580MOL0     C78220   1.745   0.703   3.081  0.3877 -0.2560  0.2783
  580MOL0     C78221   1.639   0.770   3.019  0.3124  0.1795 -0.2474
  580MOL0     C78222   1.559   0.864   3.078  0.2772 -0.3812 -0.8604
  580MOL0     C78223   1.596   0.915   3.200  0.0309 -0.2313  0.7656
  580MOL0     O78224   1.524   1.017   3.238 -0.2161 -0.5162 -0.0627
  580MOL0     C78225   1.577   1.116   3.334  0.9306  0.3072 -0.0954
  580MOL0     C78226   1.475   1.231   3.350 -0.6445  0.2525  0.0441
  580MOL0     C78227   1.511   1.320   3.469 -0.2252 -0.8481  0.5565
  580MOL0     C78228   1.438   1.282   3.607 -0.1245 -0.7368  0.2888
  580MOL0     C78229   1.514   1.176   3.672 -0.7883 -0.5803 -0.1383
  580MOL0     C78230   1.562   1.079   3.719 -0.1230 -0.1512  0.3743
  580MOL0     C78231   1.705   0.854   3.272  0.5229 -0.1536  0.4062
  580MOL0     C78232   1.780   0.751   3.209 -0.3231 -0.5487 -0.1989
  580MOL0     H78233   2.101   0.409   3.178  0.7282  0.8250 -2.6145
  580MOL0     H78234   2.187   0.162   3.148 -0.4466  0.1285  0.0716
  580MOL0     H78235   1.920  -0.143   2.940  0.0155 -2.7051 -0.5097
  580MOL0     H78236   2.042  -0.211   3.049  1.5209  0.8815  0.8978
  580MOL0     H78237   1.970  -0.117   3.244  0.1700  0.0819 -1.3682
  580MOL0     H78238   1.858  -0.004   3.159 -2.0043 -0.0642 -0.6528
  580MOL0     H78239   1.857  -0.308   3.161  2.5150  1.1301 -0.1097
  580MOL0     H78240   1.769  -0.219   3.280  3.0653 -1.8122  1.2835
  580MOL0     H78241   1.614  -0.124   3.122 -2.4581  0.4843 -2.3529
  580MOL0     H78242   1.699  -0.176   2.985 -1.9006  2.6610  0.6125
  580MOL0     H78243   1.675  -0.427   3.071 -1.2439 -0.7453  0.2976
  580MOL0     H78244   1.553  -0.365   3.185  0.3543 -1.4936 -0.6892
  580MOL0     H78245   1.449  -0.268   2.965  2.2049  1.9685 -0.9687
  580MOL0     H78246   1.549  -0.372   2.876 -3.4761 -3.2689 -0.7235
  580MOL0     H78247   1.485  -0.572   2.976  1.3723  0.3467 -0.8717
  580MOL0     H78248   1.371  -0.485   3.078 -0.8624 -3.7050 -0.9129
  580MOL0     H78249   1.259  -0.413   2.845 -0.3099 -0.0002  0.1507
  580MOL0     H78250   1.265  -0.585   2.903  2.6579 -1.4492 -0.1675
  580MOL0     H78251   1.437  -0.402   2.611 -0.8323 -0.7956 -0.7305
  580MOL0     H78252   1.654  -0.588   2.452  0.8209 -2.7357 -1.7078
  580MOL0     H78253   1.542  -0.714   2.412  0.9178  0.4754 -0.7090
  580MOL0     H78254   1.546  -0.506   2.239 -0.8855  1.4973 -0.7098
  580MOL0     H78255   1.538  -0.411   2.380 -0.6580  0.0880 -0.5302
  580MOL0     H78256   1.287  -0.413   2.367 -0.6267  0.9624 -1.3741
  580MOL0     H78257   1.313  -0.585   2.382  2.4754  1.6851  3.4883
  580MOL0     H78258   1.365  -0.601   2.146  1.5371 -0.7058  4.0913
  580MOL0     H78259   1.341  -0.434   2.110  0.7809  1.7534  0.8504
  580MOL0     H78260   0.952  -0.564   2.153 -2.6036  0.8634  1.4764
  580MOL0     H78261   0.703  -0.445   1.972 -2.5789 -2.2843  0.1861
  580MOL0     H78262   0.723  -0.536   2.125  2.8911  0.7612 -0.0424
  580MOL0     H78263   0.649  -0.372   2.122 -0.6217  0.4025 -1.9200
  580MOL0     H78264   0.661  -0.264   1.851 -0.8026 -1.4393 -2.5136
  580MOL0     H78265   0.773  -0.368   1.650  2.1995  0.3170 -2.0195
  580MOL0     H78266   0.950  -0.314   1.324 -1.4058  1.1993 -1.3556
  580MOL0     H78267   0.852  -0.189   1.396  1.7028  2.1451  0.3607
  580MOL0     H78268   1.050  -0.034   1.406  0.8749 -0.2229  0.4575
  580MOL0     H78269   1.150  -0.169   1.366 -0.9137 -2.5631  2.3367
  580MOL0     H78270   1.107  -0.016   1.169  2.2114 -1.0688  1.6565
  580MOL0     H78271   0.955  -0.104   1.146 -1.4033 -0.8982  4.8220
  580MOL0     H78272   1.226  -0.172   1.081 -1.4292 -0.7729 -2.5999
  580MOL0     H78273   1.171  -0.288   1.202 -2.7899  0.0402  1.3176
  580MOL0     H78274   1.037  -0.214   0.919  0.7560  0.0263 -0.4159
  580MOL0     H78275   0.982  -0.344   1.038 -0.2844  0.7496  0.8366
  580MOL0     H78276   1.109  -0.437   0.862  1.4289 -1.8264  1.6676
  580MOL0     H78277   1.252  -0.329   0.909  0.3202 -0.6961  0.2426
  580MOL0     H78278   1.269  -0.473   1.102  2.5456 -0.1213 -2.1339
  580MOL0     H78279   1.251  -0.571   0.960  2.3097  1.5116  0.8636
  580MOL0     H78280   0.999  -0.616   1.005 -2.1252  2.3609 -0.6051
  580MOL0     H78281   1.029  -0.524   1.165  0.8080  2.8615 -0.1490
  580MOL0     H78282   1.051  -0.057   1.635  0.2805 -0.1141  1.2525
  580MOL0     H78283   0.956   0.055   1.816 -1.2202  1.2061 -2.4259
  580MOL0     H78284   1.032  -0.090   2.099  0.0173  0.5915  0.6603
  580MOL0     H78285   1.213  -0.244   2.169  0.1029 -2.2694 -0.8525
  580MOL0     H78286   1.822   0.098   2.948 -2.2164 -0.7868  2.9921
  580MOL0     H78287   1.751   0.341   2.977  1.5716  2.9268 -0.9330
  580MOL0     H78288   1.622   0.730   2.920 -4.2994 -0.8499  0.6905
  580MOL0     H78289   1.478   0.921   3.033 -0.4189  1.1016  1.9963
  580MOL0     H78290   1.572   1.070   3.433 -2.9628 -0.9409 -0.6895
  580MOL0     H78291   1.672   1.165   3.314  0.2361  1.4851 -0.6077
  580MOL0     H78292   1.377   1.183   3.361  0.1032 -1.4106 -0.2183
  580MOL0     H78293   1.486   1.279   3.253  0.6867  1.9034  0.9641
  580MOL0     H78294   1.473   1.418   3.441 -1.2414 -0.3115  3.4792
  580MOL0     H78295   1.619   1.331   3.484 -0.6269  4.0498  1.6007
  580MOL0     H78296   1.336   1.247   3.588 -0.5143  0.4159  0.2009
  580MOL0     H78297   1.448   1.366   3.677  0.7103 -0.9693  0.4553
  580MOL0     H78298   1.616   0.995   3.757  1.0071 -0.1746 -1.2117
  580MOL0     H78299   1.728   0.895   3.369  2.1226 -2.2818  0.9840
  580MOL0     H78300   1.865   0.716   3.266 -1.0027  0.8202  1.7840
  581MOL0     O78301  10.001   2.582   5.338  0.0174 -0.6384 -0.8361
  581MOL0     C78302   9.991   2.544   5.225 -0.0052  0.3315  0.2953
  581MOL0     O78303  10.069   2.458   5.161 -0.3451  0.1841  0.0699
  581MOL0     C78304  10.166   2.387   5.228 -0.8696 -0.0979  0.9991
  581MOL0     C78305  10.140   2.317   5.349 -0.4535 -0.1350 -0.2452
  581MOL0     C78306  10.238   2.244   5.407  0.4872  0.5576 -0.6046
  581MOL0     C78307  10.362   2.238   5.353 -0.0707 -0.4576  0.1354
  581MOL0     O78308  10.463   2.176   5.421 -0.2010  0.2110  0.1611
  581MOL0     C78309  10.441   2.038   5.457  0.2068  0.5366  0.0368
  581MOL0     C78310  10.570   1.966   5.467  0.1131  0.6015  0.4862
  581MOL0     C78311  10.621   1.949   5.323 -0.3763  0.4731  0.4221
  581MOL0     C78312  10.736   1.858   5.324  0.5579 -0.5433 -0.3381
  581MOL0     C78313  10.694   1.720   5.280 -0.1367 -0.0398  0.2782
  581MOL0     C78314  10.686   1.684   5.129  1.0487  0.7980 -0.6318
  581MOL0     C78315  10.698   1.536   5.084  0.2043 -0.0911 -0.7044
  581MOL0     C78316  10.659   1.519   4.941  0.6664 -0.5893  0.4222
  581MOL0     N78317  10.516   1.517   4.915 -0.8744 -0.1359  0.0994
  581MOL0     C78318  10.431   1.625   4.896 -0.0559  0.0302 -0.2532
  581MOL0     C78319  10.312   1.574   4.871 -0.1008 -0.1776  0.0569
  581MOL0     C78320  10.194   1.669   4.844 -0.4082  0.7519 -0.0389
  581MOL0     C78321  10.129   1.631   4.706  0.0058  0.3914  0.2658
  581MOL0     C78322  10.040   1.737   4.648  0.3634 -0.6486 -0.2261
  581MOL0     C78323  10.100   1.881   4.629  0.2580  0.2607 -0.4233
  581MOL0     O78324  10.112   1.944   4.756 -0.3638  0.3140 -0.4709
  581MOL0     C78325  10.188   2.054   4.763  0.2030 -0.3120 -0.0857
  581MOL0     C78326  10.139   2.182   4.726  0.4593  0.1083 -0.3536
  581MOL0     C78327  10.221   2.297   4.741 -0.4540 -0.2732  0.0236
  581MOL0     C78328  10.178   2.423   4.676  0.9405 -0.3873 -1.3018
  581MOL0     C78329  10.352   2.284   4.800  0.0007  0.6200  0.8429
  581MOL0     C78330  10.443   2.398   4.807  0.8519 -0.5384  0.3146
  581MOL0     O78331  10.568   2.358   4.768 -0.2845 -0.3214  0.2244
  581MOL0     C78332  10.686   2.420   4.816 -0.1659  0.0165 -0.2135
  581MOL0     C78333  10.696   2.507   4.926  0.1928 -0.1769  0.0432
  581MOL0     C78334  10.806   2.590   4.942 -0.5710  0.5053 -0.0999
  581MOL0     C78335  10.909   2.594   4.851  0.0493  0.7634  0.4791
  581MOL0     O78336  11.009   2.687   4.881 -0.6551  0.0577  0.0218
  581MOL0     C78337  11.107   2.711   4.778  0.0021 -1.0836  0.1681
  581MOL0     C78338  11.225   2.622   4.786  0.6702  0.1301  0.3496
  581MOL0     C78339  11.293   2.611   4.920  0.0440  0.1216 -0.3510
  581MOL0     C78340  11.428   2.529   4.906  0.5006 -0.2565 -0.3276
  581MOL0     C78341  11.491   2.541   5.051 -0.7333  0.2068  0.4209
  581MOL0     C78342  11.637   2.475   5.056 -0.3946  0.3080 -1.1587
  581MOL0     C78343  11.697   2.517   5.202  0.3699  1.1412  0.4132
  581MOL0     C78344  11.807   2.425   5.241  0.2403 -0.1692 -1.6041
  581MOL0    Cl78345  11.942   2.470   5.146  0.0218  0.2247  0.3543
  581MOL0     C78346  10.903   2.501   4.741  0.6820 -0.5322 -0.1050
  581MOL0     C78347  10.795   2.413   4.724  0.9521  0.1819 -0.7764
  581MOL0     O78348  10.412   2.508   4.853  0.5807  0.0217  0.0979
  581MOL0     C78349  10.392   2.157   4.832  0.5731  0.0584 -0.4032
  581MOL0     C78350  10.316   2.044   4.817  0.0925 -0.1860 -0.5865
  581MOL0     N78351  10.326   1.433   4.854  1.4887 -0.4956  0.2154
  581MOL0     N78352  10.440   1.403   4.898  0.0053  0.1552 -0.0990
  581MOL0     C78353  10.387   2.303   5.233  0.6412  0.6407 -0.3707
  581MOL0     C78354  10.289   2.374   5.172  0.5357 -0.6431  0.8737
  581MOL0     C78355   9.892   2.603   5.147  0.0523 -0.2934  0.7973
  581MOL0     C78356   9.886   2.574   5.008 -0.6390  0.2152  0.2015
  581MOL0     C78357   9.809   2.647   4.917  0.1498 -0.4892  0.2052
  581MOL0     C78358   9.718   2.744   4.965 -0.1154  0.1306  0.4608
  581MOL0     O78359   9.632   2.799   4.867  1.0273  0.3820  0.2062
  581MOL0     C78360   9.521   2.885   4.914  0.1375 -0.0426 -0.3605
  581MOL0     C78361   9.417   2.922   4.810 -0.4080  0.5848  0.0413
  581MOL0     C78362   9.462   2.964   4.669 -0.3576  0.0650 -0.0286
  581MOL0     C78363   9.479   3.123   4.662  1.4522  0.5229  0.4515
  581MOL0     C78364   9.531   3.155   4.533  0.0882 -0.8369  0.0042
  581MOL0     C78365   9.580   3.189   4.430  0.8100  0.1095 -0.2138
  581MOL0     C78366   9.703   2.767   5.107  0.0738 -0.2714 -0.2902
  581MOL0     C78367   9.794   2.696   5.193  0.8185  0.3137  0.0087
  581MOL0     H78368  10.044   2.326   5.400 -1.3065 -0.7993 -1.6612
  581MOL0     H78369  10.221   2.204   5.506 -1.1902 -0.3562 -1.2230
  581MOL0     H78370  10.385   2.041   5.550  1.6839 -2.1029  1.1259
  581MOL0     H78371  10.378   2.001   5.375 -2.5827  2.1162  1.3234
  581MOL0     H78372  10.640   2.020   5.532 -2.2566  2.3495  1.7356
  581MOL0     H78373  10.560   1.862   5.501  1.8405 -0.2274 -1.2878
  581MOL0     H78374  10.551   1.917   5.245  0.8104 -0.9510 -0.1001
  581MOL0     H78375  10.659   2.048   5.296  0.7443  0.0790  0.5320
  581MOL0     H78376  10.814   1.894   5.256 -0.0817  2.2125  0.2414
  581MOL0     H78377  10.787   1.848   5.420  2.0475  1.7829 -0.8024
  581MOL0     H78378  10.761   1.653   5.334  1.8429  0.7049 -1.1211
  581MOL0     H78379  10.599   1.698   5.329 -0.7136  1.4143 -0.1317
  581MOL0     H78380  10.589   1.718   5.091  0.1340 -2.7071 -1.8342
  581MOL0     H78381  10.766   1.753   5.099 -0.8630  5.5383  3.6502
  581MOL0     H78382  10.801   1.504   5.103  0.2958  0.8488  0.4907
  581MOL0     H78383  10.636   1.476   5.151 -1.6359  2.9733  0.5818
  581MOL0     H78384  10.712   1.434   4.897 -0.2559 -0.3536 -1.2411
  581MOL0     H78385  10.691   1.603   4.879 -1.2833 -2.0574 -2.8648
  581MOL0     H78386  10.453   1.730   4.905 -3.1980  0.7149  0.9689
  581MOL0     H78387  10.117   1.670   4.922  1.9177 -0.7391  2.4588
  581MOL0     H78388  10.245   1.765   4.842  0.3131  0.3839  0.4963
  581MOL0     H78389  10.065   1.543   4.722 -2.0779  2.0907  1.7985
  581MOL0     H78390  10.202   1.609   4.627  0.6850 -0.9442  1.2329
  581MOL0     H78391   9.952   1.727   4.712 -0.1989 -1.9268 -1.1508
  581MOL0     H78392  10.004   1.714   4.547 -0.4490  1.5696 -0.4820
  581MOL0     H78393  10.022   1.937   4.577  0.7235  2.3907  1.0397
  581MOL0     H78394  10.196   1.880   4.578 -0.3784 -0.3883 -1.6457
  581MOL0     H78395  10.045   2.196   4.674 -0.6133  1.0842  1.7597
  581MOL0     H78396  10.070   2.438   4.664  1.2103  4.6900  0.3644
  581MOL0     H78397  10.204   2.516   4.726  1.8111  0.1348 -2.6619
  581MOL0     H78398  10.227   2.412   4.579 -0.1901 -1.5912 -1.7838
  581MOL0     H78399  10.613   2.523   4.994  1.8128 -0.7940  2.2643
  581MOL0     H78400  10.812   2.662   5.023 -1.3514  1.4748 -0.8800
  581MOL0     H78401  11.061   2.710   4.679  0.1358  3.9205 -0.1865
  581MOL0     H78402  11.140   2.814   4.796  0.6879 -1.1766 -0.5107
  581MOL0     H78403  11.193   2.530   4.737  1.9335  0.3292 -0.9205
  581MOL0     H78404  11.293   2.664   4.711 -1.5805 -0.2280 -2.0149
  581MOL0     H78405  11.235   2.553   4.992 -0.7927 -0.3676 -1.3990
  581MOL0     H78406  11.317   2.707   4.966 -1.3206  0.0133  0.6440
  581MOL0     H78407  11.404   2.426   4.881 -2.8353 -0.0600  1.4121
  581MOL0     H78408  11.484   2.577   4.825  0.6033 -1.6623 -1.1055
  581MOL0     H78409  11.422   2.498   5.124 -3.1063 -0.6131 -2.1758
  581MOL0     H78410  11.505   2.649   5.063 -4.4017  0.9960 -1.2059
  581MOL0     H78411  11.627   2.367   5.043  1.4226 -0.0478  0.0673
  581MOL0     H78412  11.699   2.512   4.974  0.5176  0.6313 -0.3329
  581MOL0     H78413  11.607   2.501   5.262 -1.3730 -0.6514 -2.4071
  581MOL0     H78414  11.727   2.622   5.201 -2.8584  2.2458 -2.7522
  581MOL0     H78415  11.776   2.320   5.233 -0.5267 -0.1962  0.7950
  581MOL0     H78416  11.835   2.433   5.347 -3.9904 -0.1445 -0.2925
  581MOL0     H78417  10.978   2.494   4.664  0.5087 -3.0201 -0.1357
  581MOL0     H78418  10.774   2.364   4.630 -2.0746  1.1185 -0.6746
  581MOL0     H78419  10.492   2.159   4.875  0.8565 -1.0675 -0.9748
  581MOL0     H78420  10.349   1.945   4.848 -2.8786 -1.2478 -0.4170
  581MOL0     H78421  10.490   2.308   5.197  0.7949 -0.2855 -0.0689
  581MOL0     H78422  10.320   2.418   5.078 -3.3591  1.7278  0.4834
  581MOL0     H78423   9.961   2.505   4.972 -0.8247 -0.2091  0.6170
  581MOL0     H78424   9.815   2.632   4.810  1.2039  3.7165 -0.5047
  581MOL0     H78425   9.478   2.845   5.006  3.7002 -1.9022  0.6773
  581MOL0     H78426   9.556   2.981   4.953 -3.6704  1.6388 -0.5873
  581MOL0     H78427   9.358   2.996   4.865 -3.3601 -2.8518  1.9179
  581MOL0     H78428   9.352   2.835   4.801  1.7974 -1.2107  0.6491
  581MOL0     H78429   9.402   2.921   4.587 -0.7131 -0.8910  0.7128
  581MOL0     H78430   9.553   2.905   4.654 -1.1492 -0.6650 -2.4519
  581MOL0     H78431   9.546   3.160   4.740  1.9429  0.1554  0.2116
  581MOL0     H78432   9.383   3.163   4.693  1.3755  1.1567 -0.5371
  581MOL0     H78433   9.613   3.227   4.335 -0.1265 -1.4508 -1.2256
  581MOL0     H78434   9.628   2.832   5.152 -0.1257 -0.1765 -0.7501
  581MOL0     H78435   9.791   2.711   5.300  0.5820 -0.2381  0.0843
  582MOL0     O78436  11.234   0.677   9.787 -1.0793 -0.0219 -0.2190
  582MOL0     C78437  11.111   0.655   9.787  0.0609  0.9064  0.1881
  582MOL0     O78438  11.051   0.536   9.762  0.4912 -0.5412  0.0598
  582MOL0     C78439  11.132   0.427   9.764  0.2763 -0.1244  0.1621
  582MOL0     C78440  11.148   0.359   9.888  0.1074 -0.0964  0.2349
  582MOL0     C78441  11.222   0.242   9.894  0.8574 -0.1183  0.3040
  582MOL0     C78442  11.280   0.195   9.776 -0.8425 -0.1494  0.5116
  582MOL0     O78443  11.355   0.075   9.764  0.1032 -0.3591 -0.8181
  582MOL0     C78444  11.372  -0.004   9.888  0.9270 -0.5863  0.3763
  582MOL0     C78445  11.440  -0.131   9.845  0.2943  1.4085  0.5103
  582MOL0     C78446  11.445  -0.232   9.958  0.6605 -1.5367  0.0499
  582MOL0     C78447  11.534  -0.354   9.922  0.7983  0.8243 -0.2762
  582MOL0     C78448  11.562  -0.438  10.043 -0.1662 -0.0324 -0.0402
  582MOL0     C78449  11.677  -0.370  10.122  0.8357 -0.2811  0.2205
  582MOL0     C78450  11.722  -0.457  10.239 -0.0810  0.3918 -0.5966
  582MOL0     C78451  11.811  -0.391  10.345  0.7983 -0.3299  1.0407
  582MOL0     N78452  11.744  -0.275  10.414 -0.4221  0.1560 -0.5071
  582MOL0     C78453  11.781  -0.146  10.403  0.3486  0.1425 -0.0585
  582MOL0     C78454  11.690  -0.084  10.492 -0.6591 -0.2561  0.1195
  582MOL0     C78455  11.717   0.061  10.515 -0.1515 -0.2658  1.0186
  582MOL0     C78456  11.730   0.141  10.386 -0.0493 -1.2201  0.3099
  582MOL0     C78457  11.592   0.157  10.322  0.2695 -0.5987 -0.6342
  582MOL0     C78458  11.580   0.199  10.176 -0.5787 -0.2084 -0.7482
  582MOL0     O78459  11.651   0.320  10.162 -0.9003 -0.1028  0.0381
  582MOL0     C78460  11.601   0.445  10.153 -0.1756 -0.0133 -0.4260
  582MOL0     C78461  11.665   0.545  10.078 -0.0400 -0.2463 -0.3109
  582MOL0     C78462  11.614   0.683  10.066  0.1565  0.1169 -0.4339
  582MOL0     C78463  11.688   0.776   9.974 -0.2807  0.7240 -0.3265
  582MOL0     C78464  11.487   0.716  10.124  0.7423 -0.0949  0.7847
  582MOL0     C78465  11.429   0.851  10.107 -0.5407 -1.0260  0.2512
  582MOL0     O78466  11.481   0.950  10.023 -0.2266  0.1585 -0.4169
  582MOL0     C78467  11.452   1.080  10.040 -0.0828  0.4562  0.2649
  582MOL0     C78468  11.414   1.170   9.932 -0.6775  1.1115  0.7911
  582MOL0     C78469  11.359   1.293   9.952  0.2155  0.9604 -0.1277
  582MOL0     C78470  11.365   1.352  10.076 -0.1162  0.1804  0.3969
  582MOL0     O78471  11.332   1.480  10.109 -0.2996  0.8894  0.2766
  582MOL0     C78472  11.324   1.585  10.008  0.4257  0.9970 -0.1403
  582MOL0     C78473  11.355   1.722  10.071 -0.0294 -0.8031  0.6953
  582MOL0     C78474  11.495   1.771  10.101  0.0526  0.6148 -0.7355
  582MOL0     C78475  11.507   1.903  10.164  0.6897  0.9023 -0.0138
  582MOL0     C78476  11.638   1.974  10.160  0.5608  0.0096  0.3999
  582MOL0     C78477  11.649   2.115  10.226 -0.2964 -0.4116  0.2801
  582MOL0     C78478  11.791   2.138  10.272  0.4355 -0.4304 -0.7340
  582MOL0     C78479  11.798   2.272  10.360  0.6368  0.4266  0.1579
  582MOL0    Cl78480  11.966   2.323  10.356 -0.0231  0.3551  0.1728
  582MOL0     C78481  11.425   1.272  10.180  0.1767 -0.7478 -0.6097
  582MOL0     C78482  11.449   1.143  10.159 -1.2490 -0.2742 -1.2877
  582MOL0     O78483  11.350   0.881  10.193 -0.4017 -0.3333  0.6478
  582MOL0     C78484  11.416   0.607  10.191 -0.4284 -0.1838  0.1078
  582MOL0     C78485  11.479   0.484  10.210  0.3378 -0.1317  0.0958
  582MOL0     N78486  11.615  -0.181  10.549  0.7065 -0.2788  0.6261
  582MOL0     N78487  11.635  -0.290  10.497  0.2092 -0.1285  0.9957
  582MOL0     C78488  11.260   0.273   9.658 -0.0703  0.8945 -0.6090
  582MOL0     C78489  11.186   0.383   9.643  0.0302 -0.2412  0.0565
  582MOL0     C78490  11.032   0.775   9.810 -0.8050  0.7171  0.2483
  582MOL0     C78491  10.917   0.809   9.738  0.9186  0.2858 -0.5180
  582MOL0     C78492  10.870   0.944   9.738  0.4757 -0.1522  0.1052
  582MOL0     C78493  10.934   1.042   9.824  0.0767 -0.6044  0.4048
  582MOL0     O78494  10.878   1.171   9.829  0.3010 -0.9107  0.4122
  582MOL0     C78495  10.917   1.257   9.938 -0.7782 -0.3083 -0.4131
  582MOL0     C78496  10.830   1.374   9.936  1.1984 -0.4682  0.2295
  582MOL0     C78497  10.864   1.472  10.048  0.1018  0.4325  0.8981
  582MOL0     C78498  10.807   1.613  10.018 -0.2593  1.4272 -0.4564
  582MOL0     C78499  10.846   1.673   9.898  0.2277 -0.1279 -0.4354
  582MOL0     C78500  10.904   1.703   9.794  1.0787  0.1719  0.6202
  582MOL0     C78501  11.033   0.998   9.918  0.0427  0.1934  0.4762
  582MOL0     C78502  11.085   0.864   9.904  0.0250 -0.6096  0.3244
  582MOL0     H78503  11.102   0.404   9.975  0.7279  0.7158  0.1511
  582MOL0     H78504  11.227   0.187   9.987 -2.7662 -1.0878  0.0623
  582MOL0     H78505  11.421   0.056   9.966 -1.4295  3.0115 -0.6496
  582MOL0     H78506  11.271  -0.022   9.924 -0.3157  2.0512 -1.5138
  582MOL0     H78507  11.386  -0.179   9.763 -1.5754  2.6601  0.9481
  582MOL0     H78508  11.533  -0.092   9.801  0.0339 -0.9102 -2.3391
  582MOL0     H78509  11.486  -0.180  10.045 -0.0649  0.0281 -0.4911
  582MOL0     H78510  11.348  -0.268   9.993 -2.8255  5.2958 -0.8332
  582MOL0     H78511  11.469  -0.414   9.857  0.0665 -2.2328  3.0164
  582MOL0     H78512  11.625  -0.324   9.869  0.2074  3.0938 -0.0968
  582MOL0     H78513  11.474  -0.470  10.100  0.3736  0.9370  1.3761
  582MOL0     H78514  11.606  -0.530  10.002 -1.8059 -1.0403  0.3363
  582MOL0     H78515  11.759  -0.364  10.050  1.0610 -1.8568  0.3250
  582MOL0     H78516  11.657  -0.269  10.160  1.5626  0.7300 -1.9272
  582MOL0     H78517  11.631  -0.495  10.286  2.0853 -1.5903  2.3496
  582MOL0     H78518  11.785  -0.538  10.200  1.5010  1.4116 -0.2580
  582MOL0     H78519  11.910  -0.374  10.301  0.4759 -3.3492 -1.1588
  582MOL0     H78520  11.836  -0.465  10.421  4.7276  2.7940  3.1610
  582MOL0     H78521  11.863  -0.104  10.347  3.4664 -0.3510  3.6976
  582MOL0     H78522  11.649   0.116  10.580 -0.0697  0.8207  0.2066
  582MOL0     H78523  11.817   0.068  10.560 -0.4690  1.3260  1.5481
  582MOL0     H78524  11.805   0.118  10.310 -0.2980  0.7244 -0.5811
  582MOL0     H78525  11.757   0.243  10.415 -0.8751 -0.9531  0.1603
  582MOL0     H78526  11.541   0.234  10.380 -0.6320  0.0792 -2.2689
  582MOL0     H78527  11.531   0.071  10.349 -0.6885  0.8592  2.1906
  582MOL0     H78528  11.474   0.212  10.152 -0.4999 -0.2146 -1.1048
  582MOL0     H78529  11.624   0.122  10.112 -1.1805 -2.0166  0.8999
  582MOL0     H78530  11.764   0.522  10.042 -0.6576  1.0038 -3.1643
  582MOL0     H78531  11.749   0.707   9.914 -0.2073 -1.3123  1.9175
  582MOL0     H78532  11.623   0.821   9.899 -0.8753  0.4285  0.0054
  582MOL0     H78533  11.748   0.838  10.041 -0.9758 -0.5129  1.5368
  582MOL0     H78534  11.407   1.120   9.836 -1.1483 -0.3584  1.5535
  582MOL0     H78535  11.304   1.337   9.870 -0.5333  2.2124  0.9995
  582MOL0     H78536  11.403   1.565   9.935  0.1708 -2.8660  0.3915
  582MOL0     H78537  11.227   1.575   9.958 -1.5591 -3.2446  3.7845
  582MOL0     H78538  11.315   1.800  10.005  0.6950 -0.1281  1.0361
  582MOL0     H78539  11.299   1.738  10.164 -3.0897 -1.1480 -0.9394
  582MOL0     H78540  11.562   1.771  10.015 -0.2171 -0.3321 -0.9619
  582MOL0     H78541  11.534   1.697  10.172 -0.4037  1.2726  0.2178
  582MOL0     H78542  11.427   1.965  10.124 -0.3211 -0.8334 -0.8249
  582MOL0     H78543  11.483   1.884  10.270  2.6156 -1.1777  0.1510
  582MOL0     H78544  11.689   1.984  10.064 -1.5066  1.1924 -0.6409
  582MOL0     H78545  11.700   1.907  10.220  2.8064 -0.6501 -2.4481
  582MOL0     H78546  11.626   2.202  10.164  0.8689  0.3108  0.8179
  582MOL0     H78547  11.576   2.112  10.307 -1.0839  0.0366 -0.3904
  582MOL0     H78548  11.857   2.150  10.186 -1.1349 -1.5596 -2.1642
  582MOL0     H78549  11.814   2.056  10.341 -2.0033  0.0005  0.7027
  582MOL0     H78550  11.758   2.250  10.459 -0.7530 -0.5401 -0.5699
  582MOL0     H78551  11.734   2.348  10.314  0.8023  0.1891 -0.4836
  582MOL0     H78552  11.438   1.314  10.279 -1.0026  0.7414 -1.0432
  582MOL0     H78553  11.462   1.089  10.252 -0.9069  1.2123 -0.4381
  582MOL0     H78554  11.319   0.628  10.234 -0.4852  1.7635 -0.8506
  582MOL0     H78555  11.427   0.411  10.272  0.4486 -0.0383  0.3002
  582MOL0     H78556  11.320   0.230   9.578  2.3788  3.9690 -0.5963
  582MOL0     H78557  11.185   0.445   9.555 -1.0209  1.6318  1.3155
  582MOL0     H78558  10.864   0.733   9.682 -0.7305  1.1008 -0.1267
  582MOL0     H78559  10.781   0.986   9.692 -1.1729 -0.2709  2.9615
  582MOL0     H78560  10.906   1.205  10.033  3.5229 -1.2193 -0.2101
  582MOL0     H78561  11.021   1.291   9.926 -2.0426  3.9418 -0.8435
  582MOL0     H78562  10.730   1.331   9.944 -0.1010  2.0705 -1.0812
  582MOL0     H78563  10.838   1.424   9.839  4.9775 -0.0948  0.5813
  582MOL0     H78564  10.973   1.477  10.057  0.1328  2.0361 -0.0848
  582MOL0     H78565  10.812   1.433  10.137 -1.3935  0.0271 -0.1146
  582MOL0     H78566  10.843   1.671  10.103  0.8467 -0.9041  0.7810
  582MOL0     H78567  10.698   1.610  10.026 -0.3247  1.9608 -1.1084
  582MOL0     H78568  10.958   1.720   9.703 -0.3923 -3.7236 -1.2332
  582MOL0     H78569  11.081   1.059   9.994  1.0150 -0.2316  0.2289
  582MOL0     H78570  11.177   0.842   9.957 -0.0971 -1.8598  0.0479
  583MOL0     O78571  10.750  10.725   2.506  0.2548 -0.8335 -0.9704
  583MOL0     C78572  10.640  10.783   2.500  0.3805  0.3677  0.5593
  583MOL0     O78573  10.587  10.859   2.599 -0.4614 -0.6486 -0.9487
  583MOL0     C78574  10.656  10.895   2.712  0.2885  0.0857 -0.0087
  583MOL0     C78575  10.790  10.934   2.712 -0.1860  0.1042  0.5280
  583MOL0     C78576  10.849  10.969   2.834 -0.2819  0.0405  0.4061
  583MOL0     C78577  10.772  10.986   2.950 -0.1302  0.5826 -0.0092
  583MOL0     O78578  10.857  10.998   3.052 -0.3289 -1.0003 -0.0816
  583MOL0     C78579  10.797  11.033   3.179 -0.1717  0.3258  0.2008
  583MOL0     C78580  10.923  11.009   3.271 -0.6933 -0.0531  0.3007
  583MOL0     C78581  10.905  11.071   3.407  0.4463 -0.5157  0.1712
  583MOL0     C78582  11.007  11.020   3.513 -0.1503  1.3522  0.3592
  583MOL0     C78583  10.971  11.076   3.651 -0.0528 -0.3405 -0.3281
  583MOL0     C78584  10.846  11.031   3.728 -0.2781  0.0189  0.3924
  583MOL0     C78585  10.825  11.119   3.844 -0.3021 -0.4189 -0.8147
  583MOL0     C78586  10.702  11.091   3.927 -0.2869 -1.2131 -0.3637
  583MOL0     N78587  10.583  11.148   3.865 -0.2973  0.4014  0.2557
  583MOL0     C78588  10.555  11.278   3.858 -0.4798 -0.3569  0.5103
  583MOL0     C78589  10.453  11.291   3.775  0.6009  0.0343  0.4846
  583MOL0     C78590  10.396  11.421   3.738 -0.3618  0.1443  0.9714
  583MOL0     C78591  10.305  11.486   3.844 -0.7326 -0.7041 -0.2155
  583MOL0     C78592  10.174  11.411   3.866  0.5679 -0.3384  0.3204
  583MOL0     C78593  10.084  11.415   3.740  0.4284 -0.0419 -0.1601
  583MOL0     O78594   9.971  11.331   3.767 -0.0578  0.4653  0.0619
  583MOL0     C78595   9.964  11.193   3.758 -0.6540 -0.6431 -0.1542
  583MOL0     C78596  10.054  11.112   3.692  1.0192  0.6355  0.4080
  583MOL0     C78597  10.023  10.975   3.670 -0.0098 -0.0843 -0.6707
  583MOL0     C78598  10.130  10.893   3.602 -0.2168  0.0717  0.1441
  583MOL0     C78599   9.901  10.922   3.710 -0.2840 -0.0952  0.5804
  583MOL0     C78600   9.873  10.780   3.686 -0.0037 -0.1034  1.2417
  583MOL0     O78601   9.759  10.770   3.614 -0.9104 -0.0713 -0.0952
  583MOL0     C78602   9.725  10.654   3.552 -0.2564  1.1827 -0.9287
  583MOL0     C78603   9.819  10.565   3.502 -0.0856 -0.6647  0.3931
  583MOL0     C78604   9.772  10.453   3.434  0.2229 -0.0842  0.2468
  583MOL0     C78605   9.634  10.427   3.409  0.0435  0.9290 -0.3167
  583MOL0     O78606   9.610  10.302   3.353  0.5232  0.6179 -1.2132
  583MOL0     C78607   9.486  10.243   3.369  0.4105  0.8026  0.0611
  583MOL0     C78608   9.506  10.111   3.285 -0.5057 -0.4077  0.6496
  583MOL0     C78609   9.434  10.133   3.147 -0.0122 -0.2797 -0.3849
  583MOL0     C78610   9.506  10.045   3.043 -0.7745  0.4873 -1.1426
  583MOL0     C78611   9.440  10.087   2.915  0.2614 -0.1365  0.6301
  583MOL0     C78612   9.506  10.013   2.790  0.9356 -0.3815  0.1742
  583MOL0     C78613   9.485  10.093   2.666 -0.4254 -0.6991 -0.8090
  583MOL0     C78614   9.552  10.034   2.534  1.0663 -0.1840 -0.0413
  583MOL0    Cl78615   9.727  10.039   2.527 -0.4595 -0.1683  0.3034
  583MOL0     C78616   9.539  10.512   3.471 -0.4074 -0.3246 -1.1590
  583MOL0     C78617   9.584  10.623   3.539 -0.6853 -0.5625 -0.2574
  583MOL0     O78618   9.936  10.683   3.732  0.4631 -0.4580 -0.8312
  583MOL0     C78619   9.808  11.012   3.773  0.4867 -0.1179 -0.0566
  583MOL0     C78620   9.835  11.142   3.793  0.1022  0.9493  0.1115
  583MOL0     N78621  10.415  11.160   3.736  0.9545 -0.0584  0.2731
  583MOL0     N78622  10.491  11.078   3.802  0.1635 -0.6933 -0.6431
  583MOL0     C78623  10.644  10.932   2.950  0.1899  0.4285 -0.8176
  583MOL0     C78624  10.582  10.891   2.833  0.5751  0.4067  0.1269
  583MOL0     C78625  10.566  10.778   2.361 -0.1959 -0.5732 -0.4529
  583MOL0     C78626  10.468  10.871   2.323 -0.3074 -0.0039 -0.5994
  583MOL0     C78627  10.404  10.854   2.198 -0.9021  0.1711  0.4068
  583MOL0     C78628  10.452  10.763   2.104  0.0603  0.2390 -0.6355
  583MOL0     O78629  10.410  10.752   1.977 -0.1038  0.4904 -0.3392
  583MOL0     C78630  10.274  10.792   1.944  0.3656 -0.1536 -0.4111
  583MOL0     C78631  10.176  10.704   2.008 -0.0135  0.1095 -0.1082
  583MOL0     C78632  10.197  10.555   1.988 -0.0768  0.3293  0.9536
  583MOL0     C78633  10.071  10.471   1.978 -1.0725 -0.2334  0.3291
  583MOL0     C78634   9.987  10.538   1.876 -0.2283  0.2761  1.3897
  583MOL0     C78635   9.913  10.598   1.803  0.5258  1.0610 -0.2432
  583MOL0     C78636  10.566  10.692   2.141  0.3056  0.6668 -0.8522
  583MOL0     C78637  10.619  10.696   2.273  0.2028 -0.3233 -0.2874
  583MOL0     H78638  10.853  10.943   2.625 -1.2425  1.2437 -0.1596
  583MOL0     H78639  10.954  10.996   2.826  0.1237 -1.8840 -2.4202
  583MOL0     H78640  10.751  11.132   3.183  1.0725  0.9372 -0.2520
  583MOL0     H78641  10.717  10.961   3.200 -1.4801  0.9655 -2.2554
  583MOL0     H78642  10.925  10.900   3.277 -2.0071 -0.0320  2.1920
  583MOL0     H78643  11.020  11.043   3.232 -1.2549  2.3667  0.8687
  583MOL0     H78644  10.917  11.180   3.396  1.1795 -0.6942 -1.0829
  583MOL0     H78645  10.799  11.055   3.430 -0.6583 -0.4828 -4.0416
  583MOL0     H78646  10.993  10.912   3.508 -1.3603  1.5155 -0.3634
  583MOL0     H78647  11.110  11.045   3.487  0.2495 -0.5151 -0.0037
  583MOL0     H78648  11.057  11.051   3.714 -1.8612 -3.3353  1.1820
  583MOL0     H78649  10.964  11.182   3.625  0.2841 -0.5193 -1.1726
  583MOL0     H78650  10.756  11.050   3.669  1.3253  2.3802 -1.4905
  583MOL0     H78651  10.857  10.924   3.749  2.2614  0.2066  0.3257
  583MOL0     H78652  10.915  11.123   3.906 -0.0622 -0.3217 -1.1661
  583MOL0     H78653  10.819  11.215   3.792  0.6256 -0.4363 -0.9719
  583MOL0     H78654  10.714  11.122   4.031  2.1339  2.9080 -1.6600
  583MOL0     H78655  10.687  10.982   3.931 -0.6477 -1.1281  1.3277
  583MOL0     H78656  10.608  11.366   3.894  0.6065 -1.6636  2.3135
  583MOL0     H78657  10.485  11.481   3.717 -1.4780  1.5732  0.0652
  583MOL0     H78658  10.352  11.411   3.638  1.4961  0.7439  0.0627
  583MOL0     H78659  10.286  11.588   3.811 -2.2328 -0.8778  0.0150
  583MOL0     H78660  10.350  11.488   3.944  0.7589  0.1109 -0.8750
  583MOL0     H78661  10.119  11.442   3.956 -0.2756 -1.8449  0.3639
  583MOL0     H78662  10.204  11.306   3.879  0.0537 -0.4482  0.6720
  583MOL0     H78663  10.144  11.373   3.659  2.0086 -0.7325  1.3125
  583MOL0     H78664  10.058  11.519   3.719 -1.6965 -1.0587 -3.4357
  583MOL0     H78665  10.139  11.164   3.649  0.1809 -0.1332 -2.4387
  583MOL0     H78666  10.148  10.798   3.653  1.8104  0.3551  0.0307
  583MOL0     H78667  10.120  10.888   3.493  2.7799  1.2958 -0.2880
  583MOL0     H78668  10.222  10.949   3.619  0.9280 -1.8672  0.6631
  583MOL0     H78669   9.925  10.585   3.507 -0.7822  4.0978  0.5265
  583MOL0     H78670   9.846  10.382   3.399 -2.1666 -2.2345 -0.6803
  583MOL0     H78671   9.466  10.212   3.473  0.8901  1.7235  0.4373
  583MOL0     H78672   9.402  10.301   3.330 -1.3410  0.8543  3.4867
  583MOL0     H78673   9.608  10.078   3.263 -0.4370 -0.4289  1.0010
  583MOL0     H78674   9.466  10.029   3.346  3.0357 -0.3309  3.4074
  583MOL0     H78675   9.442  10.238   3.116 -0.6484 -1.1582 -3.9494
  583MOL0     H78676   9.329  10.104   3.160 -0.6783  2.8876  3.5165
  583MOL0     H78677   9.613  10.066   3.045 -0.8682  0.9003  0.8551
  583MOL0     H78678   9.497   9.938   3.060 -4.2058  0.2339 -3.4707
  583MOL0     H78679   9.456  10.191   2.886  0.3744 -1.2398 -4.0939
  583MOL0     H78680   9.334  10.060   2.910 -0.1137  1.1391  1.3544
  583MOL0     H78681   9.614   9.997   2.805  1.1552 -0.8911 -1.7143
  583MOL0     H78682   9.461   9.914   2.774 -3.0142  1.7149 -3.4243
  583MOL0     H78683   9.533  10.191   2.672 -0.2532 -0.8523  0.5898
  583MOL0     H78684   9.379  10.102   2.640 -0.3595 -2.2605 -1.7517
  583MOL0     H78685   9.504  10.088   2.452 -1.3808  0.5113  1.7278
  583MOL0     H78686   9.516   9.931   2.534  0.8902 -0.1959 -2.9035
  583MOL0     H78687   9.435  10.492   3.496  0.7305 -1.2405  3.9065
  583MOL0     H78688   9.510  10.695   3.573  2.2365  2.4489  0.3286
  583MOL0     H78689   9.711  10.972   3.804  0.7282 -0.3236  0.4514
  583MOL0     H78690   9.756  11.207   3.828 -3.0387 -1.3873 -2.1100
  583MOL0     H78691  10.584  10.915   3.040 -1.1059 -0.7362 -1.8659
  583MOL0     H78692  10.480  10.860   2.849  0.0500  1.8988 -0.1110
  583MOL0     H78693  10.440  10.935   2.406  0.6748 -2.6715  1.9876
  583MOL0     H78694  10.317  10.915   2.180 -0.8906 -0.5486 -2.4850
  583MOL0     H78695  10.271  10.898   1.972  1.0364  0.5344 -2.7373
  583MOL0     H78696  10.260  10.782   1.836  2.1672  0.2767 -0.7145
  583MOL0     H78697  10.080  10.742   1.973  0.4334 -0.0524 -1.5877
  583MOL0     H78698  10.184  10.723   2.115  2.1470 -4.6706  0.8785
  583MOL0     H78699  10.256  10.514   2.071  1.6414 -1.6703 -1.1474
  583MOL0     H78700  10.256  10.539   1.897  1.2066 -1.9660  2.1030
  583MOL0     H78701  10.026  10.481   2.078 -1.3944  1.5279  0.0450
  583MOL0     H78702  10.094  10.368   1.950 -2.5676 -0.2452 -0.9893
  583MOL0     H78703   9.851  10.648   1.730 -0.5476 -0.7483 -0.6315
  583MOL0     H78704  10.609  10.622   2.070  1.6179  0.8706 -0.2799
  583MOL0     H78705  10.702  10.633   2.303  1.7085  1.3876 -0.7765
  584MOL0     O78706   9.922   0.714   6.519 -0.0699  0.4809  0.1248
  584MOL0     C78707  10.042   0.698   6.536  0.1098 -0.0195  0.7549
  584MOL0     O78708  10.132   0.805   6.527  0.6183 -0.0961 -0.0133
  584MOL0     C78709  10.079   0.922   6.471  0.7445 -0.3244 -0.6628
  584MOL0     C78710  10.070   0.944   6.334  0.9162  0.6625 -0.6403
  584MOL0     C78711  10.023   1.064   6.284  0.5160  0.8343  0.6564
  584MOL0     C78712   9.987   1.172   6.365  0.3397  0.9905  0.2548
  584MOL0     O78713   9.964   1.285   6.309  0.6062 -0.3028  0.5951
  584MOL0     C78714   9.997   1.411   6.370  0.0738 -0.4504  0.1919
  584MOL0     C78715  10.064   1.509   6.275 -0.6230 -0.6970 -0.0897
  584MOL0     C78716   9.971   1.600   6.193 -0.9628  0.1336 -1.3357
  584MOL0     C78717  10.005   1.747   6.194 -0.9115 -0.3839 -0.3105
  584MOL0     C78718  10.142   1.791   6.138 -0.0320 -0.1584 -0.8901
  584MOL0     C78719  10.202   1.925   6.188 -0.9900  0.9565 -0.5845
  584MOL0     C78720  10.116   2.049   6.158 -0.5259  0.1015  0.2230
  584MOL0     C78721  10.154   2.124   6.023  0.2204 -0.3159 -0.4662
  584MOL0     N78722  10.169   2.039   5.907 -0.1398 -0.1167 -0.4618
  584MOL0     C78723  10.062   1.984   5.834 -0.5454  0.5740  0.5780
  584MOL0     C78724  10.122   1.882   5.761 -0.2746 -1.3831 -0.1138
  584MOL0     C78725  10.045   1.767   5.692 -0.6783  0.6400  0.0724
  584MOL0     C78726  10.011   1.658   5.788 -0.1110  0.7371 -0.2318
  584MOL0     C78727   9.893   1.579   5.746 -0.0761 -0.3849 -0.3635
  584MOL0     C78728   9.904   1.503   5.614 -0.2619  0.0237 -0.4570
  584MOL0     O78729   9.824   1.388   5.620 -0.3538 -0.3771 -0.4171
  584MOL0     C78730   9.754   1.362   5.510  0.3182  0.4617  0.0472
  584MOL0     C78731   9.625   1.398   5.489 -0.0194 -0.0783  0.3892
  584MOL0     C78732   9.557   1.334   5.374  0.4402  1.2325  0.0329
  584MOL0     C78733   9.413   1.363   5.361 -0.0425 -0.0128  0.7646
  584MOL0     C78734   9.627   1.255   5.276  0.7529  0.3959 -0.4495
  584MOL0     C78735   9.574   1.172   5.155  0.2363  0.3399 -0.3107
  584MOL0     O78736   9.436   1.163   5.131 -0.5112 -0.4497 -0.4662
  584MOL0     C78737   9.407   1.108   5.007  0.9515 -0.2587 -0.4420
  584MOL0     C78738   9.376   0.974   4.998  0.4905  0.3548 -0.4648
  584MOL0     C78739   9.337   0.915   4.880  0.0920 -0.1509 -0.0997
  584MOL0     C78740   9.321   0.996   4.771  0.7821  0.6086 -0.5761
  584MOL0     O78741   9.270   0.938   4.657 -0.8145  0.0375 -0.6038
  584MOL0     C78742   9.183   1.010   4.573  0.2482  0.6073  0.4290
  584MOL0     C78743   9.112   0.903   4.482  0.5320  1.0950  0.2799
  584MOL0     C78744   8.987   0.954   4.423  0.4671  0.3623  0.6670
  584MOL0     C78745   9.016   1.048   4.307 -0.2326 -0.2564 -0.3746
  584MOL0     C78746   8.881   1.119   4.258 -0.1869 -0.1955 -0.8861
  584MOL0     C78747   8.800   1.034   4.169 -0.0663  1.6420  0.3144
  584MOL0     C78748   8.861   1.037   4.028  0.0998  0.5462  0.1471
  584MOL0     C78749   8.842   0.902   3.962 -1.2771 -0.5801 -0.2936
  584MOL0    Cl78750   8.939   0.777   4.042 -0.4094  0.2886 -0.1455
  584MOL0     C78751   9.345   1.131   4.772  0.0323  0.2279  0.4312
  584MOL0     C78752   9.379   1.197   4.897  0.4487  0.1974  0.2880
  584MOL0     O78753   9.657   1.118   5.090 -0.1743  0.1741  0.6748
  584MOL0     C78754   9.761   1.226   5.310  0.6492  0.3961  0.7184
  584MOL0     C78755   9.820   1.288   5.419 -0.2009  0.1699 -0.5960
  584MOL0     N78756  10.256   1.889   5.792 -0.2665  0.1976  0.0787
  584MOL0     N78757  10.284   1.981   5.880 -0.3688 -0.5417  0.4659
  584MOL0     C78758   9.987   1.150   6.502 -0.3154 -0.1002  0.8197
  584MOL0     C78759  10.023   1.022   6.560 -0.6160 -0.0376  0.1728
  584MOL0     C78760  10.095   0.561   6.569 -0.1225  0.5311 -0.3156
  584MOL0     C78761  10.184   0.531   6.678 -0.0506 -0.3658 -0.5947
  584MOL0     C78762  10.232   0.406   6.700  0.6347 -0.5143 -0.1715
  584MOL0     C78763  10.195   0.296   6.621  0.7798 -1.3239  0.1202
  584MOL0     O78764  10.233   0.167   6.641  0.1052 -0.1274  0.5961
  584MOL0     C78765  10.192   0.097   6.751 -0.6664 -0.3894 -0.4293
  584MOL0     C78766  10.179  -0.056   6.712  0.1137 -0.5116  0.0767
  584MOL0     C78767  10.310  -0.113   6.663 -1.0512  0.1826  0.0315
  584MOL0     C78768  10.304  -0.262   6.629  0.1543  0.6532 -0.4493
  584MOL0     C78769  10.418  -0.329   6.698 -0.4402  0.0252  0.0957
  584MOL0     C78770  10.525  -0.371   6.731  0.5401  0.4463  0.2518
  584MOL0     C78771  10.087   0.321   6.529 -0.3095  0.0110 -0.1044
  584MOL0     C78772  10.040   0.454   6.503 -0.1371  0.1600  0.1508
  584MOL0     H78773  10.105   0.868   6.264 -1.2512 -0.3634 -0.6891
  584MOL0     H78774  10.008   1.072   6.177 -0.1691 -3.4582  0.2631
  584MOL0     H78775   9.912   1.455   6.422 -1.2248 -1.9906 -0.5264
  584MOL0     H78776  10.065   1.384   6.452 -1.4022 -2.0067  0.9642
  584MOL0     H78777  10.127   1.572   6.339 -3.3621  2.2540 -0.0709
  584MOL0     H78778  10.130   1.449   6.211  3.1302  1.8919  1.0030
  584MOL0     H78779   9.964   1.561   6.090 -1.2007  1.1247 -1.7047
  584MOL0     H78780   9.870   1.585   6.232 -0.5251 -1.8298 -0.8807
  584MOL0     H78781   9.932   1.805   6.137 -0.9822  0.9709  1.0884
  584MOL0     H78782  10.004   1.771   6.301  2.0844 -0.3211 -0.2386
  584MOL0     H78783  10.210   1.708   6.160 -0.1868 -0.2404 -0.7193
  584MOL0     H78784  10.142   1.804   6.030 -0.2005 -1.5960 -1.0826
  584MOL0     H78785  10.211   1.913   6.296  0.5784  0.5232 -0.7405
  584MOL0     H78786  10.305   1.945   6.156 -0.3577 -0.1541  0.6860
  584MOL0     H78787  10.014   2.011   6.160 -0.4624 -1.1307 -5.1044
  584MOL0     H78788  10.140   2.113   6.244  0.1354 -0.6618  0.6201
  584MOL0     H78789  10.253   2.168   6.039  1.4449 -3.5321  1.8983
  584MOL0     H78790  10.085   2.207   6.002  0.0640  0.0106  1.1679
  584MOL0     H78791   9.956   2.001   5.845 -1.5945 -3.2855 -1.5510
  584MOL0     H78792   9.965   1.807   5.629 -0.1896  1.5592  0.0209
  584MOL0     H78793  10.120   1.729   5.623 -0.3696  0.6417  0.4060
  584MOL0     H78794   9.973   1.710   5.876 -1.3886  0.9816 -0.9044
  584MOL0     H78795  10.101   1.597   5.800 -0.3087 -0.7470 -4.3724
  584MOL0     H78796   9.807   1.646   5.755  1.5175  1.4889  2.3118
  584MOL0     H78797   9.875   1.504   5.824 -0.6451  2.3606  2.3315
  584MOL0     H78798  10.009   1.475   5.605  0.3991  0.5074  3.6629
  584MOL0     H78799   9.868   1.570   5.535 -2.0387 -1.8047 -1.2586
  584MOL0     H78800   9.567   1.454   5.561  1.2170 -1.1716  2.2961
  584MOL0     H78801   9.385   1.376   5.256  3.8084  1.9603 -0.1987
  584MOL0     H78802   9.352   1.278   5.394 -1.1849 -2.1683 -5.6039
  584MOL0     H78803   9.385   1.443   5.431  0.8068  0.5453  0.4847
  584MOL0     H78804   9.384   0.914   5.088 -0.1323  0.2762 -0.4629
  584MOL0     H78805   9.340   0.807   4.880 -3.1883 -0.3694  1.5593
  584MOL0     H78806   9.119   1.068   4.641 -0.7607  2.5074 -1.9877
  584MOL0     H78807   9.238   1.083   4.513  0.2412 -1.3408 -2.1004
  584MOL0     H78808   9.165   0.854   4.400 -2.8198 -0.4355 -1.1641
  584MOL0     H78809   9.083   0.824   4.552  2.1131  2.0606  2.1019
  584MOL0     H78810   8.925   1.002   4.500 -0.0758 -1.8509  1.6895
  584MOL0     H78811   8.939   0.866   4.381  0.3975 -0.1081  1.7136
  584MOL0     H78812   9.083   1.128   4.339 -0.2151 -0.5022  0.2037
  584MOL0     H78813   9.073   0.990   4.233  2.4255  1.1965  0.4020
  584MOL0     H78814   8.897   1.211   4.201 -3.6786  1.9644  1.3064
  584MOL0     H78815   8.819   1.142   4.345 -1.8312  0.4733 -2.1814
  584MOL0     H78816   8.794   0.930   4.203  1.4403 -0.5387 -5.0808
  584MOL0     H78817   8.697   1.071   4.164 -1.8431 -2.4435  2.0039
  584MOL0     H78818   8.966   1.065   4.026 -0.0462  1.1483  0.5886
  584MOL0     H78819   8.808   1.116   3.973  0.3790  0.7190  0.1217
  584MOL0     H78820   8.872   0.916   3.858  0.2799  0.6973  0.2876
  584MOL0     H78821   8.736   0.874   3.968 -1.6375  0.5190 -1.1340
  584MOL0     H78822   9.335   1.197   4.687  1.5325 -0.9044 -0.6600
  584MOL0     H78823   9.390   1.304   4.913 -1.2361  0.2489  1.2977
  584MOL0     H78824   9.824   1.165   5.246 -0.5698 -1.8572  1.5727
  584MOL0     H78825   9.921   1.253   5.436 -1.1393 -1.8276  1.4158
  584MOL0     H78826   9.959   1.231   6.569 -1.3348 -1.5023  2.1565
  584MOL0     H78827  10.009   0.989   6.662  3.2214  1.8813  1.5085
  584MOL0     H78828  10.197   0.611   6.749  0.1138  1.0754 -2.1740
  584MOL0     H78829  10.296   0.369   6.779 -0.6185 -0.1419  1.0702
  584MOL0     H78830  10.264   0.115   6.832 -2.3665  2.8807  0.5069
  584MOL0     H78831  10.096   0.132   6.791 -1.7246 -2.1925 -1.2669
  584MOL0     H78832  10.099  -0.067   6.638 -1.5976  1.4543  1.5384
  584MOL0     H78833  10.152  -0.115   6.799  0.2974 -0.8857 -0.1182
  584MOL0     H78834  10.369  -0.092   6.753 -2.8557 -0.1211  1.3412
  584MOL0     H78835  10.361  -0.059   6.582 -2.0973  0.9627 -0.1334
  584MOL0     H78836  10.311  -0.285   6.523  2.0672  1.0597 -0.4553
  584MOL0     H78837  10.218  -0.313   6.673  1.9894 -1.5977  0.7963
  584MOL0     H78838  10.619  -0.421   6.745 -0.2429 -0.7586  1.5555
  584MOL0     H78839  10.032   0.249   6.470 -0.0276  0.2793 -0.7152
  584MOL0     H78840   9.953   0.466   6.439 -1.6630 -3.0377  1.4006
  585MOL0     O78841  10.028  10.503   9.160 -0.6328  0.5345  0.2705
  585MOL0     C78842  10.050  10.392   9.104  0.6891 -0.1851  0.5772
  585MOL0     O78843  10.169  10.331   9.108 -0.1611  0.0664  0.5894
  585MOL0     C78844  10.275  10.415   9.140  0.0547  0.3945  0.2318
  585MOL0     C78845  10.367  10.466   9.054 -0.0787 -0.0652 -0.3247
  585MOL0     C78846  10.490  10.522   9.101  1.7572  0.2965  1.7902
  585MOL0     C78847  10.503  10.566   9.234 -0.1847 -0.2032  0.4675
  585MOL0     O78848  10.601  10.652   9.265 -0.3416 -0.6675  0.4286
  585MOL0     C78849  10.641  10.648   9.404 -0.7918 -0.1640 -0.5381
  585MOL0     C78850  10.791  10.698   9.416  0.3108  0.5803 -0.2286
  585MOL0     C78851  10.803  10.854   9.417 -0.4589 -0.4807  0.0229
  585MOL0     C78852  10.723  10.940   9.517 -0.2109 -0.0497  1.2390
  585MOL0     C78853  10.761  11.082   9.513 -0.0006 -0.2553  0.6991
  585MOL0     C78854  10.675  11.169   9.609 -0.5516  0.5852  0.4692
  585MOL0     C78855  10.633  11.305   9.550 -0.6315 -0.1299 -0.4606
  585MOL0     C78856  10.514  11.280   9.452  0.5529 -0.0705 -0.4249
  585MOL0     N78857  10.432  11.399   9.433 -0.2145  0.3459  0.9517
  585MOL0     C78858  10.362  11.476   9.523 -0.5620 -0.5304 -0.4183
  585MOL0     C78859  10.317  11.584   9.452 -0.2361  0.1053  0.5329
  585MOL0     C78860  10.240  11.700   9.502 -0.7521  0.1348  0.3489
  585MOL0     C78861  10.094  11.701   9.455 -0.3682 -0.3232  0.5545
  585MOL0     C78862  10.031  11.837   9.497  0.7550 -0.1403  0.1380
  585MOL0     C78863   9.884  11.833   9.442  0.4301 -0.1740 -0.2797
  585MOL0     O78864   9.842  11.965   9.407  0.2420 -0.0226 -0.2489
  585MOL0     C78865   9.799  11.980   9.279  0.1336  0.6220 -0.5571
  585MOL0     C78866   9.897  12.000   9.176 -0.9464  1.1438 -0.5244
  585MOL0     C78867   9.873  12.013   9.042  0.5051  0.3056  0.2067
  585MOL0     C78868   9.985  12.064   8.950  0.3685 -1.1353  0.0396
  585MOL0     C78869   9.735  12.016   9.014 -0.6949  0.3177  0.7752
  585MOL0     C78870   9.693  12.023   8.871  1.4238 -0.1344 -0.0267
  585MOL0     O78871   9.767  11.945   8.782  0.1783  0.0385 -0.1188
  585MOL0     C78872   9.770  11.958   8.644  0.5134  0.1424  0.1168
  585MOL0     C78873   9.868  11.887   8.575  0.4928  0.3409  0.2213
  585MOL0     C78874   9.879  11.902   8.437 -0.5925 -1.3203  0.6689
  585MOL0     C78875   9.806  11.999   8.367  0.1313 -0.3731 -0.2852
  585MOL0     O78876   9.821  12.018   8.233  0.0059 -0.5187  0.1387
  585MOL0     C78877   9.866  12.149   8.183  0.1952  0.6191  0.5014
  585MOL0     C78878   9.817  12.160   8.043  0.8088 -0.4240 -0.2985
  585MOL0     C78879   9.661  12.170   8.040  0.4006 -0.6540 -0.1392
  585MOL0     C78880   9.621  12.310   8.103  0.4384  0.2040 -1.4205
  585MOL0     C78881   9.483  12.340   8.067  0.2848  0.1089  0.1076
  585MOL0     C78882   9.422  12.448   8.156  0.0347  0.4444 -0.0712
  585MOL0     C78883   9.274  12.485   8.130  0.0727 -0.6278  0.8732
  585MOL0     C78884   9.239  12.615   8.213  0.5470  0.0860 -0.2920
  585MOL0    Cl78885   9.182  12.749   8.111  0.2738  0.2008 -0.3246
  585MOL0     C78886   9.714  12.071   8.433 -0.2523 -0.6972  0.6081
  585MOL0     C78887   9.692  12.048   8.577  0.2474  0.7820  1.2472
  585MOL0     O78888   9.579  12.070   8.848  0.5696  0.2326  0.5232
  585MOL0     C78889   9.638  12.006   9.109  0.0512 -0.3304  0.0595
  585MOL0     C78890   9.670  11.980   9.241  0.4096 -0.0068 -0.4277
  585MOL0     N78891  10.356  11.570   9.318  0.6572 -0.1907 -0.4965
  585MOL0     N78892  10.429  11.462   9.309 -0.6276 -0.1493  0.3390
  585MOL0     C78893  10.408  10.500   9.328  0.2537  0.0950 -0.0018
  585MOL0     C78894  10.306  10.425   9.277  0.2248 -0.3606  0.0222
  585MOL0     C78895   9.929  10.332   9.040 -0.8974  0.3137  0.1015
  585MOL0     C78896   9.829  10.417   8.986 -0.1438  0.0541 -0.7125
  585MOL0     C78897   9.725  10.365   8.909 -0.0960  0.0701 -0.0799
  585MOL0     C78898   9.715  10.225   8.896  0.7704  0.0974  0.0658
  585MOL0     O78899   9.617  10.151   8.828  0.1517 -0.4280 -0.5268
  585MOL0     C78900   9.539  10.221   8.726 -1.0827 -1.0422  0.0485
  585MOL0     C78901   9.482  10.129   8.622  0.0793 -0.0751 -0.7114
  585MOL0     C78902   9.354  10.055   8.665  0.2342 -0.3976 -0.2185
  585MOL0     C78903   9.273  10.004   8.547  0.1133 -0.1418  0.2839
  585MOL0     C78904   9.360   9.924   8.459 -1.2703  0.2539  0.5712
  585MOL0     C78905   9.429   9.853   8.387 -0.3665  0.2789 -0.7281
  585MOL0     C78906   9.814  10.145   8.956  0.1390  0.0805  0.3934
  585MOL0     C78907   9.912  10.198   9.031 -0.4735  0.0637  0.4193
  585MOL0     H78908  10.353  10.450   8.948  1.0718 -0.7218 -0.3939
  585MOL0     H78909  10.558  10.558   9.023 -3.2986  1.0489 -2.9084
  585MOL0     H78910  10.591  10.731   9.456  1.6763 -1.8961  5.4438
  585MOL0     H78911  10.630  10.558   9.465 -0.3226  0.7850  1.0037
  585MOL0     H78912  10.827  10.666   9.514 -0.4380  0.1583 -0.0795
  585MOL0     H78913  10.845  10.660   9.329  0.0896  1.2165 -0.6520
  585MOL0     H78914  10.909  10.875   9.436 -0.3995  0.5048 -1.2720
  585MOL0     H78915  10.796  10.897   9.317  1.9386 -2.0382 -0.9140
  585MOL0     H78916  10.616  10.936   9.494  0.3116  0.0789 -1.6540
  585MOL0     H78917  10.736  10.908   9.621  0.7537 -1.9586  0.5769
  585MOL0     H78918  10.867  11.095   9.537  0.5139  2.1139 -2.2952
  585MOL0     H78919  10.745  11.135   9.419 -0.3375  1.0078  1.4489
  585MOL0     H78920  10.582  11.117   9.632 -0.9803  0.6945 -0.9024
  585MOL0     H78921  10.730  11.194   9.700 -0.5948 -1.6205  1.1787
  585MOL0     H78922  10.597  11.363   9.635 -3.9220 -3.1112  0.4105
  585MOL0     H78923  10.713  11.363   9.502  0.0262 -0.9270 -0.3566
  585MOL0     H78924  10.432  11.216   9.487  0.7209 -1.4432 -2.3874
  585MOL0     H78925  10.540  11.241   9.353  1.3066  2.0621 -1.1239
  585MOL0     H78926  10.333  11.455   9.625  0.2396  1.7944  0.3669
  585MOL0     H78927  10.248  11.718   9.609  0.9774 -0.7582  0.3909
  585MOL0     H78928  10.285  11.784   9.449  1.1932 -3.0736 -3.6188
  585MOL0     H78929  10.052  11.616   9.508  0.0182 -1.3083 -0.6823
  585MOL0     H78930  10.105  11.673   9.350  3.0046 -0.3029  0.7865
  585MOL0     H78931  10.087  11.916   9.447  0.8868 -0.2347  0.1376
  585MOL0     H78932  10.042  11.846   9.606  1.2618  2.3576 -0.0799
  585MOL0     H78933   9.819  11.812   9.527 -0.0665  1.0336 -0.3493
  585MOL0     H78934   9.861  11.764   9.359 -1.4484  0.4960 -0.3625
  585MOL0     H78935   9.999  12.013   9.213 -0.5722  0.1663 -1.1847
  585MOL0     H78936   9.947  12.156   8.905 -0.0556 -1.1524  0.3609
  585MOL0     H78937  10.076  12.077   9.011  2.1309  0.4675 -2.7093
  585MOL0     H78938  10.015  11.997   8.869  2.2187 -1.9933  1.3595
  585MOL0     H78939   9.918  11.813   8.637 -0.0748  1.3211  1.9304
  585MOL0     H78940   9.945  11.840   8.378 -2.3710 -1.3449 -1.3987
  585MOL0     H78941   9.836  12.237   8.241 -1.4268 -0.5576  1.5321
  585MOL0     H78942   9.975  12.144   8.193  0.3050 -4.1797 -0.6334
  585MOL0     H78943   9.859  12.248   7.995  0.0410  0.7514  1.1233
  585MOL0     H78944   9.856  12.069   7.996  1.6025  0.0811 -0.6375
  585MOL0     H78945   9.619  12.083   8.091 -1.0835 -0.2991 -0.6921
  585MOL0     H78946   9.624  12.151   7.938 -4.4208 -1.3258  1.4986
  585MOL0     H78947   9.630  12.313   8.212  1.1638  1.9316 -1.5017
  585MOL0     H78948   9.690  12.389   8.071  0.5225 -0.3413 -2.6022
  585MOL0     H78949   9.419  12.251   8.066  1.4111 -0.7319 -1.0451
  585MOL0     H78950   9.478  12.382   7.967 -2.1416  2.7462  1.2135
  585MOL0     H78951   9.425  12.423   8.263  2.5209 -0.4737 -0.2898
  585MOL0     H78952   9.488  12.536   8.149  0.0960  0.3452 -0.7493
  585MOL0     H78953   9.205  12.405   8.158 -0.1525 -0.9418 -0.5042
  585MOL0     H78954   9.264  12.504   8.023  3.3499 -0.3967  0.4979
  585MOL0     H78955   9.323  12.649   8.273  1.7085 -1.3608 -1.0235
  585MOL0     H78956   9.154  12.589   8.277  0.2605  2.1283  0.2045
  585MOL0     H78957   9.655  12.146   8.382  1.1380  0.3511  0.4749
  585MOL0     H78958   9.633  12.112   8.640 -0.1678  1.6624  0.0063
  585MOL0     H78959   9.533  12.000   9.085  0.3281 -2.8147 -0.8824
  585MOL0     H78960   9.589  11.973   9.313 -1.4151  3.8803 -1.7859
  585MOL0     H78961  10.419  10.504   9.436 -1.8679  1.6662  0.2039
  585MOL0     H78962  10.241  10.374   9.347 -1.3306 -0.1610 -1.2133
  585MOL0     H78963   9.832  10.525   8.997  0.8825  0.5060 -4.2272
  585MOL0     H78964   9.662  10.436   8.858 -2.5107 -0.3042  2.1628
  585MOL0     H78965   9.455  10.276   8.768 -3.0066 -3.4065 -0.4595
  585MOL0     H78966   9.590  10.301   8.672 -2.0187 -1.3421 -1.3207
  585MOL0     H78967   9.558  10.055   8.596 -1.0496 -1.3171 -0.6090
  585MOL0     H78968   9.437  10.187   8.541 -0.9855 -0.3180 -0.3181
  585MOL0     H78969   9.290  10.130   8.713  1.0735 -0.1516  0.5599
  585MOL0     H78970   9.381   9.982   8.742  0.7275  2.3008  2.3517
  585MOL0     H78971   9.227  10.089   8.497 -0.6261 -1.1386 -0.7886
  585MOL0     H78972   9.193   9.939   8.584 -0.4248  0.0164 -0.5904
  585MOL0     H78973   9.485   9.780   8.332  0.9531 -1.2068  2.3037
  585MOL0     H78974   9.812  10.037   8.957  0.5844  0.0655  1.9462
  585MOL0     H78975   9.983  10.127   9.072  1.0546  2.0334  1.3424
  586MOL0     O78976  10.322   0.541   9.253  0.2204 -0.5214  1.0673
  586MOL0     C78977  10.414   0.602   9.191  0.9911  0.2180 -0.1402
  586MOL0     O78978  10.419   0.738   9.149  0.4789 -0.5653 -0.3780
  586MOL0     C78979  10.306   0.820   9.121 -0.8027  0.3771 -0.6458
  586MOL0     C78980  10.300   0.897   9.003  0.5974  0.0523  0.2506
  586MOL0     C78981  10.188   0.975   8.972  0.2673 -0.6260  0.0511
  586MOL0     C78982  10.073   0.987   9.057 -0.0020  0.0873  1.6731
  586MOL0     O78983   9.965   1.057   9.020 -0.3289 -0.0467 -0.2359
  586MOL0     C78984   9.834   0.981   9.021 -1.2873 -0.6219 -0.6185
  586MOL0     C78985   9.716   1.045   9.094  0.3522 -0.3780 -0.4011
  586MOL0     C78986   9.669   1.171   9.025  1.1018 -0.1630 -0.4352
  586MOL0     C78987   9.533   1.224   9.094  0.0672  0.1576  1.1934
  586MOL0     C78988   9.557   1.290   9.230 -0.5076 -0.3684 -0.5684
  586MOL0     C78989   9.428   1.346   9.284  0.1503 -0.4634 -0.3254
  586MOL0     C78990   9.453   1.435   9.410  0.0932 -0.4155 -1.1022
  586MOL0     C78991   9.446   1.358   9.543 -0.2914  0.9467 -0.6806
  586MOL0     N78992   9.570   1.284   9.577  0.3857 -0.1640 -0.1718
  586MOL0     C78993   9.573   1.186   9.678 -0.2546 -0.8543  0.6499
  586MOL0     C78994   9.699   1.175   9.718 -0.0072 -0.2622  0.2030
  586MOL0     C78995   9.755   1.101   9.840  1.1750 -0.0602 -0.1881
  586MOL0     C78996   9.694   1.123   9.977  0.4276 -0.7790 -0.1704
  586MOL0     C78997   9.725   1.261  10.046 -0.1078 -1.4448  1.2271
  586MOL0     C78998   9.668   1.387   9.980 -0.3334  0.2100 -0.4974
  586MOL0     O78999   9.524   1.364   9.957 -0.0391  0.2587 -0.4581
  586MOL0     C79000   9.445   1.463   9.908  0.2329  0.1969  0.4430
  586MOL0     C79001   9.312   1.438   9.891  0.1020 -0.3604 -0.5304
  586MOL0     C79002   9.218   1.522   9.842 -0.3078 -0.4809  0.4546
  586MOL0     C79003   9.077   1.466   9.834 -0.0068  0.9867 -0.5196
  586MOL0     C79004   9.258   1.651   9.794 -0.0020 -0.2663  0.2331
  586MOL0     C79005   9.167   1.771   9.768 -0.5549 -0.7809 -0.0900
  586MOL0     O79006   9.233   1.875   9.716 -1.0330  0.0585 -0.1686
  586MOL0     C79007   9.153   1.989   9.716 -0.2767 -0.4183  0.1687
  586MOL0     C79008   9.036   1.999   9.636  0.2902  0.0193 -0.0596
  586MOL0     C79009   8.972   2.120   9.624 -0.5981 -0.5107 -0.1825
  586MOL0     C79010   9.009   2.230   9.699  0.3786  0.3523 -0.2193
  586MOL0     O79011   8.950   2.350   9.693  0.1003  0.2248  1.0047
  586MOL0     C79012   9.010   2.439   9.600 -0.0902 -0.1150  0.4116
  586MOL0     C79013   8.949   2.583   9.626 -0.1333  0.5090  0.2373
  586MOL0     C79014   8.986   2.686   9.520 -0.8960  0.5296 -0.8819
  586MOL0     C79015   8.917   2.824   9.557 -0.3970 -0.7143 -0.2341
  586MOL0     C79016   8.925   2.925   9.448  0.1129  1.1514 -0.3219
  586MOL0     C79017   8.866   3.057   9.488  0.2424 -0.4408 -0.0457
  586MOL0     C79018   8.848   3.164   9.372 -0.0122  0.4541  1.2263
  586MOL0     C79019   8.978   3.237   9.337 -0.2350 -0.3476  0.7935
  586MOL0    Cl79020   9.006   3.363   9.464 -0.3307  0.0436  0.2079
  586MOL0     C79021   9.121   2.222   9.775  0.3783 -0.4945 -0.0004
  586MOL0     C79022   9.193   2.103   9.786 -0.4123  0.9338  0.2312
  586MOL0     O79023   9.050   1.762   9.813  0.4953 -0.7038 -0.3237
  586MOL0     C79024   9.397   1.682   9.800  0.5840  0.4943  0.2621
  586MOL0     C79025   9.486   1.586   9.861 -0.9505 -0.5940  0.2936
  586MOL0     N79026   9.776   1.257   9.644 -0.1078 -0.1685 -0.2082
  586MOL0     N79027   9.704   1.317   9.559  1.2858 -0.1493  0.4284
  586MOL0     C79028  10.085   0.909   9.171  0.3016 -0.0438  1.0306
  586MOL0     C79029  10.198   0.832   9.211  0.5796 -0.3888  0.3842
  586MOL0     C79030  10.526   0.514   9.169  0.5391  0.8111  0.3847
  586MOL0     C79031  10.516   0.374   9.194  0.3156  0.3571  0.3774
  586MOL0     C79032  10.632   0.305   9.218 -0.0321 -0.2983  0.1856
  586MOL0     C79033  10.754   0.370   9.204 -0.0868  0.4563  0.5565
  586MOL0     O79034  10.873   0.303   9.229 -0.3500 -0.0990 -0.4121
  586MOL0     C79035  10.867   0.175   9.298  1.2346 -0.0385  0.9866
  586MOL0     C79036  11.001   0.154   9.351  0.1863 -0.2435 -0.9065
  586MOL0     C79037  10.998   0.042   9.451 -0.8434 -0.3520  1.0240
  586MOL0     C79038  11.136   0.003   9.496  0.3628  0.4481  0.5121
  586MOL0     C79039  11.146  -0.137   9.529 -0.6768  0.1310 -0.9927
  586MOL0     C79040  11.169  -0.247   9.569 -0.0995  0.6104  0.3976
  586MOL0     C79041  10.759   0.506   9.169  0.4169 -0.0931  0.2011
  586MOL0     C79042  10.644   0.569   9.149  0.4880  0.0465  0.9806
  586MOL0     H79043  10.383   0.898   8.933 -0.9745 -1.0633 -1.7490
  586MOL0     H79044  10.182   1.027   8.877 -1.3127  1.5703  1.2679
  586MOL0     H79045   9.815   0.955   8.916 -0.7819  0.2387 -0.9347
  586MOL0     H79046   9.842   0.887   9.076 -0.9642 -1.5976 -2.2640
  586MOL0     H79047   9.635   0.972   9.099  0.3617 -0.4269 -0.8770
  586MOL0     H79048   9.743   1.064   9.198 -1.0784 -0.3702 -0.0157
  586MOL0     H79049   9.751   1.243   9.027  0.1704  0.9628 -1.3152
  586MOL0     H79050   9.658   1.143   8.920  1.1915  0.2783 -0.5610
  586MOL0     H79051   9.483   1.295   9.028  0.1861  1.3719  2.3645
  586MOL0     H79052   9.459   1.145   9.109 -0.8243  1.1385  2.1070
  586MOL0     H79053   9.614   1.230   9.301  0.1623  0.9343  0.0210
  586MOL0     H79054   9.622   1.375   9.207 -1.5368  1.4720  2.6427
  586MOL0     H79055   9.369   1.396   9.206 -0.6619  0.6022  0.9249
  586MOL0     H79056   9.358   1.267   9.315  0.9392 -1.4593 -0.9979
  586MOL0     H79057   9.544   1.495   9.402  0.4949 -0.9767 -0.8138
  586MOL0     H79058   9.376   1.512   9.429  1.3032 -0.1613  4.3709
  586MOL0     H79059   9.360   1.290   9.546  1.4658 -1.3667  1.6316
  586MOL0     H79060   9.435   1.437   9.618 -0.9307 -0.1200  0.3782
  586MOL0     H79061   9.478   1.159   9.723 -1.6591  0.6331 -1.2418
  586MOL0     H79062   9.749   0.997   9.807  0.8536  0.6937 -2.7343
  586MOL0     H79063   9.862   1.117   9.852  1.2790  0.0464 -1.1780
  586MOL0     H79064   9.736   1.049  10.046  0.2590  2.1867  3.4357
  586MOL0     H79065   9.588   1.115   9.954  0.1078  3.2041 -0.6636
  586MOL0     H79066   9.831   1.279  10.062 -0.4399  1.2453  0.8856
  586MOL0     H79067   9.683   1.264  10.147 -2.1014  0.4983  0.4265
  586MOL0     H79068   9.724   1.418   9.892  0.9368  0.1984  0.2730
  586MOL0     H79069   9.691   1.462  10.056  1.5277 -2.1059  1.3951
  586MOL0     H79070   9.282   1.341   9.929  0.3025  0.9044  3.2953
  586MOL0     H79071   9.058   1.371   9.884  0.4074  1.2504  0.1614
  586MOL0     H79072   9.011   1.539   9.881  0.3939  1.9378 -1.3968
  586MOL0     H79073   9.038   1.447   9.734 -3.1870 -1.4890  1.0126
  586MOL0     H79074   8.988   1.914   9.590 -1.9519 -0.3051  2.6033
  586MOL0     H79075   8.884   2.137   9.563 -2.1822  1.4732  2.4619
  586MOL0     H79076   9.116   2.452   9.623  0.5493 -1.0348 -1.7698
  586MOL0     H79077   8.987   2.414   9.496 -2.2561  1.9498  0.2909
  586MOL0     H79078   8.840   2.578   9.623 -0.1909  0.2827  2.0461
  586MOL0     H79079   8.983   2.624   9.721  3.8954 -2.9640  0.5870
  586MOL0     H79080   8.946   2.655   9.423 -3.0601  0.4363 -0.0122
  586MOL0     H79081   9.095   2.697   9.519 -0.3167 -2.3794  3.3111
  586MOL0     H79082   8.812   2.809   9.584 -0.7879  0.6625 -0.9562
  586MOL0     H79083   8.973   2.868   9.640 -0.1438  2.5453 -1.9950
  586MOL0     H79084   8.875   2.874   9.365 -0.4092 -2.3451  1.9316
  586MOL0     H79085   9.029   2.930   9.413  0.2076 -1.3353 -0.5882
  586MOL0     H79086   8.766   3.030   9.524  0.6252 -0.9234  0.6629
  586MOL0     H79087   8.929   3.097   9.567  0.7937 -0.4169 -0.4910
  586MOL0     H79088   8.771   3.240   9.386 -0.0788  0.5514  0.4209
  586MOL0     H79089   8.808   3.103   9.290 -1.2015 -0.1159  2.2023
  586MOL0     H79090   8.978   3.284   9.239  2.7736  1.4283  1.5148
  586MOL0     H79091   9.058   3.163   9.345 -1.0100 -1.1157  1.7292
  586MOL0     H79092   9.153   2.308   9.833  1.6092 -0.6116 -0.4769
  586MOL0     H79093   9.250   2.099   9.878 -2.6099 -4.4276  1.7582
  586MOL0     H79094   9.447   1.776   9.777  3.3408 -1.0649 -0.6795
  586MOL0     H79095   9.593   1.606   9.864 -0.3745 -3.2236  0.2250
  586MOL0     H79096  10.001   0.908   9.239 -1.0834  0.5423 -0.6199
  586MOL0     H79097  10.203   0.778   9.304 -2.0581  1.2160  1.5704
  586MOL0     H79098  10.421   0.322   9.200  1.1426 -1.1658  1.0094
  586MOL0     H79099  10.623   0.204   9.257  2.6665 -0.2852  1.0449
  586MOL0     H79100  10.791   0.185   9.376 -2.2538  3.5017 -2.4545
  586MOL0     H79101  10.833   0.096   9.230 -1.0191  1.3455  0.4172
  586MOL0     H79102  11.034   0.243   9.406 -2.2403  1.5102 -2.0907
  586MOL0     H79103  11.078   0.140   9.275  0.1767  1.6480 -1.3038
  586MOL0     H79104  10.959  -0.048   9.404 -0.7798  0.1572 -0.0266
  586MOL0     H79105  10.934   0.073   9.534  0.4913 -1.6484  2.6081
  586MOL0     H79106  11.155   0.063   9.585 -0.4627 -0.0866  1.0616
  586MOL0     H79107  11.213   0.022   9.421 -0.6936 -1.4739 -1.1930
  586MOL0     H79108  11.189  -0.352   9.578  1.2883  1.0258  5.5616
  586MOL0     H79109  10.858   0.551   9.181  0.0833  0.7032  0.0380
  586MOL0     H79110  10.656   0.669   9.108  3.6576 -0.3277  0.7924
  587MOL0     O79111   0.522   4.680   0.609  0.3133 -0.1799 -0.0140
  587MOL0     C79112   0.415   4.751   0.605 -0.6350  0.4344  0.6170
  587MOL0     O79113   0.366   4.832   0.704  0.0790 -0.9137  0.2840
  587MOL0     C79114   0.408   4.821   0.834  0.0025  0.2859  0.0403
  587MOL0     C79115   0.534   4.869   0.876  0.1157  0.4800 -0.3541
  587MOL0     C79116   0.563   4.855   1.016 -0.4643 -0.1492  0.6688
  587MOL0     C79117   0.473   4.798   1.108  0.0169  0.7848  0.5301
  587MOL0     O79118   0.510   4.804   1.240  0.4994  0.0449  0.6394
  587MOL0     C79119   0.408   4.782   1.334 -1.0520  0.5658 -0.5725
  587MOL0     C79120   0.463   4.815   1.469  0.2343 -0.1991  0.4058
  587MOL0     C79121   0.587   4.747   1.522 -0.1151  0.7199 -0.0547
  587MOL0     C79122   0.596   4.766   1.672 -0.3286  0.4332  0.1008
  587MOL0     C79123   0.708   4.694   1.749 -0.2957 -0.3019  0.2015
  587MOL0     C79124   0.848   4.728   1.698  0.4694 -0.6462 -0.2272
  587MOL0     C79125   0.889   4.872   1.706 -0.2098 -0.5178  0.0177
  587MOL0     C79126   1.032   4.902   1.666 -0.1212 -0.0597  1.0446
  587MOL0     N79127   1.087   5.035   1.711  0.5813 -0.4881  0.2041
  587MOL0     C79128   1.052   5.148   1.654 -0.2601 -0.3067  0.2439
  587MOL0     C79129   1.132   5.248   1.699 -0.7958  0.2915  0.1398
  587MOL0     C79130   1.160   5.387   1.651 -0.0890  0.0869  0.5691
  587MOL0     C79131   1.248   5.473   1.754  0.1826  0.0256  0.8331
  587MOL0     C79132   1.232   5.625   1.725 -0.5080  0.0651 -0.6938
  587MOL0     C79133   1.342   5.713   1.779  0.6589  0.8216 -0.2165
  587MOL0     O79134   1.307   5.848   1.802  0.3750  0.5892  0.2489
  587MOL0     C79135   1.404   5.910   1.883  0.2461  1.4096  0.1581
  587MOL0     C79136   1.379   5.928   2.022  0.2332  0.3733  0.4634
  587MOL0     C79137   1.469   6.000   2.105 -0.1787 -0.0120 -0.0726
  587MOL0     C79138   1.413   6.030   2.242  0.4839  0.5585  0.2998
  587MOL0     C79139   1.600   6.032   2.053  0.5298 -0.1040 -0.6323
  587MOL0     C79140   1.698   6.114   2.139  0.2680 -0.0452  0.3907
  587MOL0     O79141   1.689   6.128   2.274  0.4244  0.1572 -0.1626
  587MOL0     C79142   1.765   6.215   2.338  0.5102 -0.2386 -0.3473
  587MOL0     C79143   1.790   6.352   2.296 -0.5293  0.0826 -0.2218
  587MOL0     C79144   1.870   6.442   2.370 -0.2151  0.3673 -0.1200
  587MOL0     C79145   1.928   6.383   2.484 -0.2075 -0.4132  0.1622
  587MOL0     O79146   2.008   6.449   2.569 -0.3624  0.2777  0.2120
  587MOL0     C79147   2.019   6.592   2.547  0.2674  0.1855  0.5101
  587MOL0     C79148   2.096   6.656   2.668 -0.4665  0.0586  0.9847
  587MOL0     C79149   2.241   6.587   2.675  0.6661  0.5666 -0.3509
  587MOL0     C79150   2.319   6.679   2.763 -0.4429 -0.3313 -0.4798
  587MOL0     C79151   2.454   6.629   2.817  0.3228  0.3364  0.4920
  587MOL0     C79152   2.530   6.723   2.905  0.8387 -0.0215  0.0950
  587MOL0     C79153   2.536   6.866   2.860  0.5280 -0.3680 -0.5934
  587MOL0     C79154   2.606   6.958   2.953 -0.0246 -0.8118 -0.4818
  587MOL0    Cl79155   2.515   6.980   3.105 -0.7286 -0.2154 -0.2883
  587MOL0     C79156   1.912   6.251   2.518  0.7538 -0.0508  0.3061
  587MOL0     C79157   1.826   6.176   2.452 -0.1751 -0.1131 -0.7448
  587MOL0     O79158   1.780   6.175   2.071 -0.1857  0.1240 -0.2863
  587MOL0     C79159   1.617   6.014   1.915  1.8674  0.4802 -0.0259
  587MOL0     C79160   1.519   5.961   1.834  0.0843 -0.4216 -0.6859
  587MOL0     N79161   1.214   5.189   1.793 -0.4264  0.6205 -0.2529
  587MOL0     N79162   1.193   5.065   1.790  0.4285  0.3608  0.0558
  587MOL0     C79163   0.349   4.750   1.059  0.7461  0.1606 -0.3518
  587MOL0     C79164   0.319   4.765   0.921 -0.5882  0.8253  0.4956
  587MOL0     C79165   0.347   4.754   0.471 -1.1030  0.9070 -0.7720
  587MOL0     C79166   0.383   4.648   0.374  0.6122 -0.3061  0.2225
  587MOL0     C79167   0.331   4.659   0.246 -0.1730 -0.2426 -0.6325
  587MOL0     C79168   0.255   4.769   0.208  0.0039  0.9751  0.2086
  587MOL0     O79169   0.179   4.782   0.092 -0.6343 -0.2153  0.2005
  587MOL0     C79170   0.217   4.704  -0.016 -0.3309  0.6030 -0.0977
  587MOL0     C79171   0.174   4.749  -0.158 -0.7076 -0.5528  0.1287
  587MOL0     C79172   0.021   4.749  -0.173 -0.9752  0.8781 -0.3921
  587MOL0     C79173  -0.022   4.803  -0.311  0.0055 -0.5359  0.5025
  587MOL0     C79174   0.024   4.940  -0.324 -0.5610 -0.0380  0.5061
  587MOL0     C79175   0.070   5.050  -0.344 -0.5977 -0.3640  0.1846
  587MOL0     C79176   0.235   4.869   0.299 -0.3821  0.0894 -0.1507
  587MOL0     C79177   0.268   4.859   0.429 -0.1078  0.1144 -0.6103
  587MOL0     H79178   0.593   4.915   0.798  0.5603 -0.2522 -0.4671
  587MOL0     H79179   0.646   4.914   1.056 -2.2803  1.6296  2.0166
  587MOL0     H79180   0.328   4.856   1.324 -3.2757 -1.8467 -1.9287
  587MOL0     H79181   0.370   4.680   1.325  1.7286 -0.4379 -2.3636
  587MOL0     H79182   0.483   4.923   1.465  0.9969 -0.2562  2.0831
  587MOL0     H79183   0.378   4.812   1.538 -0.1012  0.6420  0.0570
  587MOL0     H79184   0.584   4.641   1.493 -1.3905  0.5626  0.5727
  587MOL0     H79185   0.677   4.786   1.475 -1.3354  4.0491  0.1011
  587MOL0     H79186   0.603   4.873   1.697  1.3096  0.0915  1.2784
  587MOL0     H79187   0.509   4.719   1.718 -0.7589  0.6663 -0.4605
  587MOL0     H79188   0.700   4.711   1.857 -2.1885  0.5250 -0.0453
  587MOL0     H79189   0.692   4.592   1.713  0.4756  0.8886 -4.0486
  587MOL0     H79190   0.915   4.674   1.765  3.2203  2.4893 -0.1671
  587MOL0     H79191   0.858   4.688   1.596  2.9139 -1.3388  0.2190
  587MOL0     H79192   0.819   4.927   1.643 -1.1168 -2.5148 -0.8009
  587MOL0     H79193   0.891   4.895   1.813  0.1369 -1.4694  0.2256
  587MOL0     H79194   1.043   4.894   1.557 -0.7174  0.7208  0.9223
  587MOL0     H79195   1.099   4.834   1.720  0.9812 -2.8724 -3.3027
  587MOL0     H79196   0.983   5.172   1.574 -0.5522  1.9548  1.0907
  587MOL0     H79197   1.205   5.373   1.552  2.6615 -1.3224  1.9019
  587MOL0     H79198   1.057   5.422   1.640 -0.7014 -1.7218  0.2242
  587MOL0     H79199   1.352   5.441   1.748  0.2491  0.4512 -2.6432
  587MOL0     H79200   1.206   5.463   1.854 -0.6535  0.1705  0.5111
  587MOL0     H79201   1.139   5.666   1.764 -0.7545 -1.7713  0.8111
  587MOL0     H79202   1.239   5.628   1.616  1.1195 -1.7232 -0.6935
  587MOL0     H79203   1.434   5.698   1.722  1.8590  0.8674  1.6334
  587MOL0     H79204   1.366   5.671   1.877  3.2144  1.5892 -0.4564
  587MOL0     H79205   1.282   5.905   2.066 -0.6774  2.1278 -0.4833
  587MOL0     H79206   1.320   5.979   2.268  0.2506  1.8386  2.1259
  587MOL0     H79207   1.483   6.015   2.324 -1.6530  1.6138  2.4288
  587MOL0     H79208   1.395   6.138   2.244  1.0395  0.6411  1.1109
  587MOL0     H79209   1.759   6.386   2.198  1.2901  0.7724 -0.5921
  587MOL0     H79210   1.863   6.541   2.326 -2.0603  0.4880  0.3496
  587MOL0     H79211   2.073   6.621   2.457 -1.9421 -1.4405 -1.4660
  587MOL0     H79212   1.920   6.638   2.535 -2.0705 -4.6728 -2.0565
  587MOL0     H79213   2.098   6.762   2.640  2.0820 -0.6730 -2.2039
  587MOL0     H79214   2.030   6.638   2.753 -2.0037 -0.0539 -0.1886
  587MOL0     H79215   2.283   6.573   2.575  0.8584 -1.1561 -0.0568
  587MOL0     H79216   2.235   6.490   2.724 -1.5993 -0.7109 -2.8787
  587MOL0     H79217   2.330   6.771   2.705  0.4726  1.6108  2.4972
  587MOL0     H79218   2.264   6.710   2.853  2.0377 -0.9162  1.3710
  587MOL0     H79219   2.518   6.605   2.732 -0.2694 -2.7097  0.7842
  587MOL0     H79220   2.439   6.534   2.869 -1.3305 -0.0710 -0.6639
  587MOL0     H79221   2.492   6.718   3.008  1.2520 -3.0088  0.1995
  587MOL0     H79222   2.634   6.690   2.908  1.0958  0.7778  0.3760
  587MOL0     H79223   2.441   6.918   2.854  1.5498  1.6071 -0.5558
  587MOL0     H79224   2.580   6.859   2.760 -1.4052 -1.6869 -1.4045
  587MOL0     H79225   2.625   7.056   2.909  1.1278 -1.1311 -0.7263
  587MOL0     H79226   2.707   6.925   2.976 -0.4286  0.2659  3.7095
  587MOL0     H79227   1.970   6.200   2.594  1.6571 -0.7957 -0.8593
  587MOL0     H79228   1.811   6.075   2.487  1.3760 -0.5880 -1.3360
  587MOL0     H79229   1.710   6.043   1.867  0.4610  2.2782 -1.8053
  587MOL0     H79230   1.536   5.957   1.727  1.9152 -0.4439 -0.4154
  587MOL0     H79231   0.270   4.721   1.127  1.1992 -0.8865 -0.2596
  587MOL0     H79232   0.229   4.719   0.881 -1.0391  1.0252  1.2488
  587MOL0     H79233   0.449   4.568   0.407 -0.2929 -1.6499 -1.1191
  587MOL0     H79234   0.358   4.580   0.176  1.9412 -2.2788  2.2478
  587MOL0     H79235   0.325   4.690  -0.015  0.0735  2.9687  2.8690
  587MOL0     H79236   0.161   4.612   0.006 -0.7623  0.6785 -0.8327
  587MOL0     H79237   0.210   4.681  -0.236  2.0805  0.2412  0.6159
  587MOL0     H79238   0.209   4.850  -0.184 -1.8287 -0.2810 -0.3611
  587MOL0     H79239  -0.026   4.809  -0.094 -0.9996 -1.5712  1.6052
  587MOL0     H79240  -0.019   4.648  -0.168 -1.8426  1.2328 -0.0120
  587MOL0     H79241  -0.131   4.796  -0.318 -0.2413 -1.2417  3.5747
  587MOL0     H79242   0.017   4.740  -0.391 -1.0799  0.0804 -0.5477
  587MOL0     H79243   0.120   5.145  -0.346 -1.2010  0.1023  2.8486
  587MOL0     H79244   0.171   4.950   0.264 -1.4424 -0.8286 -0.4207
  587MOL0     H79245   0.245   4.944   0.493  0.0459 -0.3954  0.1417
  588MOL0     O79246   6.054   8.961   7.177  0.1870 -0.3435  0.0234
  588MOL0     C79247   6.049   8.937   7.055 -0.5774 -0.6735 -0.8060
  588MOL0     O79248   6.158   8.916   6.983 -0.7816  0.6163  0.0626
  588MOL0     C79249   6.280   8.959   7.039 -0.6671  0.6368 -0.3537
  588MOL0     C79250   6.339   9.085   7.022 -0.0788  0.5968 -0.3816
  588MOL0     C79251   6.457   9.119   7.090  0.2605 -0.0431 -0.9702
  588MOL0     C79252   6.523   9.030   7.165  0.8814  0.2631  0.2047
  588MOL0     O79253   6.636   9.065   7.228 -0.6474 -0.2120 -0.6040
  588MOL0     C79254   6.693   9.202   7.233  0.4914  0.5938  0.8330
  588MOL0     C79255   6.805   9.197   7.340 -0.4633 -0.1498  0.8314
  588MOL0     C79256   6.880   9.068   7.326  0.0329 -0.2088 -0.8994
  588MOL0     C79257   7.009   9.062   7.398 -1.0615  0.6123  0.1694
  588MOL0     C79258   7.085   8.933   7.378 -0.5000  0.5027 -0.1973
  588MOL0     C79259   7.210   8.943   7.467 -0.1718  0.1051  0.3041
  588MOL0     C79260   7.304   8.819   7.455  0.0308 -0.0665  1.0033
  588MOL0     C79261   7.288   8.715   7.571 -0.1666  0.5621 -0.6316
  588MOL0     N79262   7.159   8.642   7.601 -0.0909 -0.9127  0.4772
  588MOL0     C79263   7.125   8.580   7.718 -0.1290  0.9738 -0.2182
  588MOL0     C79264   7.019   8.507   7.690  0.2601  0.1489 -0.0669
  588MOL0     C79265   6.932   8.424   7.778 -0.5287  0.2215  0.3399
  588MOL0     C79266   6.931   8.270   7.738 -0.0164  0.6028  0.1593
  588MOL0     C79267   6.861   8.178   7.837 -0.1922  0.8860 -0.3130
  588MOL0     C79268   6.874   8.034   7.782  0.5184  0.1436  0.3102
  588MOL0     O79269   6.807   7.944   7.873 -0.3363  0.9251  0.9135
  588MOL0     C79270   6.673   7.956   7.895  0.6803 -0.0859  0.6402
  588MOL0     C79271   6.633   7.929   8.023 -0.2646  0.1242  0.4933
  588MOL0     C79272   6.496   7.938   8.054  0.4823 -0.1206  1.3541
  588MOL0     C79273   6.469   7.919   8.203  0.0169 -0.3932 -0.2221
  588MOL0     C79274   6.404   7.975   7.950 -0.5588  0.1449  0.5151
  588MOL0     C79275   6.257   7.991   7.972  0.7522 -0.2704  0.2781
  588MOL0     O79276   6.181   8.041   7.871  0.0974  0.1452 -0.5566
  588MOL0     C79277   6.048   8.011   7.852 -1.4779  0.0483 -0.3045
  588MOL0     C79278   6.008   7.874   7.866 -0.4516  0.0361  0.9051
  588MOL0     C79279   5.879   7.841   7.843 -0.7381  0.3041 -1.0310
  588MOL0     C79280   5.783   7.940   7.825 -0.0414 -0.3469  0.2395
  588MOL0     O79281   5.665   7.882   7.791  0.2743 -0.3586  0.6528
  588MOL0     C79282   5.566   7.955   7.706 -0.4263  0.5710  1.0025
  588MOL0     C79283   5.441   7.878   7.710 -0.1202  0.0948 -0.0058
  588MOL0     C79284   5.445   7.733   7.659 -0.2424 -0.2979  0.2033
  588MOL0     C79285   5.310   7.665   7.685 -0.8650  0.1750  0.4981
  588MOL0     C79286   5.324   7.522   7.644  0.6069 -0.3581 -0.7817
  588MOL0     C79287   5.200   7.436   7.621  0.3868 -0.2801 -0.0490
  588MOL0     C79288   5.239   7.288   7.619  0.3776 -0.7357  0.7721
  588MOL0     C79289   5.197   7.218   7.487 -0.9483 -0.4966  0.0703
  588MOL0    Cl79290   5.016   7.205   7.472 -0.3856 -0.1087  0.2408
  588MOL0     C79291   5.818   8.080   7.821  0.1106 -0.7124  0.4910
  588MOL0     C79292   5.957   8.111   7.830 -0.7293  0.0879 -0.8837
  588MOL0     O79293   6.216   7.953   8.081  0.6157  0.3874  0.6606
  588MOL0     C79294   6.448   7.982   7.822 -0.0152 -0.2097  0.9808
  588MOL0     C79295   6.580   7.968   7.792 -0.6925 -0.5133  1.1250
  588MOL0     N79296   6.987   8.516   7.557  0.0862  0.1121  0.1276
  588MOL0     N79297   7.076   8.591   7.500 -0.1596  0.1430  0.2386
  588MOL0     C79298   6.466   8.904   7.193 -0.0975  0.6990 -0.9259
  588MOL0     C79299   6.350   8.868   7.125  0.6537  0.0086 -0.7782
  588MOL0     C79300   5.923   8.913   6.982  0.1640  0.6055  1.4944
  588MOL0     C79301   5.792   8.946   7.030 -0.0658 -0.2588 -1.2561
  588MOL0     C79302   5.680   8.917   6.954 -0.2953 -0.8373  0.3763
  588MOL0     C79303   5.693   8.855   6.827  1.0822  0.3950  0.1773
  588MOL0     O79304   5.576   8.814   6.767 -0.6378 -0.0542  0.1978
  588MOL0     C79305   5.576   8.764   6.637  0.3167  0.7175  0.6658
  588MOL0     C79306   5.440   8.743   6.573 -0.5737  1.0535 -0.4022
  588MOL0     C79307   5.436   8.718   6.420 -0.2632  0.1172 -0.3915
  588MOL0     C79308   5.508   8.588   6.379  1.0648  0.6574  0.1450
  588MOL0     C79309   5.654   8.602   6.379 -0.0425  0.3719  0.8896
  588MOL0     C79310   5.768   8.630   6.374  0.0228  0.8471  0.4004
  588MOL0     C79311   5.821   8.835   6.775  0.1452  0.0343 -0.3923
  588MOL0     C79312   5.931   8.862   6.856 -0.6122  0.5760  0.4288
  588MOL0     H79313   6.292   9.154   6.953 -2.0038  2.3466  2.5201
  588MOL0     H79314   6.516   9.209   7.077  3.1671 -1.7741 -0.6316
  588MOL0     H79315   6.744   9.226   7.139  1.1507  0.7137  1.2149
  588MOL0     H79316   6.611   9.271   7.254 -0.7655  1.0149 -4.1377
  588MOL0     H79317   6.867   9.287   7.330 -2.4666  1.0357 -2.7836
  588MOL0     H79318   6.764   9.192   7.441 -1.3244 -0.8958  0.4644
  588MOL0     H79319   6.825   8.979   7.360  2.4998 -2.2468 -1.8746
  588MOL0     H79320   6.877   9.045   7.220 -2.2497  2.7494 -1.6097
  588MOL0     H79321   7.074   9.136   7.350  2.0404 -2.3301 -0.5482
  588MOL0     H79322   7.005   9.071   7.507  0.0037 -0.8383  0.3567
  588MOL0     H79323   7.025   8.847   7.410 -0.6289  1.2092  1.5408
  588MOL0     H79324   7.123   8.935   7.275  0.7692  2.0547  0.2697
  588MOL0     H79325   7.264   9.033   7.435  0.5170 -0.7255 -0.9897
  588MOL0     H79326   7.184   8.962   7.571 -5.5124  2.1282 -1.0571
  588MOL0     H79327   7.271   8.773   7.361 -0.1013 -0.7996  1.4008
  588MOL0     H79328   7.407   8.854   7.438 -0.0465 -0.1387  0.3286
  588MOL0     H79329   7.330   8.771   7.654 -0.1018 -2.0345  1.1982
  588MOL0     H79330   7.343   8.626   7.539 -2.6387 -1.2271 -0.2510
  588MOL0     H79331   7.166   8.590   7.818  0.1208 -4.7581  0.6219
  588MOL0     H79332   6.977   8.434   7.877 -1.2370  2.2670  0.4939
  588MOL0     H79333   6.831   8.461   7.793 -0.4571  0.3892  0.4170
  588MOL0     H79334   7.035   8.235   7.744  0.3945  1.8022  0.4123
  588MOL0     H79335   6.895   8.250   7.637 -0.4289 -3.7696  1.0047
  588MOL0     H79336   6.756   8.208   7.852 -0.4396  0.7922 -1.7305
  588MOL0     H79337   6.910   8.194   7.933 -1.1485  1.4302  0.0995
  588MOL0     H79338   6.977   8.008   7.753 -0.5186 -0.6505 -3.1275
  588MOL0     H79339   6.823   8.027   7.686  3.7977 -3.3206 -1.4877
  588MOL0     H79340   6.717   7.934   8.092  2.7521  0.0837 -2.8704
  588MOL0     H79341   6.381   7.856   8.219  0.3919 -1.0162 -0.5377
  588MOL0     H79342   6.544   7.856   8.253 -1.9177 -2.8664 -0.2512
  588MOL0     H79343   6.468   8.017   8.251  1.5107  0.2892 -1.5090
  588MOL0     H79344   6.083   7.804   7.902 -1.1475 -1.8899 -1.1392
  588MOL0     H79345   5.842   7.739   7.847  1.7049 -0.6763  3.9979
  588MOL0     H79346   5.542   8.052   7.750 -0.8261  0.9588 -0.0349
  588MOL0     H79347   5.606   7.961   7.605  1.2364  0.2995  1.6134
  588MOL0     H79348   5.415   7.881   7.816  0.8046 -1.0890  0.2719
  588MOL0     H79349   5.355   7.934   7.672 -2.0892 -3.3764 -1.0580
  588MOL0     H79350   5.514   7.675   7.721  0.8679  1.1836  0.3926
  588MOL0     H79351   5.460   7.737   7.551 -1.7008  0.9610  0.0064
  588MOL0     H79352   5.289   7.656   7.792  1.6235 -0.1872  1.0093
  588MOL0     H79353   5.237   7.737   7.647 -0.5546 -1.1780 -2.9986
  588MOL0     H79354   5.389   7.466   7.712  2.4009 -1.7376 -3.4309
  588MOL0     H79355   5.380   7.522   7.550 -0.1854  1.5553 -1.2875
  588MOL0     H79356   5.133   7.454   7.706  2.3490 -0.0072  1.5002
  588MOL0     H79357   5.149   7.477   7.533  1.5890 -0.7162 -0.9688
  588MOL0     H79358   5.204   7.236   7.708  0.7535 -1.9435  0.2321
  588MOL0     H79359   5.347   7.270   7.622  0.7066  0.1392 -2.1927
  588MOL0     H79360   5.242   7.119   7.496 -0.3466 -0.4710 -2.1513
  588MOL0     H79361   5.233   7.283   7.407 -0.8955  1.3138  1.4983
  588MOL0     H79362   5.749   8.160   7.795 -4.5042 -3.1909  3.6475
  588MOL0     H79363   5.980   8.215   7.813  1.1709  0.3587  2.4715
  588MOL0     H79364   6.378   7.990   7.739  0.4373  2.4231  0.7800
  588MOL0     H79365   6.608   7.973   7.687  0.2211 -0.6614  1.3565
  588MOL0     H79366   6.517   8.834   7.259 -1.7981  1.8689  1.8283
  588MOL0     H79367   6.298   8.774   7.142  3.1906 -1.4978 -0.8817
  588MOL0     H79368   5.772   8.989   7.128 -1.7901 -0.4101 -1.5101
  588MOL0     H79369   5.584   8.947   6.996 -1.0622 -1.3308 -0.9692
  588MOL0     H79370   5.644   8.826   6.578  0.3150  0.7141  0.6581
  588MOL0     H79371   5.644   8.678   6.631  2.9664  2.7501 -0.9927
  588MOL0     H79372   5.385   8.835   6.593  0.4674  1.7128 -0.5185
  588MOL0     H79373   5.391   8.655   6.617  0.4840  0.7945  0.3040
  588MOL0     H79374   5.481   8.806   6.374 -0.3229  0.8406  0.8784
  588MOL0     H79375   5.339   8.700   6.373  1.4201 -3.6212 -2.8962
  588MOL0     H79376   5.482   8.577   6.273 -2.1532  3.0626  0.5197
  588MOL0     H79377   5.480   8.497   6.432  1.5632  0.9723  0.9677
  588MOL0     H79378   5.868   8.666   6.357 -0.1670  1.3731  0.3861
  588MOL0     H79379   5.824   8.797   6.673 -0.2177 -0.4758 -0.2151
  588MOL0     H79380   6.026   8.850   6.803 -0.6973  0.8816  0.2080
  589MOL0     O79381  10.587   8.255   3.969  0.4355  0.3352 -0.5345
  589MOL0     C79382  10.675   8.277   3.888 -0.2547  0.5215  0.2696
  589MOL0     O79383  10.683   8.382   3.803 -0.1102 -0.0566 -0.1672
  589MOL0     C79384  10.568   8.449   3.774 -0.0415 -0.4987 -0.0107
  589MOL0     C79385  10.549   8.491   3.644  0.6481 -0.0148 -1.4815
  589MOL0     C79386  10.428   8.551   3.605 -0.0327 -0.0643  0.0934
  589MOL0     C79387  10.332   8.587   3.699  0.2847 -0.7150  0.7592
  589MOL0     O79388  10.219   8.661   3.669 -0.0984  0.1118 -0.0136
  589MOL0     C79389  10.233   8.753   3.557  0.6933  0.4352  0.8242
  589MOL0     C79390  10.095   8.817   3.549 -0.0997 -0.1410  0.0051
  589MOL0     C79391  10.088   8.956   3.473 -0.7406 -0.3409  0.2738
  589MOL0     C79392  10.196   9.049   3.501  0.7035 -0.8981  0.0320
  589MOL0     C79393  10.174   9.178   3.426  0.3881 -0.2126 -0.6600
  589MOL0     C79394  10.305   9.253   3.432  0.1517 -0.2638  0.6598
  589MOL0     C79395  10.296   9.393   3.367 -0.3245 -1.4785 -0.1767
  589MOL0     C79396  10.264   9.400   3.223 -1.0516 -0.0628  0.2799
  589MOL0     N79397  10.359   9.336   3.131 -0.1306 -0.9526  0.5286
  589MOL0     C79398  10.492   9.294   3.152  0.5361 -0.3553 -0.4253
  589MOL0     C79399  10.528   9.261   3.032 -0.1095 -0.5213 -0.2848
  589MOL0     C79400  10.670   9.222   2.999  0.0230 -0.1950 -0.6532
  589MOL0     C79401  10.733   9.107   3.086  0.7233  0.3619  0.0241
  589MOL0     C79402  10.872   9.069   3.038 -0.3441 -0.0540  0.3387
  589MOL0     C79403  10.985   9.180   3.040  0.8083 -0.7030 -0.9975
  589MOL0     O79404  10.967   9.281   2.938  0.3784 -0.4404 -0.5905
  589MOL0     C79405  10.995   9.413   2.970 -0.9047  0.1893  0.0265
  589MOL0     C79406  10.931   9.473   3.080  0.0860 -0.9312 -0.5699
  589MOL0     C79407  10.935   9.619   3.090 -0.1457  0.7839 -0.7962
  589MOL0     C79408  10.849   9.671   3.203  0.4698 -0.0384  0.1951
  589MOL0     C79409  11.007   9.702   3.000  0.3407 -0.1386  0.4840
  589MOL0     C79410  11.000   9.850   2.989 -0.1578  0.1983  0.3697
  589MOL0     O79411  11.062   9.917   2.882 -0.3818  0.2298 -1.2584
  589MOL0     C79412  11.061  10.053   2.869  1.0060  0.2609 -0.6735
  589MOL0     C79413  11.073  10.108   2.746 -0.1861 -0.6159 -0.8923
  589MOL0     C79414  11.081  10.246   2.724 -0.4015  0.1762  0.3586
  589MOL0     C79415  11.096  10.336   2.827 -0.0378 -0.2578 -0.4456
  589MOL0     O79416  11.107  10.466   2.792  0.8964 -0.5728 -0.1584
  589MOL0     C79417  11.015  10.557   2.858 -0.8333 -0.4657 -0.6322
  589MOL0     C79418  11.082  10.694   2.875  0.3148 -0.3603 -0.3485
  589MOL0     C79419  11.206  10.670   2.967 -0.0476 -1.2122  1.8049
  589MOL0     C79420  11.259  10.795   3.038  0.7866 -0.2178 -0.5165
  589MOL0     C79421  11.298  10.912   2.944 -0.3209  0.2971  0.1597
  589MOL0     C79422  11.395  11.017   3.004 -0.5021 -0.8365 -0.0063
  589MOL0     C79423  11.535  10.966   3.050 -0.1283  0.3140  1.0683
  589MOL0     C79424  11.630  11.080   3.090  0.7087 -0.1096  0.2890
  589MOL0    Cl79425  11.579  11.120   3.261  0.1905  0.2182 -0.0339
  589MOL0     C79426  11.092  10.282   2.955 -0.4780 -0.6769  0.6899
  589MOL0     C79427  11.078  10.143   2.972 -0.0857  0.4251 -0.3201
  589MOL0     O79428  10.929   9.902   3.070  0.3459  0.3160 -0.6468
  589MOL0     C79429  11.075   9.629   2.897 -0.6029  0.4910  0.4354
  589MOL0     C79430  11.068   9.492   2.877  0.2850  0.6504  0.3104
  589MOL0     N79431  10.418   9.263   2.951 -0.6467  0.0187  0.2948
  589MOL0     N79432  10.317   9.309   3.001 -1.1592 -0.1636  0.6119
  589MOL0     C79433  10.366   8.564   3.830  0.2799 -0.9040 -0.5619
  589MOL0     C79434  10.477   8.494   3.870 -0.5028 -0.0802  0.1570
  589MOL0     C79435  10.794   8.185   3.895 -0.5915  0.2327 -0.0849
  589MOL0     C79436  10.876   8.179   3.780 -0.7689 -0.1364 -0.5989
  589MOL0     C79437  10.994   8.101   3.787 -0.2450  0.3380  0.0316
  589MOL0     C79438  11.043   8.035   3.903  0.7830 -1.1837  0.7047
  589MOL0     O79439  11.167   7.971   3.910 -0.1529 -0.0576 -0.1967
  589MOL0     C79440  11.235   7.918   3.795  0.2332 -0.6253 -0.5752
  589MOL0     C79441  11.325   8.015   3.730 -0.2181  0.2352  0.2656
  589MOL0     C79442  11.396   7.949   3.615 -0.1447  1.1847  0.6891
  589MOL0     C79443  11.547   7.985   3.616 -0.3675 -0.0699 -0.3110
  589MOL0     C79444  11.613   7.908   3.517 -0.0336  0.9205  0.1295
  589MOL0     C79445  11.670   7.825   3.439 -0.0998 -0.1055 -0.2922
  589MOL0     C79446  10.956   8.060   4.018 -0.3427  0.1486 -0.3318
  589MOL0     C79447  10.838   8.124   4.012  0.9464 -0.5918  0.4343
  589MOL0     H79448  10.626   8.478   3.569  0.2557  1.1106 -2.1161
  589MOL0     H79449  10.424   8.575   3.499  3.1328 -1.0228 -0.3695
  589MOL0     H79450  10.309   8.831   3.571  3.9879 -1.9859 -1.9797
  589MOL0     H79451  10.258   8.698   3.466  1.2322  0.3275  1.0303
  589MOL0     H79452  10.025   8.759   3.487 -0.2145  1.9277 -1.9555
  589MOL0     H79453  10.048   8.819   3.647  0.3776 -2.3091  0.3222
  589MOL0     H79454  10.084   8.935   3.366 -0.8666  0.8749  0.0183
  589MOL0     H79455   9.995   9.010   3.494 -2.4852 -2.2097 -2.0655
  589MOL0     H79456  10.201   9.066   3.609 -0.8896  0.3895 -0.0529
  589MOL0     H79457  10.289   9.006   3.465  2.7803  2.1480  1.3357
  589MOL0     H79458  10.151   9.157   3.321 -3.1603  3.6470 -0.9322
  589MOL0     H79459  10.096   9.245   3.463  0.0879 -1.0445  0.2683
  589MOL0     H79460  10.338   9.265   3.536 -0.9747  0.7992  0.9093
  589MOL0     H79461  10.372   9.186   3.376 -1.7697  0.5165 -2.8215
  589MOL0     H79462  10.248   9.473   3.424  0.6565 -1.8791  1.2966
  589MOL0     H79463  10.396   9.437   3.373 -0.0696 -1.9633 -0.7764
  589MOL0     H79464  10.242   9.504   3.199 -3.9392 -0.5304  0.5471
  589MOL0     H79465  10.169   9.348   3.208 -0.6208 -0.0840 -3.3241
  589MOL0     H79466  10.558   9.305   3.238 -1.0384  0.5039  0.7156
  589MOL0     H79467  10.662   9.187   2.896 -1.5155 -1.7601 -0.0304
  589MOL0     H79468  10.737   9.308   3.011  2.0187 -1.9613  1.9791
  589MOL0     H79469  10.664   9.023   3.076  1.1761  0.2691 -3.4152
  589MOL0     H79470  10.738   9.140   3.190 -3.6027  1.6933 -0.0242
  589MOL0     H79471  10.871   9.039   2.933 -1.8116 -0.0410  0.3182
  589MOL0     H79472  10.905   8.982   3.095 -1.1779  0.9346  2.4592
  589MOL0     H79473  11.075   9.123   3.016  1.4944 -1.0152  1.8916
  589MOL0     H79474  11.007   9.239   3.129  0.0243  0.6338 -1.6589
  589MOL0     H79475  10.870   9.413   3.147 -0.4062  1.5140  1.3622
  589MOL0     H79476  10.800   9.589   3.256 -1.3922 -0.3005 -1.8065
  589MOL0     H79477  10.906   9.721   3.282  1.8126 -0.0194 -0.7504
  589MOL0     H79478  10.773   9.743   3.173  0.0642 -0.0921  1.0622
  589MOL0     H79479  11.087  10.039   2.663  0.0433 -0.6704 -0.8093
  589MOL0     H79480  11.095  10.270   2.620  4.5835  2.6618  1.3266
  589MOL0     H79481  10.922  10.556   2.801 -1.4702 -0.2201  0.3874
  589MOL0     H79482  10.992  10.520   2.959 -0.6939 -1.8920 -1.1033
  589MOL0     H79483  11.116  10.733   2.779 -1.1478  0.1038 -0.7082
  589MOL0     H79484  11.021  10.770   2.925  1.2688 -0.3932  0.9070
  589MOL0     H79485  11.292  10.631   2.912 -0.1343  1.3516 -0.3492
  589MOL0     H79486  11.174  10.603   3.047  1.9990 -4.5442  0.0468
  589MOL0     H79487  11.186  10.836   3.109  2.6471  1.0940  0.7275
  589MOL0     H79488  11.342  10.763   3.102 -1.0926 -2.0520  1.1748
  589MOL0     H79489  11.206  10.951   2.899  0.9682  3.1328 -0.2551
  589MOL0     H79490  11.348  10.867   2.858  0.8521  2.7424 -0.5389
  589MOL0     H79491  11.414  11.098   2.933  1.7637  2.1021  3.5712
  589MOL0     H79492  11.348  11.068   3.089 -0.4511  3.4495 -2.2900
  589MOL0     H79493  11.575  10.922   2.958 -3.0003 -0.4795  0.1067
  589MOL0     H79494  11.522  10.884   3.121 -1.5535 -0.7987 -0.3994
  589MOL0     H79495  11.611  11.173   3.036 -0.3234  1.9904  3.9137
  589MOL0     H79496  11.732  11.049   3.064  0.0777 -0.8227 -1.4979
  589MOL0     H79497  11.105  10.350   3.038  2.6403  1.1626 -1.0819
  589MOL0     H79498  11.079  10.103   3.073  0.4570 -1.2837 -0.9728
  589MOL0     H79499  11.137   9.681   2.824 -0.6760 -1.0935 -0.8183
  589MOL0     H79500  11.120   9.441   2.796 -3.0767 -1.3326 -0.7958
  589MOL0     H79501  10.297   8.588   3.911  0.7104 -0.1065 -0.4167
  589MOL0     H79502  10.483   8.458   3.972  1.5072  1.3571  0.6172
  589MOL0     H79503  10.876   8.235   3.688 -2.4978  0.9600  0.0146
  589MOL0     H79504  11.051   8.087   3.695 -1.3560 -1.5126 -0.4142
  589MOL0     H79505  11.289   7.826   3.819 -1.5377 -1.6901 -0.4484
  589MOL0     H79506  11.160   7.869   3.733  0.3048 -3.9635  1.6794
  589MOL0     H79507  11.404   8.043   3.800  0.1182 -0.1661  0.0539
  589MOL0     H79508  11.271   8.100   3.687 -0.5988 -0.4809 -0.7195
  589MOL0     H79509  11.351   7.972   3.518 -0.7127 -2.8076 -0.1598
  589MOL0     H79510  11.374   7.842   3.617 -1.0174  1.3035 -0.9725
  589MOL0     H79511  11.588   7.947   3.710 -1.3229 -2.0441 -0.6426
  589MOL0     H79512  11.568   8.091   3.596 -1.8775  0.1882 -0.7084
  589MOL0     H79513  11.723   7.757   3.376  1.5267  0.9376 -0.1130
  589MOL0     H79514  10.981   8.030   4.119 -0.6472 -2.1498 -0.8959
  589MOL0     H79515  10.765   8.143   4.091 -2.3647 -1.0928 -2.2586
  590MOL0     O79516   3.185   9.238  10.306 -0.4663 -0.5213 -0.5365
  590MOL0     C79517   3.287   9.276  10.366  0.2857  0.1917  0.3127
  590MOL0     O79518   3.294   9.354  10.478  0.5387  0.5704 -0.0654
  590MOL0     C79519   3.182   9.397  10.548  1.0717  0.2533  0.3712
  590MOL0     C79520   3.045   9.405  10.505  0.3734  0.4623  0.0482
  590MOL0     C79521   2.936   9.439  10.578 -0.1275  0.2998 -0.2292
  590MOL0     C79522   2.948   9.461  10.719  0.3291 -0.6602 -0.2653
  590MOL0     O79523   2.850   9.495  10.811 -1.0413 -0.5185 -0.0981
  590MOL0     C79524   2.723   9.550  10.768  0.5593 -0.2375 -0.1112
  590MOL0     C79525   2.730   9.684  10.695 -0.0594 -0.4915  0.0101
  590MOL0     C79526   2.588   9.752  10.675 -0.3940 -0.6077 -0.1435
  590MOL0     C79527   2.505   9.674  10.569  0.1761  0.5877  0.0079
  590MOL0     C79528   2.361   9.730  10.567 -0.7727 -0.0785 -0.7129
  590MOL0     C79529   2.279   9.661  10.457  0.1096 -0.0073  0.1272
  590MOL0     C79530   2.289   9.720  10.311  0.2516 -0.0763  0.6691
  590MOL0     C79531   2.232   9.630  10.203  0.7482 -0.1766  1.4526
  590MOL0     N79532   2.228   9.695  10.070 -0.7327 -0.2005  0.6023
  590MOL0     C79533   2.123   9.781  10.030 -0.7519  0.5577 -0.8775
  590MOL0     C79534   2.162   9.820   9.904  0.2389  0.0629  0.0057
  590MOL0     C79535   2.056   9.883   9.810 -0.9486 -0.4426  0.0348
  590MOL0     C79536   2.007  10.023   9.859  0.1466 -0.4945  0.3979
  590MOL0     C79537   1.865  10.041   9.811 -0.4892 -0.8023  0.5133
  590MOL0     C79538   1.849  10.006   9.656  0.2751 -0.4394 -0.6898
  590MOL0     O79539   1.755  10.089   9.588 -0.6461 -1.3198 -0.2170
  590MOL0     C79540   1.622  10.057   9.597 -0.2093  0.0540  0.3116
  590MOL0     C79541   1.574   9.923   9.605 -0.3324 -0.8632 -0.4605
  590MOL0     C79542   1.436   9.892   9.621 -0.5267 -1.1300 -0.0891
  590MOL0     C79543   1.396   9.743   9.616 -0.4413 -0.0120  0.8173
  590MOL0     C79544   1.343  10.003   9.622 -0.4840  0.7570 -0.1942
  590MOL0     C79545   1.192   9.992   9.632  0.8914  0.4946  0.2052
  590MOL0     O79546   1.137   9.872   9.635 -0.6178 -0.3779  1.0695
  590MOL0     C79547   0.997   9.859   9.633 -0.5590  0.3895  0.0511
  590MOL0     C79548   0.937   9.808   9.523 -0.2019  0.1681 -0.7850
  590MOL0     C79549   0.797   9.795   9.520  0.8527 -0.3871  0.1986
  590MOL0     C79550   0.707   9.849   9.614 -0.6777  0.7534 -0.6116
  590MOL0     O79551   0.569   9.824   9.592  0.5939  0.2253  0.5272
  590MOL0     C79552   0.470   9.908   9.664  0.2664  0.2597 -0.3641
  590MOL0     C79553   0.450   9.855   9.808  0.2349 -1.1312  0.2289
  590MOL0     C79554   0.349   9.742   9.803  0.0931 -0.2459 -0.1126
  590MOL0     C79555   0.207   9.806   9.813 -0.2974  0.1517  0.1820
  590MOL0     C79556   0.085   9.712   9.780  0.1534  0.2498  0.4108
  590MOL0     C79557  -0.043   9.784   9.831 -0.6391  0.4623  0.5133
  590MOL0     C79558  -0.172   9.721   9.777  0.4527  1.0504  0.2915
  590MOL0     C79559  -0.286   9.778   9.856 -0.6079 -0.1636  1.0075
  590MOL0    Cl79560  -0.402   9.803   9.736  0.1230  0.3542  0.0419
  590MOL0     C79561   0.771   9.904   9.730  0.0991  0.1392  0.3920
  590MOL0     C79562   0.913   9.915   9.734 -0.1920 -0.3677 -0.3185
  590MOL0     O79563   1.133  10.103   9.650  0.4356 -0.5953 -0.0185
  590MOL0     C79564   1.398  10.134   9.604 -0.5733 -0.0318 -0.7015
  590MOL0     C79565   1.531  10.164   9.575  0.0101 -0.4256 -0.2559
  590MOL0     N79566   2.277   9.749   9.865 -0.2258  0.0009  0.9654
  590MOL0     N79567   2.323   9.690   9.971  0.7147  0.0003  1.1049
  590MOL0     C79568   3.079   9.440  10.779  0.1563  0.2543  0.0829
  590MOL0     C79569   3.192   9.418  10.689 -0.5409 -0.7942 -0.8861
  590MOL0     C79570   3.414   9.235  10.308  0.5690 -0.0790  0.4077
  590MOL0     C79571   3.528   9.265  10.380 -0.6623  0.1873  0.4193
  590MOL0     C79572   3.649   9.239  10.318 -0.0925 -0.1061 -0.0487
  590MOL0     C79573   3.663   9.199  10.181  0.1741  0.6918 -0.4055
  590MOL0     O79574   3.783   9.176  10.120  0.8302 -0.4381  1.0110
  590MOL0     C79575   3.900   9.201  10.189 -0.5054  0.4078  0.9310
  590MOL0     C79576   4.034   9.159  10.116 -0.6024  0.3415 -0.4713
  590MOL0     C79577   4.068   9.245   9.988 -0.5569 -0.3001 -0.3033
  590MOL0     C79578   4.148   9.373  10.023 -0.2466 -0.6089 -0.4692
  590MOL0     C79579   4.295   9.349  10.025 -0.5990 -0.0146 -0.7922
  590MOL0     C79580   4.409   9.313  10.009 -0.6884  0.3672  0.9587
  590MOL0     C79581   3.548   9.173  10.114  0.2372  0.0236 -0.4206
  590MOL0     C79582   3.419   9.194  10.176  0.4496 -0.1642  0.3224
  590MOL0     H79583   3.025   9.386  10.400 -2.4344 -2.2592  0.9201
  590MOL0     H79584   2.837   9.446  10.534  0.2992 -0.7753 -1.4338
  590MOL0     H79585   2.679   9.475  10.702  0.4369  0.0260 -0.3349
  590MOL0     H79586   2.670   9.571  10.861  0.4487  1.0508 -0.4320
  590MOL0     H79587   2.799   9.746  10.753  0.2499  0.2095 -1.0564
  590MOL0     H79588   2.781   9.684  10.598 -1.1861 -1.4345 -0.6079
  590MOL0     H79589   2.544   9.764  10.775 -2.2787  1.1403 -1.1014
  590MOL0     H79590   2.595   9.855  10.638 -1.4616 -1.4645 -3.0028
  590MOL0     H79591   2.551   9.678  10.470 -0.9331 -2.6187 -0.7631
  590MOL0     H79592   2.500   9.569  10.597 -1.8147  1.2959  2.7732
  590MOL0     H79593   2.324   9.716  10.669  2.3230 -2.1219  0.2580
  590MOL0     H79594   2.365   9.837  10.545 -1.4955  1.0622  3.7046
  590MOL0     H79595   2.325   9.562  10.459  0.9465  0.3554 -0.5892
  590MOL0     H79596   2.171   9.659  10.478  0.0897  3.7964  1.0499
  590MOL0     H79597   2.254   9.821  10.291  1.0849  0.0542 -0.1540
  590MOL0     H79598   2.394   9.727  10.285  0.4543 -0.3809  1.3771
  590MOL0     H79599   2.125   9.611  10.220 -1.3705  5.9707 -1.9984
  590MOL0     H79600   2.292   9.540  10.189 -1.6469 -1.4902 -1.2864
  590MOL0     H79601   2.025   9.799  10.073  0.9056 -1.2515  4.5851
  590MOL0     H79602   2.102   9.905   9.713  0.6027 -0.7363  0.6626
  590MOL0     H79603   1.975   9.811   9.796 -0.8737 -0.7814  1.1944
  590MOL0     H79604   2.068  10.104   9.818 -1.7845 -0.1719 -2.1154
  590MOL0     H79605   2.014  10.018   9.968 -0.3096  0.4257  0.4728
  590MOL0     H79606   1.843  10.145   9.837 -1.4411 -1.1562  1.1819
  590MOL0     H79607   1.786   9.991   9.867 -0.1865 -1.1031  0.6760
  590MOL0     H79608   1.824   9.900   9.649 -1.8368 -0.4840  3.8174
  590MOL0     H79609   1.942  10.037   9.608  0.4460 -0.2005 -0.2093
  590MOL0     H79610   1.648   9.844   9.593  1.5644  0.9532 -1.2700
  590MOL0     H79611   1.343   9.725   9.523  1.6430  1.2585 -0.7048
  590MOL0     H79612   1.485   9.680   9.608 -0.6270 -0.2537  0.6348
  590MOL0     H79613   1.339   9.719   9.707  1.2090  0.0319  1.9142
  590MOL0     H79614   0.988   9.774   9.433 -2.2277 -2.7268 -0.9930
  590MOL0     H79615   0.748   9.748   9.435 -1.7371  1.7983  0.3419
  590MOL0     H79616   0.511  10.010   9.664  0.7220  0.0784 -0.4126
  590MOL0     H79617   0.379   9.902   9.604 -2.0780  1.6778  2.7262
  590MOL0     H79618   0.546   9.822   9.847  1.5578  1.4076 -0.6474
  590MOL0     H79619   0.411   9.937   9.869  3.4781 -0.7146  1.9386
  590MOL0     H79620   0.371   9.665   9.878  0.3363  1.2748  1.4425
  590MOL0     H79621   0.348   9.690   9.707  0.9615  1.6699 -1.2086
  590MOL0     H79622   0.191   9.840   9.916 -1.8988 -1.1936  0.4246
  590MOL0     H79623   0.204   9.893   9.746  0.4961  0.3366  0.3757
  590MOL0     H79624   0.106   9.616   9.826 -0.6718 -0.4911 -0.7095
  590MOL0     H79625   0.085   9.700   9.671  0.1912  2.4680  0.1084
  590MOL0     H79626  -0.046   9.783   9.940 -0.1360  2.8994  0.6135
  590MOL0     H79627  -0.038   9.881   9.781 -3.1248 -1.6911 -4.5712
  590MOL0     H79628  -0.175   9.612   9.768  0.2422  1.2303 -3.0031
  590MOL0     H79629  -0.166   9.747   9.671  2.4521  1.7819  0.5384
  590MOL0     H79630  -0.261   9.869   9.910  2.1854 -0.4369  0.3472
  590MOL0     H79631  -0.311   9.708   9.937  1.7827  0.8629  2.7322
  590MOL0     H79632   0.714   9.956   9.807  0.5233  1.0235  0.1183
  590MOL0     H79633   0.974   9.969   9.805 -0.5552  1.3697 -1.2862
  590MOL0     H79634   1.338  10.224   9.593 -1.0922 -0.0220  1.6847
  590MOL0     H79635   1.572  10.265   9.565 -1.0265  0.0030 -0.3153
  590MOL0     H79636   3.088   9.444  10.887 -0.5790 -0.3997  0.1843
  590MOL0     H79637   3.294   9.416  10.725 -0.3291  1.1992 -1.2796
  590MOL0     H79638   3.508   9.300  10.481 -1.0933  1.6605 -0.1435
  590MOL0     H79639   3.741   9.257  10.372 -1.2614  2.4946  1.2904
  590MOL0     H79640   3.913   9.306  10.214  1.7042 -0.1767  2.4601
  590MOL0     H79641   3.904   9.142  10.281 -1.5550  0.5456  1.0810
  590MOL0     H79642   4.047   9.054  10.092  0.9786  0.2501  0.5830
  590MOL0     H79643   4.117   9.175  10.186 -1.9403 -0.3759  1.3530
  590MOL0     H79644   3.976   9.282   9.940  0.4656  1.6291 -0.8953
  590MOL0     H79645   4.116   9.184   9.911 -0.5761 -0.8905  0.1508
  590MOL0     H79646   4.121   9.414  10.121 -3.1610 -0.2366 -1.3372
  590MOL0     H79647   4.135   9.457   9.954  1.2149 -0.8100 -1.0162
  590MOL0     H79648   4.508   9.270  10.002 -0.2600  1.4761 -0.0518
  590MOL0     H79649   3.551   9.152  10.008  1.9434  0.4629 -0.4900
  590MOL0     H79650   3.333   9.167  10.116  0.6271  1.5481 -0.7757
  591MOL0     O79651   3.355   2.260   8.259 -0.1634 -0.2775  0.0691
  591MOL0     C79652   3.299   2.186   8.179 -0.2492  0.4356  0.2822
  591MOL0     O79653   3.337   2.060   8.141 -0.2340 -0.8791 -0.0270
  591MOL0     C79654   3.443   2.000   8.200  0.3377 -0.6463  0.2000
  591MOL0     C79655   3.559   2.064   8.227 -0.7427 -0.2009  0.9126
  591MOL0     C79656   3.664   1.994   8.290 -0.6756  0.0407  0.3176
  591MOL0     C79657   3.655   1.857   8.310  0.2950 -0.8792  0.7995
  591MOL0     O79658   3.762   1.795   8.374  0.1474  0.3530 -0.3786
  591MOL0     C79659   3.753   1.782   8.518 -0.5511  0.2583 -1.4948
  591MOL0     C79660   3.898   1.772   8.571  0.6194  0.5990 -0.7130
  591MOL0     C79661   3.911   1.754   8.729 -0.0387 -1.3486 -0.0444
  591MOL0     C79662   4.058   1.747   8.770  1.1626  0.1036 -0.5179
  591MOL0     C79663   4.074   1.753   8.919 -0.2588  0.4577 -0.4686
  591MOL0     C79664   4.102   1.886   8.995  0.0841  0.3153  0.0141
  591MOL0     C79665   4.206   1.986   8.936 -0.8600  0.5296  0.0924
  591MOL0     C79666   4.231   2.106   9.025  0.5191  0.3462  0.1512
  591MOL0     N79667   4.123   2.198   9.058 -0.5654  0.3710 -0.7583
  591MOL0     C79668   4.008   2.203   8.990  0.5466 -0.5182  0.0243
  591MOL0     C79669   3.934   2.277   9.069  0.4234  0.1671  0.3665
  591MOL0     C79670   3.798   2.316   9.042 -0.2563  0.9759 -0.7789
  591MOL0     C79671   3.708   2.190   9.069  0.1576 -0.1620  1.0798
  591MOL0     C79672   3.691   2.107   8.943 -0.4110 -0.6482 -0.2751
  591MOL0     C79673   3.548   2.088   8.912 -0.3251  0.4788 -0.1712
  591MOL0     O79674   3.537   2.013   8.787  0.4768 -0.1174  0.4625
  591MOL0     C79675   3.409   2.012   8.720 -1.0018 -0.7995  0.5868
  591MOL0     C79676   3.289   2.019   8.800 -0.2082 -0.7954  0.4748
  591MOL0     C79677   3.162   2.008   8.746 -0.1624  0.4012  0.6291
  591MOL0     C79678   3.050   2.028   8.834  0.1372 -0.4440  1.1384
  591MOL0     C79679   3.150   1.968   8.607  0.4058 -0.7100  0.8270
  591MOL0     C79680   3.021   1.940   8.527 -0.5614 -0.3026  0.8595
  591MOL0     O79681   3.025   1.916   8.393 -0.1446 -0.4397  0.6225
  591MOL0     C79682   2.908   1.900   8.332 -0.1193  0.0546 -0.3223
  591MOL0     C79683   2.820   2.011   8.329 -0.0123  0.1108 -0.2428
  591MOL0     C79684   2.692   2.006   8.271 -0.2654  0.6252 -1.2711
  591MOL0     C79685   2.653   1.889   8.207  0.2053  0.7154  0.0421
  591MOL0     O79686   2.530   1.863   8.136 -0.5328 -0.8993  0.7133
  591MOL0     C79687   2.468   1.983   8.072 -0.2155  0.1004 -0.2153
  591MOL0     C79688   2.357   1.953   7.985  0.3263  1.3569 -0.9205
  591MOL0     C79689   2.306   2.064   7.884  0.3046  0.0932 -0.6272
  591MOL0     C79690   2.264   2.188   7.971  0.3184  0.2466  0.1677
  591MOL0     C79691   2.203   2.310   7.891 -0.6787  0.7045 -0.6829
  591MOL0     C79692   2.065   2.275   7.829 -0.1680  0.3785 -0.6197
  591MOL0     C79693   2.008   2.390   7.747 -0.7184  0.0535  0.7714
  591MOL0     C79694   1.863   2.378   7.700 -0.6111  0.2618  0.4398
  591MOL0    Cl79695   1.819   2.207   7.644  0.8207 -0.2102 -0.0506
  591MOL0     C79696   2.732   1.768   8.225 -0.2727 -0.0124 -0.8834
  591MOL0     C79697   2.861   1.780   8.286 -0.4998 -1.1173  0.7683
  591MOL0     O79698   2.912   1.942   8.592  0.4006 -0.1122 -0.2643
  591MOL0     C79699   3.266   1.966   8.533  0.2447  0.3996  0.3440
  591MOL0     C79700   3.397   1.985   8.584  0.2799 -0.3507  0.2151
  591MOL0     N79701   3.988   2.307   9.194  0.0771  0.7289 -0.1958
  591MOL0     N79702   4.103   2.247   9.186 -0.0477 -0.9152  0.1527
  591MOL0     C79703   3.548   1.797   8.262 -0.1646  0.3040 -0.6372
  591MOL0     C79704   3.421   1.857   8.211 -0.3595 -1.7940  0.6101
  591MOL0     C79705   3.165   2.223   8.129  0.3076 -0.6116 -0.1033
  591MOL0     C79706   3.110   2.138   8.027  0.0429  0.6233  0.5043
  591MOL0     C79707   2.987   2.182   7.968  0.2638 -0.2900 -0.1450
  591MOL0     C79708   2.903   2.276   8.032  0.0904  0.0932  0.1872
  591MOL0     O79709   2.786   2.308   7.962  0.5967 -0.3125 -0.2815
  591MOL0     C79710   2.669   2.357   8.030 -0.5864 -0.6947  0.5966
  591MOL0     C79711   2.608   2.472   7.946  0.2021  0.0951 -1.0951
  591MOL0     C79712   2.593   2.428   7.804  0.1593 -0.6578 -0.1993
  591MOL0     C79713   2.538   2.540   7.718 -0.1141 -0.2105 -0.4020
  591MOL0     C79714   2.476   2.496   7.594  0.0845  0.4737 -0.2080
  591MOL0     C79715   2.433   2.465   7.485  0.3031 -0.2557 -1.4181
  591MOL0     C79716   2.953   2.348   8.134  0.0782 -1.3736  0.0537
  591MOL0     C79717   3.083   2.323   8.184  0.4099  0.2432  1.7135
  591MOL0     H79718   3.577   2.165   8.191 -1.0096 -0.4857 -0.0788
  591MOL0     H79719   3.756   2.045   8.315  0.1657  0.2966 -2.9229
  591MOL0     H79720   3.705   1.869   8.563 -0.2225 -0.0268 -0.5646
  591MOL0     H79721   3.691   1.696   8.544 -1.0284  1.0891  0.2799
  591MOL0     H79722   3.942   1.688   8.517 -1.7976  0.2870 -2.3364
  591MOL0     H79723   3.955   1.861   8.543  2.0567  0.8392  2.4513
  591MOL0     H79724   3.873   1.848   8.773  1.9777 -0.2674 -0.4869
  591MOL0     H79725   3.855   1.666   8.761  0.4048 -0.4231  3.9144
  591MOL0     H79726   4.100   1.653   8.733 -1.2539 -0.9844 -0.6790
  591MOL0     H79727   4.109   1.834   8.729  0.0949  1.7278  1.4002
  591MOL0     H79728   3.982   1.709   8.958 -0.6791  1.3159 -0.4692
  591MOL0     H79729   4.166   1.696   8.936 -3.3526 -4.1160  4.1613
  591MOL0     H79730   4.010   1.945   9.002 -0.9345 -1.2582  0.3793
  591MOL0     H79731   4.126   1.864   9.100  3.3595 -0.3419 -0.7736
  591MOL0     H79732   4.298   1.929   8.924 -1.3707 -0.5347  1.0643
  591MOL0     H79733   4.168   2.014   8.837  0.0969 -2.7188 -1.3346
  591MOL0     H79734   4.317   2.154   8.980  2.0206 -2.4008 -0.1511
  591MOL0     H79735   4.268   2.067   9.121 -2.0711 -0.2785  1.0015
  591MOL0     H79736   3.982   2.165   8.891  2.7618  2.0268 -1.6879
  591MOL0     H79737   3.773   2.398   9.110 -0.5517  0.7314 -0.5859
  591MOL0     H79738   3.782   2.347   8.939  3.1688 -3.5276 -3.0390
  591MOL0     H79739   3.609   2.231   9.093  0.4533 -0.2815  2.6453
  591MOL0     H79740   3.744   2.121   9.146 -0.7351 -0.2773  1.4045
  591MOL0     H79741   3.746   2.012   8.935 -1.9018 -1.5312 -0.5075
  591MOL0     H79742   3.734   2.166   8.861  0.8729 -0.0225  0.8226
  591MOL0     H79743   3.488   2.180   8.917 -1.8972 -0.5956  1.5920
  591MOL0     H79744   3.510   2.009   8.977 -0.2972 -1.8836 -2.8536
  591MOL0     H79745   3.301   2.043   8.905  0.6515 -1.0964  0.4588
  591MOL0     H79746   2.977   1.948   8.822 -0.1509  0.2430 -4.5883
  591MOL0     H79747   3.088   2.036   8.936  1.4236 -0.8974  0.7166
  591MOL0     H79748   3.003   2.125   8.816  2.2093  0.8385  2.1905
  591MOL0     H79749   2.853   2.107   8.366  2.1611 -1.1565  1.4033
  591MOL0     H79750   2.625   2.091   8.276 -0.6825  0.2788 -0.8763
  591MOL0     H79751   2.438   2.049   8.154  0.6649 -1.8730  1.8133
  591MOL0     H79752   2.544   2.031   8.009 -0.9852 -0.7305 -1.8312
  591MOL0     H79753   2.378   1.867   7.922  1.4843  1.3961 -0.6165
  591MOL0     H79754   2.271   1.922   8.045  1.8450  0.0343  0.6900
  591MOL0     H79755   2.218   2.023   7.833 -1.2266  1.7278  0.5924
  591MOL0     H79756   2.383   2.090   7.811  2.1398 -0.3078  1.0821
  591MOL0     H79757   2.199   2.164   8.055  1.9811 -0.3719  1.3219
  591MOL0     H79758   2.358   2.216   8.021  1.0585  0.7366 -1.4222
  591MOL0     H79759   2.257   2.340   7.801 -1.6434 -1.6223 -2.1324
  591MOL0     H79760   2.189   2.402   7.949  0.7756 -0.3874  1.4797
  591MOL0     H79761   2.067   2.178   7.778 -1.6249 -1.7160  2.9214
  591MOL0     H79762   1.992   2.261   7.909  0.3919 -4.5704 -0.6566
  591MOL0     H79763   2.067   2.416   7.658 -2.0503  0.9912  0.1162
  591MOL0     H79764   2.027   2.482   7.804  1.5279 -0.1797  0.4925
  591MOL0     H79765   1.857   2.447   7.615 -1.5855  0.1946  0.4343
  591MOL0     H79766   1.799   2.409   7.784 -1.6147  2.7153 -1.1077
  591MOL0     H79767   2.703   1.678   8.172 -3.3049 -0.6839  1.6117
  591MOL0     H79768   2.933   1.699   8.285  0.6007 -0.2087 -1.8500
  591MOL0     H79769   3.259   1.934   8.430 -2.8969 -0.8590  0.8272
  591MOL0     H79770   3.486   1.972   8.523  0.4326 -0.3334  0.4316
  591MOL0     H79771   3.541   1.691   8.281 -2.1901  0.6343  0.7819
  591MOL0     H79772   3.340   1.796   8.173  1.9971 -3.7912 -1.6283
  591MOL0     H79773   3.173   2.059   7.987 -0.9850 -0.5096  1.0658
  591MOL0     H79774   2.935   2.136   7.885 -0.4807 -1.4188  0.9215
  591MOL0     H79775   2.605   2.268   8.033 -1.1157 -0.4386 -1.4572
  591MOL0     H79776   2.698   2.389   8.131  3.1559 -0.4159 -0.4434
  591MOL0     H79777   2.669   2.562   7.954  0.8745 -0.4100 -0.3734
  591MOL0     H79778   2.508   2.489   7.985  0.5309  2.4849 -1.1437
  591MOL0     H79779   2.529   2.340   7.795 -2.1091  0.8464  0.4577
  591MOL0     H79780   2.692   2.401   7.766  1.8334  1.7743  2.0936
  591MOL0     H79781   2.615   2.613   7.694  1.6825 -1.3857  1.5111
  591MOL0     H79782   2.463   2.592   7.778  0.6081  1.6472 -1.0364
  591MOL0     H79783   2.399   2.431   7.390 -1.1832  3.5871 -2.4557
  591MOL0     H79784   2.885   2.423   8.171 -0.9313 -1.5437 -1.3405
  591MOL0     H79785   3.133   2.387   8.256  1.1696  2.9354 -1.0021
  592MOL0     O79786   1.746   3.503   2.857 -0.0679 -0.4888  0.4570
  592MOL0     C79787   1.717   3.483   2.739 -0.0489 -0.3115  0.4240
  592MOL0     O79788   1.791   3.518   2.632 -0.3391  0.6094 -0.1048
  592MOL0     C79789   1.923   3.549   2.645 -0.5934  0.2745  0.8272
  592MOL0     C79790   2.011   3.476   2.728 -0.8591  0.7638 -0.5562
  592MOL0     C79791   2.148   3.500   2.740 -0.1615 -0.7561  0.7411
  592MOL0     C79792   2.211   3.597   2.658 -0.2342  0.0201 -0.4507
  592MOL0     O79793   2.346   3.600   2.653 -0.7538 -0.6879 -0.9076
  592MOL0     C79794   2.417   3.724   2.643  0.7474 -0.0115  0.3615
  592MOL0     C79795   2.574   3.703   2.663  0.2424 -0.5222  0.4232
  592MOL0     C79796   2.627   3.636   2.549  0.5355  0.1082  0.5900
  592MOL0     C79797   2.782   3.627   2.558  0.0341  0.4388  0.3323
  592MOL0     C79798   2.852   3.545   2.442  0.5431  0.5414 -1.4652
  592MOL0     C79799   3.005   3.527   2.480  0.4428  0.4200  0.3517
  592MOL0     C79800   3.096   3.461   2.370 -0.4442  0.2006  0.0988
  592MOL0     C79801   3.085   3.313   2.364  1.1032 -0.6082  0.1963
  592MOL0     N79802   3.157   3.267   2.246 -0.3064  0.6681 -1.0231
  592MOL0     C79803   3.291   3.296   2.220 -0.4433  0.0739  0.6183
  592MOL0     C79804   3.305   3.232   2.100 -0.6398  0.0733  0.1168
  592MOL0     C79805   3.421   3.232   2.013 -0.1375 -0.3772  0.9398
  592MOL0     C79806   3.423   3.365   1.936 -0.3914  1.0336 -0.8847
  592MOL0     C79807   3.343   3.378   1.814  0.1290  0.3063  0.2276
  592MOL0     C79808   3.318   3.525   1.769  1.1449  0.9197 -0.4950
  592MOL0     O79809   3.230   3.581   1.871  0.3852  0.6337 -0.7861
  592MOL0     C79810   3.099   3.574   1.840  0.2841 -0.6173 -0.1079
  592MOL0     C79811   3.020   3.530   1.944  0.7434 -0.3442 -0.0915
  592MOL0     C79812   2.881   3.529   1.933 -0.1153 -0.1441 -0.3508
  592MOL0     C79813   2.797   3.485   2.049 -0.3187  0.5155 -0.3816
  592MOL0     C79814   2.821   3.587   1.815  0.1035  0.3410 -0.0935
  592MOL0     C79815   2.669   3.591   1.778  0.0533 -0.4475 -0.2260
  592MOL0     O79816   2.638   3.662   1.662 -0.0433  0.3121  0.0952
  592MOL0     C79817   2.505   3.669   1.624  0.5802  0.4281  0.1225
  592MOL0     C79818   2.425   3.555   1.605  0.3754  0.5383 -0.2293
  592MOL0     C79819   2.287   3.567   1.574  0.2406  0.2365  0.5742
  592MOL0     C79820   2.241   3.705   1.547 -0.3225  0.9157 -0.0866
  592MOL0     O79821   2.113   3.725   1.518  0.1154 -0.7540 -0.0300
  592MOL0     C79822   2.042   3.832   1.585 -0.0780  0.1666 -0.0904
  592MOL0     C79823   1.892   3.794   1.539 -0.2947  0.0846  0.0435
  592MOL0     C79824   1.862   3.813   1.389 -0.3011  0.4215 -0.0444
  592MOL0     C79825   1.730   3.746   1.337  0.6800  0.5213  0.7851
  592MOL0     C79826   1.747   3.590   1.325  0.2670  0.0290 -0.4780
  592MOL0     C79827   1.618   3.522   1.287 -0.3571 -0.1153 -0.5815
  592MOL0     C79828   1.600   3.378   1.362  0.9916  0.2568  0.1736
  592MOL0     C79829   1.473   3.310   1.301  0.0452 -0.3076 -1.4307
  592MOL0    Cl79830   1.317   3.404   1.314 -0.2883  0.2270 -0.0724
  592MOL0     C79831   2.317   3.814   1.575 -0.5270  0.2808 -0.6407
  592MOL0     C79832   2.453   3.799   1.601  0.3546  0.5986 -0.1806
  592MOL0     O79833   2.587   3.548   1.856 -0.4488 -0.9348 -0.9141
  592MOL0     C79834   2.909   3.628   1.708 -0.0849  0.2638 -0.9034
  592MOL0     C79835   3.046   3.628   1.721  0.6461  0.3108 -0.0491
  592MOL0     N79836   3.191   3.164   2.058 -0.2067  0.0463 -0.4924
  592MOL0     N79837   3.100   3.187   2.153  0.0541  0.1066  0.1590
  592MOL0     C79838   2.126   3.664   2.563 -0.4298  0.5419  0.4549
  592MOL0     C79839   1.989   3.647   2.563 -0.1266 -0.1224 -0.0342
  592MOL0     C79840   1.601   3.405   2.701  0.5490 -0.2428 -0.0472
  592MOL0     C79841   1.543   3.326   2.795  1.8782 -0.3139  0.2021
  592MOL0     C79842   1.434   3.250   2.764 -0.0986  0.7351 -0.0000
  592MOL0     C79843   1.375   3.260   2.637  1.4336  0.0956 -0.4089
  592MOL0     O79844   1.257   3.190   2.596  0.0618  0.3740  0.2936
  592MOL0     C79845   1.200   3.220   2.468  0.0846 -0.1766 -0.2159
  592MOL0     C79846   1.138   3.363   2.453 -0.1911  0.8925 -0.3109
  592MOL0     C79847   1.055   3.412   2.570 -0.1930 -0.0552  0.0758
  592MOL0     C79848   1.027   3.561   2.541 -0.5051 -0.4653  0.4899
  592MOL0     C79849   0.887   3.605   2.513  0.0962  0.8078 -0.6291
  592MOL0     C79850   0.771   3.637   2.485  0.1145 -0.5032  1.4918
  592MOL0     C79851   1.435   3.336   2.540  0.0010 -0.1093 -0.6389
  592MOL0     C79852   1.547   3.414   2.574 -0.7512  0.4836  0.7744
  592MOL0     H79853   1.968   3.388   2.773 -3.4185  0.7582 -2.7085
  592MOL0     H79854   2.207   3.424   2.790 -0.2269 -0.0359  1.9480
  592MOL0     H79855   2.397   3.770   2.546 -1.6877  3.7067  2.3760
  592MOL0     H79856   2.381   3.790   2.723  0.0266  0.0279  0.0081
  592MOL0     H79857   2.637   3.786   2.695  1.1078 -1.8603  2.4689
  592MOL0     H79858   2.592   3.633   2.745 -3.6703 -0.6639  1.3642
  592MOL0     H79859   2.580   3.537   2.546 -1.0861  0.8133  1.4452
  592MOL0     H79860   2.595   3.686   2.457  1.8514  1.7593  0.9676
  592MOL0     H79861   2.820   3.727   2.536 -0.6808  0.7702  0.6049
  592MOL0     H79862   2.815   3.595   2.657 -0.3740 -0.9060  0.0547
  592MOL0     H79863   2.799   3.451   2.421 -1.9582  0.8238  2.5562
  592MOL0     H79864   2.844   3.596   2.346 -0.4356  0.6615 -1.3288
  592MOL0     H79865   3.058   3.619   2.508 -0.0094 -0.2419  3.8404
  592MOL0     H79866   3.009   3.447   2.555 -1.3724 -2.0155 -1.9469
  592MOL0     H79867   3.082   3.523   2.281 -0.8069  3.0565  2.0081
  592MOL0     H79868   3.198   3.474   2.406 -0.5145 -0.3166  0.4878
  592MOL0     H79869   2.983   3.275   2.352  1.7811 -2.1691 -1.0058
  592MOL0     H79870   3.128   3.270   2.455  0.6552 -3.1315 -0.7141
  592MOL0     H79871   3.345   3.360   2.288 -2.2215  1.2345  1.0003
  592MOL0     H79872   3.513   3.221   2.070  1.5789  0.4714 -1.4969
  592MOL0     H79873   3.411   3.145   1.946  0.0828 -0.2896  0.7917
  592MOL0     H79874   3.522   3.366   1.888 -1.3749  0.9651 -3.0482
  592MOL0     H79875   3.409   3.446   2.008  0.4877  0.0193  0.4825
  592MOL0     H79876   3.243   3.350   1.849 -1.0224  1.0840 -2.1863
  592MOL0     H79877   3.360   3.311   1.729  2.2565  2.9873 -1.6455
  592MOL0     H79878   3.254   3.520   1.680 -0.9317 -0.7439  0.9843
  592MOL0     H79879   3.407   3.582   1.743  0.6837  0.7679 -2.5959
  592MOL0     H79880   3.061   3.511   2.043 -1.5822 -0.4795  0.9101
  592MOL0     H79881   2.750   3.574   2.093 -0.0306  1.5459 -2.0757
  592MOL0     H79882   2.725   3.405   2.027 -0.4443  0.3352  0.6053
  592MOL0     H79883   2.867   3.442   2.121 -0.8527 -2.0285 -1.2877
  592MOL0     H79884   2.467   3.462   1.641 -0.2566  0.5942  0.6960
  592MOL0     H79885   2.227   3.477   1.567  0.0119  0.4228  0.0688
  592MOL0     H79886   2.055   3.831   1.693 -3.6944 -3.5840  0.5425
  592MOL0     H79887   2.061   3.932   1.544 -1.5405 -0.0175 -1.3346
  592MOL0     H79888   1.885   3.686   1.557 -2.2488 -0.2030 -2.0543
  592MOL0     H79889   1.830   3.858   1.603  0.8010  0.5487  0.6878
  592MOL0     H79890   1.939   3.767   1.326 -0.4105  0.7675 -0.4353
  592MOL0     H79891   1.852   3.918   1.363 -2.3316  0.1882 -0.3797
  592MOL0     H79892   1.644   3.762   1.402  1.5199  0.9021  1.8539
  592MOL0     H79893   1.709   3.788   1.238 -0.5356 -0.9045  0.3974
  592MOL0     H79894   1.783   3.560   1.424  0.7347 -1.9774 -1.2029
  592MOL0     H79895   1.830   3.556   1.262  0.0979 -1.8837  0.2523
  592MOL0     H79896   1.530   3.587   1.297  1.7184  2.8338 -0.3169
  592MOL0     H79897   1.627   3.499   1.181  0.5282  2.1503 -1.0716
  592MOL0     H79898   1.605   3.385   1.471  0.2959  0.5768  0.1941
  592MOL0     H79899   1.685   3.314   1.339 -0.1768 -1.2050 -0.2783
  592MOL0     H79900   1.469   3.208   1.339  0.5988 -1.0915 -3.3709
  592MOL0     H79901   1.501   3.298   1.196  0.6552  0.3423 -1.3461
  592MOL0     H79902   2.290   3.918   1.560  1.0115  0.8774  0.4307
  592MOL0     H79903   2.512   3.887   1.625 -2.2588  2.4193  0.0118
  592MOL0     H79904   2.864   3.665   1.616 -0.6600  3.7748  0.6348
  592MOL0     H79905   3.114   3.680   1.653  0.2600  1.0579  0.1248
  592MOL0     H79906   2.156   3.737   2.488 -0.0683  0.9467  0.9912
  592MOL0     H79907   1.934   3.719   2.504 -0.5803 -0.7710 -0.4127
  592MOL0     H79908   1.589   3.314   2.892  1.8588  0.4322  0.3117
  592MOL0     H79909   1.389   3.185   2.838 -0.0185  0.7382  0.0517
  592MOL0     H79910   1.274   3.196   2.391  0.5508 -3.3156  1.0611
  592MOL0     H79911   1.122   3.149   2.439 -2.0351  2.0244 -0.2580
  592MOL0     H79912   1.074   3.357   2.365  0.1600 -0.5653 -0.4876
  592MOL0     H79913   1.213   3.439   2.431  1.3992 -0.1745  1.1490
  592MOL0     H79914   1.101   3.401   2.668 -3.4056  0.6801  1.7905
  592MOL0     H79915   0.965   3.350   2.580  0.3765 -1.4269 -2.4316
  592MOL0     H79916   1.092   3.600   2.462  1.0860  1.4948  2.6398
  592MOL0     H79917   1.070   3.635   2.609  2.7568 -1.8020  0.0435
  592MOL0     H79918   0.676   3.660   2.441  0.9188 -1.3196 -0.8479
  592MOL0     H79919   1.400   3.338   2.437 -0.2696  0.1284 -0.5474
  592MOL0     H79920   1.605   3.462   2.495  0.6028 -0.3313  1.2500
  593MOL0     O79921  10.261   4.849   9.191 -0.3180 -0.2632 -0.2262
  593MOL0     C79922  10.189   4.869   9.284 -0.8119 -0.4718 -0.7072
  593MOL0     O79923  10.159   4.776   9.383 -0.5636  1.0635 -0.0984
  593MOL0     C79924  10.230   4.656   9.391 -0.3787 -0.8172 -0.1966
  593MOL0     C79925  10.289   4.619   9.515  0.9399  0.4877 -0.0704
  593MOL0     C79926  10.326   4.488   9.532 -1.3257  0.1830 -0.5646
  593MOL0     C79927  10.319   4.388   9.440 -0.7048  0.0903  0.5125
  593MOL0     O79928  10.380   4.268   9.478 -0.4389 -0.2346  0.1740
  593MOL0     C79929  10.418   4.176   9.374 -0.5986  0.5188 -0.1004
  593MOL0     C79930  10.420   4.032   9.424  0.8422  0.7612 -0.5244
  593MOL0     C79931  10.563   3.996   9.470 -1.0738  1.1240 -0.1162
  593MOL0     C79932  10.553   3.850   9.515 -0.2359  1.1330 -0.0676
  593MOL0     C79933  10.691   3.810   9.558  0.1369 -0.3694 -0.3817
  593MOL0     C79934  10.691   3.673   9.607  0.5904  0.1427  0.2998
  593MOL0     C79935  10.647   3.650   9.751 -0.1492  0.5963 -0.0536
  593MOL0     C79936  10.601   3.501   9.780 -0.9733  0.0394  0.6153
  593MOL0     N79937  10.478   3.471   9.704 -0.5783  0.1257 -0.4092
  593MOL0     C79938  10.349   3.520   9.713 -0.0537  0.5344  0.4302
  593MOL0     C79939  10.283   3.455   9.617 -0.1683 -0.6117 -0.7144
  593MOL0     C79940  10.140   3.496   9.571  0.0855  0.4196  0.0753
  593MOL0     C79941  10.133   3.648   9.552 -0.1262 -0.0717  0.5967
  593MOL0     C79942  10.204   3.686   9.424  0.0848  0.1302 -0.0117
  593MOL0     C79943  10.118   3.667   9.294  0.0417  0.2825 -0.3225
  593MOL0     O79944  10.188   3.676   9.163 -0.3940 -0.2968 -0.1097
  593MOL0     C79945  10.130   3.621   9.056  0.1657 -1.5852  0.8529
  593MOL0     C79946   9.998   3.584   9.046  0.2145  0.1890  0.0593
  593MOL0     C79947   9.935   3.550   8.924 -0.1719  0.1280 -0.0652
  593MOL0     C79948   9.784   3.547   8.916  0.1916 -1.0188 -0.1502
  593MOL0     C79949  10.017   3.531   8.802 -0.4173 -0.0785  0.5225
  593MOL0     C79950   9.963   3.465   8.672 -0.6002  0.8168 -0.6572
  593MOL0     O79951  10.026   3.499   8.557 -0.4324  0.5904 -0.3108
  593MOL0     C79952   9.974   3.455   8.437  0.4679 -0.0371  0.2565
  593MOL0     C79953  10.034   3.372   8.344 -0.1182 -0.4926 -0.0408
  593MOL0     C79954   9.982   3.340   8.224 -0.2948 -0.4212 -0.5193
  593MOL0     C79955   9.866   3.401   8.180  0.4576  0.3219 -0.0049
  593MOL0     O79956   9.826   3.372   8.050  0.0076 -0.1121  0.0190
  593MOL0     C79957   9.690   3.404   8.005 -0.6558 -0.1399 -0.0948
  593MOL0     C79958   9.660   3.316   7.892  0.2116  0.0424 -0.7353
  593MOL0     C79959   9.510   3.332   7.843  0.0576  0.0392 -0.3537
  593MOL0     C79960   9.446   3.464   7.816 -0.3611  1.1818 -0.1358
  593MOL0     C79961   9.511   3.533   7.700  0.1811 -0.7862  0.0601
  593MOL0     C79962   9.481   3.678   7.679  0.1331 -0.1894  0.1633
  593MOL0     C79963   9.528   3.729   7.545  0.1547  0.5764 -0.5341
  593MOL0     C79964   9.523   3.883   7.526 -0.1467  0.7800 -0.1801
  593MOL0    Cl79965   9.611   3.909   7.375 -0.3345  0.0497 -0.2969
  593MOL0     C79966   9.796   3.486   8.272 -0.0010  0.6806 -0.4150
  593MOL0     C79967   9.853   3.513   8.403 -0.0414 -0.5918  0.0510
  593MOL0     O79968   9.865   3.392   8.684 -0.2376  0.4818 -0.4508
  593MOL0     C79969  10.151   3.569   8.818 -1.0780 -1.2132  0.4764
  593MOL0     C79970  10.205   3.620   8.935 -0.9477  0.0296 -0.6624
  593MOL0     N79971  10.359   3.366   9.559  0.6023 -0.3785 -0.4040
  593MOL0     N79972  10.477   3.369   9.614  0.5757  0.4742  0.1322
  593MOL0     C79973  10.268   4.423   9.309  1.3987 -0.4320 -0.1842
  593MOL0     C79974  10.228   4.552   9.286  0.7923  0.5972 -1.0931
  593MOL0     C79975  10.108   4.991   9.286  0.3357  0.8640  0.8184
  593MOL0     C79976   9.992   5.004   9.360 -0.5924  0.2826  0.3871
  593MOL0     C79977   9.914   5.119   9.332 -0.6392  1.0684 -0.3351
  593MOL0     C79978   9.951   5.220   9.239 -0.5921  0.1782 -0.9024
  593MOL0     O79979   9.876   5.331   9.220  0.6268 -0.5270 -0.3140
  593MOL0     C79980   9.867   5.393   9.081 -0.4873 -0.3156  0.5583
  593MOL0     C79981   9.834   5.291   8.965  0.2291 -0.2351  0.0763
  593MOL0     C79982   9.890   5.326   8.823 -0.5777 -1.0213  0.0025
  593MOL0     C79983   9.824   5.452   8.757  1.0610  0.6466 -0.2601
  593MOL0     C79984   9.887   5.571   8.803 -0.0455 -0.1317  0.7085
  593MOL0     C79985   9.920   5.680   8.842 -0.4083 -0.3885  0.3562
  593MOL0     C79986  10.068   5.199   9.168 -0.1831  0.2533 -0.2880
  593MOL0     C79987  10.152   5.095   9.204 -0.1374  0.2844  0.6848
  593MOL0     H79988  10.311   4.682   9.599  0.8406 -1.9489  1.9040
  593MOL0     H79989  10.372   4.465   9.627  1.6606 -0.5135 -2.0657
  593MOL0     H79990  10.336   4.165   9.303  0.6930 -2.9405 -1.2655
  593MOL0     H79991  10.512   4.205   9.325 -2.2372  0.8062 -3.3371
  593MOL0     H79992  10.353   4.023   9.510 -0.2267  1.0175 -1.3041
  593MOL0     H79993  10.388   3.965   9.344  1.7224  0.9509 -1.0444
  593MOL0     H79994  10.638   4.013   9.392  0.0361  0.7837  0.8580
  593MOL0     H79995  10.595   4.060   9.552  0.2196  0.4242 -0.0463
  593MOL0     H79996  10.487   3.833   9.600  1.3134  1.0439  1.1714
  593MOL0     H79997  10.514   3.796   9.428 -0.4105  1.9559 -0.5137
  593MOL0     H79998  10.758   3.820   9.472 -1.9784  2.4713 -1.8571
  593MOL0     H79999  10.743   3.880   9.624 -0.8470  2.4443 -2.3867
  593MOL0     H80000  10.637   3.609   9.537 -0.3161 -1.1967  2.1446
  593MOL0     H80001  10.795   3.641   9.598  0.8990  1.2630 -0.2619
  593MOL0     H80002  10.733   3.671   9.817 -0.9018 -0.9207  1.4917
  593MOL0     H80003  10.569   3.720   9.782  2.1914  3.1863  0.3911
  593MOL0     H80004  10.581   3.486   9.887  2.0482  0.9950  1.4057
  593MOL0     H80005  10.670   3.422   9.751 -1.3886  0.3528 -1.3626
  593MOL0     H80006  10.309   3.590   9.787 -4.0354 -1.3233  0.3133
  593MOL0     H80007  10.107   3.436   9.486  0.2137  1.8977 -1.0667
  593MOL0     H80008  10.067   3.479   9.650 -0.4361 -0.3699 -0.5622
  593MOL0     H80009  10.179   3.699   9.637  0.0725  2.3350 -0.8527
  593MOL0     H80010  10.027   3.674   9.546 -0.0590  0.5621  1.9137
  593MOL0     H80011  10.302   3.640   9.409 -0.1154 -0.1147 -0.6075
  593MOL0     H80012  10.227   3.791   9.438  0.6681 -0.2527  2.2326
  593MOL0     H80013  10.040   3.745   9.293 -3.0424 -2.5729 -0.1888
  593MOL0     H80014  10.062   3.577   9.321 -2.5415  2.2354  1.3209
  593MOL0     H80015   9.936   3.584   9.135  0.4548 -0.5567  0.2373
  593MOL0     H80016   9.743   3.628   8.976 -0.9544 -0.1975 -1.9429
  593MOL0     H80017   9.751   3.577   8.816  1.8654  2.7315  0.2845
  593MOL0     H80018   9.744   3.452   8.955 -0.4241 -0.0664  1.6135
  593MOL0     H80019  10.125   3.318   8.368 -0.7443 -2.4388 -1.7111
  593MOL0     H80020  10.041   3.288   8.149  1.8745  0.5340  0.4498
  593MOL0     H80021   9.620   3.397   8.089  0.5002  0.3089  0.9408
  593MOL0     H80022   9.703   3.505   7.964  3.1174 -0.6356 -0.5273
  593MOL0     H80023   9.729   3.332   7.809 -0.1977  0.9142 -0.9098
  593MOL0     H80024   9.672   3.209   7.911  0.0512  0.3733  1.4602
  593MOL0     H80025   9.455   3.286   7.925  3.9071  0.8841  3.0974
  593MOL0     H80026   9.503   3.274   7.751  3.2945 -2.2041  0.6317
  593MOL0     H80027   9.338   3.454   7.805 -0.4360 -0.2593  1.4294
  593MOL0     H80028   9.472   3.525   7.903  2.9848  3.1425 -2.2813
  593MOL0     H80029   9.480   3.473   7.614 -3.2165 -3.0576  2.6087
  593MOL0     H80030   9.620   3.534   7.708  0.3005  1.1091 -1.1551
  593MOL0     H80031   9.375   3.699   7.693  0.2124  3.4494 -3.1814
  593MOL0     H80032   9.538   3.731   7.757  1.1009  0.9238 -1.2485
  593MOL0     H80033   9.452   3.694   7.475 -2.3053  1.1885  1.6638
  593MOL0     H80034   9.628   3.687   7.534 -0.8366 -2.8101  1.8678
  593MOL0     H80035   9.569   3.939   7.608  0.4480 -1.1462  0.8612
  593MOL0     H80036   9.418   3.914   7.517 -1.1171 -2.0191  0.4050
  593MOL0     H80037   9.700   3.530   8.247  0.2821  2.1928  0.9755
  593MOL0     H80038   9.796   3.576   8.470 -1.5553 -0.5166 -1.2557
  593MOL0     H80039  10.215   3.568   8.730  0.5479 -3.4548  1.6069
  593MOL0     H80040  10.309   3.649   8.931 -1.7456  3.1172 -2.5906
  593MOL0     H80041  10.255   4.353   9.227  0.8304  2.1713 -2.4680
  593MOL0     H80042  10.181   4.589   9.195 -0.6344  3.3584  0.6071
  593MOL0     H80043   9.964   4.938   9.441  0.3495  0.6456  1.0174
  593MOL0     H80044   9.816   5.133   9.377 -1.0123  1.3103 -1.2115
  593MOL0     H80045   9.798   5.477   9.074  1.1311  0.9210 -2.0209
  593MOL0     H80046   9.961   5.437   9.047 -1.7278  1.0273 -1.3001
  593MOL0     H80047   9.726   5.278   8.954  0.1625  1.4035 -2.0087
  593MOL0     H80048   9.886   5.195   8.973 -0.1181 -0.3592  0.8303
  593MOL0     H80049   9.867   5.242   8.757 -1.4635  0.1645 -1.2447
  593MOL0     H80050   9.999   5.327   8.814 -0.6125 -1.4019 -0.4823
  593MOL0     H80051   9.721   5.446   8.794  1.5371 -2.4752  0.9246
  593MOL0     H80052   9.831   5.441   8.648  0.6192 -0.0377 -0.2318
  593MOL0     H80053   9.943   5.784   8.860 -5.2163  0.9596 -0.0138
  593MOL0     H80054  10.111   5.269   9.097  1.0628  0.5423  0.7231
  593MOL0     H80055  10.247   5.098   9.151 -0.9635  1.5148 -0.7748
  594MOL0     O80056   5.639   4.357   9.738  0.0408  0.1768 -0.4287
  594MOL0     C80057   5.527   4.383   9.684 -0.0959 -0.5484 -0.3023
  594MOL0     O80058   5.446   4.476   9.737 -0.4274 -0.1422 -0.2349
  594MOL0     C80059   5.494   4.558   9.834 -0.5319 -0.0091  0.4096
  594MOL0     C80060   5.523   4.524   9.971  0.3363 -0.0318  0.6665
  594MOL0     C80061   5.575   4.608  10.067 -0.9812 -0.9819 -0.7102
  594MOL0     C80062   5.605   4.736  10.023 -0.7288  0.2559 -0.4243
  594MOL0     O80063   5.657   4.818  10.115 -0.2314  0.0846  0.7093
  594MOL0     C80064   5.802   4.832  10.109 -0.3065 -0.1013 -0.8737
  594MOL0     C80065   5.859   4.823  10.259  0.8317 -0.1497 -0.3049
  594MOL0     C80066   6.008   4.844  10.266  0.3855 -2.0039 -0.7824
  594MOL0     C80067   6.094   4.751  10.191  0.2465  0.7137 -0.2341
  594MOL0     C80068   6.239   4.750  10.251 -0.1088 -0.1629  0.2259
  594MOL0     C80069   6.344   4.652  10.179 -0.7574  0.0198  0.5271
  594MOL0     C80070   6.489   4.703  10.180 -1.0265 -0.2806  0.5732
  594MOL0     C80071   6.605   4.611  10.235 -0.3192  0.2776  0.7009
  594MOL0     N80072   6.596   4.469  10.188 -0.0554 -0.2758 -0.0686
  594MOL0     C80073   6.611   4.421  10.061 -0.4229 -0.8988 -0.3455
  594MOL0     C80074   6.594   4.286  10.082 -0.3112 -0.2060  0.4469
  594MOL0     C80075   6.568   4.191   9.978  0.4450 -1.0131 -0.0524
  594MOL0     C80076   6.665   4.209   9.864  0.2606 -0.4654  0.2231
  594MOL0     C80077   6.664   4.089   9.767  0.1447  0.0529  1.0147
  594MOL0     C80078   6.729   4.139   9.634 -0.3266 -0.5770  1.0403
  594MOL0     O80079   6.641   4.214   9.560  0.1481 -0.4284 -1.0076
  594MOL0     C80080   6.664   4.252   9.434  0.0213  0.9759  0.0507
  594MOL0     C80081   6.550   4.307   9.378  0.0762  0.1040 -0.5074
  594MOL0     C80082   6.565   4.370   9.249  0.7599  0.3479  0.1274
  594MOL0     C80083   6.436   4.444   9.199 -0.1392 -0.7508  0.1408
  594MOL0     C80084   6.684   4.376   9.172  0.4999  0.4410 -0.7609
  594MOL0     C80085   6.705   4.458   9.044  0.9005  0.5695 -0.6903
  594MOL0     O80086   6.801   4.554   9.053  0.1055 -0.1806 -0.5222
  594MOL0     C80087   6.797   4.678   9.004 -0.4665  0.0987 -0.7942
  594MOL0     C80088   6.914   4.750   9.028 -0.7634 -0.3471  1.4880
  594MOL0     C80089   6.923   4.891   8.993  0.1908 -0.2536  0.0024
  594MOL0     C80090   6.811   4.949   8.925 -0.5981  0.3899 -1.2997
  594MOL0     O80091   6.823   5.078   8.884 -0.5914  0.6099 -0.0248
  594MOL0     C80092   6.715   5.127   8.792  0.5002 -0.5844 -1.2037
  594MOL0     C80093   6.755   5.281   8.779  0.6392  0.5847  0.3502
  594MOL0     C80094   6.864   5.308   8.665 -0.1767  0.9157  0.3697
  594MOL0     C80095   7.004   5.343   8.726 -1.0121  0.1673 -1.0440
  594MOL0     C80096   7.103   5.378   8.617  0.4316  0.2630  0.0028
  594MOL0     C80097   7.233   5.454   8.655  0.0825 -0.2982 -0.6071
  594MOL0     C80098   7.340   5.420   8.551 -0.1012 -0.0294 -0.9739
  594MOL0     C80099   7.473   5.486   8.579  0.5988 -0.1567 -0.1574
  594MOL0    Cl80100   7.580   5.386   8.695  0.0341 -0.1399  0.3804
  594MOL0     C80101   6.698   4.868   8.898  0.1554 -0.5130 -0.4568
  594MOL0     C80102   6.697   4.728   8.921 -0.0215 -0.1979  0.7470
  594MOL0     O80103   6.625   4.439   8.951 -0.3125 -0.4015  0.1903
  594MOL0     C80104   6.798   4.304   9.228  0.3895 -0.1309 -0.3670
  594MOL0     C80105   6.780   4.258   9.364 -0.8554 -0.9052 -1.1702
  594MOL0     N80106   6.569   4.253  10.213  0.7960 -0.0031  0.0486
  594MOL0     N80107   6.562   4.366  10.273 -0.3166  0.5808  0.5933
  594MOL0     C80108   5.587   4.775   9.890 -0.1120 -0.1212 -0.7167
  594MOL0     C80109   5.524   4.691   9.807  1.0093 -0.1523  0.0728
  594MOL0     C80110   5.490   4.308   9.571  0.0847  0.4395 -0.1108
  594MOL0     C80111   5.584   4.241   9.501 -0.3981 -0.0541 -0.5970
  594MOL0     C80112   5.542   4.164   9.396  1.1720 -0.5983  0.3401
  594MOL0     C80113   5.407   4.166   9.348  0.3142  0.5354  0.0094
  594MOL0     O80114   5.371   4.088   9.240  0.2183 -0.4030 -0.1954
  594MOL0     C80115   5.230   4.054   9.234  0.6121  0.5234  0.2005
  594MOL0     C80116   5.175   3.949   9.338 -1.0733 -0.8453 -0.2191
  594MOL0     C80117   5.240   3.805   9.306  0.3367  1.2396  0.9098
  594MOL0     C80118   5.260   3.709   9.430 -0.3162 -0.4238 -0.0167
  594MOL0     C80119   5.132   3.681   9.491 -0.3844 -0.7248 -0.9909
  594MOL0     C80120   5.025   3.673   9.548  0.2635  0.4527  0.9962
  594MOL0     C80121   5.315   4.243   9.422  0.3309 -0.3007  0.3824
  594MOL0     C80122   5.352   4.307   9.534  0.2366  0.0494 -0.2451
  594MOL0     H80123   5.491   4.420   9.974  0.4258 -0.3573 -3.4412
  594MOL0     H80124   5.596   4.563  10.163  0.7767  0.3147 -0.4220
  594MOL0     H80125   5.853   4.773  10.033  0.3374 -1.0817  0.2738
  594MOL0     H80126   5.815   4.936  10.075 -1.3739  0.0873 -0.7308
  594MOL0     H80127   5.811   4.908  10.309  0.4003 -0.3593 -0.3508
  594MOL0     H80128   5.818   4.732  10.303  2.2947 -1.1507 -0.9516
  594MOL0     H80129   6.032   4.948  10.241 -2.5078 -0.8552  0.6889
  594MOL0     H80130   6.035   4.834  10.372  0.8847  0.0844 -0.6592
  594MOL0     H80131   6.052   4.651  10.196 -1.5501  1.3459 -1.6531
  594MOL0     H80132   6.093   4.785  10.087 -2.2144 -0.3214 -0.6099
  594MOL0     H80133   6.274   4.854  10.250  0.6464 -0.3696  1.6691
  594MOL0     H80134   6.247   4.729  10.358  1.7067  0.0022  0.1518
  594MOL0     H80135   6.343   4.550  10.217 -0.9000 -0.8769 -1.7311
  594MOL0     H80136   6.321   4.643  10.072 -0.7371 -1.3880  0.6300
  594MOL0     H80137   6.518   4.753  10.087 -0.8197  1.4220  1.5146
  594MOL0     H80138   6.488   4.784  10.254 -1.3889  0.6760 -0.4539
  594MOL0     H80139   6.617   4.618  10.344 -1.1409 -0.8877  0.8924
  594MOL0     H80140   6.700   4.657  10.207  2.6611 -1.8871  5.7657
  594MOL0     H80141   6.636   4.480   9.973  2.8170 -2.0433 -0.3132
  594MOL0     H80142   6.569   4.092  10.025  0.2028 -0.4153  1.2497
  594MOL0     H80143   6.471   4.214   9.935  1.1913  2.3711 -0.2074
  594MOL0     H80144   6.765   4.225   9.907 -0.0219  2.7984 -0.1357
  594MOL0     H80145   6.637   4.302   9.814  2.2826  1.9808  3.2699
  594MOL0     H80146   6.559   4.066   9.747 -0.2829  2.6117 -0.1674
  594MOL0     H80147   6.715   4.001   9.806 -2.4615 -1.1526  1.9166
  594MOL0     H80148   6.762   4.053   9.575 -0.8856 -0.7560  0.9866
  594MOL0     H80149   6.813   4.206   9.656 -3.1812  3.3375  1.1634
  594MOL0     H80150   6.454   4.299   9.427  0.7405  1.1461  1.0683
  594MOL0     H80151   6.447   4.552   9.185 -2.3385 -0.5908 -0.8366
  594MOL0     H80152   6.407   4.404   9.101 -2.8214 -0.1086  0.6007
  594MOL0     H80153   6.348   4.413   9.257  0.5699 -1.9193  0.6335
  594MOL0     H80154   7.008   4.706   9.061 -0.8151 -2.6311 -1.0713
  594MOL0     H80155   7.012   4.950   9.015 -0.0348  0.4560 -0.9072
  594MOL0     H80156   6.710   5.063   8.703  3.8834 -0.9707 -1.2767
  594MOL0     H80157   6.626   5.109   8.852  2.1820 -1.4502  1.1950
  594MOL0     H80158   6.661   5.335   8.767  1.5413  1.8298 -1.4764
  594MOL0     H80159   6.787   5.328   8.872  0.7807  1.9111 -0.3448
  594MOL0     H80160   6.842   5.396   8.604 -2.7430  2.8390  3.6504
  594MOL0     H80161   6.873   5.218   8.605 -1.3723  0.1807  1.2565
  594MOL0     H80162   6.994   5.425   8.799  2.3382 -1.7355  1.8920
  594MOL0     H80163   7.033   5.255   8.784 -2.1923 -0.5223 -1.4759
  594MOL0     H80164   7.043   5.442   8.551 -1.3611 -1.2111  0.1110
  594MOL0     H80165   7.120   5.284   8.564 -2.5608  0.0365 -0.7679
  594MOL0     H80166   7.216   5.562   8.649  1.3418  0.4847  4.9356
  594MOL0     H80167   7.275   5.440   8.755  0.9091 -1.6572 -1.1146
  594MOL0     H80168   7.296   5.450   8.456 -2.2762  2.0092  0.5471
  594MOL0     H80169   7.363   5.313   8.550 -1.0467 -0.4865  3.5158
  594MOL0     H80170   7.459   5.590   8.610 -1.7405 -0.3689 -0.3191
  594MOL0     H80171   7.523   5.492   8.481  0.1552 -2.1254 -0.5390
  594MOL0     H80172   6.610   4.909   8.850  0.3463  1.8417  1.0631
  594MOL0     H80173   6.605   4.674   8.899 -1.9376  2.2051  2.2859
  594MOL0     H80174   6.893   4.291   9.178 -0.6611 -0.3336 -2.4158
  594MOL0     H80175   6.869   4.223   9.416 -1.6202 -1.9953 -0.5597
  594MOL0     H80176   5.611   4.881   9.885  0.3590 -0.0941  1.3860
  594MOL0     H80177   5.501   4.738   9.712  2.2424 -1.4842 -0.9294
  594MOL0     H80178   5.688   4.236   9.529 -0.7538 -1.4077  0.5847
  594MOL0     H80179   5.612   4.108   9.334  2.0447  3.9051 -3.2368
  594MOL0     H80180   5.160   4.138   9.230 -0.1681  0.0018  1.8679
  594MOL0     H80181   5.217   4.002   9.138  0.5799  0.2533  0.3495
  594MOL0     H80182   5.067   3.939   9.343 -0.9211 -2.9614 -0.5354
  594MOL0     H80183   5.192   3.982   9.441 -3.1466  0.6135 -0.2918
  594MOL0     H80184   5.333   3.816   9.249 -0.5431  0.5186 -0.7142
  594MOL0     H80185   5.166   3.763   9.238  1.2741  0.9003  0.0844
  594MOL0     H80186   5.336   3.748   9.499 -2.5983  2.3421  1.1635
  594MOL0     H80187   5.295   3.612   9.394  0.1243 -0.7389  1.1952
  594MOL0     H80188   4.924   3.659   9.579 -0.8651 -1.6805 -3.0846
  594MOL0     H80189   5.212   4.255   9.390  0.0421  1.1605  1.7468
  594MOL0     H80190   5.282   4.361   9.596  1.4362  1.1814  0.1814
  595MOL0     O80191   8.556  11.103  10.109  0.1607  0.2053 -0.2092
  595MOL0     C80192   8.458  11.032  10.086 -0.3647 -0.3258 -0.9623
  595MOL0     O80193   8.331  11.058  10.127 -0.2761  0.7740  0.0467
  595MOL0     C80194   8.305  11.102  10.254 -0.0718 -0.1330  0.6727
  595MOL0     C80195   8.388  11.094  10.363 -0.1082  0.2427  0.7148
  595MOL0     C80196   8.356  11.135  10.495  0.3803  0.6961 -0.1828
  595MOL0     C80197   8.227  11.194  10.509  0.2094 -1.3353 -1.0084
  595MOL0     O80198   8.200  11.211  10.645 -0.3068 -0.3760  0.6232
  595MOL0     C80199   8.069  11.259  10.687  0.7173  0.1340  0.6599
  595MOL0     C80200   8.064  11.284  10.834  0.5983 -0.0463 -0.7713
  595MOL0     C80201   7.940  11.365  10.869  0.0665  0.0740  0.2700
  595MOL0     C80202   7.968  11.518  10.851 -0.0732 -0.7536  0.6330
  595MOL0     C80203   8.034  11.582  10.974  0.4042  0.3023  0.3841
  595MOL0     C80204   8.052  11.738  10.952  0.1496  0.4400 -0.0274
  595MOL0     C80205   8.117  11.792  11.080 -0.3498  0.1718  0.4498
  595MOL0     C80206   8.168  11.931  11.057 -0.3738 -1.8778 -0.2336
  595MOL0     N80207   8.073  12.034  11.024 -0.7662  0.3016 -0.0436
  595MOL0     C80208   8.108  12.145  10.948  0.2717 -0.4690  0.4535
  595MOL0     C80209   7.990  12.225  10.945 -0.1937 -0.5876 -0.3056
  595MOL0     C80210   7.960  12.362  10.879 -0.2400 -0.0266  0.2306
  595MOL0     C80211   7.889  12.336  10.738  0.8964 -0.4221  0.6400
  595MOL0     C80212   7.984  12.271  10.636 -0.3227 -0.2490 -0.2516
  595MOL0     C80213   7.919  12.254  10.499 -0.5839  0.0852  0.4509
  595MOL0     O80214   7.989  12.164  10.420  0.1430  0.0524 -0.2435
  595MOL0     C80215   7.990  12.184  10.279  0.4917 -0.1469 -0.0516
  595MOL0     C80216   7.882  12.229  10.206  0.4054  0.0132 -0.0243
  595MOL0     C80217   7.901  12.248  10.069 -0.1588 -0.1900 -0.2202
  595MOL0     C80218   7.775  12.289   9.999  1.2619 -0.1771 -0.5209
  595MOL0     C80219   8.025  12.226  10.004  0.0411 -1.2597  0.0209
  595MOL0     C80220   8.044  12.272   9.864 -0.2220  0.4375 -0.1481
  595MOL0     O80221   8.162  12.229   9.812 -0.0982 -0.2260  0.0093
  595MOL0     C80222   8.199  12.253   9.681 -0.5620  0.4178 -0.3039
  595MOL0     C80223   8.109  12.253   9.574  0.1159 -0.1859  0.5391
  595MOL0     C80224   8.144  12.286   9.445 -0.0943  0.9110 -0.1274
  595MOL0     C80225   8.274  12.314   9.410  0.2713  0.5269 -0.4946
  595MOL0     O80226   8.321  12.357   9.291  0.9530 -1.0910  0.5364
  595MOL0     C80227   8.240  12.457   9.222  0.1664  0.8766 -0.5263
  595MOL0     C80228   8.314  12.515   9.102  0.4836 -0.1066 -0.5378
  595MOL0     C80229   8.411  12.632   9.123 -0.4298 -0.5420 -0.0650
  595MOL0     C80230   8.543  12.624   9.039  0.0030 -0.8988 -0.1258
  595MOL0     C80231   8.636  12.751   9.052 -0.3836 -0.2420 -0.9353
  595MOL0     C80232   8.726  12.745   9.181  0.3593 -0.2180 -0.3839
  595MOL0     C80233   8.682  12.820   9.307  0.1793 -0.4535  0.7138
  595MOL0     C80234   8.753  12.773   9.430 -0.4708 -0.2140 -0.7056
  595MOL0    Cl80235   8.670  12.635   9.507  0.0465 -0.2376  0.1431
  595MOL0     C80236   8.371  12.308   9.514 -0.0315  0.2134  0.2655
  595MOL0     C80237   8.337  12.275   9.646  0.8106  0.2043  0.1067
  595MOL0     O80238   7.978  12.357   9.805  0.2223  0.1860 -1.1252
  595MOL0     C80239   8.133  12.186  10.079 -0.6667  0.0952 -1.0209
  595MOL0     C80240   8.112  12.169  10.216 -0.3612 -0.5514 -0.7094
  595MOL0     N80241   7.893  12.146  11.004 -0.0080 -0.2216  0.1185
  595MOL0     N80242   7.945  12.047  11.072 -0.4747 -0.4865 -0.1590
  595MOL0     C80243   8.147  11.202  10.397 -0.8290  0.3451  0.0377
  595MOL0     C80244   8.184  11.165  10.270 -0.4146 -1.0453  0.6854
  595MOL0     C80245   8.473  10.933   9.976 -0.4937  1.0308 -0.4134
  595MOL0     C80246   8.367  10.847   9.948 -0.3340  0.4286 -1.1250
  595MOL0     C80247   8.380  10.752   9.844 -0.1668  0.1610 -1.5246
  595MOL0     C80248   8.504  10.739   9.772 -0.7102  0.0126  0.5132
  595MOL0     O80249   8.525  10.653   9.668 -0.0513  0.9050 -0.4817
  595MOL0     C80250   8.428  10.547   9.649  0.4781 -0.0584  0.3749
  595MOL0     C80251   8.430  10.438   9.758 -0.2250  0.3646  0.4565
  595MOL0     C80252   8.334  10.320   9.728 -0.1104  0.5446  0.6314
  595MOL0     C80253   8.194  10.363   9.684  0.2551  0.4244  0.1597
  595MOL0     C80254   8.171  10.420   9.551 -0.5738  0.1003 -0.0715
  595MOL0     C80255   8.152  10.467   9.443 -0.1931  1.3475  0.1964
  595MOL0     C80256   8.613  10.817   9.808  0.6505 -0.2245 -0.0189
  595MOL0     C80257   8.594  10.911   9.911  0.6401 -0.2182  0.4216
  595MOL0     H80258   8.492  11.062  10.359 -0.7443 -2.3984  2.3811
  595MOL0     H80259   8.432  11.125  10.572  0.9543  0.3476 -0.7841
  595MOL0     H80260   8.047  11.352  10.632 -1.7856 -0.3520  0.6992
  595MOL0     H80261   7.996  11.184  10.654  2.9888 -2.3487  0.9939
  595MOL0     H80262   8.076  11.186  10.882 -0.5650  1.1889  2.2060
  595MOL0     H80263   8.145  11.346  10.873 -1.7175  3.5465 -1.3102
  595MOL0     H80264   7.861  11.340  10.797 -0.6690 -0.1280  1.1416
  595MOL0     H80265   7.908  11.334  10.968 -0.4030  1.1011  0.4519
  595MOL0     H80266   8.015  11.540  10.755  1.1078 -2.8338  0.6702
  595MOL0     H80267   7.865  11.555  10.860 -0.5600 -1.7545 -0.5463
  595MOL0     H80268   7.970  11.567  11.062  1.7736 -0.5685  1.2696
  595MOL0     H80269   8.131  11.533  10.980  0.8809  0.9150 -1.6337
  595MOL0     H80270   8.107  11.771  10.864 -3.1493 -2.2497 -3.4048
  595MOL0     H80271   7.954  11.783  10.935 -0.4667 -0.5354  0.8402
  595MOL0     H80272   8.051  11.789  11.167  1.6857  0.4634  2.0997
  595MOL0     H80273   8.197  11.729  11.122 -0.0421  2.5149  3.7785
  595MOL0     H80274   8.246  11.936  10.981 -1.5707  1.5076 -1.4126
  595MOL0     H80275   8.207  11.957  11.156  1.4610 -3.0873 -0.5998
  595MOL0     H80276   8.195  12.163  10.885  1.2974 -1.6406  1.4530
  595MOL0     H80277   7.904  12.427  10.946 -0.3236 -1.6685  1.8209
  595MOL0     H80278   8.061  12.402  10.863  0.0252  0.5629  2.8930
  595MOL0     H80279   7.845  12.429  10.702  3.1718  0.6045  0.3447
  595MOL0     H80280   7.803  12.269  10.751 -0.0537  0.3190 -1.4633
  595MOL0     H80281   8.009  12.168  10.662  0.1740 -0.5413 -1.7476
  595MOL0     H80282   8.077  12.329  10.632  0.1930 -0.4925  3.9407
  595MOL0     H80283   7.917  12.351  10.448 -0.5842  0.3825  0.9968
  595MOL0     H80284   7.813  12.231  10.506 -1.8995  5.1047  1.4162
  595MOL0     H80285   7.792  12.258  10.259 -0.0696  1.0796 -1.3589
  595MOL0     H80286   7.794  12.394   9.977 -0.0360  0.4809  1.2167
  595MOL0     H80287   7.752  12.229   9.911 -1.7197 -0.8713  0.6102
  595MOL0     H80288   7.684  12.290  10.060 -0.3716 -0.5722 -2.8553
  595MOL0     H80289   8.003  12.238   9.591 -0.1422 -0.5729 -1.2601
  595MOL0     H80290   8.071  12.281   9.365 -1.4125  0.2213  1.0583
  595MOL0     H80291   8.144  12.414   9.195 -0.0660  1.7787 -1.1709
  595MOL0     H80292   8.217  12.536   9.294 -3.6748 -1.9588  1.7463
  595MOL0     H80293   8.368  12.431   9.058 -4.2815 -4.0344  0.2677
  595MOL0     H80294   8.244  12.564   9.033  0.6104  2.8028  1.2372
  595MOL0     H80295   8.447  12.627   9.227  2.2153 -1.7359 -0.9592
  595MOL0     H80296   8.352  12.722   9.103  0.0618 -0.3020 -0.4668
  595MOL0     H80297   8.601  12.540   9.079  3.6971  1.8668  0.8820
  595MOL0     H80298   8.506  12.600   8.939  0.2774 -1.4852 -0.0928
  595MOL0     H80299   8.586  12.848   9.057 -2.0062 -1.0842 -0.0134
  595MOL0     H80300   8.710  12.745   8.971  0.5311  0.9123 -0.2138
  595MOL0     H80301   8.729  12.638   9.207  1.2426 -0.1760 -0.2847
  595MOL0     H80302   8.828  12.783   9.167  0.5839  0.8979  3.1895
  595MOL0     H80303   8.574  12.818   9.325  0.0048 -1.3301 -0.3269
  595MOL0     H80304   8.705  12.926   9.295 -0.5642 -0.4773 -1.4613
  595MOL0     H80305   8.748  12.853   9.504 -3.9257 -2.1374  1.4317
  595MOL0     H80306   8.853  12.741   9.403 -0.5875 -2.8607  1.5164
  595MOL0     H80307   8.474  12.314   9.480 -0.3668  2.6067 -0.5670
  595MOL0     H80308   8.416  12.268   9.721 -1.8679  0.2823  3.1664
  595MOL0     H80309   8.226  12.173  10.024 -0.4637 -1.2073 -0.4024
  595MOL0     H80310   8.192  12.145  10.285  1.4319  2.3159 -1.6092
  595MOL0     H80311   8.047  11.243  10.403 -0.1819  1.9322  0.6386
  595MOL0     H80312   8.115  11.187  10.189  2.9066  0.7490 -1.9246
  595MOL0     H80313   8.285  10.835  10.018  0.9452  1.7773  0.6951
  595MOL0     H80314   8.290  10.695   9.823 -0.2915 -0.1867 -0.1490
  595MOL0     H80315   8.332  10.594   9.626  0.6689  0.9469  1.5336
  595MOL0     H80316   8.461  10.498   9.557  0.4441  0.7491 -0.0839
  595MOL0     H80317   8.396  10.483   9.852 -3.6273  0.8770 -0.8753
  595MOL0     H80318   8.535  10.408   9.765  0.0397  0.6832 -1.5944
  595MOL0     H80319   8.343  10.254   9.814  1.3049  0.2731  0.2905
  595MOL0     H80320   8.369  10.263   9.641  1.2453  0.8881  0.9300
  595MOL0     H80321   8.165  10.436   9.761  1.6296  0.6285  0.5178
  595MOL0     H80322   8.117  10.286   9.687 -1.8640  2.4354  0.6347
  595MOL0     H80323   8.119  10.504   9.348  3.8541  1.9955 -1.1573
  595MOL0     H80324   8.709  10.819   9.758  0.4548 -2.6995 -0.5840
  595MOL0     H80325   8.677  10.976   9.936  0.9449  0.3313 -1.7886
  596MOL0     O80326   1.039   2.273   9.516 -0.1268 -0.2026 -0.6019
  596MOL0     C80327   1.139   2.261   9.590 -0.3937 -0.2206 -0.1552
  596MOL0     O80328   1.142   2.287   9.729  0.8183  0.2214  0.5482
  596MOL0     C80329   1.027   2.330   9.787  0.0233 -0.7116 -0.5716
  596MOL0     C80330   0.943   2.425   9.732 -0.2072 -0.6752  0.1115
  596MOL0     C80331   0.825   2.468   9.795 -0.0384 -0.2596 -0.6205
  596MOL0     C80332   0.790   2.419   9.924  0.4574  0.0253  0.2184
  596MOL0     O80333   0.679   2.470   9.986  0.6514 -0.7241 -0.9104
  596MOL0     C80334   0.597   2.390  10.060  0.3396 -0.2884 -0.5710
  596MOL0     C80335   0.460   2.390  10.001 -0.0512 -0.7162  1.1655
  596MOL0     C80336   0.442   2.311   9.875 -0.7706  0.6066  0.1398
  596MOL0     C80337   0.300   2.297   9.832 -0.0192 -1.0223 -0.3370
  596MOL0     C80338   0.211   2.423   9.832 -0.4245  0.5008  0.0748
  596MOL0     C80339   0.231   2.510   9.712 -0.6292 -0.0356 -0.3460
  596MOL0     C80340   0.148   2.473   9.591 -0.2353  0.2706 -0.4411
  596MOL0     C80341   0.192   2.557   9.466 -0.2212 -0.8954 -0.7458
  596MOL0     N80342   0.096   2.531   9.354 -0.0414  0.5357 -0.1612
  596MOL0     C80343   0.008   2.624   9.315  1.0118 -0.6266 -0.5328
  596MOL0     C80344  -0.064   2.566   9.221  0.8361  0.6365 -0.3865
  596MOL0     C80345  -0.185   2.632   9.150  0.2133  0.1932  0.0914
  596MOL0     C80346  -0.309   2.534   9.123  0.0971 -0.1723 -0.5359
  596MOL0     C80347  -0.395   2.597   9.011  0.2834  1.0154 -0.5311
  596MOL0     C80348  -0.345   2.567   8.865  0.4385  0.1142  0.1748
  596MOL0     O80349  -0.463   2.580   8.783 -0.6083 -1.0759 -0.3210
  596MOL0     C80350  -0.539   2.478   8.735 -0.3598 -0.1153  0.6130
  596MOL0     C80351  -0.668   2.512   8.676  0.6000 -0.0403 -0.3068
  596MOL0     C80352  -0.761   2.415   8.636 -0.3784 -0.7353 -0.3408
  596MOL0     C80353  -0.898   2.462   8.597 -0.4387  0.0121  0.4310
  596MOL0     C80354  -0.733   2.279   8.642 -0.2854  0.5098  0.3685
  596MOL0     C80355  -0.823   2.164   8.610 -0.0160 -0.1095  0.7861
  596MOL0     O80356  -0.769   2.036   8.644 -0.1587 -1.5352  0.9354
  596MOL0     C80357  -0.830   1.916   8.635  0.4502  0.0752  0.2681
  596MOL0     C80358  -0.966   1.887   8.644  0.1577  0.2392 -0.1140
  596MOL0     C80359  -1.020   1.767   8.607  0.1286 -0.4444 -0.6787
  596MOL0     C80360  -0.941   1.652   8.584 -0.1819 -0.5297 -1.2251
  596MOL0     O80361  -0.998   1.529   8.551 -0.9975 -0.3482 -0.0114
  596MOL0     C80362  -0.935   1.451   8.440  0.9472 -1.0989  0.6504
  596MOL0     C80363  -1.042   1.347   8.382  0.4178 -0.4416 -0.5521
  596MOL0     C80364  -1.124   1.280   8.497  0.6480  0.2085  1.0830
  596MOL0     C80365  -1.223   1.179   8.447  0.1320 -0.1967 -0.2961
  596MOL0     C80366  -1.318   1.124   8.556  0.3218 -0.4776 -0.8192
  596MOL0     C80367  -1.389   1.000   8.521  0.1204 -0.3806  0.4413
  596MOL0     C80368  -1.495   0.963   8.619 -0.4457 -0.1867 -0.0454
  596MOL0     C80369  -1.506   0.819   8.657 -0.4835 -0.4311 -0.3304
  596MOL0    Cl80370  -1.345   0.763   8.725  0.1682 -0.0081  0.0636
  596MOL0     C80371  -0.803   1.681   8.573  0.7772 -0.3304  0.0563
  596MOL0     C80372  -0.747   1.807   8.602  0.0194 -0.0894  0.4795
  596MOL0     O80373  -0.936   2.181   8.575 -0.1705  0.3401 -0.0344
  596MOL0     C80374  -0.607   2.247   8.689 -0.1942  0.4051  0.0786
  596MOL0     C80375  -0.513   2.334   8.742 -1.0841 -0.2157  0.8218
  596MOL0     N80376  -0.035   2.429   9.223 -0.0464 -0.2921 -0.3965
  596MOL0     N80377   0.064   2.406   9.305 -1.0553  0.3923  0.6514
  596MOL0     C80378   0.879   2.326   9.980  0.2122  0.4307  0.2606
  596MOL0     C80379   0.998   2.292   9.914 -1.0950  0.3326  0.6699
  596MOL0     C80380   1.266   2.217   9.523 -0.7281 -0.6116 -0.5342
  596MOL0     C80381   1.383   2.197   9.605 -0.2614  0.9467  0.1149
  596MOL0     C80382   1.503   2.151   9.550 -0.2716 -0.3619 -0.5747
  596MOL0     C80383   1.510   2.117   9.415 -0.9491 -0.0267  0.7722
  596MOL0     O80384   1.616   2.042   9.367 -0.3497  0.1320  0.3496
  596MOL0     C80385   1.607   1.968   9.245 -0.4353 -0.5851 -0.1317
  596MOL0     C80386   1.721   1.865   9.239  0.6828 -1.3346 -0.5318
  596MOL0     C80387   1.860   1.929   9.194 -0.2361 -0.0700 -1.1644
  596MOL0     C80388   1.963   1.815   9.183  0.2828  0.4008 -0.3314
  596MOL0     C80389   1.950   1.735   9.062 -0.8457  0.2318  0.4613
  596MOL0     C80390   1.922   1.691   8.953  0.1328  0.2674 -0.5358
  596MOL0     C80391   1.398   2.138   9.333 -0.1609 -0.9711  0.0499
  596MOL0     C80392   1.280   2.203   9.388 -0.3029 -0.3015 -0.0155
  596MOL0     H80393   0.977   2.474   9.641 -0.1548 -1.0470 -0.0723
  596MOL0     H80394   0.757   2.542   9.755  0.7751  3.1102  3.5080
  596MOL0     H80395   0.635   2.288  10.063 -0.3826 -0.5769 -1.0084
  596MOL0     H80396   0.592   2.437  10.158 -0.4586 -0.2017 -0.6465
  596MOL0     H80397   0.395   2.351  10.079  0.8653 -3.9527  0.4341
  596MOL0     H80398   0.441   2.498   9.990  3.1206 -0.1313  0.4408
  596MOL0     H80399   0.504   2.356   9.797  2.0064  1.9068  2.8716
  596MOL0     H80400   0.487   2.212   9.886  0.2367  1.0709  0.2648
  596MOL0     H80401   0.288   2.251   9.734 -1.4556  0.2752 -0.8206
  596MOL0     H80402   0.254   2.225   9.901 -1.7988  1.5337  1.3375
  596MOL0     H80403   0.109   2.386   9.825 -0.0489 -0.6900  0.6352
  596MOL0     H80404   0.229   2.477   9.926 -1.3250 -0.2798  0.7068
  596MOL0     H80405   0.207   2.615   9.733  1.4772 -0.0426  2.8443
  596MOL0     H80406   0.339   2.516   9.694 -0.6716  1.0267 -0.2907
  596MOL0     H80407   0.159   2.368   9.561 -1.8450  0.4218 -1.7096
  596MOL0     H80408   0.043   2.485   9.617 -0.3533 -0.8090 -0.3602
  596MOL0     H80409   0.293   2.538   9.430  0.3841  2.0795 -0.8008
  596MOL0     H80410   0.185   2.663   9.491  2.2151 -0.7249 -0.6110
  596MOL0     H80411   0.001   2.722   9.362  0.8636 -1.1227  0.5079
  596MOL0     H80412  -0.215   2.717   9.212 -0.1520 -0.1885  0.4434
  596MOL0     H80413  -0.154   2.663   9.050  1.3403 -0.8304  0.1064
  596MOL0     H80414  -0.372   2.532   9.212 -1.4957 -1.6426 -1.6268
  596MOL0     H80415  -0.275   2.431   9.107 -2.4142 -1.2368  0.5147
  596MOL0     H80416  -0.414   2.704   9.024  2.3102  1.5105 -1.1826
  596MOL0     H80417  -0.496   2.558   9.023  1.3849 -2.2999 -1.1031
  596MOL0     H80418  -0.305   2.469   8.837 -1.0081 -0.1800 -0.9560
  596MOL0     H80419  -0.260   2.633   8.843  0.4473 -0.6506 -2.3830
  596MOL0     H80420  -0.702   2.615   8.666 -1.0191 -0.7519 -3.3610
  596MOL0     H80421  -0.933   2.423   8.501  1.5666 -2.5333  0.6094
  596MOL0     H80422  -0.978   2.435   8.666  0.7600  0.9853  2.2666
  596MOL0     H80423  -0.893   2.570   8.585  0.5473 -0.2064 -1.5445
  596MOL0     H80424  -1.036   1.967   8.666 -0.2240 -0.4317  1.2552
  596MOL0     H80425  -1.128   1.753   8.605 -0.3848  2.7021  0.3177
  596MOL0     H80426  -0.901   1.509   8.354  0.8445  2.8796  3.0790
  596MOL0     H80427  -0.846   1.404   8.484  3.3027  2.7131  0.3467
  596MOL0     H80428  -1.106   1.411   8.319  3.2900  0.7930 -2.4667
  596MOL0     H80429  -0.989   1.272   8.322  2.0609 -1.8071  2.4277
  596MOL0     H80430  -1.186   1.347   8.557 -0.3881  0.0146  0.2724
  596MOL0     H80431  -1.049   1.229   8.559  0.1436 -1.0170  0.7292
  596MOL0     H80432  -1.278   1.206   8.357 -0.3148 -0.3741 -0.0802
  596MOL0     H80433  -1.166   1.088   8.425  0.5612 -0.5748  2.0262
  596MOL0     H80434  -1.389   1.200   8.588 -1.4219 -2.1870 -0.4670
  596MOL0     H80435  -1.249   1.097   8.636  0.9695 -0.0810 -1.2357
  596MOL0     H80436  -1.438   1.019   8.425 -0.4827 -3.7362 -0.0281
  596MOL0     H80437  -1.321   0.917   8.503 -0.1666 -0.3830 -0.6763
  596MOL0     H80438  -1.588   1.001   8.575 -0.1747  2.1831  1.2344
  596MOL0     H80439  -1.490   1.030   8.705 -2.0468  0.7668 -0.6361
  596MOL0     H80440  -1.538   0.760   8.571  1.0250  2.3391 -3.0037
  596MOL0     H80441  -1.582   0.806   8.735 -0.2964 -2.4830 -0.4474
  596MOL0     H80442  -0.743   1.590   8.566  1.6059  0.0878  1.3658
  596MOL0     H80443  -0.641   1.831   8.612  0.3727 -1.7537  1.0530
  596MOL0     H80444  -0.580   2.143   8.703 -2.1422 -0.2728 -0.7346
  596MOL0     H80445  -0.419   2.301   8.785 -1.1788 -0.6027  0.7303
  596MOL0     H80446   0.861   2.305  10.085  0.8963  0.1055  0.3164
  596MOL0     H80447   1.053   2.213   9.965 -0.3197  1.3350  1.4273
  596MOL0     H80448   1.364   2.222   9.708  0.2273 -0.7611  0.6607
  596MOL0     H80449   1.592   2.141   9.611  0.2589  0.9462 -1.1199
  596MOL0     H80450   1.510   1.917   9.247 -0.0090 -1.4662 -0.9285
  596MOL0     H80451   1.612   2.036   9.159 -0.2743  1.0797  1.1429
  596MOL0     H80452   1.682   1.788   9.171  1.8522 -1.8127 -0.6792
  596MOL0     H80453   1.729   1.817   9.336  0.8641  2.3876  1.4955
  596MOL0     H80454   1.889   2.008   9.264 -0.0330 -1.5053  0.4251
  596MOL0     H80455   1.848   1.993   9.106  0.5445 -1.7058 -2.5224
  596MOL0     H80456   1.952   1.749   9.270 -0.6588  1.4755  0.3940
  596MOL0     H80457   2.066   1.852   9.179  1.0282 -1.4557  0.3595
  596MOL0     H80458   1.895   1.643   8.861  0.5936 -0.5104 -0.2769
  596MOL0     H80459   1.389   2.108   9.229  1.7472 -3.0611  0.4219
  596MOL0     H80460   1.193   2.224   9.326  0.6212  0.1131 -1.2198
  597MOL0     O80461   8.495  10.104   9.156  0.0689  0.2429  0.1035
  597MOL0     C80462   8.447  10.008   9.222 -0.5230 -0.8115 -0.3840
  597MOL0     O80463   8.323   9.996   9.272  0.7997 -0.1865 -0.4677
  597MOL0     C80464   8.231  10.064   9.192 -0.2595 -0.3129 -0.1174
  597MOL0     C80465   8.233  10.200   9.182  0.3881 -0.7791 -0.5213
  597MOL0     C80466   8.136  10.273   9.103 -0.5781 -1.2867 -0.6415
  597MOL0     C80467   8.040  10.204   9.026 -0.0544 -0.5285 -0.6851
  597MOL0     O80468   7.980  10.277   8.929  0.6343 -0.2742 -0.0400
  597MOL0     C80469   7.929  10.196   8.819  0.0718  0.4350  0.0336
  597MOL0     C80470   7.893  10.303   8.720  0.5597  0.2333  0.1685
  597MOL0     C80471   7.783  10.395   8.771 -0.0560  0.0602 -0.6164
  597MOL0     C80472   7.666  10.429   8.669 -0.3349 -0.3776 -0.1358
  597MOL0     C80473   7.597  10.295   8.613 -0.1717  0.0011  0.0198
  597MOL0     C80474   7.476  10.336   8.523  0.3281  0.4616  0.5782
  597MOL0     C80475   7.419  10.205   8.462  0.4031 -0.2399 -0.8995
  597MOL0     C80476   7.284  10.226   8.378  0.0520  0.2492  0.5474
  597MOL0     N80477   7.304  10.316   8.262  0.1383  0.2212  0.0979
  597MOL0     C80478   7.393  10.307   8.166  0.5244  0.4091  0.1588
  597MOL0     C80479   7.375  10.426   8.098 -1.1516 -0.0250  1.3952
  597MOL0     C80480   7.444  10.467   7.969  0.6621 -1.2827  0.1253
  597MOL0     C80481   7.549  10.579   7.994 -0.3437  0.9640 -0.6880
  597MOL0     C80482   7.624  10.629   7.876 -0.6634  0.4483 -0.5322
  597MOL0     C80483   7.722  10.526   7.817  0.4644  0.6195  0.4843
  597MOL0     O80484   7.807  10.470   7.915  0.2263  0.0167  0.3175
  597MOL0     C80485   7.902  10.376   7.878 -0.1194 -0.6823 -0.9852
  597MOL0     C80486   8.016  10.371   7.966  0.4248  0.2217  0.4228
  597MOL0     C80487   8.128  10.298   7.922  0.1453  0.5190 -0.8502
  597MOL0     C80488   8.241  10.284   8.016 -0.6346 -0.2298  0.4340
  597MOL0     C80489   8.122  10.214   7.805  1.3109 -0.9644  0.3759
  597MOL0     C80490   8.229  10.123   7.764 -0.4757  0.5500  0.1149
  597MOL0     O80491   8.358  10.185   7.768  0.1012  0.0111  0.3403
  597MOL0     C80492   8.470  10.098   7.775  0.2064  0.8480  0.9887
  597MOL0     C80493   8.455   9.976   7.845  0.0857  0.8294  0.4480
  597MOL0     C80494   8.573   9.897   7.884 -0.1960  0.4274 -0.3659
  597MOL0     C80495   8.698   9.932   7.833 -0.3619  0.4732 -0.5508
  597MOL0     O80496   8.802   9.848   7.871  0.0347  0.2450  0.0370
  597MOL0     C80497   8.824   9.743   7.775  0.7701  0.1815  0.4302
  597MOL0     C80498   8.940   9.656   7.821  0.3884 -0.9122  0.5391
  597MOL0     C80499   8.908   9.532   7.899  0.0367  1.0677 -0.0868
  597MOL0     C80500   8.821   9.570   8.017  0.1571  0.0038 -0.6362
  597MOL0     C80501   8.806   9.453   8.116  0.0069 -0.2511  0.0361
  597MOL0     C80502   8.899   9.447   8.231 -0.2802 -0.9040 -1.1038
  597MOL0     C80503   8.863   9.547   8.336  0.1487 -0.7023 -0.9772
  597MOL0     C80504   8.980   9.580   8.434  0.1396 -0.2009 -0.7285
  597MOL0    Cl80505   8.982   9.472   8.573  0.0218  0.3675 -0.3239
  597MOL0     C80506   8.711  10.049   7.754 -0.7011  0.1464  0.1395
  597MOL0     C80507   8.601  10.137   7.742 -1.0050  0.0070  0.4924
  597MOL0     O80508   8.203  10.016   7.701  0.0577 -0.0548 -0.1738
  597MOL0     C80509   7.999  10.209   7.734  0.2619 -0.0028  0.2918
  597MOL0     C80510   7.895  10.296   7.766  0.1543  0.9200 -0.0757
  597MOL0     N80511   7.271  10.500   8.152  0.4657 -0.1336 -0.2295
  597MOL0     N80512   7.246  10.439   8.268 -0.8916 -0.0814  0.0444
  597MOL0     C80513   8.038  10.061   9.041 -0.1077  0.4670 -0.0891
  597MOL0     C80514   8.139   9.987   9.116 -0.2311 -0.4107 -0.3697
  597MOL0     C80515   8.545   9.894   9.251  0.0595 -0.3786  0.3953
  597MOL0     C80516   8.681   9.912   9.219 -0.3032  0.3069  0.0461
  597MOL0     C80517   8.763   9.801   9.235  0.1563  0.3895  0.1779
  597MOL0     C80518   8.718   9.680   9.277 -0.6489 -0.2025  0.9379
  597MOL0     O80519   8.801   9.571   9.284 -0.0247 -0.1331  0.3647
  597MOL0     C80520   8.870   9.538   9.157  0.6547 -0.2405  0.0654
  597MOL0     C80521   8.872   9.390   9.124 -0.0025 -0.0233  0.2357
  597MOL0     C80522   8.734   9.332   9.083  0.1912 -0.0270  0.6183
  597MOL0     C80523   8.744   9.212   8.978  0.8948  0.6085  0.7899
  597MOL0     C80524   8.779   9.098   9.057 -0.4232  0.2877  0.3523
  597MOL0     C80525   8.797   9.009   9.131 -0.1362 -0.6648  0.0030
  597MOL0     C80526   8.588   9.667   9.305 -0.4773  0.0535  0.0040
  597MOL0     C80527   8.501   9.776   9.306 -0.7080  0.0583  0.0934
  597MOL0     H80528   8.311  10.267   9.217 -0.6481 -0.7845  2.0010
  597MOL0     H80529   8.155  10.377   9.077 -1.9097 -1.5033 -2.6788
  597MOL0     H80530   8.010  10.126   8.796 -1.5881 -1.7296  0.4704
  597MOL0     H80531   7.846  10.130   8.846 -0.7705  2.7545  3.9673
  597MOL0     H80532   7.985  10.359   8.697  3.4916 -3.9518  0.4837
  597MOL0     H80533   7.868  10.257   8.624  4.3140 -2.1842  0.1188
  597MOL0     H80534   7.743  10.347   8.861  1.7978  0.5017  0.4897
  597MOL0     H80535   7.817  10.482   8.828  1.7870 -1.7966  1.2909
  597MOL0     H80536   7.588  10.482   8.724  0.0469 -1.1107  1.1573
  597MOL0     H80537   7.700  10.489   8.583  1.9821 -1.1848  0.1278
  597MOL0     H80538   7.660  10.228   8.553 -2.1850  0.6477 -3.0390
  597MOL0     H80539   7.575  10.245   8.708  0.8689  2.5398  1.7278
  597MOL0     H80540   7.399  10.391   8.577 -0.9230  2.0305 -2.5426
  597MOL0     H80541   7.507  10.408   8.447  0.6090  0.1251  0.3730
  597MOL0     H80542   7.499  10.147   8.416  3.7918  1.6437  1.9988
  597MOL0     H80543   7.391  10.146   8.550  2.2967  2.1648  1.5250
  597MOL0     H80544   7.211  10.273   8.444  0.7697  0.8135  0.9559
  597MOL0     H80545   7.249  10.125   8.354 -0.0697 -0.2125  2.4972
  597MOL0     H80546   7.462  10.225   8.144  0.2998  0.6190 -1.5240
  597MOL0     H80547   7.506  10.383   7.938  1.5283 -0.3859 -0.6222
  597MOL0     H80548   7.373  10.484   7.887  3.9849 -1.0992 -2.9722
  597MOL0     H80549   7.616  10.543   8.073  0.1053  0.3936 -1.3129
  597MOL0     H80550   7.505  10.657   8.057 -0.1784 -1.4398  2.6452
  597MOL0     H80551   7.674  10.717   7.916  0.0121 -0.2040  0.0705
  597MOL0     H80552   7.542  10.670   7.816 -1.1058 -0.0631 -0.2812
  597MOL0     H80553   7.776  10.576   7.737 -2.7970 -0.1576 -2.4725
  597MOL0     H80554   7.667  10.442   7.772 -0.1070  1.1281  0.2144
  597MOL0     H80555   8.032  10.428   8.057  2.2967 -0.4922  0.5905
  597MOL0     H80556   8.328  10.340   7.980 -0.5836  0.0127  0.9272
  597MOL0     H80557   8.219  10.339   8.108  4.3225 -1.4402  2.7183
  597MOL0     H80558   8.268  10.179   8.034  0.0260 -0.0277  0.6670
  597MOL0     H80559   8.360   9.939   7.884  1.4522 -0.6214  2.6287
  597MOL0     H80560   8.557   9.810   7.945 -1.3462 -0.4644 -1.8653
  597MOL0     H80561   8.736   9.680   7.759 -0.8090  1.8114  2.2251
  597MOL0     H80562   8.872   9.775   7.682  1.6070 -0.1480  0.7394
  597MOL0     H80563   8.987   9.609   7.733 -0.3675  0.2032 -0.4991
  597MOL0     H80564   9.008   9.714   7.884 -2.8939  1.0039  2.5571
  597MOL0     H80565   9.001   9.485   7.930  1.3079  2.4648 -1.6224
  597MOL0     H80566   8.838   9.468   7.843  0.2544  1.0966 -0.3972
  597MOL0     H80567   8.869   9.652   8.072  0.1108 -0.5520  0.2548
  597MOL0     H80568   8.729   9.599   7.967 -0.0853 -4.4739 -3.3535
  597MOL0     H80569   8.818   9.371   8.044 -1.1825 -0.9751  0.6256
  597MOL0     H80570   8.708   9.444   8.164  0.3361  1.3284  1.1058
  597MOL0     H80571   8.902   9.350   8.280 -5.6022 -0.8885 -0.1579
  597MOL0     H80572   8.996   9.474   8.188 -0.0837  1.8532  0.7961
  597MOL0     H80573   8.780   9.509   8.397  0.7344 -1.3684 -0.5849
  597MOL0     H80574   8.834   9.644   8.295 -1.8881 -0.5873  0.5863
  597MOL0     H80575   8.970   9.681   8.475 -1.6715 -0.7876  0.4283
  597MOL0     H80576   9.079   9.560   8.393  0.8803  1.1389  0.3168
  597MOL0     H80577   8.814  10.072   7.731 -0.1298 -1.2258  1.2133
  597MOL0     H80578   8.618  10.232   7.693 -0.0774  0.5803  1.8657
  597MOL0     H80579   7.981  10.137   7.655 -1.4258  1.7935 -1.0424
  597MOL0     H80580   7.804  10.274   7.710 -0.5880 -1.1440  1.7859
  597MOL0     H80581   7.977   9.997   8.978 -2.2329  1.8115  0.5217
  597MOL0     H80582   8.148   9.879   9.110  1.3613 -0.7681  4.2448
  597MOL0     H80583   8.712  10.008   9.179 -1.8940  0.7174 -0.2967
  597MOL0     H80584   8.869   9.816   9.213  1.1283 -3.9807  0.9710
  597MOL0     H80585   8.821   9.585   9.072  2.9506  3.4724  0.5648
  597MOL0     H80586   8.969   9.583   9.162 -0.0769  1.8343 -2.0911
  597MOL0     H80587   8.913   9.348   9.216  2.5485  1.6285 -0.0506
  597MOL0     H80588   8.945   9.383   9.042  1.6438  2.3075  1.3944
  597MOL0     H80589   8.683   9.410   9.025 -0.4094 -1.3643 -0.7173
  597MOL0     H80590   8.692   9.289   9.174 -2.1390 -1.9489 -1.2238
  597MOL0     H80591   8.821   9.243   8.905 -1.3298  2.9053 -0.7488
  597MOL0     H80592   8.649   9.191   8.928  1.0805  1.0862  0.2194
  597MOL0     H80593   8.818   8.923   9.192  0.9118  0.1346  0.8121
  597MOL0     H80594   8.551   9.567   9.329 -2.3141  0.2438 -1.7918
  597MOL0     H80595   8.399   9.755   9.334 -0.5331 -1.2877 -0.2121
  598MOL0     O80596   4.036  10.232   0.083 -0.5015 -0.2648  0.6807
  598MOL0     C80597   4.119  10.135   0.095 -0.7001  0.7606 -0.3567
  598MOL0     O80598   4.085  10.006   0.064  0.3935  0.3733 -0.4052
  598MOL0     C80599   3.954   9.959   0.036  0.4280 -0.1785  0.2261
  598MOL0     C80600   3.952   9.825   0.003  0.5764  0.4118  0.9111
  598MOL0     C80601   3.838   9.771  -0.066  0.7457 -0.6991 -0.1836
  598MOL0     C80602   3.715   9.834  -0.075 -0.6327 -1.2222  0.3205
  598MOL0     O80603   3.598   9.798  -0.134  0.2401 -0.6494 -0.0479
  598MOL0     C80604   3.582   9.654  -0.122  0.6159  0.7035  0.6106
  598MOL0     C80605   3.446   9.605  -0.172  0.3201 -0.0169 -0.8062
  598MOL0     C80606   3.339   9.681  -0.099  0.0902 -1.3088 -0.1212
  598MOL0     C80607   3.210   9.624  -0.131 -0.7286 -0.8127 -0.4085
  598MOL0     C80608   3.099   9.693  -0.046 -0.1066  0.2349 -0.1671
  598MOL0     C80609   2.971   9.609  -0.028  0.1811  0.9688  0.3542
  598MOL0     C80610   2.989   9.500   0.081 -0.2911 -0.0970  0.3351
  598MOL0     C80611   2.862   9.456   0.142  0.2688 -0.0095 -0.5579
  598MOL0     N80612   2.757   9.412   0.057 -0.1160  0.6253 -0.0561
  598MOL0     C80613   2.681   9.485  -0.034  0.1255 -0.9132  0.2237
  598MOL0     C80614   2.605   9.392  -0.093  1.0736  0.2419  1.0789
  598MOL0     C80615   2.509   9.418  -0.204 -0.1308  0.4033  0.1225
  598MOL0     C80616   2.569   9.410  -0.340 -0.7477  0.9146  0.4974
  598MOL0     C80617   2.561   9.272  -0.397  0.4366  1.0577  0.1635
  598MOL0     C80618   2.608   9.262  -0.535 -0.8760 -0.6409  0.7146
  598MOL0     O80619   2.499   9.298  -0.618  0.0625 -0.2301 -0.2706
  598MOL0     C80620   2.498   9.283  -0.755  0.3998  0.5905 -0.3300
  598MOL0     C80621   2.602   9.229  -0.830 -0.7456 -0.0473 -0.1550
  598MOL0     C80622   2.595   9.207  -0.970 -0.3379 -0.5500  0.0842
  598MOL0     C80623   2.720   9.153  -1.040  0.2116 -0.3304  0.4533
  598MOL0     C80624   2.468   9.240  -1.031 -0.5997 -0.4993 -0.3667
  598MOL0     C80625   2.425   9.214  -1.168 -0.6276  0.5087  0.4081
  598MOL0     O80626   2.295   9.199  -1.198  0.2540 -0.1998  0.6047
  598MOL0     C80627   2.251   9.173  -1.329 -1.1984  0.3151 -0.3843
  598MOL0     C80628   2.328   9.112  -1.432 -0.1175  0.1301 -0.1001
  598MOL0     C80629   2.264   9.087  -1.552 -0.1927 -0.4018 -0.2890
  598MOL0     C80630   2.125   9.121  -1.584 -0.5212 -0.0921 -0.0869
  598MOL0     O80631   2.077   9.115  -1.713 -0.7488  0.0206 -0.1632
  598MOL0     C80632   2.098   8.994  -1.790  0.4726  0.1110 -0.7268
  598MOL0     C80633   1.993   8.887  -1.750 -0.1998  0.1553  0.4118
  598MOL0     C80634   1.853   8.929  -1.779 -0.4316  0.6292  0.1156
  598MOL0     C80635   1.769   8.816  -1.826 -0.8448  0.6243 -0.3976
  598MOL0     C80636   1.626   8.854  -1.851 -0.3562  0.3787  0.1215
  598MOL0     C80637   1.597   8.970  -1.943  0.2319 -0.0026 -0.5534
  598MOL0     C80638   1.453   8.947  -1.997 -0.3954 -0.8316 -0.0199
  598MOL0     C80639   1.404   9.077  -2.066  0.1367  0.0938  0.0672
  598MOL0    Cl80640   1.230   9.074  -2.096  0.3004 -0.4953  0.1021
  598MOL0     C80641   2.054   9.184  -1.472 -0.3367  0.7413  0.5752
  598MOL0     C80642   2.115   9.205  -1.354  0.2630 -0.6204  0.6508
  598MOL0     O80643   2.516   9.211  -1.248  0.8112  0.1376  0.4278
  598MOL0     C80644   2.368   9.295  -0.959 -0.0582 -0.6784 -0.9123
  598MOL0     C80645   2.382   9.308  -0.824  0.0982 -0.5083 -0.2180
  598MOL0     N80646   2.621   9.275  -0.016  0.0040  0.1268  0.3580
  598MOL0     N80647   2.705   9.283   0.071  0.1874  1.0193  0.5693
  598MOL0     C80648   3.714   9.966  -0.033 -0.7494 -0.4066 -0.2946
  598MOL0     C80649   3.829  10.034   0.028 -0.7958 -0.4629 -0.4830
  598MOL0     C80650   4.263  10.150   0.131 -0.3434  0.5084  0.4628
  598MOL0     C80651   4.365  10.058   0.110  0.5978  0.1386 -0.6107
  598MOL0     C80652   4.502  10.093   0.125  0.0874  0.3856  0.2271
  598MOL0     C80653   4.537  10.227   0.169 -0.5636 -0.4533 -0.5100
  598MOL0     O80654   4.671  10.280   0.166  0.0622  1.1225 -0.8944
  598MOL0     C80655   4.747  10.178   0.235 -0.3635  0.0190 -0.1900
  598MOL0     C80656   4.855  10.250   0.311 -0.0373  0.8113  0.3264
  598MOL0     C80657   4.804  10.327   0.437 -0.1905 -1.1513  0.5079
  598MOL0     C80658   4.808  10.249   0.571  0.2391  0.1901 -0.4194
  598MOL0     C80659   4.743  10.331   0.672  0.0178 -0.2739  0.4461
  598MOL0     C80660   4.681  10.401   0.749  0.5387  0.3111  0.0445
  598MOL0     C80661   4.433  10.314   0.204  0.1137  0.1620 -0.2821
  598MOL0     C80662   4.298  10.276   0.182  0.9652  0.6644 -0.9414
  598MOL0     H80663   4.042   9.765   0.012  0.3970  0.0824  0.5800
  598MOL0     H80664   3.849   9.671  -0.107 -0.3042 -1.3486  1.0118
  598MOL0     H80665   3.661   9.606  -0.180  0.2868 -1.5861  1.9624
  598MOL0     H80666   3.595   9.623  -0.018  2.2994 -1.4011 -0.1635
  598MOL0     H80667   3.439   9.636  -0.276  1.8409  1.4961 -0.5072
  598MOL0     H80668   3.435   9.498  -0.154 -1.5247  0.4128  0.9459
  598MOL0     H80669   3.348   9.664   0.009  1.2497 -1.9311 -0.3037
  598MOL0     H80670   3.347   9.789  -0.118 -1.7272 -0.9455  0.8991
  598MOL0     H80671   3.195   9.650  -0.236  2.5913 -1.2811 -1.1172
  598MOL0     H80672   3.213   9.514  -0.129 -1.8478 -0.8454  0.8899
  598MOL0     H80673   3.133   9.714   0.056 -3.1847  0.0745  0.9943
  598MOL0     H80674   3.068   9.787  -0.093 -2.6616  0.0379  0.9501
  598MOL0     H80675   2.892   9.683  -0.012  0.9883  1.8597  0.2733
  598MOL0     H80676   2.943   9.551  -0.117  0.5330  0.6512  0.4455
  598MOL0     H80677   3.038   9.414   0.035  0.7567 -0.3750  1.8756
  598MOL0     H80678   3.055   9.548   0.155 -1.4254  1.2106  0.5397
  598MOL0     H80679   2.813   9.535   0.200 -1.0326  0.0346 -1.6732
  598MOL0     H80680   2.886   9.370   0.205 -1.2147  0.0919  0.1820
  598MOL0     H80681   2.699   9.584  -0.075 -1.8961 -0.8515 -0.6459
  598MOL0     H80682   2.437   9.340  -0.179 -0.2008  0.7162  0.9239
  598MOL0     H80683   2.459   9.514  -0.185  1.3002  1.3319 -0.6487
  598MOL0     H80684   2.672   9.446  -0.345  0.7462 -2.6770  1.5993
  598MOL0     H80685   2.511   9.480  -0.401 -3.4718 -1.0962  0.6146
  598MOL0     H80686   2.461   9.230  -0.381  1.7543 -1.9795  1.1140
  598MOL0     H80687   2.636   9.207  -0.350 -3.0032 -1.8721  2.1710
  598MOL0     H80688   2.635   9.160  -0.564  0.2721 -0.4814  1.1591
  598MOL0     H80689   2.688   9.333  -0.559 -3.1555  2.1018  0.6629
  598MOL0     H80690   2.692   9.207  -0.774 -0.7630 -0.3900 -0.2586
  598MOL0     H80691   2.754   9.209  -1.127  3.6870 -3.8527 -0.7312
  598MOL0     H80692   2.800   9.121  -0.973  0.1415 -3.4280 -0.7698
  598MOL0     H80693   2.692   9.059  -1.087 -0.0115  1.1984 -2.7146
  598MOL0     H80694   2.424   9.066  -1.415 -0.5639 -0.4731  0.8818
  598MOL0     H80695   2.327   9.058  -1.636  1.4743  0.4574  0.6236
  598MOL0     H80696   2.073   9.035  -1.888 -0.2699 -0.7137 -0.9012
  598MOL0     H80697   2.201   8.956  -1.793  0.2729 -0.3759 -2.7841
  598MOL0     H80698   2.016   8.802  -1.816  2.5071 -1.7149  3.4822
  598MOL0     H80699   2.004   8.855  -1.646 -4.6410 -1.7628  0.5163
  598MOL0     H80700   1.860   8.998  -1.864 -1.3938 -0.5459 -0.9447
  598MOL0     H80701   1.795   8.969  -1.695  0.8940  1.5731  0.6239
  598MOL0     H80702   1.806   8.779  -1.922 -1.0040 -1.0756  0.1626
  598MOL0     H80703   1.775   8.728  -1.761 -1.5576 -0.9219 -2.3297
  598MOL0     H80704   1.577   8.862  -1.754  1.5658 -3.5948  1.6313
  598MOL0     H80705   1.579   8.768  -1.899  0.4239  1.1439 -2.1927
  598MOL0     H80706   1.607   9.065  -1.889 -0.2134 -0.5082  0.4457
  598MOL0     H80707   1.673   8.973  -2.021  1.8261  0.2559  0.9481
  598MOL0     H80708   1.388   8.926  -1.912 -2.8718 -1.0766 -1.8689
  598MOL0     H80709   1.449   8.864  -2.068  0.8313  2.6003 -4.6354
  598MOL0     H80710   1.446   9.091  -2.166  1.0963  5.3814  0.9275
  598MOL0     H80711   1.427   9.160  -1.998 -3.3055  0.9501  0.4017
  598MOL0     H80712   1.954   9.224  -1.485  0.4299  3.3069  1.9706
  598MOL0     H80713   2.065   9.264  -1.278  0.3589  1.8672 -1.0730
  598MOL0     H80714   2.276   9.318  -1.011  1.7781  1.2893 -3.5198
  598MOL0     H80715   2.297   9.347  -0.768 -2.5335 -2.7745 -2.3154
  598MOL0     H80716   3.614  10.007  -0.032 -0.2164  0.9817  1.0432
  598MOL0     H80717   3.825  10.139   0.054  0.4359 -0.1792 -1.3538
  598MOL0     H80718   4.342   9.961   0.067  2.0482 -0.1944 -0.6916
  598MOL0     H80719   4.576  10.023   0.086 -0.2744 -0.4569  1.0236
  598MOL0     H80720   4.688  10.122   0.308 -4.4451  3.0290 -0.8215
  598MOL0     H80721   4.784  10.107   0.160  2.4209 -1.1185  2.0466
  598MOL0     H80722   4.897  10.317   0.235  0.0993  0.8057  0.3975
  598MOL0     H80723   4.927  10.175   0.345  1.0687  0.8334 -1.7979
  598MOL0     H80724   4.699  10.358   0.431  0.0978 -0.4363 -1.8889
  598MOL0     H80725   4.870  10.412   0.455 -3.1074  0.6859  4.0155
  598MOL0     H80726   4.907  10.227   0.613  0.3935  2.9497  0.8762
  598MOL0     H80727   4.774  10.145   0.566 -1.0098  0.5591  0.1310
  598MOL0     H80728   4.617  10.470   0.799 -0.7736 -0.4742 -0.5070
  598MOL0     H80729   4.444  10.417   0.236 -3.9785  0.1131  2.0192
  598MOL0     H80730   4.211  10.340   0.193  0.7161  0.1696  0.0440
  599MOL0     O80731   7.867   0.978   9.166  0.5844  0.0946  0.6610
  599MOL0     C80732   7.847   1.010   9.284 -0.2866  0.2286  1.8675
  599MOL0     O80733   7.909   1.125   9.338 -0.1983  0.3186  0.5625
  599MOL0     C80734   7.959   1.222   9.244 -0.0708 -0.2208  0.0470
  599MOL0     C80735   8.065   1.291   9.291 -0.6332  0.0989  0.0266
  599MOL0     C80736   8.133   1.379   9.205  0.2278  0.5226  0.3177
  599MOL0     C80737   8.090   1.401   9.075 -0.2935 -1.3041 -0.3362
  599MOL0     O80738   8.147   1.500   8.996 -0.1266 -0.3142 -1.3189
  599MOL0     C80739   8.216   1.604   9.064  0.4614  0.1701  0.0900
  599MOL0     C80740   8.261   1.704   8.956 -0.1090  0.2077  0.0146
  599MOL0     C80741   8.403   1.697   8.906 -0.6914  0.3258 -0.3392
  599MOL0     C80742   8.518   1.671   9.007 -0.2381 -0.2508  0.0349
  599MOL0     C80743   8.527   1.800   9.099  0.2786  0.1063 -0.0650
  599MOL0     C80744   8.605   1.774   9.229 -0.0569  1.0100 -0.2764
  599MOL0     C80745   8.750   1.730   9.203 -0.5964 -0.0034 -0.3380
  599MOL0     C80746   8.837   1.813   9.296 -0.6006  1.0041  0.1255
  599MOL0     N80747   8.842   1.738   9.427  0.8847  0.4511 -0.0559
  599MOL0     C80748   8.753   1.767   9.538  0.2965 -0.2883  0.1549
  599MOL0     C80749   8.767   1.664   9.624  0.0574  0.6604 -0.1626
  599MOL0     C80750   8.677   1.638   9.752 -1.2606 -0.2925  0.2253
  599MOL0     C80751   8.699   1.503   9.823 -0.8629 -0.0091 -0.0620
  599MOL0     C80752   8.578   1.457   9.916 -0.5072  0.1138  0.6249
  599MOL0     C80753   8.545   1.568  10.031  0.0422 -0.2795 -0.4372
  599MOL0     O80754   8.659   1.622  10.102  0.3139  0.0169 -0.5987
  599MOL0     C80755   8.718   1.554  10.208  0.0592  0.2985 -0.7117
  599MOL0     C80756   8.711   1.422  10.233 -0.1592 -0.2259 -0.5739
  599MOL0     C80757   8.758   1.370  10.356 -0.6013  0.2337  0.1194
  599MOL0     C80758   8.709   1.223  10.379 -0.0174  0.0726 -0.0817
  599MOL0     C80759   8.859   1.441  10.430  0.3719  0.0518 -0.9317
  599MOL0     C80760   8.939   1.387  10.541 -1.0080  0.9432  0.4289
  599MOL0     O80761   9.042   1.460  10.591 -0.2280  0.1640 -0.0396
  599MOL0     C80762   9.118   1.390  10.681 -0.0794  0.4708  0.3428
  599MOL0     C80763   9.102   1.417  10.819 -0.0730  0.6569 -0.3049
  599MOL0     C80764   9.177   1.344  10.913  0.4393 -0.7036 -0.3128
  599MOL0     C80765   9.289   1.261  10.877  1.2435 -0.0116  0.3963
  599MOL0     O80766   9.364   1.209  10.979 -0.1444 -0.1900 -1.0911
  599MOL0     C80767   9.479   1.131  10.941  0.7444 -0.0480 -0.1480
  599MOL0     C80768   9.573   1.089  11.050 -0.1954 -0.1462 -0.6039
  599MOL0     C80769   9.505   1.045  11.183 -0.3409 -0.0346  0.3900
  599MOL0     C80770   9.388   0.944  11.153  0.4171  0.1558 -0.8248
  599MOL0     C80771   9.428   0.818  11.073 -0.2794 -0.8980 -0.0632
  599MOL0     C80772   9.312   0.734  11.020  0.4881 -0.0823  1.0241
  599MOL0     C80773   9.338   0.593  10.954  0.0759 -0.7450  0.0165
  599MOL0     C80774   9.419   0.490  11.041  0.2286 -0.0563 -0.1141
  599MOL0    Cl80775   9.319   0.476  11.193  0.0659  0.4107 -0.2303
  599MOL0     C80776   9.298   1.229  10.745  0.3051  0.3492  0.0028
  599MOL0     C80777   9.212   1.291  10.645 -0.0043 -0.8455 -0.6597
  599MOL0     O80778   8.912   1.273  10.584  0.4787  0.0360  0.5782
  599MOL0     C80779   8.890   1.571  10.386 -0.3889  0.2048 -0.4261
  599MOL0     C80780   8.806   1.631  10.288 -1.0311 -0.1815  0.0147
  599MOL0     N80781   8.875   1.581   9.579 -0.6938  0.1444 -0.8333
  599MOL0     N80782   8.917   1.633   9.463  0.2924  0.9683 -0.9047
  599MOL0     C80783   7.983   1.324   9.016  0.1482  0.8342  0.1370
  599MOL0     C80784   7.912   1.245   9.108 -0.0878  0.3045 -0.9002
  599MOL0     C80785   7.764   0.936   9.372 -0.9179  0.2854  0.6263
  599MOL0     C80786   7.782   0.949   9.509  0.2695  0.7973 -0.3675
  599MOL0     C80787   7.700   0.869   9.597 -0.0416 -0.6714  0.8016
  599MOL0     C80788   7.602   0.789   9.541  0.4585 -0.3757  0.3513
  599MOL0     O80789   7.536   0.710   9.633  0.0185 -0.8073  0.0400
  599MOL0     C80790   7.435   0.614   9.575 -0.0863  0.5206 -0.3306
  599MOL0     C80791   7.391   0.515   9.683  0.3782  0.2678  0.4236
  599MOL0     C80792   7.296   0.569   9.784 -0.0146  0.0277 -0.3485
  599MOL0     C80793   7.155   0.561   9.727 -0.1067  0.1073 -0.7796
  599MOL0     C80794   7.080   0.685   9.754  0.6534  0.1120  0.3389
  599MOL0     C80795   7.034   0.798   9.756  0.8166  0.3795 -0.0406
  599MOL0     C80796   7.579   0.784   9.404 -0.2496  0.0705  1.5963
  599MOL0     C80797   7.670   0.845   9.317 -0.5440  0.0524  0.2255
  599MOL0     H80798   8.093   1.267   9.393  3.3583  1.2816 -0.6127
  599MOL0     H80799   8.214   1.424   9.262  0.2976 -1.5515  2.0083
  599MOL0     H80800   8.134   1.656   9.113 -2.2823 -1.8436 -2.0408
  599MOL0     H80801   8.295   1.586   9.137  1.9641  1.8369 -1.0279
  599MOL0     H80802   8.202   1.684   8.866  1.3350 -1.5337 -0.5946
  599MOL0     H80803   8.232   1.806   8.985 -1.7076 -0.1832 -0.1359
  599MOL0     H80804   8.410   1.611   8.839  0.4907  0.4885 -0.4385
  599MOL0     H80805   8.439   1.784   8.851  3.6707 -2.2014 -1.9541
  599MOL0     H80806   8.502   1.586   9.073  1.6269  0.2904  1.2602
  599MOL0     H80807   8.612   1.661   8.951 -0.6106 -1.1053 -0.4745
  599MOL0     H80808   8.578   1.884   9.051 -1.1827  0.1309 -1.6859
  599MOL0     H80809   8.422   1.825   9.117 -0.2380 -2.3237  0.7506
  599MOL0     H80810   8.599   1.871   9.280  1.7763  1.3287 -0.5816
  599MOL0     H80811   8.566   1.704   9.304  0.6639  2.5882  1.6783
  599MOL0     H80812   8.780   1.626   9.215  3.7528  1.1744  0.7293
  599MOL0     H80813   8.771   1.760   9.100  0.0142 -0.7713 -0.4467
  599MOL0     H80814   8.793   1.914   9.296 -1.0622  0.8126 -0.4674
  599MOL0     H80815   8.937   1.821   9.254 -0.6981  1.3805 -0.0480
  599MOL0     H80816   8.667   1.834   9.548 -0.3221 -1.1180  0.5104
  599MOL0     H80817   8.697   1.725   9.816 -1.8924  2.7966 -3.3863
  599MOL0     H80818   8.570   1.645   9.735 -1.4500 -0.5368  1.2543
  599MOL0     H80819   8.785   1.519   9.890 -4.2085  0.9499  4.5361
  599MOL0     H80820   8.729   1.419   9.761  2.9610 -0.6697  2.3394
  599MOL0     H80821   8.609   1.361   9.959  0.1186 -0.0061 -0.0853
  599MOL0     H80822   8.493   1.429   9.853  1.4854  0.2129 -2.2683
  599MOL0     H80823   8.492   1.514  10.110 -0.4285  0.2663 -0.3704
  599MOL0     H80824   8.479   1.641   9.985  0.5875 -1.2062 -2.8229
  599MOL0     H80825   8.665   1.358  10.157 -0.6006 -2.1824  1.2430
  599MOL0     H80826   8.631   1.196  10.307 -1.1688  3.7643 -0.4619
  599MOL0     H80827   8.789   1.152  10.363 -1.8711 -2.0346 -0.4649
  599MOL0     H80828   8.661   1.211  10.477  1.8495  2.0586  1.1858
  599MOL0     H80829   9.032   1.492  10.854 -1.3919 -0.6005 -0.1920
  599MOL0     H80830   9.162   1.378  11.015 -0.0623  0.8230 -0.8597
  599MOL0     H80831   9.447   1.043  10.884  0.1934  1.4169 -2.2255
  599MOL0     H80832   9.533   1.189  10.866  0.2971  2.4432  1.3425
  599MOL0     H80833   9.637   1.005  11.022  0.4870  1.1742 -3.3010
  599MOL0     H80834   9.647   1.169  11.056  1.9655 -2.0685  0.0653
  599MOL0     H80835   9.462   1.136  11.226 -0.2477  1.1338 -1.8736
  599MOL0     H80836   9.574   1.006  11.258 -0.3633 -0.0810  0.3864
  599MOL0     H80837   9.344   0.912  11.247 -0.2008  2.3835 -0.2800
  599MOL0     H80838   9.307   0.995  11.099 -0.4694 -0.6592 -0.2848
  599MOL0     H80839   9.501   0.759  11.129 -1.1946 -1.1120  0.9360
  599MOL0     H80840   9.493   0.850  10.991  0.3355  1.4796  1.2834
  599MOL0     H80841   9.258   0.707  11.111  0.8277 -1.3469  0.8745
  599MOL0     H80842   9.243   0.789  10.956  1.7501  0.6724  0.2627
  599MOL0     H80843   9.396   0.612  10.863 -0.8730 -1.7158 -0.8063
  599MOL0     H80844   9.243   0.551  10.919 -0.6776  0.7365  0.1815
  599MOL0     H80845   9.519   0.527  11.066 -0.9018  2.6251  0.8983
  599MOL0     H80846   9.424   0.392  10.994  2.0665 -1.5496  2.9007
  599MOL0     H80847   9.354   1.138  10.731  0.7732  0.7879 -1.0543
  599MOL0     H80848   9.217   1.266  10.539  0.4095 -1.7769 -0.4354
  599MOL0     H80849   8.960   1.629  10.445 -1.3189 -1.5553  2.6893
  599MOL0     H80850   8.811   1.738  10.270 -2.3068 -0.1255 -0.1112
  599MOL0     H80851   7.944   1.336   8.916 -0.6445 -1.3613  0.1414
  599MOL0     H80852   7.821   1.195   9.076 -0.1256 -0.1562 -0.0897
  599MOL0     H80853   7.855   1.022   9.542  0.8258  0.4179 -0.7563
  599MOL0     H80854   7.723   0.861   9.703  2.2341 -3.2238  0.2315
  599MOL0     H80855   7.345   0.672   9.551 -0.4680 -0.3999 -1.1821
  599MOL0     H80856   7.466   0.557   9.487  0.3289  2.3888 -1.4515
  599MOL0     H80857   7.477   0.491   9.746  0.2315  1.4538  1.1145
  599MOL0     H80858   7.351   0.425   9.636  0.3404 -0.0707  1.0960
  599MOL0     H80859   7.316   0.677   9.789  1.5965 -0.1636 -1.7450
  599MOL0     H80860   7.311   0.531   9.885 -3.3218 -0.4397  0.0677
  599MOL0     H80861   7.095   0.475   9.757 -1.4413  0.4386 -2.3281
  599MOL0     H80862   7.162   0.546   9.619 -1.1051 -0.8591 -0.7293
  599MOL0     H80863   6.993   0.897   9.755  0.3804  0.3388  3.0018
  599MOL0     H80864   7.504   0.723   9.355  0.5681  0.0840  0.2623
  599MOL0     H80865   7.659   0.828   9.211 -1.5617  3.8034 -0.4349
  600MOL0     O80866   3.474   0.050   4.444  0.0818 -0.8126 -0.7567
  600MOL0     C80867   3.491  -0.007   4.549  0.4496  0.1274 -0.0623
  600MOL0     O80868   3.408  -0.017   4.652 -0.0918  0.3026  0.5104
  600MOL0     C80869   3.282   0.043   4.647 -0.7346  0.0895  0.2211
  600MOL0     C80870   3.174  -0.045   4.654 -0.5080 -0.8536 -0.2106
  600MOL0     C80871   3.039  -0.000   4.679  0.3076  0.0506  0.3351
  600MOL0     C80872   3.017   0.136   4.684  0.5565 -0.3613  0.2665
  600MOL0     O80873   2.882   0.174   4.714 -0.0937  0.2681 -0.2847
  600MOL0     C80874   2.860   0.311   4.753  0.6860  0.3558  0.5069
  600MOL0     C80875   2.739   0.315   4.852 -0.3035 -0.2488 -0.1851
  600MOL0     C80876   2.730   0.457   4.910 -0.1000 -0.1106 -0.9809
  600MOL0     C80877   2.624   0.466   5.017 -0.2817 -0.7244 -0.0001
  600MOL0     C80878   2.620   0.610   5.070  0.1115  0.4101 -0.5736
  600MOL0     C80879   2.747   0.647   5.147 -0.0072  1.0773  0.6297
  600MOL0     C80880   2.719   0.767   5.239 -0.8251  0.1901 -0.9417
  600MOL0     C80881   2.681   0.731   5.381  0.1258 -0.0037  0.0341
  600MOL0     N80882   2.584   0.826   5.429  0.3032 -0.1340 -0.3011
  600MOL0     C80883   2.466   0.870   5.369 -0.3612  0.1011 -0.1744
  600MOL0     C80884   2.422   0.979   5.430 -0.1914 -1.3254 -0.0873
  600MOL0     C80885   2.300   1.058   5.392  0.2606 -0.7055 -0.3915
  600MOL0     C80886   2.174   1.018   5.481 -1.0863 -0.2511 -0.2867
  600MOL0     C80887   2.212   1.049   5.630 -0.2032  0.9350 -0.2011
  600MOL0     C80888   2.242   1.199   5.667  0.2468 -0.5981 -0.4061
  600MOL0     O80889   2.201   1.220   5.805  0.3324 -0.3154 -0.4273
  600MOL0     C80890   2.237   1.339   5.862  0.6581 -0.2704  0.5460
  600MOL0     C80891   2.318   1.441   5.805  0.4972  0.0097  0.1071
  600MOL0     C80892   2.370   1.548   5.886  0.2173  0.2050 -0.5210
  600MOL0     C80893   2.458   1.648   5.803  1.1709 -0.6762  0.0523
  600MOL0     C80894   2.324   1.566   6.019  0.1765 -0.3544  0.5111
  600MOL0     C80895   2.353   1.681   6.105  0.6207  0.5853  0.0435
  600MOL0     O80896   2.318   1.678   6.233 -0.5216 -0.5150 -0.5120
  600MOL0     C80897   2.312   1.791   6.309  0.4021 -0.6292  0.5863
  600MOL0     C80898   2.182   1.830   6.356  0.3143 -0.0867 -0.1844
  600MOL0     C80899   2.169   1.945   6.443  0.4730  0.3333  0.2235
  600MOL0     C80900   2.286   2.022   6.482  1.0799  1.3633  0.4018
  600MOL0     O80901   2.285   2.114   6.585  0.3046  0.8284 -0.8591
  600MOL0     C80902   2.223   2.065   6.705 -0.5915 -0.7462  0.6503
  600MOL0     C80903   2.242   2.161   6.822  0.9055 -0.4101  0.1144
  600MOL0     C80904   2.165   2.292   6.802  0.5587 -0.2667  0.3882
  600MOL0     C80905   2.219   2.394   6.904 -0.3039 -0.1478 -0.8787
  600MOL0     C80906   2.119   2.507   6.929 -0.0634 -0.8363  0.7367
  600MOL0     C80907   2.143   2.616   6.825  0.6451  0.2311  0.3216
  600MOL0     C80908   2.018   2.711   6.847 -0.7854  0.3139  0.8352
  600MOL0     C80909   2.031   2.841   6.760 -0.6894 -0.5522 -0.0991
  600MOL0    Cl80910   2.182   2.932   6.793  0.3886 -0.5540 -0.0716
  600MOL0     C80911   2.406   1.991   6.424  0.3328 -0.8131 -0.8102
  600MOL0     C80912   2.423   1.882   6.340  0.0390 -0.0968 -0.1312
  600MOL0     O80913   2.385   1.780   6.042  0.1489 -0.3613 -0.2965
  600MOL0     C80914   2.246   1.463   6.069  0.1996  0.3296 -0.3296
  600MOL0     C80915   2.205   1.355   5.998 -0.4787 -0.5057  0.4753
  600MOL0     N80916   2.513   0.996   5.536  0.7566 -0.2825  0.0791
  600MOL0     N80917   2.603   0.906   5.529 -1.0130 -0.1653 -0.1037
  600MOL0     C80918   3.127   0.225   4.668 -0.0202  0.0892 -0.5944
  600MOL0     C80919   3.254   0.177   4.645 -0.8029 -0.7724  0.1434
  600MOL0     C80920   3.624  -0.073   4.564 -0.4607  0.4064  0.2419
  600MOL0     C80921   3.655  -0.185   4.477  0.4097 -0.0970 -0.3427
  600MOL0     C80922   3.778  -0.242   4.489 -0.7179  0.1155 -0.4599
  600MOL0     C80923   3.874  -0.206   4.585 -0.1747 -0.2038  0.4987
  600MOL0     O80924   3.998  -0.259   4.596  0.1805  0.4503 -0.2982
  600MOL0     C80925   4.080  -0.271   4.477  0.8005  0.1836 -0.0310
  600MOL0     C80926   4.233  -0.255   4.511  0.6476 -0.5275 -0.6301
  600MOL0     C80927   4.260  -0.158   4.628 -0.3277  0.3658  0.9528
  600MOL0     C80928   4.405  -0.132   4.658 -0.1550  0.2215  1.5350
  600MOL0     C80929   4.447  -0.091   4.789  0.2256  0.2952 -1.0978
  600MOL0     C80930   4.465  -0.056   4.902  0.2147  1.0056 -0.3341
  600MOL0     C80931   3.834  -0.102   4.668 -0.7491 -0.8628  0.6613
  600MOL0     C80932   3.720  -0.034   4.658 -0.1624  0.5394 -0.5207
  600MOL0     H80933   3.200  -0.150   4.657  0.8248 -0.5198  0.5504
  600MOL0     H80934   2.954  -0.067   4.681  0.9949 -0.8263  1.2975
  600MOL0     H80935   2.948   0.345   4.809  1.2138 -1.3612  0.7592
  600MOL0     H80936   2.835   0.369   4.664 -1.4379 -1.3920 -0.1115
  600MOL0     H80937   2.646   0.309   4.794 -0.4386  1.0701 -0.1410
  600MOL0     H80938   2.738   0.238   4.929 -2.2874 -0.1589 -0.0542
  600MOL0     H80939   2.828   0.481   4.952  0.6299 -4.6035  0.4765
  600MOL0     H80940   2.705   0.528   4.831  1.8830  0.3613 -1.2544
  600MOL0     H80941   2.527   0.431   4.981 -0.3813 -0.6231  0.1657
  600MOL0     H80942   2.652   0.393   5.092  1.3511 -1.0245 -0.8549
  600MOL0     H80943   2.602   0.678   4.986 -1.4619 -0.3246 -0.8746
  600MOL0     H80944   2.536   0.602   5.139  0.6337 -0.1431  0.0079
  600MOL0     H80945   2.774   0.563   5.211 -0.2999 -0.6113 -1.3416
  600MOL0     H80946   2.828   0.666   5.076 -0.6893  0.9009 -0.2215
  600MOL0     H80947   2.814   0.818   5.262  0.1562 -2.1817  0.6537
  600MOL0     H80948   2.646   0.835   5.194  0.9634  1.2734 -2.3746
  600MOL0     H80949   2.770   0.737   5.445  2.0881  1.8754 -2.6470
  600MOL0     H80950   2.642   0.629   5.383  2.3989 -0.9351  0.3771
  600MOL0     H80951   2.429   0.835   5.273 -1.0127  2.7305 -0.9965
  600MOL0     H80952   2.324   1.164   5.402 -0.0431 -0.6121 -0.6528
  600MOL0     H80953   2.283   1.037   5.286 -1.6675 -0.6112 -0.1297
  600MOL0     H80954   2.160   0.909   5.471  0.1030 -0.6364  1.7552
  600MOL0     H80955   2.087   1.082   5.461  0.2793  1.8458  0.2021
  600MOL0     H80956   2.296   0.982   5.652 -2.8870 -1.9676  2.3969
  600MOL0     H80957   2.135   1.001   5.692  0.4794 -3.4165 -2.3109
  600MOL0     H80958   2.181   1.272   5.613  1.5337  1.3512  0.6797
  600MOL0     H80959   2.346   1.225   5.647 -0.0788  0.4232 -0.8545
  600MOL0     H80960   2.319   1.432   5.696 -1.7175 -1.3448  0.1305
  600MOL0     H80961   2.472   1.604   5.704 -2.3033 -2.5015  0.2027
  600MOL0     H80962   2.416   1.749   5.798  1.8028 -0.3287  1.4874
  600MOL0     H80963   2.557   1.649   5.848  1.4424 -0.7037 -0.5326
  600MOL0     H80964   2.095   1.780   6.314 -1.7006  4.2250 -1.7127
  600MOL0     H80965   2.073   1.969   6.487 -1.2100 -1.2377 -2.2985
  600MOL0     H80966   2.117   2.050   6.679 -0.6992 -0.4040  0.8797
  600MOL0     H80967   2.270   1.969   6.725  0.7050 -0.3361 -0.3607
  600MOL0     H80968   2.199   2.113   6.911 -1.8422  3.8870  1.4409
  600MOL0     H80969   2.346   2.182   6.849  1.3787 -0.7751 -1.3639
  600MOL0     H80970   2.058   2.273   6.811  0.7797 -2.2376 -0.6068
  600MOL0     H80971   2.191   2.329   6.702 -1.5506 -0.4221 -0.2766
  600MOL0     H80972   2.237   2.336   6.995  0.2998  0.0829 -0.8431
  600MOL0     H80973   2.319   2.427   6.872  0.4516 -2.6519 -1.3069
  600MOL0     H80974   2.152   2.543   7.027  1.7660  0.0980 -0.1668
  600MOL0     H80975   2.019   2.465   6.934 -0.3783 -0.7012 -2.3558
  600MOL0     H80976   2.241   2.663   6.833  0.3631  1.5816 -2.7445
  600MOL0     H80977   2.151   2.567   6.727  3.9671 -1.3717  1.2498
  600MOL0     H80978   2.018   2.748   6.950  0.3833  2.0902  0.2390
  600MOL0     H80979   1.923   2.658   6.831 -0.1194 -0.1505 -2.1707
  600MOL0     H80980   1.946   2.908   6.772 -2.1657 -2.5816  1.3982
  600MOL0     H80981   2.026   2.803   6.657 -0.3126  1.2023 -0.8106
  600MOL0     H80982   2.493   2.054   6.441  1.8514 -2.4786 -2.0399
  600MOL0     H80983   2.520   1.875   6.292  0.8495  0.2787  1.3956
  600MOL0     H80984   2.221   1.465   6.174 -0.0831 -1.1108 -0.3420
  600MOL0     H80985   2.154   1.284   6.062  1.9743 -0.7240  2.3696
  600MOL0     H80986   3.124   0.332   4.683  1.9709  0.2234 -0.8780
  600MOL0     H80987   3.334   0.250   4.632  0.0971 -1.4853  1.4896
  600MOL0     H80988   3.577  -0.213   4.406 -0.7967  0.9010  0.5377
  600MOL0     H80989   3.798  -0.326   4.423  5.1788  2.1659 -1.9597
  600MOL0     H80990   4.051  -0.364   4.427  0.5720 -0.8903  1.9975
  600MOL0     H80991   4.036  -0.202   4.404 -0.1728  2.0887  2.2336
  600MOL0     H80992   4.288  -0.225   4.422  0.4515 -2.1223 -1.3341
  600MOL0     H80993   4.276  -0.352   4.541  2.1424  0.0003 -0.9791
  600MOL0     H80994   4.208  -0.185   4.720  0.8100  0.1992  1.5687
  600MOL0     H80995   4.210  -0.064   4.604 -1.1583  0.0757  1.5108
  600MOL0     H80996   4.440  -0.056   4.588 -1.7873 -1.5584 -1.4129
  600MOL0     H80997   4.465  -0.221   4.639 -1.2141 -0.0325 -0.9886
  600MOL0     H80998   4.466  -0.006   4.997 -2.6649  0.9102 -0.1535
  600MOL0     H80999   3.893  -0.065   4.752 -1.6601  0.8527  0.5886
  600MOL0     H81000   3.697   0.044   4.729  2.7395 -1.0414  2.4222
  601MOL0     O81001   5.108   3.599   6.929 -0.0367  0.6495  0.0535
  601MOL0     C81002   5.229   3.635   6.934 -0.0459  0.3196  0.4164
  601MOL0     O81003   5.322   3.624   6.835  0.7925  0.3941  0.7638
  601MOL0     C81004   5.286   3.554   6.721  0.6197  0.7288 -0.8752
  601MOL0     C81005   5.217   3.424   6.727  0.1677 -0.4351  0.6990
  601MOL0     C81006   5.180   3.362   6.610 -0.1315  0.4544 -0.0256
  601MOL0     C81007   5.199   3.414   6.476 -0.0754 -1.2657  0.2129
  601MOL0     O81008   5.153   3.360   6.354 -0.2068 -0.4718  0.3554
  601MOL0     C81009   5.045   3.262   6.354 -0.0794 -1.3097 -0.8660
  601MOL0     C81010   5.042   3.176   6.231  0.6773 -0.0956  0.2829
  601MOL0     C81011   5.157   3.077   6.215  0.5958 -0.5511 -0.6803
  601MOL0     C81012   5.171   3.006   6.085  0.6095  0.3678 -0.5637
  601MOL0     C81013   5.263   2.893   6.119 -0.3219 -0.5528 -0.0612
  601MOL0     C81014   5.293   2.808   5.994 -0.4444 -0.0726 -0.5624
  601MOL0     C81015   5.366   2.674   6.011  1.0205  0.3254  0.3126
  601MOL0     C81016   5.480   2.670   6.104  0.4922 -0.1773  0.6293
  601MOL0     N81017   5.540   2.536   6.097  1.0536  0.3443  0.0121
  601MOL0     C81018   5.625   2.491   6.002 -0.3838 -0.1611  0.3139
  601MOL0     C81019   5.644   2.358   6.029  0.3559  0.2965  0.1173
  601MOL0     C81020   5.734   2.263   5.942 -0.4576  0.0686  0.0095
  601MOL0     C81021   5.685   2.223   5.802  0.1591 -0.4331 -0.5449
  601MOL0     C81022   5.583   2.114   5.801 -1.1088 -0.4707  0.0398
  601MOL0     C81023   5.444   2.169   5.824 -0.3156  0.4507 -0.0748
  601MOL0     O81024   5.393   2.199   5.689  0.2981  0.2928 -0.2939
  601MOL0     C81025   5.315   2.309   5.672  0.4928 -0.7177  0.1101
  601MOL0     C81026   5.271   2.346   5.543  0.4329 -0.7759 -0.4056
  601MOL0     C81027   5.193   2.463   5.514  0.3774  1.3413  0.6901
  601MOL0     C81028   5.163   2.488   5.371  0.4049  0.9323  0.0877
  601MOL0     C81029   5.151   2.544   5.621  0.1497 -0.2114 -0.9246
  601MOL0     C81030   5.057   2.660   5.606  0.5300 -0.4109 -0.1938
  601MOL0     O81031   4.976   2.663   5.491  0.1553  0.3357 -0.2951
  601MOL0     C81032   4.900   2.770   5.454  0.0821 -0.0128  0.4385
  601MOL0     C81033   4.808   2.744   5.350  0.6689  0.1782 -0.1706
  601MOL0     C81034   4.719   2.837   5.297 -0.6550  0.1647 -0.0967
  601MOL0     C81035   4.726   2.972   5.335  0.5895  0.3849  0.4571
  601MOL0     O81036   4.634   3.056   5.284  1.1198  0.1984  0.0079
  601MOL0     C81037   4.666   3.198   5.292  0.0559  0.0829  0.3095
  601MOL0     C81038   4.606   3.279   5.176  0.2858 -0.1516  0.9370
  601MOL0     C81039   4.611   3.192   5.040  0.0649 -0.5762  0.4903
  601MOL0     C81040   4.545   3.278   4.930  0.7849 -0.1917 -0.0412
  601MOL0     C81041   4.539   3.192   4.804  0.6478  0.2505 -0.6371
  601MOL0     C81042   4.504   3.272   4.684  0.3888  0.2691  1.2576
  601MOL0     C81043   4.539   3.201   4.550 -0.6444 -0.5750 -0.4974
  601MOL0     C81044   4.452   3.246   4.433 -0.1186  0.0355 -0.7294
  601MOL0    Cl81045   4.288   3.212   4.461 -0.0693  0.0632 -0.0997
  601MOL0     C81046   4.819   3.004   5.433  1.0290  0.0563 -0.0416
  601MOL0     C81047   4.892   2.904   5.493  0.6120 -0.7587 -0.6691
  601MOL0     O81048   5.055   2.746   5.693 -0.1659  0.1977 -0.1047
  601MOL0     C81049   5.183   2.502   5.757  0.1336 -0.2385  0.0589
  601MOL0     C81050   5.267   2.391   5.776 -0.2350  0.0695 -0.1878
  601MOL0     N81051   5.553   2.324   6.136 -0.3823  0.4615 -0.3201
  601MOL0     N81052   5.501   2.438   6.180 -0.1997  0.7615 -0.2396
  601MOL0     C81053   5.259   3.541   6.481 -0.2741  0.8075 -0.0565
  601MOL0     C81054   5.314   3.601   6.592  0.9193  0.0818 -0.4005
  601MOL0     C81055   5.266   3.713   7.046 -0.1038 -0.1475  0.2719
  601MOL0     C81056   5.174   3.781   7.122  0.5440 -1.0351  1.0526
  601MOL0     C81057   5.218   3.854   7.225 -0.9029 -0.4069 -0.5261
  601MOL0     C81058   5.355   3.841   7.280  1.0380 -0.3583  0.5838
  601MOL0     O81059   5.411   3.906   7.386 -0.5477  0.8402  1.0703
  601MOL0     C81060   5.316   3.993   7.445  0.1001 -1.0350 -1.0519
  601MOL0     C81061   5.390   4.083   7.542  0.7649 -0.4780  0.0317
  601MOL0     C81062   5.458   4.012   7.660  0.8891 -0.8257 -0.5049
  601MOL0     C81063   5.359   3.933   7.746  0.4688 -0.6177 -0.1555
  601MOL0     C81064   5.280   4.023   7.830  0.0904 -0.5120  0.4603
  601MOL0     C81065   5.207   4.097   7.893 -0.1197 -0.3831  0.3518
  601MOL0     C81066   5.447   3.767   7.197  1.0642 -0.0358  0.3807
  601MOL0     C81067   5.401   3.714   7.080  0.0225  0.1301 -0.2400
  601MOL0     H81068   5.194   3.367   6.817  4.9087 -5.5182 -0.7985
  601MOL0     H81069   5.134   3.265   6.628 -0.7764  1.1527  2.4377
  601MOL0     H81070   5.040   3.195   6.441 -1.7527 -2.1584 -1.5637
  601MOL0     H81071   4.956   3.324   6.363  0.2051 -1.1594  1.9583
  601MOL0     H81072   4.956   3.111   6.215 -0.4595  1.3964  0.0363
  601MOL0     H81073   5.057   3.250   6.152  0.8126  0.0685  0.4594
  601MOL0     H81074   5.256   3.124   6.222  0.1504  0.7574 -2.5283
  601MOL0     H81075   5.148   2.998   6.290 -0.5275 -0.3209 -0.5601
  601MOL0     H81076   5.071   2.981   6.049 -1.5059  3.0799  2.8290
  601MOL0     H81077   5.222   3.071   6.014  1.4226  0.0950 -0.2454
  601MOL0     H81078   5.360   2.919   6.160  0.3948 -0.2044 -1.8729
  601MOL0     H81079   5.223   2.820   6.190 -0.7906 -1.0987 -0.8691
  601MOL0     H81080   5.196   2.796   5.946  0.2380  2.8196 -2.9124
  601MOL0     H81081   5.351   2.872   5.927  0.3082 -1.1654 -0.9813
  601MOL0     H81082   5.287   2.606   6.045 -0.6057  2.0310  0.1336
  601MOL0     H81083   5.401   2.649   5.910  2.1541 -1.0332  1.0060
  601MOL0     H81084   5.438   2.694   6.202 -1.3426  1.7925 -0.5472
  601MOL0     H81085   5.560   2.742   6.085  1.1508 -1.1401 -0.3251
  601MOL0     H81086   5.677   2.548   5.925 -0.0669 -0.4840  0.2834
  601MOL0     H81087   5.829   2.317   5.933  0.0518 -1.0033 -1.7465
  601MOL0     H81088   5.750   2.171   5.999 -1.2972 -0.8506 -1.1799
  601MOL0     H81089   5.768   2.178   5.746 -0.0570 -2.4184  0.6376
  601MOL0     H81090   5.642   2.312   5.755 -4.1704 -1.0116  1.8015
  601MOL0     H81091   5.608   2.038   5.876 -3.2181 -1.9230 -0.6219
  601MOL0     H81092   5.605   2.066   5.705  0.6300 -0.0311  0.1789
  601MOL0     H81093   5.446   2.247   5.901 -2.6539 -0.3080  0.8562
  601MOL0     H81094   5.379   2.091   5.865 -0.2660  0.9278  0.9569
  601MOL0     H81095   5.313   2.290   5.461 -1.8970  1.1785 -3.0994
  601MOL0     H81096   5.243   2.435   5.319  0.5775  1.4485 -0.1776
  601MOL0     H81097   5.071   2.439   5.339  0.2109  1.4894 -0.2235
  601MOL0     H81098   5.153   2.590   5.334  1.4819  0.4799 -1.5154
  601MOL0     H81099   4.805   2.638   5.327  1.1558 -0.5111  2.6304
  601MOL0     H81100   4.640   2.801   5.232 -0.1237 -2.3103  0.5187
  601MOL0     H81101   4.625   3.251   5.379  0.4808  0.1767  0.4553
  601MOL0     H81102   4.773   3.218   5.278 -0.1241 -0.0811 -1.6048
  601MOL0     H81103   4.499   3.285   5.194 -0.6048 -3.4893 -2.0897
  601MOL0     H81104   4.638   3.384   5.171 -1.8031  0.4923 -1.3534
  601MOL0     H81105   4.556   3.098   5.047  0.1727 -0.7002 -0.2662
  601MOL0     H81106   4.712   3.170   5.003 -0.5878 -3.6283  0.2253
  601MOL0     H81107   4.444   3.312   4.951  0.2973  0.9766 -3.5021
  601MOL0     H81108   4.607   3.368   4.919  1.4949 -0.6111  0.4336
  601MOL0     H81109   4.469   3.108   4.815 -0.0122  0.7932 -0.6301
  601MOL0     H81110   4.630   3.135   4.781  0.1705 -1.6282  1.7508
  601MOL0     H81111   4.398   3.297   4.687 -0.2078 -2.0363  1.7734
  601MOL0     H81112   4.563   3.364   4.684  1.5524 -0.3342 -2.0753
  601MOL0     H81113   4.551   3.093   4.559  2.0184 -0.3992 -1.2452
  601MOL0     H81114   4.643   3.229   4.532 -0.7104 -1.4372 -2.4937
  601MOL0     H81115   4.472   3.186   4.344 -0.7294  1.3050 -1.7554
  601MOL0     H81116   4.470   3.351   4.408 -0.9049  0.7214  1.3705
  601MOL0     H81117   4.809   3.104   5.474 -2.0860  0.4156 -1.3399
  601MOL0     H81118   4.945   2.943   5.579 -1.7667 -1.1870  1.1072
  601MOL0     H81119   5.141   2.548   5.846 -1.4764 -0.0198 -0.7781
  601MOL0     H81120   5.287   2.372   5.881 -3.5080  0.8724  0.7196
  601MOL0     H81121   5.279   3.582   6.382  3.8470 -0.4871  0.0541
  601MOL0     H81122   5.372   3.693   6.598  0.4943  0.3249  0.0893
  601MOL0     H81123   5.070   3.784   7.092  0.7701  4.3234 -0.2801
  601MOL0     H81124   5.144   3.918   7.272 -1.4807  0.3042 -2.3483
  601MOL0     H81125   5.256   4.062   7.384 -1.3661 -0.1159  1.2988
  601MOL0     H81126   5.238   3.938   7.498  0.3176 -0.7907 -0.4738
  601MOL0     H81127   5.311   4.147   7.583 -0.0759  0.5874 -2.9986
  601MOL0     H81128   5.459   4.149   7.490 -0.7179 -0.1591 -1.6408
  601MOL0     H81129   5.501   4.090   7.723  1.2304 -2.9283  2.0580
  601MOL0     H81130   5.524   3.934   7.621  1.6364  1.5764 -4.6376
  601MOL0     H81131   5.410   3.861   7.812  1.8008  1.0122  0.6812
  601MOL0     H81132   5.300   3.871   7.679 -2.5609  1.5667  0.3132
  601MOL0     H81133   5.158   4.158   7.966 -3.5341 -0.6932 -1.4948
  601MOL0     H81134   5.551   3.753   7.221  2.5025  2.8759 -3.1426
  601MOL0     H81135   5.481   3.670   7.022  1.1385  2.6953 -0.8068
  602MOL0     O81136   7.728   3.602   0.027 -0.0843 -0.7272  0.3656
  602MOL0     C81137   7.661   3.675  -0.039 -0.4802  1.0643  0.1065
  602MOL0     O81138   7.552   3.735   0.005  0.2430 -0.0183 -0.0200
  602MOL0     C81139   7.502   3.709   0.133 -0.2905 -0.2732  0.4767
  602MOL0     C81140   7.390   3.631   0.153 -0.3089  0.7376  0.5955
  602MOL0     C81141   7.313   3.623   0.270  0.5043  0.7521  0.3532
  602MOL0     C81142   7.370   3.673   0.387 -0.6309 -0.3301 -0.1842
  602MOL0     O81143   7.335   3.641   0.514  1.0648  0.5546  0.5121
  602MOL0     C81144   7.340   3.494   0.538  1.6581  0.0942  0.1136
  602MOL0     C81145   7.205   3.426   0.579 -0.7564 -0.0023  0.0913
  602MOL0     C81146   7.227   3.301   0.662 -0.2182  0.7205 -0.1347
  602MOL0     C81147   7.235   3.340   0.806  0.2128 -0.3646 -0.2554
  602MOL0     C81148   7.224   3.221   0.905  0.2538  0.7079  0.0415
  602MOL0     C81149   7.224   3.271   1.058  0.2893  0.1605  0.1052
  602MOL0     C81150   7.186   3.161   1.157 -0.1142  0.3904 -0.1676
  602MOL0     C81151   7.230   3.176   1.308  0.0237 -0.4122 -1.0928
  602MOL0     N81152   7.137   3.137   1.416  0.2961  0.9107 -0.1171
  602MOL0     C81153   7.105   3.006   1.447  1.3007  0.1491 -0.5087
  602MOL0     C81154   7.019   3.003   1.554  0.0005 -1.1550 -0.0493
  602MOL0     C81155   6.981   2.888   1.643 -0.2508  0.1852 -1.0293
  602MOL0     C81156   6.825   2.858   1.626  0.3362  1.1328 -0.2705
  602MOL0     C81157   6.791   2.728   1.710  0.7228 -0.5538  0.0895
  602MOL0     C81158   6.738   2.771   1.848 -0.4867 -0.5142 -0.2040
  602MOL0     O81159   6.707   2.668   1.948  0.4191 -0.1284  1.2480
  602MOL0     C81160   6.814   2.594   1.997 -0.8754 -0.1660  1.1019
  602MOL0     C81161   6.799   2.457   2.011  0.2169 -0.7918  0.2738
  602MOL0     C81162   6.905   2.380   2.056  0.1538 -0.0272 -0.0917
  602MOL0     C81163   6.886   2.226   2.075 -0.6748 -0.0881  0.3687
  602MOL0     C81164   7.029   2.445   2.088  0.3477  1.0006 -1.1025
  602MOL0     C81165   7.142   2.372   2.143 -0.3845 -0.7942 -0.3683
  602MOL0     O81166   7.167   2.241   2.108 -0.9358  0.4854 -0.7634
  602MOL0     C81167   7.264   2.167   2.176  0.3970  0.2825  0.5608
  602MOL0     C81168   7.257   2.162   2.319  0.1807  0.2693 -0.2388
  602MOL0     C81169   7.359   2.087   2.386  0.0957  0.3114  0.4791
  602MOL0     C81170   7.464   2.016   2.315 -0.1886 -0.3344 -0.7006
  602MOL0     O81171   7.557   1.942   2.384  1.0936 -0.3889  0.6219
  602MOL0     C81172   7.499   1.827   2.454  0.0545 -0.0089  0.5700
  602MOL0     C81173   7.599   1.751   2.536  0.5922 -0.4950 -0.6405
  602MOL0     C81174   7.539   1.665   2.646 -0.6623  0.2501 -0.2801
  602MOL0     C81175   7.644   1.565   2.709 -0.7281 -0.2489  0.6926
  602MOL0     C81176   7.557   1.463   2.783  0.6067 -0.3028 -0.5056
  602MOL0     C81177   7.641   1.357   2.851  0.9225 -0.6212 -0.0437
  602MOL0     C81178   7.581   1.308   2.981 -0.0332  0.5073 -0.0269
  602MOL0     C81179   7.679   1.219   3.060 -0.0143  1.6363  0.8001
  602MOL0    Cl81180   7.830   1.299   3.067 -0.0036  0.4620  0.5035
  602MOL0     C81181   7.465   2.027   2.181 -0.4655  0.4381  1.1195
  602MOL0     C81182   7.366   2.100   2.109  0.4560 -0.6256  0.1141
  602MOL0     O81183   7.215   2.443   2.201 -1.0779 -0.5315 -0.9639
  602MOL0     C81184   7.039   2.588   2.076 -0.5816  0.6618  0.1115
  602MOL0     C81185   6.926   2.656   2.039 -0.4012 -0.3291 -1.1499
  602MOL0     N81186   6.999   3.140   1.584  0.1230  0.1813 -0.2902
  602MOL0     N81187   7.071   3.215   1.508 -0.2540  0.4652  0.3572
  602MOL0     C81188   7.485   3.754   0.367  0.3780  0.2274 -0.7877
  602MOL0     C81189   7.549   3.776   0.244  0.0039 -0.4856  0.0709
  602MOL0     C81190   7.698   3.688  -0.181 -0.6777  0.2573  0.3255
  602MOL0     C81191   7.600   3.712  -0.278 -0.4472 -0.6549  0.0247
  602MOL0     C81192   7.641   3.730  -0.411 -0.2090  0.9780  0.7405
  602MOL0     C81193   7.768   3.716  -0.455 -0.5611  1.0109  0.1767
  602MOL0     O81194   7.793   3.729  -0.595  0.3724  0.5282 -0.4465
  602MOL0     C81195   7.889   3.644  -0.644  0.1974  0.5006  0.7317
  602MOL0     C81196   7.852   3.626  -0.793 -0.0284 -0.1195 -0.1519
  602MOL0     C81197   7.915   3.508  -0.864 -0.0330  0.1804 -0.1418
  602MOL0     C81198   8.066   3.528  -0.903 -0.2646  1.0041 -0.6849
  602MOL0     C81199   8.097   3.409  -0.987 -0.5740  1.0441 -0.5054
  602MOL0     C81200   8.105   3.318  -1.065  0.2794 -0.6227  0.5120
  602MOL0     C81201   7.865   3.704  -0.359 -0.7190  0.2084  0.5848
  602MOL0     C81202   7.840   3.688  -0.225  0.3360  1.1641  0.5927
  602MOL0     H81203   7.361   3.576   0.064 -2.5241  1.9129  0.5174
  602MOL0     H81204   7.234   3.549   0.265  0.4676  0.8226 -0.1923
  602MOL0     H81205   7.404   3.446   0.463  4.2187  0.4384  1.9592
  602MOL0     H81206   7.401   3.469   0.625 -0.4789 -4.3526  0.6663
  602MOL0     H81207   7.143   3.498   0.634  1.3536  2.0641 -0.0869
  602MOL0     H81208   7.165   3.386   0.486  1.1680 -1.3748 -0.2023
  602MOL0     H81209   7.148   3.227   0.644  1.1736 -0.2181 -2.9992
  602MOL0     H81210   7.319   3.253   0.629 -0.2064 -0.1078  1.0380
  602MOL0     H81211   7.330   3.387   0.830 -0.2268 -0.2198  1.3574
  602MOL0     H81212   7.156   3.413   0.828  1.3199  0.7157  0.2965
  602MOL0     H81213   7.133   3.165   0.880  0.9659  0.2338 -1.6897
  602MOL0     H81214   7.310   3.159   0.878  0.4778  1.0894 -0.1276
  602MOL0     H81215   7.321   3.319   1.071 -0.5756  3.1616 -2.9658
  602MOL0     H81216   7.150   3.349   1.075  0.9807  1.5375 -2.5915
  602MOL0     H81217   7.078   3.168   1.147  0.0110  1.4825 -0.9369
  602MOL0     H81218   7.214   3.061   1.124  2.0335  0.3683  1.4364
  602MOL0     H81219   7.259   3.281   1.325  2.3854 -1.2770  0.7873
  602MOL0     H81220   7.325   3.124   1.319  0.0703  0.1448  2.0988
  602MOL0     H81221   7.147   2.916   1.405 -3.6765 -2.1852 -1.2082
  602MOL0     H81222   7.046   2.800   1.636  0.3959  0.4319  1.1102
  602MOL0     H81223   7.004   2.917   1.746 -0.8320 -2.1168 -0.1864
  602MOL0     H81224   6.814   2.844   1.518 -1.5339 -0.2442  0.0602
  602MOL0     H81225   6.768   2.946   1.657 -1.8765 -1.1099  2.6465
  602MOL0     H81226   6.869   2.653   1.726 -1.8667 -2.9700  2.5903
  602MOL0     H81227   6.709   2.681   1.654 -2.5219  1.5761  2.6788
  602MOL0     H81228   6.641   2.820   1.839 -0.8616 -0.1876  3.7532
  602MOL0     H81229   6.813   2.846   1.875 -2.1426  1.1072  0.0546
  602MOL0     H81230   6.705   2.407   1.989 -2.3429  2.6746  2.3916
  602MOL0     H81231   6.944   2.197   2.163  1.5531  4.1690  0.5935
  602MOL0     H81232   6.783   2.192   2.087  0.5978 -4.9056 -0.2329
  602MOL0     H81233   6.927   2.169   1.990 -2.1333 -0.7044  0.0527
  602MOL0     H81234   7.178   2.213   2.374  1.1923  2.2570 -0.5363
  602MOL0     H81235   7.357   2.080   2.494  1.8911 -0.7630  0.4816
  602MOL0     H81236   7.418   1.856   2.521 -1.5270  1.3091 -1.7605
  602MOL0     H81237   7.468   1.756   2.376  2.2718 -2.4366  1.7615
  602MOL0     H81238   7.648   1.678   2.471 -1.8534 -3.8291  0.9463
  602MOL0     H81239   7.669   1.821   2.580  0.9382  0.0918 -2.0674
  602MOL0     H81240   7.455   1.608   2.606 -1.1643  0.5965  0.2613
  602MOL0     H81241   7.506   1.731   2.727  0.5991  1.4042 -0.6785
  602MOL0     H81242   7.702   1.508   2.636 -1.0800 -0.5054  0.6122
  602MOL0     H81243   7.715   1.609   2.780 -0.2044  2.5307 -1.3545
  602MOL0     H81244   7.490   1.409   2.716 -0.5516  0.6580 -0.1573
  602MOL0     H81245   7.491   1.508   2.858  0.8800 -2.9331  1.4715
  602MOL0     H81246   7.669   1.271   2.790  0.1619 -0.7502 -0.2216
  602MOL0     H81247   7.733   1.413   2.872  1.0376 -1.0993  0.7476
  602MOL0     H81248   7.487   1.255   2.964 -0.8582  1.9280 -0.1148
  602MOL0     H81249   7.552   1.396   3.040 -1.4453  0.0768 -0.0501
  602MOL0     H81250   7.698   1.125   3.006 -3.4406 -0.2185  2.5165
  602MOL0     H81251   7.652   1.185   3.160  1.6065 -0.7786  0.5206
  602MOL0     H81252   7.538   1.962   2.134 -1.0452  0.0294  0.7678
  602MOL0     H81253   7.380   2.129   2.005  1.4307 -0.0390  0.3933
  602MOL0     H81254   7.132   2.635   2.106  0.2141 -1.5319  1.2942
  602MOL0     H81255   6.924   2.764   2.048  0.9141 -0.0238 -3.6391
  602MOL0     H81256   7.521   3.812   0.451 -4.5845  1.1657  1.0384
  602MOL0     H81257   7.636   3.842   0.243 -0.0718 -0.3443  1.1164
  602MOL0     H81258   7.496   3.712  -0.246  0.6191 -0.0315  3.9742
  602MOL0     H81259   7.561   3.733  -0.484  0.6528  1.6360 -0.2056
  602MOL0     H81260   7.997   3.654  -0.630  0.8461 -4.2749  0.7516
  602MOL0     H81261   7.877   3.543  -0.605  3.1156 -0.3211 -0.2285
  602MOL0     H81262   7.871   3.714  -0.854  0.6211  0.5443  0.9796
  602MOL0     H81263   7.745   3.604  -0.790 -0.1075  0.3405  1.8449
  602MOL0     H81264   7.854   3.489  -0.953 -2.3152  0.1779  1.3527
  602MOL0     H81265   7.897   3.422  -0.800  0.9357  0.8333  1.0443
  602MOL0     H81266   8.136   3.531  -0.819 -0.6113  0.4206 -0.3701
  602MOL0     H81267   8.074   3.623  -0.956 -2.1267  0.7993 -1.4296
  602MOL0     H81268   8.111   3.225  -1.118  0.3823 -0.6228  0.5253
  602MOL0     H81269   7.959   3.691  -0.410 -2.8994 -0.3966 -3.7459
  602MOL0     H81270   7.917   3.656  -0.155  0.0086  1.4041  1.0717
  603MOL0     O81271   2.847   6.849   0.617 -0.4657 -0.6377  0.4712
  603MOL0     C81272   2.956   6.871   0.556 -0.9033  0.2954  0.6406
  603MOL0     O81273   3.017   6.993   0.537  0.0912 -0.8412 -0.3402
  603MOL0     C81274   2.942   7.098   0.575  0.4348 -0.2051  0.5809
  603MOL0     C81275   2.851   7.145   0.471  0.0515  0.1848  0.1718
  603MOL0     C81276   2.788   7.265   0.489  0.4816 -0.1590 -0.2096
  603MOL0     C81277   2.798   7.330   0.613  0.4872 -0.0394 -0.2684
  603MOL0     O81278   2.748   7.463   0.634  0.8192  0.6233  0.6180
  603MOL0     C81279   2.607   7.487   0.609  0.1162 -0.2660  0.6349
  603MOL0     C81280   2.572   7.623   0.660  0.3245 -0.5569  0.0628
  603MOL0     C81281   2.575   7.637   0.816  0.0012  0.0096  0.6215
  603MOL0     C81282   2.506   7.759   0.861 -0.5664  0.4919  0.5282
  603MOL0     C81283   2.565   7.790   0.997  0.7962  0.6934 -0.5475
  603MOL0     C81284   2.515   7.936   1.048  0.3415  0.4969 -0.3251
  603MOL0     C81285   2.551   7.952   1.195  0.1284  0.0770  0.2425
  603MOL0     C81286   2.495   8.082   1.260  0.3754  0.3326 -0.2713
  603MOL0     N81287   2.507   8.082   1.404  0.0357 -0.2662 -0.7371
  603MOL0     C81288   2.627   8.095   1.473  0.8574  0.6683  0.1879
  603MOL0     C81289   2.583   8.111   1.601  0.4090 -0.0167  0.5006
  603MOL0     C81290   2.663   8.152   1.717 -0.3761  0.1472 -0.1586
  603MOL0     C81291   2.592   8.210   1.840  0.8912  0.8200 -0.1263
  603MOL0     C81292   2.550   8.361   1.836  0.8890 -0.5209 -0.7331
  603MOL0     C81293   2.422   8.398   1.773 -0.1256  0.4705 -0.6055
  603MOL0     O81294   2.321   8.336   1.857  0.7754 -0.9551  0.9335
  603MOL0     C81295   2.188   8.354   1.816 -0.1349 -0.5366 -0.8779
  603MOL0     C81296   2.124   8.262   1.732 -0.1990 -0.2972 -0.0420
  603MOL0     C81297   1.989   8.260   1.714  0.9360  0.2385  0.1583
  603MOL0     C81298   1.931   8.151   1.620 -0.3412 -0.2033 -0.1780
  603MOL0     C81299   1.910   8.371   1.781  0.8162 -0.6708  0.8292
  603MOL0     C81300   1.765   8.403   1.762  0.8471 -0.6570  0.4505
  603MOL0     O81301   1.696   8.461   1.874  0.6647  0.2145  0.0985
  603MOL0     C81302   1.570   8.511   1.876 -0.3695 -0.5504 -0.2424
  603MOL0     C81303   1.510   8.519   2.004 -0.2539  1.1750  0.6096
  603MOL0     C81304   1.377   8.561   2.022  0.9337  0.4435  0.2719
  603MOL0     C81305   1.297   8.589   1.910 -0.2587  0.3239 -0.4593
  603MOL0     O81306   1.160   8.625   1.900 -0.4354 -0.1349  0.1415
  603MOL0     C81307   1.069   8.553   1.983 -0.2390 -1.1132 -0.4693
  603MOL0     C81308   1.045   8.639   2.115 -0.7712 -0.0266  0.7093
  603MOL0     C81309   0.965   8.766   2.079 -0.8562 -0.3947  0.0251
  603MOL0     C81310   0.811   8.729   2.084  0.1329  0.4560  0.1738
  603MOL0     C81311   0.723   8.841   2.029 -0.3083  0.1559  0.8740
  603MOL0     C81312   0.575   8.818   2.042 -0.2154 -0.3546  0.0299
  603MOL0     C81313   0.507   8.950   2.006  0.3696  0.5764 -1.1362
  603MOL0     C81314   0.351   8.951   2.019 -1.0448 -0.7752  0.3844
  603MOL0    Cl81315   0.304   8.886   2.172  0.0324 -0.0011  1.0078
  603MOL0     C81316   1.361   8.574   1.787  0.2236  0.6719 -0.2462
  603MOL0     C81317   1.495   8.541   1.773 -0.1730 -0.0060 -0.3338
  603MOL0     O81318   1.718   8.392   1.650  0.5261 -0.0963 -0.0498
  603MOL0     C81319   1.979   8.455   1.871  0.1227 -0.8587  0.1638
  603MOL0     C81320   2.112   8.442   1.893 -0.4173  0.7574  0.0966
  603MOL0     N81321   2.447   8.103   1.600 -0.0343 -0.5555  0.1200
  603MOL0     N81322   2.400   8.082   1.489  0.7497 -0.2211  1.1199
  603MOL0     C81323   2.892   7.290   0.705  0.6501  0.0507  0.5329
  603MOL0     C81324   2.958   7.172   0.690 -0.0681 -0.2078 -0.2011
  603MOL0     C81325   3.039   6.751   0.533  0.5740  0.0869 -0.1050
  603MOL0     C81326   3.013   6.640   0.605  0.6632  0.7565  0.4441
  603MOL0     C81327   3.095   6.526   0.598  0.2387 -0.1687 -0.0469
  603MOL0     C81328   3.216   6.533   0.526 -0.2053  0.0472  0.3153
  603MOL0     O81329   3.288   6.424   0.520 -0.4495  0.4726  0.3302
  603MOL0     C81330   3.429   6.432   0.519  0.2096 -0.0972  0.5566
  603MOL0     C81331   3.490   6.329   0.618 -0.0639  0.6972  0.0021
  603MOL0     C81332   3.423   6.188   0.611  1.6299 -0.5326 -0.6750
  603MOL0     C81333   3.421   6.126   0.473  0.5919 -0.7501  1.1680
  603MOL0     C81334   3.555   6.120   0.418 -0.5587  0.3556 -0.4995
  603MOL0     C81335   3.668   6.124   0.366  0.6852  0.5829 -0.2120
  603MOL0     C81336   3.247   6.646   0.449  0.4322  0.4606  0.2342
  603MOL0     C81337   3.156   6.759   0.454 -0.1587 -0.6048  0.0108
  603MOL0     H81338   2.861   7.098   0.374 -1.3656  0.9755 -0.3957
  603MOL0     H81339   2.719   7.315   0.422  0.4501 -1.0841 -0.8920
  603MOL0     H81340   2.577   7.469   0.506  2.1031  1.1532 -0.2470
  603MOL0     H81341   2.533   7.424   0.659 -2.3318  0.2042 -2.1277
  603MOL0     H81342   2.636   7.701   0.618 -1.3027  0.3600 -0.7974
  603MOL0     H81343   2.471   7.650   0.629  0.7289  3.2557  1.5262
  603MOL0     H81344   2.524   7.551   0.860  1.1146 -0.4743  0.9908
  603MOL0     H81345   2.681   7.643   0.843  0.2635 -0.4543 -0.2606
  603MOL0     H81346   2.516   7.838   0.786  0.6665  1.7812  1.9943
  603MOL0     H81347   2.397   7.746   0.862 -1.1510  4.3450  0.3604
  603MOL0     H81348   2.544   7.713   1.072  0.7110  0.3615 -0.9075
  603MOL0     H81349   2.674   7.799   0.990  0.7046  1.4475 -1.1370
  603MOL0     H81350   2.544   8.007   0.970 -2.8142  0.9463 -1.2210
  603MOL0     H81351   2.406   7.940   1.041  0.3436  0.5497 -0.3283
  603MOL0     H81352   2.514   7.862   1.246  2.7403 -2.7513 -2.4451
  603MOL0     H81353   2.659   7.944   1.206 -0.0762  0.0547  2.8093
  603MOL0     H81354   2.387   8.086   1.239  0.3071  3.2605  0.2772
  603MOL0     H81355   2.543   8.172   1.221 -1.8261  1.5927 -0.2349
  603MOL0     H81356   2.730   8.098   1.439  1.0321 -0.6275  0.5758
  603MOL0     H81357   2.727   8.071   1.755 -2.7148 -0.7523  2.1983
  603MOL0     H81358   2.734   8.225   1.678 -1.5955  0.7168 -1.4139
  603MOL0     H81359   2.663   8.200   1.922 -1.7844 -2.6840  2.0420
  603MOL0     H81360   2.511   8.139   1.860  3.1785 -2.1101 -0.6544
  603MOL0     H81361   2.628   8.413   1.780  1.0456  2.4065  1.9359
  603MOL0     H81362   2.546   8.402   1.937 -2.7860 -1.7544 -0.2264
  603MOL0     H81363   2.415   8.355   1.672 -1.8064  0.9127 -0.7069
  603MOL0     H81364   2.414   8.507   1.769 -2.0828  0.5342  2.2192
  603MOL0     H81365   2.189   8.180   1.701 -0.3386 -1.3877  2.2816
  603MOL0     H81366   1.825   8.130   1.639  0.1961 -0.9760  2.3759
  603MOL0     H81367   1.942   8.187   1.518  2.1344  0.7153  0.3462
  603MOL0     H81368   1.977   8.056   1.650 -0.8106  0.2120  2.0202
  603MOL0     H81369   1.570   8.483   2.087 -2.1092 -1.6084  0.8797
  603MOL0     H81370   1.342   8.577   2.123  2.1611  3.4113  0.3508
  603MOL0     H81371   0.977   8.534   1.926 -0.6882  0.5079 -0.3383
  603MOL0     H81372   1.111   8.458   2.017 -0.9953 -0.0030  4.3146
  603MOL0     H81373   0.994   8.583   2.194  0.0877  1.0483  2.0744
  603MOL0     H81374   1.143   8.665   2.156 -0.2445 -0.1518 -0.4371
  603MOL0     H81375   0.980   8.812   1.981 -3.1787  3.6488  1.3687
  603MOL0     H81376   0.999   8.845   2.146 -1.3297  1.5435 -1.9406
  603MOL0     H81377   0.787   8.635   2.032 -0.3390 -0.5253  2.0744
  603MOL0     H81378   0.789   8.707   2.189 -1.0707 -2.8803 -0.6561
  603MOL0     H81379   0.735   8.858   1.922 -0.3447 -1.8498  0.5090
  603MOL0     H81380   0.762   8.927   2.083  1.7073 -0.2327  0.1273
  603MOL0     H81381   0.535   8.744   1.972 -0.8131  0.3991 -0.4221
  603MOL0     H81382   0.557   8.788   2.146 -2.1976  0.1992 -0.1158
  603MOL0     H81383   0.533   8.980   1.904 -1.4341 -1.0466 -2.1351
  603MOL0     H81384   0.550   9.022   2.076 -2.1414 -0.9478  2.2317
  603MOL0     H81385   0.317   8.876   1.946 -1.3901 -1.7382  1.5021
  603MOL0     H81386   0.314   9.047   1.983  4.4215  0.6919 -2.3667
  603MOL0     H81387   1.299   8.587   1.700 -0.1866 -2.3119 -0.5080
  603MOL0     H81388   1.529   8.531   1.670 -1.1373  1.2240 -0.8081
  603MOL0     H81389   1.935   8.527   1.940 -0.9947 -1.4239  0.0621
  603MOL0     H81390   2.161   8.507   1.965 -2.4494  0.9706  1.3660
  603MOL0     H81391   2.906   7.343   0.799  1.1663  0.5636  0.1744
  603MOL0     H81392   3.045   7.154   0.753  1.3540  0.9552 -1.7395
  603MOL0     H81393   2.922   6.642   0.664  1.1341  2.5779  1.1777
  603MOL0     H81394   3.061   6.434   0.644 -1.5178 -0.2583 -1.3954
  603MOL0     H81395   3.464   6.413   0.417 -2.8148  1.6403 -0.9317
  603MOL0     H81396   3.466   6.530   0.551  1.0416 -1.0106  2.5478
  603MOL0     H81397   3.470   6.361   0.721 -1.0536 -0.6416  0.2546
  603MOL0     H81398   3.598   6.322   0.603 -0.6015 -0.7017 -5.5719
  603MOL0     H81399   3.321   6.191   0.650  2.1256  0.7290  0.5836
  603MOL0     H81400   3.467   6.117   0.682  1.3111  0.8924  0.9889
  603MOL0     H81401   3.352   6.190   0.416 -2.6989 -3.4119  1.8389
  603MOL0     H81402   3.361   6.035   0.473 -2.0172  0.8136 -0.2683
  603MOL0     H81403   3.766   6.119   0.323  1.6335  1.6399  1.7128
  603MOL0     H81404   3.342   6.654   0.398  1.7755  1.5209  2.7041
  603MOL0     H81405   3.178   6.840   0.386  1.8548 -0.4290  0.8130
  604MOL0     O81406   1.933  10.565  10.977  0.3682 -0.2292  0.4343
  604MOL0     C81407   2.021  10.614  11.049  0.4436  0.4658 -0.3700
  604MOL0     O81408   2.002  10.693  11.159 -0.3557  0.6419 -0.5263
  604MOL0     C81409   1.886  10.670  11.222 -0.2215  0.3702 -0.1855
  604MOL0     C81410   1.872  10.572  11.323  0.7904 -0.1629  0.4346
  604MOL0     C81411   1.743  10.557  11.384  0.4349 -1.1310  0.3305
  604MOL0     C81412   1.640  10.651  11.359 -0.0067  0.8750  0.6205
  604MOL0     O81413   1.512  10.633  11.409  0.7204  0.5270 -0.3794
  604MOL0     C81414   1.424  10.547  11.323  0.6286  0.0324  0.3121
  604MOL0     C81415   1.280  10.552  11.363  0.0714 -0.1583 -0.1389
  604MOL0     C81416   1.194  10.444  11.291 -0.4580 -0.8489 -0.0941
  604MOL0     C81417   1.054  10.476  11.340  1.0754 -0.9072 -0.2462
  604MOL0     C81418   0.958  10.457  11.214 -0.0194  0.5231 -0.4457
  604MOL0     C81419   0.809  10.499  11.233  0.5966  0.1396  0.0161
  604MOL0     C81420   0.738  10.404  11.335  0.2377 -0.1400 -0.5844
  604MOL0     C81421   0.588  10.437  11.359  0.5882 -0.3425  0.9770
  604MOL0     N81422   0.524  10.379  11.474  0.2401  0.0383 -0.4147
  604MOL0     C81423   0.554  10.392  11.610 -0.1675 -0.4520 -0.5632
  604MOL0     C81424   0.482  10.298  11.671 -0.2780  1.0206  0.2192
  604MOL0     C81425   0.480  10.266  11.820  0.1884 -0.2821  0.7532
  604MOL0     C81426   0.611  10.215  11.875 -0.5812 -0.1730  0.6314
  604MOL0     C81427   0.620  10.063  11.858 -0.0704 -0.0675  1.0254
  604MOL0     C81428   0.755  10.012  11.886 -1.0581 -0.4601 -0.3074
  604MOL0     O81429   0.754   9.877  11.833 -0.0323 -0.5339 -0.4120
  604MOL0     C81430   0.864   9.801  11.839 -0.4526  0.2010  0.1239
  604MOL0     C81431   0.994   9.837  11.800 -0.3770 -0.3518 -0.4176
  604MOL0     C81432   1.109   9.768  11.824 -0.3366  0.4358 -0.3074
  604MOL0     C81433   1.227   9.819  11.758 -0.7092  0.4488 -0.2476
  604MOL0     C81434   1.093   9.651  11.894  0.1128  0.2475  0.0731
  604MOL0     C81435   1.222   9.569  11.947  0.3398 -0.3466 -1.1498
  604MOL0     O81436   1.336   9.582  11.870  0.3062  0.0149 -1.1218
  604MOL0     C81437   1.436   9.486  11.889 -1.1953 -0.3075  0.1040
  604MOL0     C81438   1.416   9.352  11.855 -0.2458  0.4374 -0.5908
  604MOL0     C81439   1.523   9.260  11.838  0.7219  0.1699 -0.0989
  604MOL0     C81440   1.653   9.303  11.851 -0.7487  0.0140 -0.1321
  604MOL0     O81441   1.766   9.217  11.843 -0.0455 -0.2822 -0.2108
  604MOL0     C81442   1.775   9.097  11.761 -0.3031  0.0906  0.1834
  604MOL0     C81443   1.753   9.125  11.613  0.5416 -0.9712  0.3466
  604MOL0     C81444   1.799   9.002  11.537 -0.1380  0.3308 -0.4703
  604MOL0     C81445   1.777   9.034  11.389  0.5501  0.6339 -0.6549
  604MOL0     C81446   1.637   9.058  11.345  0.4759 -0.2247 -0.2660
  604MOL0     C81447   1.539   8.941  11.359  0.1297 -0.1371 -0.0758
  604MOL0     C81448   1.396   8.982  11.325  1.3309  0.5270  0.0175
  604MOL0     C81449   1.339   9.089  11.423  0.1089  0.9305  0.3325
  604MOL0    Cl81450   1.320   9.040  11.594 -0.0670 -0.7848  0.0104
  604MOL0     C81451   1.685   9.436  11.890  0.5972 -0.4028  0.5014
  604MOL0     C81452   1.576   9.525  11.904 -0.6988  0.2562 -0.2732
  604MOL0     O81453   1.214   9.486  12.045 -0.3362 -0.4195 -0.8241
  604MOL0     C81454   0.970   9.602  11.934 -0.6607  0.2148  0.6526
  604MOL0     C81455   0.853   9.676  11.908  0.0905 -0.5749 -0.1246
  604MOL0     N81456   0.417  10.220  11.580  0.0778 -0.5578 -0.3065
  604MOL0     N81457   0.448  10.270  11.463  0.6203 -0.1142 -0.2998
  604MOL0     C81458   1.663  10.756  11.273  0.1471  0.3747 -0.5832
  604MOL0     C81459   1.777  10.765  11.198  0.6085  0.3258  0.3153
  604MOL0     C81460   2.151  10.572  11.036  0.1962  0.1859  0.0674
  604MOL0     C81461   2.248  10.561  11.134  0.7645  0.7135 -0.2483
  604MOL0     C81462   2.384  10.513  11.113 -0.5343 -0.1278 -0.0661
  604MOL0     C81463   2.430  10.481  10.989 -0.0820 -0.3953  1.1162
  604MOL0     O81464   2.563  10.457  10.950 -1.1720  0.5873 -0.1224
  604MOL0     C81465   2.667  10.458  11.048 -0.9731 -0.7972 -0.0154
  604MOL0     C81466   2.763  10.577  11.030  1.0304 -0.3593  0.6706
  604MOL0     C81467   2.865  10.564  11.140 -0.4400  0.0753 -0.5548
  604MOL0     C81468   2.964  10.683  11.122  0.0650  0.0645 -0.2911
  604MOL0     C81469   2.923  10.813  11.187 -0.1519 -0.0097 -0.0713
  604MOL0     C81470   2.898  10.907  11.256 -0.7475 -0.1655  0.8114
  604MOL0     C81471   2.331  10.494  10.885 -0.6172  0.1189 -0.0764
  604MOL0     C81472   2.201  10.545  10.907  0.3486  0.2533  0.1419
  604MOL0     H81473   1.949  10.499  11.346 -0.5150 -2.0844 -0.9690
  604MOL0     H81474   1.726  10.466  11.441  0.8690 -1.5707 -0.2140
  604MOL0     H81475   1.437  10.575  11.219 -0.5280  3.1320  0.8707
  604MOL0     H81476   1.453  10.442  11.336 -0.7259 -0.2668  1.2332
  604MOL0     H81477   1.259  10.543  11.471 -2.7951  3.0860 -0.2520
  604MOL0     H81478   1.237  10.650  11.340 -1.3999 -0.8751 -0.5684
  604MOL0     H81479   1.210  10.452  11.184  0.6085 -0.7178  0.0640
  604MOL0     H81480   1.231  10.345  11.320  1.7385  0.3052  1.3126
  604MOL0     H81481   1.024  10.412  11.424 -3.2213  2.1895  0.9567
  604MOL0     H81482   1.042  10.582  11.367  1.0978 -0.4823 -1.7804
  604MOL0     H81483   0.985  10.515  11.125  1.1651  1.0057  0.1998
  604MOL0     H81484   0.969  10.351  11.192  1.5282  0.8019 -1.1944
  604MOL0     H81485   0.810  10.605  11.258  2.2746  0.6542 -1.9657
  604MOL0     H81486   0.755  10.490  11.138 -0.2096  2.0069  0.2638
  604MOL0     H81487   0.750  10.299  11.305 -0.4932  0.0534 -1.6015
  604MOL0     H81488   0.793  10.413  11.429  1.3615 -1.5072 -1.0747
  604MOL0     H81489   0.528  10.392  11.279 -0.6720 -0.2965  1.8555
  604MOL0     H81490   0.582  10.545  11.372  2.6859 -0.2383  1.3567
  604MOL0     H81491   0.612  10.462  11.670  2.1281 -1.3941 -1.5905
  604MOL0     H81492   0.454  10.363  11.863 -0.6792  1.0283 -2.4229
  604MOL0     H81493   0.393  10.202  11.829  0.9757 -1.3923  0.6858
  604MOL0     H81494   0.623  10.255  11.976  0.1321 -0.1344  0.5361
  604MOL0     H81495   0.684  10.263  11.809  0.8072 -1.1786  1.3883
  604MOL0     H81496   0.583  10.050  11.756 -1.5765 -0.0967  1.5571
  604MOL0     H81497   0.553  10.008  11.925 -1.1638  2.5598  2.2061
  604MOL0     H81498   0.773  10.021  11.993  0.2791 -0.0466 -0.5436
  604MOL0     H81499   0.827  10.073  11.831 -1.1911 -2.1649 -2.5554
  604MOL0     H81500   0.989   9.926  11.738 -0.7378  0.3586  0.6072
  604MOL0     H81501   1.205   9.887  11.675 -1.6632  1.3696  0.7292
  604MOL0     H81502   1.282   9.877  11.833 -2.2322  1.8164 -0.1178
  604MOL0     H81503   1.282   9.732  11.723  0.1533 -0.9186  3.8764
  604MOL0     H81504   1.314   9.320  11.838 -1.1950  2.0448  1.5874
  604MOL0     H81505   1.495   9.163  11.798  0.1039 -1.1814  3.2630
  604MOL0     H81506   1.883   9.080  11.771  0.4273  2.7162 -2.0922
  604MOL0     H81507   1.713   9.017  11.803 -2.3285  0.3537 -2.1123
  604MOL0     H81508   1.645   9.128  11.595  0.3477 -2.7560  0.9474
  604MOL0     H81509   1.803   9.214  11.575 -0.7589 -1.0234 -1.6888
  604MOL0     H81510   1.758   8.904  11.565  0.9116 -0.1280 -0.5064
  604MOL0     H81511   1.906   8.993  11.557 -0.5387  2.6582  4.1009
  604MOL0     H81512   1.834   9.126  11.373  1.9781  0.7737  3.8697
  604MOL0     H81513   1.823   8.956  11.327 -1.3689  0.3886 -1.8576
  604MOL0     H81514   1.637   9.072  11.237 -2.7438  0.4964 -0.2679
  604MOL0     H81515   1.598   9.151  11.389 -1.6818 -2.0553  1.9432
  604MOL0     H81516   1.561   8.853  11.297  3.1665  0.0336  0.6037
  604MOL0     H81517   1.544   8.895  11.459 -0.5615  1.9720  0.9834
  604MOL0     H81518   1.335   8.892  11.331  1.8406  0.0398 -1.7201
  604MOL0     H81519   1.389   9.028  11.226  1.3466  3.2790  1.1916
  604MOL0     H81520   1.238   9.105  11.383 -0.3158 -2.9283 -0.6040
  604MOL0     H81521   1.385   9.188  11.426 -0.5577  1.2549 -0.0073
  604MOL0     H81522   1.789   9.458  11.914  0.6280 -1.5811  1.5703
  604MOL0     H81523   1.588   9.632  11.918 -0.6210  0.4035 -1.3511
  604MOL0     H81524   0.969   9.508  11.988  0.5436 -0.2454 -0.0874
  604MOL0     H81525   0.755   9.640  11.938 -1.1003  0.2183 -2.6667
  604MOL0     H81526   1.597  10.831  11.232  0.7975  0.4779 -1.4632
  604MOL0     H81527   1.788  10.842  11.122 -0.1283 -0.8692 -1.0612
  604MOL0     H81528   2.214  10.587  11.234  0.3938 -0.4881 -0.0441
  604MOL0     H81529   2.444  10.520  11.203 -0.8819 -0.8243  0.2239
  604MOL0     H81530   2.629  10.454  11.150  0.1597 -2.5502  0.3746
  604MOL0     H81531   2.717  10.364  11.023 -2.0168 -1.2032 -0.6713
  604MOL0     H81532   2.710  10.672  11.040  1.4114  0.2723 -2.3172
  604MOL0     H81533   2.804  10.574  10.928 -1.1313 -1.3139 -0.2417
  604MOL0     H81534   2.924  10.473  11.125  1.5397  1.0326  0.9918
  604MOL0     H81535   2.824  10.559  11.241 -2.6480 -1.8218 -1.4477
  604MOL0     H81536   2.976  10.697  11.014 -1.1105 -1.2953 -0.6281
  604MOL0     H81537   3.053  10.643  11.171 -1.9390 -1.7014  2.1703
  604MOL0     H81538   2.881  10.990  11.321 -1.8750  1.8414 -1.8773
  604MOL0     H81539   2.366  10.459  10.788  1.1984 -1.0800  0.9313
  604MOL0     H81540   2.139  10.549  10.817  1.6027  3.5085 -0.7345
  605MOL0     O81541   8.462   8.022  11.174 -0.5060  0.2673 -0.3765
  605MOL0     C81542   8.496   8.043  11.061  0.4959  0.0150  0.0053
  605MOL0     O81543   8.628   8.080  11.016  0.3066  0.6335 -0.6097
  605MOL0     C81544   8.730   8.073  11.103 -0.2179 -0.9444 -0.4175
  605MOL0     C81545   8.829   8.174  11.097  0.1132 -0.0788 -0.7262
  605MOL0     C81546   8.934   8.162  11.180 -0.1957 -0.1636 -1.7840
  605MOL0     C81547   8.953   8.055  11.265 -0.4495 -0.7707 -0.9891
  605MOL0     O81548   9.071   8.049  11.333 -0.8922 -0.5067  0.7278
  605MOL0     C81549   9.083   7.970  11.445  0.4498 -0.2399  0.1028
  605MOL0     C81550   9.226   7.963  11.501 -0.0199 -0.8275  1.2020
  605MOL0     C81551   9.287   8.080  11.587 -1.0360  0.0572 -0.2047
  605MOL0     C81552   9.264   8.216  11.527 -0.5571 -0.3743  1.4499
  605MOL0     C81553   9.314   8.337  11.595  0.2474  0.2733 -0.6943
  605MOL0     C81554   9.286   8.455  11.505  0.5224  1.0225 -0.0716
  605MOL0     C81555   9.302   8.585  11.569 -0.8250  0.0873 -0.3493
  605MOL0     C81556   9.244   8.700  11.499 -0.2284 -0.4417 -0.0271
  605MOL0     N81557   9.279   8.695  11.351 -0.5473  0.1452 -0.2948
  605MOL0     C81558   9.400   8.668  11.292  0.5500 -0.4931 -0.2285
  605MOL0     C81559   9.368   8.662  11.159  0.8757 -0.5847  0.0177
  605MOL0     C81560   9.458   8.625  11.038 -0.4292 -0.7157 -0.3379
  605MOL0     C81561   9.450   8.473  10.996  0.1456  0.1958 -1.1145
  605MOL0     C81562   9.481   8.386  11.119 -0.3181  1.6586 -0.0576
  605MOL0     C81563   9.503   8.234  11.100  0.0130 -0.4138  0.1441
  605MOL0     O81564   9.493   8.196  10.964  0.3098  0.1334 -0.1474
  605MOL0     C81565   9.372   8.124  10.920 -0.3761 -0.8834  0.0378
  605MOL0     C81566   9.389   8.040  10.808 -0.1221  0.5253  0.5556
  605MOL0     C81567   9.304   7.950  10.759  0.4672  0.4624 -1.4699
  605MOL0     C81568   9.346   7.883  10.633 -0.7136  0.2234 -0.0265
  605MOL0     C81569   9.178   7.948  10.828  0.2052 -0.1682 -0.4699
  605MOL0     C81570   9.079   7.843  10.794 -1.1082 -0.1269  0.3045
  605MOL0     O81571   8.949   7.887  10.776  0.2774 -0.2503 -0.3118
  605MOL0     C81572   8.847   7.800  10.744  0.4065  0.2289 -0.6680
  605MOL0     C81573   8.851   7.692  10.657 -0.4592  0.9761  0.2874
  605MOL0     C81574   8.741   7.601  10.640 -0.1195  0.0100 -0.0949
  605MOL0     C81575   8.615   7.618  10.705 -0.5181 -0.0926 -0.4971
  605MOL0     O81576   8.507   7.531  10.701 -0.0427 -0.6401 -0.2078
  605MOL0     C81577   8.501   7.430  10.599 -0.0636  0.5553 -0.0584
  605MOL0     C81578   8.354   7.394  10.584 -0.4495 -0.6434  0.3746
  605MOL0     C81579   8.352   7.264  10.497  0.2048 -0.2213 -0.4361
  605MOL0     C81580   8.202   7.216  10.495 -0.5692 -0.4594  0.1156
  605MOL0     C81581   8.169   7.094  10.398 -0.6818 -0.6226  0.4243
  605MOL0     C81582   8.180   7.138  10.254  0.4571 -0.0276  0.8165
  605MOL0     C81583   8.101   7.039  10.161 -0.3977 -0.1472 -0.2046
  605MOL0     C81584   8.106   7.075  10.011  0.7717  1.2253 -0.1097
  605MOL0    Cl81585   8.064   7.247   9.996  0.1792 -0.0606 -0.2348
  605MOL0     C81586   8.608   7.735  10.785 -1.1131 -0.4993  0.0086
  605MOL0     C81587   8.722   7.825  10.802  0.7039 -0.1631  1.3925
  605MOL0     O81588   9.128   7.733  10.777  0.7133  0.3095 -0.2127
  605MOL0     C81589   9.158   8.025  10.945 -0.5332 -0.0317 -0.9325
  605MOL0     C81590   9.251   8.120  10.988  0.6934  0.4882 -0.9209
  605MOL0     N81591   9.233   8.682  11.131 -0.3601  0.3017 -0.7819
  605MOL0     N81592   9.182   8.700  11.249  0.1217 -0.5537 -0.7314
  605MOL0     C81593   8.849   7.970  11.288 -0.2887 -0.4838  1.1168
  605MOL0     C81594   8.744   7.967  11.190 -0.2881 -0.0770 -0.3459
  605MOL0     C81595   8.377   8.053  10.971 -1.0748  0.1398  0.1680
  605MOL0     C81596   8.246   8.039  11.015  0.0025  0.1565 -0.4676
  605MOL0     C81597   8.136   8.008  10.931 -0.1293  0.7223 -0.2473
  605MOL0     C81598   8.163   7.999  10.798  0.4432  0.1156  0.1692
  605MOL0     O81599   8.049   7.970  10.728 -0.1112 -0.0589 -0.2916
  605MOL0     C81600   8.044   7.957  10.592  0.8312 -1.0767  0.8058
  605MOL0     C81601   8.029   7.810  10.550  0.0604 -0.6002 -0.3913
  605MOL0     C81602   8.062   7.795  10.401  0.6949  1.1562  0.4608
  605MOL0     C81603   8.024   7.661  10.351 -0.1459  0.9090 -1.1254
  605MOL0     C81604   8.086   7.626  10.224 -0.2662 -0.5556  0.2064
  605MOL0     C81605   8.124   7.589  10.118  0.0133  0.2972 -0.2676
  605MOL0     C81606   8.288   8.027  10.746 -0.7577  0.6370 -0.0937
  605MOL0     C81607   8.393   8.062  10.830 -0.5362  0.0230  0.2999
  605MOL0     H81608   8.821   8.258  11.028  2.1255  1.6165  0.9408
  605MOL0     H81609   9.014   8.235  11.176  0.1581  0.0574  3.2072
  605MOL0     H81610   9.015   7.996  11.527  0.4776  1.6304 -0.4253
  605MOL0     H81611   9.054   7.869  11.416 -1.2772  0.8561 -2.2835
  605MOL0     H81612   9.231   7.874  11.565 -0.3893 -0.9603  1.0474
  605MOL0     H81613   9.293   7.950  11.416 -0.9785  1.6123 -0.0133
  605MOL0     H81614   9.236   8.079  11.684 -0.4590  1.3504  0.1348
  605MOL0     H81615   9.395   8.066  11.593 -0.0219  5.8320  0.7738
  605MOL0     H81616   9.304   8.212  11.425 -2.5857 -0.4212  0.6157
  605MOL0     H81617   9.157   8.216  11.506 -0.2687 -2.8692 -0.5435
  605MOL0     H81618   9.259   8.344  11.690 -0.0338 -3.4933 -0.4299
  605MOL0     H81619   9.418   8.341  11.629 -0.6519  1.5640  2.2575
  605MOL0     H81620   9.353   8.445  11.419  0.5451  0.3787  0.0162
  605MOL0     H81621   9.187   8.459  11.459 -0.2936  0.6565  1.5944
  605MOL0     H81622   9.246   8.575  11.663 -1.4406  0.8241 -0.6288
  605MOL0     H81623   9.406   8.617  11.585 -1.4196  1.8358  0.2782
  605MOL0     H81624   9.279   8.794  11.544 -1.6652  0.0202  0.1805
  605MOL0     H81625   9.137   8.687  11.514 -0.4503  0.0065 -1.1580
  605MOL0     H81626   9.492   8.649  11.347  0.5163  0.7331  0.2952
  605MOL0     H81627   9.416   8.684  10.956 -1.3482  0.4853  0.9293
  605MOL0     H81628   9.556   8.660  11.071 -0.6887 -0.1442 -0.1530
  605MOL0     H81629   9.518   8.451  10.913  0.5629  0.5264 -0.8654
  605MOL0     H81630   9.350   8.450  10.959 -0.0154 -0.6570 -0.2088
  605MOL0     H81631   9.388   8.378  11.178 -0.5259 -0.4351 -0.5820
  605MOL0     H81632   9.552   8.433  11.187 -0.4805  1.9825 -0.1120
  605MOL0     H81633   9.438   8.183  11.172  0.7547 -1.2155  0.2486
  605MOL0     H81634   9.604   8.214  11.135  0.6038 -0.3712 -1.4395
  605MOL0     H81635   9.486   8.055  10.761 -0.9597 -0.5902 -1.7347
  605MOL0     H81636   9.275   7.893  10.551  0.3009  1.5563 -0.7820
  605MOL0     H81637   9.441   7.911  10.587 -1.4100  1.9122 -0.4997
  605MOL0     H81638   9.347   7.776  10.656 -1.2994  0.4198  0.9974
  605MOL0     H81639   8.948   7.661  10.618 -1.5827 -2.6241  0.0139
  605MOL0     H81640   8.751   7.508  10.585  2.2771 -0.1522  0.5089
  605MOL0     H81641   8.533   7.472  10.503  0.6945  2.0300  0.7876
  605MOL0     H81642   8.563   7.342  10.618 -1.8397 -1.2881 -2.2799
  605MOL0     H81643   8.301   7.376  10.678 -0.5403 -1.6171  0.1463
  605MOL0     H81644   8.293   7.467  10.530 -1.0767 -2.5668 -1.7007
  605MOL0     H81645   8.417   7.186  10.537 -0.1838  0.4445  1.6085
  605MOL0     H81646   8.396   7.289  10.400  3.3626  0.1343  0.9858
  605MOL0     H81647   8.174   7.187  10.597  0.2721  0.6279  0.6869
  605MOL0     H81648   8.135   7.300  10.474  2.8272  2.3437 -0.4743
  605MOL0     H81649   8.069   7.062  10.427 -1.0286 -1.4364 -1.5166
  605MOL0     H81650   8.234   7.007  10.412 -0.4423 -0.1688  2.4841
  605MOL0     H81651   8.138   7.238  10.240  1.5945  0.6352  1.9184
  605MOL0     H81652   8.281   7.135  10.215  0.4540  2.6429  0.4309
  605MOL0     H81653   7.996   7.050  10.189 -0.2488 -0.3675  0.4501
  605MOL0     H81654   8.141   6.938  10.167  1.0967  0.5173  1.9141
  605MOL0     H81655   8.035   7.024   9.945 -2.0160  4.4426  0.1465
  605MOL0     H81656   8.207   7.048   9.979 -0.4129 -4.0294 -0.3910
  605MOL0     H81657   8.516   7.766  10.834 -0.7580  0.8325 -0.1067
  605MOL0     H81658   8.723   7.911  10.868  0.1161 -1.1781  2.7712
  605MOL0     H81659   9.072   8.006  11.007  0.4378  0.4973  0.6290
  605MOL0     H81660   9.233   8.171  11.082  0.5900  0.8380 -1.1314
  605MOL0     H81661   8.841   7.879  11.346 -0.8710 -1.3682 -0.2949
  605MOL0     H81662   8.659   7.900  11.197  0.2764 -0.8794 -0.9798
  605MOL0     H81663   8.227   8.056  11.120  0.9120  0.4637 -0.3514
  605MOL0     H81664   8.039   7.988  10.976  0.2903  1.1536  0.8978
  605MOL0     H81665   7.953   8.008  10.559  0.8235 -0.1625  2.1646
  605MOL0     H81666   8.133   8.002  10.547  0.3143  0.3435  1.1478
  605MOL0     H81667   7.924   7.786  10.567 -0.7144  2.9990  0.7517
  605MOL0     H81668   8.092   7.742  10.609  1.3523 -0.5770 -1.6850
  605MOL0     H81669   8.167   7.814  10.376  1.0067  0.0911  0.9167
  605MOL0     H81670   7.991   7.862  10.351 -2.1301 -1.9282 -0.0355
  605MOL0     H81671   7.916   7.649  10.352 -0.1701  0.9244 -2.2872
  605MOL0     H81672   8.058   7.591  10.427 -1.0754  2.4811  0.8114
  605MOL0     H81673   8.131   7.559  10.015  0.1806  0.9391 -0.4518
  605MOL0     H81674   8.309   8.030  10.640 -0.3329 -4.5351 -0.3851
  605MOL0     H81675   8.484   8.102  10.787  0.6716 -0.9906  1.8241
  606MOL0     O81676   4.223   8.108   4.855 -0.5833  0.7989 -0.0595
  606MOL0     C81677   4.220   7.985   4.876 -0.1270  0.5940  0.6537
  606MOL0     O81678   4.290   7.912   4.970 -0.5917  0.2819  0.2058
  606MOL0     C81679   4.385   7.963   5.060  1.1826  0.4159  1.1021
  606MOL0     C81680   4.484   7.875   5.073 -0.0216 -0.3456  0.4002
  606MOL0     C81681   4.605   7.912   5.142 -0.1532 -0.0961  0.5061
  606MOL0     C81682   4.622   8.040   5.198  0.7033 -0.1591  0.3196
  606MOL0     O81683   4.730   8.059   5.274  0.2001  0.4849  0.3355
  606MOL0     C81684   4.743   8.179   5.346  0.1031  0.2661  0.7536
  606MOL0     C81685   4.869   8.181   5.416 -0.1532 -0.2406  0.3680
  606MOL0     C81686   4.880   8.149   5.567  0.5317  0.4271  0.8445
  606MOL0     C81687   5.018   8.187   5.629  0.6859 -0.2332 -0.7110
  606MOL0     C81688   5.026   8.198   5.786 -0.4910  0.6721 -0.0156
  606MOL0     C81689   5.174   8.171   5.845  0.0391 -1.0576  0.4764
  606MOL0     C81690   5.183   8.205   5.993  0.6121  0.8776 -0.5668
  606MOL0     C81691   5.320   8.158   6.044 -0.9654 -0.0153  0.4049
  606MOL0     N81692   5.305   8.142   6.187 -0.2463 -0.1659  0.1355
  606MOL0     C81693   5.256   8.020   6.236  0.0787 -1.1072 -0.0568
  606MOL0     C81694   5.213   8.052   6.363 -0.2168 -0.3682  0.3712
  606MOL0     C81695   5.179   7.953   6.469  0.2729 -1.2197 -0.7456
  606MOL0     C81696   5.048   7.879   6.431  0.7994  0.0723 -0.4399
  606MOL0     C81697   5.072   7.745   6.362  0.2621  0.4711  0.2992
  606MOL0     C81698   4.939   7.654   6.362  0.1262  0.1039 -1.2488
  606MOL0     O81699   4.830   7.702   6.277  0.4298  0.2506 -0.2595
  606MOL0     C81700   4.719   7.633   6.309  0.6727 -0.2001  0.7308
  606MOL0     C81701   4.704   7.496   6.305 -1.3704  0.6785  0.1103
  606MOL0     C81702   4.581   7.443   6.345 -0.1116  0.7505 -0.5421
  606MOL0     C81703   4.575   7.285   6.334 -0.9788  0.2155 -1.0695
  606MOL0     C81704   4.462   7.525   6.359  0.6321  0.2784  0.5513
  606MOL0     C81705   4.323   7.468   6.364  0.4053  0.7609  0.2726
  606MOL0     O81706   4.219   7.556   6.333 -0.2779  0.2366  0.3858
  606MOL0     C81707   4.095   7.500   6.365  0.6732  0.4945  0.8344
  606MOL0     C81708   4.034   7.395   6.289 -0.8673  0.6076  0.5223
  606MOL0     C81709   3.922   7.330   6.336  0.1458 -0.5365  0.0736
  606MOL0     C81710   3.856   7.372   6.455  0.0978  0.8396  0.5192
  606MOL0     O81711   3.729   7.316   6.473 -0.4119  0.6086 -0.3294
  606MOL0     C81712   3.681   7.317   6.612  0.3505 -0.0185  0.1194
  606MOL0     C81713   3.551   7.244   6.624 -0.2570  0.0027 -1.1620
  606MOL0     C81714   3.441   7.342   6.574  0.5783 -0.2365  0.2540
  606MOL0     C81715   3.294   7.287   6.599  0.7890 -0.5732  0.1833
  606MOL0     C81716   3.185   7.397   6.552  0.2564  0.4877 -0.4636
  606MOL0     C81717   3.200   7.419   6.399 -0.4798  0.5488  0.5185
  606MOL0     C81718   3.098   7.527   6.358 -1.2904 -0.1463  0.1535
  606MOL0     C81719   3.104   7.549   6.204 -0.4377 -0.0960  0.0216
  606MOL0    Cl81720   3.273   7.518   6.131 -0.3425  0.0074  0.1609
  606MOL0     C81721   3.910   7.478   6.530 -0.9660 -0.3131 -0.0413
  606MOL0     C81722   4.038   7.533   6.492  1.1065 -0.1882 -0.5124
  606MOL0     O81723   4.301   7.350   6.407 -1.0519 -0.1000  0.5594
  606MOL0     C81724   4.482   7.665   6.362 -1.1049  0.7722  0.6548
  606MOL0     C81725   4.606   7.712   6.330 -0.0113  0.2124  0.4030
  606MOL0     N81726   5.234   8.184   6.382  0.4694 -0.2868 -0.0791
  606MOL0     N81727   5.302   8.231   6.285  0.1800 -0.1955 -0.5598
  606MOL0     C81728   4.516   8.127   5.182 -0.0385  0.3458  0.4375
  606MOL0     C81729   4.399   8.089   5.112  0.6722  0.4781  0.5590
  606MOL0     C81730   4.150   7.902   4.777 -0.5488 -1.2545  0.5586
  606MOL0     C81731   4.174   7.764   4.786  0.3423 -0.4901 -1.0578
  606MOL0     C81732   4.140   7.694   4.669 -0.7873 -0.2968  0.1761
  606MOL0     C81733   4.061   7.742   4.564  1.1344 -0.5267  0.4699
  606MOL0     O81734   4.011   7.666   4.464 -0.3163  0.3778 -0.4906
  606MOL0     C81735   3.916   7.567   4.511  0.1292 -0.3703  0.9591
  606MOL0     C81736   3.889   7.485   4.399  0.4587  0.4042  0.0151
  606MOL0     C81737   3.758   7.413   4.425 -0.6112 -0.2901  0.4520
  606MOL0     C81738   3.742   7.313   4.312 -0.3903 -0.4830  0.2939
  606MOL0     C81739   3.641   7.223   4.353 -0.1878 -0.1103  0.3701
  606MOL0     C81740   3.539   7.175   4.403 -0.0133 -0.0771  0.0097
  606MOL0     C81741   4.016   7.876   4.575  0.2961  1.5994 -0.6111
  606MOL0     C81742   4.064   7.952   4.683  0.4161  0.9080  0.4252
  606MOL0     H81743   4.489   7.773   5.035 -2.0477 -1.1610  2.1227
  606MOL0     H81744   4.690   7.851   5.173  0.1488  1.4754  3.0877
  606MOL0     H81745   4.740   8.260   5.273  0.6665  0.3297  0.8018
  606MOL0     H81746   4.651   8.183   5.406 -0.4304 -0.7067  0.0308
  606MOL0     H81747   4.940   8.111   5.370  1.4050  2.6118 -1.9447
  606MOL0     H81748   4.900   8.284   5.395 -2.1496  0.1398 -1.0406
  606MOL0     H81749   4.810   8.213   5.621  0.6018  0.6953  0.6209
  606MOL0     H81750   4.845   8.048   5.591 -2.3113  1.3106  0.6805
  606MOL0     H81751   5.099   8.117   5.609 -0.8717 -2.1838 -0.5789
  606MOL0     H81752   5.038   8.287   5.590  1.3468  0.9844  2.4030
  606MOL0     H81753   4.975   8.291   5.813 -0.5119  0.7935 -0.4705
  606MOL0     H81754   4.961   8.123   5.831  0.0636 -0.4989 -1.1237
  606MOL0     H81755   5.200   8.066   5.830 -1.8668 -1.5687  0.5520
  606MOL0     H81756   5.239   8.239   5.790 -0.2821 -1.5766 -0.5800
  606MOL0     H81757   5.173   8.312   6.015 -1.5299  0.5775  0.1300
  606MOL0     H81758   5.098   8.148   6.032  1.5301 -0.5272 -0.5545
  606MOL0     H81759   5.397   8.221   5.998 -0.6231 -2.8099 -3.3199
  606MOL0     H81760   5.347   8.057   6.011 -0.8922 -0.6046  2.1893
  606MOL0     H81761   5.256   7.926   6.181 -0.3400  1.2588 -4.6091
  606MOL0     H81762   5.266   7.888   6.482  0.1555 -0.9814  1.5299
  606MOL0     H81763   5.146   7.998   6.563 -6.4675 -2.7413 -1.8787
  606MOL0     H81764   4.981   7.939   6.369  1.2082  0.5598 -0.4204
  606MOL0     H81765   4.999   7.853   6.525  2.2819 -0.6559  0.1614
  606MOL0     H81766   5.153   7.691   6.411  0.3676 -0.6601 -1.0419
  606MOL0     H81767   5.094   7.752   6.255  2.5316  1.3984  0.7688
  606MOL0     H81768   4.909   7.649   6.467  3.0513 -2.8136 -0.4150
  606MOL0     H81769   4.968   7.554   6.331  0.5380 -1.0538  2.3410
  606MOL0     H81770   4.795   7.439   6.287 -1.0677  0.2017  2.6993
  606MOL0     H81771   4.667   7.233   6.305 -2.6293 -3.4841 -0.2566
  606MOL0     H81772   4.538   7.255   6.432 -1.5948  1.8361 -0.7677
  606MOL0     H81773   4.500   7.244   6.265  0.9987 -2.3792 -1.8064
  606MOL0     H81774   4.073   7.348   6.199 -0.7484 -1.2717  1.4973
  606MOL0     H81775   3.895   7.248   6.270  4.9064 -1.8616 -0.6337
  606MOL0     H81776   3.760   7.273   6.674  2.7316  0.6410 -2.2458
  606MOL0     H81777   3.669   7.420   6.648 -0.1280  0.0583 -0.2452
  606MOL0     H81778   3.569   7.153   6.566  0.2022 -0.2319 -0.6563
  606MOL0     H81779   3.544   7.229   6.732 -0.2588  0.3108 -1.1191
  606MOL0     H81780   3.465   7.348   6.468 -0.2551  0.9317  0.1212
  606MOL0     H81781   3.439   7.435   6.632 -1.3346 -0.0896  0.0112
  606MOL0     H81782   3.282   7.205   6.528  1.1068 -2.7715  2.5555
  606MOL0     H81783   3.266   7.261   6.701 -2.9488  0.8181 -0.3124
  606MOL0     H81784   3.203   7.492   6.602 -0.6246  2.0302 -2.8616
  606MOL0     H81785   3.089   7.360   6.587  1.8414 -1.5816  2.0255
  606MOL0     H81786   3.303   7.448   6.376 -0.5549  1.2732  1.0618
  606MOL0     H81787   3.185   7.330   6.337  1.9857  1.1720 -1.0824
  606MOL0     H81788   3.132   7.620   6.405  0.2655 -0.8827  0.5469
  606MOL0     H81789   2.996   7.517   6.396 -2.2659  4.0874 -0.7399
  606MOL0     H81790   3.075   7.655   6.199  0.5347  0.2318  0.8915
  606MOL0     H81791   3.023   7.492   6.158 -1.5951  0.6562  1.0700
  606MOL0     H81792   3.855   7.523   6.611 -3.2099  2.1319 -2.7027
  606MOL0     H81793   4.089   7.605   6.555  3.3808  1.0999 -3.5437
  606MOL0     H81794   4.401   7.735   6.376 -2.5529 -0.5553 -0.7469
  606MOL0     H81795   4.616   7.820   6.322  1.1256  0.4390  3.5097
  606MOL0     H81796   4.505   8.228   5.221 -1.1751  0.9995 -1.4200
  606MOL0     H81797   4.332   8.173   5.096  2.4572  1.4837 -2.2860
  606MOL0     H81798   4.229   7.716   4.867  0.1657 -0.5534 -0.9738
  606MOL0     H81799   4.171   7.591   4.658  0.0199 -0.1394  0.9150
  606MOL0     H81800   3.952   7.503   4.593 -1.8500 -2.2875  0.4284
  606MOL0     H81801   3.823   7.616   4.542  0.5652  0.4795  0.9592
  606MOL0     H81802   3.964   7.406   4.392 -1.0704 -1.1249  0.0733
  606MOL0     H81803   3.875   7.549   4.311 -2.3601  3.2671  2.3371
  606MOL0     H81804   3.681   7.490   4.416  0.4157  0.8115  0.6829
  606MOL0     H81805   3.750   7.374   4.527  0.6802 -0.6086  0.4507
  606MOL0     H81806   3.832   7.255   4.292  0.9284  1.2469  0.9747
  606MOL0     H81807   3.722   7.367   4.219 -1.2419 -1.1803  0.0555
  606MOL0     H81808   3.448   7.123   4.424 -1.0473  2.0084  1.0226
  606MOL0     H81809   3.944   7.921   4.508 -4.6934 -2.3870  1.4203
  606MOL0     H81810   4.041   8.058   4.688  2.5035  1.3378  2.5025
  607MOL0     O81811   9.775   2.685   3.080  0.0366 -0.5447 -0.2582
  607MOL0     C81812   9.886   2.681   3.127  0.6967  0.4365 -0.3115
  607MOL0     O81813   9.969   2.786   3.168  0.1027  0.0898 -0.1345
  607MOL0     C81814   9.930   2.919   3.142  0.4423  0.0070  0.1360
  607MOL0     C81815   9.882   2.972   3.024  1.1200  0.1788  0.2758
  607MOL0     C81816   9.850   3.104   3.004 -0.5181 -0.2245 -0.1403
  607MOL0     C81817   9.859   3.189   3.110  0.3127 -0.5579  0.7861
  607MOL0     O81818   9.807   3.315   3.089  0.9768 -0.3956 -0.8921
  607MOL0     C81819   9.841   3.417   3.185  0.3283  0.4222  0.0191
  607MOL0     C81820   9.758   3.531   3.120  0.1122  1.2935 -0.0029
  607MOL0     C81821   9.806   3.581   2.988 -1.0638  0.3802 -1.1093
  607MOL0     C81822   9.956   3.640   2.985  0.6609 -0.3122 -0.8423
  607MOL0     C81823  10.003   3.675   2.849  0.2823 -0.7616 -0.4263
  607MOL0     C81824  10.019   3.544   2.766  0.5349 -0.6321  0.4318
  607MOL0     C81825  10.080   3.569   2.623 -0.2720 -0.0289 -0.5434
  607MOL0     C81826  10.019   3.465   2.523 -0.6121 -1.3335 -1.0727
  607MOL0     N81827   9.884   3.493   2.488 -0.0842 -0.6714  0.0348
  607MOL0     C81828   9.770   3.431   2.523 -0.1375 -0.2382 -0.2854
  607MOL0     C81829   9.663   3.507   2.488 -0.0760  0.3119 -0.4799
  607MOL0     C81830   9.522   3.469   2.502  0.0909  0.5399  0.3735
  607MOL0     C81831   9.445   3.600   2.527  0.8965 -0.8747 -0.9420
  607MOL0     C81832   9.443   3.638   2.677 -1.3624  0.6838 -0.2055
  607MOL0     C81833   9.365   3.768   2.726  0.6061 -0.2708 -0.2428
  607MOL0     O81834   9.440   3.887   2.704  0.6138  0.7045 -0.2292
  607MOL0     C81835   9.532   3.920   2.804  0.4711 -0.5739 -0.0937
  607MOL0     C81836   9.619   4.025   2.757  1.0880 -0.5331 -0.9017
  607MOL0     C81837   9.727   4.075   2.834  0.7418 -0.3889  0.2982
  607MOL0     C81838   9.811   4.190   2.776 -0.4093 -0.6727  0.6435
  607MOL0     C81839   9.752   4.013   2.967  0.4132 -0.0517  0.4003
  607MOL0     C81840   9.858   4.057   3.066  0.3945 -0.0476 -1.2579
  607MOL0     O81841   9.830   4.042   3.204  0.1893 -0.6171  0.2093
  607MOL0     C81842   9.932   4.032   3.293  1.0169  0.2502  0.1106
  607MOL0     C81843  10.061   3.987   3.270 -0.0794  0.5663  0.5379
  607MOL0     C81844  10.154   3.965   3.367 -0.5617 -0.8729  1.1867
  607MOL0     C81845  10.114   4.023   3.491  0.0018  0.1954  1.4286
  607MOL0     O81846  10.191   3.990   3.597  0.0204 -0.6207  0.2457
  607MOL0     C81847  10.321   3.935   3.591  0.0934 -0.4222 -0.7162
  607MOL0     C81848  10.366   3.912   3.735  0.5804 -0.3992  0.4573
  607MOL0     C81849  10.287   3.809   3.821 -1.1300 -0.1447  0.5958
  607MOL0     C81850  10.320   3.833   3.966 -0.7645  0.3227 -0.1367
  607MOL0     C81851  10.461   3.799   4.008  0.0212 -0.0373  0.1905
  607MOL0     C81852  10.472   3.777   4.156 -0.0162  0.0515  0.6924
  607MOL0     C81853  10.402   3.885   4.234 -0.3850  0.9034  0.7222
  607MOL0     C81854  10.417   3.881   4.382 -0.4468  0.2745  0.4235
  607MOL0    Cl81855  10.583   3.900   4.421  0.3011  0.0619 -0.1893
  607MOL0     C81856  10.002   4.091   3.514  0.7409  0.2406  0.0200
  607MOL0     C81857   9.907   4.098   3.410 -0.7060  0.2295 -0.2755
  607MOL0     O81858   9.956   4.108   3.023 -0.5638 -0.5183  0.3623
  607MOL0     C81859   9.663   3.914   3.014 -0.2884  0.0398  0.7923
  607MOL0     C81860   9.551   3.872   2.939 -0.2935 -0.4413  0.8176
  607MOL0     N81861   9.720   3.620   2.417  0.9310 -0.1478  0.6201
  607MOL0     N81862   9.845   3.600   2.417 -0.1118  0.1962 -0.5069
  607MOL0     C81863   9.908   3.142   3.229  0.6285  0.9490 -0.1230
  607MOL0     C81864   9.950   3.009   3.246  0.3191 -0.1997  0.0278
  607MOL0     C81865   9.945   2.547   3.137  0.1174  0.6334 -0.2979
  607MOL0     C81866  10.076   2.517   3.093  0.2585 -1.0805  0.2303
  607MOL0     C81867  10.136   2.393   3.101 -0.1067 -1.1391  0.6169
  607MOL0     C81868  10.054   2.290   3.146  0.4124  0.8931  0.2578
  607MOL0     O81869  10.097   2.160   3.167 -0.0688  0.2514  1.1062
  607MOL0     C81870  10.229   2.136   3.125  0.3471  0.8259  0.0596
  607MOL0     C81871  10.255   1.989   3.137 -0.1494 -0.1434 -0.8224
  607MOL0     C81872  10.155   1.898   3.057 -0.2674 -0.8652 -0.1018
  607MOL0     C81873  10.195   1.745   3.063  0.4031  0.1444 -0.3500
  607MOL0     C81874  10.193   1.702   3.203 -0.0991 -0.1891 -0.8387
  607MOL0     C81875  10.214   1.665   3.319  0.9847 -0.1332  0.2930
  607MOL0     C81876   9.920   2.314   3.186 -0.2955  0.1942 -1.1260
  607MOL0     C81877   9.866   2.441   3.180 -1.3447 -0.1766  0.4059
  607MOL0     H81878   9.852   2.901   2.947 -0.3616  1.1363 -0.0540
  607MOL0     H81879   9.821   3.152   2.912 -0.6683  0.2587  0.1548
  607MOL0     H81880   9.786   3.389   3.275 -0.0645  1.3824  0.0974
  607MOL0     H81881   9.948   3.435   3.198  0.7996  0.8827 -3.5534
  607MOL0     H81882   9.655   3.502   3.097  0.7052 -0.1764 -0.9721
  607MOL0     H81883   9.755   3.610   3.195 -0.6894  0.2843  1.0548
  607MOL0     H81884   9.791   3.499   2.916 -1.5069  2.4698 -3.5429
  607MOL0     H81885   9.740   3.664   2.960  0.9762  1.8726 -1.6647
  607MOL0     H81886   9.964   3.738   3.034 -1.0890  0.9979 -3.0015
  607MOL0     H81887  10.016   3.560   3.029 -1.5168 -1.1817  0.6808
  607MOL0     H81888   9.937   3.745   2.797 -0.6035 -1.2727 -0.0118
  607MOL0     H81889  10.101   3.722   2.842  0.1937 -0.8160 -3.0338
  607MOL0     H81890  10.076   3.468   2.821 -0.4646 -2.1126 -0.5045
  607MOL0     H81891   9.920   3.507   2.738 -0.0299  2.9412 -3.2279
  607MOL0     H81892  10.070   3.671   2.585  1.7548  0.1665 -0.6628
  607MOL0     H81893  10.187   3.557   2.643 -0.5129  0.8322  1.5424
  607MOL0     H81894  10.022   3.362   2.560  0.2301 -0.8177  0.3748
  607MOL0     H81895  10.085   3.471   2.436  1.4625 -2.7403  0.3105
  607MOL0     H81896   9.761   3.338   2.578 -2.1832  0.3385  0.4464
  607MOL0     H81897   9.472   3.422   2.417  0.4914  1.8350 -0.6069
  607MOL0     H81898   9.506   3.395   2.581  0.1810 -2.7155 -2.4275
  607MOL0     H81899   9.342   3.584   2.496 -0.2216 -0.0883  1.9801
  607MOL0     H81900   9.479   3.686   2.469 -0.5200 -0.7591 -1.6357
  607MOL0     H81901   9.544   3.633   2.720 -1.5667 -0.0475  0.1958
  607MOL0     H81902   9.396   3.557   2.733 -0.9264  1.0414  0.7070
  607MOL0     H81903   9.357   3.753   2.834  1.1264  1.9500  0.1434
  607MOL0     H81904   9.265   3.763   2.682  0.1780 -2.1934  0.8035
  607MOL0     H81905   9.629   4.051   2.652  2.2708  0.7427 -0.4983
  607MOL0     H81906   9.887   4.144   2.712  1.4585 -2.4926  3.8505
  607MOL0     H81907   9.739   4.250   2.721 -0.7666 -0.0242  1.7752
  607MOL0     H81908   9.855   4.255   2.852 -1.3329 -2.0913  2.4722
  607MOL0     H81909  10.086   3.957   3.168  0.1976  1.6114  0.2789
  607MOL0     H81910  10.250   3.918   3.350 -0.4242 -0.2025 -0.0407
  607MOL0     H81911  10.323   3.848   3.525  1.8247  1.4051 -3.2373
  607MOL0     H81912  10.382   4.012   3.544 -1.2573  3.3113  2.9612
  607MOL0     H81913  10.471   3.882   3.729  0.9519  0.8969 -5.3398
  607MOL0     H81914  10.365   4.007   3.789  1.4373  0.6207 -1.2221
  607MOL0     H81915  10.325   3.710   3.795 -0.1339 -0.3574  2.6413
  607MOL0     H81916  10.183   3.808   3.788 -1.0912  0.0663  0.4684
  607MOL0     H81917  10.290   3.937   3.981  0.9561  1.1418 -1.8974
  607MOL0     H81918  10.257   3.763   4.023  0.2759 -0.4835  0.0366
  607MOL0     H81919  10.524   3.886   3.985 -2.3990  1.2671 -2.0223
  607MOL0     H81920  10.504   3.714   3.955 -1.0589 -0.1094 -0.5937
  607MOL0     H81921  10.434   3.680   4.189 -2.6999  1.3231  1.6257
  607MOL0     H81922  10.578   3.786   4.182 -0.1464  1.7690  0.7986
  607MOL0     H81923  10.294   3.879   4.217 -0.3238  1.0945  0.2406
  607MOL0     H81924  10.419   3.987   4.199 -1.8245  1.0927  0.5061
  607MOL0     H81925  10.381   3.792   4.434 -0.6199 -0.5060 -0.9795
  607MOL0     H81926  10.373   3.969   4.429 -0.7679 -0.7899  2.2135
  607MOL0     H81927   9.974   4.116   3.616  0.3896  0.2047 -0.0650
  607MOL0     H81928   9.808   4.141   3.420 -0.5713  0.6860 -0.8396
  607MOL0     H81929   9.695   3.879   3.112  0.7449  2.8626  1.5771
  607MOL0     H81930   9.483   3.794   2.975 -1.1538 -0.5816 -1.0075
  607MOL0     H81931   9.908   3.210   3.314  2.0552  0.6357  0.1458
  607MOL0     H81932   9.974   2.973   3.346 -0.3005 -3.6669 -0.9245
  607MOL0     H81933  10.129   2.601   3.049 -0.9108  0.3945  1.5383
  607MOL0     H81934  10.239   2.373   3.075  0.9784  2.9511  1.0386
  607MOL0     H81935  10.233   2.163   3.019 -0.0311 -3.5185 -1.2478
  607MOL0     H81936  10.307   2.194   3.174  0.2945  1.9886 -1.1756
  607MOL0     H81937  10.242   1.962   3.242 -3.6485 -0.0305 -1.1247
  607MOL0     H81938  10.356   1.977   3.097 -0.2011 -0.7823 -0.7712
  607MOL0     H81939  10.141   1.929   2.953  0.9528 -0.5842 -0.1988
  607MOL0     H81940  10.055   1.908   3.098 -1.2303  0.9025 -2.6356
  607MOL0     H81941  10.295   1.727   3.022  0.1123  1.4484 -1.7359
  607MOL0     H81942  10.131   1.688   2.995  0.2184  1.4794 -1.3497
  607MOL0     H81943  10.221   1.639   3.422 -1.1532 -2.0889  0.0371
  607MOL0     H81944   9.859   2.231   3.219  0.6271 -0.2490 -0.4777
  607MOL0     H81945   9.763   2.447   3.214 -1.2531 -3.3567  1.5143
  608MOL0     O81946   3.129   5.359   4.989  0.3292 -0.6727 -0.2495
  608MOL0     C81947   3.219   5.310   5.051  0.0561  0.4943  0.3711
  608MOL0     O81948   3.216   5.186   5.118  0.4564 -0.7916  0.3390
  608MOL0     C81949   3.103   5.104   5.105  0.2881 -0.1050 -0.4506
  608MOL0     C81950   3.079   5.032   4.991 -0.1599  0.5820  0.7822
  608MOL0     C81951   2.960   4.944   4.985  0.3129  0.2869 -0.1169
  608MOL0     C81952   2.874   4.937   5.089  0.8227 -0.4762 -0.3423
  608MOL0     O81953   2.765   4.855   5.093  0.5957 -0.1747 -0.0330
  608MOL0     C81954   2.752   4.742   5.013 -0.1949 -0.2817 -0.0137
  608MOL0     C81955   2.685   4.770   4.874  0.0753 -0.6531 -0.3446
  608MOL0     C81956   2.552   4.836   4.909 -0.1406  0.1843 -0.3956
  608MOL0     C81957   2.490   4.892   4.782 -0.1268 -0.6560  0.3809
  608MOL0     C81958   2.381   4.988   4.832  0.9034 -0.2747  0.8751
  608MOL0     C81959   2.274   5.027   4.729  0.0035  0.5080  0.6247
  608MOL0     C81960   2.190   4.912   4.663 -0.5792 -0.1464  0.8663
  608MOL0     C81961   2.168   4.796   4.760 -0.0592  0.0396  0.1166
  608MOL0     N81962   2.077   4.686   4.715 -1.0274  0.0524  0.2810
  608MOL0     C81963   2.103   4.555   4.671 -0.6008 -0.5034 -0.6970
  608MOL0     C81964   1.982   4.488   4.669  0.1631  1.0916 -0.5166
  608MOL0     C81965   1.951   4.357   4.601 -0.2488  0.5868 -0.5161
  608MOL0     C81966   1.960   4.249   4.705 -0.2862  0.1494  0.2232
  608MOL0     C81967   1.971   4.112   4.644  0.4559  0.8925 -0.1196
  608MOL0     C81968   2.023   4.012   4.750 -0.4484 -0.1635  0.3183
  608MOL0     O81969   2.151   4.043   4.798  0.2583  0.3853 -0.3005
  608MOL0     C81970   2.208   3.961   4.898  0.8375 -0.4085 -0.4935
  608MOL0     C81971   2.330   4.006   4.950  0.0665  0.2368 -0.1827
  608MOL0     C81972   2.378   3.953   5.065 -0.2470  0.7500  0.8786
  608MOL0     C81973   2.510   4.002   5.112  0.3549 -0.5213 -1.6349
  608MOL0     C81974   2.314   3.846   5.135 -1.2227 -0.6383 -0.1577
  608MOL0     C81975   2.362   3.776   5.252  0.6474  0.2035  1.0750
  608MOL0     O81976   2.499   3.773   5.276  0.3923  0.2235  0.7346
  608MOL0     C81977   2.556   3.728   5.398  0.5656 -0.8312  0.3925
  608MOL0     C81978   2.512   3.619   5.481  0.1865 -0.6681  0.6074
  608MOL0     C81979   2.594   3.570   5.583 -0.9026  0.3775 -0.9307
  608MOL0     C81980   2.723   3.612   5.594  1.5152 -0.6630  0.4563
  608MOL0     O81981   2.802   3.550   5.681  0.4745 -0.3609 -0.1456
  608MOL0     C81982   2.939   3.541   5.652 -0.5097 -0.4918  1.0252
  608MOL0     C81983   2.991   3.393   5.682  0.6289 -0.5382  0.4003
  608MOL0     C81984   3.141   3.366   5.677 -0.3017 -0.2661 -0.3491
  608MOL0     C81985   3.201   3.436   5.554 -0.0386 -0.0104 -0.4017
  608MOL0     C81986   3.337   3.386   5.521  0.9646  1.2159 -0.3675
  608MOL0     C81987   3.406   3.442   5.383 -0.4364  0.8695 -0.9071
  608MOL0     C81988   3.546   3.397   5.355 -0.2241 -0.8632  0.5855
  608MOL0     C81989   3.563   3.389   5.199 -0.6280  0.3978 -0.3495
  608MOL0    Cl81990   3.494   3.224   5.148 -0.6079  0.3900  0.7692
  608MOL0     C81991   2.765   3.723   5.509  0.3274  0.1516  0.6306
  608MOL0     C81992   2.683   3.780   5.417  0.8215 -0.6214  0.3127
  608MOL0     O81993   2.276   3.721   5.320  1.0014 -0.5074  0.0585
  608MOL0     C81994   2.192   3.808   5.078 -0.0803 -0.3574 -0.0590
  608MOL0     C81995   2.130   3.856   4.963  0.6005 -0.4530 -0.9164
  608MOL0     N81996   1.884   4.578   4.708  0.4132 -0.9281 -0.4904
  608MOL0     N81997   1.940   4.693   4.718 -0.2006  1.0202 -0.6078
  608MOL0     C81998   2.902   5.008   5.199  0.2062 -0.0036  0.1142
  608MOL0     C81999   3.018   5.094   5.205  1.2122 -0.0985 -0.1979
  608MOL0     C82000   3.335   5.386   5.050 -0.5953  0.2322 -1.2316
  608MOL0     C82001   3.418   5.398   5.164 -0.8239  0.3156  0.4770
  608MOL0     C82002   3.540   5.468   5.159 -0.5651 -0.6824 -0.3958
  608MOL0     C82003   3.583   5.537   5.054  0.0693  0.9028  0.4331
  608MOL0     O82004   3.696   5.607   5.043  0.4090  0.7056 -0.1180
  608MOL0     C82005   3.784   5.627   5.153 -0.0506 -0.1464 -0.1541
  608MOL0     C82006   3.906   5.720   5.118  0.0524 -0.1105 -0.0235
  608MOL0     C82007   3.981   5.683   4.982 -0.0093 -1.1024  0.5316
  608MOL0     C82008   4.102   5.772   4.965  0.3312 -0.5757  0.2331
  608MOL0     C82009   4.052   5.909   4.939  0.2668  0.8801 -1.0741
  608MOL0     C82010   4.029   6.029   4.921  0.7239 -0.0006  1.1565
  608MOL0     C82011   3.493   5.538   4.942  0.3457 -0.1442  0.3024
  608MOL0     C82012   3.372   5.462   4.944  0.1571 -0.5626  0.1477
  608MOL0     H82013   3.158   5.035   4.917 -0.5701  0.5001  0.3320
  608MOL0     H82014   2.941   4.884   4.897  3.2184 -3.3403  1.4249
  608MOL0     H82015   2.852   4.698   5.012  0.0438  0.2059  1.3188
  608MOL0     H82016   2.690   4.666   5.062  1.6413 -1.0587  1.1911
  608MOL0     H82017   2.741   4.837   4.808 -2.4829  1.3771 -0.6474
  608MOL0     H82018   2.664   4.675   4.824  0.9544 -1.3775  0.6216
  608MOL0     H82019   2.491   4.760   4.958  0.0885  1.0954  1.3674
  608MOL0     H82020   2.560   4.914   4.985 -3.3471  1.9942 -1.6950
  608MOL0     H82021   2.561   4.956   4.729 -1.0032 -0.4982 -0.6562
  608MOL0     H82022   2.445   4.825   4.708  0.9990 -1.8071  0.7012
  608MOL0     H82023   2.326   4.942   4.915 -0.6535 -2.4181 -1.2032
  608MOL0     H82024   2.432   5.078   4.866  0.4175 -0.4562  2.1286
  608MOL0     H82025   2.195   5.089   4.772 -3.1900 -3.3917  0.9486
  608MOL0     H82026   2.327   5.061   4.639 -0.1216  1.7674  1.0172
  608MOL0     H82027   2.101   4.971   4.638  0.7429  2.0560  1.1011
  608MOL0     H82028   2.241   4.879   4.572  1.9480  2.5457  1.1642
  608MOL0     H82029   2.128   4.823   4.858  0.7484 -3.3454  1.4957
  608MOL0     H82030   2.264   4.744   4.769 -0.0235 -0.4311 -2.2301
  608MOL0     H82031   2.190   4.524   4.614  0.2882  0.7135 -0.0367
  608MOL0     H82032   1.855   4.352   4.548 -1.0431 -0.3874  0.9645
  608MOL0     H82033   2.023   4.335   4.521 -1.2974 -0.5748 -1.1675
  608MOL0     H82034   1.870   4.248   4.767 -0.7116 -0.2532 -0.3858
  608MOL0     H82035   2.047   4.270   4.768 -1.1408 -0.9579  1.8400
  608MOL0     H82036   2.033   4.111   4.554 -0.1063  2.9038 -0.5718
  608MOL0     H82037   1.869   4.086   4.615  1.2893 -1.0804 -1.4949
  608MOL0     H82038   2.028   3.913   4.703 -1.5871  1.8232 -4.6125
  608MOL0     H82039   1.954   4.004   4.835 -0.0260  0.3182  0.7129
  608MOL0     H82040   2.374   4.087   4.892 -1.2145  0.0776 -1.4224
  608MOL0     H82041   2.535   4.097   5.065  2.4317  0.4483  1.1239
  608MOL0     H82042   2.502   4.014   5.221 -0.0867  0.5605 -1.7729
  608MOL0     H82043   2.601   3.945   5.092  0.3376 -1.0234 -0.4043
  608MOL0     H82044   2.413   3.577   5.465  0.0423  0.2352 -1.1151
  608MOL0     H82045   2.549   3.495   5.648  0.2986 -1.3900 -2.0670
  608MOL0     H82046   2.960   3.563   5.547 -0.2074  0.6457  1.3075
  608MOL0     H82047   2.986   3.613   5.720 -2.0077 -0.4621  2.1010
  608MOL0     H82048   2.957   3.377   5.784 -0.9981 -0.9454 -0.1775
  608MOL0     H82049   2.947   3.331   5.603 -0.6658 -0.7395  1.2666
  608MOL0     H82050   3.165   3.259   5.673  1.0671 -0.1175  1.9133
  608MOL0     H82051   3.201   3.401   5.762  1.0466  0.4328 -1.5674
  608MOL0     H82052   3.141   3.412   5.465  0.1604 -2.1190  0.0029
  608MOL0     H82053   3.201   3.545   5.569  2.5819 -0.0422  0.1436
  608MOL0     H82054   3.327   3.278   5.510 -2.7220  1.2710  1.0440
  608MOL0     H82055   3.393   3.408   5.613 -1.7644  1.3067  1.3893
  608MOL0     H82056   3.335   3.408   5.307 -2.1427 -1.0656  1.3942
  608MOL0     H82057   3.410   3.551   5.390  2.2709  0.7409  1.5730
  608MOL0     H82058   3.560   3.299   5.402 -0.0812 -0.7460  0.7872
  608MOL0     H82059   3.614   3.476   5.388 -3.0937  2.0832 -0.0127
  608MOL0     H82060   3.666   3.378   5.163  0.0767  0.3231  1.5920
  608MOL0     H82061   3.512   3.474   5.152 -0.0008 -0.1088 -2.0366
  608MOL0     H82062   2.871   3.745   5.509  0.4797 -0.4810 -0.4603
  608MOL0     H82063   2.733   3.852   5.352 -0.9551 -1.5345 -2.2344
  608MOL0     H82064   2.129   3.748   5.143 -0.3814  3.6244  3.7713
  608MOL0     H82065   2.025   3.847   4.939  0.6997 -1.0546 -1.1369
  608MOL0     H82066   2.846   4.989   5.290 -0.9674  0.4864 -0.4696
  608MOL0     H82067   3.038   5.143   5.300  0.6324  1.4247 -0.8239
  608MOL0     H82068   3.396   5.328   5.244 -0.6120 -1.7744 -1.2092
  608MOL0     H82069   3.598   5.474   5.251 -0.2358 -0.2409 -0.6275
  608MOL0     H82070   3.728   5.661   5.240 -0.5570 -3.8765  1.1410
  608MOL0     H82071   3.807   5.524   5.181 -3.5369 -1.3026 -0.9353
  608MOL0     H82072   3.964   5.706   5.210 -2.1807  0.7517  1.5997
  608MOL0     H82073   3.878   5.825   5.113 -0.9868 -0.3722  0.1127
  608MOL0     H82074   3.908   5.690   4.901  2.0289  1.4946 -1.2376
  608MOL0     H82075   4.008   5.578   4.998 -1.5180 -1.6818 -0.4693
  608MOL0     H82076   4.165   5.741   4.882 -1.4490  1.5230 -2.0398
  608MOL0     H82077   4.161   5.764   5.057 -2.6065  1.5111  2.5156
  608MOL0     H82078   4.025   6.136   4.918  0.4761 -0.0114  1.0837
  608MOL0     H82079   3.515   5.603   4.858 -1.0786  0.7423  0.5829
  608MOL0     H82080   3.301   5.474   4.862 -2.8363 -1.4850  2.4283
  609MOL0     O82081   5.871   1.356   2.573 -0.2041 -0.8600  0.3631
  609MOL0     C82082   5.800   1.260   2.611  0.0491 -0.3576  0.1867
  609MOL0     O82083   5.820   1.178   2.727 -0.3235 -0.2920 -0.5879
  609MOL0     C82084   5.934   1.194   2.802 -0.0339 -0.1876 -0.5903
  609MOL0     C82085   6.030   1.091   2.804  0.8000  0.0856 -0.1472
  609MOL0     C82086   6.136   1.099   2.893 -0.3687 -0.1572  0.3543
  609MOL0     C82087   6.152   1.202   2.983  0.2221  0.0023 -0.5509
  609MOL0     O82088   6.270   1.203   3.049  0.8375  0.3902  0.5852
  609MOL0     C82089   6.322   1.339   3.071  1.0790 -0.2446  0.1146
  609MOL0     C82090   6.468   1.344   3.106 -0.1355  0.8068  0.0089
  609MOL0     C82091   6.517   1.473   3.179  0.5888  0.1911  0.2192
  609MOL0     C82092   6.467   1.475   3.322 -0.2931  0.2816 -0.6582
  609MOL0     C82093   6.518   1.597   3.393  0.5478 -0.9935 -0.3917
  609MOL0     C82094   6.660   1.591   3.436 -0.3258  0.8493 -1.6885
  609MOL0     C82095   6.707   1.714   3.519 -0.0349  0.5991  0.0176
  609MOL0     C82096   6.649   1.718   3.667 -0.8325 -0.2052 -0.0836
  609MOL0     N82097   6.695   1.824   3.757  0.1090 -0.8438 -0.0827
  609MOL0     C82098   6.812   1.841   3.819  0.7672  0.1997  0.1556
  609MOL0     C82099   6.800   1.943   3.898  0.6188 -0.3034 -0.6116
  609MOL0     C82100   6.914   2.000   3.984  0.7863 -0.7251  0.5891
  609MOL0     C82101   6.871   2.030   4.127 -0.0615 -0.5163  0.6223
  609MOL0     C82102   6.986   2.063   4.212 -0.8937  0.0922 -0.5582
  609MOL0     C82103   7.078   1.940   4.250 -0.0578  0.2482 -0.6769
  609MOL0     O82104   7.171   1.983   4.359  0.6231 -0.5863  0.5542
  609MOL0     C82105   7.124   2.003   4.488 -0.8004 -0.3108  0.7636
  609MOL0     C82106   7.215   2.060   4.582 -0.0374  0.3503  0.1345
  609MOL0     C82107   7.169   2.077   4.713  0.0746  0.6843 -0.3123
  609MOL0     C82108   7.267   2.134   4.816 -0.0376  0.6930 -0.8554
  609MOL0     C82109   7.034   2.044   4.743  0.3685  1.0278  0.0561
  609MOL0     C82110   6.989   2.061   4.885  0.8158 -0.2879  0.5105
  609MOL0     O82111   6.881   2.137   4.889  0.4505 -0.3838 -0.0392
  609MOL0     C82112   6.805   2.136   5.009  0.5286  0.1664  0.6509
  609MOL0     C82113   6.793   2.250   5.079  0.2333 -0.3905 -0.0010
  609MOL0     C82114   6.719   2.251   5.198  0.2330  0.6301 -0.7272
  609MOL0     C82115   6.652   2.134   5.250 -0.7308 -0.1937 -0.4617
  609MOL0     O82116   6.574   2.157   5.358 -0.0990 -0.6449 -0.8434
  609MOL0     C82117   6.504   2.052   5.419  0.0316  1.4748 -1.1871
  609MOL0     C82118   6.368   2.015   5.350  0.9194  0.0539  0.6064
  609MOL0     C82119   6.317   1.922   5.464 -0.2640  0.9048 -0.1115
  609MOL0     C82120   6.180   1.864   5.434 -1.2020  0.2738 -1.6002
  609MOL0     C82121   6.163   1.734   5.515  0.3290 -0.3733  0.6277
  609MOL0     C82122   6.019   1.700   5.530  0.1446  0.7375 -0.6408
  609MOL0     C82123   5.935   1.722   5.408 -0.7053  0.6644 -0.3612
  609MOL0     C82124   5.798   1.659   5.424 -0.1094  0.3177  0.7054
  609MOL0    Cl82125   5.724   1.637   5.262  0.1140 -0.0695 -0.2692
  609MOL0     C82126   6.670   2.010   5.179  0.0089  0.0650 -0.0119
  609MOL0     C82127   6.748   2.018   5.063 -0.2177 -0.0477 -0.3352
  609MOL0     O82128   7.030   1.984   4.968 -0.5286 -0.1210 -0.3800
  609MOL0     C82129   6.949   1.989   4.645 -0.1098  0.8424 -0.0324
  609MOL0     C82130   6.999   1.968   4.523  0.7742  0.2622  0.7704
  609MOL0     N82131   6.674   1.995   3.887 -0.3391  0.3733 -0.3718
  609MOL0     N82132   6.607   1.914   3.812 -0.2839  0.0932  0.0604
  609MOL0     C82133   6.045   1.306   2.996 -0.5581  0.0278 -0.1185
  609MOL0     C82134   5.937   1.296   2.905 -0.4721 -0.2241  0.5674
  609MOL0     C82135   5.708   1.205   2.510 -0.0957 -0.5471 -0.4208
  609MOL0     C82136   5.669   1.287   2.404 -0.1414  0.4116  0.3714
  609MOL0     C82137   5.573   1.244   2.307 -0.2209 -0.6929  0.6226
  609MOL0     C82138   5.522   1.116   2.321  0.1091 -0.7721  0.5756
  609MOL0     O82139   5.435   1.066   2.229 -0.4835 -1.4633 -0.3139
  609MOL0     C82140   5.297   1.102   2.266 -0.7855 -0.0804  0.5422
  609MOL0     C82141   5.264   1.226   2.188 -0.6470 -0.0248 -0.5433
  609MOL0     C82142   5.255   1.187   2.034 -0.2571 -0.0885  0.0073
  609MOL0     C82143   5.141   1.244   1.953  0.1664 -0.8321 -0.3506
  609MOL0     C82144   5.150   1.389   1.948 -0.5631  0.3153 -0.0307
  609MOL0     C82145   5.156   1.505   1.957 -0.6031 -1.3167 -0.0940
  609MOL0     C82146   5.552   1.041   2.434  0.1102  0.7302  0.3712
  609MOL0     C82147   5.644   1.084   2.524  0.6298  0.6359 -0.0353
  609MOL0     H82148   6.020   1.015   2.727 -2.3459 -0.9988  1.1299
  609MOL0     H82149   6.218   1.027   2.894  0.3972  0.6618  2.0702
  609MOL0     H82150   6.308   1.400   2.982  1.2105  2.0649  1.6040
  609MOL0     H82151   6.264   1.388   3.149  1.0121  1.2891 -0.8564
  609MOL0     H82152   6.499   1.254   3.160  0.7664  0.5351 -0.9218
  609MOL0     H82153   6.516   1.335   3.008 -1.6299 -0.9871 -0.6116
  609MOL0     H82154   6.624   1.488   3.165  0.5902 -0.0228 -0.0213
  609MOL0     H82155   6.469   1.558   3.129 -0.3151  0.8834  2.1605
  609MOL0     H82156   6.358   1.470   3.326 -0.3772  0.5543 -2.2478
  609MOL0     H82157   6.503   1.382   3.368 -2.3807 -1.9488 -3.2590
  609MOL0     H82158   6.514   1.679   3.321 -1.4583 -0.1986  0.5635
  609MOL0     H82159   6.443   1.621   3.469 -1.6186  2.4883 -3.3352
  609MOL0     H82160   6.691   1.494   3.476 -1.7258  0.3601 -1.7598
  609MOL0     H82161   6.724   1.601   3.347 -1.9198  1.5888 -2.7901
  609MOL0     H82162   6.816   1.716   3.527 -0.1100  1.7228  1.1586
  609MOL0     H82163   6.693   1.806   3.462  3.4636  0.7070 -0.9340
  609MOL0     H82164   6.668   1.619   3.709 -0.8025 -0.6377 -1.1067
  609MOL0     H82165   6.540   1.723   3.658 -0.7390  0.2759 -0.9876
  609MOL0     H82166   6.894   1.769   3.814 -0.9430 -2.1276  2.6806
  609MOL0     H82167   6.987   1.918   3.989 -2.0548 -3.4592  0.0192
  609MOL0     H82168   6.947   2.093   3.936 -1.2628  0.1550  0.8046
  609MOL0     H82169   6.815   1.948   4.174  2.2699 -2.5145  0.1261
  609MOL0     H82170   6.808   2.117   4.111  3.5281  1.6895 -3.5904
  609MOL0     H82171   6.940   2.112   4.298  1.3078 -1.2374  1.5170
  609MOL0     H82172   7.051   2.132   4.158  0.1543 -0.4474 -0.0435
  609MOL0     H82173   7.140   1.914   4.164 -1.1448 -1.0118 -1.1061
  609MOL0     H82174   7.026   1.846   4.265  0.4861 -0.0952 -0.8892
  609MOL0     H82175   7.316   2.082   4.547 -0.4027 -1.3827 -2.3196
  609MOL0     H82176   7.338   2.057   4.848 -2.9273 -0.9481  2.4332
  609MOL0     H82177   7.313   2.225   4.779 -0.8144  1.1290 -0.7811
  609MOL0     H82178   7.214   2.147   4.911 -0.4483 -2.0438 -0.6226
  609MOL0     H82179   6.823   2.347   5.041 -0.8207  0.2025  0.6224
  609MOL0     H82180   6.694   2.345   5.246 -1.2560 -0.0880 -0.0079
  609MOL0     H82181   6.566   1.963   5.432  0.9395  2.4618  2.0706
  609MOL0     H82182   6.478   2.092   5.517  1.3832  0.2807 -0.2993
  609MOL0     H82183   6.303   2.102   5.340 -0.5296 -1.1357 -0.8182
  609MOL0     H82184   6.373   1.970   5.250  1.8350  1.4920 -0.0296
  609MOL0     H82185   6.305   1.986   5.552 -0.5184 -1.4623  1.6723
  609MOL0     H82186   6.379   1.839   5.499 -1.0650  1.0300  1.7611
  609MOL0     H82187   6.099   1.931   5.466 -0.5687 -1.0034  3.7263
  609MOL0     H82188   6.185   1.833   5.329  0.0528 -0.9465 -1.2158
  609MOL0     H82189   6.226   1.742   5.605  3.3282 -1.7087 -1.2016
  609MOL0     H82190   6.213   1.654   5.459 -2.8829 -1.1833 -1.3288
  609MOL0     H82191   6.016   1.594   5.558 -0.0568  0.5385 -1.3664
  609MOL0     H82192   5.982   1.764   5.610 -0.1196 -0.5434  0.3009
  609MOL0     H82193   5.982   1.672   5.322  1.8837 -2.4644  2.5781
  609MOL0     H82194   5.926   1.829   5.389  0.0006  0.9916  1.0046
  609MOL0     H82195   5.730   1.719   5.485 -3.4515 -1.7038 -0.7793
  609MOL0     H82196   5.803   1.562   5.473 -1.0934  0.7308  1.6763
  609MOL0     H82197   6.617   1.922   5.215 -2.0605  0.8117 -1.0730
  609MOL0     H82198   6.763   1.938   4.990 -3.3773 -0.5620 -0.5615
  609MOL0     H82199   6.846   1.966   4.670 -0.1798 -0.3878 -1.3696
  609MOL0     H82200   6.933   1.926   4.448  1.5539  0.7387 -0.2018
  609MOL0     H82201   6.051   1.377   3.077 -0.8365 -0.5205  0.3923
  609MOL0     H82202   5.848   1.359   2.911 -0.6063 -0.3704  0.1670
  609MOL0     H82203   5.709   1.388   2.401 -0.7084  0.6489  0.5446
  609MOL0     H82204   5.544   1.298   2.218 -0.6340  1.1545  1.8179
  609MOL0     H82205   5.234   1.025   2.221  0.8748 -1.0841 -0.1771
  609MOL0     H82206   5.278   1.116   2.373 -1.1094  1.0601  0.3472
  609MOL0     H82207   5.343   1.299   2.205  1.1342 -1.4062 -2.3540
  609MOL0     H82208   5.168   1.267   2.221  0.5374  0.5091  2.5200
  609MOL0     H82209   5.264   1.078   2.025  3.7524  0.0612  0.1820
  609MOL0     H82210   5.344   1.232   1.988 -0.9620  1.4681  0.1149
  609MOL0     H82211   5.039   1.215   1.980  0.1441  1.6730  2.9578
  609MOL0     H82212   5.144   1.211   1.849 -2.7990 -0.6755 -0.5450
  609MOL0     H82213   5.168   1.610   1.940 -0.1448 -1.3577 -0.0358
  609MOL0     H82214   5.509   0.943   2.448  2.1674  0.0651  2.8565
  609MOL0     H82215   5.657   1.014   2.607 -3.5571 -2.0737 -1.3246
  610MOL0     O82216   7.610   7.986   2.840  0.1292 -0.3396 -0.4765
  610MOL0     C82217   7.506   7.967   2.906  0.2679  0.2220  0.2584
  610MOL0     O82218   7.393   8.052   2.908 -0.4208 -0.0160  0.4446
  610MOL0     C82219   7.407   8.179   2.860 -0.4786 -0.3714  0.4645
  610MOL0     C82220   7.335   8.236   2.753  0.2202 -0.6659  0.2926
  610MOL0     C82221   7.328   8.377   2.732 -0.8958  0.8431  0.0122
  610MOL0     C82222   7.415   8.460   2.799 -0.2107 -0.0316  0.1730
  610MOL0     O82223   7.427   8.597   2.763 -0.3463  0.7941  0.1082
  610MOL0     C82224   7.510   8.690   2.841 -0.4217  0.1864 -0.1373
  610MOL0     C82225   7.507   8.827   2.765  0.1731  0.1262 -0.0422
  610MOL0     C82226   7.374   8.893   2.804  1.1620  1.3491  0.0733
  610MOL0     C82227   7.351   8.948   2.942 -0.1518  0.8788  0.0565
  610MOL0     C82228   7.193   8.974   2.961 -0.1555 -0.3794  0.6065
  610MOL0     C82229   7.138   9.088   2.878  0.3136 -0.7440 -0.2318
  610MOL0     C82230   6.995   9.114   2.915 -1.1295 -0.4869  0.5534
  610MOL0     C82231   6.925   9.223   2.831  0.0937  1.5522 -0.3553
  610MOL0     N82232   6.787   9.257   2.872  0.1791 -0.4172  0.4562
  610MOL0     C82233   6.699   9.172   2.933  0.6700  0.1704 -0.6022
  610MOL0     C82234   6.590   9.250   2.960  0.3075 -0.2027  0.1062
  610MOL0     C82235   6.470   9.197   3.021  0.6194  0.2128 -0.5677
  610MOL0     C82236   6.477   9.148   3.170 -0.3295  0.4651 -0.2893
  610MOL0     C82237   6.488   9.259   3.268 -0.0660 -0.0157 -0.1278
  610MOL0     C82238   6.461   9.206   3.407  0.6037 -0.3109 -0.2566
  610MOL0     O82239   6.319   9.162   3.412  0.7424  0.3323  0.1375
  610MOL0     C82240   6.276   9.105   3.527  0.7400 -0.3194 -0.5268
  610MOL0     C82241   6.139   9.079   3.541  0.8365  0.4084  0.2306
  610MOL0     C82242   6.080   9.021   3.654 -0.0948  0.0853 -0.3341
  610MOL0     C82243   5.930   8.990   3.654 -0.4102 -0.3333 -0.1355
  610MOL0     C82244   6.153   8.992   3.770 -0.5747  0.2657  0.5580
  610MOL0     C82245   6.096   8.936   3.893 -0.2664  0.1856 -0.2849
  610MOL0     O82246   5.962   8.921   3.916 -0.3069 -0.4380 -0.4007
  610MOL0     C82247   5.902   8.891   4.034 -0.7649  0.8659 -0.5247
  610MOL0     C82248   5.959   8.907   4.160 -0.6758 -0.6562 -1.0276
  610MOL0     C82249   5.882   8.883   4.280  0.1763  0.2911 -0.2036
  610MOL0     C82250   5.742   8.864   4.270  0.0674  0.5860  0.5129
  610MOL0     O82251   5.654   8.857   4.374  0.0608  0.9712 -0.4998
  610MOL0     C82252   5.706   8.881   4.499  0.0891  0.4441 -0.2347
  610MOL0     C82253   5.618   8.810   4.601 -0.3792 -0.1410  0.4202
  610MOL0     C82254   5.675   8.818   4.745 -0.4664  0.1293 -0.5631
  610MOL0     C82255   5.810   8.749   4.760  0.2931  0.7157  0.4232
  610MOL0     C82256   5.843   8.743   4.906 -0.0894 -0.1235  1.6522
  610MOL0     C82257   5.894   8.879   4.966 -0.2381  0.0010 -0.2884
  610MOL0     C82258   6.017   8.929   4.905 -0.0464 -0.1961  0.6295
  610MOL0     C82259   6.032   9.083   4.911  0.3106 -0.0029 -0.0331
  610MOL0    Cl82260   5.898   9.171   4.823 -0.0087  0.5549 -0.2105
  610MOL0     C82261   5.693   8.847   4.141  0.5945  0.0946  0.1763
  610MOL0     C82262   5.765   8.842   4.028 -0.4048  0.1429  0.4405
  610MOL0     O82263   6.178   8.899   3.975  0.4566  0.9363 -0.1833
  610MOL0     C82264   6.295   9.022   3.761  0.5392 -0.2002 -0.0945
  610MOL0     C82265   6.353   9.084   3.646  1.6604 -0.3450  0.5152
  610MOL0     N82266   6.620   9.375   2.908 -0.2589  0.0913 -0.5807
  610MOL0     N82267   6.741   9.388   2.870 -0.0528  0.4363 -0.1500
  610MOL0     C82268   7.498   8.404   2.906 -0.2744 -0.2505 -0.1491
  610MOL0     C82269   7.489   8.264   2.935  0.1572 -0.2118 -0.2579
  610MOL0     C82270   7.497   7.846   2.993  0.2268 -0.0028 -0.4383
  610MOL0     C82271   7.413   7.843   3.109  0.4662  0.0693  0.1100
  610MOL0     C82272   7.378   7.719   3.161 -0.5855 -0.5291  0.6090
  610MOL0     C82273   7.441   7.605   3.115  0.0482 -0.4946  0.0249
  610MOL0     O82274   7.392   7.488   3.161 -1.0608  0.8371 -0.1527
  610MOL0     C82275   7.469   7.426   3.258  0.1583 -0.3399  0.6401
  610MOL0     C82276   7.385   7.312   3.310 -0.5603  0.3565  0.5647
  610MOL0     C82277   7.260   7.338   3.394 -1.2218  0.6247 -0.2837
  610MOL0     C82278   7.276   7.426   3.523  0.8963  0.6979  0.0047
  610MOL0     C82279   7.257   7.570   3.501  0.1733  0.2055 -0.0707
  610MOL0     C82280   7.256   7.690   3.483 -0.0340  0.0995 -0.3890
  610MOL0     C82281   7.530   7.604   3.008  0.2015 -0.4963 -0.2460
  610MOL0     C82282   7.552   7.724   2.949 -0.2278  0.1098  0.7128
  610MOL0     H82283   7.273   8.172   2.691 -1.1541  0.4494  0.4693
  610MOL0     H82284   7.264   8.420   2.655 -2.6613 -0.9108  0.4275
  610MOL0     H82285   7.474   8.703   2.943  0.5985  2.2419  0.0114
  610MOL0     H82286   7.610   8.646   2.840 -0.5985 -0.2152 -0.4784
  610MOL0     H82287   7.589   8.897   2.782 -3.2178  5.3627 -2.6007
  610MOL0     H82288   7.505   8.812   2.657 -4.9405 -1.8312  0.0376
  610MOL0     H82289   7.376   8.967   2.724  0.4810  0.3295 -0.9284
  610MOL0     H82290   7.295   8.822   2.775  2.0775 -0.9255  2.7802
  610MOL0     H82291   7.394   8.881   3.017 -0.3955  0.6462 -0.0122
  610MOL0     H82292   7.398   9.044   2.967 -0.1165  0.8563  0.0773
  610MOL0     H82293   7.137   8.882   2.940 -1.1371  0.7159 -1.9370
  610MOL0     H82294   7.177   9.007   3.064 -0.8811  2.1438 -0.2387
  610MOL0     H82295   7.196   9.180   2.895 -1.8953  0.8432 -0.9076
  610MOL0     H82296   7.146   9.060   2.773  1.9012  0.5509 -0.5041
  610MOL0     H82297   6.942   9.019   2.913  1.6568 -2.1686 -1.2478
  610MOL0     H82298   6.987   9.151   3.017  1.8680 -0.6301  0.9401
  610MOL0     H82299   6.921   9.183   2.730 -2.1972 -2.0982  0.9800
  610MOL0     H82300   6.995   9.307   2.826 -1.9797  3.2892 -3.2581
  610MOL0     H82301   6.721   9.071   2.968  2.7737  2.0822  4.6168
  610MOL0     H82302   6.382   9.261   3.009 -0.0281 -0.9578 -2.4917
  610MOL0     H82303   6.444   9.105   2.967  0.3233  0.6200 -1.1286
  610MOL0     H82304   6.567   9.085   3.175 -0.9599 -0.7269 -2.7525
  610MOL0     H82305   6.397   9.076   3.189  1.1124 -1.2018 -0.1732
  610MOL0     H82306   6.416   9.340   3.255 -2.2304 -1.8318 -0.1146
  610MOL0     H82307   6.591   9.295   3.259 -0.1180  0.0335 -0.5519
  610MOL0     H82308   6.476   9.283   3.483 -0.4304  0.1906 -0.5370
  610MOL0     H82309   6.530   9.124   3.425  0.9017 -0.7126 -2.7968
  610MOL0     H82310   6.067   9.099   3.462 -1.4642 -2.4354  1.4295
  610MOL0     H82311   5.885   9.026   3.561  0.3568 -1.4488 -0.9564
  610MOL0     H82312   5.912   8.883   3.646  0.5529 -0.6152  1.1797
  610MOL0     H82313   5.879   9.037   3.739 -2.7451 -0.7462 -1.2150
  610MOL0     H82314   6.061   8.942   4.170  0.1003 -2.8105 -0.8984
  610MOL0     H82315   5.945   8.887   4.368 -0.0438 -3.2331  0.2684
  610MOL0     H82316   5.805   8.834   4.507  0.2465  0.2344 -2.5388
  610MOL0     H82317   5.736   8.986   4.510  0.8450  0.3183 -0.9478
  610MOL0     H82318   5.517   8.851   4.591  0.8575  2.5760 -3.4671
  610MOL0     H82319   5.615   8.705   4.570 -0.2357 -1.2294  3.7909
  610MOL0     H82320   5.609   8.779   4.823  2.4495 -1.4208  1.2986
  610MOL0     H82321   5.687   8.919   4.785  0.1288 -1.0718  2.5243
  610MOL0     H82322   5.801   8.648   4.719 -1.1678  0.5929  0.9855
  610MOL0     H82323   5.886   8.801   4.702 -1.7722  4.7217  0.9445
  610MOL0     H82324   5.923   8.670   4.918 -2.4056 -3.1839  0.0093
  610MOL0     H82325   5.760   8.692   4.956 -0.4149 -2.0563 -0.6922
  610MOL0     H82326   5.812   8.952   4.967 -1.9903 -1.7769  2.7501
  610MOL0     H82327   5.910   8.865   5.073 -4.0062 -0.9058  0.3256
  610MOL0     H82328   6.027   8.903   4.799 -0.8395 -2.0611  0.9851
  610MOL0     H82329   6.104   8.890   4.959 -0.8249 -0.8309  1.4372
  610MOL0     H82330   6.130   9.120   4.881  0.2316 -1.1042 -1.8018
  610MOL0     H82331   6.019   9.115   5.015  1.5816  2.8019 -0.6711
  610MOL0     H82332   5.586   8.833   4.129  0.6523 -1.5594  1.2379
  610MOL0     H82333   5.712   8.822   3.935  1.2388  1.1781 -0.7769
  610MOL0     H82334   6.361   9.011   3.847  1.5971  1.6899 -0.6030
  610MOL0     H82335   6.455   9.119   3.639  0.8181  1.9411 -3.2033
  610MOL0     H82336   7.575   8.458   2.960 -1.8649  1.8006  0.2073
  610MOL0     H82337   7.543   8.227   3.021 -0.0536 -0.6983 -0.3266
  610MOL0     H82338   7.364   7.934   3.142 -1.5567 -1.6265  2.1425
  610MOL0     H82339   7.298   7.722   3.234 -1.0433 -2.0807  0.2212
  610MOL0     H82340   7.559   7.387   3.209  0.6962  1.0549  0.4602
  610MOL0     H82341   7.507   7.495   3.334 -0.8794 -0.4571  1.2780
  610MOL0     H82342   7.449   7.243   3.366 -4.6152 -3.7298  0.7940
  610MOL0     H82343   7.353   7.251   3.224  0.5298  0.8266 -0.1967
  610MOL0     H82344   7.233   7.236   3.421 -0.3674  0.6620  0.7569
  610MOL0     H82345   7.182   7.379   3.329  0.8971  0.8832 -2.8296
  610MOL0     H82346   7.367   7.396   3.575 -0.6263  0.5585  2.8242
  610MOL0     H82347   7.194   7.406   3.593 -1.0577  1.9568 -1.8211
  610MOL0     H82348   7.260   7.797   3.475  0.9885  0.1920  1.0540
  610MOL0     H82349   7.576   7.515   2.967  0.3503  0.3820 -2.0396
  610MOL0     H82350   7.617   7.716   2.863 -1.2705 -2.9941  0.0785
  611MOL0     O82351   6.396  10.506   4.678  0.3392  0.0386 -0.1156
  611MOL0     C82352   6.444  10.512   4.791 -0.0355 -0.0327 -0.3027
  611MOL0     O82353   6.453  10.622   4.863 -0.7492 -0.9238  0.1751
  611MOL0     C82354   6.375  10.730   4.830 -0.2249 -0.2164 -0.5580
  611MOL0     C82355   6.268  10.770   4.913 -0.1377 -0.3865 -0.1155
  611MOL0     C82356   6.191  10.895   4.884  0.3294  0.2317  0.5200
  611MOL0     C82357   6.224  10.968   4.766 -0.1415  0.1014 -0.3546
  611MOL0     O82358   6.156  11.088   4.754  0.8016  0.2355 -0.2049
  611MOL0     C82359   6.183  11.172   4.638 -0.2137 -0.7378 -0.0408
  611MOL0     C82360   6.067  11.266   4.612  0.7458  0.3280  0.3847
  611MOL0     C82361   6.094  11.373   4.516  0.2878  0.2249  0.8688
  611MOL0     C82362   5.977  11.471   4.505  0.0683 -0.6686  1.3739
  611MOL0     C82363   5.988  11.615   4.434 -0.2010  0.8575 -0.3238
  611MOL0     C82364   5.854  11.682   4.441 -0.0113  0.1659  0.0221
  611MOL0     C82365   5.851  11.795   4.341 -0.1597 -0.0363  0.3365
  611MOL0     C82366   5.823  11.746   4.201  0.2990  0.0617 -0.4888
  611MOL0     N82367   5.693  11.680   4.182  0.3455  0.6715 -0.1685
  611MOL0     C82368   5.569  11.745   4.192  0.3360  0.2345 -0.0634
  611MOL0     C82369   5.486  11.641   4.169  0.4642 -0.2658  0.5034
  611MOL0     C82370   5.343  11.661   4.165 -0.1956  0.0695 -0.8817
  611MOL0     C82371   5.266  11.581   4.273 -0.4942  0.1224  0.6181
  611MOL0     C82372   5.114  11.595   4.247  0.4992 -0.1864  0.2617
  611MOL0     C82373   5.058  11.718   4.326 -0.0541  0.7288 -0.0223
  611MOL0     O82374   5.106  11.829   4.256 -0.1883 -0.3952 -0.6546
  611MOL0     C82375   5.114  11.947   4.329 -0.4851  0.6078 -0.7584
  611MOL0     C82376   5.194  12.044   4.273  0.0047 -0.3298  0.6460
  611MOL0     C82377   5.203  12.170   4.330 -0.0802  0.2860  1.3595
  611MOL0     C82378   5.310  12.261   4.282 -0.3250  0.2301  0.2416
  611MOL0     C82379   5.125  12.211   4.440  1.3840 -0.0713  0.6483
  611MOL0     C82380   5.130  12.349   4.506  0.6481  0.4752  1.0573
  611MOL0     O82381   5.167  12.467   4.440  0.2470  0.6252 -0.3380
  611MOL0     C82382   5.170  12.592   4.499  0.1867  0.1274  0.1807
  611MOL0     C82383   5.054  12.663   4.528  1.0784  1.0814  0.2552
  611MOL0     C82384   5.056  12.786   4.588  0.2367 -0.8637 -0.5140
  611MOL0     C82385   5.182  12.836   4.629 -0.8233 -0.2406  0.7620
  611MOL0     O82386   5.200  12.943   4.712 -0.0027  0.6693  0.3271
  611MOL0     C82387   5.083  12.988   4.781 -0.1298 -0.4593 -0.8763
  611MOL0     C82388   5.112  13.082   4.891 -0.1476 -1.1174  0.6622
  611MOL0     C82389   5.166  13.004   5.015 -0.3038 -0.6230 -0.2949
  611MOL0     C82390   5.267  13.092   5.098  0.2029 -0.8034  0.0822
  611MOL0     C82391   5.336  13.019   5.220 -0.0522  0.3754  0.5680
  611MOL0     C82392   5.403  12.888   5.179 -0.3501 -0.1497 -0.7880
  611MOL0     C82393   5.475  12.830   5.304 -0.1030 -0.2124  0.1384
  611MOL0     C82394   5.387  12.741   5.401 -1.1953  0.7402  1.5569
  611MOL0    Cl82395   5.509  12.692   5.524  0.1435 -0.1401 -0.1727
  611MOL0     C82396   5.300  12.771   4.599 -0.5401  0.5564  0.0478
  611MOL0     C82397   5.293  12.646   4.532 -0.6510 -0.5558 -0.0476
  611MOL0     O82398   5.104  12.331   4.626  0.2352  0.1740 -0.2676
  611MOL0     C82399   5.022  12.112   4.486 -0.8594 -0.6266  0.0578
  611MOL0     C82400   5.020  11.983   4.430  0.2392  0.1626 -0.8360
  611MOL0     N82401   5.545  11.533   4.123 -0.6656 -0.0729  0.4301
  611MOL0     N82402   5.674  11.551   4.131  0.1940 -0.0087  0.4816
  611MOL0     C82403   6.323  10.917   4.685 -0.0079  0.9865  0.1028
  611MOL0     C82404   6.404  10.811   4.717  1.0060  0.3490 -0.8112
  611MOL0     C82405   6.517  10.391   4.840 -1.1428 -0.4609  0.2009
  611MOL0     C82406   6.558  10.384   4.976 -0.2645 -0.5896  0.8612
  611MOL0     C82407   6.624  10.275   5.020 -0.3179 -0.4737 -0.7427
  611MOL0     C82408   6.652  10.160   4.945 -0.4820 -0.2693  0.2760
  611MOL0     O82409   6.729  10.063   5.014  0.1701 -0.0983  0.5293
  611MOL0     C82410   6.787   9.966   4.926 -1.4530  0.5385  0.6162
  611MOL0     C82411   6.931  10.004   4.893 -0.4954 -0.8288 -0.0267
  611MOL0     C82412   7.045   9.901   4.932 -0.2433  0.4045  0.0999
  611MOL0     C82413   7.055   9.781   4.834 -0.3036  0.1690  0.0549
  611MOL0     C82414   7.030   9.650   4.899  0.1326  0.0432 -0.0212
  611MOL0     C82415   6.979   9.542   4.937  0.9509 -0.2944 -0.0217
  611MOL0     C82416   6.614  10.169   4.812 -0.0230 -0.0592  0.6534
  611MOL0     C82417   6.557  10.287   4.758 -0.3337  0.2567  0.5765
  611MOL0     H82418   6.264  10.724   5.011  1.5301  0.6429  0.4723
  611MOL0     H82419   6.112  10.932   4.949 -2.4622  3.7702 -4.1845
  611MOL0     H82420   6.274  11.232   4.643 -1.1128  1.0894 -3.0040
  611MOL0     H82421   6.190  11.109   4.549 -2.1616 -1.7226  0.4508
  611MOL0     H82422   5.989  11.202   4.569 -0.0495  1.8334 -0.4548
  611MOL0     H82423   6.033  11.317   4.702  0.4128  4.2327 -1.7554
  611MOL0     H82424   6.188  11.426   4.532  1.2936 -0.5347 -1.8831
  611MOL0     H82425   6.110  11.314   4.425 -0.4809 -1.5631  1.8626
  611MOL0     H82426   5.900  11.415   4.451 -0.1682 -2.6004  3.5714
  611MOL0     H82427   5.923  11.496   4.597 -2.3853  1.4294 -0.4718
  611MOL0     H82428   6.063  11.679   4.481  1.3762 -2.0021  1.3853
  611MOL0     H82429   6.029  11.596   4.335 -1.8454 -1.6070 -0.6358
  611MOL0     H82430   5.770  11.615   4.419 -0.9707  1.2860  0.1468
  611MOL0     H82431   5.851  11.727   4.541 -1.6182 -0.7871  0.4421
  611MOL0     H82432   5.784  11.869   4.385  0.2019 -0.2963  1.3398
  611MOL0     H82433   5.947  11.846   4.344  0.1228 -0.6148  1.6967
  611MOL0     H82434   5.893  11.667   4.171 -1.3979 -2.2358  1.2837
  611MOL0     H82435   5.813  11.835   4.138 -1.1820  1.0210  1.0269
  611MOL0     H82436   5.541  11.847   4.217 -0.8033  0.6615 -2.7727
  611MOL0     H82437   5.318  11.767   4.176 -0.2998 -0.1031  0.9207
  611MOL0     H82438   5.300  11.630   4.069 -2.3455 -0.1280  0.0794
  611MOL0     H82439   5.287  11.613   4.376  2.2963 -1.0494  0.5222
  611MOL0     H82440   5.296  11.476   4.259  0.3855  0.5321 -0.7979
  611MOL0     H82441   5.053  11.510   4.282  0.2698  0.3597  1.2160
  611MOL0     H82442   5.094  11.605   4.140  0.9084 -1.0343  0.0989
  611MOL0     H82443   5.086  11.710   4.431 -0.3660 -2.3330 -0.0709
  611MOL0     H82444   4.949  11.723   4.332  0.0644  1.9385  1.9537
  611MOL0     H82445   5.254  12.032   4.184 -2.9137  0.3805 -1.5918
  611MOL0     H82446   5.270  12.337   4.214  0.5032 -1.6049 -2.4149
  611MOL0     H82447   5.354  12.309   4.370 -0.4399  0.8962 -0.0571
  611MOL0     H82448   5.388  12.202   4.233 -0.8329 -3.0056  3.0090
  611MOL0     H82449   4.958  12.616   4.515  1.8373 -0.9966  1.6170
  611MOL0     H82450   4.964  12.833   4.621  0.4121 -2.0010  1.7995
  611MOL0     H82451   5.016  13.039   4.711  2.3700  3.0204 -0.9481
  611MOL0     H82452   5.034  12.902   4.829 -0.5947 -0.3826 -1.2054
  611MOL0     H82453   5.186  13.155   4.858 -1.8342  0.7445  0.7949
  611MOL0     H82454   5.019  13.134   4.916 -0.1008 -0.6120 -0.1997
  611MOL0     H82455   5.213  12.908   4.990 -0.1985 -0.9102  0.9675
  611MOL0     H82456   5.081  12.985   5.081 -1.1650  2.0887 -0.5088
  611MOL0     H82457   5.345  13.119   5.027 -1.3332 -2.2124 -2.2778
  611MOL0     H82458   5.228  13.187   5.135  2.4628 -0.3708  1.6118
  611MOL0     H82459   5.257  12.980   5.285  1.2814 -1.8492  0.9616
  611MOL0     H82460   5.402  13.083   5.280 -0.5536 -0.6773  2.3074
  611MOL0     H82461   5.326  12.819   5.144 -0.9556  0.0870  0.0650
  611MOL0     H82462   5.481  12.903   5.103 -0.6035 -1.0631 -1.2421
  611MOL0     H82463   5.515  12.914   5.362  1.3680 -1.2884  0.7634
  611MOL0     H82464   5.564  12.784   5.259  0.0033  2.3384 -2.6017
  611MOL0     H82465   5.352  12.654   5.345  2.1239 -0.5894  1.3066
  611MOL0     H82466   5.303  12.797   5.442 -4.7361 -3.4011  0.5880
  611MOL0     H82467   5.401  12.799   4.625 -0.7167 -0.3931  1.9295
  611MOL0     H82468   5.384  12.593   4.508  1.3458  3.3204 -1.9743
  611MOL0     H82469   4.964  12.145   4.571  1.0203 -3.1494  2.5044
  611MOL0     H82470   4.960  11.899   4.466  3.6565 -1.6637  1.2358
  611MOL0     H82471   6.356  10.970   4.597  1.2072  1.8918  1.0701
  611MOL0     H82472   6.485  10.779   4.652  1.4929  0.6561 -0.3643
  611MOL0     H82473   6.543  10.462   5.050 -0.8124  0.7006 -0.5560
  611MOL0     H82474   6.636  10.274   5.128  1.7011  1.3417 -0.8764
  611MOL0     H82475   6.795   9.879   4.993  0.8353  0.5779  0.4735
  611MOL0     H82476   6.720   9.936   4.845 -2.2885 -0.9941  1.7892
  611MOL0     H82477   6.940  10.096   4.951 -0.8589 -0.5777 -0.3656
  611MOL0     H82478   6.952  10.012   4.785  4.0528 -0.7080  0.6421
  611MOL0     H82479   7.021   9.873   5.035 -0.0514 -1.0407 -0.2204
  611MOL0     H82480   7.144   9.946   4.942  0.2761 -0.6601 -0.0256
  611MOL0     H82481   7.157   9.778   4.795  0.6068 -1.6859  2.3202
  611MOL0     H82482   6.996   9.804   4.745 -1.0135 -0.4435  0.3595
  611MOL0     H82483   6.939   9.449   4.972  0.0612 -0.1427 -0.6225
  611MOL0     H82484   6.641  10.099   4.734  3.1193  1.6552  0.0116
  611MOL0     H82485   6.538  10.288   4.651  0.9513 -3.4033  0.1674
  612MOL0     O82486  10.615   8.547   3.358  0.2589  0.3343  0.6501
  612MOL0     C82487  10.609   8.657   3.316  0.6468 -0.1104 -0.1893
  612MOL0     O82488  10.702   8.750   3.329 -0.0618  0.0102  0.4738
  612MOL0     C82489  10.824   8.739   3.277  0.6938 -0.1304 -0.2010
  612MOL0     C82490  10.878   8.638   3.197  0.1329  0.5223 -0.6179
  612MOL0     C82491  11.021   8.634   3.175 -0.5526 -0.2297 -0.5303
  612MOL0     C82492  11.104   8.742   3.220  0.0481  0.4207 -0.0702
  612MOL0     O82493  11.233   8.770   3.198  0.1160  0.1645  0.6720
  612MOL0     C82494  11.314   8.673   3.133 -0.6861 -0.0061  0.6355
  612MOL0     C82495  11.461   8.714   3.111  0.4511  0.6827  0.2616
  612MOL0     C82496  11.471   8.863   3.072 -0.1042  0.4112  1.1222
  612MOL0     C82497  11.610   8.900   3.018  0.0536  0.1624  0.4403
  612MOL0     C82498  11.609   9.032   2.958  0.0088  0.1197  0.2335
  612MOL0     C82499  11.749   9.075   2.917  0.4029  0.8370 -1.1973
  612MOL0     C82500  11.737   9.192   2.812 -0.3891 -0.3920 -0.8755
  612MOL0     C82501  11.877   9.250   2.783  0.8959 -0.2709  0.3248
  612MOL0     N82502  11.954   9.289   2.903 -0.7021  0.0739  0.0644
  612MOL0     C82503  11.918   9.399   2.987  0.0208 -0.1971  0.5838
  612MOL0     C82504  12.033   9.447   3.044 -1.2005 -0.2350  0.4260
  612MOL0     C82505  12.049   9.557   3.140  1.2028  0.1736  0.1776
  612MOL0     C82506  12.112   9.508   3.268 -0.9639 -0.6089  0.9626
  612MOL0     C82507  12.139   9.615   3.367 -0.1564 -0.3129  0.6700
  612MOL0     C82508  12.189   9.559   3.509  1.0734 -0.4183  0.3908
  612MOL0     O82509  12.067   9.506   3.576  0.2280  0.3279 -0.0679
  612MOL0     C82510  12.083   9.452   3.706 -0.3704  0.1758  0.8993
  612MOL0     C82511  12.186   9.471   3.788  0.7290 -0.5737 -0.9346
  612MOL0     C82512  12.188   9.421   3.921  1.2755  1.2445 -0.2430
  612MOL0     C82513  12.319   9.456   3.989 -0.4130 -0.3441 -0.2366
  612MOL0     C82514  12.083   9.329   3.968  0.1121 -0.1123  0.4503
  612MOL0     C82515  12.084   9.257   4.095 -0.0178  0.4138  0.2686
  612MOL0     O82516  11.987   9.171   4.125  0.5104 -0.1081 -0.0776
  612MOL0     C82517  11.981   9.085   4.234  0.6498  0.5753  0.0279
  612MOL0     C82518  11.887   8.981   4.215 -0.6314  0.0967 -0.2882
  612MOL0     C82519  11.874   8.890   4.320 -1.2605 -0.2047  1.1043
  612MOL0     C82520  11.957   8.895   4.438 -0.4793  0.5222  0.3166
  612MOL0     O82521  11.939   8.797   4.534  0.3856 -0.5728 -0.5047
  612MOL0     C82522  12.054   8.771   4.622 -0.2196  0.1758  0.8399
  612MOL0     C82523  12.022   8.672   4.734  0.7447  0.5095  0.4197
  612MOL0     C82524  11.904   8.731   4.816  0.5236  1.0132  0.1256
  612MOL0     C82525  11.870   8.634   4.926 -0.4219  0.2522 -0.1778
  612MOL0     C82526  11.748   8.675   5.004  0.1490  0.4877 -0.3696
  612MOL0     C82527  11.781   8.789   5.103 -0.5206  1.0928 -0.1070
  612MOL0     C82528  11.732   8.930   5.045 -0.4154  0.2454  0.1483
  612MOL0     C82529  11.732   9.029   5.155 -0.3508 -0.8447 -0.0030
  612MOL0    Cl82530  11.901   9.047   5.215 -0.0686  0.6223  0.4388
  612MOL0     C82531  12.046   9.001   4.450  0.6145  0.2588 -0.1695
  612MOL0     C82532  12.053   9.098   4.351 -0.0652  0.9848  0.3042
  612MOL0     O82533  12.181   9.285   4.167 -0.6295  0.0988  1.1927
  612MOL0     C82534  11.978   9.305   3.876 -0.2900  0.8460  0.4768
  612MOL0     C82535  11.981   9.360   3.749 -0.3982 -0.2199  0.3765
  612MOL0     N82536  12.137   9.358   2.989  0.0536  0.2121 -0.1738
  612MOL0     N82537  12.082   9.270   2.904  0.4494 -0.7689 -0.5515
  612MOL0     C82538  11.047   8.840   3.299 -0.1945 -0.6885  0.6037
  612MOL0     C82539  10.912   8.841   3.334  0.3919  0.7713 -0.0889
  612MOL0     C82540  10.494   8.696   3.230 -0.5169  0.0235  0.5964
  612MOL0     C82541  10.476   8.828   3.190 -1.1815  0.3158  0.7813
  612MOL0     C82542  10.370   8.866   3.103  0.2485 -0.1277 -0.0910
  612MOL0     C82543  10.287   8.767   3.052 -0.3960  0.0868  0.4493
  612MOL0     O82544  10.178   8.789   2.964 -0.2014  0.7782  0.1795
  612MOL0     C82545  10.169   8.907   2.884  0.9920  0.0146 -0.6247
  612MOL0     C82546  10.026   8.948   2.855  0.1815 -0.2660  0.0210
  612MOL0     C82547   9.955   9.044   2.957 -0.4463 -0.2424 -0.3778
  612MOL0     C82548   9.933   8.976   3.096 -0.2791 -0.5370  0.0763
  612MOL0     C82549   9.847   9.062   3.183 -0.6668 -0.0762 -0.0230
  612MOL0     C82550   9.783   9.128   3.255  0.3021 -0.3636  0.6673
  612MOL0     C82551  10.308   8.635   3.078 -0.0567 -0.0772  0.1156
  612MOL0     C82552  10.415   8.603   3.165  0.6272  0.2660  1.0940
  612MOL0     H82553  10.805   8.567   3.162 -2.2862  3.1552 -1.3005
  612MOL0     H82554  11.064   8.557   3.112  0.2345 -1.4457  1.4024
  612MOL0     H82555  11.304   8.573   3.177 -1.4616 -0.9241 -1.4926
  612MOL0     H82556  11.274   8.653   3.033 -0.2011  0.1597  0.4080
  612MOL0     H82557  11.519   8.698   3.202  0.8053 -0.5741 -0.1661
  612MOL0     H82558  11.500   8.657   3.026  0.8975 -0.7306  1.3741
  612MOL0     H82559  11.391   8.872   2.997  0.4914 -4.0535 -0.3657
  612MOL0     H82560  11.437   8.924   3.156  0.6597 -1.2163  2.6773
  612MOL0     H82561  11.683   8.899   3.099 -0.0593  0.6949  0.5574
  612MOL0     H82562  11.662   8.828   2.954  0.6912  0.9298  0.0743
  612MOL0     H82563  11.543   9.040   2.871  1.1961 -1.2382 -0.8413
  612MOL0     H82564  11.578   9.097   3.040 -1.7058  0.8192 -0.9029
  612MOL0     H82565  11.806   9.087   3.009  1.2850 -0.2988 -1.5716
  612MOL0     H82566  11.804   8.994   2.868 -1.1455 -1.4137  0.5603
  612MOL0     H82567  11.691   9.158   2.719 -3.6351 -2.5239  1.3033
  612MOL0     H82568  11.672   9.271   2.851  1.3631  1.2330 -1.1065
  612MOL0     H82569  11.853   9.348   2.741 -1.3845 -0.8851  0.0724
  612MOL0     H82570  11.932   9.192   2.709 -1.4880 -0.1252 -1.6877
  612MOL0     H82571  11.818   9.439   2.997 -0.2192 -0.1202 -1.6110
  612MOL0     H82572  12.102   9.644   3.100  0.6459 -0.1316 -1.2834
  612MOL0     H82573  11.944   9.580   3.162  0.8407  2.8400 -3.3981
  612MOL0     H82574  12.204   9.462   3.232 -0.3546  1.8815 -0.9181
  612MOL0     H82575  12.045   9.425   3.294 -1.0832 -1.1547 -0.9267
  612MOL0     H82576  12.061   9.692   3.367  0.4489  0.3418  2.1717
  612MOL0     H82577  12.220   9.677   3.327  1.0101 -1.5293  1.0738
  612MOL0     H82578  12.219   9.640   3.576 -0.0982 -2.2984  3.4269
  612MOL0     H82579  12.271   9.487   3.514  0.9039 -0.5294  2.0843
  612MOL0     H82580  12.271   9.528   3.751  1.5481 -1.3790 -0.3342
  612MOL0     H82581  12.288   9.518   4.074 -1.6315 -0.7209 -0.3959
  612MOL0     H82582  12.372   9.375   4.041 -1.7311 -1.1717 -0.1529
  612MOL0     H82583  12.388   9.515   3.927  0.6579 -2.4256 -1.1354
  612MOL0     H82584  11.833   8.983   4.121 -0.7542  0.0259 -0.2185
  612MOL0     H82585  11.813   8.803   4.299 -3.3220  1.4015  0.1060
  612MOL0     H82586  12.144   8.736   4.570 -0.3951  0.4446  0.3481
  612MOL0     H82587  12.085   8.860   4.678 -0.1610 -0.2989  1.5729
  612MOL0     H82588  11.987   8.577   4.691 -0.4022  2.1382 -2.5283
  612MOL0     H82589  12.110   8.653   4.795  1.4531  4.8745  1.0306
  612MOL0     H82590  11.814   8.723   4.755  0.3127  0.1087  0.5255
  612MOL0     H82591  11.938   8.831   4.843  1.6654  0.1874  1.9840
  612MOL0     H82592  11.851   8.534   4.887 -0.8024  0.1505  0.2742
  612MOL0     H82593  11.959   8.620   4.989 -0.8753 -2.1747  0.0343
  612MOL0     H82594  11.704   8.586   5.049  1.7373  0.3427  0.9973
  612MOL0     H82595  11.682   8.720   4.929  0.1816  0.2775 -0.5242
  612MOL0     H82596  11.724   8.762   5.192  0.8328 -1.0096  0.1846
  612MOL0     H82597  11.885   8.797   5.134 -1.1950 -0.8551  3.2212
  612MOL0     H82598  11.634   8.926   4.998  0.7730 -0.8926 -2.4322
  612MOL0     H82599  11.812   8.951   4.974  0.1832  1.8525  1.2395
  612MOL0     H82600  11.683   8.996   5.247 -0.1714 -0.9312  0.0611
  612MOL0     H82601  11.697   9.128   5.123  0.1002 -1.0637 -1.2460
  612MOL0     H82602  12.103   9.034   4.537 -2.9844  2.4435  1.6385
  612MOL0     H82603  12.124   9.176   4.376  0.8016  0.9420 -1.8042
  612MOL0     H82604  11.894   9.239   3.896 -0.6751  0.4177 -2.2221
  612MOL0     H82605  11.908   9.328   3.675 -2.1287  0.4545  1.7159
  612MOL0     H82606  11.097   8.920   3.352  2.3311  0.3488 -2.9583
  612MOL0     H82607  10.852   8.905   3.397  0.9615  2.1900 -0.9375
  612MOL0     H82608  10.528   8.912   3.233  0.0418  0.1689 -0.3404
  612MOL0     H82609  10.364   8.971   3.079 -3.0597  0.0166  0.8965
  612MOL0     H82610  10.207   8.998   2.932 -1.6547  2.1671 -2.2862
  612MOL0     H82611  10.236   8.881   2.802  4.0098 -1.3162  2.0813
  612MOL0     H82612   9.974   8.853   2.843  1.1688 -0.5693 -2.4973
  612MOL0     H82613  10.017   9.003   2.761 -2.9226  1.6911  1.2945
  612MOL0     H82614   9.861   9.079   2.912 -0.5062 -0.1511 -0.1809
  612MOL0     H82615  10.019   9.131   2.974  0.4432 -0.9316 -0.1432
  612MOL0     H82616  10.030   8.972   3.146  0.4791  1.8057 -1.0700
  612MOL0     H82617   9.900   8.872   3.090 -0.7568 -0.3035 -2.2253
  612MOL0     H82618   9.721   9.206   3.295 -1.1964 -0.1758 -1.7702
  612MOL0     H82619  10.254   8.557   3.027 -0.3507  1.4809 -2.0933
  612MOL0     H82620  10.416   8.497   3.190  0.6423  0.9980  4.9164
  613MOL0     O82621   8.937   4.647   2.797  0.2781  0.0145  0.2470
  613MOL0     C82622   8.942   4.764   2.810 -0.5476 -0.3503 -0.7703
  613MOL0     O82623   8.909   4.862   2.719 -0.0183 -0.1026  0.7795
  613MOL0     C82624   8.902   4.857   2.582 -0.3334  0.4262 -0.0706
  613MOL0     C82625   8.831   4.961   2.521 -0.7333  0.6452 -0.0854
  613MOL0     C82626   8.817   4.975   2.381  0.3973  0.5749  0.0679
  613MOL0     C82627   8.881   4.885   2.295 -0.4244 -0.7525 -0.0452
  613MOL0     O82628   8.876   4.893   2.160  0.7782 -0.9253  0.1391
  613MOL0     C82629   8.760   4.943   2.093 -0.1212 -0.6686 -1.4348
  613MOL0     C82630   8.786   4.998   1.949 -0.6898 -0.3969 -0.8907
  613MOL0     C82631   8.661   5.065   1.881 -0.4448 -0.5352  0.8276
  613MOL0     C82632   8.716   5.104   1.743 -0.5519  0.0623  0.1742
  613MOL0     C82633   8.692   5.001   1.641  0.7377 -0.1828  0.1216
  613MOL0     C82634   8.656   5.059   1.506  0.1283 -0.5673 -0.1091
  613MOL0     C82635   8.786   5.107   1.442 -0.0068  0.7865 -0.9471
  613MOL0     C82636   8.742   5.166   1.314  0.4260  0.0053  0.0765
  613MOL0     N82637   8.844   5.201   1.216  0.0190 -0.3992 -0.3889
  613MOL0     C82638   8.906   5.109   1.134  0.0689  0.9324  0.8627
  613MOL0     C82639   8.959   5.185   1.037 -0.3163  0.5176  0.7088
  613MOL0     C82640   9.028   5.145   0.911  1.0128 -0.2666 -0.8814
  613MOL0     C82641   8.989   5.000   0.866 -0.4307  0.0740 -0.9943
  613MOL0     C82642   9.071   4.967   0.742 -0.3053 -0.1344  0.0110
  613MOL0     C82643   8.981   4.966   0.612 -0.8631  0.8637 -0.3379
  613MOL0     O82644   9.073   4.994   0.509  0.0127 -0.1755 -0.6746
  613MOL0     C82645   9.026   4.958   0.384  0.0288 -0.9978  0.2898
  613MOL0     C82646   9.036   4.822   0.354  1.3072 -0.3725 -0.4853
  613MOL0     C82647   9.008   4.776   0.221 -0.9837 -0.2144  0.7041
  613MOL0     C82648   9.029   4.627   0.191 -0.2892  0.6970  0.1671
  613MOL0     C82649   8.948   4.865   0.126 -0.1925 -0.4962  0.0085
  613MOL0     C82650   8.919   4.830  -0.015  0.8554  0.8580 -0.7076
  613MOL0     O82651   8.808   4.752  -0.025 -0.0726  0.2667 -0.1976
  613MOL0     C82652   8.776   4.686  -0.140 -0.5102  0.4632  0.3760
  613MOL0     C82653   8.652   4.710  -0.200 -0.7008  1.0083 -0.2342
  613MOL0     C82654   8.642   4.667  -0.327  0.3536 -0.2901  0.7118
  613MOL0     C82655   8.734   4.576  -0.388  0.6258 -0.3729 -0.3383
  613MOL0     O82656   8.712   4.508  -0.503  0.2949 -0.1113  1.1132
  613MOL0     C82657   8.640   4.577  -0.605  0.2796  0.4642  0.8452
  613MOL0     C82658   8.720   4.576  -0.739  0.2712  0.5641  0.4622
  613MOL0     C82659   8.655   4.606  -0.871  0.3619  0.5532  0.3642
  613MOL0     C82660   8.555   4.489  -0.914 -0.6624  0.3192  0.3447
  613MOL0     C82661   8.437   4.539  -0.994  1.0347  0.1590 -0.1488
  613MOL0     C82662   8.343   4.416  -1.028 -0.2580  0.3369 -0.0142
  613MOL0     C82663   8.231   4.470  -1.120  1.9577  0.3646 -0.9107
  613MOL0     C82664   8.112   4.371  -1.139  0.1886 -0.0738 -0.5136
  613MOL0    Cl82665   7.995   4.462  -1.247 -0.0531 -0.1992 -0.1697
  613MOL0     C82666   8.853   4.553  -0.325  0.0419 -0.6639  0.2782
  613MOL0     C82667   8.877   4.609  -0.205  0.1461 -1.2275 -0.4082
  613MOL0     O82668   8.985   4.875  -0.110  0.2891  0.3837  0.4613
  613MOL0     C82669   8.921   4.998   0.168 -0.0872  0.2161  0.1664
  613MOL0     C82670   8.974   5.050   0.290  0.9501  1.4978 -1.1672
  613MOL0     N82671   8.932   5.323   1.066 -0.2387  0.2683  0.3671
  613MOL0     N82672   8.875   5.333   1.186  0.2726 -0.0633  0.7447
  613MOL0     C82673   8.954   4.779   2.351 -0.6843 -0.2608  0.2454
  613MOL0     C82674   8.957   4.766   2.493 -0.7632 -0.5238  1.2428
  613MOL0     C82675   8.987   4.816   2.939  1.1982 -0.4537 -0.3588
  613MOL0     C82676   8.994   4.733   3.049  0.0807 -0.2260  0.1864
  613MOL0     C82677   9.043   4.768   3.173 -0.1602 -0.5630 -0.9198
  613MOL0     C82678   9.092   4.893   3.199  0.5258  0.0043 -0.2620
  613MOL0     O82679   9.149   4.943   3.317  0.0608 -0.4061 -0.1452
  613MOL0     C82680   9.154   4.842   3.424  1.0556 -0.0904  0.5367
  613MOL0     C82681   9.251   4.898   3.525  0.3415 -0.3992  0.1597
  613MOL0     C82682   9.239   4.841   3.673  0.8565 -0.5374  0.2424
  613MOL0     C82683   9.169   4.918   3.779  0.7927 -0.3280 -0.0284
  613MOL0     C82684   9.207   5.058   3.784 -0.8713  0.1351  0.7214
  613MOL0     C82685   9.224   5.180   3.797 -0.5149 -0.0794  0.5064
  613MOL0     C82686   9.087   4.974   3.088  0.2376 -0.3747 -0.3127
  613MOL0     C82687   9.041   4.939   2.961 -0.5920 -0.1864 -0.3732
  613MOL0     H82688   8.772   5.031   2.579 -2.2386 -0.9472  0.4059
  613MOL0     H82689   8.764   5.066   2.354 -5.8397 -1.4293  3.6126
  613MOL0     H82690   8.685   4.864   2.097  1.0999 -1.7934  1.5626
  613MOL0     H82691   8.725   5.028   2.152  2.1944 -0.4888 -0.2239
  613MOL0     H82692   8.868   5.071   1.952  0.7627 -1.8949 -1.9830
  613MOL0     H82693   8.818   4.907   1.898  4.4724 -0.4527  1.7615
  613MOL0     H82694   8.572   5.002   1.884 -0.4365 -0.5216  1.6335
  613MOL0     H82695   8.642   5.148   1.950  2.1979 -0.9516  2.1810
  613MOL0     H82696   8.649   5.188   1.724 -1.1726 -0.5045 -0.1895
  613MOL0     H82697   8.819   5.142   1.748 -1.4381  3.0237 -1.5280
  613MOL0     H82698   8.776   4.931   1.632  1.0649  0.1134  0.7710
  613MOL0     H82699   8.601   4.947   1.669 -3.4959  3.1161 -5.3907
  613MOL0     H82700   8.608   4.985   1.441 -0.9188  1.1182 -1.3397
  613MOL0     H82701   8.586   5.142   1.518  0.3162 -0.1397 -1.7127
  613MOL0     H82702   8.837   5.188   1.494 -0.0585 -1.0489  2.2065
  613MOL0     H82703   8.861   5.027   1.435  1.2312  1.9048 -0.8500
  613MOL0     H82704   8.673   5.248   1.335  0.6089  0.0425  0.5369
  613MOL0     H82705   8.683   5.094   1.257 -0.8318  1.6585 -0.7956
  613MOL0     H82706   8.906   5.003   1.158 -0.1496  0.8593  0.5463
  613MOL0     H82707   8.992   5.211   0.831 -0.5334 -0.6848 -0.5580
  613MOL0     H82708   9.136   5.142   0.930  1.0116 -0.9432 -0.9486
  613MOL0     H82709   8.881   5.002   0.851 -0.8289  0.5371  1.5264
  613MOL0     H82710   9.013   4.931   0.947 -0.2591  0.8878 -0.3457
  613MOL0     H82711   9.105   4.863   0.752 -1.1234 -0.5129 -0.9480
  613MOL0     H82712   9.156   5.036   0.733  0.8808 -0.8632  3.8906
  613MOL0     H82713   8.900   5.039   0.615  0.8296  3.1532 -3.5025
  613MOL0     H82714   8.930   4.870   0.605 -0.9446  0.9538 -1.1280
  613MOL0     H82715   9.077   4.750   0.423 -1.8199  0.6169  2.6979
  613MOL0     H82716   9.016   4.611   0.084 -4.7651 -2.4228  0.8821
  613MOL0     H82717   9.127   4.587   0.220  0.3683  1.0535 -1.4482
  613MOL0     H82718   8.951   4.567   0.239 -0.1843 -0.6325 -1.2471
  613MOL0     H82719   8.579   4.773  -0.151  0.0975 -0.5168  3.2138
  613MOL0     H82720   8.553   4.699  -0.380  0.2416 -3.1634 -0.9946
  613MOL0     H82721   8.546   4.526  -0.626  1.5335 -1.9627  0.7727
  613MOL0     H82722   8.622   4.685  -0.597  1.4723  0.6292  1.5647
  613MOL0     H82723   8.809   4.634  -0.712  0.6607 -0.4750  1.5134
  613MOL0     H82724   8.747   4.470  -0.745 -0.1121  0.5542 -1.4946
  613MOL0     H82725   8.722   4.609  -0.957 -2.4385 -0.4210 -2.0131
  613MOL0     H82726   8.604   4.703  -0.875 -0.8514 -0.0809 -0.1044
  613MOL0     H82727   8.615   4.427  -0.980  0.0203 -0.1269  1.3518
  613MOL0     H82728   8.515   4.429  -0.831 -1.1569 -2.4615 -1.7706
  613MOL0     H82729   8.470   4.580  -1.090 -0.3071 -1.6745 -1.4579
  613MOL0     H82730   8.379   4.622  -0.953  1.1403 -0.0172  0.3695
  613MOL0     H82731   8.395   4.329  -1.067  1.0860  0.8459  0.5923
  613MOL0     H82732   8.291   4.388  -0.936 -0.5757 -0.8762 -0.5434
  613MOL0     H82733   8.283   4.499  -1.212  2.7290  1.2645 -0.2036
  613MOL0     H82734   8.184   4.556  -1.071  1.3827 -0.8920  0.8374
  613MOL0     H82735   8.063   4.355  -1.042 -3.0420  3.4656 -1.3171
  613MOL0     H82736   8.155   4.280  -1.182  1.1162  1.1561 -2.3088
  613MOL0     H82737   8.938   4.499  -0.366 -1.0730  0.0205 -3.2960
  613MOL0     H82738   8.979   4.617  -0.168  0.6253  1.4701 -2.0361
  613MOL0     H82739   8.859   5.067   0.111 -1.2420  1.0605  2.3223
  613MOL0     H82740   8.944   5.151   0.316 -1.5895  1.5338 -3.6832
  613MOL0     H82741   9.016   4.710   2.296 -2.8610 -1.4557 -0.8167
  613MOL0     H82742   9.020   4.688   2.535 -2.2625 -1.6303  1.5345
  613MOL0     H82743   8.960   4.633   3.026  0.4699 -0.1030 -0.9712
  613MOL0     H82744   9.041   4.691   3.250  2.1274  1.9910  1.9801
  613MOL0     H82745   9.061   4.844   3.482  1.5141  0.7049  1.2746
  613MOL0     H82746   9.171   4.738   3.393 -3.1355 -1.4689  2.0990
  613MOL0     H82747   9.238   5.006   3.531  2.0021 -0.0485 -1.5939
  613MOL0     H82748   9.352   4.869   3.495 -0.5969 -0.8596 -2.9106
  613MOL0     H82749   9.340   4.820   3.708  0.4167 -0.1562  1.8329
  613MOL0     H82750   9.190   4.743   3.674  0.2939 -0.2633  1.3802
  613MOL0     H82751   9.181   4.866   3.875 -1.1785 -0.7664  0.0271
  613MOL0     H82752   9.062   4.904   3.760  0.6292 -0.7755  1.1292
  613MOL0     H82753   9.232   5.287   3.807 -0.1324 -0.2204  1.9074
  613MOL0     H82754   9.126   5.071   3.118  0.5331 -0.8605  0.9229
  613MOL0     H82755   9.044   5.014   2.882 -1.9457 -0.1213 -0.3858
  614MOL0     O82756   4.334   7.643  10.553 -0.2956  0.1145  0.0458
  614MOL0     C82757   4.315   7.701  10.657  0.0731 -1.1442 -0.4690
  614MOL0     O82758   4.224   7.656  10.746  0.3335 -0.5340 -0.7492
  614MOL0     C82759   4.176   7.526  10.741 -0.0021 -0.0081 -0.3839
  614MOL0     C82760   4.046   7.502  10.739 -0.0118  0.2902 -0.0635
  614MOL0     C82761   3.998   7.366  10.749  0.4295 -0.3159  0.1221
  614MOL0     C82762   4.088   7.256  10.764 -0.3396  0.1362 -0.3201
  614MOL0     O82763   4.025   7.134  10.782 -0.2037  0.0094 -0.1033
  614MOL0     C82764   4.098   7.016  10.822 -0.6472  0.1111  0.3275
  614MOL0     C82765   4.019   6.898  10.883 -0.7955 -0.1920 -0.3630
  614MOL0     C82766   3.918   6.841  10.785  0.4651 -0.2263  0.1054
  614MOL0     C82767   3.915   6.684  10.807  0.6097  0.4121  0.4092
  614MOL0     C82768   3.867   6.602  10.694  0.3174 -0.2339 -0.0457
  614MOL0     C82769   3.719   6.633  10.651  0.3931  0.1743 -0.0954
  614MOL0     C82770   3.667   6.567  10.523 -0.2275 -0.7804 -0.4173
  614MOL0     C82771   3.683   6.409  10.524  0.9862 -0.6061 -0.2427
  614MOL0     N82772   3.557   6.352  10.547 -0.1540 -0.2278 -0.0420
  614MOL0     C82773   3.501   6.341  10.672 -0.1405 -0.0180  1.1676
  614MOL0     C82774   3.397   6.258  10.658 -0.1145 -0.4069 -0.7469
  614MOL0     C82775   3.301   6.219  10.768  0.0731  0.0037  0.5779
  614MOL0     C82776   3.158   6.263  10.733  0.2733 -0.2975 -0.9161
  614MOL0     C82777   3.077   6.291  10.867 -0.8983 -0.5416 -0.1716
  614MOL0     C82778   2.931   6.273  10.834  0.3161 -1.2582  0.8828
  614MOL0     O82779   2.897   6.344  10.702 -0.8677  0.3001 -0.1957
  614MOL0     C82780   2.781   6.418  10.710 -1.2555  0.4199 -1.3585
  614MOL0     C82781   2.659   6.368  10.669  0.2216 -0.0710  0.8564
  614MOL0     C82782   2.540   6.439  10.684  0.5863  0.1959 -0.6645
  614MOL0     C82783   2.412   6.375  10.648  1.1681  0.6404 -0.7458
  614MOL0     C82784   2.544   6.569  10.730 -0.1562  0.1329 -0.4476
  614MOL0     C82785   2.427   6.647  10.778  0.3436 -0.4956  0.4141
  614MOL0     O82786   2.428   6.778  10.747  0.6663 -0.8392 -0.1348
  614MOL0     C82787   2.324   6.862  10.767  0.3553  0.2244 -1.2494
  614MOL0     C82788   2.235   6.848  10.876  0.6167 -0.0758  0.3163
  614MOL0     C82789   2.124   6.934  10.872 -0.1368  0.2301 -0.2565
  614MOL0     C82790   2.098   7.035  10.784 -0.2924 -0.4213 -0.5958
  614MOL0     O82791   1.997   7.130  10.787  0.0990  0.4024  0.1378
  614MOL0     C82792   1.905   7.145  10.900 -0.9334  1.2513 -0.2957
  614MOL0     C82793   1.783   7.221  10.866 -0.3435 -0.0464  0.4196
  614MOL0     C82794   1.721   7.171  10.729 -0.6278  0.8039  0.1793
  614MOL0     C82795   1.576   7.150  10.740 -0.2835 -0.0318 -0.3839
  614MOL0     C82796   1.496   7.172  10.618  0.0422  0.2509 -0.1527
  614MOL0     C82797   1.347   7.149  10.649 -0.0420 -0.7229 -0.2355
  614MOL0     C82798   1.269   7.129  10.515 -0.4437 -0.4752 -0.6400
  614MOL0     C82799   1.128   7.077  10.540 -0.9525 -0.4053  0.0685
  614MOL0    Cl82800   1.038   7.100  10.391 -0.2750 -0.1574  0.2113
  614MOL0     C82801   2.198   7.049  10.688  0.0415  0.3438 -1.2519
  614MOL0     C82802   2.301   6.961  10.676 -0.4059 -0.1392  0.2132
  614MOL0     O82803   2.343   6.580  10.840  0.2569  0.0349  0.1630
  614MOL0     C82804   2.671   6.628  10.753 -0.1390 -0.0199  0.4143
  614MOL0     C82805   2.785   6.545  10.747  0.6217 -0.1220 -0.1865
  614MOL0     N82806   3.401   6.212  10.533  0.2132  0.3858  0.4183
  614MOL0     N82807   3.496   6.265  10.463  0.0582 -0.7317  0.0344
  614MOL0     C82808   4.218   7.283  10.765  0.1859  0.2903  0.3288
  614MOL0     C82809   4.263   7.418  10.767  0.4027  0.9270  0.1711
  614MOL0     C82810   4.376   7.826  10.685  0.0066  0.1937 -0.3374
  614MOL0     C82811   4.491   7.876  10.618  0.5791  0.1732 -0.1329
  614MOL0     C82812   4.554   7.997  10.651 -0.0897  1.0427 -0.5444
  614MOL0     C82813   4.512   8.075  10.761  0.3568  0.5717  0.5898
  614MOL0     O82814   4.592   8.179  10.792 -0.5651 -0.9870  0.2023
  614MOL0     C82815   4.580   8.233  10.925 -0.0714 -1.0901 -0.2236
  614MOL0     C82816   4.658   8.147  11.030  0.5817  0.4325 -1.0852
  614MOL0     C82817   4.675   8.235  11.149 -0.3573 -0.9218 -1.3242
  614MOL0     C82818   4.768   8.162  11.254 -0.5891 -0.0455 -0.6963
  614MOL0     C82819   4.782   8.264  11.362 -0.0172  0.0049 -1.0668
  614MOL0     C82820   4.797   8.342  11.453  0.3082  0.2150 -0.4514
  614MOL0     C82821   4.394   8.024  10.833 -0.2739  0.0330 -0.0698
  614MOL0     C82822   4.332   7.905  10.792  0.7493 -0.3788  0.0222
  614MOL0     H82823   3.980   7.588  10.743  1.5553  1.4946  2.5753
  614MOL0     H82824   3.893   7.344  10.761  0.2083  1.6583  2.6638
  614MOL0     H82825   4.137   6.980  10.727 -1.1849  3.7787 -1.4306
  614MOL0     H82826   4.165   7.038  10.906 -0.0888 -0.2811 -0.0130
  614MOL0     H82827   4.098   6.827  10.909 -0.8659  0.4993  1.9609
  614MOL0     H82828   3.969   6.926  10.976 -0.1257  1.1615 -0.3855
  614MOL0     H82829   3.820   6.889  10.792  0.2402 -0.8592  2.0155
  614MOL0     H82830   3.951   6.849  10.681  1.6333  0.4392  0.5107
  614MOL0     H82831   4.008   6.641  10.845  1.1142 -1.1810 -2.3575
  614MOL0     H82832   3.835   6.668  10.880 -0.8557  1.8847 -0.7964
  614MOL0     H82833   3.933   6.626  10.611  1.4872 -0.5580  0.7693
  614MOL0     H82834   3.882   6.496  10.716 -0.6194 -0.3779 -0.0625
  614MOL0     H82835   3.652   6.597  10.730 -0.2661  1.4733 -0.0355
  614MOL0     H82836   3.710   6.740  10.633  0.4722  0.2211  0.1367
  614MOL0     H82837   3.563   6.596  10.509 -0.5422 -0.1637  2.4458
  614MOL0     H82838   3.730   6.599  10.440  0.9303 -0.8971  0.3773
  614MOL0     H82839   3.746   6.370  10.605  0.4384 -0.2908  0.3427
  614MOL0     H82840   3.723   6.374  10.428  1.0307  2.7691 -1.5787
  614MOL0     H82841   3.523   6.402  10.759  1.5168  1.6594 -0.3401
  614MOL0     H82842   3.293   6.110  10.774 -2.1127  0.1590  1.1680
  614MOL0     H82843   3.326   6.271  10.861  0.0684  0.6608  0.2185
  614MOL0     H82844   3.109   6.203  10.655 -1.5188  0.4850 -0.4457
  614MOL0     H82845   3.166   6.358  10.679  2.4671 -1.4016 -2.6791
  614MOL0     H82846   3.091   6.394  10.901 -0.5914 -0.8814  0.7731
  614MOL0     H82847   3.105   6.221  10.947  0.3550  0.1300  0.0170
  614MOL0     H82848   2.867   6.309  10.916  1.1319  0.9730  0.5986
  614MOL0     H82849   2.911   6.166  10.826  0.6725 -1.3252  0.8483
  614MOL0     H82850   2.658   6.271  10.620  1.0245  0.1038  0.4742
  614MOL0     H82851   2.431   6.289  10.583  7.0355 -0.9657  2.4296
  614MOL0     H82852   2.370   6.337  10.741 -1.2707  3.2049 -0.6610
  614MOL0     H82853   2.338   6.448  10.613 -1.1907 -1.4045 -0.2552
  614MOL0     H82854   2.249   6.778  10.958 -0.3284 -0.2326  0.3516
  614MOL0     H82855   2.055   6.919  10.955 -1.2256  1.0898 -0.9824
  614MOL0     H82856   1.869   7.045  10.922  0.2252  0.6576 -0.9672
  614MOL0     H82857   1.955   7.190  10.987  0.1317 -1.4324  0.5787
  614MOL0     H82858   1.714   7.202  10.948  1.6890  1.4826  2.5928
  614MOL0     H82859   1.809   7.327  10.864 -0.9525  0.0963 -0.5080
  614MOL0     H82860   1.772   7.081  10.693  0.0369  1.4324 -0.4644
  614MOL0     H82861   1.749   7.243  10.652  1.2290  0.6103  0.6108
  614MOL0     H82862   1.574   7.044  10.766 -1.3939  0.0153 -0.2329
  614MOL0     H82863   1.536   7.205  10.826  2.8039 -1.9524  2.5193
  614MOL0     H82864   1.524   7.091  10.550  2.1340 -0.0654  1.0177
  614MOL0     H82865   1.515   7.272  10.578  3.3553 -1.0958 -2.3744
  614MOL0     H82866   1.330   7.064  10.716 -2.3817  0.1604  0.3877
  614MOL0     H82867   1.312   7.243  10.693 -1.8189  1.2253 -5.0948
  614MOL0     H82868   1.324   7.052  10.459  1.3620  0.3154 -0.0428
  614MOL0     H82869   1.270   7.224  10.460 -1.9333  0.5902  1.0683
  614MOL0     H82870   1.077   7.121  10.625 -3.9192  0.2401 -1.8909
  614MOL0     H82871   1.134   6.968  10.549  0.2701 -0.4721 -1.0536
  614MOL0     H82872   2.179   7.133  10.622  1.6066  3.2921  1.7627
  614MOL0     H82873   2.364   6.984  10.591 -1.9483  3.0491 -0.2149
  614MOL0     H82874   2.679   6.721  10.809 -0.6029 -0.0513  0.5345
  614MOL0     H82875   2.889   6.576  10.751  0.2804  0.8824  2.2860
  614MOL0     H82876   4.291   7.203  10.769  0.7875  0.8592  1.0046
  614MOL0     H82877   4.367   7.448  10.762  0.0652  3.3244  3.8860
  614MOL0     H82878   4.530   7.811  10.540 -1.2601 -0.0217 -0.9420
  614MOL0     H82879   4.641   8.033  10.597  2.0362 -2.7069  0.0174
  614MOL0     H82880   4.630   8.331  10.925 -1.3450 -0.3653  1.8982
  614MOL0     H82881   4.479   8.245  10.965  0.3802  3.6039  0.0634
  614MOL0     H82882   4.755   8.113  10.993  0.2113 -1.3990 -0.5067
  614MOL0     H82883   4.602   8.059  11.065  0.3487  0.8762 -0.2985
  614MOL0     H82884   4.579   8.275  11.184 -0.0179  0.5774 -2.0029
  614MOL0     H82885   4.720   8.332  11.126  0.4866 -1.0467 -0.2855
  614MOL0     H82886   4.868   8.140  11.217 -1.1526 -2.1113 -1.1439
  614MOL0     H82887   4.728   8.066  11.287  4.5199 -3.0141 -2.0303
  614MOL0     H82888   4.802   8.397  11.544 -1.9320 -1.5929  0.8856
  614MOL0     H82889   4.355   8.076  10.921  0.1020  0.9622 -0.4347
  614MOL0     H82890   4.249   7.873  10.855  2.2365 -1.6044  1.4811
  615MOL0     O82891   5.571   3.518   2.644 -0.1480  0.6210 -0.1936
  615MOL0     C82892   5.572   3.394   2.670 -0.6261  0.1237 -0.1920
  615MOL0     O82893   5.474   3.317   2.725  0.2001  0.2587  0.6760
  615MOL0     C82894   5.366   3.389   2.777  1.1536  0.3566  0.1136
  615MOL0     C82895   5.301   3.494   2.714 -0.0439 -0.1169  0.1319
  615MOL0     C82896   5.190   3.551   2.787  0.5260 -0.2718  0.5045
  615MOL0     C82897   5.141   3.498   2.905 -0.0667 -0.4629 -0.7735
  615MOL0     O82898   5.030   3.552   2.972 -0.8478 -0.0191 -0.0425
  615MOL0     C82899   4.998   3.693   2.941 -1.0244  0.6524 -0.3126
  615MOL0     C82900   4.871   3.734   3.010 -0.9074 -0.4546 -0.4188
  615MOL0     C82901   4.833   3.882   2.996 -0.1405 -0.3534 -0.1671
  615MOL0     C82902   4.911   3.961   3.099  0.2622  0.2927 -0.6669
  615MOL0     C82903   4.885   4.107   3.106  0.3340 -0.3818 -0.0146
  615MOL0     C82904   4.743   4.160   3.079  0.3796  0.2643 -0.2430
  615MOL0     C82905   4.717   4.281   3.163 -0.2669  0.0697  0.6306
  615MOL0     C82906   4.585   4.354   3.123 -0.6240 -0.9808  0.4982
  615MOL0     N82907   4.474   4.272   3.079 -0.1840 -0.7602  0.0947
  615MOL0     C82908   4.378   4.231   3.169 -0.5928  0.7184 -0.2079
  615MOL0     C82909   4.306   4.137   3.098 -0.2188  0.0785 -0.3183
  615MOL0     C82910   4.198   4.049   3.159 -0.1462 -0.0687  0.6709
  615MOL0     C82911   4.099   3.994   3.057 -0.3833  0.0221  0.3440
  615MOL0     C82912   4.005   4.101   3.004 -0.8510 -0.3295 -0.0233
  615MOL0     C82913   3.924   4.070   2.871 -0.6767 -0.4497 -0.5880
  615MOL0     O82914   3.842   4.185   2.843 -0.2095 -0.0711  0.5031
  615MOL0     C82915   3.767   4.190   2.729 -0.8430  0.0267  0.3962
  615MOL0     C82916   3.766   4.109   2.612 -0.1823  0.3112  0.8913
  615MOL0     C82917   3.667   4.122   2.512 -0.6188  0.3539  0.4776
  615MOL0     C82918   3.672   4.018   2.408  0.2257 -0.6270  0.4656
  615MOL0     C82919   3.575   4.216   2.522  1.1727 -0.7673  0.2360
  615MOL0     C82920   3.466   4.242   2.420  0.0353 -0.2692  0.0530
  615MOL0     O82921   3.370   4.340   2.446 -1.1886 -0.9915 -0.3677
  615MOL0     C82922   3.267   4.362   2.356  0.7091  0.1711 -0.1052
  615MOL0     C82923   3.148   4.287   2.356 -0.3577 -1.3885  1.0163
  615MOL0     C82924   3.050   4.311   2.262  0.7746  0.7573  0.7737
  615MOL0     C82925   3.064   4.416   2.168 -0.1460  0.1639 -0.0342
  615MOL0     O82926   2.957   4.424   2.089  0.4728  0.3018  0.1694
  615MOL0     C82927   2.978   4.494   1.970 -0.0250  0.3480 -0.0208
  615MOL0     C82928   2.832   4.533   1.918 -0.1380 -0.2500 -0.4826
  615MOL0     C82929   2.847   4.566   1.768  0.1597  0.2730 -0.0118
  615MOL0     C82930   2.714   4.604   1.711  0.6442 -0.9598 -0.2956
  615MOL0     C82931   2.711   4.662   1.568  0.1714 -0.4300  0.3127
  615MOL0     C82932   2.569   4.681   1.519 -0.1997  0.2802 -0.4710
  615MOL0     C82933   2.583   4.771   1.388  0.3999 -0.1131  0.0166
  615MOL0     C82934   2.453   4.762   1.315  0.3901 -0.0813  0.2017
  615MOL0    Cl82935   2.332   4.832   1.421  0.1599 -0.3181 -0.0077
  615MOL0     C82936   3.185   4.489   2.166 -1.3476  0.1588  0.5049
  615MOL0     C82937   3.284   4.461   2.260  0.2300 -0.2841  0.2594
  615MOL0     O82938   3.456   4.177   2.314 -0.5543 -0.3760  0.5116
  615MOL0     C82939   3.582   4.307   2.629 -0.8290  0.0562 -0.4121
  615MOL0     C82940   3.675   4.287   2.734 -0.4574  0.4924  0.1737
  615MOL0     N82941   4.352   4.136   2.967  1.4002 -0.3006 -0.6304
  615MOL0     N82942   4.453   4.216   2.954  0.2931  0.5750 -0.1751
  615MOL0     C82943   5.199   3.388   2.959  0.2744 -0.6190  0.4351
  615MOL0     C82944   5.323   3.342   2.901  0.0615  0.0439  0.4122
  615MOL0     C82945   5.706   3.331   2.651 -0.1377  0.5658  1.0302
  615MOL0     C82946   5.815   3.403   2.681 -0.2914  0.0776 -0.5369
  615MOL0     C82947   5.947   3.361   2.665  0.2885  0.0327 -0.1320
  615MOL0     C82948   5.968   3.230   2.625  0.7586 -0.4360  0.2006
  615MOL0     O82949   6.101   3.195   2.628 -0.0639 -1.2323 -0.9510
  615MOL0     C82950   6.132   3.050   2.627  0.0085  0.8295  0.3354
  615MOL0     C82951   6.277   3.042   2.679  1.0711  0.3655  0.5856
  615MOL0     C82952   6.375   3.130   2.599  0.4295  0.7957 -0.8158
  615MOL0     C82953   6.525   3.119   2.648 -0.1707  0.6417 -0.1846
  615MOL0     C82954   6.616   3.224   2.602 -0.4991 -0.7436  0.1545
  615MOL0     C82955   6.684   3.318   2.556 -0.1604 -0.0139  0.0567
  615MOL0     C82956   5.861   3.154   2.594 -0.1521 -0.2836 -0.0384
  615MOL0     C82957   5.726   3.205   2.605  0.8861 -0.2404 -0.3791
  615MOL0     H82958   5.336   3.518   2.614 -0.5152 -0.5509 -0.1419
  615MOL0     H82959   5.132   3.628   2.736  2.1567 -0.0651 -1.1516
  615MOL0     H82960   5.081   3.759   2.969 -0.8393  1.5006 -2.6561
  615MOL0     H82961   4.980   3.705   2.834  0.5652 -1.4345 -0.8816
  615MOL0     H82962   4.796   3.681   2.949 -2.4481 -1.4954  2.2281
  615MOL0     H82963   4.870   3.701   3.114 -0.0654  1.6287  0.2952
  615MOL0     H82964   4.858   3.921   2.897  0.4947 -0.7397 -0.1621
  615MOL0     H82965   4.728   3.901   3.022  0.6768 -0.0781  3.5323
  615MOL0     H82966   4.897   3.925   3.201 -3.6224  2.2103 -0.3572
  615MOL0     H82967   5.020   3.965   3.089  0.3729  1.3542  0.7374
  615MOL0     H82968   4.926   4.155   3.195  0.7073  2.1785 -1.4599
  615MOL0     H82969   4.943   4.151   3.025 -0.2896  0.3311 -0.0795
  615MOL0     H82970   4.736   4.166   2.970  0.4397  0.8307 -0.2202
  615MOL0     H82971   4.671   4.093   3.127 -0.5249  0.9357 -0.6397
  615MOL0     H82972   4.720   4.256   3.269  0.3003  1.1989  0.8979
  615MOL0     H82973   4.799   4.349   3.137 -2.3075  1.8884 -1.5192
  615MOL0     H82974   4.605   4.433   3.051 -1.4375 -0.2702  1.0256
  615MOL0     H82975   4.559   4.409   3.214  0.7223  1.7393 -0.6615
  615MOL0     H82976   4.365   4.257   3.274 -1.2546 -0.7330  0.0818
  615MOL0     H82977   4.234   3.958   3.208  2.1471  0.0787 -0.5772
  615MOL0     H82978   4.148   4.110   3.235 -3.9975  0.8783 -2.3157
  615MOL0     H82979   4.050   3.908   3.103  1.4354 -1.8487 -1.0382
  615MOL0     H82980   4.166   3.958   2.979  0.7162  3.8047 -0.6998
  615MOL0     H82981   4.069   4.180   2.964  1.6539 -3.0698 -1.8805
  615MOL0     H82982   3.941   4.132   3.087  0.1917 -0.6942  0.9432
  615MOL0     H82983   3.869   3.981   2.903 -2.2007 -0.1508 -2.2045
  615MOL0     H82984   3.997   4.045   2.794  1.0337  1.4394  0.3218
  615MOL0     H82985   3.838   4.031   2.586 -2.9566 -1.3640 -2.7073
  615MOL0     H82986   3.578   3.966   2.385  0.6352 -0.7318 -1.0898
  615MOL0     H82987   3.708   4.055   2.312  1.3148  1.3040  1.5563
  615MOL0     H82988   3.738   3.936   2.439 -1.0703 -1.1421  2.0286
  615MOL0     H82989   3.139   4.206   2.429 -1.0334 -3.3117 -1.0791
  615MOL0     H82990   2.955   4.259   2.272 -0.4601  2.7935  0.3304
  615MOL0     H82991   3.025   4.592   1.981 -1.7661  1.0716  1.5691
  615MOL0     H82992   3.036   4.431   1.901 -1.8312  1.3621 -2.6015
  615MOL0     H82993   2.759   4.454   1.938  1.0749 -1.2402  0.2730
  615MOL0     H82994   2.802   4.622   1.972 -0.8171  0.0769 -1.3819
  615MOL0     H82995   2.886   4.481   1.712 -3.4988 -1.4341 -0.2544
  615MOL0     H82996   2.924   4.642   1.749  2.0927 -2.1051 -2.3787
  615MOL0     H82997   2.645   4.520   1.721  1.9607 -2.4144 -2.5529
  615MOL0     H82998   2.670   4.689   1.765  1.6901 -0.9666  0.6021
  615MOL0     H82999   2.759   4.598   1.493  0.0645 -1.0628  0.7657
  615MOL0     H83000   2.774   4.751   1.567 -1.2326  0.5756 -0.8121
  615MOL0     H83001   2.529   4.580   1.502  1.6938 -0.5997 -0.0694
  615MOL0     H83002   2.511   4.729   1.598  1.9075  2.8925 -0.3669
  615MOL0     H83003   2.658   4.723   1.324 -0.1857 -1.0942  0.0370
  615MOL0     H83004   2.593   4.878   1.405 -2.2102  0.7938 -3.2360
  615MOL0     H83005   2.417   4.662   1.290 -1.7236  0.4007  1.1044
  615MOL0     H83006   2.459   4.814   1.219 -0.5421  0.0021  0.1839
  615MOL0     H83007   3.212   4.547   2.078 -1.1494 -0.2141  0.3209
  615MOL0     H83008   3.380   4.509   2.247  0.7342 -0.0960  3.7428
  615MOL0     H83009   3.507   4.383   2.648 -0.8295  0.5399 -2.2081
  615MOL0     H83010   3.672   4.350   2.822  0.1011  0.0136  0.5456
  615MOL0     H83011   5.159   3.352   3.053 -3.1112  2.5600  0.4784
  615MOL0     H83012   5.377   3.267   2.957  0.2509 -2.2900 -2.6135
  615MOL0     H83013   5.802   3.509   2.701 -1.7171  0.3141 -2.3395
  615MOL0     H83014   6.038   3.417   2.679 -0.7354  1.2641  2.1545
  615MOL0     H83015   6.071   2.981   2.686  2.9796 -0.7161  1.8237
  615MOL0     H83016   6.121   3.018   2.523 -2.1227  5.6879 -1.2293
  615MOL0     H83017   6.308   2.938   2.676  0.5275  0.2079 -2.2357
  615MOL0     H83018   6.283   3.080   2.782 -1.0950  0.0133  0.8966
  615MOL0     H83019   6.340   3.234   2.602 -1.2550  0.2481 -0.3705
  615MOL0     H83020   6.370   3.091   2.497  1.1258  1.1831 -1.0053
  615MOL0     H83021   6.567   3.020   2.629 -0.3855  0.1890  1.5606
  615MOL0     H83022   6.524   3.137   2.755  0.6852 -1.7928  0.3016
  615MOL0     H83023   6.740   3.394   2.506 -1.7372  0.6921 -0.7072
  615MOL0     H83024   5.870   3.053   2.557  0.6906  0.0802 -0.8823
  615MOL0     H83025   5.648   3.135   2.575 -1.6373  2.6575 -1.2282
  616MOL0     O83026   7.625   7.168   9.854  0.5720  1.0219  0.0488
  616MOL0     C83027   7.699   7.263   9.869  0.9161 -0.0765  1.2704
  616MOL0     O83028   7.797   7.302   9.775 -0.0085 -0.8801 -0.2545
  616MOL0     C83029   7.817   7.238   9.662 -0.1497 -0.3062 -0.1528
  616MOL0     C83030   7.764   7.284   9.542  0.4370  0.2687 -0.2195
  616MOL0     C83031   7.787   7.214   9.425 -0.6002 -0.3441  1.2990
  616MOL0     C83032   7.873   7.107   9.422  1.2833 -0.2395 -0.3092
  616MOL0     O83033   7.895   7.043   9.298 -0.2856  0.1084 -0.1379
  616MOL0     C83034   8.015   6.966   9.290 -0.1123  0.1661  0.2823
  616MOL0     C83035   8.038   6.926   9.143 -0.2553  0.5045  0.3328
  616MOL0     C83036   8.077   7.047   9.065  0.3170  0.1423  0.5540
  616MOL0     C83037   8.131   7.003   8.926 -0.1869  0.2545 -0.3887
  616MOL0     C83038   8.238   7.090   8.859 -1.1762 -0.2883  0.5269
  616MOL0     C83039   8.374   7.081   8.920 -0.1974  0.7142  0.0634
  616MOL0     C83040   8.487   7.140   8.839  0.6834 -0.8177  0.4862
  616MOL0     C83041   8.487   7.282   8.859  1.0256 -0.0314 -0.3482
  616MOL0     N83042   8.531   7.328   8.992  0.3017 -0.5820  0.4787
  616MOL0     C83043   8.646   7.293   9.048 -1.5682 -0.0498  0.0962
  616MOL0     C83044   8.651   7.369   9.160  0.1802  0.9215  0.3574
  616MOL0     C83045   8.760   7.370   9.256  0.1011  0.4644  0.0593
  616MOL0     C83046   8.745   7.303   9.381 -0.3847  0.5308 -0.6388
  616MOL0     C83047   8.741   7.146   9.374 -0.7694 -0.5629  0.0191
  616MOL0     C83048   8.711   7.087   9.515  0.2848 -0.1136  0.1269
  616MOL0     O83049   8.695   6.947   9.505  0.2173  0.5488  0.4007
  616MOL0     C83050   8.643   6.881   9.613  0.4128 -0.3551 -0.0848
  616MOL0     C83051   8.568   6.761   9.592 -0.1367  0.5998  1.1592
  616MOL0     C83052   8.513   6.690   9.703 -0.2595 -0.0235  1.0321
  616MOL0     C83053   8.423   6.576   9.682  0.0199 -0.1836  0.2691
  616MOL0     C83054   8.550   6.737   9.837 -0.5940  0.6046 -0.1723
  616MOL0     C83055   8.509   6.680   9.965  0.4137 -0.1238  0.3196
  616MOL0     O83056   8.500   6.773  10.070 -0.1236 -0.1632  0.6853
  616MOL0     C83057   8.445   6.728  10.195  0.0318 -0.9505  0.4184
  616MOL0     C83058   8.523   6.717  10.306 -0.3890 -0.3709 -0.2371
  616MOL0     C83059   8.471   6.670  10.425 -0.8874  0.3765 -0.3488
  616MOL0     C83060   8.337   6.641  10.435 -0.5260 -0.1957  0.0348
  616MOL0     O83061   8.290   6.592  10.558  0.4736  0.1254 -0.0038
  616MOL0     C83062   8.241   6.457  10.547 -0.0773  1.1449 -0.3173
  616MOL0     C83063   8.353   6.349  10.591  0.4921  0.7545 -0.3301
  616MOL0     C83064   8.409   6.393  10.735  0.1099 -0.8547 -0.5402
  616MOL0     C83065   8.530   6.317  10.801 -0.3688 -0.4848  0.0270
  616MOL0     C83066   8.573   6.366  10.949 -0.3331  0.6433 -0.9566
  616MOL0     C83067   8.658   6.266  11.023 -0.2134 -0.1861  0.5715
  616MOL0     C83068   8.552   6.174  11.087  0.8491 -0.6501 -0.2137
  616MOL0     C83069   8.600   6.069  11.192 -0.0326 -0.1782 -0.0786
  616MOL0    Cl83070   8.693   6.138  11.328  0.4451 -0.1043  0.1608
  616MOL0     C83071   8.254   6.664  10.325  0.1320  0.4746  0.1409
  616MOL0     C83072   8.309   6.706  10.200  0.6142  0.3937 -0.0651
  616MOL0     O83073   8.468   6.565   9.967 -1.0573  0.6353 -0.2623
  616MOL0     C83074   8.638   6.839   9.851 -0.2505  0.3261  0.6957
  616MOL0     C83075   8.673   6.921   9.741  0.0145  0.4607 -1.0142
  616MOL0     N83076   8.536   7.443   9.174  0.0326  0.0130  0.2488
  616MOL0     N83077   8.459   7.417   9.071  0.2185  0.0429 -0.6085
  616MOL0     C83078   7.926   7.068   9.535  0.0721 -0.0744 -0.8338
  616MOL0     C83079   7.902   7.127   9.666  0.5648  0.2500 -0.0813
  616MOL0     C83080   7.689   7.327  10.000 -0.2277  0.3590 -0.5405
  616MOL0     C83081   7.588   7.294  10.100 -0.2056 -0.2272 -0.5538
  616MOL0     C83082   7.587   7.383  10.215  0.5816 -0.4046  1.0380
  616MOL0     C83083   7.678   7.490  10.231 -0.1980 -0.2444 -0.7273
  616MOL0     O83084   7.682   7.578  10.334 -0.2601 -0.1580  0.7822
  616MOL0     C83085   7.591   7.561  10.448 -0.9099 -0.7389  1.0790
  616MOL0     C83086   7.613   7.673  10.557  0.0415  0.3198  0.3552
  616MOL0     C83087   7.599   7.814  10.487 -0.2227  1.1235 -0.4406
  616MOL0     C83088   7.561   7.930  10.580  0.1691 -0.9569  0.5175
  616MOL0     C83089   7.650   7.940  10.692 -0.3877  0.1102  0.3386
  616MOL0     C83090   7.716   7.938  10.795  0.1658  0.3733 -0.0253
  616MOL0     C83091   7.776   7.505  10.138  0.7166 -0.1189 -0.2920
  616MOL0     C83092   7.786   7.424  10.025  0.0374  0.8847  0.5867
  616MOL0     H83093   7.703   7.374   9.545 -0.2403 -0.1263 -1.5007
  616MOL0     H83094   7.744   7.256   9.335 -1.0956 -0.8280  1.3088
  616MOL0     H83095   8.095   7.027   9.332  0.6857  2.5701 -4.0397
  616MOL0     H83096   7.998   6.878   9.351  0.2905 -0.1385 -0.0422
  616MOL0     H83097   8.114   6.848   9.133  0.9661  1.5140  1.4193
  616MOL0     H83098   7.943   6.890   9.101 -0.0052  0.6099 -0.3268
  616MOL0     H83099   7.986   7.105   9.051  0.4628  0.0346 -0.9544
  616MOL0     H83100   8.148   7.111   9.118  0.5434  0.8528 -0.5774
  616MOL0     H83101   8.179   6.905   8.932  0.7347  0.5871 -1.6004
  616MOL0     H83102   8.046   6.991   8.858 -0.8049 -1.3273  0.6160
  616MOL0     H83103   8.246   7.046   8.758  1.9668  1.3111 -0.0628
  616MOL0     H83104   8.214   7.196   8.850 -1.2740 -0.3476  0.0785
  616MOL0     H83105   8.374   7.125   9.020  2.1330  2.4280 -0.5763
  616MOL0     H83106   8.404   6.976   8.929  1.0448  1.0606  0.1440
  616MOL0     H83107   8.583   7.088   8.850  1.0746 -0.1582  0.2561
  616MOL0     H83108   8.467   7.120   8.733 -1.8855  2.9298  0.0675
  616MOL0     H83109   8.387   7.322   8.838  0.4310 -0.8058  0.8805
  616MOL0     H83110   8.556   7.321   8.784  0.0264  1.7451 -0.4186
  616MOL0     H83111   8.721   7.237   8.992 -1.5773  0.7827 -0.7541
  616MOL0     H83112   8.855   7.341   9.209 -1.1047 -0.9272 -1.6614
  616MOL0     H83113   8.759   7.473   9.291 -0.9601 -1.0551  5.2415
  616MOL0     H83114   8.648   7.338   9.418 -0.5944  2.6620 -2.9460
  616MOL0     H83115   8.814   7.346   9.455 -1.4294 -0.8339  1.2144
  616MOL0     H83116   8.841   7.103   9.357 -1.1094 -0.5172 -2.4736
  616MOL0     H83117   8.678   7.110   9.293  0.0887  0.1651 -1.0059
  616MOL0     H83118   8.618   7.131   9.552 -3.5134 -5.7171 -1.5132
  616MOL0     H83119   8.803   7.115   9.568 -0.9079  1.0460  1.6716
  616MOL0     H83120   8.559   6.725   9.490 -2.9173  2.7455  0.5306
  616MOL0     H83121   8.327   6.586   9.733 -0.6583  0.2128 -1.0543
  616MOL0     H83122   8.422   6.545   9.578  1.2538 -0.5922  0.3553
  616MOL0     H83123   8.463   6.479   9.716 -2.4668 -1.4714 -0.2489
  616MOL0     H83124   8.629   6.740  10.310 -0.6005  0.7280 -0.6036
  616MOL0     H83125   8.531   6.641  10.510  1.3794 -1.4830 -2.4531
  616MOL0     H83126   8.147   6.444  10.602 -1.4580  2.3874 -2.2216
  616MOL0     H83127   8.216   6.430  10.444  2.3698 -1.2001 -0.4056
  616MOL0     H83128   8.324   6.244  10.583  1.8860  0.2461  0.7570
  616MOL0     H83129   8.438   6.366  10.524  2.8131  0.0131  2.2251
  616MOL0     H83130   8.328   6.385  10.809  0.7503 -2.1988  0.0348
  616MOL0     H83131   8.448   6.495  10.737 -1.5127 -0.0597  4.3871
  616MOL0     H83132   8.493   6.214  10.800 -1.2484 -0.3220 -4.0589
  616MOL0     H83133   8.620   6.328  10.740  0.7160 -0.3858  1.5860
  616MOL0     H83134   8.494   6.410  11.010  0.2593  3.2717 -1.9396
  616MOL0     H83135   8.636   6.455  10.945 -0.7651  1.0332  0.3504
  616MOL0     H83136   8.729   6.213  10.959 -0.4229 -2.2376  1.9448
  616MOL0     H83137   8.716   6.327  11.094 -1.3340 -0.6078  1.8867
  616MOL0     H83138   8.497   6.118  11.011 -0.1021 -0.2645  0.1792
  616MOL0     H83139   8.471   6.233  11.130  1.1026 -1.0778  0.8666
  616MOL0     H83140   8.673   6.009  11.137  2.2887  1.4762  1.0520
  616MOL0     H83141   8.523   6.005  11.238 -1.9579  3.2509  1.9536
  616MOL0     H83142   8.147   6.649  10.336  0.1670  1.2491  1.6457
  616MOL0     H83143   8.236   6.726  10.122  0.3841  2.4994  0.6458
  616MOL0     H83144   8.684   6.849   9.948 -0.6353 -2.3679  1.2245
  616MOL0     H83145   8.751   6.993   9.761 -0.6009  0.4454  1.7626
  616MOL0     H83146   7.994   6.983   9.538 -1.6398 -1.4767  1.4548
  616MOL0     H83147   7.951   7.087   9.754  1.9423  1.6786 -0.1598
  616MOL0     H83148   7.518   7.211  10.093  2.3739 -2.7534  1.0034
  616MOL0     H83149   7.504   7.375  10.284 -0.1704 -1.6487  0.0235
  616MOL0     H83150   7.485   7.556  10.422 -1.5134  2.1161  2.5206
  616MOL0     H83151   7.617   7.468  10.500  0.5961  0.7997  3.2686
  616MOL0     H83152   7.713   7.667  10.601 -0.1965  0.5461  0.9361
  616MOL0     H83153   7.535   7.673  10.633 -1.0758 -0.1044 -0.7542
  616MOL0     H83154   7.522   7.791  10.413 -0.1059  1.9228 -0.8244
  616MOL0     H83155   7.695   7.839  10.442  2.5854 -3.0355  2.5097
  616MOL0     H83156   7.461   7.926  10.625  0.3649 -0.8184  0.9708
  616MOL0     H83157   7.568   8.022  10.521  2.5903 -1.6809 -0.4390
  616MOL0     H83158   7.786   7.954  10.875  1.7422  0.3015 -1.3487
  616MOL0     H83159   7.843   7.590  10.149  3.9955 -2.6632  1.0583
  616MOL0     H83160   7.878   7.438   9.968  0.3042  2.3587  1.3252
  617MOL0     O83161   7.841   9.185   7.917 -0.0875  0.0568 -0.3024
  617MOL0     C83162   7.888   9.130   8.018  0.7883 -0.2418  0.8633
  617MOL0     O83163   7.824   9.127   8.145 -0.3537  0.4975  0.3046
  617MOL0     C83164   7.714   9.218   8.150 -0.4428 -0.0312  0.1211
  617MOL0     C83165   7.732   9.354   8.132 -0.4894  0.3760 -0.0226
  617MOL0     C83166   7.618   9.429   8.110 -0.1058  0.8790  0.9962
  617MOL0     C83167   7.487   9.379   8.125  0.0509 -0.2799  0.1510
  617MOL0     O83168   7.376   9.458   8.103  0.8990  1.1520 -0.8221
  617MOL0     C83169   7.254   9.393   8.071 -0.0348 -0.0592  0.0684
  617MOL0     C83170   7.166   9.481   7.982 -0.4868  0.8232  0.3765
  617MOL0     C83171   7.060   9.400   7.911  0.3429  0.3726 -0.3913
  617MOL0     C83172   6.966   9.489   7.845 -0.0564  0.0190 -0.3313
  617MOL0     C83173   6.829   9.435   7.797  0.0502 -0.0423  0.3410
  617MOL0     C83174   6.738   9.550   7.741  1.1853 -0.8737  0.3021
  617MOL0     C83175   6.671   9.624   7.860 -0.9321 -0.4869 -0.0207
  617MOL0     C83176   6.540   9.693   7.820  0.5106 -0.2073  0.5243
  617MOL0     N83177   6.465   9.744   7.941 -0.1932 -0.4483  0.1068
  617MOL0     C83178   6.501   9.861   8.011 -0.3190 -0.7915 -1.2691
  617MOL0     C83179   6.433   9.860   8.127  0.1292  0.4605  0.3676
  617MOL0     C83180   6.442   9.968   8.229  0.0070 -0.4771  0.3859
  617MOL0     C83181   6.555   9.948   8.331 -0.1011  0.6649 -0.1193
  617MOL0     C83182   6.566  10.064   8.428 -0.0679  0.2685  1.0109
  617MOL0     C83183   6.592  10.039   8.575  0.3841  0.1087  0.7118
  617MOL0     O83184   6.717   9.977   8.598 -0.3305 -0.3357  0.4168
  617MOL0     C83185   6.733   9.892   8.703  0.5247 -0.3849 -0.2348
  617MOL0     C83186   6.808   9.779   8.690  0.8666  0.6897 -0.2207
  617MOL0     C83187   6.829   9.699   8.804  0.8853  0.6517 -0.1702
  617MOL0     C83188   6.907   9.560   8.789  0.4205  0.0768  0.3327
  617MOL0     C83189   6.772   9.740   8.937 -0.2304  0.0332 -0.0536
  617MOL0     C83190   6.797   9.657   9.059  0.2421 -0.4217  0.1404
  617MOL0     O83191   6.709   9.588   9.128  0.1087  0.2488  0.2782
  617MOL0     C83192   6.579   9.585   9.081 -0.3329  0.0905 -0.7714
  617MOL0     C83193   6.548   9.473   9.007 -0.2067  0.1934  0.4660
  617MOL0     C83194   6.429   9.453   8.949  0.7433  0.1354  0.9387
  617MOL0     C83195   6.334   9.557   8.960  0.1332 -1.4287 -0.2112
  617MOL0     O83196   6.207   9.538   8.903  0.0680 -0.0084 -0.4341
  617MOL0     C83197   6.092   9.595   8.974 -0.6402 -0.4055 -0.1132
  617MOL0     C83198   5.964   9.558   8.910 -0.0788 -0.6258  0.1879
  617MOL0     C83199   5.842   9.603   8.979  0.2385  0.4318 -0.1544
  617MOL0     C83200   5.706   9.545   8.921  0.1354  0.3343  0.9137
  617MOL0     C83201   5.593   9.626   8.994 -0.4616  0.2434 -0.6004
  617MOL0     C83202   5.454   9.584   8.963 -0.0062  0.0527 -0.1150
  617MOL0     C83203   5.364   9.671   9.036 -0.3779  0.0042 -0.3160
  617MOL0     C83204   5.229   9.609   9.035 -0.1904 -0.1007 -0.0922
  617MOL0    Cl83205   5.118   9.750   9.066  0.4582  0.1832 -0.3741
  617MOL0     C83206   6.360   9.676   9.042  0.8953  0.3970  0.4424
  617MOL0     C83207   6.483   9.687   9.101 -0.7596  0.8095 -0.1855
  617MOL0     O83208   6.912   9.664   9.096 -0.7793  0.4888  0.1540
  617MOL0     C83209   6.710   9.863   8.941 -0.2590  0.2637  0.7564
  617MOL0     C83210   6.686   9.940   8.824 -0.1917 -0.4156 -0.9355
  617MOL0     N83211   6.355   9.744   8.132  0.6299 -1.1341  1.5777
  617MOL0     N83212   6.368   9.685   8.014  0.2467  0.5437  0.2060
  617MOL0     C83213   7.471   9.247   8.152 -0.1702  0.3433 -0.2983
  617MOL0     C83214   7.584   9.165   8.170  0.2556  0.9459  0.6916
  617MOL0     C83215   8.004   9.037   8.000  0.7914  0.2523 -0.1245
  617MOL0     C83216   8.061   9.012   7.874  0.5214  0.1012  0.7732
  617MOL0     C83217   8.171   8.923   7.866 -0.6421 -1.0544 -0.5005
  617MOL0     C83218   8.228   8.866   7.982  0.6226 -0.7464 -0.0192
  617MOL0     O83219   8.335   8.786   7.967  0.1129  0.5419 -0.2734
  617MOL0     C83220   8.454   8.820   8.047  0.5845  0.0345  0.1964
  617MOL0     C83221   8.553   8.919   7.993 -0.0871 -0.3687  0.4668
  617MOL0     C83222   8.499   9.066   7.972  0.2853  0.6313 -0.4986
  617MOL0     C83223   8.591   9.159   7.915 -0.0241  0.4627 -0.3723
  617MOL0     C83224   8.518   9.292   7.925 -0.5453  0.2411  0.1317
  617MOL0     C83225   8.468   9.399   7.897 -0.0331  0.3963 -0.6628
  617MOL0     C83226   8.176   8.900   8.106  0.5036  0.3502 -0.6186
  617MOL0     C83227   8.061   8.978   8.112 -0.0649 -0.3325 -0.7169
  617MOL0     H83228   7.831   9.391   8.108 -1.0817  2.6698  0.7908
  617MOL0     H83229   7.628   9.532   8.079 -0.2779  0.4347 -0.5937
  617MOL0     H83230   7.272   9.304   8.011  2.3406 -1.0673  2.0868
  617MOL0     H83231   7.191   9.355   8.153  2.7509 -1.9095  1.5035
  617MOL0     H83232   7.129   9.568   8.038  0.6098  1.7212 -0.2348
  617MOL0     H83233   7.218   9.523   7.895 -0.6007 -0.9763 -0.5968
  617MOL0     H83234   7.108   9.327   7.845 -4.8050 -6.6144  2.3236
  617MOL0     H83235   7.009   9.331   7.979  0.2239  0.9120  0.0741
  617MOL0     H83236   6.952   9.578   7.907 -2.1842 -1.1724  1.0462
  617MOL0     H83237   7.007   9.517   7.747 -0.4275 -1.9864 -1.1034
  617MOL0     H83238   6.846   9.375   7.707 -0.3595  0.9085 -0.3923
  617MOL0     H83239   6.780   9.381   7.877 -3.1974  0.6391 -1.0434
  617MOL0     H83240   6.815   9.610   7.692 -0.0189 -0.2584 -0.8905
  617MOL0     H83241   6.664   9.498   7.680 -0.0999 -1.4760  2.2627
  617MOL0     H83242   6.647   9.551   7.938 -0.0504 -1.6318 -0.8031
  617MOL0     H83243   6.740   9.697   7.902 -1.7077  0.5360 -0.4752
  617MOL0     H83244   6.472   9.634   7.759 -0.2825  2.4764 -1.3684
  617MOL0     H83245   6.581   9.774   7.759 -1.9084  1.0590  0.4871
  617MOL0     H83246   6.581   9.933   7.995 -0.1606 -1.0249 -1.5341
  617MOL0     H83247   6.459  10.062   8.176 -2.3328 -0.3573 -0.2598
  617MOL0     H83248   6.347   9.963   8.283 -0.2894  1.0454  0.0501
  617MOL0     H83249   6.651   9.932   8.281  1.3382 -1.0334  2.9253
  617MOL0     H83250   6.543   9.852   8.381 -0.2028 -0.4548 -2.2046
  617MOL0     H83251   6.469  10.113   8.421 -0.2456 -0.2780 -1.1502
  617MOL0     H83252   6.639  10.131   8.381 -0.3507 -2.1497 -3.3404
  617MOL0     H83253   6.521   9.976   8.629  0.9641  0.5733  2.0625
  617MOL0     H83254   6.592  10.131   8.635 -6.6339 -1.2103  3.8158
  617MOL0     H83255   6.836   9.749   8.589  0.6218  0.6467 -0.2751
  617MOL0     H83256   6.857   9.483   8.848  0.2812  1.2805  1.8291
  617MOL0     H83257   6.911   9.538   8.682 -0.8377 -0.7946  0.4483
  617MOL0     H83258   7.008   9.567   8.830  0.5715 -0.2820  0.0335
  617MOL0     H83259   6.625   9.397   9.010  2.6888  2.7470 -1.8462
  617MOL0     H83260   6.426   9.363   8.889  2.0406 -0.0477  1.1357
  617MOL0     H83261   6.096   9.555   9.076  2.9851 -0.5277 -0.1800
  617MOL0     H83262   6.099   9.703   8.983 -0.9510  0.0261 -3.6548
  617MOL0     H83263   5.968   9.613   8.815  2.4319 -1.1211 -0.0655
  617MOL0     H83264   5.956   9.452   8.884 -0.9132 -1.3263  2.9706
  617MOL0     H83265   5.829   9.711   8.973 -0.3947  0.3027 -1.4950
  617MOL0     H83266   5.849   9.556   9.078 -0.5289 -0.3010 -0.4388
  617MOL0     H83267   5.715   9.564   8.813  2.5429 -0.3540  0.9242
  617MOL0     H83268   5.690   9.437   8.930  0.4863 -0.0987 -2.3308
  617MOL0     H83269   5.605   9.731   8.966 -0.0686  1.0528  2.2987
  617MOL0     H83270   5.605   9.618   9.102  1.0297  1.8713 -0.5918
  617MOL0     H83271   5.428   9.594   8.857 -0.8899 -1.1117 -0.0252
  617MOL0     H83272   5.429   9.482   8.991  0.1697  0.8038  3.1350
  617MOL0     H83273   5.351   9.763   8.978  3.3659  0.7434 -0.2230
  617MOL0     H83274   5.394   9.698   9.138  3.6276  0.0752 -1.3454
  617MOL0     H83275   5.214   9.525   9.103 -0.9044 -1.9520 -2.4137
  617MOL0     H83276   5.198   9.567   8.939  1.0222 -1.2006 -0.0377
  617MOL0     H83277   6.285   9.751   9.066  1.0074  0.3083  1.0648
  617MOL0     H83278   6.504   9.772   9.165  1.0151  1.6878 -1.8309
  617MOL0     H83279   6.666   9.902   9.032  2.1236  0.1127  2.0524
  617MOL0     H83280   6.639  10.039   8.827  0.1907 -0.2458 -0.5595
  617MOL0     H83281   7.379   9.193   8.173 -0.2225  1.0392  1.4014
  617MOL0     H83282   7.562   9.065   8.206  0.8579 -0.3330 -2.1806
  617MOL0     H83283   8.022   9.062   7.786  4.1728  1.1577 -0.3933
  617MOL0     H83284   8.224   8.904   7.774  2.1225 -1.0948  0.9896
  617MOL0     H83285   8.427   8.852   8.148  0.1967 -3.1815  1.2268
  617MOL0     H83286   8.502   8.723   8.056  0.5275  0.0161  0.2988
  617MOL0     H83287   8.606   8.878   7.906  0.1688 -1.5602  1.1639
  617MOL0     H83288   8.633   8.938   8.066  1.7507  2.5184 -2.0463
  617MOL0     H83289   8.469   9.100   8.072  0.0402  2.3048 -1.1075
  617MOL0     H83290   8.403   9.061   7.919 -1.3180  1.6327  2.1313
  617MOL0     H83291   8.607   9.125   7.812 -2.6278 -0.3845 -0.5540
  617MOL0     H83292   8.690   9.179   7.959 -0.6535  4.0960 -0.2885
  617MOL0     H83293   8.409   9.485   7.871 -0.6122  0.0971 -0.3614
  617MOL0     H83294   8.219   8.868   8.201  4.9130 -0.1282 -2.5356
  617MOL0     H83295   8.028   9.007   8.212  2.9077  2.0611 -0.2879
  618MOL0     O83296   7.735   1.808   6.827  0.0249  0.2696  0.3368
  618MOL0     C83297   7.733   1.772   6.940 -0.6432 -0.4313  0.6552
  618MOL0     O83298   7.824   1.698   7.001 -0.2102  0.5366 -0.2445
  618MOL0     C83299   7.953   1.675   6.947 -1.2837  0.0256 -1.0179
  618MOL0     C83300   7.980   1.574   6.849  0.4328 -0.4249  0.8831
  618MOL0     C83301   8.106   1.558   6.796  0.8503  0.3925  0.3681
  618MOL0     C83302   8.212   1.625   6.845  1.1242  0.1620 -0.7626
  618MOL0     O83303   8.337   1.614   6.786 -0.0105  0.0729  0.0843
  618MOL0     C83304   8.379   1.484   6.740  0.2819  0.7499  0.2774
  618MOL0     C83305   8.530   1.480   6.709 -0.0614  0.0826 -0.2084
  618MOL0     C83306   8.582   1.341   6.660  0.3278  0.6905  0.2483
  618MOL0     C83307   8.541   1.309   6.519  0.0601  0.2823  0.3120
  618MOL0     C83308   8.621   1.188   6.462 -0.5103  0.1532  0.7470
  618MOL0     C83309   8.551   1.148   6.333  1.2775  0.3721  0.0496
  618MOL0     C83310   8.476   1.250   6.245  1.1301  0.4522  0.3052
  618MOL0     C83311   8.572   1.338   6.169 -0.5561  0.6866 -0.1458
  618MOL0     N83312   8.522   1.453   6.084  0.6329  0.0370 -0.6371
  618MOL0     C83313   8.398   1.486   6.043  1.1900 -0.3348  0.0077
  618MOL0     C83314   8.427   1.558   5.930  0.2861 -0.3990  0.5555
  618MOL0     C83315   8.341   1.610   5.818  0.4921 -0.0334 -0.2381
  618MOL0     C83316   8.209   1.661   5.871  0.5892  0.1136 -0.0261
  618MOL0     C83317   8.096   1.697   5.770 -0.9329  0.4581 -0.8916
  618MOL0     C83318   8.111   1.839   5.719  0.1184 -0.3084 -0.3605
  618MOL0     O83319   8.004   1.870   5.631 -1.0864  0.9950  0.2364
  618MOL0     C83320   8.015   1.979   5.542 -0.4857  0.1892  0.0196
  618MOL0     C83321   7.914   2.012   5.467 -0.8976  0.6064  0.1942
  618MOL0     C83322   7.910   2.133   5.397 -0.0659  0.4122 -0.6984
  618MOL0     C83323   7.780   2.151   5.319 -0.3649 -0.3061  0.2958
  618MOL0     C83324   8.018   2.220   5.397  0.2124 -0.3607 -0.1583
  618MOL0     C83325   8.020   2.330   5.307  0.4481 -0.3259  0.3278
  618MOL0     O83326   7.965   2.448   5.342  0.0555  0.2159  0.5449
  618MOL0     C83327   7.973   2.562   5.255 -0.8803  0.4649  0.3453
  618MOL0     C83328   7.867   2.653   5.279  0.9633  0.4241 -0.2910
  618MOL0     C83329   7.856   2.791   5.236 -0.5163 -0.0277  0.3839
  618MOL0     C83330   7.965   2.840   5.164  0.5966 -0.1625  0.6679
  618MOL0     O83331   7.960   2.975   5.130 -0.2599 -0.3183 -0.3698
  618MOL0     C83332   7.900   3.004   5.008 -0.0725 -0.2841 -0.2158
  618MOL0     C83333   7.807   3.128   5.028 -1.3004  0.5796 -0.7066
  618MOL0     C83334   7.747   3.188   4.896 -0.3018  0.3861  0.1164
  618MOL0     C83335   7.729   3.342   4.902  1.1594 -0.5080 -0.4641
  618MOL0     C83336   7.624   3.384   4.795  0.8378 -0.2856 -0.4020
  618MOL0     C83337   7.604   3.545   4.809 -0.3200 -0.0559 -0.2217
  618MOL0     C83338   7.500   3.582   4.716  0.4767  0.6452  0.8421
  618MOL0     C83339   7.473   3.734   4.722  0.9700  0.0314  0.3439
  618MOL0    Cl83340   7.602   3.826   4.645  0.0774 -0.0138 -0.1251
  618MOL0     C83341   8.083   2.757   5.154 -0.3956 -0.5021 -0.0583
  618MOL0     C83342   8.089   2.620   5.201 -0.1183 -0.2179  0.2603
  618MOL0     O83343   8.051   2.299   5.190 -0.4365 -0.3634 -0.9960
  618MOL0     C83344   8.129   2.192   5.483  0.5576 -0.9295 -0.5774
  618MOL0     C83345   8.121   2.069   5.560  0.4279 -0.7315  0.4709
  618MOL0     N83346   8.566   1.583   5.910  0.4657 -0.7905  0.6973
  618MOL0     N83347   8.617   1.525   6.012  0.7045 -0.1780  0.0164
  618MOL0     C83348   8.194   1.720   6.948  0.2500 -0.3536 -0.4505
  618MOL0     C83349   8.064   1.739   7.000 -0.0917  0.2207 -0.1558
  618MOL0     C83350   7.609   1.798   7.024  0.0498 -0.4756 -0.1422
  618MOL0     C83351   7.487   1.855   6.972  0.0694 -0.2112 -0.2124
  618MOL0     C83352   7.380   1.894   7.056 -0.5429  0.0711  0.9231
  618MOL0     C83353   7.392   1.863   7.195 -0.7676 -0.5701  0.7869
  618MOL0     O83354   7.285   1.891   7.279  0.0994  0.0731  0.5035
  618MOL0     C83355   7.219   2.023   7.288 -0.8926  1.3661  0.5247
  618MOL0     C83356   7.316   2.151   7.280  0.5287  0.5219 -0.1444
  618MOL0     C83357   7.310   2.229   7.151 -1.0944  0.1892 -0.8601
  618MOL0     C83358   7.186   2.321   7.125 -0.6212 -0.1726 -0.1794
  618MOL0     C83359   7.156   2.404   7.249  1.0588  0.2210  0.0621
  618MOL0     C83360   7.135   2.473   7.348  0.2563 -0.8096 -0.0102
  618MOL0     C83361   7.510   1.813   7.246  0.2319  0.2358  0.7212
  618MOL0     C83362   7.614   1.778   7.167  0.0048  0.6965 -1.6756
  618MOL0     H83363   7.897   1.516   6.812  1.8224 -1.0666 -1.4387
  618MOL0     H83364   8.119   1.483   6.718  1.7605  0.9334 -0.0128
  618MOL0     H83365   8.355   1.401   6.807 -0.7068 -0.1044 -1.0701
  618MOL0     H83366   8.336   1.469   6.640  0.0792 -2.2273  0.7293
  618MOL0     H83367   8.555   1.556   6.635 -0.9540 -0.8687 -1.5273
  618MOL0     H83368   8.571   1.495   6.810  0.5193 -2.1060 -0.0663
  618MOL0     H83369   8.691   1.337   6.664  0.5542  3.5071 -0.8429
  618MOL0     H83370   8.546   1.257   6.720  2.7732 -2.8595 -2.7333
  618MOL0     H83371   8.433   1.289   6.521 -0.3858  2.4500  2.3924
  618MOL0     H83372   8.556   1.404   6.466  1.3957  0.0585  0.2533
  618MOL0     H83373   8.726   1.210   6.437 -1.1932  0.4231 -2.3830
  618MOL0     H83374   8.622   1.095   6.519  0.5540  0.6450  1.5584
  618MOL0     H83375   8.618   1.099   6.262 -0.1359 -0.7966 -0.5308
  618MOL0     H83376   8.471   1.075   6.347  1.6941 -0.8971 -3.2904
  618MOL0     H83377   8.422   1.200   6.164 -1.2115  3.2017 -0.0125
  618MOL0     H83378   8.400   1.296   6.308 -0.6201 -4.8520  2.5915
  618MOL0     H83379   8.638   1.278   6.105 -0.0110  2.0609 -0.9081
  618MOL0     H83380   8.636   1.387   6.242  0.0613  2.4833 -1.8213
  618MOL0     H83381   8.301   1.450   6.075  0.9135 -0.5096 -0.9924
  618MOL0     H83382   8.388   1.700   5.776  1.3518  0.4513  1.6326
  618MOL0     H83383   8.324   1.531   5.744  0.4740  1.6919 -2.1899
  618MOL0     H83384   8.230   1.752   5.928 -1.8626  1.4996 -1.1852
  618MOL0     H83385   8.173   1.587   5.945  2.0290  0.7751  1.3968
  618MOL0     H83386   7.997   1.686   5.815 -2.4113  1.0495 -3.7642
  618MOL0     H83387   8.100   1.628   5.685  1.5316  0.2450 -0.6796
  618MOL0     H83388   8.205   1.851   5.664  0.3151  2.5689  0.4606
  618MOL0     H83389   8.120   1.914   5.798  1.1208 -1.1913  0.3964
  618MOL0     H83390   7.824   1.951   5.463 -2.2958  2.4647  1.6993
  618MOL0     H83391   7.794   2.110   5.219 -1.1305  1.2316 -0.4799
  618MOL0     H83392   7.702   2.099   5.376 -0.0748  1.3082  2.2842
  618MOL0     H83393   7.747   2.256   5.321  1.0254  0.2198 -1.5536
  618MOL0     H83394   7.779   2.617   5.330 -2.0610  2.6768 -3.4353
  618MOL0     H83395   7.776   2.850   5.279  0.9859  1.1283  1.7577
  618MOL0     H83396   7.977   3.038   4.938  0.1235  1.7543  0.8899
  618MOL0     H83397   7.853   2.918   4.961  2.2624 -1.1772 -1.0493
  618MOL0     H83398   7.728   3.100   5.098 -2.4154  0.0703 -2.1129
  618MOL0     H83399   7.880   3.200   5.065 -0.2410 -1.3033  1.1313
  618MOL0     H83400   7.650   3.140   4.875 -1.4380  3.2725 -1.9789
  618MOL0     H83401   7.808   3.159   4.810  1.4874 -2.3518  2.1626
  618MOL0     H83402   7.689   3.374   4.999 -0.4684  1.9572 -1.8540
  618MOL0     H83403   7.813   3.404   4.870 -0.3179  2.6520  1.2789
  618MOL0     H83404   7.521   3.352   4.811  0.0693  1.6961 -0.9971
  618MOL0     H83405   7.646   3.349   4.694  2.3704 -0.4665 -0.0290
  618MOL0     H83406   7.578   3.579   4.909 -2.2888 -1.5010 -0.1795
  618MOL0     H83407   7.699   3.594   4.788 -1.0004  1.6219  0.4846
  618MOL0     H83408   7.408   3.525   4.730  0.2918  1.1296  1.6917
  618MOL0     H83409   7.534   3.558   4.615  3.7158  3.4410  1.0640
  618MOL0     H83410   7.443   3.763   4.823  1.9883 -2.6109  1.5114
  618MOL0     H83411   7.378   3.737   4.668  1.4159 -1.2296 -0.5712
  618MOL0     H83412   8.181   2.795   5.128 -0.0991 -0.0048  1.6157
  618MOL0     H83413   8.187   2.573   5.199 -0.1773 -0.3145 -0.7450
  618MOL0     H83414   8.213   2.259   5.497  0.5522 -1.0103 -0.1458
  618MOL0     H83415   8.202   2.057   5.630  0.5807  0.1555  0.4653
  618MOL0     H83416   8.283   1.770   6.985 -0.1294  0.4803 -0.6308
  618MOL0     H83417   8.055   1.814   7.078  0.3139  0.0662  0.0400
  618MOL0     H83418   7.488   1.885   6.868 -2.3335 -1.4248 -0.6404
  618MOL0     H83419   7.290   1.944   7.020  0.0395  0.8581  0.5229
  618MOL0     H83420   7.147   2.036   7.207 -1.1290 -0.5453  0.3830
  618MOL0     H83421   7.160   2.016   7.380  1.9478 -1.5382  2.3187
  618MOL0     H83422   7.420   2.124   7.299  0.1020 -0.2765  1.2163
  618MOL0     H83423   7.289   2.221   7.359  1.4541  2.7882 -1.7394
  618MOL0     H83424   7.335   2.165   7.065  2.3989  0.7672 -0.4275
  618MOL0     H83425   7.393   2.299   7.156 -1.1917  0.2676 -0.2986
  618MOL0     H83426   7.108   2.247   7.105 -1.5514  0.8940 -0.6198
  618MOL0     H83427   7.200   2.391   7.042 -1.5109  4.3046  3.0714
  618MOL0     H83428   7.142   2.519   7.445 -1.0808 -0.5380 -0.0207
  618MOL0     H83429   7.522   1.792   7.351 -0.2461  1.3641  1.0132
  618MOL0     H83430   7.701   1.739   7.217 -1.2005  0.8304  0.6744
  619MOL0     O83431   1.994   4.064   0.065 -0.8784  0.0039 -0.1259
  619MOL0     C83432   1.970   4.024  -0.051 -1.0108 -0.3160 -0.2795
  619MOL0     O83433   1.945   4.092  -0.154  1.1954  0.0530 -0.6489
  619MOL0     C83434   1.966   4.225  -0.144 -0.8478 -0.6105  0.1857
  619MOL0     C83435   2.093   4.281  -0.126  0.1940 -0.1713 -0.2272
  619MOL0     C83436   2.115   4.421  -0.118  0.5784  0.2877 -0.1504
  619MOL0     C83437   2.001   4.504  -0.116  0.3646  0.1303 -0.6136
  619MOL0     O83438   2.019   4.635  -0.097  0.1474  0.3815 -0.5826
  619MOL0     C83439   1.919   4.729  -0.109 -0.0222 -0.1823 -0.8751
  619MOL0     C83440   1.846   4.749  -0.244 -0.7258  0.2108  0.3081
  619MOL0     C83441   1.734   4.848  -0.236 -0.5433  0.0917  0.3206
  619MOL0     C83442   1.646   4.841  -0.365  0.3940  0.6870 -0.1938
  619MOL0     C83443   1.537   4.952  -0.346  0.0454 -0.1046 -0.1772
  619MOL0     C83444   1.590   5.096  -0.351  0.4066  0.9658  0.1314
  619MOL0     C83445   1.478   5.201  -0.361 -0.0009  0.1097  0.2259
  619MOL0     C83446   1.364   5.199  -0.256 -0.3612  0.3839 -0.5734
  619MOL0     N83447   1.287   5.321  -0.249 -0.2698 -0.2921  0.0001
  619MOL0     C83448   1.340   5.429  -0.191  0.5508  0.0305  0.9850
  619MOL0     C83449   1.257   5.533  -0.216 -0.0841  0.3528 -0.4063
  619MOL0     C83450   1.290   5.677  -0.198 -0.6787 -0.0986  0.2537
  619MOL0     C83451   1.300   5.749  -0.335  0.5294 -0.3478  0.3404
  619MOL0     C83452   1.444   5.775  -0.379  0.2923 -0.5461 -0.6856
  619MOL0     C83453   1.500   5.655  -0.462 -0.5303  0.6560 -0.3786
  619MOL0     O83454   1.644   5.656  -0.476  0.4933  0.4238  0.1900
  619MOL0     C83455   1.709   5.562  -0.397 -0.4704 -0.8864 -0.2528
  619MOL0     C83456   1.674   5.540  -0.270 -1.0626  0.4099  0.7253
  619MOL0     C83457   1.756   5.453  -0.188 -0.5099  0.2615 -0.6147
  619MOL0     C83458   1.697   5.423  -0.046 -0.1147  0.2695  0.2589
  619MOL0     C83459   1.881   5.414  -0.234 -0.3246  0.3043 -0.6685
  619MOL0     C83460   1.974   5.332  -0.151  0.5797 -0.0650 -0.3924
  619MOL0     O83461   2.100   5.316  -0.197 -0.5034 -0.3386  0.3864
  619MOL0     C83462   2.174   5.235  -0.121  0.1425  0.9411 -0.2980
  619MOL0     C83463   2.285   5.279  -0.043 -0.3127 -1.0445 -0.1953
  619MOL0     C83464   2.378   5.187   0.018 -0.1002  0.3081 -0.0816
  619MOL0     C83465   2.361   5.051   0.010 -0.2038  0.4379 -1.2286
  619MOL0     O83466   2.458   4.970   0.074  1.2051  0.3934  0.2172
  619MOL0     C83467   2.438   4.828   0.074  0.0778  0.3731 -0.3755
  619MOL0     C83468   2.573   4.780   0.124  0.2111 -0.5369  0.3688
  619MOL0     C83469   2.678   4.782   0.014 -1.1089 -0.8809  0.1539
  619MOL0     C83470   2.814   4.754   0.084 -0.0049  0.3282 -0.1960
  619MOL0     C83471   2.877   4.877   0.148 -0.0266  0.6710  0.3863
  619MOL0     C83472   2.952   4.842   0.281  0.5160  0.0978  0.8761
  619MOL0     C83473   3.075   4.743   0.270 -0.3411  0.4199  0.0970
  619MOL0     C83474   3.179   4.771   0.169 -0.9430 -0.8176  0.4725
  619MOL0    Cl83475   3.297   4.896   0.218 -0.1318 -0.0096  0.6425
  619MOL0     C83476   2.250   5.004  -0.065  0.1556 -0.0546  0.2767
  619MOL0     C83477   2.163   5.099  -0.131  0.1841  0.5303  0.3170
  619MOL0     O83478   1.930   5.275  -0.048 -0.0794 -0.2978  0.5642
  619MOL0     C83479   1.919   5.454  -0.362 -0.0911  0.1551  0.8629
  619MOL0     C83480   1.837   5.530  -0.446  0.5085  0.5760  0.2728
  619MOL0     N83481   1.154   5.479  -0.282  0.4718  0.4886  1.1435
  619MOL0     N83482   1.158   5.349  -0.288 -0.2448 -0.5923  0.4358
  619MOL0     C83483   1.870   4.446  -0.133 -0.5534 -0.6464 -0.2652
  619MOL0     C83484   1.859   4.308  -0.162 -0.2814 -0.4376  0.4018
  619MOL0     C83485   1.987   3.881  -0.076 -0.1315 -0.4081  0.0382
  619MOL0     C83486   1.941   3.817  -0.194  0.2105 -0.5971 -0.6655
  619MOL0     C83487   1.957   3.678  -0.218  0.1831 -0.2611 -0.0650
  619MOL0     C83488   2.018   3.591  -0.126  0.4060 -0.7579  0.2792
  619MOL0     O83489   2.020   3.449  -0.152 -0.8562 -0.9341 -0.5185
  619MOL0     C83490   1.933   3.380  -0.062  0.2932 -0.5003 -1.0482
  619MOL0     C83491   1.931   3.244  -0.122 -0.7713  0.2871 -0.2038
  619MOL0     C83492   2.078   3.171  -0.112  0.1117  0.2998 -0.4465
  619MOL0     C83493   2.096   3.104   0.026 -0.1188  0.2159  0.2017
  619MOL0     C83494   2.022   2.977   0.008  0.1540  0.0478  0.0437
  619MOL0     C83495   1.951   2.885  -0.020  0.9238  1.0225 -0.0325
  619MOL0     C83496   2.060   3.656  -0.004 -0.3786  0.3136  0.2792
  619MOL0     C83497   2.056   3.792   0.023  0.0896 -0.3060 -0.7092
  619MOL0     H83498   2.182   4.222  -0.146 -0.7857 -0.8298 -3.2400
  619MOL0     H83499   2.212   4.470  -0.117  0.1498  1.2388 -1.6983
  619MOL0     H83500   1.842   4.712  -0.033  1.0006  2.5640  0.9422
  619MOL0     H83501   1.965   4.826  -0.084 -4.7260  2.3084 -0.6627
  619MOL0     H83502   1.918   4.791  -0.316  1.0220  0.4240  2.0773
  619MOL0     H83503   1.814   4.651  -0.280 -1.5359  0.6354 -0.1442
  619MOL0     H83504   1.688   4.849  -0.137  5.4843 -0.0714  3.5943
  619MOL0     H83505   1.778   4.948  -0.228 -1.7959  0.5816  1.6621
  619MOL0     H83506   1.711   4.851  -0.452  2.5470  0.5755  1.3158
  619MOL0     H83507   1.609   4.739  -0.375  2.3875 -0.1180  0.2449
  619MOL0     H83508   1.460   4.934  -0.422 -2.8614 -1.6184  2.8478
  619MOL0     H83509   1.477   4.929  -0.257 -4.8145 -4.3140 -3.9156
  619MOL0     H83510   1.655   5.122  -0.266 -0.5595  0.4257  1.0552
  619MOL0     H83511   1.657   5.103  -0.438  0.3860 -0.3342 -0.0094
  619MOL0     H83512   1.537   5.293  -0.362 -1.1067  0.8313  0.2932
  619MOL0     H83513   1.429   5.185  -0.458 -3.4225  3.3769  1.2237
  619MOL0     H83514   1.417   5.182  -0.162  1.4927  0.8028 -1.4855
  619MOL0     H83515   1.290   5.119  -0.265 -2.3424  2.3024 -2.2938
  619MOL0     H83516   1.441   5.441  -0.153  1.3161  0.4208 -1.0348
  619MOL0     H83517   1.203   5.725  -0.150 -0.3092  1.2979 -0.4316
  619MOL0     H83518   1.380   5.696  -0.139 -0.0149 -0.1971 -0.7019
  619MOL0     H83519   1.254   5.848  -0.325 -1.2285 -1.1592  0.7922
  619MOL0     H83520   1.242   5.697  -0.412 -0.4268 -1.0473  1.4972
  619MOL0     H83521   1.514   5.801  -0.300 -0.2090 -0.1783 -0.3614
  619MOL0     H83522   1.439   5.859  -0.449 -0.4575 -2.1203 -2.6427
  619MOL0     H83523   1.464   5.663  -0.564  0.4386  1.6468 -0.6651
  619MOL0     H83524   1.462   5.565  -0.412 -1.8251  3.4331  4.3684
  619MOL0     H83525   1.594   5.590  -0.216 -0.8684  0.4466  0.9770
  619MOL0     H83526   1.772   5.425   0.033 -0.5252 -6.0762  1.3770
  619MOL0     H83527   1.613   5.488  -0.018  0.1266  0.7102 -0.0255
  619MOL0     H83528   1.660   5.320  -0.055  1.3614 -0.3222  0.8265
  619MOL0     H83529   2.306   5.385  -0.048 -2.1227 -0.7208 -2.4377
  619MOL0     H83530   2.460   5.245   0.060  0.0499  1.0277 -1.3152
  619MOL0     H83531   2.353   4.808   0.141  1.5289  0.2744  1.5001
  619MOL0     H83532   2.417   4.781  -0.023  0.1935  0.9618 -0.6847
  619MOL0     H83533   2.605   4.845   0.206 -2.3070  0.5846  0.5624
  619MOL0     H83534   2.560   4.677   0.160  1.8076 -0.5687  0.9364
  619MOL0     H83535   2.692   4.879  -0.034  0.7798 -0.0059  2.2963
  619MOL0     H83536   2.643   4.699  -0.048 -2.0138  0.5695 -1.3477
  619MOL0     H83537   2.803   4.677   0.160  0.6198  1.7709  1.4364
  619MOL0     H83538   2.870   4.707   0.003 -0.3190 -0.7733  0.2134
  619MOL0     H83539   2.790   4.941   0.166 -2.2091 -1.8961 -0.3479
  619MOL0     H83540   2.938   4.926   0.071  1.5448 -2.0311 -0.2466
  619MOL0     H83541   2.993   4.933   0.324  1.5558  1.1081 -2.0402
  619MOL0     H83542   2.878   4.792   0.344  0.8693  2.1400  3.0226
  619MOL0     H83543   3.030   4.645   0.253  1.0239 -0.8759  3.1122
  619MOL0     H83544   3.128   4.720   0.363  0.7038 -1.9708 -1.0233
  619MOL0     H83545   3.136   4.804   0.074  1.0835 -0.1845 -0.2820
  619MOL0     H83546   3.219   4.672   0.143 -1.1804 -1.2148  1.5383
  619MOL0     H83547   2.218   4.902  -0.084  2.0352 -1.3711  3.3677
  619MOL0     H83548   2.078   5.062  -0.188 -0.3505  1.0198  0.7827
  619MOL0     H83549   2.021   5.429  -0.389  0.5857 -0.7072  3.8593
  619MOL0     H83550   1.859   5.543  -0.551  0.9445  0.5342  0.3582
  619MOL0     H83551   1.773   4.493  -0.131 -0.1968  0.1211  2.4043
  619MOL0     H83552   1.760   4.265  -0.178 -0.3871 -0.2567  0.5688
  619MOL0     H83553   1.896   3.877  -0.272  2.2454  0.9227 -0.7406
  619MOL0     H83554   1.925   3.639  -0.314  3.5121 -1.0987 -0.9813
  619MOL0     H83555   1.978   3.384   0.038 -2.2372  1.5939  0.1339
  619MOL0     H83556   1.836   3.430  -0.062  1.0763  1.0942  0.1430
  619MOL0     H83557   1.898   3.242  -0.226 -1.3021  0.9779 -0.0538
  619MOL0     H83558   1.857   3.184  -0.068 -0.0271 -2.1952 -1.7917
  619MOL0     H83559   2.164   3.238  -0.122 -0.7021  1.0640 -3.0682
  619MOL0     H83560   2.092   3.095  -0.189  1.2905 -1.5730  1.4778
  619MOL0     H83561   2.041   3.166   0.098  0.9976  1.5100 -0.0351
  619MOL0     H83562   2.203   3.097   0.044  0.5676  0.1712 -3.3101
  619MOL0     H83563   1.888   2.805  -0.053  0.4472  0.2073  2.6001
  619MOL0     H83564   2.084   3.585   0.074  2.6954  1.4845  0.5305
  619MOL0     H83565   2.090   3.822   0.121 -1.6083 -3.0602  0.8436
  620MOL0     O83566  10.549   0.407  10.422  0.7523  0.5095  0.4370
  620MOL0     C83567  10.545   0.323  10.327  0.4827 -0.9568  1.0480
  620MOL0     O83568  10.524   0.357  10.194  0.3466  0.1654 -0.1393
  620MOL0     C83569  10.495   0.488  10.163 -0.0759 -0.6229 -0.2938
  620MOL0     C83570  10.399   0.556  10.239 -0.0444  0.0508 -0.3806
  620MOL0     C83571  10.366   0.689  10.217 -0.3316  0.4259  0.0905
  620MOL0     C83572  10.420   0.747  10.103  0.9071 -0.1168  1.0062
  620MOL0     O83573  10.385   0.874  10.064  0.0134 -0.2628 -0.1663
  620MOL0     C83574  10.259   0.938  10.104  0.5985 -0.3320 -0.4371
  620MOL0     C83575  10.197   1.031   9.994  0.6276 -0.0043 -1.1136
  620MOL0     C83576  10.293   1.144   9.958 -0.3431  0.1646  0.3132
  620MOL0     C83577  10.319   1.158   9.810 -0.7747 -0.5693  0.1673
  620MOL0     C83578  10.437   1.263   9.774  1.0670 -0.7148 -0.1430
  620MOL0     C83579  10.448   1.407   9.851  0.8431 -0.1434  1.0303
  620MOL0     C83580  10.318   1.497   9.847  0.3848 -0.2357  0.1133
  620MOL0     C83581  10.359   1.627   9.797  0.6180  0.2020  0.2819
  620MOL0     N83582  10.243   1.712   9.773  0.4900  0.4909 -0.4183
  620MOL0     C83583  10.144   1.743   9.868 -0.8136 -0.5971 -0.8897
  620MOL0     C83584  10.051   1.809   9.805  0.0703  0.1961 -0.6157
  620MOL0     C83585   9.924   1.872   9.847  0.1790 -0.7975  0.0627
  620MOL0     C83586   9.794   1.797   9.812 -0.5563  0.1663  0.0422
  620MOL0     C83587   9.789   1.745   9.670  0.6248  0.4636  0.1235
  620MOL0     C83588   9.788   1.867   9.573 -0.2927  0.2174 -0.3201
  620MOL0     O83589   9.655   1.921   9.576  0.3381 -0.3866  0.2179
  620MOL0     C83590   9.567   1.870   9.481 -0.2926  0.1958  0.5586
  620MOL0     C83591   9.609   1.794   9.369  0.7090 -0.4129  0.3314
  620MOL0     C83592   9.514   1.761   9.269 -0.5785  0.1665  0.8470
  620MOL0     C83593   9.570   1.701   9.145  0.0859  0.8370  0.2076
  620MOL0     C83594   9.372   1.781   9.294 -0.3040  0.6230  0.2432
  620MOL0     C83595   9.266   1.755   9.192  0.0568  0.6162 -0.7160
  620MOL0     O83596   9.287   1.660   9.106 -0.2870 -1.2951 -0.0084
  620MOL0     C83597   9.193   1.583   9.036  1.1385  1.4447  0.7684
  620MOL0     C83598   9.246   1.481   8.956  0.3192  0.8291 -1.0398
  620MOL0     C83599   9.166   1.395   8.889 -0.4030  0.2129 -0.3065
  620MOL0     C83600   9.029   1.406   8.889 -0.1137  0.0643  0.4687
  620MOL0     O83601   8.954   1.324   8.818  0.1911 -0.0985 -0.2809
  620MOL0     C83602   8.919   1.376   8.691  0.1715 -0.3858  0.7644
  620MOL0     C83603   8.869   1.268   8.592 -0.3450  0.3517 -0.1142
  620MOL0     C83604   8.965   1.140   8.598 -0.6530 -0.6834  0.3107
  620MOL0     C83605   8.925   1.045   8.476 -0.7165  0.0065 -0.0901
  620MOL0     C83606   8.819   0.937   8.497  0.0594 -0.6210  0.1880
  620MOL0     C83607   8.853   0.836   8.606  0.6306 -0.0336  0.0708
  620MOL0     C83608   8.739   0.808   8.702 -0.1689  0.5363 -0.1335
  620MOL0     C83609   8.731   0.663   8.766  0.4871 -0.5241 -0.2144
  620MOL0    Cl83610   8.595   0.663   8.890 -0.2182 -0.1681 -0.2648
  620MOL0     C83611   8.974   1.509   8.965 -0.4299 -0.1157 -0.8638
  620MOL0     C83612   9.052   1.590   9.042 -0.1770 -0.5425 -0.0739
  620MOL0     O83613   9.166   1.819   9.208  0.2886 -0.1310 -0.7977
  620MOL0     C83614   9.338   1.852   9.404  0.1793  0.4818  0.9574
  620MOL0     C83615   9.430   1.888   9.493 -0.0988 -0.9110 -0.0829
  620MOL0     N83616  10.092   1.844   9.681  0.0997 -0.0187 -0.6019
  620MOL0     N83617  10.203   1.776   9.662 -0.4323 -0.2781 -0.8651
  620MOL0     C83618  10.510   0.676  10.011 -0.5471  0.4301  0.6245
  620MOL0     C83619  10.540   0.544  10.042  0.0537  0.1747 -0.0178
  620MOL0     C83620  10.561   0.180  10.368 -1.0209 -0.6471  0.5496
  620MOL0     C83621  10.551   0.142  10.504  0.1151  0.2416 -0.1490
  620MOL0     C83622  10.551   0.006  10.533 -0.8938 -0.8047  0.6593
  620MOL0     C83623  10.577  -0.090  10.433  0.7616 -0.2774 -0.5193
  620MOL0     O83624  10.568  -0.225  10.456 -0.3313  0.3479  0.2705
  620MOL0     C83625  10.603  -0.277  10.586  0.2094 -0.2278  0.2635
  620MOL0     C83626  10.760  -0.279  10.596  0.2795 -0.8087  0.6050
  620MOL0     C83627  10.828  -0.399  10.530  0.6459 -0.0658  0.2648
  620MOL0     C83628  10.842  -0.526  10.625  0.2737  0.0991 -0.2176
  620MOL0     C83629  10.918  -0.506  10.749 -0.9285  0.6330  0.3318
  620MOL0     C83630  10.981  -0.473  10.841 -0.3574 -0.6355  0.0454
  620MOL0     C83631  10.610  -0.043  10.305 -0.1088  0.7526  0.7065
  620MOL0     C83632  10.605   0.087  10.272  0.6148 -0.3021  0.3801
  620MOL0     H83633  10.361   0.516  10.332  2.2185  0.8525  0.9673
  620MOL0     H83634  10.293   0.726  10.287  0.8453  2.0935  0.4995
  620MOL0     H83635  10.189   0.859  10.132  1.4208 -0.4596  1.4079
  620MOL0     H83636  10.283   0.995  10.194  1.9558 -1.7978  0.1887
  620MOL0     H83637  10.182   0.982   9.897  0.7634 -0.0073 -1.1326
  620MOL0     H83638  10.093   1.053  10.022  1.1331  1.0544 -0.0106
  620MOL0     H83639  10.256   1.245   9.980  1.0264  0.7737 -0.0211
  620MOL0     H83640  10.389   1.129  10.008  0.5273  0.6570 -1.1393
  620MOL0     H83641  10.335   1.063   9.760  2.7987 -0.7498  1.3813
  620MOL0     H83642  10.221   1.198   9.781 -0.2060  0.3441 -0.5445
  620MOL0     H83643  10.533   1.210   9.775  0.6799 -1.4814 -1.1765
  620MOL0     H83644  10.439   1.295   9.669 -0.0219  3.1204  0.8629
  620MOL0     H83645  10.473   1.372   9.951  4.8766 -2.2143 -0.4615
  620MOL0     H83646  10.534   1.463   9.814 -0.4800  0.8054 -0.8083
  620MOL0     H83647  10.253   1.457   9.769  0.5115 -2.2190  0.9474
  620MOL0     H83648  10.264   1.504   9.942 -0.3513  0.6487 -0.3534
  620MOL0     H83649  10.420   1.622   9.706  0.8793 -0.8353  0.4958
  620MOL0     H83650  10.413   1.673   9.879 -0.3194 -0.0725  1.0776
  620MOL0     H83651  10.138   1.727   9.975 -1.6953  1.6907 -0.5508
  620MOL0     H83652   9.924   1.898   9.953 -0.0082 -0.6650  0.0317
  620MOL0     H83653   9.916   1.966   9.792  2.0631 -1.2496 -1.0684
  620MOL0     H83654   9.702   1.853   9.827 -1.1782 -1.0184  0.7864
  620MOL0     H83655   9.793   1.715   9.884  1.9841 -2.3266 -2.4846
  620MOL0     H83656   9.694   1.693   9.655  1.7461 -1.6092 -0.1656
  620MOL0     H83657   9.868   1.670   9.659 -0.3215 -0.7658  1.3768
  620MOL0     H83658   9.834   1.840   9.478  1.5007 -0.2924  0.6404
  620MOL0     H83659   9.846   1.948   9.619  0.5986 -2.1809  3.1426
  620MOL0     H83660   9.711   1.758   9.358  0.6185 -0.1304 -1.8729
  620MOL0     H83661   9.678   1.705   9.128  0.1269 -2.2278 -0.8565
  620MOL0     H83662   9.557   1.592   9.149  1.2911  0.6756  0.1823
  620MOL0     H83663   9.518   1.732   9.054 -0.3653  0.6364  0.3930
  620MOL0     H83664   9.354   1.480   8.965  0.1494 -0.9353  3.4906
  620MOL0     H83665   9.210   1.320   8.825  1.4655 -0.6932  1.8913
  620MOL0     H83666   8.833   1.443   8.700  0.5324  0.1915  0.0095
  620MOL0     H83667   9.006   1.421   8.643 -0.3894  0.0623  0.1330
  620MOL0     H83668   8.771   1.227   8.619 -0.0875 -0.1002  0.1600
  620MOL0     H83669   8.849   1.315   8.496  0.7396 -3.7942 -2.6002
  620MOL0     H83670   8.955   1.082   8.691 -1.9968 -1.9146 -0.5647
  620MOL0     H83671   9.067   1.178   8.584 -1.1399  0.0184 -1.6418
  620MOL0     H83672   8.886   1.100   8.390 -1.9370 -1.4299 -0.5029
  620MOL0     H83673   9.014   0.988   8.448 -3.0109 -4.2019  0.2313
  620MOL0     H83674   8.782   0.882   8.410  1.7026 -0.1426 -0.8502
  620MOL0     H83675   8.740   1.004   8.531 -1.6552 -2.0478 -0.7945
  620MOL0     H83676   8.884   0.739   8.565  1.3698  1.0199 -1.9762
  620MOL0     H83677   8.934   0.871   8.671  0.0130  4.5639 -1.2701
  620MOL0     H83678   8.649   0.812   8.640 -0.4544 -2.1827 -0.0023
  620MOL0     H83679   8.727   0.881   8.783  1.9221  0.2582  0.4993
  620MOL0     H83680   8.823   0.638   8.821  0.4198 -0.1155  0.0898
  620MOL0     H83681   8.711   0.583   8.694 -0.4172 -1.4288  0.9979
  620MOL0     H83682   8.866   1.515   8.958 -0.5090 -1.4388 -1.0134
  620MOL0     H83683   9.003   1.667   9.100 -1.5224  0.9797 -3.0333
  620MOL0     H83684   9.236   1.870   9.435 -0.0543  0.3366  0.2892
  620MOL0     H83685   9.396   1.943   9.579 -2.0109 -1.6290 -0.3238
  620MOL0     H83686  10.546   0.719   9.918 -0.4177  0.2507  0.5919
  620MOL0     H83687  10.595   0.484   9.970 -1.6579  0.6897 -1.8821
  620MOL0     H83688  10.520   0.204  10.587 -2.4370 -1.6487  0.4526
  620MOL0     H83689  10.507  -0.029  10.627  1.1975 -0.0526  1.9875
  620MOL0     H83690  10.567  -0.224  10.675  1.7150 -0.4170  1.0055
  620MOL0     H83691  10.577  -0.383  10.591  1.1818 -0.5009 -0.2945
  620MOL0     H83692  10.795  -0.281  10.700  1.4976 -3.7987  0.2299
  620MOL0     H83693  10.802  -0.185  10.559 -0.4465 -0.6450  0.1683
  620MOL0     H83694  10.929  -0.377  10.492  1.6600 -0.1108  2.7654
  620MOL0     H83695  10.771  -0.425  10.440  1.1961  1.7200 -0.6480
  620MOL0     H83696  10.889  -0.608  10.570 -1.2283 -0.7003 -0.3601
  620MOL0     H83697  10.738  -0.556  10.640  0.5032 -2.5522 -3.0051
  620MOL0     H83698  11.027  -0.441  10.933 -1.7179  1.6084  0.0225
  620MOL0     H83699  10.641  -0.115  10.231  2.0727  0.3669  1.9118
  620MOL0     H83700  10.619   0.108  10.167 -4.1648 -0.7033 -0.5570
  621MOL0     O83701   0.026   7.071   1.312 -0.7997  0.6806  0.0564
  621MOL0     C83702   0.075   7.139   1.227  0.0188 -0.4809 -0.1510
  621MOL0     O83703   0.020   7.239   1.159 -0.1045 -0.0567 -0.0930
  621MOL0     C83704  -0.096   7.288   1.213  1.0966  0.6739  0.0465
  621MOL0     C83705  -0.218   7.213   1.193 -0.0739 -1.3907 -0.1962
  621MOL0     C83706  -0.333   7.273   1.236 -0.4421 -0.4131  0.0283
  621MOL0     C83707  -0.341   7.391   1.310 -0.0752 -0.4744 -0.7257
  621MOL0     O83708  -0.456   7.433   1.358  0.4154 -0.6317  0.4371
  621MOL0     C83709  -0.513   7.561   1.310  0.0732 -0.2643 -1.0346
  621MOL0     C83710  -0.666   7.561   1.315 -0.2073  0.7278 -0.3457
  621MOL0     C83711  -0.722   7.692   1.249  0.5444  0.1961 -0.9109
  621MOL0     C83712  -0.882   7.688   1.277 -0.7116 -0.8764  0.0709
  621MOL0     C83713  -0.952   7.816   1.238  0.7056 -0.8597  0.7436
  621MOL0     C83714  -0.976   7.818   1.088 -0.0314 -0.0256  0.5090
  621MOL0     C83715  -1.060   7.943   1.058 -0.3950  0.5272  0.0489
  621MOL0     C83716  -1.091   7.945   0.905 -0.2002  0.8140 -0.4724
  621MOL0     N83717  -0.982   8.019   0.841 -0.3003  0.0953  1.2410
  621MOL0     C83718  -0.974   8.153   0.841  0.3105 -0.6889 -0.1378
  621MOL0     C83719  -0.846   8.176   0.811  0.4005 -0.3022 -0.2325
  621MOL0     C83720  -0.779   8.307   0.808 -0.3968 -0.4380 -0.8193
  621MOL0     C83721  -0.802   8.360   0.662 -0.0053  0.7523 -0.6590
  621MOL0     C83722  -0.723   8.494   0.633 -1.2302 -0.5789 -0.4952
  621MOL0     C83723  -0.754   8.600   0.736 -0.0610  0.5989 -0.2364
  621MOL0     O83724  -0.733   8.719   0.666  0.2113  0.5158 -0.5780
  621MOL0     C83725  -0.820   8.816   0.641  0.3503 -0.4080 -0.6017
  621MOL0     C83726  -0.942   8.836   0.713 -0.3916 -0.7120 -0.1482
  621MOL0     C83727  -1.017   8.954   0.678 -0.8260  0.8410 -0.5163
  621MOL0     C83728  -1.145   8.982   0.765  0.3105  0.7192  0.6975
  621MOL0     C83729  -0.982   9.028   0.571 -0.6059 -0.5337 -0.6848
  621MOL0     C83730  -1.040   9.162   0.537 -0.3233  0.9137  0.2047
  621MOL0     O83731  -0.951   9.261   0.488  0.8224 -0.4371 -0.8018
  621MOL0     C83732  -1.017   9.379   0.445  0.0022 -0.3253  0.5425
  621MOL0     C83733  -0.994   9.411   0.314  0.5255 -1.3899 -0.6034
  621MOL0     C83734  -1.051   9.526   0.262 -0.7083 -0.0573 -0.1082
  621MOL0     C83735  -1.150   9.607   0.334 -1.1439 -0.4505  0.5313
  621MOL0     O83736  -1.210   9.703   0.266  1.3356 -0.5683  0.5288
  621MOL0     C83737  -1.341   9.662   0.244 -0.4253 -0.9524 -0.2025
  621MOL0     C83738  -1.343   9.592   0.106 -0.6982 -0.9453 -0.1089
  621MOL0     C83739  -1.273   9.677  -0.007  1.5794  0.3999  0.8682
  621MOL0     C83740  -1.373   9.784  -0.068 -0.6840 -0.1804  0.1153
  621MOL0     C83741  -1.302   9.871  -0.176  0.1413  0.2329  1.0983
  621MOL0     C83742  -1.380   9.999  -0.198 -0.1081 -0.3548  0.3121
  621MOL0     C83743  -1.321  10.105  -0.294 -1.3944 -0.3467 -0.4521
  621MOL0     C83744  -1.406  10.236  -0.295 -0.4964 -0.0888 -0.8119
  621MOL0    Cl83745  -1.563  10.226  -0.361  0.0789 -0.3295  0.2807
  621MOL0     C83746  -1.176   9.574   0.464 -0.3586 -0.4477  0.4149
  621MOL0     C83747  -1.104   9.462   0.518  0.0199  0.0640 -0.2884
  621MOL0     O83748  -1.159   9.166   0.539  0.4888 -0.2146 -0.4236
  621MOL0     C83749  -0.863   8.994   0.502  0.3945  0.0732  0.2559
  621MOL0     C83750  -0.777   8.899   0.542 -0.6741  1.1366  0.4998
  621MOL0     N83751  -0.780   8.054   0.770  0.0369  0.7060  0.0737
  621MOL0     N83752  -0.869   7.958   0.793 -0.2682 -0.3193 -0.6941
  621MOL0     C83753  -0.221   7.454   1.343  0.7394 -0.7246 -0.3691
  621MOL0     C83754  -0.098   7.407   1.298  0.3031  0.0384  1.1340
  621MOL0     C83755   0.218   7.121   1.203 -0.0416  0.1631 -0.3158
  621MOL0     C83756   0.281   7.199   1.104  0.5166  0.6814  0.2977
  621MOL0     C83757   0.423   7.191   1.082  0.2250 -0.2533 -1.3460
  621MOL0     C83758   0.494   7.104   1.159  0.1783  1.8132  0.8993
  621MOL0     O83759   0.624   7.091   1.146 -0.0738 -0.1118  0.5667
  621MOL0     C83760   0.674   6.980   1.065  0.2906 -1.0399  0.0774
  621MOL0     C83761   0.815   6.958   1.116  0.7494  0.9933  0.0334
  621MOL0     C83762   0.864   6.827   1.054 -0.6637 -0.5284  0.3221
  621MOL0     C83763   1.022   6.819   1.066 -0.5118  0.6648  0.4899
  621MOL0     C83764   1.072   6.758   0.940 -0.2333 -0.5120 -0.7878
  621MOL0     C83765   1.126   6.685   0.851 -0.2170 -0.0706 -0.3751
  621MOL0     C83766   0.433   7.020   1.254 -0.4611  0.5790  0.5631
  621MOL0     C83767   0.294   7.022   1.281  0.0739  0.3224  0.6485
  621MOL0     H83768  -0.223   7.124   1.132 -0.6304 -0.3600 -1.7035
  621MOL0     H83769  -0.420   7.216   1.203  0.4090 -0.0205 -3.3355
  621MOL0     H83770  -0.489   7.637   1.385 -1.6568 -1.8830  1.3257
  621MOL0     H83771  -0.481   7.579   1.207  0.1664  4.4557 -0.4084
  621MOL0     H83772  -0.701   7.472   1.261 -2.2593  0.2403  1.6500
  621MOL0     H83773  -0.691   7.550   1.420  1.7099 -0.9675 -0.0075
  621MOL0     H83774  -0.686   7.784   1.295 -2.4937 -0.4880  3.4256
  621MOL0     H83775  -0.706   7.699   1.141 -0.0227  0.3839 -0.9868
  621MOL0     H83776  -0.925   7.593   1.242 -0.7464 -1.9015  2.6451
  621MOL0     H83777  -0.895   7.682   1.385 -0.6428  1.6662  0.2735
  621MOL0     H83778  -1.044   7.822   1.297  1.0344 -1.0941  1.2845
  621MOL0     H83779  -0.898   7.910   1.257 -1.5332  0.4575  0.9828
  621MOL0     H83780  -0.881   7.836   1.037  1.0128 -0.2983  2.3169
  621MOL0     H83781  -1.029   7.731   1.047 -2.1076  1.7596 -0.8255
  621MOL0     H83782  -1.150   7.949   1.119 -0.5754  1.6323 -0.2960
  621MOL0     H83783  -1.006   8.035   1.083  3.5534 -1.1973 -1.2499
  621MOL0     H83784  -1.187   7.995   0.890 -0.0200  1.1459 -0.5173
  621MOL0     H83785  -1.112   7.844   0.867 -1.3331  0.7202  0.3275
  621MOL0     H83786  -1.042   8.232   0.871  1.3158 -1.0399  3.5734
  621MOL0     H83787  -0.817   8.379   0.882 -4.0452 -1.7808 -1.2064
  621MOL0     H83788  -0.671   8.292   0.817 -0.3700  0.3517  0.4176
  621MOL0     H83789  -0.909   8.381   0.652 -0.3086  1.7137  3.0684
  621MOL0     H83790  -0.768   8.280   0.596  0.8007 -1.3832  2.1429
  621MOL0     H83791  -0.739   8.533   0.532  0.3079  1.4655 -0.0257
  621MOL0     H83792  -0.616   8.473   0.624 -1.0235  0.6754 -1.1030
  621MOL0     H83793  -0.687   8.598   0.823  1.2735  2.0372 -1.1831
  621MOL0     H83794  -0.859   8.586   0.765 -0.0235  1.9514  0.6384
  621MOL0     H83795  -0.980   8.783   0.800  0.5212  1.1232  1.4747
  621MOL0     H83796  -1.146   8.900   0.837  2.4681 -2.1617 -2.2886
  621MOL0     H83797  -1.135   9.073   0.825  2.6973 -0.5289  2.3494
  621MOL0     H83798  -1.226   8.967   0.693 -0.0534 -3.9402  1.7405
  621MOL0     H83799  -0.929   9.361   0.244  1.1612 -0.1254 -0.9423
  621MOL0     H83800  -1.032   9.567   0.163  0.0756  0.9320  0.4311
  621MOL0     H83801  -1.384   9.591   0.315  1.6835  0.9095  3.1801
  621MOL0     H83802  -1.403   9.751   0.239  2.3312  1.0334 -2.4627
  621MOL0     H83803  -1.305   9.491   0.117  1.4285 -0.1610  0.1252
  621MOL0     H83804  -1.451   9.590   0.087 -0.6148  0.9776 -1.1058
  621MOL0     H83805  -1.245   9.616  -0.093 -0.4983 -0.8389  0.9982
  621MOL0     H83806  -1.181   9.729   0.020  0.1805  3.0469  0.8741
  621MOL0     H83807  -1.469   9.738  -0.095 -3.0916  3.2911  1.9542
  621MOL0     H83808  -1.389   9.845   0.021  0.5065 -1.0279  0.9325
  621MOL0     H83809  -1.312   9.809  -0.265 -1.5693  0.5042  1.0574
  621MOL0     H83810  -1.197   9.889  -0.152  0.8658  1.5599 -2.4765
  621MOL0     H83811  -1.482   9.986  -0.234  0.0756 -0.2956 -0.2514
  621MOL0     H83812  -1.378  10.053  -0.103  2.2632  0.1838  0.0346
  621MOL0     H83813  -1.303  10.065  -0.395 -0.7245 -1.3089  0.0230
  621MOL0     H83814  -1.220  10.131  -0.259 -0.1400 -3.5742 -1.2195
  621MOL0     H83815  -1.348  10.315  -0.343 -0.2345  0.2014 -0.0453
  621MOL0     H83816  -1.430  10.258  -0.190  0.0430 -0.3756 -0.6221
  621MOL0     H83817  -1.246   9.633   0.522 -0.3154  0.5468 -0.5188
  621MOL0     H83818  -1.121   9.440   0.623 -0.3250  2.2388  0.1531
  621MOL0     H83819  -0.823   9.065   0.431 -0.9890  0.9344  0.2878
  621MOL0     H83820  -0.691   8.872   0.481 -1.3331  0.2391 -0.0507
  621MOL0     H83821  -0.244   7.531   1.416 -1.6636  0.1351 -1.9142
  621MOL0     H83822  -0.003   7.454   1.320 -0.4325  1.0253  2.3262
  621MOL0     H83823   0.222   7.249   1.029 -1.4745 -1.7135  0.1639
  621MOL0     H83824   0.468   7.262   1.013 -0.8754  1.6679 -0.1830
  621MOL0     H83825   0.623   6.883   1.066 -0.8054 -0.4908 -0.3139
  621MOL0     H83826   0.682   7.014   0.961 -2.3224  0.8604  0.4035
  621MOL0     H83827   0.807   6.949   1.225 -1.1410 -0.5103 -0.1686
  621MOL0     H83828   0.871   7.049   1.093  1.8048  0.4089  0.2255
  621MOL0     H83829   0.828   6.829   0.951 -0.1342  1.2140  0.1441
  621MOL0     H83830   0.817   6.744   1.107  1.0609 -1.9007 -0.2165
  621MOL0     H83831   1.059   6.755   1.147 -1.7612  1.5610  1.8097
  621MOL0     H83832   1.060   6.921   1.053 -1.7120  0.8256 -2.3486
  621MOL0     H83833   1.158   6.640   0.759  2.7678  3.3380 -1.2165
  621MOL0     H83834   0.492   6.966   1.328 -2.1120  1.0900  2.3180
  621MOL0     H83835   0.246   6.945   1.339  2.0335  0.2714  2.3063
  622MOL0     O83836   0.817   9.106   2.241  0.6398 -0.4842  0.5205
  622MOL0     C83837   0.731   9.181   2.286  0.5667 -0.3321  0.1016
  622MOL0     O83838   0.727   9.319   2.266 -0.1508  0.4023 -0.5401
  622MOL0     C83839   0.828   9.385   2.195  0.4429  0.2142 -0.4564
  622MOL0     C83840   0.802   9.447   2.082  0.9368 -0.2947  0.1529
  622MOL0     C83841   0.901   9.510   2.019  0.2685  0.3543 -0.1956
  622MOL0     C83842   1.019   9.535   2.078  0.0510 -1.0020  0.1415
  622MOL0     O83843   1.122   9.607   2.014  0.0014 -1.0321  0.7625
  622MOL0     C83844   1.151   9.578   1.877 -0.6495 -0.7864 -0.2319
  622MOL0     C83845   1.303   9.599   1.850  0.2805  0.5824 -0.7695
  622MOL0     C83846   1.391   9.516   1.953  0.2945 -0.0486 -0.6715
  622MOL0     C83847   1.530   9.574   1.959 -0.0962 -0.5976  0.2474
  622MOL0     C83848   1.625   9.491   2.042 -0.5791 -0.1376 -0.5639
  622MOL0     C83849   1.594   9.509   2.187 -0.0251  0.1770  0.0407
  622MOL0     C83850   1.685   9.431   2.284  0.3250  0.4664  0.3897
  622MOL0     C83851   1.631   9.433   2.429  0.2966 -0.1366  0.7741
  622MOL0     N83852   1.620   9.558   2.501  0.3049 -0.0848  0.6681
  622MOL0     C83853   1.508   9.589   2.572  0.2789 -0.3595 -0.0770
  622MOL0     C83854   1.548   9.688   2.655 -0.2280 -0.4833 -0.5478
  622MOL0     C83855   1.468   9.768   2.758  0.8415 -0.3529  0.3436
  622MOL0     C83856   1.354   9.821   2.673  0.0932  0.0587 -0.1923
  622MOL0     C83857   1.285   9.945   2.739 -0.1769 -1.0724 -0.1015
  622MOL0     C83858   1.155   9.951   2.682  0.9390  0.1776 -0.1720
  622MOL0     O83859   1.093  10.063   2.734  0.0963 -0.0054  0.1529
  622MOL0     C83860   0.959  10.080   2.704 -0.1666  0.3178 -0.9839
  622MOL0     C83861   0.909  10.200   2.726 -0.1047 -0.4283  0.0431
  622MOL0     C83862   0.778  10.243   2.696 -0.7581 -0.6732 -0.4516
  622MOL0     C83863   0.746  10.399   2.707 -0.2688 -0.2155  0.7115
  622MOL0     C83864   0.683  10.146   2.652 -0.7343  0.7617  0.3143
  622MOL0     C83865   0.537  10.167   2.618 -0.3382 -0.0062  0.0837
  622MOL0     O83866   0.491  10.090   2.513 -0.5833 -0.0625 -0.8771
  622MOL0     C83867   0.365  10.124   2.477  0.2862 -0.1669 -0.2093
  622MOL0     C83868   0.245  10.055   2.513 -0.5975  0.9790  0.0018
  622MOL0     C83869   0.121  10.093   2.462  0.1435 -0.2299 -0.4187
  622MOL0     C83870   0.110  10.215   2.402  0.6095  0.0166  0.0777
  622MOL0     O83871  -0.017  10.263   2.377 -0.3256  0.5740  0.4720
  622MOL0     C83872  -0.100  10.282   2.492  0.3791 -1.5446  0.3526
  622MOL0     C83873  -0.097  10.426   2.546  0.2128 -0.3990 -0.8090
  622MOL0     C83874  -0.177  10.519   2.453  1.0326 -0.1927 -0.1799
  622MOL0     C83875  -0.162  10.665   2.491 -0.2411  0.1007 -0.4674
  622MOL0     C83876  -0.042  10.738   2.411  0.4771 -0.3342 -0.2856
  622MOL0     C83877  -0.001  10.870   2.476 -0.2103  0.4185 -0.7141
  622MOL0     C83878  -0.102  10.979   2.509  0.6826 -0.1686  0.3809
  622MOL0     C83879  -0.070  11.122   2.478  0.3781  0.5974  0.5869
  622MOL0    Cl83880  -0.204  11.228   2.541  0.4051 -0.2491 -0.1759
  622MOL0     C83881   0.219  10.298   2.383 -0.7567 -0.1500 -0.2699
  622MOL0     C83882   0.353  10.244   2.410  0.0474 -0.6414  0.2168
  622MOL0     O83883   0.474  10.262   2.669 -0.8787 -0.4579 -0.4182
  622MOL0     C83884   0.736  10.018   2.624 -0.4028 -0.4551 -0.0978
  622MOL0     C83885   0.875   9.989   2.656  0.3755  0.2340  0.0971
  622MOL0     N83886   1.676   9.713   2.623 -0.6887 -1.0016  0.2939
  622MOL0     N83887   1.728   9.633   2.537 -0.7315 -0.7608 -0.9550
  622MOL0     C83888   1.037   9.490   2.206  0.2525 -0.1199 -0.1982
  622MOL0     C83889   0.941   9.411   2.270 -0.2456 -0.2900  0.3412
  622MOL0     C83890   0.617   9.116   2.353 -0.0635 -0.4746  0.6984
  622MOL0     C83891   0.489   9.177   2.337 -0.3321  0.3256 -0.2949
  622MOL0     C83892   0.372   9.123   2.383  0.5198  0.4701  0.1268
  622MOL0     C83893   0.386   9.001   2.457 -0.2682  0.9241  0.1557
  622MOL0     O83894   0.270   8.965   2.520  0.3314 -0.5012 -0.4497
  622MOL0     C83895   0.265   8.829   2.582 -0.4300  0.4399  0.1430
  622MOL0     C83896   0.126   8.789   2.645 -0.9066  1.3903 -0.1615
  622MOL0     C83897   0.008   8.867   2.573  0.6171  0.8349 -0.9488
  622MOL0     C83898  -0.089   8.762   2.509 -0.0731 -0.5917 -0.7854
  622MOL0     C83899  -0.018   8.707   2.393  0.2186  0.1688 -0.0321
  622MOL0     C83900   0.048   8.676   2.301  0.4860 -0.2418  0.0977
  622MOL0     C83901   0.511   8.928   2.461  1.0657  0.4564  0.0290
  622MOL0     C83902   0.621   8.989   2.414  0.0413  0.7086 -0.1764
  622MOL0     H83903   0.706   9.438   2.032  0.3572 -0.9012  1.3133
  622MOL0     H83904   0.882   9.540   1.916  4.3610 -0.7439 -1.4703
  622MOL0     H83905   1.114   9.481   1.843 -1.3102 -0.3965 -0.6629
  622MOL0     H83906   1.118   9.660   1.813 -1.1242  0.5181  1.6120
  622MOL0     H83907   1.313   9.566   1.746  0.0745  2.7696 -1.5272
  622MOL0     H83908   1.320   9.707   1.849  1.4990  0.3990 -1.5340
  622MOL0     H83909   1.350   9.529   2.054 -0.8402  2.8317 -1.3969
  622MOL0     H83910   1.393   9.411   1.921 -0.9134 -0.5364  0.7582
  622MOL0     H83911   1.578   9.582   1.861  0.5719 -1.3050  0.5007
  622MOL0     H83912   1.536   9.672   2.008  1.7066  1.0543 -2.9613
  622MOL0     H83913   1.614   9.384   2.019  2.3449 -0.8658  0.8815
  622MOL0     H83914   1.732   9.509   2.027  0.0560 -0.7039  2.6611
  622MOL0     H83915   1.605   9.614   2.214  1.7073  0.3362 -1.1630
  622MOL0     H83916   1.493   9.478   2.217  0.9368 -0.7376  2.6852
  622MOL0     H83917   1.669   9.327   2.254 -2.2641  1.3752 -1.8770
  622MOL0     H83918   1.792   9.455   2.279  0.5375 -0.4875  0.0816
  622MOL0     H83919   1.699   9.365   2.482  1.1847 -0.4616 -0.7362
  622MOL0     H83920   1.532   9.386   2.430  0.3702 -0.4525 -1.5449
  622MOL0     H83921   1.404   9.559   2.564 -0.9753  3.4169 -0.2665
  622MOL0     H83922   1.434   9.704   2.840  1.3998  1.9741  2.4997
  622MOL0     H83923   1.529   9.842   2.810  1.4476 -0.8104  0.3007
  622MOL0     H83924   1.284   9.740   2.651 -3.3245  2.9611 -0.9576
  622MOL0     H83925   1.405   9.865   2.587  0.0589  0.0336 -0.2257
  622MOL0     H83926   1.346  10.034   2.719 -0.9139  0.1112  2.5514
  622MOL0     H83927   1.289   9.938   2.848  1.2244  0.6529 -0.0023
  622MOL0     H83928   1.095   9.866   2.715  0.9578 -0.1403 -0.9327
  622MOL0     H83929   1.164   9.959   2.573  0.3932  1.6340 -0.1287
  622MOL0     H83930   0.970  10.279   2.769 -2.6025  0.7546  1.6628
  622MOL0     H83931   0.687  10.419   2.797  0.3893  1.5894  0.7664
  622MOL0     H83932   0.836  10.458   2.721 -0.5431  1.4851 -3.2258
  622MOL0     H83933   0.696  10.444   2.621 -2.7637 -0.0118  2.1705
  622MOL0     H83934   0.246   9.976   2.587 -0.6211  1.4221  0.4822
  622MOL0     H83935   0.037  10.025   2.463 -0.7992  0.6918 -3.7658
  622MOL0     H83936  -0.196  10.243   2.456 -0.1139  0.1507 -0.2732
  622MOL0     H83937  -0.068  10.222   2.578  1.8519  1.0444  1.7052
  622MOL0     H83938  -0.152  10.409   2.638 -0.0850 -4.6791 -1.5511
  622MOL0     H83939   0.003  10.465   2.569  0.7856 -1.6209 -1.1429
  622MOL0     H83940  -0.280  10.486   2.463  1.4369 -1.8394 -1.0031
  622MOL0     H83941  -0.141  10.504   2.350 -1.9619 -2.1597 -1.0562
  622MOL0     H83942  -0.260  10.709   2.471 -1.4003 -1.0079  2.1790
  622MOL0     H83943  -0.134  10.669   2.597 -2.6791 -1.8692  0.3528
  622MOL0     H83944  -0.087  10.758   2.313 -2.3245  0.6727  1.0789
  622MOL0     H83945   0.040  10.666   2.407 -0.0208 -0.9051 -0.3855
  622MOL0     H83946   0.056  10.860   2.569  4.5299  0.7997 -3.2636
  622MOL0     H83947   0.065  10.923   2.407  0.9503  1.8560  1.3920
  622MOL0     H83948  -0.122  10.964   2.616  1.4475  0.2044  0.5890
  622MOL0     H83949  -0.198  10.958   2.461 -1.6354  0.2809  4.3417
  622MOL0     H83950  -0.065  11.137   2.370  0.2245  0.3491  0.5451
  622MOL0     H83951   0.031  11.154   2.506  1.4566 -0.3262 -1.9269
  622MOL0     H83952   0.209  10.397   2.338  0.6421 -1.5414 -4.0319
  622MOL0     H83953   0.443  10.304   2.403 -0.6445  0.5629  1.2277
  622MOL0     H83954   0.670   9.945   2.580 -3.4987  1.7884  0.4447
  622MOL0     H83955   0.919   9.894   2.626  2.4485  0.3441  2.4952
  622MOL0     H83956   1.129   9.527   2.251  0.0130  1.1041 -0.6668
  622MOL0     H83957   0.959   9.374   2.370 -2.0261 -0.3618  0.6552
  622MOL0     H83958   0.488   9.277   2.294  2.7275  1.8170  2.6258
  622MOL0     H83959   0.276   9.172   2.389  0.5428  0.9200 -2.2111
  622MOL0     H83960   0.272   8.756   2.501 -1.6762  1.4328 -0.8990
  622MOL0     H83961   0.350   8.823   2.651 -0.4261 -0.1894  0.0964
  622MOL0     H83962   0.139   8.806   2.752 -0.2383 -1.3773  0.2714
  622MOL0     H83963   0.107   8.682   2.634  2.1148  0.5097  1.9067
  622MOL0     H83964   0.041   8.938   2.497 -0.0148  1.9026 -0.2566
  622MOL0     H83965  -0.057   8.927   2.638 -0.2183  0.5463 -1.5118
  622MOL0     H83966  -0.181   8.805   2.468 -0.4394 -1.1099 -0.5199
  622MOL0     H83967  -0.116   8.683   2.579  2.6285 -0.2148  0.8193
  622MOL0     H83968   0.111   8.639   2.224 -0.9421 -0.6411 -0.9230
  622MOL0     H83969   0.524   8.834   2.514  0.0999 -0.1106 -0.6886
  622MOL0     H83970   0.719   8.955   2.448 -0.5777 -1.8151 -0.7165
  623MOL0     O83971   7.960   0.659   1.661 -0.2059 -0.7614 -0.4692
  623MOL0     C83972   7.916   0.773   1.663 -0.2376  0.6750  0.0784
  623MOL0     O83973   7.789   0.815   1.613 -0.6075  1.0507  0.7541
  623MOL0     C83974   7.702   0.727   1.550  0.0537 -0.1226  0.1892
  623MOL0     C83975   7.747   0.629   1.459  0.7992  0.4435 -1.2201
  623MOL0     C83976   7.661   0.539   1.388  0.7349 -0.4854 -0.0313
  623MOL0     C83977   7.526   0.548   1.416 -0.1038 -0.0100  0.9970
  623MOL0     O83978   7.424   0.470   1.379  0.5135  0.0481  1.4427
  623MOL0     C83979   7.438   0.332   1.333  1.3560  0.1094 -0.2968
  623MOL0     C83980   7.336   0.296   1.228  0.0912 -0.8287  0.4407
  623MOL0     C83981   7.366   0.170   1.155 -0.2799 -1.0014  0.8265
  623MOL0     C83982   7.331   0.185   1.006  0.1324  0.3711 -0.1527
  623MOL0     C83983   7.174   0.198   0.997  0.0135  0.1095 -0.5987
  623MOL0     C83984   7.124   0.228   0.853 -0.0490 -0.0172  0.1156
  623MOL0     C83985   6.971   0.255   0.837  0.0199  0.2902 -0.1707
  623MOL0     C83986   6.881   0.139   0.868  0.2168  0.0485 -0.1578
  623MOL0     N83987   6.749   0.149   0.814 -0.0591  0.1640  0.6086
  623MOL0     C83988   6.702   0.187   0.686 -0.6220 -0.0508  0.3780
  623MOL0     C83989   6.572   0.206   0.691  0.0466  0.7532  0.0012
  623MOL0     C83990   6.473   0.238   0.581 -0.9587 -0.0132  0.6894
  623MOL0     C83991   6.474   0.139   0.459  0.1373  0.3305  0.6197
  623MOL0     C83992   6.364   0.186   0.370 -0.3549  0.3827 -0.0263
  623MOL0     C83993   6.362   0.120   0.228  0.5071 -0.5312  0.2637
  623MOL0     O83994   6.293  -0.009   0.242 -1.0201 -0.0673 -0.2032
  623MOL0     C83995   6.163  -0.022   0.200 -0.9604  0.6863  0.1629
  623MOL0     C83996   6.079   0.087   0.194  0.5614 -0.7671 -1.0494
  623MOL0     C83997   5.957   0.072   0.130 -0.1888 -0.2409  0.4010
  623MOL0     C83998   5.866   0.203   0.122 -0.5310 -0.3423  0.8768
  623MOL0     C83999   5.921  -0.047   0.064  0.2178  0.1151  0.4438
  623MOL0     C84000   5.800  -0.068  -0.028 -0.6288  0.8935 -0.6112
  623MOL0     O84001   5.723   0.039  -0.065  0.7326  0.0526  0.0213
  623MOL0     C84002   5.611   0.031  -0.143  0.8376  0.2821 -0.3430
  623MOL0     C84003   5.580  -0.076  -0.237 -1.1783  0.3993 -1.0118
  623MOL0     C84004   5.466  -0.080  -0.307 -0.3085 -0.5686 -0.7117
  623MOL0     C84005   5.370   0.011  -0.288  0.1091  0.9907  0.9014
  623MOL0     O84006   5.253  -0.013  -0.353 -0.2295 -0.2681 -0.3286
  623MOL0     C84007   5.147   0.055  -0.293  0.3251 -0.4403  0.0772
  623MOL0     C84008   5.019   0.019  -0.351  0.3721 -1.0784  0.2091
  623MOL0     C84009   4.982  -0.125  -0.343  0.4899  0.0309  0.7529
  623MOL0     C84010   4.831  -0.153  -0.354 -0.2457 -0.3179 -0.4799
  623MOL0     C84011   4.806  -0.280  -0.437  0.2879  0.6266 -0.8277
  623MOL0     C84012   4.662  -0.326  -0.474  0.0408  0.5753  0.1782
  623MOL0     C84013   4.584  -0.357  -0.346  0.5726 -0.1859  0.0540
  623MOL0     C84014   4.456  -0.422  -0.385  0.6727  0.1000 -0.0726
  623MOL0    Cl84015   4.328  -0.324  -0.458  0.1297 -0.1850 -0.1062
  623MOL0     C84016   5.392   0.121  -0.204 -1.4030 -0.0465  0.5994
  623MOL0     C84017   5.510   0.130  -0.134 -0.3374 -0.6971 -0.2665
  623MOL0     O84018   5.776  -0.186  -0.053  0.1366  0.6795 -0.7317
  623MOL0     C84019   6.015  -0.155   0.080  0.9753  0.6167  0.4657
  623MOL0     C84020   6.132  -0.148   0.140  0.1419 -0.3177 -0.8109
  623MOL0     N84021   6.534   0.171   0.815 -0.1780  0.0155  0.6269
  623MOL0     N84022   6.631   0.122   0.881 -0.0052  0.2340 -0.2929
  623MOL0     C84023   7.478   0.642   1.508 -0.1430  0.4527  0.0714
  623MOL0     C84024   7.563   0.731   1.569 -0.5289 -0.3932 -0.7779
  623MOL0     C84025   8.012   0.879   1.704  0.3578 -0.0666 -0.0565
  623MOL0     C84026   8.144   0.869   1.669  0.9260 -0.0446  0.9128
  623MOL0     C84027   8.228   0.972   1.717 -0.7057 -0.2742  1.4574
  623MOL0     C84028   8.192   1.076   1.803  0.3075 -0.5100  0.9374
  623MOL0     O84029   8.267   1.186   1.841  0.0113 -0.2218 -0.0082
  623MOL0     C84030   8.396   1.197   1.798 -0.9707 -0.6330 -1.1606
  623MOL0     C84031   8.475   1.323   1.842 -0.2065 -0.7249  0.3809
  623MOL0     C84032   8.490   1.340   2.000 -0.3783 -0.3653  0.2506
  623MOL0     C84033   8.641   1.378   2.036 -0.1611 -0.1009  0.8909
  623MOL0     C84034   8.742   1.279   2.003  0.8189  0.5502 -0.5127
  623MOL0     C84035   8.797   1.180   1.947 -0.4547 -0.1347 -0.0003
  623MOL0     C84036   8.052   1.083   1.813 -0.2644 -0.8844 -0.2715
  623MOL0     C84037   7.962   0.991   1.772 -0.5846 -0.3309 -0.6783
  623MOL0     H84038   7.853   0.607   1.444  1.0300 -1.7304  2.2549
  623MOL0     H84039   7.710   0.456   1.339  1.3937  0.1839 -0.5348
  623MOL0     H84040   7.535   0.292   1.302  0.6706 -2.3333  0.4800
  623MOL0     H84041   7.424   0.266   1.419  2.5539 -0.0567 -0.2190
  623MOL0     H84042   7.237   0.286   1.274  0.2547 -1.3124  0.6968
  623MOL0     H84043   7.343   0.382   1.162  1.5191  1.9125  3.8322
  623MOL0     H84044   7.475   0.158   1.165  0.1612  0.8390 -1.0851
  623MOL0     H84045   7.309   0.090   1.203 -3.7823  1.5226  1.2467
  623MOL0     H84046   7.386   0.266   0.958 -1.6548  1.1988 -0.8918
  623MOL0     H84047   7.358   0.092   0.955  0.4019  0.7166 -0.6365
  623MOL0     H84048   7.121   0.110   1.033 -2.8441  0.6481 -3.0403
  623MOL0     H84049   7.137   0.283   1.056 -0.9154 -0.3571 -0.4974
  623MOL0     H84050   7.169   0.323   0.823  1.8634 -0.5774  1.0896
  623MOL0     H84051   7.142   0.144   0.785 -5.5006 -1.1304 -0.4362
  623MOL0     H84052   6.944   0.336   0.906  0.3436 -0.4985  0.8955
  623MOL0     H84053   6.955   0.288   0.734 -0.9231 -0.9739 -0.4563
  623MOL0     H84054   6.869   0.120   0.975  0.3995 -0.4187 -0.2182
  623MOL0     H84055   6.931   0.052   0.825 -1.0830  0.3597 -2.4654
  623MOL0     H84056   6.753   0.191   0.590 -1.8986  3.2496 -0.3017
  623MOL0     H84057   6.372   0.237   0.623 -1.8759  1.2006 -1.3766
  623MOL0     H84058   6.495   0.341   0.552  1.6890 -0.0731  2.2134
  623MOL0     H84059   6.456   0.037   0.495  4.8056 -1.4017 -1.1639
  623MOL0     H84060   6.568   0.127   0.404 -0.9559 -1.5252 -0.9922
  623MOL0     H84061   6.376   0.292   0.346 -0.6134 -0.0303 -2.2657
  623MOL0     H84062   6.272   0.176   0.428 -0.4618  0.0106 -0.2525
  623MOL0     H84063   6.463   0.106   0.191 -0.4733 -1.5384 -2.2709
  623MOL0     H84064   6.322   0.186   0.150 -0.4773  0.1677  1.3215
  623MOL0     H84065   6.094   0.186   0.236 -2.4687 -1.0036  0.8989
  623MOL0     H84066   5.920   0.292   0.155 -1.8706 -0.1180  2.6568
  623MOL0     H84067   5.827   0.230   0.024  1.1002 -0.9542  0.0128
  623MOL0     H84068   5.791   0.188   0.200  0.8460 -0.8518  2.1492
  623MOL0     H84069   5.657  -0.150  -0.253 -2.3790 -1.4694  1.1931
  623MOL0     H84070   5.449  -0.157  -0.382  0.7460 -2.5922  1.0182
  623MOL0     H84071   5.146   0.045  -0.184 -1.0025 -2.1990 -0.0626
  623MOL0     H84072   5.168   0.156  -0.331 -2.7304  0.4614  0.5516
  623MOL0     H84073   4.939   0.080  -0.310 -0.5339 -2.0609 -0.0700
  623MOL0     H84074   5.022   0.049  -0.457  0.0360 -1.7101  0.0174
  623MOL0     H84075   5.025  -0.160  -0.249  0.2404 -1.2823  0.3975
  623MOL0     H84076   5.048  -0.179  -0.412 -0.1841  0.5834 -0.3688
  623MOL0     H84077   4.782  -0.164  -0.256  0.1376  0.5056 -0.1874
  623MOL0     H84078   4.783  -0.070  -0.406 -0.1256  0.1095  0.0741
  623MOL0     H84079   4.853  -0.351  -0.369 -3.3715  0.0123  1.2992
  623MOL0     H84080   4.869  -0.283  -0.526  0.7128  0.3476 -0.5231
  623MOL0     H84081   4.610  -0.248  -0.530  2.1064  1.2018 -0.9410
  623MOL0     H84082   4.669  -0.420  -0.531 -1.3601  0.3144  0.3918
  623MOL0     H84083   4.565  -0.259  -0.303  2.2353 -0.6051  1.9109
  623MOL0     H84084   4.651  -0.407  -0.276  0.9708  1.4639  0.9006
  623MOL0     H84085   4.417  -0.476  -0.298  0.7619 -0.2468 -0.2447
  623MOL0     H84086   4.485  -0.499  -0.456 -3.9473 -3.4938  1.4327
  623MOL0     H84087   5.313   0.194  -0.193 -0.5370  1.0607 -0.3273
  623MOL0     H84088   5.525   0.213  -0.066  2.0943 -0.7432 -0.6638
  623MOL0     H84089   5.989  -0.254   0.042 -0.5064  2.2811 -3.3130
  623MOL0     H84090   6.199  -0.233   0.138  0.5168 -0.2213  2.5082
  623MOL0     H84091   7.371   0.637   1.527 -0.4944 -1.2412 -1.9725
  623MOL0     H84092   7.516   0.815   1.620 -1.8807 -1.1404 -0.7553
  623MOL0     H84093   8.173   0.792   1.598 -2.5182 -0.6284 -0.0099
  623MOL0     H84094   8.334   0.953   1.699 -0.1623  1.7339  2.2719
  623MOL0     H84095   8.455   1.106   1.813  0.5065  0.5994  1.2296
  623MOL0     H84096   8.383   1.212   1.691 -0.7828 -1.9213 -1.3760
  623MOL0     H84097   8.412   1.405   1.806  1.4571  0.7946  0.7937
  623MOL0     H84098   8.568   1.333   1.786 -0.7145 -1.4598 -0.6421
  623MOL0     H84099   8.448   1.253   2.050  1.0548 -2.3032 -1.7155
  623MOL0     H84100   8.432   1.429   2.027  1.2081  1.0025 -0.6820
  623MOL0     H84101   8.643   1.395   2.144 -3.6427 -2.0623  1.4041
  623MOL0     H84102   8.662   1.469   1.978 -0.7393 -1.3899 -1.4495
  623MOL0     H84103   8.860   1.100   1.913  1.9039  0.9847  1.5040
  623MOL0     H84104   8.014   1.174   1.858  2.9435  1.5437 -2.0063
  623MOL0     H84105   7.855   1.002   1.787 -0.2988  1.0620  0.6191
  624MOL0     O84106   6.878   5.041  10.671  0.2415 -0.2604 -0.4946
  624MOL0     C84107   6.792   5.008  10.757  0.3482 -0.5772  0.5944
  624MOL0     O84108   6.811   4.976  10.886 -0.5500 -0.0139 -0.6402
  624MOL0     C84109   6.938   5.005  10.928  0.1588  0.2515 -0.6509
  624MOL0     C84110   6.963   5.120  11.006 -0.1166 -0.1702  0.8108
  624MOL0     C84111   7.094   5.148  11.028 -0.3995 -0.0048 -0.4813
  624MOL0     C84112   7.199   5.060  10.992 -0.0562  0.4325 -0.5314
  624MOL0     O84113   7.338   5.082  11.014  0.3474 -0.2114  0.3062
  624MOL0     C84114   7.389   5.216  10.972  0.8311  0.1900  0.1344
  624MOL0     C84115   7.546   5.211  10.933  0.2904  1.0840 -0.4496
  624MOL0     C84116   7.611   5.066  10.937 -1.3527  0.3452 -0.3594
  624MOL0     C84117   7.762   5.072  10.921  0.1867 -0.1554  0.3975
  624MOL0     C84118   7.829   4.940  10.958  0.2747 -0.5363 -0.2582
  624MOL0     C84119   7.772   4.819  10.892  0.3944 -0.3933  0.0961
  624MOL0     C84120   7.855   4.695  10.929 -1.2670 -0.4870  0.0134
  624MOL0     C84121   7.795   4.568  10.859 -0.1065  1.0881 -0.5478
  624MOL0     N84122   7.841   4.442  10.929  0.9510  1.4387 -0.3756
  624MOL0     C84123   7.805   4.403  11.056  0.3234 -0.4164 -0.9946
  624MOL0     C84124   7.857   4.289  11.085 -0.3224  0.6704 -0.1417
  624MOL0     C84125   7.888   4.202  11.200  0.1927  0.0278 -0.5996
  624MOL0     C84126   7.762   4.127  11.251 -0.4417 -0.2265 -1.3795
  624MOL0     C84127   7.766   4.049  11.384 -0.3457  0.5518 -1.1441
  624MOL0     C84128   7.638   4.032  11.458  0.4196  0.2577  0.0680
  624MOL0     O84129   7.577   4.153  11.497  1.1268 -0.8099 -0.2192
  624MOL0     C84130   7.627   4.199  11.615 -0.2394 -0.6226  0.1658
  624MOL0     C84131   7.736   4.282  11.630 -0.2066 -0.5879 -0.5249
  624MOL0     C84132   7.805   4.308  11.756 -0.5102  0.0657  0.7076
  624MOL0     C84133   7.941   4.374  11.743  0.3176  0.8252  0.3451
  624MOL0     C84134   7.740   4.258  11.868 -0.8159  0.3550 -0.4506
  624MOL0     C84135   7.792   4.276  12.006  0.0790 -0.4222 -0.1206
  624MOL0     O84136   7.714   4.224  12.107  0.0133  0.4733  0.5129
  624MOL0     C84137   7.764   4.215  12.233 -0.4731  0.3388 -0.0518
  624MOL0     C84138   7.680   4.212  12.335  0.9607  0.3592 -0.1440
  624MOL0     C84139   7.718   4.190  12.476 -0.2883  0.2641  0.6668
  624MOL0     C84140   7.846   4.146  12.505 -0.3837 -1.4048 -0.2734
  624MOL0     O84141   7.895   4.112  12.627 -0.5878  0.5649  0.1059
  624MOL0     C84142   7.825   4.173  12.743 -1.0537 -0.4243 -0.8677
  624MOL0     C84143   7.902   4.126  12.869 -0.3486 -0.7244 -0.4455
  624MOL0     C84144   7.863   4.187  13.009  0.4085  0.4338 -0.3965
  624MOL0     C84145   7.706   4.181  13.026  0.3420 -0.4327 -1.3529
  624MOL0     C84146   7.662   4.207  13.170  0.1383 -0.4136 -0.1599
  624MOL0     C84147   7.714   4.084  13.260 -0.0764  0.7118 -0.4759
  624MOL0     C84148   7.669   4.103  13.405 -0.3599 -0.9188 -0.3578
  624MOL0     C84149   7.686   3.977  13.501  0.3775 -0.0898  1.2656
  624MOL0    Cl84150   7.520   3.923  13.552 -0.2165  0.4852  0.2754
  624MOL0     C84151   7.934   4.137  12.396 -0.6551 -0.1734  1.0555
  624MOL0     C84152   7.893   4.170  12.263 -0.5358 -0.3775  0.1292
  624MOL0     O84153   7.895   4.335  12.021 -0.2275  0.0347  0.1085
  624MOL0     C84154   7.620   4.179  11.853 -0.5151 -0.6312  0.1165
  624MOL0     C84155   7.570   4.143  11.729 -0.0529 -0.2993  0.1993
  624MOL0     N84156   7.937   4.259  10.975 -0.5545  0.2352  0.0958
  624MOL0     N84157   7.935   4.349  10.891 -0.3334 -0.1530  0.0310
  624MOL0     C84158   7.165   4.941  10.934 -0.1699 -0.1199 -0.8249
  624MOL0     C84159   7.037   4.915  10.893  0.0952 -0.0307  0.3742
  624MOL0     C84160   6.658   4.997  10.701  0.2532  1.1006  0.1896
  624MOL0     C84161   6.548   5.042  10.778  0.2497 -0.2122 -0.5926
  624MOL0     C84162   6.420   5.048  10.720 -0.2932  0.6423 -0.3219
  624MOL0     C84163   6.409   5.024  10.582  0.9236  0.2909 -1.0277
  624MOL0     O84164   6.295   5.052  10.509 -0.2233  0.4409 -0.4640
  624MOL0     C84165   6.194   5.138  10.561  0.5355 -0.0562  0.1692
  624MOL0     C84166   6.092   5.170  10.447 -0.3599 -0.0913 -0.2758
  624MOL0     C84167   6.004   5.297  10.489 -1.5812 -1.0562  0.0984
  624MOL0     C84168   5.922   5.338  10.371  0.2412 -0.1219 -0.2148
  624MOL0     C84169   5.809   5.248  10.353  0.4414 -0.0292 -0.5662
  624MOL0     C84170   5.715   5.176  10.331 -0.1005  0.6456 -0.2567
  624MOL0     C84171   6.508   4.959  10.515  0.2607  0.5171 -0.0077
  624MOL0     C84172   6.635   4.941  10.573 -0.0035 -0.0713 -0.2760
  624MOL0     H84173   6.878   5.186  11.021  0.2428  0.3495  0.5921
  624MOL0     H84174   7.119   5.249  11.060 -0.8064  0.1450 -0.6394
  624MOL0     H84175   7.329   5.249  10.887 -0.9800 -0.1217  1.2216
  624MOL0     H84176   7.381   5.286  11.056  2.6186  0.3274  0.2352
  624MOL0     H84177   7.560   5.258  10.835  2.0303 -0.2615 -0.8888
  624MOL0     H84178   7.607   5.283  10.988 -1.1211  0.7132  1.7336
  624MOL0     H84179   7.587   5.016  11.032  1.4505 -2.6091 -1.0359
  624MOL0     H84180   7.565   5.011  10.854 -1.4650  2.0437 -1.4704
  624MOL0     H84181   7.786   5.097  10.817  0.9753 -0.6885  0.4449
  624MOL0     H84182   7.804   5.154  10.980 -0.1808  0.1384  0.2567
  624MOL0     H84183   7.936   4.955  10.940  0.0830  0.5500 -0.6032
  624MOL0     H84184   7.815   4.933  11.066  0.7583  1.6513 -0.0010
  624MOL0     H84185   7.669   4.796  10.924  0.8443 -3.3518 -0.2691
  624MOL0     H84186   7.775   4.830  10.784 -0.0787  1.5974  0.2470
  624MOL0     H84187   7.954   4.712  10.887 -0.6970  0.5534  1.6945
  624MOL0     H84188   7.860   4.672  11.036 -3.6516 -0.7042  0.1473
  624MOL0     H84189   7.807   4.563  10.750 -4.0418 -0.1428 -1.0860
  624MOL0     H84190   7.689   4.571  10.884 -0.1794 -0.8160 -0.4321
  624MOL0     H84191   7.753   4.468  11.126  0.8302 -0.5917 -0.4533
  624MOL0     H84192   7.961   4.123  11.176 -0.8134 -0.6516 -1.5162
  624MOL0     H84193   7.927   4.264  11.281  0.2175 -2.5218  1.5051
  624MOL0     H84194   7.723   4.062  11.172  0.7685 -1.8444 -0.7048
  624MOL0     H84195   7.689   4.205  11.273 -2.4970 -2.9225  2.8258
  624MOL0     H84196   7.835   4.096  11.456  0.5951  0.3245 -1.8717
  624MOL0     H84197   7.803   3.950  11.356  3.9026  1.7130 -0.4612
  624MOL0     H84198   7.649   3.961  11.540 -0.7174 -0.6823 -0.5594
  624MOL0     H84199   7.571   3.981  11.387 -0.4755  0.6484  0.6079
  624MOL0     H84200   7.780   4.323  11.540 -2.1807  1.7027 -0.5361
  624MOL0     H84201   8.017   4.345  11.816  0.8502  0.1300 -0.4707
  624MOL0     H84202   7.982   4.344  11.646 -3.2708  0.8010 -1.3500
  624MOL0     H84203   7.940   4.483  11.753 -0.6770  0.7896  0.7803
  624MOL0     H84204   7.581   4.252  12.317  0.4665  0.7646  2.9064
  624MOL0     H84205   7.638   4.195  12.549 -1.6108  1.6147 -0.7830
  624MOL0     H84206   7.833   4.281  12.753 -2.4400 -0.5462  3.8864
  624MOL0     H84207   7.718   4.150  12.748 -2.2198  4.4260  1.6376
  624MOL0     H84208   7.892   4.017  12.866  0.1906 -0.7667 -0.8961
  624MOL0     H84209   8.006   4.155  12.852  0.4617 -0.3391  4.0096
  624MOL0     H84210   7.896   4.290  13.020 -2.8372  1.6766 -1.2007
  624MOL0     H84211   7.908   4.129  13.091 -0.9687 -5.6364 -3.3143
  624MOL0     H84212   7.673   4.272  12.974  2.7662  1.5332  0.2651
  624MOL0     H84213   7.653   4.096  12.983 -0.7384  0.5727 -2.0801
  624MOL0     H84214   7.553   4.204  13.161  0.3024 -1.2179 -3.3717
  624MOL0     H84215   7.705   4.299  13.210  0.6630 -1.3973  1.6354
  624MOL0     H84216   7.673   3.989  13.225 -1.0256  1.7225 -2.2568
  624MOL0     H84217   7.821   4.063  13.263  0.0843  1.4716  1.9458
  624MOL0     H84218   7.567   4.139  13.395  0.1867  0.2304 -2.6664
  624MOL0     H84219   7.735   4.180  13.445 -1.9691 -1.0567  2.8436
  624MOL0     H84220   7.734   4.012  13.592  0.4314 -0.8339  1.5250
  624MOL0     H84221   7.739   3.893  13.455 -0.6553  0.3593 -0.8879
  624MOL0     H84222   8.031   4.094  12.420 -0.2376 -1.3962 -2.3017
  624MOL0     H84223   7.960   4.163  12.178 -2.2134 -0.8577 -1.2101
  624MOL0     H84224   7.567   4.134  11.936 -2.3439 -0.9873 -1.1763
  624MOL0     H84225   7.484   4.080  11.712  1.2466 -2.0101 -0.2716
  624MOL0     H84226   7.245   4.874  10.904  2.8341  2.9994 -0.3483
  624MOL0     H84227   7.018   4.832  10.826 -2.5255  1.0634 -0.3720
  624MOL0     H84228   6.564   5.074  10.880 -0.4478 -2.0402  0.1238
  624MOL0     H84229   6.341   5.095  10.777  0.2782  2.5419 -1.0214
  624MOL0     H84230   6.148   5.079  10.641  0.4947 -0.7335 -0.3407
  624MOL0     H84231   6.229   5.234  10.600 -0.7381  1.2574 -1.7930
  624MOL0     H84232   6.022   5.090  10.421  1.0669 -1.9682  1.2798
  624MOL0     H84233   6.148   5.201  10.358 -2.8068 -0.8161 -2.1984
  624MOL0     H84234   6.057   5.389  10.516 -3.8160  0.1110  0.8006
  624MOL0     H84235   5.939   5.287  10.577 -1.3803  2.5763  0.7987
  624MOL0     H84236   5.990   5.344  10.286  1.9413 -1.9190  0.9393
  624MOL0     H84237   5.885   5.441  10.375 -0.0066 -0.2188  0.0443
  624MOL0     H84238   5.632   5.120  10.293  2.4393 -2.4593 -1.7290
  624MOL0     H84239   6.492   4.920  10.415  1.6034 -0.2390  0.0457
  624MOL0     H84240   6.720   4.904  10.517  1.0351  0.7343  0.7253
  625MOL0     O84241   0.889   0.359   9.203 -0.6492 -0.0215  0.1455
  625MOL0     C84242   0.917   0.328   9.090 -0.2059  0.3184 -0.7592
  625MOL0     O84243   0.959   0.205   9.049  0.6671  0.3546 -0.5777
  625MOL0     C84244   0.964   0.097   9.139 -0.1053 -0.0368  0.3994
  625MOL0     C84245   1.083   0.086   9.216 -0.3336  0.4950 -0.0765
  625MOL0     C84246   1.094  -0.040   9.283  0.3190 -0.9170 -0.2219
  625MOL0     C84247   0.986  -0.125   9.311  0.3392  0.0257  0.9861
  625MOL0     O84248   0.991  -0.228   9.396 -0.3351 -0.2859  0.2734
  625MOL0     C84249   1.052  -0.207   9.522 -0.5233 -1.0130  0.2116
  625MOL0     C84250   1.029  -0.344   9.608  0.4815 -0.3681  0.7356
  625MOL0     C84251   1.137  -0.348   9.722  0.6908  0.4655 -1.0267
  625MOL0     C84252   1.123  -0.475   9.810  0.2039  0.0071 -0.0636
  625MOL0     C84253   1.249  -0.520   9.879  0.1448 -0.1471  0.2919
  625MOL0     C84254   1.240  -0.657   9.942  0.0646 -0.6848  0.5375
  625MOL0     C84255   1.177  -0.651  10.084 -0.1097 -0.3892 -1.1683
  625MOL0     C84256   1.146  -0.791  10.136  0.9357  0.2510  0.9554
  625MOL0     N84257   1.056  -0.882  10.052 -0.6495 -0.5595 -0.1091
  625MOL0     C84258   1.101  -0.967   9.952  0.3405 -0.9110  0.3026
  625MOL0     C84259   0.981  -1.030   9.913  0.3178  0.3961 -0.0216
  625MOL0     C84260   0.973  -1.137   9.801 -0.5772  0.5540 -0.5562
  625MOL0     C84261   0.868  -1.088   9.701  0.1372 -1.4618 -0.6511
  625MOL0     C84262   0.898  -1.154   9.567  0.8470  0.2201  0.1614
  625MOL0     C84263   0.790  -1.095   9.466 -0.1741 -0.2779  0.2308
  625MOL0     O84264   0.797  -1.170   9.352  0.3142  0.3359  0.1922
  625MOL0     C84265   0.679  -1.242   9.323  1.0968  0.5680  0.1294
  625MOL0     C84266   0.594  -1.181   9.223 -0.4967  0.4032  1.4464
  625MOL0     C84267   0.477  -1.247   9.177 -0.6463  0.1264  0.0465
  625MOL0     C84268   0.402  -1.188   9.049 -0.4624 -1.1454 -0.7368
  625MOL0     C84269   0.428  -1.356   9.252  0.3233  0.2525 -0.2174
  625MOL0     C84270   0.303  -1.423   9.217  0.6729  0.4276 -0.4539
  625MOL0     O84271   0.192  -1.349   9.238 -0.7506 -0.7540 -0.5463
  625MOL0     C84272   0.074  -1.420   9.252  0.2665  0.0116  1.0914
  625MOL0     C84273   0.062  -1.533   9.341 -0.2630 -0.7798 -0.2187
  625MOL0     C84274  -0.051  -1.602   9.362  1.6317  0.6189 -0.6740
  625MOL0     C84275  -0.164  -1.561   9.292  0.0630 -0.1483 -0.4322
  625MOL0     O84276  -0.270  -1.641   9.312 -0.1490 -0.1833 -0.4499
  625MOL0     C84277  -0.373  -1.583   9.389 -0.0740 -0.2055  0.2282
  625MOL0     C84278  -0.490  -1.515   9.310 -0.3503 -0.3723  0.8334
  625MOL0     C84279  -0.574  -1.624   9.245 -0.5714  0.1737 -0.2098
  625MOL0     C84280  -0.691  -1.557   9.162 -0.0175 -0.3193 -0.1748
  625MOL0     C84281  -0.646  -1.482   9.035 -1.0960 -0.9069 -0.1073
  625MOL0     C84282  -0.765  -1.446   8.952 -0.0231  0.1922  0.4406
  625MOL0     C84283  -0.731  -1.398   8.804 -0.3752  0.3468  0.0306
  625MOL0     C84284  -0.854  -1.323   8.737  0.6450  0.1354  0.3437
  625MOL0    Cl84285  -0.795  -1.283   8.566  0.0163  0.2279  0.0022
  625MOL0     C84286  -0.169  -1.445   9.216 -0.7342 -0.4972  0.1215
  625MOL0     C84287  -0.044  -1.381   9.183  0.3702 -0.2963  0.4932
  625MOL0     O84288   0.301  -1.531   9.168 -0.0850  0.5267 -0.7865
  625MOL0     C84289   0.526  -1.424   9.337 -0.0240 -0.0629 -0.2737
  625MOL0     C84290   0.640  -1.360   9.376  0.6363  0.4139 -0.6428
  625MOL0     N84291   0.870  -0.975   9.984 -0.0011  0.5408  0.0825
  625MOL0     N84292   0.928  -0.899  10.074  0.1164  0.4388  0.6099
  625MOL0     C84293   0.875  -0.110   9.235  0.6504 -0.4022  0.1687
  625MOL0     C84294   0.858   0.001   9.150  0.1178 -0.7370  0.4275
  625MOL0     C84295   0.935   0.442   8.997  0.4159 -0.9686  0.4769
  625MOL0     C84296   1.024   0.437   8.885  0.9348 -0.6238 -0.0401
  625MOL0     C84297   1.054   0.554   8.815  0.5498  0.2180 -0.9646
  625MOL0     C84298   1.007   0.672   8.861  1.0070  0.7566  0.5560
  625MOL0     O84299   1.033   0.796   8.799  1.0474  0.6967 -0.6167
  625MOL0     C84300   1.131   0.794   8.697 -0.4081  0.4718  0.5679
  625MOL0     C84301   1.152   0.934   8.636 -0.3853 -0.7863 -0.2110
  625MOL0     C84302   1.265   0.923   8.519  0.3668  0.8440  0.1703
  625MOL0     C84303   1.322   1.068   8.501  0.6576 -0.9054  0.2973
  625MOL0     C84304   1.222   1.145   8.434  0.2181 -0.6230 -0.5758
  625MOL0     C84305   1.135   1.216   8.393  0.2228  0.6731 -0.9647
  625MOL0     C84306   0.925   0.680   8.973 -0.6192  0.0174 -0.1098
  625MOL0     C84307   0.887   0.568   9.043 -0.3931 -0.7484 -0.5156
  625MOL0     H84308   1.174   0.146   9.218  0.4579 -0.3786 -3.5662
  625MOL0     H84309   1.187  -0.060   9.335 -0.4722 -2.4437  0.6667
  625MOL0     H84310   1.159  -0.192   9.505 -0.3377 -1.6684  0.7595
  625MOL0     H84311   1.006  -0.123   9.574  0.9659  1.5913 -2.3750
  625MOL0     H84312   0.931  -0.356   9.655 -0.1018 -2.5678 -0.8489
  625MOL0     H84313   1.046  -0.421   9.532 -0.6777  1.2809 -1.2880
  625MOL0     H84314   1.237  -0.354   9.678  1.3586 -1.9088  0.6484
  625MOL0     H84315   1.132  -0.254   9.777  0.7198  1.2257 -2.2897
  625MOL0     H84316   1.039  -0.453   9.876 -0.0737 -1.3977  0.0890
  625MOL0     H84317   1.103  -0.560   9.743  1.9666  1.0335 -2.0330
  625MOL0     H84318   1.326  -0.517   9.801  0.5359  1.7110  0.7141
  625MOL0     H84319   1.267  -0.448   9.960  0.8293 -0.2072  0.2026
  625MOL0     H84320   1.183  -0.719   9.873  2.9894 -2.4060 -0.5025
  625MOL0     H84321   1.330  -0.717   9.953  2.3729  2.6344  1.2095
  625MOL0     H84322   1.232  -0.597  10.162 -2.8417 -1.3514  1.6464
  625MOL0     H84323   1.083  -0.597  10.068 -0.0968  0.0625  0.1741
  625MOL0     H84324   1.094  -0.782  10.232  1.5881 -0.8729  1.4296
  625MOL0     H84325   1.243  -0.837  10.159  2.4551  2.5115 -0.5447
  625MOL0     H84326   1.205  -0.985   9.927  1.4636  0.4948  3.4701
  625MOL0     H84327   1.073  -1.145   9.758 -0.6430  0.0143 -0.6181
  625MOL0     H84328   0.951  -1.232   9.851  0.9769  0.1428 -0.5945
  625MOL0     H84329   0.869  -0.979   9.688  2.3435 -1.5058 -1.2409
  625MOL0     H84330   0.772  -1.114   9.746 -0.1872  1.2722  0.4744
  625MOL0     H84331   0.881  -1.260   9.587  0.2558  0.8480  3.6521
  625MOL0     H84332   1.004  -1.143   9.543  0.2160  0.0307 -3.1954
  625MOL0     H84333   0.814  -0.989   9.452 -1.6952  0.1015  0.3209
  625MOL0     H84334   0.686  -1.090   9.498 -0.6983 -4.6243 -0.2339
  625MOL0     H84335   0.641  -1.096   9.174  2.9883 -3.2106 -2.3190
  625MOL0     H84336   0.382  -1.268   8.977 -0.3224 -2.8142  0.9872
  625MOL0     H84337   0.303  -1.155   9.082 -0.1613 -0.8481 -0.1090
  625MOL0     H84338   0.453  -1.104   9.003  2.0201 -2.5138 -0.6449
  625MOL0     H84339   0.147  -1.568   9.400  0.9109 -2.3589 -2.6670
  625MOL0     H84340  -0.051  -1.692   9.422 -0.1872 -0.7177 -2.5218
  625MOL0     H84341  -0.423  -1.659   9.449 -1.5295  0.0851 -0.5457
  625MOL0     H84342  -0.338  -1.513   9.465 -3.0557  0.7159  0.9151
  625MOL0     H84343  -0.561  -1.468   9.378 -2.2373 -0.7497 -0.7790
  625MOL0     H84344  -0.462  -1.440   9.236 -1.5968 -0.2606  0.4490
  625MOL0     H84345  -0.604  -1.692   9.325  2.6285 -0.2509  0.7598
  625MOL0     H84346  -0.515  -1.689   9.180  2.8412  2.7532  0.0479
  625MOL0     H84347  -0.769  -1.627   9.130 -2.0751  1.7058  0.1362
  625MOL0     H84348  -0.740  -1.497   9.239  3.6880 -0.0944  2.2793
  625MOL0     H84349  -0.577  -1.545   8.978  1.9662 -0.4932  2.8696
  625MOL0     H84350  -0.590  -1.390   9.055 -1.8034 -0.7559  1.3229
  625MOL0     H84351  -0.825  -1.536   8.939 -2.1785  1.7142 -0.7478
  625MOL0     H84352  -0.820  -1.374   9.013  1.3190  0.6457  1.1644
  625MOL0     H84353  -0.704  -1.480   8.737  0.6242  0.4739  0.2695
  625MOL0     H84354  -0.651  -1.325   8.792 -1.1832  1.2597  0.1217
  625MOL0     H84355  -0.876  -1.235   8.798 -2.8480  0.5214 -1.2360
  625MOL0     H84356  -0.938  -1.392   8.742  0.9689 -0.2027  2.1452
  625MOL0     H84357  -0.257  -1.404   9.169 -0.2864  3.0034  2.0421
  625MOL0     H84358  -0.049  -1.297   9.114  0.3927 -0.9230 -0.2775
  625MOL0     H84359   0.487  -1.510   9.390 -2.1002  1.5235  0.9248
  625MOL0     H84360   0.705  -1.418   9.440  1.9498  0.2128 -2.0990
  625MOL0     H84361   0.793  -0.181   9.244  0.4797 -0.6595 -2.6350
  625MOL0     H84362   0.767  -0.001   9.091  0.4440  0.8879 -0.1813
  625MOL0     H84363   1.077   0.347   8.855 -1.0557 -0.9919 -2.8631
  625MOL0     H84364   1.114   0.542   8.726  1.0187 -2.8070 -0.3602
  625MOL0     H84365   1.224   0.760   8.743  0.7344  0.1932 -1.7961
  625MOL0     H84366   1.114   0.722   8.616  3.8281 -1.3391  0.9911
  625MOL0     H84367   1.184   1.001   8.716 -1.2665 -0.3005 -0.2488
  625MOL0     H84368   1.062   0.974   8.588 -0.9419 -0.3582  1.1207
  625MOL0     H84369   1.222   0.872   8.433  2.0263 -2.3247  1.0760
  625MOL0     H84370   1.354   0.867   8.550 -1.2251 -0.9618  1.7823
  625MOL0     H84371   1.422   1.073   8.458 -1.2335  3.5476 -4.7189
  625MOL0     H84372   1.334   1.114   8.599 -2.7154  0.9157  0.0398
  625MOL0     H84373   1.054   1.272   8.350 -2.2885 -0.1715  2.3079
  625MOL0     H84374   0.892   0.775   9.015 -0.9070  0.1164 -0.5561
  625MOL0     H84375   0.809   0.567   9.118 -1.2514 -2.6643 -1.3431
  626MOL0     O84376   4.946   1.996   4.697  0.0461  0.4713 -0.0049
  626MOL0     C84377   4.997   1.924   4.609  0.4741 -0.5542  1.6648
  626MOL0     O84378   5.125   1.916   4.578 -0.2146  0.1862  0.1159
  626MOL0     C84379   5.231   1.975   4.649 -0.1191  0.1787 -0.2104
  626MOL0     C84380   5.226   2.037   4.776 -0.0422 -0.3689 -0.0271
  626MOL0     C84381   5.345   2.096   4.832 -0.2093 -0.3931 -0.5752
  626MOL0     C84382   5.456   2.110   4.760 -0.7981 -0.5348 -0.5810
  626MOL0     O84383   5.567   2.162   4.813 -0.5485  0.6229  0.6487
  626MOL0     C84384   5.553   2.301   4.856 -0.5198  0.4625  0.7546
  626MOL0     C84385   5.633   2.392   4.759 -0.0622  0.0829  0.2545
  626MOL0     C84386   5.783   2.383   4.800 -0.1087 -0.6516 -0.1009
  626MOL0     C84387   5.878   2.473   4.719 -0.7776 -0.1983  1.0208
  626MOL0     C84388   6.029   2.465   4.763 -0.5775  0.4827  0.5759
  626MOL0     C84389   6.113   2.580   4.698  0.2127  0.8154  0.9475
  626MOL0     C84390   6.116   2.614   4.546 -0.0026  1.2076 -0.3975
  626MOL0     C84391   6.249   2.685   4.497  0.0864  1.0497  0.6282
  626MOL0     N84392   6.263   2.823   4.537  0.1760 -0.3498  0.5138
  626MOL0     C84393   6.381   2.881   4.580 -0.1758  0.0376 -0.0440
  626MOL0     C84394   6.343   2.994   4.645  0.1324  0.3323  0.9787
  626MOL0     C84395   6.427   3.105   4.709 -0.7875  0.8773  0.3238
  626MOL0     C84396   6.536   3.041   4.785  0.2140  0.0179  0.4169
  626MOL0     C84397   6.621   3.142   4.867  0.2652 -0.1205  0.7919
  626MOL0     C84398   6.742   3.077   4.931 -0.0604 -0.2157  0.3055
  626MOL0     O84399   6.688   2.967   5.004  0.0224 -0.9280 -0.3698
  626MOL0     C84400   6.772   2.878   5.061 -1.5206 -0.6100  1.1293
  626MOL0     C84401   6.912   2.862   5.033  1.0777  0.0986  0.1661
  626MOL0     C84402   6.985   2.765   5.101 -0.1409 -0.4107  0.0933
  626MOL0     C84403   7.141   2.770   5.085  1.2684 -0.7717  0.8815
  626MOL0     C84404   6.924   2.683   5.194 -0.0648 -0.1851  0.1899
  626MOL0     C84405   6.992   2.578   5.279  0.0826  0.3125 -0.0200
  626MOL0     O84406   6.915   2.474   5.311 -0.0487 -0.5691 -0.6883
  626MOL0     C84407   6.948   2.417   5.433 -0.4806  0.5030  1.0827
  626MOL0     C84408   7.048   2.321   5.442 -0.0403 -0.3236  0.6375
  626MOL0     C84409   7.099   2.276   5.563  0.5608 -0.7376 -0.7571
  626MOL0     C84410   7.039   2.305   5.674 -0.0589  0.3734  0.2842
  626MOL0     O84411   7.088   2.240   5.783 -0.0440 -0.7333 -1.2982
  626MOL0     C84412   7.043   2.308   5.909 -0.2710  0.1363 -0.4372
  626MOL0     C84413   7.127   2.238   6.022  0.1345  0.2310 -0.1802
  626MOL0     C84414   7.257   2.313   6.039 -0.4063 -0.3035  0.0236
  626MOL0     C84415   7.328   2.260   6.173  0.0443  0.2836  0.7704
  626MOL0     C84416   7.465   2.330   6.185  0.4191  0.0661  0.5446
  626MOL0     C84417   7.583   2.281   6.099 -0.3128  0.2597  0.9647
  626MOL0     C84418   7.701   2.380   6.116 -0.6990 -0.3369 -0.1631
  626MOL0     C84419   7.700   2.498   6.017 -1.0658  0.1979  0.2226
  626MOL0    Cl84420   7.833   2.606   6.025  0.4042 -0.3833 -0.2613
  626MOL0     C84421   6.929   2.389   5.666  0.6942 -0.7446 -0.2798
  626MOL0     C84422   6.881   2.448   5.547 -0.2741  1.1130 -0.3478
  626MOL0     O84423   7.102   2.601   5.339 -0.4700  0.9406  0.7391
  626MOL0     C84424   6.786   2.682   5.200 -0.3151 -0.3920 -0.9670
  626MOL0     C84425   6.710   2.776   5.139 -0.4023  0.2429  0.4088
  626MOL0     N84426   6.211   3.009   4.635  0.1236 -0.4267  1.2039
  626MOL0     N84427   6.163   2.902   4.576  0.2945 -0.0458 -0.8546
  626MOL0     C84428   5.467   2.033   4.641 -0.4706  0.3822 -0.8824
  626MOL0     C84429   5.354   1.971   4.582  0.6667  0.6788 -0.0136
  626MOL0     C84430   4.921   1.851   4.517  0.4733  0.1448  0.1269
  626MOL0     C84431   4.788   1.878   4.495  0.4576  0.2222 -0.2216
  626MOL0     C84432   4.704   1.802   4.411 -0.5747  1.0540  0.2565
  626MOL0     C84433   4.758   1.681   4.348  0.2356  0.0245 -0.0523
  626MOL0     O84434   4.676   1.604   4.276  0.0083 -0.2976 -0.2156
  626MOL0     C84435   4.589   1.518   4.361 -0.5765  0.9504 -0.8899
  626MOL0     C84436   4.579   1.399   4.270 -1.0889  0.3226 -0.5378
  626MOL0     C84437   4.713   1.332   4.247 -0.7011  0.1970  0.4796
  626MOL0     C84438   4.681   1.181   4.219 -0.2207  0.7557  0.1278
  626MOL0     C84439   4.798   1.097   4.236 -0.4768 -0.8717 -0.5324
  626MOL0     C84440   4.889   1.024   4.240 -0.3589  0.3162 -0.2655
  626MOL0     C84441   4.894   1.662   4.365  1.1009 -0.2408  0.0963
  626MOL0     C84442   4.976   1.737   4.454  0.3842  0.0947  0.9453
  626MOL0     H84443   5.140   2.038   4.841  0.1122  3.6478  0.3772
  626MOL0     H84444   5.338   2.140   4.932  0.8308 -1.4016 -0.0377
  626MOL0     H84445   5.454   2.348   4.851  0.3218  2.5001  2.0131
  626MOL0     H84446   5.585   2.310   4.960  0.1293 -0.3345  0.6296
  626MOL0     H84447   5.614   2.368   4.654 -4.2930 -1.2742  1.1317
  626MOL0     H84448   5.601   2.496   4.761 -1.4708 -0.0649 -4.2037
  626MOL0     H84449   5.788   2.416   4.904 -0.8279  0.1447 -0.3080
  626MOL0     H84450   5.824   2.282   4.798 -0.5530 -0.9320  2.1074
  626MOL0     H84451   5.875   2.452   4.612 -2.4583 -0.3563  1.0732
  626MOL0     H84452   5.834   2.572   4.729 -0.2291  0.2745 -0.9389
  626MOL0     H84453   6.029   2.482   4.871 -0.0273  1.6170  0.4182
  626MOL0     H84454   6.076   2.372   4.731 -0.4609  0.9750 -0.7276
  626MOL0     H84455   6.066   2.672   4.735 -2.4870  1.3270 -3.0362
  626MOL0     H84456   6.216   2.563   4.730 -0.6030 -4.1095  1.5979
  626MOL0     H84457   6.090   2.520   4.496 -1.1308 -0.6009  3.2727
  626MOL0     H84458   6.037   2.685   4.520  0.1591  1.2831 -0.6884
  626MOL0     H84459   6.257   2.682   4.388 -1.8163  2.5949  0.3806
  626MOL0     H84460   6.324   2.614   4.532 -2.5191 -1.1481  2.1862
  626MOL0     H84461   6.479   2.836   4.574 -1.1169 -1.9274 -1.9359
  626MOL0     H84462   6.478   3.157   4.627 -1.0639 -1.8006 -1.6859
  626MOL0     H84463   6.369   3.168   4.777 -1.6323  0.0356  0.3994
  626MOL0     H84464   6.606   2.988   4.720  1.4718  2.5840 -0.4431
  626MOL0     H84465   6.499   2.963   4.853 -1.3978  1.0458  0.7632
  626MOL0     H84466   6.559   3.196   4.939 -1.0856  0.5147 -0.7745
  626MOL0     H84467   6.646   3.217   4.791  0.7645  2.0313  2.9790
  626MOL0     H84468   6.805   3.143   4.991  2.2803 -0.5457 -1.6404
  626MOL0     H84469   6.808   3.049   4.848  0.7869 -0.3561  1.0047
  626MOL0     H84470   6.964   2.919   4.956  1.8047 -1.5923 -0.6491
  626MOL0     H84471   7.173   2.858   5.029 -3.3347 -1.3491 -3.3116
  626MOL0     H84472   7.195   2.759   5.180  3.3917  1.8582  0.1112
  626MOL0     H84473   7.177   2.681   5.032  2.4194 -0.8654  1.7797
  626MOL0     H84474   7.108   2.295   5.356  0.9769 -0.2751  1.3077
  626MOL0     H84475   7.186   2.212   5.574 -0.6501 -2.0000  2.5811
  626MOL0     H84476   7.046   2.416   5.924 -2.8328 -0.0046  1.8553
  626MOL0     H84477   6.941   2.274   5.926 -0.2746 -0.6472 -1.8703
  626MOL0     H84478   7.065   2.230   6.111  1.1395  0.8081  0.5996
  626MOL0     H84479   7.156   2.135   5.998  1.5218 -0.4685  3.7486
  626MOL0     H84480   7.216   2.414   6.053 -1.5890 -0.4304 -2.0960
  626MOL0     H84481   7.321   2.310   5.951  1.9767  0.5172  1.6266
  626MOL0     H84482   7.259   2.291   6.252  1.6648  1.9939  1.5948
  626MOL0     H84483   7.329   2.151   6.179  2.3823  0.2675  0.8330
  626MOL0     H84484   7.494   2.314   6.289 -1.0710  0.3960  1.0290
  626MOL0     H84485   7.459   2.439   6.178 -0.2342  0.0110  0.2000
  626MOL0     H84486   7.623   2.183   6.126 -0.5170 -0.6373 -1.6965
  626MOL0     H84487   7.559   2.278   5.992  1.1751  3.5368  0.4431
  626MOL0     H84488   7.796   2.326   6.114  0.9696  2.3179 -3.5020
  626MOL0     H84489   7.694   2.427   6.215  1.8094 -3.0499  1.4584
  626MOL0     H84490   7.608   2.555   6.029 -1.8669 -1.0575  0.2442
  626MOL0     H84491   7.709   2.466   5.913 -0.7461  0.9769  0.0053
  626MOL0     H84492   6.861   2.417   5.746 -0.5802 -0.7934 -1.3237
  626MOL0     H84493   6.800   2.519   5.559 -1.0456 -0.1034  2.5314
  626MOL0     H84494   6.735   2.606   5.259 -0.2264  1.9117  2.3508
  626MOL0     H84495   6.602   2.783   5.145 -0.7049 -3.5626  1.8803
  626MOL0     H84496   5.567   2.033   4.597 -0.0174  3.7284 -0.1420
  626MOL0     H84497   5.373   1.912   4.493  2.7374 -1.0423  1.4308
  626MOL0     H84498   4.738   1.960   4.546  1.9898  1.9956 -1.4548
  626MOL0     H84499   4.601   1.824   4.387 -0.6763 -0.0364 -0.3488
  626MOL0     H84500   4.626   1.493   4.460 -2.4056  2.0808  0.1211
  626MOL0     H84501   4.492   1.562   4.385 -2.7731 -2.2798 -3.0178
  626MOL0     H84502   4.525   1.430   4.180 -1.9595  0.6595  0.0812
  626MOL0     H84503   4.518   1.329   4.327  2.4427 -1.1875  1.7166
  626MOL0     H84504   4.775   1.333   4.338  2.8060 -2.5946 -1.6190
  626MOL0     H84505   4.769   1.381   4.167 -0.8034  0.5748  0.6330
  626MOL0     H84506   4.644   1.178   4.116  2.8283  1.8583 -1.1341
  626MOL0     H84507   4.610   1.131   4.286 -0.0405 -0.9010 -0.8680
  626MOL0     H84508   4.972   0.957   4.226 -2.4127 -3.6752  3.8935
  626MOL0     H84509   4.935   1.572   4.320  2.2187 -2.3517  4.7713
  626MOL0     H84510   5.081   1.709   4.460 -0.1914 -2.2996  0.5472
  627MOL0     O84511   1.574   5.643   0.920 -0.1714 -0.0355  0.1663
  627MOL0     C84512   1.612   5.658   0.800 -0.3828  0.1810  0.0443
  627MOL0     O84513   1.531   5.665   0.694  0.6691 -0.3075 -0.2286
  627MOL0     C84514   1.393   5.651   0.710 -0.5856  0.0623  0.5633
  627MOL0     C84515   1.330   5.527   0.698  0.3577  0.7290  0.3093
  627MOL0     C84516   1.193   5.511   0.706 -0.5954 -0.6092 -0.1487
  627MOL0     C84517   1.108   5.613   0.721 -0.7381  0.1035 -0.1713
  627MOL0     O84518   0.976   5.584   0.749 -0.2199 -0.7434 -0.4058
  627MOL0     C84519   0.888   5.684   0.797  0.1557 -0.9523  1.3185
  627MOL0     C84520   0.753   5.631   0.815  0.3224 -0.3015 -0.5059
  627MOL0     C84521   0.754   5.483   0.876 -0.2560 -0.7943 -0.5270
  627MOL0     C84522   0.621   5.421   0.878  0.3826 -0.0959 -0.4346
  627MOL0     C84523   0.621   5.298   0.965  0.2943  0.5403  0.0109
  627MOL0     C84524   0.506   5.195   0.950  0.6554 -0.2762 -0.0493
  627MOL0     C84525   0.368   5.258   0.949  0.6770 -0.3363 -0.4455
  627MOL0     C84526   0.250   5.164   0.909 -0.1511  0.1603  0.5104
  627MOL0     N84527   0.130   5.249   0.943 -0.5794 -0.1685 -0.2549
  627MOL0     C84528   0.080   5.298   1.063  0.2700 -0.2477  0.5481
  627MOL0     C84529  -0.031   5.375   1.028  0.4103  0.3045 -0.3814
  627MOL0     C84530  -0.123   5.453   1.119  0.9519  0.2480  0.1862
  627MOL0     C84531  -0.103   5.604   1.138 -0.1843 -0.2049  0.1706
  627MOL0     C84532   0.032   5.643   1.200  0.4580  0.4193 -0.6654
  627MOL0     C84533   0.027   5.628   1.351 -0.1996  0.5664 -0.8023
  627MOL0     O84534   0.063   5.488   1.374  0.4645  0.4954  0.0857
  627MOL0     C84535   0.080   5.440   1.502 -0.7367 -1.2970  0.9772
  627MOL0     C84536   0.179   5.345   1.527 -0.4581  0.8858 -0.1441
  627MOL0     C84537   0.205   5.294   1.647  0.9164  0.1261 -0.3789
  627MOL0     C84538   0.327   5.211   1.636 -0.1731  0.9153  0.4894
  627MOL0     C84539   0.126   5.326   1.762 -0.0938  0.8629 -0.6000
  627MOL0     C84540   0.153   5.272   1.904  1.4374  0.0747 -0.7773
  627MOL0     O84541   0.083   5.332   2.009 -0.2687 -0.2989  0.1175
  627MOL0     C84542   0.104   5.295   2.141  0.9734  0.7160  0.5243
  627MOL0     C84543  -0.001   5.333   2.225  0.0317  0.3240  0.2873
  627MOL0     C84544   0.009   5.312   2.364  0.9988 -0.5658  0.4617
  627MOL0     C84545   0.121   5.261   2.422 -0.4497 -0.3549  0.1059
  627MOL0     O84546   0.136   5.259   2.558  0.0141  0.1854  0.7469
  627MOL0     C84547   0.082   5.365   2.653 -0.2748 -0.1759  0.0329
  627MOL0     C84548   0.151   5.377   2.791  0.5040  0.6191 -0.7814
  627MOL0     C84549   0.299   5.388   2.775 -1.0746 -0.5149 -0.3191
  627MOL0     C84550   0.354   5.533   2.803 -0.1032  0.0834  0.1796
  627MOL0     C84551   0.311   5.627   2.696  0.0939 -1.2127 -0.0380
  627MOL0     C84552   0.349   5.617   2.550 -0.0070 -0.4010 -0.3324
  627MOL0     C84553   0.275   5.718   2.450  0.3782 -0.2330  0.1268
  627MOL0     C84554   0.341   5.715   2.300  0.3773  0.4570 -0.0601
  627MOL0    Cl84555   0.305   5.859   2.188 -0.0561 -0.4784  0.2174
  627MOL0     C84556   0.221   5.226   2.342 -1.1140 -0.1973  0.1557
  627MOL0     C84557   0.224   5.252   2.211  0.2372  0.2567  0.1785
  627MOL0     O84558   0.236   5.178   1.919 -1.0669 -0.3699  0.0844
  627MOL0     C84559   0.024   5.420   1.748  0.4553  1.0149 -0.1265
  627MOL0     C84560   0.011   5.488   1.617  0.2348  0.6961 -0.0349
  627MOL0     N84561  -0.033   5.372   0.883 -0.5515 -0.0412 -0.3136
  627MOL0     N84562   0.055   5.294   0.842  0.0883  0.7004  1.1036
  627MOL0     C84563   1.167   5.744   0.737 -0.0944 -1.1068 -0.4482
  627MOL0     C84564   1.309   5.760   0.729 -0.4304 -0.1168 -0.9750
  627MOL0     C84565   1.753   5.673   0.771 -0.4365  0.1183  0.9007
  627MOL0     C84566   1.800   5.624   0.651  0.9126 -0.6881 -0.6317
  627MOL0     C84567   1.935   5.623   0.618 -0.0834 -0.6289 -1.0724
  627MOL0     C84568   2.030   5.682   0.705  0.0319 -0.2022 -0.3981
  627MOL0     O84569   2.162   5.682   0.678 -0.4040  0.0556 -0.0654
  627MOL0     C84570   2.210   5.723   0.547  0.5017  0.3875 -0.8436
  627MOL0     C84571   2.285   5.862   0.555  0.4330  0.9097 -0.5347
  627MOL0     C84572   2.347   5.885   0.420 -0.6826 -0.2620 -0.2768
  627MOL0     C84573   2.397   6.030   0.427  0.7525  0.5168 -0.8374
  627MOL0     C84574   2.419   6.070   0.293  0.7792  0.1494  0.6056
  627MOL0     C84575   2.421   6.111   0.182  0.1338 -0.5075  0.1697
  627MOL0     C84576   1.985   5.725   0.828  0.8653 -0.5077 -0.3136
  627MOL0     C84577   1.847   5.722   0.867  0.1363 -1.0365 -0.6353
  627MOL0     H84578   1.388   5.438   0.678  0.1448  0.9199 -1.3117
  627MOL0     H84579   1.160   5.407   0.703  1.7535 -1.6823  3.8558
  627MOL0     H84580   0.926   5.737   0.885 -1.6114  3.7538 -0.4092
  627MOL0     H84581   0.881   5.762   0.720  1.0013  1.2651  3.3420
  627MOL0     H84582   0.689   5.694   0.877  0.3509  0.2653 -1.0439
  627MOL0     H84583   0.705   5.631   0.717 -0.1894  0.5110 -0.2636
  627MOL0     H84584   0.825   5.412   0.833  1.5268 -0.1991  1.2914
  627MOL0     H84585   0.798   5.498   0.974 -1.0257  4.5951 -0.6863
  627MOL0     H84586   0.557   5.499   0.921 -1.9610 -0.0759 -3.5588
  627MOL0     H84587   0.576   5.397   0.781 -0.1173 -0.7562 -0.0495
  627MOL0     H84588   0.715   5.242   0.959 -1.7439 -3.3294  0.8861
  627MOL0     H84589   0.606   5.340   1.065 -0.6099 -0.6164  0.3820
  627MOL0     H84590   0.513   5.149   0.851 -2.9660  0.6625 -0.8806
  627MOL0     H84591   0.514   5.115   1.024  0.7660  1.5765  2.0507
  627MOL0     H84592   0.340   5.300   1.046 -2.7978 -1.9287 -0.6027
  627MOL0     H84593   0.370   5.342   0.879  3.8742  1.4694  1.5619
  627MOL0     H84594   0.248   5.079   0.979 -2.2890  0.6145  1.0762
  627MOL0     H84595   0.255   5.146   0.802  0.1475 -0.8142  0.6813
  627MOL0     H84596   0.119   5.282   1.163  1.1314 -0.9884  0.1102
  627MOL0     H84597  -0.226   5.427   1.091  1.0574 -1.1432  0.9950
  627MOL0     H84598  -0.115   5.412   1.220 -2.6598  0.0858  0.5353
  627MOL0     H84599  -0.182   5.644   1.202  0.2649  0.9676  0.0249
  627MOL0     H84600  -0.102   5.658   1.043  2.7186  1.1515  0.8401
  627MOL0     H84601   0.063   5.742   1.164 -0.9547  0.4591 -1.8731
  627MOL0     H84602   0.102   5.571   1.159  0.9221  1.2295 -1.3342
  627MOL0     H84603  -0.073   5.644   1.393 -0.0566  0.4488 -0.4112
  627MOL0     H84604   0.099   5.691   1.403  1.3276 -4.8018  4.7871
  627MOL0     H84605   0.249   5.329   1.446  2.0895 -0.1712  2.1089
  627MOL0     H84606   0.341   5.160   1.541  1.3882  1.0055  0.6438
  627MOL0     H84607   0.418   5.270   1.654 -0.8884  1.5403  2.3597
  627MOL0     H84608   0.332   5.134   1.714 -1.0430  0.5197  0.1643
  627MOL0     H84609  -0.088   5.380   2.181  0.7392 -1.5232 -3.4526
  627MOL0     H84610  -0.069   5.339   2.434  1.2680  1.1126  0.1517
  627MOL0     H84611   0.076   5.459   2.598 -0.5123 -0.9988 -1.3827
  627MOL0     H84612  -0.021   5.328   2.666 -0.7762 -0.9351 -4.6192
  627MOL0     H84613   0.103   5.465   2.836 -1.1198  0.5067 -2.1742
  627MOL0     H84614   0.141   5.289   2.855 -1.5644  3.1647  2.8278
  627MOL0     H84615   0.340   5.354   2.680  2.9167 -2.3462  1.8512
  627MOL0     H84616   0.341   5.323   2.852 -2.7735  2.1232  3.1617
  627MOL0     H84617   0.337   5.559   2.908 -0.3433 -0.4187  0.2673
  627MOL0     H84618   0.462   5.520   2.786 -0.4968 -1.7135 -1.1922
  627MOL0     H84619   0.365   5.720   2.717  1.9527 -1.4376 -3.2729
  627MOL0     H84620   0.203   5.647   2.699  0.7294  4.0797 -1.4759
  627MOL0     H84621   0.456   5.629   2.533  0.2270 -0.4469  1.0044
  627MOL0     H84622   0.325   5.521   2.503  4.2955 -0.5429 -2.7535
  627MOL0     H84623   0.263   5.824   2.477 -1.0775 -0.0332 -1.1434
  627MOL0     H84624   0.175   5.675   2.441  0.6572 -1.5969  2.5686
  627MOL0     H84625   0.305   5.623   2.252  0.7292  0.1681  0.2165
  627MOL0     H84626   0.450   5.711   2.308  0.5017  3.3879  0.5967
  627MOL0     H84627   0.305   5.188   2.399 -0.6020  2.7731  1.5442
  627MOL0     H84628   0.317   5.266   2.157 -0.1715  1.7389 -0.1905
  627MOL0     H84629  -0.051   5.441   1.823 -2.7193  0.3522 -2.8839
  627MOL0     H84630  -0.074   5.556   1.618  0.2891  0.7650  0.8310
  627MOL0     H84631   1.107   5.830   0.766  0.4930 -0.5134 -0.9599
  627MOL0     H84632   1.353   5.859   0.731  4.3707 -1.9844 -0.3721
  627MOL0     H84633   1.732   5.590   0.573  3.0078 -4.0104 -1.1731
  627MOL0     H84634   1.956   5.585   0.518 -3.3289  0.7911 -2.4442
  627MOL0     H84635   2.263   5.646   0.492 -0.5085  0.1185 -1.4743
  627MOL0     H84636   2.117   5.733   0.490 -0.0387 -1.5553 -0.3704
  627MOL0     H84637   2.369   5.859   0.625  0.1611 -0.3162 -0.2252
  627MOL0     H84638   2.223   5.944   0.591  0.1231 -0.9513  3.8310
  627MOL0     H84639   2.271   5.870   0.342  1.4888 -3.8616 -1.9716
  627MOL0     H84640   2.427   5.818   0.387 -0.2295  0.1829 -0.0884
  627MOL0     H84641   2.476   6.041   0.502 -3.7363  0.8090  4.4973
  627MOL0     H84642   2.319   6.090   0.474  1.0806 -0.9067  1.7597
  627MOL0     H84643   2.427   6.144   0.081 -0.8469 -2.7834 -0.7042
  627MOL0     H84644   2.049   5.759   0.909  2.4889 -0.5146 -1.5319
  627MOL0     H84645   1.806   5.756   0.962 -1.5209  1.2191 -2.0614
  628MOL0     O84646   8.907   2.282   3.275  0.6387  0.1592  0.0742
  628MOL0     C84647   8.858   2.388   3.244  0.1638  0.1414  0.2666
  628MOL0     O84648   8.756   2.459   3.301  0.4846  0.4308  0.1288
  628MOL0     C84649   8.669   2.414   3.399  0.7736  0.6941 -0.1376
  628MOL0     C84650   8.658   2.282   3.450  1.7397  0.2072 -0.2612
  628MOL0     C84651   8.558   2.256   3.551  0.8431 -0.6285 -0.3214
  628MOL0     C84652   8.478   2.365   3.605 -0.7025 -1.3226  0.2294
  628MOL0     O84653   8.380   2.349   3.708 -0.2172  0.0713  0.2165
  628MOL0     C84654   8.359   2.212   3.758 -0.3673  1.3467 -0.6379
  628MOL0     C84655   8.293   2.225   3.896 -0.0469 -0.7050  0.1451
  628MOL0     C84656   8.312   2.094   3.970  0.1118 -0.9146  0.1018
  628MOL0     C84657   8.290   2.122   4.124 -0.3180  0.2752 -0.1736
  628MOL0     C84658   8.224   2.007   4.183  0.3609 -0.1417 -0.8019
  628MOL0     C84659   8.218   2.030   4.342 -0.3319 -0.1972 -0.7955
  628MOL0     C84660   8.162   1.911   4.419  0.5912  0.0927  0.6856
  628MOL0     C84661   8.011   1.887   4.394  0.3129  0.7258  0.4150
  628MOL0     N84662   7.930   1.833   4.505  0.3299  0.7861  0.1145
  628MOL0     C84663   7.843   1.906   4.581 -0.0957 -0.0266 -0.7865
  628MOL0     C84664   7.807   1.828   4.684 -0.4617 -0.2120  0.5302
  628MOL0     C84665   7.715   1.864   4.797  0.3068  0.2577 -0.4407
  628MOL0     C84666   7.567   1.848   4.757 -0.2293 -0.5217 -0.0655
  628MOL0     C84667   7.524   1.706   4.751  0.3092 -0.1024 -0.0114
  628MOL0     C84668   7.378   1.700   4.714 -0.8494  0.7068  0.1213
  628MOL0     O84669   7.349   1.562   4.741  0.4009  0.4983 -0.9175
  628MOL0     C84670   7.282   1.478   4.651 -0.1321  0.5853 -1.1991
  628MOL0     C84671   7.217   1.519   4.532 -0.1092  0.0119 -0.4863
  628MOL0     C84672   7.150   1.424   4.453 -0.2837  0.4893  0.1000
  628MOL0     C84673   7.091   1.461   4.320 -0.5767 -0.1259 -0.3057
  628MOL0     C84674   7.157   1.286   4.491  0.1559  1.4614 -0.1094
  628MOL0     C84675   7.095   1.173   4.417 -0.6851 -0.5641  0.3558
  628MOL0     O84676   7.138   1.047   4.458 -0.3707  0.2919 -0.3757
  628MOL0     C84677   7.103   0.937   4.385 -0.5285  0.0953  0.5687
  628MOL0     C84678   7.072   0.816   4.460 -0.4674 -0.4985 -0.1852
  628MOL0     C84679   7.018   0.704   4.400  0.8606  0.3141  0.3389
  628MOL0     C84680   6.993   0.708   4.260  0.0597  1.4130  0.1214
  628MOL0     O84681   6.942   0.596   4.194 -0.6635  0.3008 -0.5489
  628MOL0     C84682   6.900   0.472   4.263  0.0948 -0.5013  0.7123
  628MOL0     C84683   6.843   0.376   4.162  0.1960  0.5409 -0.2083
  628MOL0     C84684   6.807   0.244   4.232  0.8011  0.3607  0.7684
  628MOL0     C84685   6.719   0.148   4.149  0.2288 -0.1001 -0.2713
  628MOL0     C84686   6.692   0.021   4.227 -0.2858 -1.0225 -0.1437
  628MOL0     C84687   6.564  -0.039   4.182  0.6968 -0.6277  0.3989
  628MOL0     C84688   6.430   0.048   4.205 -1.0449  0.2017  0.2387
  628MOL0     C84689   6.317  -0.029   4.142  0.6285 -0.3615 -0.3576
  628MOL0    Cl84690   6.312   0.032   3.975  0.8930  0.0020 -0.3989
  628MOL0     C84691   7.033   0.821   4.184 -0.3487  0.2927 -0.4413
  628MOL0     C84692   7.086   0.933   4.241 -0.1488  0.0348  0.6088
  628MOL0     O84693   7.007   1.194   4.332 -0.4887  0.2596  0.5109
  628MOL0     C84694   7.233   1.260   4.604  0.1830  0.7188 -0.1030
  628MOL0     C84695   7.286   1.351   4.692  0.7341 -0.1913  0.9596
  628MOL0     N84696   7.868   1.699   4.665 -0.7676 -0.2049  0.3542
  628MOL0     N84697   7.942   1.712   4.562 -1.2413 -0.4275 -0.2026
  628MOL0     C84698   8.482   2.487   3.543 -0.7030 -0.2518  0.4243
  628MOL0     C84699   8.585   2.511   3.449 -0.3384  0.4535 -0.8040
  628MOL0     C84700   8.918   2.454   3.132 -1.0239  0.2948 -0.1535
  628MOL0     C84701   9.054   2.413   3.091  0.2175  0.6086 -0.3209
  628MOL0     C84702   9.123   2.466   2.973  0.1404  0.0052 -0.4020
  628MOL0     C84703   9.054   2.577   2.904 -0.3518 -0.1135  0.4186
  628MOL0     O84704   9.100   2.629   2.790  0.0152  0.1140  0.1984
  628MOL0     C84705   9.239   2.648   2.771 -0.3433  0.0220  1.4479
  628MOL0     C84706   9.326   2.535   2.711 -0.2578  0.9900 -0.0966
  628MOL0     C84707   9.272   2.476   2.570  0.0600 -0.5115 -0.3276
  628MOL0     C84708   9.375   2.383   2.502  0.3249  0.2624  0.6725
  628MOL0     C84709   9.474   2.463   2.436 -0.4396 -0.9265  0.0251
  628MOL0     C84710   9.545   2.550   2.382 -0.0307 -0.1588 -1.5543
  628MOL0     C84711   8.933   2.617   2.949  0.2786  0.2549 -0.6028
  628MOL0     C84712   8.859   2.565   3.061 -1.0324  0.3675  0.1148
  628MOL0     H84713   8.727   2.207   3.412  2.4837 -0.8974  2.9552
  628MOL0     H84714   8.542   2.152   3.580 -3.9245  0.2341  1.0132
  628MOL0     H84715   8.312   2.132   3.701  2.2281 -3.4616  3.1575
  628MOL0     H84716   8.460   2.175   3.777 -1.5852 -1.4141  1.1098
  628MOL0     H84717   8.350   2.304   3.946  0.4986 -2.0932  1.7992
  628MOL0     H84718   8.186   2.245   3.886  0.1795  0.2244 -0.5316
  628MOL0     H84719   8.239   2.018   3.940  1.4588 -2.9771  1.7424
  628MOL0     H84720   8.407   2.043   3.954 -0.9181 -2.9747  0.1674
  628MOL0     H84721   8.388   2.139   4.169 -2.0303 -0.1449  4.2107
  628MOL0     H84722   8.230   2.211   4.143 -0.7444  0.0639 -0.5061
  628MOL0     H84723   8.122   1.998   4.145 -0.3096  3.0734 -0.0303
  628MOL0     H84724   8.284   1.920   4.155  1.1503  0.7548 -1.9667
  628MOL0     H84725   8.311   2.064   4.388 -0.2106  0.1975 -1.3294
  628MOL0     H84726   8.159   2.118   4.368  1.7530  1.4435 -1.3433
  628MOL0     H84727   8.216   1.820   4.389 -0.0363  0.3368 -1.3796
  628MOL0     H84728   8.187   1.926   4.524  3.8809  0.0640  0.0326
  628MOL0     H84729   7.997   1.823   4.306 -3.0767  2.1811 -0.2839
  628MOL0     H84730   7.956   1.976   4.362 -2.3094 -1.7922 -2.8740
  628MOL0     H84731   7.818   2.010   4.568 -0.3618  0.2134  1.2606
  628MOL0     H84732   7.738   1.793   4.877  0.8230 -1.2771 -1.8973
  628MOL0     H84733   7.719   1.970   4.822  2.8847  0.7418 -2.4734
  628MOL0     H84734   7.551   1.902   4.663  2.9001 -0.4363 -0.6790
  628MOL0     H84735   7.514   1.892   4.841 -2.6083  0.3293 -1.8920
  628MOL0     H84736   7.534   1.662   4.850  1.0540 -4.7329 -1.8791
  628MOL0     H84737   7.579   1.649   4.676 -0.3492  0.0359 -0.6060
  628MOL0     H84738   7.365   1.717   4.607  1.7616 -2.4243 -0.8441
  628MOL0     H84739   7.326   1.772   4.779  0.7619  1.4542  0.6366
  628MOL0     H84740   7.199   1.624   4.509  1.7046  0.3427 -0.5705
  628MOL0     H84741   7.120   1.382   4.250  2.3068  1.3829 -0.9640
  628MOL0     H84742   6.983   1.474   4.321 -0.7828 -1.4292 -1.7579
  628MOL0     H84743   7.142   1.549   4.279  0.2528  1.2487  3.3206
  628MOL0     H84744   7.077   0.810   4.568  0.7743  5.3535  0.4352
  628MOL0     H84745   7.012   0.614   4.461  2.1266  0.1814  0.3003
  628MOL0     H84746   6.983   0.425   4.317  0.4346  1.5833  2.1392
  628MOL0     H84747   6.828   0.501   4.341 -0.6712 -1.2529  0.2923
  628MOL0     H84748   6.745   0.410   4.126 -1.8117 -0.5224  3.6931
  628MOL0     H84749   6.909   0.347   4.080 -1.1146 -1.6428 -0.5572
  628MOL0     H84750   6.748   0.268   4.321 -2.8987  1.1004 -1.6727
  628MOL0     H84751   6.901   0.192   4.256 -0.2670 -0.9033  2.4600
  628MOL0     H84752   6.628   0.201   4.121 -0.5664 -0.7593  0.9393
  628MOL0     H84753   6.765   0.109   4.058 -2.5431  0.5894 -2.0666
  628MOL0     H84754   6.686   0.050   4.332 -0.1388 -2.2271  0.2180
  628MOL0     H84755   6.770  -0.056   4.227  0.4781 -0.2780  0.9854
  628MOL0     H84756   6.559  -0.089   4.085  0.6747 -3.6602  1.8324
  628MOL0     H84757   6.558  -0.123   4.252  2.0274 -0.7679  0.3630
  628MOL0     H84758   6.436   0.151   4.169  0.1642 -0.5878 -2.0318
  628MOL0     H84759   6.419   0.057   4.314 -1.0019  1.6478  0.1376
  628MOL0     H84760   6.216  -0.014   4.180 -1.3530 -1.9172 -4.4470
  628MOL0     H84761   6.323  -0.138   4.138 -2.1169 -0.5812 -0.4285
  628MOL0     H84762   7.013   0.820   4.078  2.7233  1.7921 -1.1610
  628MOL0     H84763   7.107   1.016   4.173  0.6758 -1.8685 -1.6157
  628MOL0     H84764   7.245   1.161   4.645 -3.9517  0.1051  0.1131
  628MOL0     H84765   7.342   1.322   4.780 -1.3296 -0.2472  2.3233
  628MOL0     H84766   8.421   2.568   3.582 -0.0143  0.5615 -0.1619
  628MOL0     H84767   8.593   2.616   3.423  1.1900  0.2870 -1.0569
  628MOL0     H84768   9.111   2.340   3.148  1.3124  2.0323  0.4842
  628MOL0     H84769   9.222   2.428   2.949 -1.4490 -2.8015 -3.1922
  628MOL0     H84770   9.248   2.735   2.705  0.9090 -1.9869 -1.2140
  628MOL0     H84771   9.297   2.677   2.859 -1.2302  3.2011  1.1084
  628MOL0     H84772   9.335   2.457   2.787 -0.2505  0.1544 -0.9283
  628MOL0     H84773   9.428   2.568   2.691  0.8258 -1.4928  0.8780
  628MOL0     H84774   9.244   2.559   2.504  0.4112 -0.8997 -0.9758
  628MOL0     H84775   9.175   2.435   2.603  1.4168 -0.9202  3.7107
  628MOL0     H84776   9.330   2.321   2.424  2.3942  0.2938 -0.6098
  628MOL0     H84777   9.421   2.308   2.567  3.9850 -0.4763 -2.4257
  628MOL0     H84778   9.594   2.625   2.323  0.8270  1.3940  0.9608
  628MOL0     H84779   8.882   2.694   2.891  0.1122 -0.0090 -0.8094
  628MOL0     H84780   8.763   2.612   3.080 -1.2506 -0.1590  0.3504
  629MOL0     O84781   3.153   7.664   7.694  0.4458  0.1011  0.4184
  629MOL0     C84782   3.258   7.714   7.737  0.7407  0.4352 -0.5275
  629MOL0     O84783   3.264   7.811   7.835  0.6270 -0.5519 -0.6355
  629MOL0     C84784   3.142   7.866   7.882 -1.0665  0.4083 -0.7199
  629MOL0     C84785   3.075   7.813   7.989 -0.0923  0.7905  0.1160
  629MOL0     C84786   2.971   7.872   8.061 -0.0682  0.4387  0.2029
  629MOL0     C84787   2.931   8.007   8.027 -0.2183 -0.3039  0.3787
  629MOL0     O84788   2.821   8.054   8.096  0.1989 -0.5896 -0.1265
  629MOL0     C84789   2.738   8.152   8.033  0.1481 -0.1870  0.6092
  629MOL0     C84790   2.598   8.142   8.089 -0.2555 -0.3213  0.2224
  629MOL0     C84791   2.515   8.274   8.100  0.0506  0.3947  0.1963
  629MOL0     C84792   2.375   8.268   8.172  0.5452 -0.4192  0.1634
  629MOL0     C84793   2.323   8.408   8.194  0.1206 -0.2497  1.4652
  629MOL0     C84794   2.304   8.496   8.060  0.1024 -1.0433  0.4762
  629MOL0     C84795   2.217   8.627   8.072  0.6471  0.0841 -0.5641
  629MOL0     C84796   2.225   8.700   7.933  0.0306  0.0691  0.0121
  629MOL0     N84797   2.108   8.787   7.917  0.2777  0.4011 -0.3327
  629MOL0     C84798   1.978   8.759   7.877 -0.0399 -0.0609 -0.0528
  629MOL0     C84799   1.928   8.877   7.839  0.3744  0.8498  0.8417
  629MOL0     C84800   1.787   8.911   7.793 -0.2836  0.2947  0.1631
  629MOL0     C84801   1.688   8.923   7.900 -0.5655 -0.2458  0.3102
  629MOL0     C84802   1.554   8.976   7.867 -0.5145 -0.4585  0.3939
  629MOL0     C84803   1.474   8.981   7.989  0.8615  0.0107 -0.0441
  629MOL0     O84804   1.334   8.966   7.947  0.4279 -0.5809 -0.0473
  629MOL0     C84805   1.239   8.997   8.038 -0.0448  0.5975  0.1847
  629MOL0     C84806   1.269   9.041   8.166 -0.3049  0.7832 -0.4101
  629MOL0     C84807   1.173   9.045   8.269  0.5243  0.0060 -0.0303
  629MOL0     C84808   1.233   9.074   8.406  0.7692 -1.1300 -0.3291
  629MOL0     C84809   1.033   9.027   8.235  0.3424 -0.0740  0.1571
  629MOL0     C84810   0.921   9.045   8.332 -0.2451  0.1817  0.7423
  629MOL0     O84811   0.799   8.995   8.292 -0.1196  0.1130 -0.1891
  629MOL0     C84812   0.704   8.989   8.389 -0.2817 -0.1042  0.4003
  629MOL0     C84813   0.579   9.027   8.367 -0.1028 -0.0006  0.0895
  629MOL0     C84814   0.469   9.010   8.453  0.0760  0.3703 -0.3116
  629MOL0     C84815   0.492   8.942   8.571 -0.0715  0.3147 -0.7840
  629MOL0     O84816   0.382   8.943   8.655 -0.3763  0.0478 -0.4940
  629MOL0     C84817   0.375   8.864   8.772  0.0228 -0.4833 -0.1422
  629MOL0     C84818   0.429   8.924   8.908 -0.0191  0.1048 -0.2710
  629MOL0     C84819   0.398   8.826   9.026 -0.9784  1.3906 -0.2532
  629MOL0     C84820   0.514   8.724   9.056  0.7593  0.5687 -0.0883
  629MOL0     C84821   0.472   8.634   9.178 -0.2132 -0.5287  0.2180
  629MOL0     C84822   0.382   8.516   9.131  0.4678  0.0431  1.0236
  629MOL0     C84823   0.325   8.446   9.248  0.8408  0.4362 -0.9549
  629MOL0     C84824   0.405   8.319   9.291  0.3850 -0.7248  0.4148
  629MOL0    Cl84825   0.399   8.194   9.168  0.0820 -0.2757  0.2843
  629MOL0     C84826   0.619   8.890   8.604 -0.7114  0.2107  0.0112
  629MOL0     C84827   0.726   8.916   8.508 -0.5153  0.1389  0.9840
  629MOL0     O84828   0.948   9.094   8.448  0.2626  0.4475  0.4771
  629MOL0     C84829   0.999   8.990   8.098 -0.6354 -0.8770 -0.4947
  629MOL0     C84830   1.105   8.972   8.002 -0.4197  1.0935 -0.8239
  629MOL0     N84831   2.025   8.972   7.851  1.2028 -0.1627  0.6143
  629MOL0     N84832   2.132   8.915   7.895 -0.6562 -0.5954  0.1604
  629MOL0     C84833   2.999   8.067   7.920 -0.4048  0.0910 -0.4410
  629MOL0     C84834   3.102   7.997   7.843  0.8285  0.2644  0.9224
  629MOL0     C84835   3.380   7.701   7.657 -0.9137 -0.3418  0.6274
  629MOL0     C84836   3.374   7.646   7.531  0.4738 -0.3054 -0.5768
  629MOL0     C84837   3.482   7.647   7.445 -0.1819  0.6929 -0.3562
  629MOL0     C84838   3.606   7.714   7.476  0.5500 -0.9838  0.6262
  629MOL0     O84839   3.714   7.704   7.393  0.4452 -0.0284  0.7661
  629MOL0     C84840   3.839   7.725   7.461 -0.1174  0.1852  0.2394
  629MOL0     C84841   3.952   7.675   7.372  0.5274 -0.6455  0.5770
  629MOL0     C84842   4.081   7.673   7.465 -0.0862 -0.3511 -0.3909
  629MOL0     C84843   4.196   7.612   7.387  0.2473  0.7780  0.4145
  629MOL0     C84844   4.173   7.470   7.358 -0.3394  0.5850  0.1908
  629MOL0     C84845   4.158   7.351   7.326  0.4353 -0.7918  0.3160
  629MOL0     C84846   3.615   7.761   7.610  0.1902 -0.7684 -0.3382
  629MOL0     C84847   3.500   7.760   7.703 -0.0690 -0.0588  1.0036
  629MOL0     H84848   3.114   7.716   8.021  1.3558  1.7285  1.3364
  629MOL0     H84849   2.922   7.808   8.134 -3.2656  0.4866 -1.6942
  629MOL0     H84850   2.777   8.253   8.047 -1.7581  0.2318  3.9713
  629MOL0     H84851   2.729   8.132   7.926 -1.2245  1.3016  0.4007
  629MOL0     H84852   2.536   8.070   8.036 -0.2110 -0.1327 -0.0890
  629MOL0     H84853   2.610   8.102   8.190 -1.8594 -0.6645  0.2970
  629MOL0     H84854   2.583   8.338   8.157  1.9843 -0.9516 -0.5181
  629MOL0     H84855   2.505   8.312   7.998  0.7333  1.3646  0.4764
  629MOL0     H84856   2.294   8.217   8.118 -0.1323 -0.9256  1.5968
  629MOL0     H84857   2.386   8.216   8.268  1.8909 -1.1791 -0.3767
  629MOL0     H84858   2.225   8.410   8.241 -0.6949 -0.3645 -0.1365
  629MOL0     H84859   2.409   8.453   8.245  1.7883 -0.6530 -0.8146
  629MOL0     H84860   2.405   8.517   8.023  0.1284 -2.8178 -0.5480
  629MOL0     H84861   2.241   8.434   7.996 -2.5075  0.3795  1.4992
  629MOL0     H84862   2.112   8.603   8.092  0.1328  3.6133  2.0259
  629MOL0     H84863   2.262   8.692   8.148  0.6527 -0.6412  0.0636
  629MOL0     H84864   2.229   8.620   7.858 -2.5251  0.0130 -0.1593
  629MOL0     H84865   2.311   8.767   7.925 -0.0693  0.0287 -2.0639
  629MOL0     H84866   1.941   8.658   7.889 -0.2080  0.2091  2.0478
  629MOL0     H84867   1.804   9.003   7.737 -1.7394 -1.1707 -2.9113
  629MOL0     H84868   1.748   8.849   7.712 -3.2423  1.4914  0.5510
  629MOL0     H84869   1.728   9.002   7.966  2.8856  0.0310 -1.8639
  629MOL0     H84870   1.687   8.830   7.957 -1.2309 -0.7810 -0.5601
  629MOL0     H84871   1.520   8.910   7.787  0.7699 -0.1947 -0.3910
  629MOL0     H84872   1.571   9.076   7.826 -1.1325  0.3117  1.9127
  629MOL0     H84873   1.504   9.075   8.038  1.7541  0.2106 -0.9379
  629MOL0     H84874   1.484   8.907   8.069  0.8880  1.1814  1.0859
  629MOL0     H84875   1.371   9.061   8.196 -0.4045  3.2709 -1.5059
  629MOL0     H84876   1.175   9.035   8.489 -0.7460  1.1638 -0.2206
  629MOL0     H84877   1.333   9.029   8.409  1.2356 -0.1307 -0.5193
  629MOL0     H84878   1.249   9.181   8.418  1.7684 -1.1166 -1.5957
  629MOL0     H84879   0.568   9.080   8.273 -0.6168  2.3311  1.3978
  629MOL0     H84880   0.366   9.033   8.428 -0.5744  0.6836  2.3563
  629MOL0     H84881   0.267   8.854   8.788 -0.2815  0.4921 -1.5046
  629MOL0     H84882   0.414   8.762   8.760  0.2690 -0.4669  0.4729
  629MOL0     H84883   0.539   8.930   8.904 -0.0036  0.8606  0.9443
  629MOL0     H84884   0.386   9.024   8.914 -0.4424 -0.0778 -0.2617
  629MOL0     H84885   0.300   8.778   9.018 -2.2494  4.0145 -1.3911
  629MOL0     H84886   0.401   8.886   9.117  0.1382  3.5005 -1.5922
  629MOL0     H84887   0.530   8.676   8.959  2.3613  1.0087 -0.0675
  629MOL0     H84888   0.598   8.789   9.084  0.0776  2.1177 -1.5182
  629MOL0     H84889   0.437   8.694   9.263  1.0944  0.5547  0.0144
  629MOL0     H84890   0.561   8.586   9.218  0.9633 -0.9529 -2.7039
  629MOL0     H84891   0.301   8.538   9.060  0.5598 -0.9524  0.5904
  629MOL0     H84892   0.454   8.459   9.072 -0.0841  0.1967  0.1822
  629MOL0     H84893   0.225   8.407   9.230  0.7303  0.0954  0.2865
  629MOL0     H84894   0.309   8.512   9.334  0.0324  1.1705 -1.6430
  629MOL0     H84895   0.363   8.272   9.380  1.1675 -2.0625  0.1042
  629MOL0     H84896   0.507   8.349   9.317  0.6937 -2.9086  2.0370
  629MOL0     H84897   0.655   8.839   8.693 -0.6546 -3.3136 -1.8424
  629MOL0     H84898   0.824   8.877   8.532 -0.4398  0.2782  0.8970
  629MOL0     H84899   0.894   8.985   8.071 -0.8605  1.1872 -0.1532
  629MOL0     H84900   1.078   8.944   7.901 -1.8171  2.1980 -0.7836
  629MOL0     H84901   2.966   8.168   7.902  0.0868  0.4009  0.3423
  629MOL0     H84902   3.141   8.054   7.759 -3.3463  0.0246 -1.4496
  629MOL0     H84903   3.284   7.602   7.490 -2.1911  2.9076  1.4031
  629MOL0     H84904   3.471   7.592   7.353 -6.7098 -1.2780  1.1093
  629MOL0     H84905   3.857   7.831   7.483  1.0692  0.0860 -0.1479
  629MOL0     H84906   3.843   7.664   7.552 -0.0377 -2.7786 -1.6003
  629MOL0     H84907   3.965   7.748   7.292  1.2717  2.0030  2.9362
  629MOL0     H84908   3.921   7.577   7.336 -1.0277  0.3045 -0.8276
  629MOL0     H84909   4.054   7.612   7.552 -1.2592 -0.8790 -1.0865
  629MOL0     H84910   4.117   7.768   7.505 -1.3062 -0.3645  0.8065
  629MOL0     H84911   4.290   7.607   7.444  2.3242 -2.4362 -2.8755
  629MOL0     H84912   4.197   7.666   7.292  1.7383 -2.1002 -1.3364
  629MOL0     H84913   4.151   7.246   7.306 -1.6397 -0.2736 -2.1917
  629MOL0     H84914   3.702   7.814   7.647  0.6310 -1.8100  0.1701
  629MOL0     H84915   3.504   7.800   7.803 -0.4844  0.1523  0.9378
  630MOL0     O84916  10.615   7.271   4.912 -0.1601  0.3330 -0.1259
  630MOL0     C84917  10.691   7.208   4.838  0.0318  0.1319 -0.1751
  630MOL0     O84918  10.660   7.101   4.772 -0.6318  0.4802  0.1908
  630MOL0     C84919  10.542   7.023   4.781  0.1688  0.6711  0.2228
  630MOL0     C84920  10.545   6.898   4.720 -0.4155  0.0334 -0.2276
  630MOL0     C84921  10.430   6.817   4.695 -0.5514  0.2686 -0.3737
  630MOL0     C84922  10.311   6.868   4.739  0.1837  0.0046 -0.0989
  630MOL0     O84923  10.208   6.783   4.722 -0.0707  0.4837  0.1036
  630MOL0     C84924  10.083   6.797   4.792  0.5157 -1.1936 -0.3982
  630MOL0     C84925  10.033   6.656   4.813  0.7618  0.0916 -0.8123
  630MOL0     C84926  10.132   6.570   4.905 -0.3187  0.0433 -1.3090
  630MOL0     C84927  10.149   6.606   5.055 -0.1748 -0.2099  0.7896
  630MOL0     C84928  10.013   6.621   5.121 -0.0164 -0.0616  0.6677
  630MOL0     C84929   9.912   6.504   5.113  0.2080  0.5012  0.3092
  630MOL0     C84930   9.815   6.486   5.236 -1.7766  0.0821 -0.5698
  630MOL0     C84931   9.693   6.410   5.219  1.0502  0.7686 -0.2762
  630MOL0     N84932   9.611   6.418   5.342  0.0287  0.0200  0.0777
  630MOL0     C84933   9.481   6.428   5.348 -0.1287 -0.4309  0.2509
  630MOL0     C84934   9.446   6.451   5.481  0.8047 -0.0270  1.0680
  630MOL0     C84935   9.304   6.428   5.536 -0.5150  0.5477  0.0601
  630MOL0     C84936   9.269   6.475   5.680 -1.2542  0.0078  0.4050
  630MOL0     C84937   9.139   6.426   5.732 -0.0928 -0.1531  0.3076
  630MOL0     C84938   8.997   6.467   5.681 -0.5877  0.0295 -0.2298
  630MOL0     O84939   9.006   6.448   5.533 -0.1991 -0.4531 -0.6168
  630MOL0     C84940   8.880   6.463   5.468 -0.6278 -0.8549  0.2725
  630MOL0     C84941   8.879   6.436   5.335 -0.4473 -0.1956 -0.5690
  630MOL0     C84942   8.768   6.430   5.259 -0.8073 -0.0512  0.1563
  630MOL0     C84943   8.776   6.383   5.106  0.7927 -0.0100 -0.8886
  630MOL0     C84944   8.650   6.472   5.322 -0.4979 -0.1664  0.0092
  630MOL0     C84945   8.528   6.485   5.242 -0.0847 -0.3812  0.5218
  630MOL0     O84946   8.489   6.380   5.165 -0.5001  0.5183 -0.4373
  630MOL0     C84947   8.362   6.370   5.120  0.5251 -0.6363 -0.0169
  630MOL0     C84948   8.269   6.267   5.153 -0.0072 -0.5836 -0.5776
  630MOL0     C84949   8.141   6.262   5.094 -0.0040 -0.4493 -0.9519
  630MOL0     C84950   8.100   6.361   4.999 -0.5068  0.4058  0.3608
  630MOL0     O84951   7.975   6.368   4.948 -0.1170 -0.8887 -0.1047
  630MOL0     C84952   7.890   6.256   4.944  0.5104  0.5905 -0.3800
  630MOL0     C84953   7.923   6.155   4.828  0.0633 -0.0306 -0.0924
  630MOL0     C84954   7.816   6.049   4.830  0.1684  0.1349  0.0425
  630MOL0     C84955   7.829   5.957   4.704  0.8330 -0.1496 -0.1210
  630MOL0     C84956   7.733   6.011   4.597  0.7960  0.0758 -0.0870
  630MOL0     C84957   7.709   5.907   4.478 -0.4031  0.4078 -0.6603
  630MOL0     C84958   7.616   5.966   4.376 -0.3610  0.6048  0.8556
  630MOL0     C84959   7.531   5.869   4.292 -1.0193  0.3933 -0.8434
  630MOL0    Cl84960   7.641   5.736   4.226  0.5067  0.3492 -0.1117
  630MOL0     C84961   8.192   6.461   4.964 -0.6714  1.0739 -0.2861
  630MOL0     C84962   8.319   6.471   5.035  0.1343  1.2672 -1.4845
  630MOL0     O84963   8.464   6.592   5.246 -0.3444  0.0213  0.1552
  630MOL0     C84964   8.653   6.509   5.460 -0.1917  0.1879 -0.2127
  630MOL0     C84965   8.764   6.514   5.527  0.4473  1.3513  0.2667
  630MOL0     N84966   9.567   6.476   5.551 -0.2350  0.7016  0.4540
  630MOL0     N84967   9.661   6.444   5.467 -0.3805  0.2997 -0.0348
  630MOL0     C84968  10.300   6.994   4.797 -0.0833  0.1475 -0.0447
  630MOL0     C84969  10.415   7.069   4.818 -0.4738  0.0453  0.6176
  630MOL0     C84970  10.832   7.239   4.844  0.0665 -0.2220 -0.3933
  630MOL0     C84971  10.928   7.174   4.764  0.2033 -0.2868 -0.7569
  630MOL0     C84972  11.064   7.209   4.752  0.5722 -0.0678 -0.9737
  630MOL0     C84973  11.112   7.323   4.818 -0.2950 -0.3903  0.8279
  630MOL0     O84974  11.234   7.371   4.779  0.6103 -0.0141  0.1308
  630MOL0     C84975  11.318   7.431   4.882  0.0490 -0.3760  0.6437
  630MOL0     C84976  11.398   7.318   4.955  0.2197  0.4741  0.4360
  630MOL0     C84977  11.519   7.367   5.025  0.4440 -0.3907 -0.9460
  630MOL0     C84978  11.497   7.497   5.100 -0.4668  0.3681  0.1358
  630MOL0     C84979  11.564   7.485   5.227  0.2526  1.0251  0.0145
  630MOL0     C84980  11.612   7.494   5.346  0.2167 -0.0003 -0.0523
  630MOL0     C84981  11.015   7.395   4.894  0.9929 -0.0845 -0.0826
  630MOL0     C84982  10.883   7.348   4.918 -0.1004 -0.2741  0.0582
  630MOL0     H84983  10.640   6.865   4.679  1.1473  0.5939  2.6914
  630MOL0     H84984  10.436   6.727   4.635  4.6371  0.5043 -0.5988
  630MOL0     H84985  10.098   6.844   4.889 -1.9807 -1.4476  0.1941
  630MOL0     H84986  10.017   6.852   4.724 -1.3641 -1.2991  1.2440
  630MOL0     H84987   9.936   6.667   4.861  1.3795 -0.5903  0.6708
  630MOL0     H84988  10.017   6.601   4.720  2.2400 -0.4285 -0.7945
  630MOL0     H84989  10.088   6.470   4.907 -0.2392  0.0172  0.5113
  630MOL0     H84990  10.231   6.558   4.860  0.3703  0.3798  0.0728
  630MOL0     H84991  10.189   6.511   5.093  0.7858 -1.2051 -2.4249
  630MOL0     H84992  10.208   6.696   5.073 -1.1148 -0.1505  4.4656
  630MOL0     H84993  10.036   6.644   5.225  3.0107 -0.2049  0.1288
  630MOL0     H84994   9.957   6.709   5.087 -1.6328 -1.6194 -0.9156
  630MOL0     H84995   9.848   6.535   5.030 -2.9986 -2.1168  1.5932
  630MOL0     H84996   9.942   6.406   5.073 -3.1793 -0.4889 -0.1590
  630MOL0     H84997   9.855   6.428   5.320 -1.0802  2.1943  0.6630
  630MOL0     H84998   9.782   6.588   5.259  1.5474  0.5594  3.2890
  630MOL0     H84999   9.738   6.311   5.200 -0.8860  0.1387 -1.9494
  630MOL0     H85000   9.627   6.434   5.136 -0.2898 -0.6789  0.3079
  630MOL0     H85001   9.416   6.400   5.266 -0.1554  0.1785  0.0549
  630MOL0     H85002   9.241   6.470   5.457  0.1539 -0.5858 -1.1135
  630MOL0     H85003   9.296   6.319   5.531 -0.1330  0.4857  0.7017
  630MOL0     H85004   9.273   6.584   5.684 -0.6441  0.0612 -1.0548
  630MOL0     H85005   9.356   6.441   5.738 -0.3875  1.1536 -0.1849
  630MOL0     H85006   9.146   6.438   5.840  0.3594 -0.3532  0.3017
  630MOL0     H85007   9.143   6.319   5.711 -2.0394 -0.8431  2.9081
  630MOL0     H85008   8.977   6.570   5.712 -2.5634 -0.3240 -0.1853
  630MOL0     H85009   8.926   6.401   5.730 -0.0930 -2.3199 -2.4644
  630MOL0     H85010   8.976   6.428   5.287  0.0707 -0.2170  0.4575
  630MOL0     H85011   8.708   6.449   5.052 -0.1789 -0.4029 -0.1858
  630MOL0     H85012   8.879   6.403   5.074  2.1732  2.0445  3.9750
  630MOL0     H85013   8.755   6.277   5.085 -0.4444 -0.2042  1.0465
  630MOL0     H85014   8.303   6.192   5.224 -0.1760  0.0328  0.1706
  630MOL0     H85015   8.077   6.183   5.131 -1.6599  2.0015  1.8008
  630MOL0     H85016   7.881   6.196   5.035  4.8521 -0.2179 -0.2779
  630MOL0     H85017   7.795   6.309   4.931  1.0752  3.1113  3.9013
  630MOL0     H85018   7.922   6.207   4.732 -2.4856 -1.1137 -0.7289
  630MOL0     H85019   8.028   6.125   4.838  0.8537  2.6141  0.3857
  630MOL0     H85020   7.713   6.085   4.836  0.1438 -0.2016  2.6188
  630MOL0     H85021   7.829   5.984   4.917  3.2601  0.5001 -0.0233
  630MOL0     H85022   7.930   5.942   4.664  1.4805 -0.7087  1.5964
  630MOL0     H85023   7.793   5.856   4.726 -0.3176  0.2028 -0.3109
  630MOL0     H85024   7.785   6.104   4.572  0.2402  0.9674  1.8609
  630MOL0     H85025   7.633   6.034   4.635  0.6533  1.4902 -1.2238
  630MOL0     H85026   7.804   5.874   4.435 -0.4537 -1.4427  0.5402
  630MOL0     H85027   7.666   5.816   4.520  0.2583  1.6487  3.1487
  630MOL0     H85028   7.690   6.020   4.315  0.3333  0.1574  1.2923
  630MOL0     H85029   7.541   6.031   4.423 -0.4225  0.3800  1.0704
  630MOL0     H85030   7.470   5.922   4.218 -2.3202 -0.5207 -0.4501
  630MOL0     H85031   7.456   5.816   4.351  0.2049  2.2597  2.6611
  630MOL0     H85032   8.165   6.548   4.905 -0.6336 -0.7219 -3.1231
  630MOL0     H85033   8.373   6.557   4.998  1.0844  1.0718 -0.6325
  630MOL0     H85034   8.564   6.538   5.515 -2.0824 -0.8396 -2.5496
  630MOL0     H85035   8.747   6.524   5.634 -2.8900 -3.1644  0.4766
  630MOL0     H85036  10.200   7.025   4.823 -0.2914  0.2217 -0.9084
  630MOL0     H85037  10.415   7.164   4.872  0.9513 -0.6105  1.8292
  630MOL0     H85038  10.890   7.103   4.691 -0.6777  0.0788 -0.6673
  630MOL0     H85039  11.124   7.165   4.674  3.8195 -2.9210  2.7271
  630MOL0     H85040  11.394   7.489   4.829 -0.3544 -1.2674 -0.9444
  630MOL0     H85041  11.252   7.498   4.939 -0.8744 -1.1746  0.5321
  630MOL0     H85042  11.424   7.246   4.877 -1.0154  1.2946 -0.7953
  630MOL0     H85043  11.332   7.273   5.030 -0.9399  0.6087 -0.4576
  630MOL0     H85044  11.607   7.365   4.960  0.8491  0.6712 -0.4502
  630MOL0     H85045  11.534   7.288   5.100  0.9222 -2.1949 -2.8527
  630MOL0     H85046  11.393   7.522   5.124 -0.5921  3.1490 -2.6077
  630MOL0     H85047  11.543   7.574   5.038 -0.7776 -0.0630 -0.6407
  630MOL0     H85048  11.654   7.502   5.444 -0.9229 -1.0433  0.5514
  630MOL0     H85049  11.037   7.490   4.943  0.5577 -1.0489  2.0838
  630MOL0     H85050  10.818   7.417   4.971  1.4612  4.0204 -2.9847
  631MOL0     O85051   8.163   5.094   2.579  0.3709  0.4715  0.2368
  631MOL0     C85052   8.281   5.071   2.574  0.5924 -0.7151 -0.2008
  631MOL0     O85053   8.359   5.077   2.460 -0.3631 -0.2354 -0.7573
  631MOL0     C85054   8.289   5.103   2.336  1.0647  0.7344  0.1792
  631MOL0     C85055   8.198   5.210   2.319  0.8454 -0.0681  0.6786
  631MOL0     C85056   8.154   5.239   2.183 -0.0783  0.2492  0.0610
  631MOL0     C85057   8.220   5.176   2.069 -0.6227  0.6168 -0.5720
  631MOL0     O85058   8.214   5.236   1.943 -0.3175 -0.5277  0.8347
  631MOL0     C85059   8.319   5.340   1.910  0.1600 -0.2911  0.0127
  631MOL0     C85060   8.275   5.449   1.806  0.3395  0.2896 -0.0925
  631MOL0     C85061   8.282   5.400   1.655 -0.8630  0.3671  0.3252
  631MOL0     C85062   8.163   5.452   1.569  0.7571  0.3741  0.5586
  631MOL0     C85063   8.179   5.416   1.420  0.2868  0.7185  1.0535
  631MOL0     C85064   8.094   5.507   1.323  0.3760  0.1895 -0.1913
  631MOL0     C85065   8.111   5.470   1.174 -0.3679 -0.3879  0.6210
  631MOL0     C85066   8.078   5.323   1.135 -0.3739 -0.5479 -0.6003
  631MOL0     N85067   7.944   5.292   1.180 -0.2006  0.3463 -0.1845
  631MOL0     C85068   7.823   5.307   1.115  0.6280 -0.1839  0.9394
  631MOL0     C85069   7.735   5.230   1.180  0.1714  0.3610  0.0232
  631MOL0     C85070   7.584   5.211   1.135  0.4348 -0.3001  0.1216
  631MOL0     C85071   7.577   5.150   0.997  0.3572 -0.3486  0.1399
  631MOL0     C85072   7.435   5.133   0.943  0.0974 -0.1671  0.0002
  631MOL0     C85073   7.360   5.037   1.036  0.5553  1.0545  0.7533
  631MOL0     O85074   7.246   4.980   0.980  0.4126 -0.4794  0.1560
  631MOL0     C85075   7.251   4.912   0.859  0.2398  0.4279 -0.5754
  631MOL0     C85076   7.351   4.814   0.825  0.7580 -0.5143 -0.6972
  631MOL0     C85077   7.358   4.762   0.695 -1.8514  0.8296 -0.3181
  631MOL0     C85078   7.472   4.660   0.654 -0.3738 -0.5784  0.1007
  631MOL0     C85079   7.258   4.804   0.604  0.1486  0.1748  0.3211
  631MOL0     C85080   7.244   4.757   0.457  0.7161 -0.3235  0.4750
  631MOL0     O85081   7.112   4.749   0.408  0.2333  0.1290  0.5852
  631MOL0     C85082   7.077   4.717   0.278 -0.2765 -0.6401  0.4724
  631MOL0     C85083   7.138   4.613   0.202  0.4290 -0.4052 -0.1415
  631MOL0     C85084   7.091   4.583   0.074 -0.6393  0.0738  0.1427
  631MOL0     C85085   7.000   4.668  -0.001  1.1704  1.0295  0.2833
  631MOL0     O85086   6.951   4.635  -0.125  0.2213 -0.7239  0.8429
  631MOL0     C85087   7.047   4.584  -0.221 -0.1406  0.6438 -0.3317
  631MOL0     C85088   7.103   4.711  -0.297  0.8041  0.1411 -0.1782
  631MOL0     C85089   7.217   4.774  -0.226  1.1147  0.3044  0.7434
  631MOL0     C85090   7.342   4.683  -0.195  0.0142 -0.2069  0.1494
  631MOL0     C85091   7.468   4.769  -0.186  0.4359 -0.3132  0.7042
  631MOL0     C85092   7.606   4.691  -0.181 -0.2795 -0.8064 -0.6084
  631MOL0     C85093   7.637   4.649  -0.034  0.1472  0.2261 -0.2578
  631MOL0     C85094   7.778   4.633   0.002 -0.0667  0.9891 -0.4334
  631MOL0    Cl85095   7.861   4.525  -0.107  0.3262  0.2228  0.5909
  631MOL0     C85096   6.942   4.775   0.079 -0.0439  0.1660 -0.5128
  631MOL0     C85097   6.983   4.799   0.216  0.2864 -0.2365 -0.7396
  631MOL0     O85098   7.345   4.740   0.385 -0.5105 -0.0255 -0.3194
  631MOL0     C85099   7.150   4.892   0.643  0.1630  0.2426 -0.0615
  631MOL0     C85100   7.146   4.943   0.772  0.0806  0.6044  0.7535
  631MOL0     N85101   7.807   5.182   1.296  0.4863 -0.8327  0.5587
  631MOL0     N85102   7.924   5.223   1.301 -0.9375  0.3133  0.5734
  631MOL0     C85103   8.301   5.069   2.093 -0.2037 -0.0980  0.4500
  631MOL0     C85104   8.341   5.040   2.225  0.0350  0.0742 -0.8158
  631MOL0     C85105   8.347   5.029   2.696 -0.0683 -0.7953 -1.1137
  631MOL0     C85106   8.278   5.012   2.819  0.2330  0.5797  0.2939
  631MOL0     C85107   8.338   4.996   2.939 -0.0519  0.5440  0.9448
  631MOL0     C85108   8.477   4.991   2.951  0.0328 -0.2463  1.1203
  631MOL0     O85109   8.524   4.969   3.078 -0.0332 -0.4746 -0.6033
  631MOL0     C85110   8.660   4.951   3.087  0.5849  0.2607  0.6195
  631MOL0     C85111   8.683   4.947   3.239  0.1261 -0.6314 -0.6270
  631MOL0     C85112   8.628   4.820   3.307  0.6519 -0.3007  0.7626
  631MOL0     C85113   8.570   4.858   3.454  1.0955  0.6355  0.5939
  631MOL0     C85114   8.546   4.734   3.534 -0.0821 -1.2200 -0.1791
  631MOL0     C85115   8.520   4.645   3.604  0.3922 -0.4135 -0.7517
  631MOL0     C85116   8.546   4.991   2.826  0.8391 -1.5594  0.5501
  631MOL0     C85117   8.488   5.014   2.703 -0.5081 -0.4048  0.4356
  631MOL0     H85118   8.170   5.287   2.389  0.5920  0.6301 -0.1690
  631MOL0     H85119   8.084   5.318   2.158 -1.7399 -1.6512 -1.6153
  631MOL0     H85120   8.335   5.401   1.999  3.3844  2.2568 -2.0539
  631MOL0     H85121   8.412   5.287   1.885  0.5103 -0.4398  1.5264
  631MOL0     H85122   8.173   5.476   1.835 -1.2764 -3.4871 -1.5063
  631MOL0     H85123   8.337   5.538   1.807  1.4249 -0.4293 -0.8205
  631MOL0     H85124   8.374   5.438   1.608 -0.4547 -0.8758  0.0794
  631MOL0     H85125   8.282   5.291   1.651  1.0108  0.3642 -0.4513
  631MOL0     H85126   8.078   5.390   1.597  2.1169 -2.3425 -0.9296
  631MOL0     H85127   8.138   5.557   1.589  1.8877  1.1610 -1.7911
  631MOL0     H85128   8.286   5.424   1.396  1.6643 -0.6386  5.6417
  631MOL0     H85129   8.149   5.311   1.410  1.6828  0.2519  1.5514
  631MOL0     H85130   7.991   5.492   1.356  0.9980  0.4922  2.0468
  631MOL0     H85131   8.122   5.610   1.346  1.1449 -0.5238  2.4710
  631MOL0     H85132   8.039   5.537   1.125 -0.5764 -0.0947  1.3014
  631MOL0     H85133   8.216   5.498   1.157 -0.1795 -0.8978  0.9236
  631MOL0     H85134   8.141   5.254   1.192  0.0551  0.4298  0.1404
  631MOL0     H85135   8.093   5.303   1.028 -1.1177  1.3503 -1.1066
  631MOL0     H85136   7.794   5.349   1.019 -2.3216  2.1987  2.6690
  631MOL0     H85137   7.544   5.152   1.218 -0.4461 -1.2030 -0.9172
  631MOL0     H85138   7.541   5.311   1.142  0.6630 -0.3129  2.5179
  631MOL0     H85139   7.642   5.062   0.995 -0.2482 -0.7948 -0.4196
  631MOL0     H85140   7.611   5.228   0.928 -0.5654 -0.6005 -0.6273
  631MOL0     H85141   7.456   5.092   0.844 -0.6119  0.8392 -0.5760
  631MOL0     H85142   7.368   5.219   0.932  1.7609  1.1822 -0.0422
  631MOL0     H85143   7.333   5.076   1.135  2.3545 -0.3945  1.9051
  631MOL0     H85144   7.418   4.945   1.053  0.4621  0.6036 -1.1236
  631MOL0     H85145   7.429   4.788   0.896  0.6540  0.6435 -0.1375
  631MOL0     H85146   7.502   4.609   0.746 -0.5989 -2.0880 -0.6349
  631MOL0     H85147   7.430   4.587   0.585 -2.8409  1.2098 -0.4564
  631MOL0     H85148   7.563   4.698   0.607 -1.4343  0.0417 -1.5540
  631MOL0     H85149   7.196   4.531   0.241  1.3390 -0.3224 -1.2736
  631MOL0     H85150   7.127   4.493   0.024 -1.8030 -0.8349  0.8818
  631MOL0     H85151   7.125   4.521  -0.176  1.1133  1.3265 -1.4796
  631MOL0     H85152   6.989   4.538  -0.301 -0.3568  4.4600 -2.6445
  631MOL0     H85153   7.131   4.678  -0.398 -0.5190  1.7956 -1.1596
  631MOL0     H85154   7.019   4.780  -0.310 -1.5057 -2.4109  0.1812
  631MOL0     H85155   7.182   4.822  -0.134 -0.7835  0.0546  0.2098
  631MOL0     H85156   7.247   4.861  -0.285 -1.2596  0.5060 -0.2998
  631MOL0     H85157   7.325   4.636  -0.098  1.5992  1.8114  1.4905
  631MOL0     H85158   7.353   4.616  -0.281  0.4226 -2.6373  1.9990
  631MOL0     H85159   7.461   4.819  -0.089  0.1186 -0.8205  0.9457
  631MOL0     H85160   7.462   4.852  -0.257  1.2434  0.6487  1.7247
  631MOL0     H85161   7.601   4.600  -0.241 -1.4599 -3.7539  3.5511
  631MOL0     H85162   7.686   4.758  -0.216 -2.3369  1.1328 -1.8851
  631MOL0     H85163   7.587   4.554  -0.013 -0.1605  0.2600 -0.8259
  631MOL0     H85164   7.595   4.727   0.030 -0.9851 -1.5969  1.3543
  631MOL0     H85165   7.787   4.600   0.106 -1.9251 -1.8276 -1.0658
  631MOL0     H85166   7.828   4.729  -0.013 -1.8224  2.0687  0.2726
  631MOL0     H85167   6.855   4.825   0.038 -1.0961 -1.2135 -0.0449
  631MOL0     H85168   6.931   4.874   0.274 -0.4924  1.1278 -3.1011
  631MOL0     H85169   7.067   4.911   0.576  0.1916 -1.2012 -0.5275
  631MOL0     H85170   7.053   4.997   0.788 -1.5235 -0.6491 -3.0981
  631MOL0     H85171   8.342   5.031   2.000  1.5744  0.0867  1.1241
  631MOL0     H85172   8.418   4.970   2.257  0.6337  2.2328  3.0028
  631MOL0     H85173   8.172   5.032   2.808 -0.3458 -2.6935 -1.0864
  631MOL0     H85174   8.279   5.000   3.030 -0.4271  0.9625  0.6849
  631MOL0     H85175   8.690   4.864   3.028 -1.8132 -1.6535  2.0370
  631MOL0     H85176   8.701   5.041   3.041  2.4840 -0.7138  0.3017
  631MOL0     H85177   8.647   5.038   3.288 -1.6270 -2.6605  2.0790
  631MOL0     H85178   8.792   4.947   3.251 -0.1403 -0.6128  2.6695
  631MOL0     H85179   8.716   4.756   3.309  1.4646  0.8013  1.5773
  631MOL0     H85180   8.563   4.764   3.240 -0.2336  0.1358  1.2392
  631MOL0     H85181   8.474   4.907   3.436  1.5150  1.5027  0.6824
  631MOL0     H85182   8.631   4.918   3.521  1.9998 -1.8178  2.0641
  631MOL0     H85183   8.527   4.561   3.670 -1.0395  1.8019  2.4846
  631MOL0     H85184   8.654   4.980   2.824  0.9740 -0.8307  2.0826
  631MOL0     H85185   8.547   5.022   2.613 -0.5882  1.4981  0.4965
  632MOL0     O85186   1.481  11.296   5.038  0.4199  0.4330  0.2880
  632MOL0     C85187   1.455  11.358   4.934  0.7199 -0.0292  0.7340
  632MOL0     O85188   1.391  11.475   4.930  0.4718 -0.0828  0.4327
  632MOL0     C85189   1.342  11.525   5.049 -0.9593  0.1801 -1.0764
  632MOL0     C85190   1.237  11.466   5.115  0.9736  0.4704  0.4549
  632MOL0     C85191   1.178  11.521   5.223 -0.8350 -0.4835  0.2076
  632MOL0     C85192   1.220  11.645   5.274  0.4642 -0.2711  1.5146
  632MOL0     O85193   1.149  11.693   5.381  0.1293 -0.5193 -0.6195
  632MOL0     C85194   1.050  11.799   5.361 -0.2560  0.0647  0.8395
  632MOL0     C85195   0.918  11.739   5.341 -0.6017 -0.1101 -0.5307
  632MOL0     C85196   0.847  11.708   5.473 -0.4624  0.3786  1.0342
  632MOL0     C85197   0.700  11.663   5.448  0.4152  1.5833  0.2534
  632MOL0     C85198   0.631  11.627   5.582  0.4112 -0.0817 -0.8607
  632MOL0     C85199   0.534  11.498   5.588  1.1812 -0.0190  1.0406
  632MOL0     C85200   0.454  11.509   5.458  0.1635  0.1213 -0.1254
  632MOL0     C85201   0.331  11.423   5.457  0.7198 -0.2070  0.3840
  632MOL0     N85202   0.353  11.283   5.498 -0.3748  0.1404 -0.9956
  632MOL0     C85203   0.288  11.223   5.604  0.1689 -0.2103 -0.1852
  632MOL0     C85204   0.345  11.103   5.619  0.7925  0.8287 -0.2028
  632MOL0     C85205   0.320  11.008   5.732  0.4318 -0.2175 -0.5138
  632MOL0     C85206   0.174  11.007   5.774  0.2313 -0.0325 -0.0261
  632MOL0     C85207   0.078  10.942   5.674 -0.3373 -0.6026 -0.1122
  632MOL0     C85208  -0.031  10.861   5.739 -0.0092  0.0400 -0.3778
  632MOL0     O85209  -0.101  10.956   5.815  0.0846 -0.4369 -0.6813
  632MOL0     C85210  -0.204  10.902   5.886  0.8958 -0.3521 -0.1901
  632MOL0     C85211  -0.338  10.926   5.845 -0.8316 -0.3411 -0.6089
  632MOL0     C85212  -0.443  10.895   5.921 -0.0780 -0.0916 -0.3829
  632MOL0     C85213  -0.585  10.923   5.868 -0.0513  0.4203  0.3648
  632MOL0     C85214  -0.421  10.839   6.048 -0.3261  0.1953 -0.7578
  632MOL0     C85215  -0.523  10.811   6.155 -0.1630 -0.4397  0.2605
  632MOL0     O85216  -0.639  10.767   6.107 -0.1895 -0.0430  0.2069
  632MOL0     C85217  -0.759  10.800   6.165 -0.5197 -0.2157  0.1032
  632MOL0     C85218  -0.876  10.766   6.086  0.6817  0.2802 -0.5801
  632MOL0     C85219  -0.999  10.789   6.138  1.1466  0.4373 -1.0168
  632MOL0     C85220  -1.014  10.852   6.268 -0.3299  0.0065 -0.5858
  632MOL0     O85221  -1.139  10.865   6.337 -0.0462 -1.0848  0.0312
  632MOL0     C85222  -1.268  10.816   6.290  0.0181 -0.2790  0.5179
  632MOL0     C85223  -1.367  10.795   6.391 -0.3771 -0.0417 -0.5372
  632MOL0     C85224  -1.503  10.744   6.330 -0.1414  0.2178  0.4434
  632MOL0     C85225  -1.516  10.587   6.344 -0.4451 -0.2800 -0.4870
  632MOL0     C85226  -1.635  10.572   6.439  0.3838  0.0166 -0.0992
  632MOL0     C85227  -1.776  10.577   6.383  0.1359  0.7406 -0.3100
  632MOL0     C85228  -1.794  10.479   6.261  0.0158 -0.3940 -0.1104
  632MOL0     C85229  -1.935  10.461   6.218  0.3835 -0.0570 -0.1383
  632MOL0    Cl85230  -1.967  10.610   6.138  0.2709  0.1852 -0.4084
  632MOL0     C85231  -0.893  10.879   6.335 -0.4222 -0.4944  0.4761
  632MOL0     C85232  -0.772  10.866   6.285 -0.4536  1.4021  0.0918
  632MOL0     O85233  -0.493  10.823   6.277  0.2392  0.6216  0.3580
  632MOL0     C85234  -0.293  10.809   6.087 -0.9138  0.2246 -0.5093
  632MOL0     C85235  -0.182  10.828   6.003 -1.0206 -0.4729  0.3685
  632MOL0     N85236   0.450  11.093   5.525 -0.3853  0.2194  0.2258
  632MOL0     N85237   0.453  11.200   5.458 -0.1722 -1.0487 -0.3632
  632MOL0     C85238   1.329  11.703   5.206  0.1308  0.3763  0.4470
  632MOL0     C85239   1.392  11.646   5.098  0.2243  0.1693 -0.2922
  632MOL0     C85240   1.516  11.312   4.808  0.3039  1.5912  0.2387
  632MOL0     C85241   1.568  11.181   4.790 -0.3576 -0.4172 -0.6925
  632MOL0     C85242   1.632  11.139   4.675  0.3055  0.3878 -0.0460
  632MOL0     C85243   1.619  11.215   4.562 -0.1592 -0.7089  0.1751
  632MOL0     O85244   1.670  11.169   4.443 -0.5075 -0.0940 -0.2326
  632MOL0     C85245   1.692  11.252   4.330 -0.2914 -0.0562  0.3941
  632MOL0     C85246   1.807  11.352   4.343 -0.2319  0.9047 -0.8298
  632MOL0     C85247   1.825  11.439   4.218  0.6508  0.6500  0.3651
  632MOL0     C85248   1.898  11.572   4.237  1.0101  0.8596  0.7639
  632MOL0     C85249   1.918  11.644   4.108  0.5313 -0.3832  0.1873
  632MOL0     C85250   1.948  11.704   4.001 -0.4973 -0.1588  0.3336
  632MOL0     C85251   1.547  11.338   4.576 -0.0446 -0.9417 -0.3711
  632MOL0     C85252   1.503  11.392   4.700 -0.3478  0.3300  1.1539
  632MOL0     H85253   1.191  11.384   5.062 -2.2702  2.5218 -0.1495
  632MOL0     H85254   1.102  11.469   5.281 -1.7927 -1.7780 -2.0601
  632MOL0     H85255   1.044  11.880   5.434  1.6943 -1.0766  2.3703
  632MOL0     H85256   1.076  11.839   5.263 -1.0385 -0.9242  0.2010
  632MOL0     H85257   0.862  11.820   5.295  0.5103  0.2838 -1.2224
  632MOL0     H85258   0.930  11.659   5.268 -3.7279 -1.7579  0.5746
  632MOL0     H85259   0.898  11.621   5.516  1.3883 -0.1106 -1.8817
  632MOL0     H85260   0.847  11.785   5.551  1.9528  2.8632 -1.1838
  632MOL0     H85261   0.654  11.738   5.383  2.0378  1.1788 -1.4412
  632MOL0     H85262   0.694  11.570   5.391 -1.2700  0.7270  1.7315
  632MOL0     H85263   0.707  11.613   5.659 -0.1461 -2.1963 -0.6196
  632MOL0     H85264   0.584  11.718   5.621  3.5316  0.3562  2.3820
  632MOL0     H85265   0.580  11.399   5.574 -0.2731 -0.5245 -0.5293
  632MOL0     H85266   0.479  11.500   5.682  3.6078 -4.4767  2.8697
  632MOL0     H85267   0.415  11.610   5.438  2.9158  1.5519  1.1740
  632MOL0     H85268   0.510  11.479   5.369 -1.2077  1.2291 -1.4236
  632MOL0     H85269   0.296  11.424   5.353  1.0390  0.1423  0.2805
  632MOL0     H85270   0.252  11.465   5.520  0.1343  0.6123 -0.8688
  632MOL0     H85271   0.226  11.266   5.682 -0.0901 -1.6471  0.4354
  632MOL0     H85272   0.348  10.905   5.710 -1.4142 -0.5131 -1.6505
  632MOL0     H85273   0.376  11.037   5.822 -0.1432  0.9491 -0.5116
  632MOL0     H85274   0.138  11.107   5.797 -1.3488 -0.8958  1.5108
  632MOL0     H85275   0.175  10.950   5.867 -0.2440  1.0773  0.6752
  632MOL0     H85276   0.133  10.868   5.616 -1.3356 -1.4079 -0.0492
  632MOL0     H85277   0.032  11.021   5.614 -0.4665 -0.8993 -0.4057
  632MOL0     H85278  -0.014  10.773   5.801 -4.2558 -1.0065 -0.3932
  632MOL0     H85279  -0.099  10.823   5.662  0.5105 -3.2778  0.6391
  632MOL0     H85280  -0.348  10.973   5.748  2.7090  0.7226 -0.6343
  632MOL0     H85281  -0.600  11.023   5.826  1.4867  0.9783  1.0793
  632MOL0     H85282  -0.614  10.861   5.782  0.5460 -0.0824  0.5170
  632MOL0     H85283  -0.666  10.920   5.941  0.1088 -1.3670  0.5107
  632MOL0     H85284  -0.866  10.696   6.003 -0.8447  0.6886 -1.1401
  632MOL0     H85285  -1.096  10.759   6.098  1.1409 -1.8791  0.5753
  632MOL0     H85286  -1.323  10.886   6.227 -2.5455 -1.3945  1.3541
  632MOL0     H85287  -1.254  10.722   6.237 -1.7492  0.2965 -1.0630
  632MOL0     H85288  -1.321  10.731   6.467  1.1459  0.6194 -0.8591
  632MOL0     H85289  -1.372  10.886   6.451  1.4107 -1.3746  1.8043
  632MOL0     H85290  -1.519  10.768   6.225 -2.7594 -0.8266  0.4988
  632MOL0     H85291  -1.574  10.800   6.391 -2.0744 -0.7467 -0.8171
  632MOL0     H85292  -1.544  10.539   6.249  1.5052 -2.2941 -0.1440
  632MOL0     H85293  -1.421  10.545   6.379  1.2166  1.5171 -2.5395
  632MOL0     H85294  -1.637  10.634   6.529 -0.2605 -3.9215  2.8679
  632MOL0     H85295  -1.605  10.472   6.472  1.0429 -0.1846 -1.2177
  632MOL0     H85296  -1.851  10.548   6.458  0.5048  0.6738  0.0386
  632MOL0     H85297  -1.805  10.680   6.364  1.0525  0.7749 -1.6097
  632MOL0     H85298  -1.742  10.384   6.280 -0.2872 -0.3031  1.2823
  632MOL0     H85299  -1.737  10.523   6.179 -1.4453 -0.5005 -1.2240
  632MOL0     H85300  -1.997  10.423   6.300  1.8579 -1.1051  0.5225
  632MOL0     H85301  -1.937  10.387   6.136 -1.5487  0.1815 -0.3728
  632MOL0     H85302  -0.923  10.933   6.425 -0.5718 -0.0795  0.1789
  632MOL0     H85303  -0.697  10.907   6.352 -1.2370 -0.5836  2.3213
  632MOL0     H85304  -0.272  10.773   6.187 -0.4607  0.9290 -0.3419
  632MOL0     H85305  -0.077  10.823   6.032 -0.9286 -0.9732 -0.0426
  632MOL0     H85306   1.388  11.789   5.238  1.3545 -0.8869  1.7360
  632MOL0     H85307   1.474  11.700   5.052  2.5734 -0.7515  2.4936
  632MOL0     H85308   1.561  11.099   4.861  3.5778 -1.8291 -1.7369
  632MOL0     H85309   1.683  11.043   4.671  3.6419  1.7864  3.2563
  632MOL0     H85310   1.708  11.192   4.239  0.6861 -0.2746  0.6909
  632MOL0     H85311   1.604  11.313   4.309  1.8868  3.4555  0.6115
  632MOL0     H85312   1.906  11.310   4.365 -0.4109  0.4423 -0.8864
  632MOL0     H85313   1.787  11.421   4.425 -3.9555 -3.4543  2.4528
  632MOL0     H85314   1.729  11.458   4.171  1.2147 -0.0388 -1.1161
  632MOL0     H85315   1.885  11.379   4.148  1.8128  3.3563 -1.0835
  632MOL0     H85316   2.001  11.556   4.271  0.8741  0.5859  1.0488
  632MOL0     H85317   1.843  11.641   4.301  1.1792 -0.5294  2.4642
  632MOL0     H85318   1.981  11.769   3.922  1.2225 -2.4006 -0.9200
  632MOL0     H85319   1.535  11.395   4.485 -0.5944 -1.8524 -0.8822
  632MOL0     H85320   1.461  11.492   4.691 -0.9561 -0.1250 -3.7760
  633MOL0     O85321   9.651   4.523   4.038 -0.3237 -0.3599  0.7267
  633MOL0     C85322   9.664   4.605   3.953  0.3806 -0.0591  1.2415
  633MOL0     O85323   9.585   4.712   3.929  0.3995 -0.0843  0.0652
  633MOL0     C85324   9.458   4.718   3.998  0.3779  0.8200  0.8867
  633MOL0     C85325   9.370   4.611   3.997 -0.2632 -0.0135  0.5051
  633MOL0     C85326   9.252   4.614   4.058  0.6638  0.4977 -0.1869
  633MOL0     C85327   9.206   4.731   4.121 -0.5212  0.4364  0.3987
  633MOL0     O85328   9.079   4.730   4.181 -0.9291 -0.2452  0.1579
  633MOL0     C85329   9.040   4.842   4.264 -0.1030 -0.3997 -1.0222
  633MOL0     C85330   8.928   4.793   4.357  0.4070  0.0436  0.8032
  633MOL0     C85331   8.868   4.905   4.439  0.5267  0.1862  0.4941
  633MOL0     C85332   8.762   4.980   4.347  0.6471 -0.2596  0.5539
  633MOL0     C85333   8.696   5.100   4.427  0.5259 -0.1500  0.2175
  633MOL0     C85334   8.637   5.208   4.321 -1.3200 -0.1880 -0.2239
  633MOL0     C85335   8.567   5.343   4.372 -0.1120  0.5954  0.4907
  633MOL0     C85336   8.672   5.450   4.398 -0.8656 -0.9640 -0.3564
  633MOL0     N85337   8.787   5.415   4.485  1.2109  0.6514 -0.1844
  633MOL0     C85338   8.918   5.390   4.444  0.2905  0.3415  0.2657
  633MOL0     C85339   8.975   5.358   4.563  0.0035 -0.8526 -0.4615
  633MOL0     C85340   9.113   5.308   4.579 -0.1883  0.1294  0.4554
  633MOL0     C85341   9.119   5.166   4.637 -0.0086  0.7236  1.5344
  633MOL0     C85342   9.237   5.079   4.564  0.4226 -0.5967  0.3880
  633MOL0     C85343   9.374   5.130   4.582  0.3727 -0.2775  0.3987
  633MOL0     O85344   9.406   5.243   4.498  0.0582 -0.5487  0.0010
  633MOL0     C85345   9.458   5.231   4.367 -0.3793  0.1612 -0.1095
  633MOL0     C85346   9.584   5.169   4.358 -0.0246  0.1029 -0.0101
  633MOL0     C85347   9.646   5.156   4.231  0.4394  0.2978  0.2523
  633MOL0     C85348   9.785   5.102   4.221 -0.9634 -0.8364 -0.0092
  633MOL0     C85349   9.587   5.208   4.113 -1.5309 -0.6308 -0.5135
  633MOL0     C85350   9.648   5.192   3.992 -0.5590 -0.0752  0.5226
  633MOL0     O85351   9.668   5.062   3.949 -0.4785  0.0347 -0.3691
  633MOL0     C85352   9.727   5.035   3.821  0.2152 -0.7512  0.6648
  633MOL0     C85353   9.676   5.085   3.707  0.4270  0.2812  0.2534
  633MOL0     C85354   9.725   5.062   3.580 -0.6525 -0.1640  0.1672
  633MOL0     C85355   9.834   4.972   3.570  0.3201  0.3537 -0.5045
  633MOL0     O85356   9.887   4.938   3.455 -0.2052  0.4125  0.1496
  633MOL0     C85357   9.956   5.058   3.403 -0.0073 -0.1058 -0.1844
  633MOL0     C85358  10.073   5.026   3.311  0.7937 -1.3852  0.1001
  633MOL0     C85359  10.172   4.940   3.387 -0.1063  0.0912 -0.1072
  633MOL0     C85360  10.306   4.924   3.309  0.3376  0.3716 -0.7671
  633MOL0     C85361  10.406   4.825   3.367  0.0958  0.5310  0.1220
  633MOL0     C85362  10.543   4.836   3.298 -0.2466 -0.1809 -0.0500
  633MOL0     C85363  10.663   4.741   3.343  0.3722 -0.5576 -0.0554
  633MOL0     C85364  10.787   4.807   3.400  0.6235 -0.3884  0.0180
  633MOL0    Cl85365  10.762   4.841   3.577 -0.0284 -0.4092  0.0698
  633MOL0     C85366   9.891   4.920   3.693 -0.4096 -0.0969 -0.7521
  633MOL0     C85367   9.838   4.952   3.814  0.1982 -0.4793  0.7510
  633MOL0     O85368   9.668   5.293   3.918  0.5510 -0.1065  0.1515
  633MOL0     C85369   9.467   5.276   4.129  0.0002 -0.4756 -0.2397
  633MOL0     C85370   9.403   5.290   4.252 -0.1968 -1.3289 -0.0713
  633MOL0     N85371   8.878   5.335   4.660  0.3473  0.2537  0.4638
  633MOL0     N85372   8.764   5.363   4.611 -0.1359 -0.4810 -0.1727
  633MOL0     C85373   9.289   4.848   4.118  1.0161  0.6359 -0.1840
  633MOL0     C85374   9.412   4.841   4.057 -1.1155  0.2414 -1.6575
  633MOL0     C85375   9.765   4.578   3.844  1.0222  0.2981  0.1049
  633MOL0     C85376   9.751   4.639   3.710  0.8016 -0.2898  0.2405
  633MOL0     C85377   9.837   4.608   3.610  0.1943 -0.6750  0.7408
  633MOL0     C85378   9.943   4.522   3.633 -0.3457  0.6725 -0.0508
  633MOL0     O85379  10.032   4.482   3.535  0.9072  0.3336  0.4189
  633MOL0     C85380   9.987   4.456   3.402 -1.0306  0.5356 -0.5907
  633MOL0     C85381  10.117   4.418   3.312 -0.3706  0.3686 -0.1243
  633MOL0     C85382  10.094   4.419   3.158  0.7290  0.2467 -1.1505
  633MOL0     C85383  10.172   4.324   3.062 -0.6063  0.0804 -0.5350
  633MOL0     C85384  10.313   4.357   3.067  0.3386 -0.2580  0.5349
  633MOL0     C85385  10.428   4.379   3.064 -0.8014  1.3443  0.3365
  633MOL0     C85386   9.959   4.457   3.757 -1.2229 -0.3929  0.4347
  633MOL0     C85387   9.869   4.478   3.860 -0.0585 -0.5274 -0.0074
  633MOL0     H85388   9.409   4.524   3.945 -0.7909  0.3433 -0.5076
  633MOL0     H85389   9.189   4.526   4.047  2.0841 -0.7836  1.3188
  633MOL0     H85390   9.118   4.875   4.333  1.3870 -3.2212 -1.1893
  633MOL0     H85391   9.012   4.933   4.212  0.3488  0.1134 -0.3798
  633MOL0     H85392   8.855   4.741   4.294  1.3557 -0.6753  0.2728
  633MOL0     H85393   8.953   4.713   4.428  1.5259 -1.6161 -1.3459
  633MOL0     H85394   8.824   4.870   4.533 -0.6404  0.7102  0.1596
  633MOL0     H85395   8.950   4.972   4.464  0.0645  0.5585  1.0452
  633MOL0     H85396   8.811   5.008   4.253  0.7891 -2.4241 -0.0631
  633MOL0     H85397   8.675   4.917   4.328 -0.7926  1.7811  0.0169
  633MOL0     H85398   8.611   5.083   4.495 -1.1208  1.6603 -1.2543
  633MOL0     H85399   8.779   5.148   4.478 -1.7997  2.0065  2.2811
  633MOL0     H85400   8.722   5.244   4.263 -0.5205  1.5657  1.8865
  633MOL0     H85401   8.576   5.161   4.243 -0.2801  0.5094 -1.4894
  633MOL0     H85402   8.499   5.370   4.291 -0.1875  2.5384  1.1580
  633MOL0     H85403   8.510   5.313   4.461 -0.0915 -1.9946 -0.2807
  633MOL0     H85404   8.623   5.532   4.452 -1.7830 -0.6721 -1.5564
  633MOL0     H85405   8.699   5.493   4.301 -2.5325 -0.6983 -0.7391
  633MOL0     H85406   8.963   5.398   4.345  0.2379  2.1291  0.3579
  633MOL0     H85407   9.153   5.319   4.478 -2.4878 -1.1167 -0.6496
  633MOL0     H85408   9.181   5.364   4.643  0.2441  0.1762 -0.0360
  633MOL0     H85409   9.020   5.120   4.636 -0.0894  0.8641  2.2687
  633MOL0     H85410   9.138   5.163   4.745  2.5120 -0.7102  1.1460
  633MOL0     H85411   9.214   5.071   4.457  2.7009 -0.1678 -0.2016
  633MOL0     H85412   9.232   4.983   4.617 -0.0052  1.2035  3.8414
  633MOL0     H85413   9.445   5.050   4.561 -1.0920 -2.1202  2.1208
  633MOL0     H85414   9.397   5.160   4.685  1.3686  1.7434 -0.3561
  633MOL0     H85415   9.647   5.139   4.441 -0.2682  0.4552  0.3056
  633MOL0     H85416   9.790   5.026   4.143  0.0710  1.4860 -2.3517
  633MOL0     H85417   9.860   5.177   4.197 -0.2909 -1.8824 -1.3111
  633MOL0     H85418   9.829   5.060   4.312  2.7347  1.0442 -0.7440
  633MOL0     H85419   9.595   5.155   3.722  0.5673  0.7098 -0.9390
  633MOL0     H85420   9.696   5.108   3.486  1.5667 -1.7866 -1.4082
  633MOL0     H85421   9.884   5.122   3.351  0.8330 -0.5773 -2.0244
  633MOL0     H85422  10.002   5.123   3.478 -2.0993  0.8032  0.4093
  633MOL0     H85423  10.044   4.971   3.221  2.4180  0.5234 -1.7042
  633MOL0     H85424  10.110   5.122   3.272 -0.3077 -1.4088 -1.0853
  633MOL0     H85425  10.128   4.841   3.399 -2.6352  1.3384  1.9213
  633MOL0     H85426  10.176   4.984   3.487 -0.8767  0.1876 -0.1126
  633MOL0     H85427  10.277   4.887   3.210 -1.8546  0.8097 -0.3488
  633MOL0     H85428  10.342   5.027   3.303 -2.4637  1.8374  3.1794
  633MOL0     H85429  10.365   4.724   3.361  3.3118 -0.8635 -0.7749
  633MOL0     H85430  10.435   4.837   3.471  0.9297 -0.9218  0.0789
  633MOL0     H85431  10.525   4.819   3.192 -0.0354 -5.7036  0.4942
  633MOL0     H85432  10.582   4.937   3.318 -2.9087  1.0594 -0.6905
  633MOL0     H85433  10.699   4.690   3.253  2.0217  0.9598 -0.3192
  633MOL0     H85434  10.623   4.682   3.426 -1.6683  1.5972  0.5965
  633MOL0     H85435  10.792   4.906   3.353 -2.6214 -0.2576 -0.2751
  633MOL0     H85436  10.878   4.748   3.385  0.7891  0.1445 -1.1501
  633MOL0     H85437   9.975   4.851   3.692  0.1911  0.5620  1.1560
  633MOL0     H85438   9.882   4.914   3.905 -2.4747 -3.1847  1.0718
  633MOL0     H85439   9.428   5.323   4.039 -1.5349  4.1585  2.5079
  633MOL0     H85440   9.308   5.339   4.273 -0.2946 -0.4326 -2.3703
  633MOL0     H85441   9.250   4.938   4.164 -0.6789  0.6108 -1.4549
  633MOL0     H85442   9.488   4.918   4.043 -0.0580 -0.4601 -0.0870
  633MOL0     H85443   9.679   4.716   3.682  2.2686  2.0045  2.3808
  633MOL0     H85444   9.817   4.651   3.512  1.8819  0.5473  0.9038
  633MOL0     H85445   9.909   4.380   3.407 -0.9735  0.5125  0.0648
  633MOL0     H85446   9.946   4.549   3.361 -2.0044  0.3808  0.0009
  633MOL0     H85447  10.149   4.320   3.351 -2.8474 -0.6145 -0.3783
  633MOL0     H85448  10.182   4.502   3.335 -1.7525  0.7323  2.8820
  633MOL0     H85449  10.120   4.522   3.131  0.8872  0.2532 -0.9765
  633MOL0     H85450   9.988   4.397   3.144  0.5515 -0.4298  0.8771
  633MOL0     H85451  10.129   4.338   2.963  1.9558  1.0695 -1.5855
  633MOL0     H85452  10.159   4.219   3.090 -2.3735  0.7818  1.5669
  633MOL0     H85453  10.532   4.400   3.049 -0.9885  1.3626 -1.1298
  633MOL0     H85454  10.032   4.380   3.776 -0.1506  0.5743  0.3342
  633MOL0     H85455   9.884   4.437   3.960 -1.1200 -0.5042  0.1682
  634MOL0     O85456   4.799   4.276  10.371  0.8840  0.1610 -0.2896
  634MOL0     C85457   4.819   4.395  10.370  0.6358 -0.6078  0.5171
  634MOL0     O85458   4.866   4.466  10.477 -0.6410 -0.5349  0.1247
  634MOL0     C85459   4.871   4.414  10.603  0.4570  0.0646  0.1140
  634MOL0     C85460   4.893   4.279  10.642 -0.1866 -0.0072 -0.7429
  634MOL0     C85461   4.897   4.246  10.784 -0.2810  0.7112  0.1577
  634MOL0     C85462   4.893   4.343  10.882 -0.3771 -0.3317 -0.0797
  634MOL0     O85463   4.881   4.316  11.016 -0.0277 -0.4547 -0.1811
  634MOL0     C85464   4.888   4.183  11.062  0.0001 -0.0334  0.8198
  634MOL0     C85465   4.838   4.185  11.206 -0.5766 -0.4215 -0.7897
  634MOL0     C85466   4.928   4.271  11.301 -0.5124 -0.2934 -0.5597
  634MOL0     C85467   4.951   4.193  11.435 -0.4572 -0.1644  0.5763
  634MOL0     C85468   5.032   4.258  11.551  0.0620 -0.6857  0.2210
  634MOL0     C85469   4.949   4.370  11.611  0.2719  0.1863  0.5653
  634MOL0     C85470   5.015   4.444  11.724  0.3983  0.4301 -0.8121
  634MOL0     C85471   4.946   4.578  11.775 -2.2630  0.5704  0.2238
  634MOL0     N85472   5.029   4.641  11.878  0.1836  0.2619  0.7626
  634MOL0     C85473   5.072   4.576  11.999 -0.6742 -1.5913 -0.1177
  634MOL0     C85474   5.108   4.675  12.078  0.0050 -0.2867 -0.5445
  634MOL0     C85475   5.182   4.662  12.214 -0.2170  0.0174 -0.0640
  634MOL0     C85476   5.079   4.626  12.318 -0.4545 -0.2952 -0.3498
  634MOL0     C85477   5.131   4.652  12.467 -0.3873  0.8083  0.3540
  634MOL0     C85478   5.056   4.572  12.572  0.3191  0.2271  0.3328
  634MOL0     O85479   5.047   4.437  12.528  0.0635  0.1642 -0.3465
  634MOL0     C85480   5.035   4.346  12.626 -0.3234 -0.5314  0.8598
  634MOL0     C85481   5.024   4.362  12.762 -0.1227 -0.0388 -1.0914
  634MOL0     C85482   5.030   4.243  12.848  0.1378 -0.2852 -1.0337
  634MOL0     C85483   4.991   4.264  13.000 -0.1820 -0.6053  0.0457
  634MOL0     C85484   5.067   4.119  12.793  1.0396  0.3553 -0.7948
  634MOL0     C85485   5.070   3.989  12.865  0.6163 -0.4433  0.4663
  634MOL0     O85486   5.051   3.878  12.791 -0.6607 -0.3054  0.4507
  634MOL0     C85487   5.039   3.751  12.833  0.6426 -0.2996 -0.3239
  634MOL0     C85488   5.130   3.653  12.790  0.5353  0.3660 -1.0796
  634MOL0     C85489   5.122   3.519  12.848  0.0155  0.1588  0.3272
  634MOL0     C85490   5.025   3.494  12.939  0.0829 -0.3387 -0.0275
  634MOL0     O85491   5.016   3.375  13.000 -0.4759 -0.9085  0.0245
  634MOL0     C85492   4.973   3.255  12.932 -0.4734 -0.3126  0.1504
  634MOL0     C85493   4.915   3.156  13.031 -0.4542  0.1061  0.4497
  634MOL0     C85494   4.831   3.045  12.951 -0.1592 -0.7833  0.0301
  634MOL0     C85495   4.911   2.953  12.855 -0.5949  0.1106 -0.3788
  634MOL0     C85496   4.891   2.806  12.867  0.3931  0.1470  0.3070
  634MOL0     C85497   4.882   2.747  12.724  0.6838 -0.6252 -0.0691
  634MOL0     C85498   4.996   2.758  12.623  1.5041  0.1596  0.3802
  634MOL0     C85499   4.976   2.671  12.497  0.8616 -0.9792  0.4526
  634MOL0    Cl85500   4.829   2.731  12.420  0.1367 -0.2622 -0.2567
  634MOL0     C85501   4.936   3.590  12.982 -0.4852 -0.3520  0.4790
  634MOL0     C85502   4.939   3.717  12.926  0.1878 -0.4507  0.3212
  634MOL0     O85503   5.110   3.988  12.978 -0.0688  0.0162 -0.6855
  634MOL0     C85504   5.081   4.109  12.654 -0.9728  0.0300 -0.1881
  634MOL0     C85505   5.068   4.217  12.574 -0.6014  1.6048 -0.3281
  634MOL0     N85506   5.057   4.788  12.018 -0.2719 -0.0226  0.6714
  634MOL0     N85507   5.019   4.772  11.897 -0.3335  0.4328  0.0978
  634MOL0     C85508   4.888   4.481  10.844 -0.2875  0.1443  0.8637
  634MOL0     C85509   4.865   4.515  10.709  0.3838  0.5922  0.4522
  634MOL0     C85510   4.795   4.463  10.240  0.0449  0.4910  0.4890
  634MOL0     C85511   4.816   4.403  10.117  0.1624 -0.2957  0.4335
  634MOL0     C85512   4.794   4.475   9.999  0.5511  0.0272 -0.6263
  634MOL0     C85513   4.738   4.606  10.007  0.5128  0.9447  0.4324
  634MOL0     O85514   4.722   4.678   9.892 -0.0122  0.0602 -0.1556
  634MOL0     C85515   4.669   4.628   9.773 -0.3824  0.0732  0.0763
  634MOL0     C85516   4.563   4.736   9.722  0.4442  0.3688  0.0698
  634MOL0     C85517   4.486   4.687   9.596 -1.2413  0.7984 -0.1090
  634MOL0     C85518   4.432   4.814   9.523  0.5638  0.7686  0.5176
  634MOL0     C85519   4.413   4.778   9.381  0.5792  1.4951 -0.1850
  634MOL0     C85520   4.389   4.741   9.272 -0.4517  0.7067  0.3501
  634MOL0     C85521   4.715   4.661  10.133  0.0621  0.0711 -0.4166
  634MOL0     C85522   4.752   4.593  10.246  0.5327 -0.0837  0.5515
  634MOL0     H85523   4.903   4.205  10.564 -2.2058  0.5420 -1.5815
  634MOL0     H85524   4.882   4.142  10.812  0.5593  0.9915  1.8328
  634MOL0     H85525   4.827   4.108  11.011  2.7922 -1.9212  0.0396
  634MOL0     H85526   4.990   4.146  11.074 -1.0024 -2.7371  1.7544
  634MOL0     H85527   4.743   4.237  11.220  0.5862  1.3831  1.0456
  634MOL0     H85528   4.835   4.083  11.245  1.4459 -0.0994  0.3875
  634MOL0     H85529   5.021   4.303  11.254 -0.5772 -1.1974 -1.3179
  634MOL0     H85530   4.871   4.364  11.310 -0.3442 -0.1371 -1.0925
  634MOL0     H85531   4.859   4.146  11.471  0.7102 -2.6913  0.4585
  634MOL0     H85532   5.017   4.116  11.396  0.1304  1.4819 -1.9324
  634MOL0     H85533   5.061   4.192  11.634  0.9281 -1.8101 -0.9373
  634MOL0     H85534   5.124   4.296  11.505  0.5000 -2.0482 -0.0815
  634MOL0     H85535   4.925   4.438  11.529  1.3592 -2.6229 -2.3158
  634MOL0     H85536   4.848   4.333  11.633  0.4310 -2.1137 -2.0273
  634MOL0     H85537   5.009   4.373  11.807  0.9263 -1.2068 -2.1212
  634MOL0     H85538   5.121   4.464  11.704  0.9477 -0.3967  1.0088
  634MOL0     H85539   4.848   4.561  11.819 -1.9799 -2.0505  0.0032
  634MOL0     H85540   4.913   4.634  11.687 -4.7841  0.5510  1.0803
  634MOL0     H85541   5.092   4.469  11.999 -0.9499 -1.6528 -0.7921
  634MOL0     H85542   5.265   4.591  12.207 -0.9344 -0.7250 -1.4993
  634MOL0     H85543   5.234   4.754  12.239  0.1962 -0.4205  0.7468
  634MOL0     H85544   5.059   4.521  12.295 -1.7960  0.0743 -0.9903
  634MOL0     H85545   4.983   4.677  12.312 -1.5098 -1.8323  1.9546
  634MOL0     H85546   5.119   4.754  12.506  1.8008  0.8045  1.1361
  634MOL0     H85547   5.237   4.629  12.474 -0.6185 -0.1395  1.0649
  634MOL0     H85548   4.949   4.593  12.583  0.6307  2.5407 -0.4840
  634MOL0     H85549   5.116   4.581  12.663  3.4220 -1.6353 -1.3497
  634MOL0     H85550   4.990   4.457  12.801  3.4517  0.7591  0.4560
  634MOL0     H85551   5.011   4.370  13.022  2.1721 -0.0945 -3.5697
  634MOL0     H85552   4.888   4.232  13.017  0.0406 -0.8353  1.0021
  634MOL0     H85553   5.067   4.215  13.062  2.6933  0.8848 -2.0430
  634MOL0     H85554   5.206   3.680  12.718 -1.0923 -0.6827 -3.3082
  634MOL0     H85555   5.194   3.442  12.824  0.9072  2.1376 -4.4316
  634MOL0     H85556   4.889   3.285  12.869 -0.9101  0.7457  1.1910
  634MOL0     H85557   5.049   3.220  12.862 -0.1558  0.7407 -0.0613
  634MOL0     H85558   4.992   3.116  13.098 -0.3303  1.8514  1.4063
  634MOL0     H85559   4.852   3.213  13.099 -0.6168  1.3558 -0.6993
  634MOL0     H85560   4.763   3.106  12.892  1.2443  0.8263 -0.0237
  634MOL0     H85561   4.781   2.977  13.021 -1.9917 -1.2787 -1.6957
  634MOL0     H85562   4.867   2.995  12.765  1.3438  4.0176  0.2760
  634MOL0     H85563   5.019   2.968  12.854 -0.0939 -2.7099  1.2878
  634MOL0     H85564   4.797   2.787  12.920 -0.3939  1.5395 -0.5443
  634MOL0     H85565   4.973   2.769  12.929  1.2408  0.9265 -0.3370
  634MOL0     H85566   4.862   2.640  12.725  2.0354 -0.8944  0.0228
  634MOL0     H85567   4.788   2.795  12.693  1.7161  1.4686 -0.1451
  634MOL0     H85568   5.096   2.744  12.665  1.3047 -0.0083  0.7986
  634MOL0     H85569   5.006   2.861  12.585  1.3432  0.5701  1.4184
  634MOL0     H85570   4.974   2.565  12.524 -0.3576 -0.6330  1.8677
  634MOL0     H85571   5.057   2.697  12.429 -0.1376 -1.6930 -1.0521
  634MOL0     H85572   4.857   3.565  13.052 -1.3291  1.8939  0.4096
  634MOL0     H85573   4.865   3.794  12.946  0.8811  0.7304 -1.4520
  634MOL0     H85574   5.099   4.011  12.611 -2.2711 -0.2485 -0.1303
  634MOL0     H85575   5.070   4.208  12.466  0.5565  0.0632 -0.2135
  634MOL0     H85576   4.917   4.556  10.917  2.7937  0.0342 -0.1104
  634MOL0     H85577   4.867   4.621  10.686 -0.3114  0.2357 -1.4113
  634MOL0     H85578   4.858   4.303  10.119 -2.2362 -1.3923 -0.3888
  634MOL0     H85579   4.817   4.429   9.903  1.9060 -2.2590  0.7175
  634MOL0     H85580   4.753   4.608   9.706  1.2184  2.7581  1.1161
  634MOL0     H85581   4.623   4.530   9.785  1.7461 -1.2263 -1.5526
  634MOL0     H85582   4.609   4.833   9.702 -2.2931  2.4754  2.8261
  634MOL0     H85583   4.489   4.758   9.800  0.4018 -0.0711  0.1576
  634MOL0     H85584   4.411   4.608   9.604 -0.8290  0.5025  0.8790
  634MOL0     H85585   4.563   4.643   9.532 -0.4921  0.3591  1.0621
  634MOL0     H85586   4.503   4.897   9.531  3.5301 -1.6299  0.9314
  634MOL0     H85587   4.346   4.844   9.584 -0.0618 -0.1703  0.1265
  634MOL0     H85588   4.374   4.704   9.172  2.3790 -5.1034  1.6132
  634MOL0     H85589   4.669   4.758  10.147 -1.5626 -0.8900  1.3692
  634MOL0     H85590   4.757   4.634  10.346  4.4531 -1.0562  0.9379
  635MOL0     O85591   5.814   6.850   3.214  0.1087  0.5621 -0.0210
  635MOL0     C85592   5.704   6.885   3.167  0.1851 -0.0715 -0.5121
  635MOL0     O85593   5.583   6.853   3.223  0.2855  1.2060 -0.1082
  635MOL0     C85594   5.578   6.798   3.353  0.0860 -1.1416 -0.2286
  635MOL0     C85595   5.542   6.880   3.457 -0.0617  0.3143 -0.2899
  635MOL0     C85596   5.513   6.830   3.583  0.4406 -0.6427 -0.4563
  635MOL0     C85597   5.555   6.703   3.617  0.9395 -1.1055 -0.5580
  635MOL0     O85598   5.543   6.680   3.751 -0.3844 -0.6242  0.0823
  635MOL0     C85599   5.640   6.598   3.818 -0.0769  0.0566  0.3708
  635MOL0     C85600   5.613   6.584   3.972 -0.0077  0.2954  0.1476
  635MOL0     C85601   5.465   6.558   4.013  0.0851  0.0974  0.2925
  635MOL0     C85602   5.382   6.453   3.929 -0.0493 -1.1354 -1.2831
  635MOL0     C85603   5.424   6.312   3.944  0.5513 -0.0858 -0.1309
  635MOL0     C85604   5.427   6.256   4.085 -0.0551  0.5326 -0.0695
  635MOL0     C85605   5.299   6.293   4.168  0.4805 -0.3679  0.4174
  635MOL0     C85606   5.340   6.256   4.312 -0.3114 -0.1536  0.5656
  635MOL0     N85607   5.224   6.242   4.402 -0.8169 -0.8315  0.5521
  635MOL0     C85608   5.116   6.329   4.402 -0.1063 -0.1983  0.0888
  635MOL0     C85609   5.035   6.300   4.507 -0.6214 -0.2519 -0.3972
  635MOL0     C85610   4.899   6.340   4.541  0.3882 -0.8304 -0.0323
  635MOL0     C85611   4.916   6.479   4.608  0.6342 -0.2413 -0.8512
  635MOL0     C85612   4.771   6.549   4.623  0.2350 -0.2189  0.5757
  635MOL0     C85613   4.788   6.698   4.619  0.5266 -1.1034 -0.7223
  635MOL0     O85614   4.879   6.743   4.708 -0.0763 -0.2995 -0.3519
  635MOL0     C85615   4.856   6.747   4.842 -0.0813 -0.0361 -0.7301
  635MOL0     C85616   4.968   6.758   4.916  0.5769  0.4696  0.5627
  635MOL0     C85617   4.963   6.762   5.059  0.3504 -0.5201 -0.2173
  635MOL0     C85618   5.102   6.775   5.120  0.0969  0.9869 -0.2632
  635MOL0     C85619   4.836   6.771   5.131 -0.9458  1.1248 -0.3600
  635MOL0     C85620   4.825   6.782   5.283 -0.0773 -0.4806  0.4035
  635MOL0     O85621   4.696   6.779   5.331 -0.2726  0.1981  0.2915
  635MOL0     C85622   4.679   6.788   5.472  0.9185  0.6911 -1.0834
  635MOL0     C85623   4.601   6.681   5.526  0.5904 -0.4903 -0.1465
  635MOL0     C85624   4.574   6.671   5.668 -0.6133 -0.7735  0.2618
  635MOL0     C85625   4.610   6.777   5.751 -0.2367  0.1660  0.3950
  635MOL0     O85626   4.582   6.760   5.884 -0.3567  0.3898 -1.1065
  635MOL0     C85627   4.678   6.802   5.991  0.2638  0.1602  0.1165
  635MOL0     C85628   4.616   6.772   6.119 -0.6426 -0.1035 -0.3718
  635MOL0     C85629   4.505   6.875   6.139  0.1800  0.0575  0.4642
  635MOL0     C85630   4.455   6.893   6.280  0.3541  0.6264  0.1550
  635MOL0     C85631   4.307   6.936   6.280  0.1068  0.5045  0.7953
  635MOL0     C85632   4.246   6.956   6.426  0.0388 -0.2390  0.9865
  635MOL0     C85633   4.117   7.036   6.410 -0.5771  1.1343 -0.9840
  635MOL0     C85634   4.011   7.008   6.511 -0.2011 -1.0674 -0.1863
  635MOL0    Cl85635   3.940   6.843   6.504  0.3436  0.6809  0.2932
  635MOL0     C85636   4.688   6.885   5.701 -0.6352  0.0393 -0.2161
  635MOL0     C85637   4.723   6.893   5.557 -0.1665  0.7923  0.4810
  635MOL0     O85638   4.928   6.818   5.343 -0.0858  0.3579  0.5464
  635MOL0     C85639   4.724   6.769   5.045  0.0678 -0.5051  0.1359
  635MOL0     C85640   4.736   6.750   4.908  0.9270  0.4315 -0.0012
  635MOL0     N85641   5.097   6.195   4.571 -0.3082 -0.2257 -0.5479
  635MOL0     N85642   5.200   6.157   4.501  0.9873  0.4871 -0.2490
  635MOL0     C85643   5.609   6.624   3.518 -0.6833  0.2752  0.5119
  635MOL0     C85644   5.619   6.670   3.384 -0.1279 -0.4436  0.7125
  635MOL0     C85645   5.703   6.961   3.041 -0.4949  0.1843  0.5770
  635MOL0     C85646   5.605   6.954   2.949 -0.5944  0.7927  0.5792
  635MOL0     C85647   5.595   7.013   2.831 -0.7506 -0.0429  0.9973
  635MOL0     C85648   5.699   7.097   2.800  0.0214 -0.2877 -0.8651
  635MOL0     O85649   5.674   7.168   2.691  0.2756  0.4717  0.1753
  635MOL0     C85650   5.775   7.249   2.626 -0.8603 -0.3560  0.0473
  635MOL0     C85651   5.895   7.178   2.563 -0.3329  0.6597 -0.2260
  635MOL0     C85652   5.982   7.275   2.481 -0.4932 -0.6918  0.1480
  635MOL0     C85653   6.093   7.346   2.555 -0.2921  0.0410 -0.7637
  635MOL0     C85654   6.051   7.439   2.657 -0.8077 -0.2125 -1.1246
  635MOL0     C85655   6.017   7.526   2.740  0.7152 -0.1448 -0.6432
  635MOL0     C85656   5.806   7.114   2.892  0.3268 -0.5570  0.0413
  635MOL0     C85657   5.810   7.051   3.015  0.6232  0.2469 -0.4976
  635MOL0     H85658   5.532   6.988   3.446  4.0183  0.9869  0.6897
  635MOL0     H85659   5.487   6.901   3.662 -0.3899 -1.4223 -0.0056
  635MOL0     H85660   5.640   6.500   3.768 -1.2718 -1.0486  2.4162
  635MOL0     H85661   5.735   6.651   3.804 -1.9423  3.7751  0.6867
  635MOL0     H85662   5.678   6.499   3.994 -0.0192  0.2190 -0.1112
  635MOL0     H85663   5.647   6.670   4.030  0.3692 -1.5773  2.9030
  635MOL0     H85664   5.476   6.531   4.119  1.0308 -3.1229 -0.5170
  635MOL0     H85665   5.405   6.650   4.007  1.6062  1.0626 -0.7487
  635MOL0     H85666   5.274   6.459   3.944 -0.1171  0.0248 -2.0334
  635MOL0     H85667   5.395   6.486   3.825 -0.7413  2.7796 -0.2776
  635MOL0     H85668   5.358   6.250   3.884  0.7652 -3.5503  2.8751
  635MOL0     H85669   5.521   6.309   3.893 -0.7844 -0.8836 -2.8398
  635MOL0     H85670   5.453   6.149   4.088 -0.1289  0.5067 -0.3467
  635MOL0     H85671   5.515   6.302   4.130  1.6043  0.2552 -2.8362
  635MOL0     H85672   5.261   6.394   4.148  3.6447  0.7718 -0.3399
  635MOL0     H85673   5.216   6.233   4.128 -3.1614  3.0526  2.1610
  635MOL0     H85674   5.409   6.323   4.365 -1.8553  0.4334  1.8964
  635MOL0     H85675   5.394   6.161   4.309 -1.5456 -0.8418 -1.0222
  635MOL0     H85676   5.091   6.406   4.330  0.1659  0.2674  0.4894
  635MOL0     H85677   4.846   6.349   4.446 -2.1648 -1.9880  1.1920
  635MOL0     H85678   4.843   6.281   4.614  2.2492 -1.0644  1.2906
  635MOL0     H85679   4.983   6.543   4.551  0.8337 -1.0182 -1.5115
  635MOL0     H85680   4.958   6.477   4.709 -0.1134  0.1002 -0.5216
  635MOL0     H85681   4.719   6.515   4.713  0.6282 -2.5873 -0.0285
  635MOL0     H85682   4.723   6.514   4.532  1.7747 -0.6373 -0.1094
  635MOL0     H85683   4.691   6.742   4.643  0.2245 -1.2457 -1.6497
  635MOL0     H85684   4.828   6.725   4.521  0.2211  2.5262  0.0368
  635MOL0     H85685   5.061   6.748   4.860 -2.2039 -2.5594 -4.1676
  635MOL0     H85686   5.170   6.816   5.045  1.1255  0.2654  0.2576
  635MOL0     H85687   5.111   6.834   5.211 -0.6594  0.5126  0.1329
  635MOL0     H85688   5.142   6.676   5.145  1.1819  1.3704 -0.4353
  635MOL0     H85689   4.575   6.585   5.485  0.2167 -1.3761  2.0283
  635MOL0     H85690   4.526   6.588   5.720 -1.2999 -0.2812  0.4194
  635MOL0     H85691   4.771   6.744   5.992  0.6548  0.7243  2.4882
  635MOL0     H85692   4.719   6.902   5.981  1.7297 -0.3944  0.3158
  635MOL0     H85693   4.582   6.668   6.127 -0.7899 -0.0929 -0.8314
  635MOL0     H85694   4.695   6.792   6.192 -1.0488  1.7216 -0.3826
  635MOL0     H85695   4.422   6.854   6.072  1.4845  0.9852 -1.5229
  635MOL0     H85696   4.544   6.967   6.095 -0.9844  1.5981  2.4529
  635MOL0     H85697   4.456   6.791   6.320 -0.0582  0.3875 -0.4314
  635MOL0     H85698   4.524   6.952   6.340 -1.6376  2.2374  1.0087
  635MOL0     H85699   4.243   6.869   6.221  1.3217  0.3414 -0.3884
  635MOL0     H85700   4.303   7.035   6.233 -3.2515  1.9984  3.7094
  635MOL0     H85701   4.231   6.863   6.482  1.4526  0.6322  2.9128
  635MOL0     H85702   4.317   7.015   6.483  3.2277 -0.1337 -2.6621
  635MOL0     H85703   4.072   7.002   6.316 -0.9048  0.0830 -0.4645
  635MOL0     H85704   4.134   7.143   6.392  3.4865  0.7332 -0.4688
  635MOL0     H85705   3.930   7.081   6.503  0.7303  0.2024  1.5037
  635MOL0     H85706   4.055   7.017   6.611 -3.0025 -3.4871  1.4379
  635MOL0     H85707   4.740   6.936   5.782  2.2365 -2.7853 -0.0871
  635MOL0     H85708   4.786   6.973   5.519  1.4952 -1.5849 -2.1623
  635MOL0     H85709   4.625   6.776   5.089 -1.1526 -0.8331 -2.3656
  635MOL0     H85710   4.642   6.738   4.854 -0.7884 -3.0293  3.2738
  635MOL0     H85711   5.651   6.528   3.546 -1.4494  0.0205  0.8066
  635MOL0     H85712   5.657   6.605   3.306  1.4086  1.6343 -0.3959
  635MOL0     H85713   5.518   6.892   2.970  0.3931 -0.8134  0.0727
  635MOL0     H85714   5.504   7.003   2.773 -0.1852  0.3485  0.0227
  635MOL0     H85715   5.724   7.309   2.550  0.1451 -3.2886 -3.2122
  635MOL0     H85716   5.811   7.323   2.698 -1.4565 -2.5549  2.7520
  635MOL0     H85717   5.860   7.106   2.489 -1.2788  1.1102 -0.2292
  635MOL0     H85718   5.962   7.132   2.636  0.5363  0.3867 -1.1777
  635MOL0     H85719   5.926   7.348   2.422  3.0190  2.5784  0.4329
  635MOL0     H85720   6.031   7.213   2.404 -0.0387 -1.7348  1.2476
  635MOL0     H85721   6.155   7.393   2.478 -0.2291  2.9461  0.9283
  635MOL0     H85722   6.169   7.277   2.594 -1.7328 -0.1591  1.9574
  635MOL0     H85723   5.976   7.598   2.808  1.0192  0.0107 -0.6245
  635MOL0     H85724   5.892   7.175   2.867 -1.3623  2.2097  0.5283
  635MOL0     H85725   5.895   7.065   3.081  0.2495  0.9097 -0.1403
  636MOL0     O85726   1.840   3.474   7.231 -0.0536  0.7520 -0.2545
  636MOL0     C85727   1.870   3.584   7.192  0.3182  0.0973  0.5991
  636MOL0     O85728   1.785   3.668   7.122  0.1681 -0.2051  0.2365
  636MOL0     C85729   1.647   3.640   7.119 -0.0871 -0.3883  0.1910
  636MOL0     C85730   1.561   3.745   7.145  0.7259  0.0158 -0.0276
  636MOL0     C85731   1.421   3.727   7.149  0.4912 -0.2681  0.1855
  636MOL0     C85732   1.367   3.602   7.117  1.0528 -0.1238  0.2604
  636MOL0     O85733   1.229   3.593   7.116  0.5998 -0.9151 -0.5882
  636MOL0     C85734   1.166   3.510   7.211  0.1230  0.0301 -0.4675
  636MOL0     C85735   1.121   3.377   7.171 -0.7044  0.5115 -0.4166
  636MOL0     C85736   1.001   3.398   7.081 -0.0935  0.1480 -0.8069
  636MOL0     C85737   0.870   3.339   7.140 -0.3642 -0.2387  0.5973
  636MOL0     C85738   0.771   3.293   7.036 -0.3045 -0.3319  0.1870
  636MOL0     C85739   0.727   3.397   6.933  0.7707 -0.6737 -1.1454
  636MOL0     C85740   0.618   3.362   6.827 -0.1031  1.2599  0.1470
  636MOL0     C85741   0.669   3.265   6.717  0.7605 -0.1296  0.5060
  636MOL0     N85742   0.609   3.282   6.588  0.3330  1.1354  0.5417
  636MOL0     C85743   0.485   3.223   6.551  0.2739 -0.5090 -0.4357
  636MOL0     C85744   0.460   3.278   6.427  0.3124 -1.2661 -0.1657
  636MOL0     C85745   0.343   3.248   6.336  0.2376  0.0616 -0.0957
  636MOL0     C85746   0.219   3.185   6.406  0.6199  0.0856 -1.0745
  636MOL0     C85747   0.199   3.031   6.431 -0.0045  0.4749  0.0087
  636MOL0     C85748   0.129   2.951   6.311  0.8556  0.8077 -0.9330
  636MOL0     O85749   0.198   2.931   6.185 -0.2978  0.3332  0.9784
  636MOL0     C85750   0.141   2.842   6.108  0.6851  2.0698  0.7800
  636MOL0     C85751   0.009   2.786   6.127 -0.3001  0.5795 -0.4299
  636MOL0     C85752  -0.049   2.697   6.044  0.8252  0.5751  0.3820
  636MOL0     C85753  -0.197   2.663   6.080 -0.4254  0.4043  0.4530
  636MOL0     C85754   0.015   2.649   5.935 -0.9611 -0.5318  0.5038
  636MOL0     C85755  -0.026   2.539   5.843 -0.4588  1.5215  0.1883
  636MOL0     O85756   0.065   2.524   5.739  0.4846 -0.4872  0.4978
  636MOL0     C85757   0.033   2.435   5.635 -0.0771  0.3684  0.7196
  636MOL0     C85758   0.130   2.332   5.609 -0.7039  0.6288 -0.2932
  636MOL0     C85759   0.108   2.245   5.491  0.7573 -0.4151 -0.5449
  636MOL0     C85760  -0.004   2.257   5.412 -0.9363 -0.1728 -0.2764
  636MOL0     O85761  -0.022   2.204   5.287  0.7094  0.7742 -0.2241
  636MOL0     C85762   0.022   2.070   5.269  0.5121  0.4018 -0.0643
  636MOL0     C85763  -0.065   2.023   5.157  0.8994 -0.0936  0.0791
  636MOL0     C85764  -0.023   1.889   5.096  0.6070  0.4627 -0.5152
  636MOL0     C85765  -0.108   1.855   4.971  0.2121  0.4297  1.1338
  636MOL0     C85766  -0.058   1.906   4.839 -0.0609  0.4746  0.2291
  636MOL0     C85767  -0.164   1.858   4.740 -0.1064  0.1151 -0.0173
  636MOL0     C85768  -0.158   1.925   4.598 -0.1060 -0.3450 -0.0618
  636MOL0     C85769  -0.012   1.914   4.547  0.3182  0.5011 -0.7258
  636MOL0    Cl85770   0.010   1.989   4.396  0.2069 -0.2743  0.3208
  636MOL0     C85771  -0.094   2.365   5.444 -0.7500  0.5903 -0.4938
  636MOL0     C85772  -0.075   2.446   5.553  0.1339  0.0334 -0.0885
  636MOL0     O85773  -0.110   2.456   5.882 -0.4266  0.2732  0.4424
  636MOL0     C85774   0.141   2.713   5.905 -0.4182 -0.5139 -0.4823
  636MOL0     C85775   0.205   2.804   5.984 -0.4109  0.0042  0.2002
  636MOL0     N85776   0.556   3.371   6.396  0.2449  0.5469 -0.1742
  636MOL0     N85777   0.649   3.364   6.489 -0.2654  1.2350  0.5474
  636MOL0     C85778   1.448   3.500   7.080  0.1849  1.2643 -0.2931
  636MOL0     C85779   1.595   3.512   7.082 -1.0771  0.2318 -0.7452
  636MOL0     C85780   2.007   3.622   7.225 -0.4446 -0.3762  0.0529
  636MOL0     C85781   2.040   3.757   7.214  0.0336 -0.2217  0.4833
  636MOL0     C85782   2.170   3.813   7.247  0.7785  0.6390  0.2688
  636MOL0     C85783   2.254   3.724   7.318 -0.1239 -0.1323  0.6644
  636MOL0     O85784   2.382   3.773   7.347  0.8230  0.7790 -0.3174
  636MOL0     C85785   2.485   3.685   7.360 -0.2128 -0.3301 -0.4742
  636MOL0     C85786   2.611   3.771   7.360 -0.0802  0.5813 -0.7878
  636MOL0     C85787   2.741   3.700   7.389 -0.2168 -0.0873 -0.5703
  636MOL0     C85788   2.854   3.777   7.454  0.2378  0.1196  0.5487
  636MOL0     C85789   2.875   3.745   7.595 -0.3133  0.2578 -0.4881
  636MOL0     C85790   2.905   3.702   7.707  0.1102  0.0419  0.4936
  636MOL0     C85791   2.218   3.588   7.338  0.6027 -0.0885  0.1326
  636MOL0     C85792   2.097   3.545   7.283  0.5499  0.4999  0.7290
  636MOL0     H85793   1.604   3.844   7.157 -2.1295  1.2337  0.9994
  636MOL0     H85794   1.355   3.812   7.161  2.4674  1.3946 -0.1473
  636MOL0     H85795   1.234   3.505   7.296 -0.5794 -1.3999  0.0467
  636MOL0     H85796   1.089   3.577   7.250  2.5918  1.5883  2.0743
  636MOL0     H85797   1.203   3.330   7.117 -0.6306 -2.1153  1.7839
  636MOL0     H85798   1.107   3.315   7.260 -0.2870 -1.1645 -1.4789
  636MOL0     H85799   0.993   3.505   7.060  1.3983  1.1326  2.7684
  636MOL0     H85800   1.018   3.349   6.985  5.5604  0.8628 -0.5503
  636MOL0     H85801   0.898   3.252   7.200  1.1788  0.7306  1.3315
  636MOL0     H85802   0.820   3.413   7.203  2.0230  2.1214 -0.0980
  636MOL0     H85803   0.822   3.214   6.981 -0.4177 -0.0122 -0.3784
  636MOL0     H85804   0.678   3.254   7.080 -0.5420  1.0527  0.9879
  636MOL0     H85805   0.690   3.481   6.992  0.1344 -1.1887 -0.7939
  636MOL0     H85806   0.814   3.441   6.884 -0.1827  2.7729  0.0256
  636MOL0     H85807   0.533   3.313   6.875  1.7539 -3.9168 -1.1427
  636MOL0     H85808   0.587   3.456   6.780 -0.8308  0.7341 -0.4517
  636MOL0     H85809   0.660   3.160   6.747  0.1315 -0.2758 -0.1648
  636MOL0     H85810   0.774   3.288   6.695 -0.4013  3.0353 -2.5271
  636MOL0     H85811   0.427   3.152   6.608  3.2574 -0.0364  3.6338
  636MOL0     H85812   0.309   3.339   6.287 -1.1710  0.1602  0.9964
  636MOL0     H85813   0.374   3.182   6.254 -1.4629  1.4079 -1.9287
  636MOL0     H85814   0.138   3.220   6.342  0.2180  0.9059 -0.1342
  636MOL0     H85815   0.191   3.240   6.496  0.4275 -1.2017 -0.3130
  636MOL0     H85816   0.118   3.013   6.502  0.6261  1.1264  0.9167
  636MOL0     H85817   0.292   2.989   6.470 -1.2358  0.3900  3.0846
  636MOL0     H85818   0.029   2.990   6.289 -0.3079 -0.9235  0.8958
  636MOL0     H85819   0.108   2.852   6.352  1.6133  1.8367  2.2715
  636MOL0     H85820  -0.059   2.827   6.201 -1.0442 -1.2908 -0.0121
  636MOL0     H85821  -0.252   2.757   6.087  1.2485  1.5079 -0.5470
  636MOL0     H85822  -0.250   2.600   6.007  0.7210 -0.3178  0.2075
  636MOL0     H85823  -0.191   2.614   6.178  3.2905  1.0386  0.6797
  636MOL0     H85824   0.220   2.329   5.670 -0.6475  1.4144 -0.3229
  636MOL0     H85825   0.189   2.180   5.459  1.5168  1.2256 -2.1494
  636MOL0     H85826   0.126   2.084   5.237 -0.0500  1.7890 -1.4780
  636MOL0     H85827   0.024   1.997   5.350  2.7172 -0.6119 -0.9408
  636MOL0     H85828  -0.167   2.018   5.196  1.8200  0.8591  2.8027
  636MOL0     H85829  -0.064   2.106   5.085  1.6850 -0.2210 -0.0632
  636MOL0     H85830  -0.043   1.818   5.177 -3.1307 -0.0754 -1.7272
  636MOL0     H85831   0.084   1.888   5.072  0.2334 -0.2491 -2.3880
  636MOL0     H85832  -0.109   1.745   4.964  1.4828  0.3547  1.7523
  636MOL0     H85833  -0.212   1.887   4.983 -0.9565 -0.6222 -4.0315
  636MOL0     H85834   0.035   1.860   4.805 -1.3730 -1.1761 -1.3728
  636MOL0     H85835  -0.061   2.015   4.840 -1.7636  0.4581  0.5415
  636MOL0     H85836  -0.157   1.749   4.735 -0.4685 -0.0497  2.1212
  636MOL0     H85837  -0.266   1.876   4.774 -0.9196 -2.9681 -0.5071
  636MOL0     H85838  -0.190   2.028   4.619 -0.6216 -0.2234 -1.3776
  636MOL0     H85839  -0.221   1.878   4.522 -0.1493 -1.7366  0.8062
  636MOL0     H85840   0.019   1.809   4.542  2.3974  0.8157  2.3626
  636MOL0     H85841   0.059   1.969   4.611 -1.9747  0.5924  1.9149
  636MOL0     H85842  -0.184   2.387   5.388 -2.1439 -1.3833  0.8768
  636MOL0     H85843  -0.141   2.526   5.585 -1.2631 -0.8495 -0.6650
  636MOL0     H85844   0.195   2.691   5.813 -0.0811 -2.1635  0.0720
  636MOL0     H85845   0.300   2.851   5.961 -0.6218  0.0672 -0.5446
  636MOL0     H85846   1.392   3.414   7.044 -1.7473  1.9395  0.9368
  636MOL0     H85847   1.661   3.428   7.062 -0.6568  0.2410  0.5109
  636MOL0     H85848   1.959   3.824   7.186 -0.8535 -1.3406  0.3151
  636MOL0     H85849   2.209   3.913   7.228 -0.4463  1.2276  0.7118
  636MOL0     H85850   2.483   3.625   7.451 -2.0207 -0.1335 -0.3337
  636MOL0     H85851   2.490   3.604   7.287  2.3475  1.0276 -1.9524
  636MOL0     H85852   2.593   3.858   7.423 -0.5493 -1.5081  2.1720
  636MOL0     H85853   2.612   3.793   7.253 -3.3804  0.8764 -0.8727
  636MOL0     H85854   2.775   3.663   7.292  1.8202  0.0234  0.0468
  636MOL0     H85855   2.719   3.617   7.458  1.2839  0.4426  0.6093
  636MOL0     H85856   2.827   3.882   7.438  0.4354 -0.0840 -1.4769
  636MOL0     H85857   2.945   3.757   7.397 -0.8263 -0.4651 -1.0328
  636MOL0     H85858   2.935   3.674   7.806  3.9022  2.2230  0.1386
  636MOL0     H85859   2.272   3.508   7.386 -0.6745 -1.3083 -0.3779
  636MOL0     H85860   2.066   3.441   7.288  2.2259 -0.1367 -0.8132
  637MOL0     O85861   9.255   3.068   1.957  0.4207  0.7050  0.4460
  637MOL0     C85862   9.194   3.158   1.891  0.3335 -0.3510  0.7771
  637MOL0     O85863   9.061   3.176   1.881 -1.6532  0.1142  0.2036
  637MOL0     C85864   8.967   3.103   1.955  0.2766  0.1194 -0.1485
  637MOL0     C85865   8.988   3.054   2.087  0.7108  0.4662 -0.4216
  637MOL0     C85866   8.889   2.996   2.157 -0.8354  0.2685 -0.6760
  637MOL0     C85867   8.767   2.982   2.099  0.1368 -0.1562  0.9133
  637MOL0     O85868   8.672   2.911   2.171 -0.1162 -0.2771  0.1364
  637MOL0     C85869   8.605   2.805   2.108 -0.2912  0.3370  0.2760
  637MOL0     C85870   8.492   2.757   2.198  0.0057 -0.2726 -0.1225
  637MOL0     C85871   8.395   2.653   2.130 -0.7119  0.1681  0.0084
  637MOL0     C85872   8.305   2.590   2.230 -0.5070  0.0834 -0.2358
  637MOL0     C85873   8.201   2.491   2.159 -0.1327  0.2722 -0.7951
  637MOL0     C85874   8.072   2.582   2.132 -0.5704  0.6486  0.7354
  637MOL0     C85875   7.978   2.508   2.033 -0.1708 -1.3695 -0.2759
  637MOL0     C85876   7.846   2.582   2.014  0.6513  0.0445 -0.0066
  637MOL0     N85877   7.771   2.559   2.133  0.7599  0.3655 -0.6725
  637MOL0     C85878   7.691   2.451   2.168 -0.3844  0.1101 -1.0737
  637MOL0     C85879   7.639   2.483   2.291  0.5515  0.2636  0.1062
  637MOL0     C85880   7.542   2.398   2.363  0.2248 -0.1260  0.9824
  637MOL0     C85881   7.604   2.332   2.492  0.3685  0.8199  0.1377
  637MOL0     C85882   7.615   2.432   2.606  0.2935  0.1866 -0.5096
  637MOL0     C85883   7.695   2.368   2.728 -0.4122  0.5827  0.6784
  637MOL0     O85884   7.664   2.436   2.847 -0.4527  0.1158  0.2337
  637MOL0     C85885   7.583   2.384   2.942 -0.1220 -0.4889  0.3327
  637MOL0     C85886   7.491   2.274   2.929 -0.4930  0.0605 -0.1513
  637MOL0     C85887   7.406   2.242   3.040  0.4825 -0.0272 -0.0051
  637MOL0     C85888   7.317   2.115   3.030  0.1657  0.6130 -0.4751
  637MOL0     C85889   7.410   2.323   3.160  0.3108 -0.3952  0.8611
  637MOL0     C85890   7.327   2.301   3.273 -0.8322  0.3840 -0.1481
  637MOL0     O85891   7.276   2.407   3.335 -0.4360 -0.2129 -0.1857
  637MOL0     C85892   7.254   2.421   3.471 -0.0982  0.8463 -0.3981
  637MOL0     C85893   7.219   2.319   3.560 -0.3708 -0.2203  0.4966
  637MOL0     C85894   7.189   2.347   3.695  0.5312 -0.3569 -0.1906
  637MOL0     C85895   7.204   2.476   3.749  0.6190 -0.5909  0.0814
  637MOL0     O85896   7.200   2.509   3.882  1.0538  0.1085  1.0798
  637MOL0     C85897   7.154   2.410   3.973 -0.4648 -0.2121 -0.2127
  637MOL0     C85898   7.203   2.459   4.108  1.0504 -1.1658  0.1253
  637MOL0     C85899   7.351   2.430   4.137  0.6441 -0.7316 -0.6241
  637MOL0     C85900   7.405   2.489   4.275 -0.6666  1.2271 -0.0567
  637MOL0     C85901   7.551   2.466   4.308  0.0144 -0.4333 -0.6594
  637MOL0     C85902   7.573   2.488   4.457 -0.1690  0.1763 -0.4203
  637MOL0     C85903   7.521   2.378   4.553 -0.8074 -0.9095  0.1439
  637MOL0     C85904   7.627   2.267   4.560 -0.4835  0.3676  0.3614
  637MOL0    Cl85905   7.619   2.148   4.413 -0.3842 -0.2433  0.1335
  637MOL0     C85906   7.253   2.571   3.655  0.0905 -0.2653 -0.2067
  637MOL0     C85907   7.277   2.544   3.524 -0.2250  0.3889 -0.3325
  637MOL0     O85908   7.332   2.187   3.325 -0.0589  0.1635  0.1084
  637MOL0     C85909   7.500   2.426   3.168 -0.6407 -0.0112  0.5145
  637MOL0     C85910   7.581   2.465   3.059  0.6748 -0.3623  0.0780
  637MOL0     N85911   7.682   2.604   2.331  1.0786  0.0747  0.2511
  637MOL0     N85912   7.756   2.648   2.235 -0.4000 -0.0392 -0.9113
  637MOL0     C85913   8.739   3.029   1.969 -0.2532 -0.0764 -0.5396
  637MOL0     C85914   8.845   3.090   1.896  0.7631 -0.5316 -0.1829
  637MOL0     C85915   9.272   3.275   1.832 -0.5472  0.0023  0.0945
  637MOL0     C85916   9.210   3.399   1.801  0.0149 -0.2183 -0.4937
  637MOL0     C85917   9.281   3.509   1.766 -0.4288 -0.0651 -0.4841
  637MOL0     C85918   9.424   3.496   1.739  0.1321  0.0023  0.1098
  637MOL0     O85919   9.488   3.613   1.691 -1.0357 -0.3655 -0.6062
  637MOL0     C85920   9.624   3.587   1.652 -0.1482 -0.2284  0.1594
  637MOL0     C85921   9.648   3.712   1.558  0.9166 -0.0858 -0.3939
  637MOL0     C85922   9.800   3.719   1.530 -0.2806 -0.8820 -0.4428
  637MOL0     C85923   9.831   3.771   1.387 -0.3357 -0.1147 -0.4539
  637MOL0     C85924   9.774   3.675   1.282 -0.3463 -0.0826 -0.0140
  637MOL0     C85925   9.715   3.609   1.195  0.0864 -0.7556 -0.1460
  637MOL0     C85926   9.490   3.371   1.767 -0.7202 -0.5834  1.0650
  637MOL0     C85927   9.413   3.259   1.824  0.4121 -0.5943  0.2023
  637MOL0     H85928   9.080   3.069   2.143  0.3103 -3.4850  1.6295
  637MOL0     H85929   8.905   2.959   2.258  0.0324  4.1312  0.7783
  637MOL0     H85930   8.566   2.826   2.009 -2.5994 -1.4583  0.7031
  637MOL0     H85931   8.673   2.719   2.107  0.8341  1.2171 -0.0868
  637MOL0     H85932   8.549   2.722   2.284  1.4407  2.4660  0.1575
  637MOL0     H85933   8.428   2.841   2.227 -2.9944 -3.5241  3.8028
  637MOL0     H85934   8.336   2.699   2.049 -0.7694 -2.3173 -1.4639
  637MOL0     H85935   8.454   2.579   2.075  0.7998  2.6539 -1.8953
  637MOL0     H85936   8.375   2.525   2.284 -0.5561 -0.8388 -1.2191
  637MOL0     H85937   8.257   2.666   2.291  1.7560  1.8863 -0.5416
  637MOL0     H85938   8.246   2.447   2.070 -3.0924 -0.5570 -1.9625
  637MOL0     H85939   8.175   2.415   2.233  0.4831  0.4094 -0.4206
  637MOL0     H85940   8.024   2.594   2.229  1.4273 -0.9835  2.0173
  637MOL0     H85941   8.097   2.677   2.084  0.7504 -0.5841 -1.1657
  637MOL0     H85942   8.013   2.502   1.930 -2.1224  0.8905 -1.1731
  637MOL0     H85943   7.956   2.406   2.065 -0.9949 -2.2273 -3.2480
  637MOL0     H85944   7.793   2.556   1.922 -1.3054  2.6680  0.2806
  637MOL0     H85945   7.862   2.690   2.003 -1.6247  0.2466 -1.9172
  637MOL0     H85946   7.686   2.363   2.105 -2.8993 -2.1204  1.9192
  637MOL0     H85947   7.455   2.458   2.391 -0.9473 -1.1675 -0.2803
  637MOL0     H85948   7.510   2.324   2.290  2.1336  1.5540 -1.7321
  637MOL0     H85949   7.702   2.289   2.473 -1.3063 -4.5594  1.7834
  637MOL0     H85950   7.539   2.254   2.533  0.4211  1.2523  1.0644
  637MOL0     H85951   7.521   2.470   2.648  1.9816  3.6821  0.5333
  637MOL0     H85952   7.663   2.521   2.564  3.0130  0.0062  1.9496
  637MOL0     H85953   7.804   2.366   2.717 -0.1674  0.1215  2.6899
  637MOL0     H85954   7.674   2.261   2.722 -0.8935  0.7463 -1.2687
  637MOL0     H85955   7.482   2.221   2.835  0.7527  2.3709 -1.6629
  637MOL0     H85956   7.297   2.092   2.925 -1.6164 -1.4989  0.2377
  637MOL0     H85957   7.384   2.036   3.064  2.3192  2.1965 -0.8413
  637MOL0     H85958   7.219   2.120   3.078  0.3390  0.4893 -0.1117
  637MOL0     H85959   7.213   2.214   3.534 -0.0156 -0.3589  0.9587
  637MOL0     H85960   7.170   2.266   3.766  0.5853 -1.9161 -1.8777
  637MOL0     H85961   7.046   2.414   3.957 -0.9296 -2.1261  1.9100
  637MOL0     H85962   7.192   2.308   3.962 -0.9447 -0.5799  1.3116
  637MOL0     H85963   7.183   2.566   4.117  2.1009 -0.7961 -1.5016
  637MOL0     H85964   7.140   2.405   4.180  1.5148  2.4156  3.5892
  637MOL0     H85965   7.414   2.465   4.055  1.4893 -0.8910 -0.0572
  637MOL0     H85966   7.371   2.322   4.135 -0.1474 -1.1093 -6.5287
  637MOL0     H85967   7.390   2.597   4.274 -0.1810  1.3411  1.6743
  637MOL0     H85968   7.333   2.459   4.352 -1.2991  1.3756 -0.5802
  637MOL0     H85969   7.607   2.526   4.235  0.6025 -0.9292 -0.6165
  637MOL0     H85970   7.570   2.364   4.275 -0.3335  0.0673 -2.5280
  637MOL0     H85971   7.680   2.506   4.474 -0.4430  0.4911  1.1047
  637MOL0     H85972   7.526   2.585   4.472 -1.3368  0.0246 -2.6398
  637MOL0     H85973   7.425   2.337   4.520 -1.2120  1.3158 -1.6171
  637MOL0     H85974   7.508   2.411   4.657  1.2250 -1.9226  0.7856
  637MOL0     H85975   7.603   2.201   4.644 -0.5584  0.3630  0.3365
  637MOL0     H85976   7.731   2.297   4.575 -0.3806  1.4455 -2.0235
  637MOL0     H85977   7.282   2.662   3.706 -0.6882  0.7891 -1.5841
  637MOL0     H85978   7.314   2.625   3.462  1.1016  0.3660  0.3959
  637MOL0     H85979   7.520   2.475   3.263  0.0550  1.8207 -0.5224
  637MOL0     H85980   7.643   2.553   3.076  0.6924 -0.2948 -0.3445
  637MOL0     H85981   8.637   3.033   1.933 -0.6530 -1.1287  0.4321
  637MOL0     H85982   8.824   3.132   1.798 -1.0542 -1.6524 -0.3203
  637MOL0     H85983   9.102   3.412   1.806 -0.0620 -0.9302 -0.2489
  637MOL0     H85984   9.226   3.602   1.763 -2.7568 -1.3603 -0.7432
  637MOL0     H85985   9.694   3.595   1.736 -1.6979  2.1240  1.3623
  637MOL0     H85986   9.633   3.492   1.599  1.2327 -0.7978  1.3429
  637MOL0     H85987   9.606   3.808   1.589 -0.1523 -0.4911 -0.5622
  637MOL0     H85988   9.591   3.679   1.470  0.3055  2.7591 -1.1679
  637MOL0     H85989   9.854   3.627   1.553  0.9086  0.1552  1.1373
  637MOL0     H85990   9.829   3.796   1.603 -3.6470 -0.3688  0.5366
  637MOL0     H85991   9.940   3.780   1.385 -0.4098  1.0590 -0.3930
  637MOL0     H85992   9.792   3.872   1.368  0.4034  0.3442  0.3598
  637MOL0     H85993   9.665   3.542   1.128 -0.7898 -2.5908  2.1971
  637MOL0     H85994   9.595   3.356   1.747 -1.1627 -0.9908 -1.3170
  637MOL0     H85995   9.464   3.165   1.846  2.1257  0.1044 -0.6030
  638MOL0     O85996   5.146   7.872   7.924  0.2045  0.4412  0.0839
  638MOL0     C85997   5.171   7.781   8.006 -0.1531 -0.0590 -0.0996
  638MOL0     O85998   5.266   7.780   8.108 -0.2915 -0.1363 -0.0170
  638MOL0     C85999   5.349   7.888   8.123  0.2366  0.3921  0.1180
  638MOL0     C86000   5.487   7.859   8.150  0.5998  0.4573 -0.4235
  638MOL0     C86001   5.575   7.962   8.182 -0.1372 -0.2160  0.2127
  638MOL0     C86002   5.528   8.090   8.165 -1.1231  0.6333 -0.1226
  638MOL0     O86003   5.615   8.200   8.169 -0.5727 -0.0072 -0.2925
  638MOL0     C86004   5.727   8.202   8.251 -0.3474 -0.7598 -0.0616
  638MOL0     C86005   5.845   8.210   8.160 -0.3795 -1.2584  0.4532
  638MOL0     C86006   5.966   8.263   8.227 -0.0911 -0.6900  0.0283
  638MOL0     C86007   6.080   8.309   8.138 -0.1425  0.1351  0.8523
  638MOL0     C86008   6.201   8.358   8.225  0.6737  0.7722 -0.1626
  638MOL0     C86009   6.311   8.418   8.135  0.0183  0.7445 -1.0213
  638MOL0     C86010   6.401   8.304   8.083 -0.5471  0.2929 -0.1955
  638MOL0     C86011   6.537   8.356   8.030 -0.0070  1.3450 -0.4239
  638MOL0     N86012   6.538   8.423   7.904  0.0665 -0.5526 -0.2577
  638MOL0     C86013   6.472   8.399   7.788 -0.5508 -0.7245  1.1031
  638MOL0     C86014   6.472   8.517   7.715  0.3778 -0.1540  0.3634
  638MOL0     C86015   6.416   8.551   7.587 -0.1310  0.0674  0.2561
  638MOL0     C86016   6.264   8.577   7.613 -0.1467 -0.0150 -0.0361
  638MOL0     C86017   6.190   8.622   7.483  0.2513 -1.1799 -0.1986
  638MOL0     C86018   6.039   8.638   7.494 -0.0584  0.1164  0.6246
  638MOL0     O86019   5.985   8.517   7.557 -0.4044 -0.4957 -0.6735
  638MOL0     C86020   5.871   8.542   7.630 -0.9100  0.2664 -0.4505
  638MOL0     C86021   5.763   8.458   7.603  0.4190  0.6562 -0.0377
  638MOL0     C86022   5.651   8.462   7.686 -0.4401  0.2827  0.6662
  638MOL0     C86023   5.536   8.375   7.647  1.3190  1.4602  0.3570
  638MOL0     C86024   5.649   8.557   7.795  0.1114 -0.2409 -0.1081
  638MOL0     C86025   5.524   8.589   7.878  1.2477  0.1420  0.0107
  638MOL0     O86026   5.459   8.485   7.941  0.5113  0.4240 -0.3868
  638MOL0     C86027   5.342   8.509   8.011  0.3491  1.8577 -0.2948
  638MOL0     C86028   5.218   8.480   7.945  0.6829  0.2649 -0.2999
  638MOL0     C86029   5.095   8.488   8.016 -0.5513  1.7381  0.6511
  638MOL0     C86030   5.091   8.520   8.154  0.5965  0.6983  0.1275
  638MOL0     O86031   4.991   8.497   8.242 -0.6273  0.0695  0.5715
  638MOL0     C86032   4.867   8.459   8.197 -0.4863 -0.3594 -0.2393
  638MOL0     C86033   4.841   8.311   8.206 -0.9732 -0.0933 -1.0217
  638MOL0     C86034   4.695   8.281   8.166  0.1347  0.2626 -0.1573
  638MOL0     C86035   4.651   8.148   8.219  0.8426  0.1944 -0.1517
  638MOL0     C86036   4.522   8.097   8.149 -1.0240 -0.3641 -0.2188
  638MOL0     C86037   4.481   7.959   8.211 -0.0095  1.3188 -0.0650
  638MOL0     C86038   4.374   7.961   8.324  0.9419 -1.0208  0.7827
  638MOL0     C86039   4.370   7.826   8.393  0.3972 -0.6305 -0.3919
  638MOL0    Cl86040   4.530   7.801   8.489  0.6839 -0.3402 -0.0217
  638MOL0     C86041   5.216   8.542   8.225 -0.6334 -0.2966 -0.4635
  638MOL0     C86042   5.343   8.540   8.150 -1.0455 -0.9172  0.1795
  638MOL0     O86043   5.510   8.712   7.906 -0.0821  0.0316 -0.1339
  638MOL0     C86044   5.767   8.623   7.830  0.3402 -0.1310 -0.0292
  638MOL0     C86045   5.880   8.615   7.752 -0.7341 -0.0130  0.3337
  638MOL0     N86046   6.537   8.609   7.793  0.5531 -0.3431 -0.0788
  638MOL0     N86047   6.559   8.559   7.906  0.1649  0.0988  0.3563
  638MOL0     C86048   5.396   8.125   8.147 -0.5546 -0.2774  0.3190
  638MOL0     C86049   5.301   8.016   8.128 -0.5827  0.1192  0.3403
  638MOL0     C86050   5.094   7.657   7.984  1.4584  0.7859 -0.1924
  638MOL0     C86051   5.093   7.558   8.087 -0.4406 -0.4417  0.3136
  638MOL0     C86052   5.024   7.433   8.062 -0.3659 -0.7663 -0.0364
  638MOL0     C86053   4.947   7.420   7.946 -0.4806 -0.3970 -0.2159
  638MOL0     O86054   4.849   7.323   7.918 -1.1155  0.1367 -0.4583
  638MOL0     C86055   4.926   7.221   7.844 -0.5397  0.6208  0.5171
  638MOL0     C86056   4.841   7.106   7.798  0.7664  0.0601 -0.7845
  638MOL0     C86057   4.766   7.036   7.922 -0.3139  1.5618 -0.2840
  638MOL0     C86058   4.850   6.929   7.993 -0.0708 -0.1639  0.3891
  638MOL0     C86059   4.885   6.814   7.903  0.3749 -0.0490 -0.2147
  638MOL0     C86060   4.921   6.719   7.842 -0.1096  0.9087 -0.6052
  638MOL0     C86061   4.937   7.526   7.860  0.0708  0.1917 -0.1066
  638MOL0     C86062   5.024   7.635   7.865  0.9086 -0.2120 -0.0621
  638MOL0     H86063   5.512   7.753   8.148  0.6849  0.4902 -2.0029
  638MOL0     H86064   5.674   7.928   8.212 -0.4365 -1.5989 -0.2644
  638MOL0     H86065   5.718   8.294   8.308 -0.3065  1.7121 -3.7336
  638MOL0     H86066   5.736   8.125   8.329 -0.5830  1.5957  2.4601
  638MOL0     H86067   5.868   8.105   8.138  5.6778 -0.7152  2.3571
  638MOL0     H86068   5.830   8.282   8.079 -0.8517  1.1253  2.5435
  638MOL0     H86069   5.943   8.344   8.297  1.6222  0.3501 -0.5447
  638MOL0     H86070   6.004   8.181   8.289  1.8232 -2.6404 -3.4329
  638MOL0     H86071   6.112   8.224   8.076  1.7856 -0.0055  1.9464
  638MOL0     H86072   6.046   8.389   8.073 -0.5185  0.3213  1.2722
  638MOL0     H86073   6.159   8.428   8.298  1.2962  0.2640  0.6909
  638MOL0     H86074   6.232   8.274   8.288  0.5216  0.2728 -0.7405
  638MOL0     H86075   6.272   8.494   8.066 -0.5963  1.8941  0.5304
  638MOL0     H86076   6.375   8.474   8.203 -4.2793  3.6355  1.0972
  638MOL0     H86077   6.427   8.234   8.163  2.1124  0.1734 -1.0562
  638MOL0     H86078   6.363   8.241   8.003 -1.7907  2.7483 -1.6733
  638MOL0     H86079   6.605   8.272   8.011 -1.9324  0.0753 -2.0570
  638MOL0     H86080   6.591   8.404   8.113 -0.4730  0.6598  0.2947
  638MOL0     H86081   6.424   8.307   7.757 -2.3291 -0.0189  1.6147
  638MOL0     H86082   6.455   8.642   7.540  1.4997 -0.4285  0.5505
  638MOL0     H86083   6.450   8.477   7.514  1.7707  1.5965 -0.5163
  638MOL0     H86084   6.251   8.655   7.689  0.2320  1.2906 -1.2846
  638MOL0     H86085   6.218   8.494   7.667 -1.2696 -0.4177 -1.5699
  638MOL0     H86086   6.213   8.543   7.411  0.5948  0.7685 -2.3237
  638MOL0     H86087   6.235   8.713   7.444 -3.7006  0.1482 -2.2422
  638MOL0     H86088   5.995   8.654   7.396  0.7104 -0.3787  0.1874
  638MOL0     H86089   6.015   8.728   7.552  0.7138 -0.1800  1.4290
  638MOL0     H86090   5.775   8.394   7.517  1.3922 -0.6995  1.0750
  638MOL0     H86091   5.534   8.335   7.546 -2.4845 -1.1290  1.2294
  638MOL0     H86092   5.530   8.288   7.713  0.6876 -0.8726 -2.5918
  638MOL0     H86093   5.444   8.435   7.647  0.4462  0.1767 -0.7371
  638MOL0     H86094   5.230   8.442   7.844 -0.1298 -2.6870  0.6088
  638MOL0     H86095   5.002   8.454   7.972  0.9353 -0.6716 -0.8438
  638MOL0     H86096   4.801   8.517   8.262 -0.5441  0.1963 -0.7932
  638MOL0     H86097   4.850   8.507   8.101  0.0065  2.7995  1.1339
  638MOL0     H86098   4.906   8.248   8.144  1.0927 -1.0409  1.9073
  638MOL0     H86099   4.853   8.289   8.312  0.5848  1.4957 -0.8259
  638MOL0     H86100   4.680   8.296   8.059  0.1822 -3.7209 -0.8790
  638MOL0     H86101   4.628   8.351   8.218  0.8571 -0.4253  1.7668
  638MOL0     H86102   4.732   8.076   8.202  1.1502  0.2380  1.0624
  638MOL0     H86103   4.631   8.154   8.326  0.3153 -0.8529 -0.1838
  638MOL0     H86104   4.527   8.091   8.039 -2.3620 -0.7284 -0.2793
  638MOL0     H86105   4.440   8.169   8.157  0.7945  1.7000  0.7705
  638MOL0     H86106   4.441   7.888   8.138 -1.5600  0.4500  1.5357
  638MOL0     H86107   4.573   7.907   8.242 -2.1486 -2.7107  0.2620
  638MOL0     H86108   4.270   7.981   8.296  1.0754 -0.2305  0.8253
  638MOL0     H86109   4.405   8.044   8.388 -0.7832  0.4832 -0.2436
  638MOL0     H86110   4.348   7.751   8.317  0.3780 -0.8450 -0.1774
  638MOL0     H86111   4.281   7.811   8.456  0.0941 -0.6341 -0.8162
  638MOL0     H86112   5.217   8.549   8.333  2.1379 -4.5565  0.0229
  638MOL0     H86113   5.438   8.543   8.203  0.2379 -4.1513 -1.6455
  638MOL0     H86114   5.786   8.687   7.916  0.7823 -2.6371  1.8345
  638MOL0     H86115   5.968   8.676   7.771 -3.1593  5.3823 -3.2497
  638MOL0     H86116   5.360   8.227   8.144 -3.8719 -1.3350 -0.1734
  638MOL0     H86117   5.197   8.034   8.103  0.3127  4.1197 -1.3332
  638MOL0     H86118   5.158   7.571   8.173  1.2739  2.3810 -1.2810
  638MOL0     H86119   5.028   7.358   8.141  1.0266 -0.2383  0.4344
  638MOL0     H86120   4.966   7.271   7.756  0.8659 -2.9249 -1.0255
  638MOL0     H86121   5.016   7.199   7.902  0.6346  3.3437 -0.1046
  638MOL0     H86122   4.901   7.026   7.754  1.2693 -0.2241  0.3894
  638MOL0     H86123   4.764   7.133   7.725 -0.1641 -2.1442 -0.7204
  638MOL0     H86124   4.684   6.972   7.890  1.4547  0.2655 -2.6062
  638MOL0     H86125   4.731   7.106   7.998 -4.2522 -1.9753  1.5496
  638MOL0     H86126   4.790   6.884   8.073  0.9015 -0.9556  0.6995
  638MOL0     H86127   4.943   6.973   8.032 -0.5208  4.7210 -3.0700
  638MOL0     H86128   4.946   6.624   7.799 -3.3610  0.4580 -1.8184
  638MOL0     H86129   4.886   7.510   7.766  2.5599 -0.4141 -1.4421
  638MOL0     H86130   5.011   7.713   7.790 -1.4276  0.3082  0.7976
  639MOL0     O86131   5.202  11.164   2.924 -0.0969 -0.0641 -0.6509
  639MOL0     C86132   5.143  11.235   2.846  0.3801 -0.2506  0.6952
  639MOL0     O86133   5.204  11.335   2.780  0.2038 -0.3559 -0.1779
  639MOL0     C86134   5.345  11.360   2.793 -0.0889 -0.7899  0.3058
  639MOL0     C86135   5.389  11.445   2.684 -0.2285  0.0534 -0.7825
  639MOL0     C86136   5.527  11.485   2.673 -0.1275 -0.1522 -0.7355
  639MOL0     C86137   5.620  11.432   2.771 -0.2673 -0.6145  0.4131
  639MOL0     O86138   5.757  11.459   2.760 -0.8397 -0.2109  0.5603
  639MOL0     C86139   5.834  11.385   2.659 -0.5911 -0.6195  0.7645
  639MOL0     C86140   5.969  11.455   2.632  0.2056 -0.0741  0.9659
  639MOL0     C86141   6.081  11.403   2.732 -0.2497 -0.8261  0.2073
  639MOL0     C86142   6.146  11.273   2.697 -0.4910 -0.2876  0.0165
  639MOL0     C86143   6.282  11.253   2.770  0.0123  0.6287  0.4662
  639MOL0     C86144   6.360  11.127   2.716 -0.0685 -0.0091 -0.3981
  639MOL0     C86145   6.274  11.009   2.757  0.0744  0.7980 -0.5443
  639MOL0     C86146   6.353  10.889   2.758  0.5769 -0.5801 -0.6624
  639MOL0     N86147   6.280  10.766   2.804  0.0023  0.5405  0.7984
  639MOL0     C86148   6.209  10.743   2.917  0.7352  0.2070  0.2162
  639MOL0     C86149   6.157  10.614   2.907 -0.7298  0.6799  0.7681
  639MOL0     C86150   6.070  10.565   3.014 -0.7386  0.4915  0.5101
  639MOL0     C86151   5.919  10.596   3.006 -0.3962  0.6362  1.0171
  639MOL0     C86152   5.848  10.598   2.868  0.3041  0.2709  0.0631
  639MOL0     C86153   5.864  10.469   2.788  0.1130  0.6126  0.0126
  639MOL0     O86154   5.779  10.483   2.676 -0.6820  0.7509 -0.6438
  639MOL0     C86155   5.655  10.417   2.685  0.1021 -0.7716  0.2011
  639MOL0     C86156   5.574  10.450   2.583 -0.7349  0.1247  0.1029
  639MOL0     C86157   5.437  10.412   2.578  0.0211 -0.8515 -0.3245
  639MOL0     C86158   5.364  10.465   2.448  0.5343 -0.6842 -0.1830
  639MOL0     C86159   5.380  10.319   2.677 -0.5915 -0.8361 -1.0119
  639MOL0     C86160   5.236  10.275   2.684  0.3788  0.2154 -0.2634
  639MOL0     O86161   5.213  10.158   2.749 -0.0759 -0.2414  0.3360
  639MOL0     C86162   5.095  10.090   2.755 -0.4378 -0.3660 -0.3936
  639MOL0     C86163   4.973  10.147   2.782 -0.5609  0.4654 -0.9660
  639MOL0     C86164   4.856  10.065   2.780 -0.5138  0.1326  0.0051
  639MOL0     C86165   4.854   9.928   2.763  0.5576  0.6719 -0.3905
  639MOL0     O86166   4.737   9.855   2.776 -0.7559  1.1923  0.3021
  639MOL0     C86167   4.736   9.713   2.746  1.1989  0.4982 -0.2951
  639MOL0     C86168   4.587   9.657   2.719  0.9387  0.3363  0.1899
  639MOL0     C86169   4.586   9.503   2.694  0.2298  0.0397 -1.0025
  639MOL0     C86170   4.445   9.447   2.724 -0.0699 -0.6632 -0.0790
  639MOL0     C86171   4.434   9.299   2.701 -0.5278 -0.4794  0.2378
  639MOL0     C86172   4.290   9.268   2.645  0.6029 -0.2338 -0.3559
  639MOL0     C86173   4.252   9.124   2.672 -0.4403 -0.3218 -0.3979
  639MOL0     C86174   4.290   9.034   2.553 -0.6071 -0.7377 -0.1421
  639MOL0    Cl86175   4.253   8.866   2.583  0.5316 -0.0667  0.0244
  639MOL0     C86176   4.983   9.874   2.739  0.7866  0.9665 -0.1424
  639MOL0     C86177   5.103   9.952   2.734  0.5577  0.3192  0.4722
  639MOL0     O86178   5.153  10.344   2.622  0.4016  0.5268  0.0876
  639MOL0     C86179   5.484  10.261   2.761 -0.0833  0.1725 -0.0892
  639MOL0     C86180   5.612  10.314   2.775  0.1858 -0.6183 -0.9507
  639MOL0     N86181   6.203  10.562   2.789 -0.7536  0.3208 -0.1864
  639MOL0     N86182   6.271  10.657   2.725  1.0370 -0.4528  0.0626
  639MOL0     C86183   5.567  11.349   2.870 -0.7506  0.1344 -0.3458
  639MOL0     C86184   5.434  11.328   2.893  0.0247  0.2507  1.3702
  639MOL0     C86185   4.997  11.222   2.842  0.2242 -0.2112  0.2397
  639MOL0     C86186   4.941  11.122   2.928  0.0844 -0.6597  0.0633
  639MOL0     C86187   4.805  11.118   2.949  0.4515 -0.6569 -0.9194
  639MOL0     C86188   4.723  11.201   2.866 -0.1240  0.0196  0.6542
  639MOL0     O86189   4.590  11.207   2.865  0.7240 -0.1602  0.1618
  639MOL0     C86190   4.517  11.322   2.904 -0.0661 -0.7055 -0.1897
  639MOL0     C86191   4.493  11.321   3.053 -0.4667 -0.8338  0.4126
  639MOL0     C86192   4.414  11.197   3.099 -0.6256  0.3316 -0.1668
  639MOL0     C86193   4.492  11.075   3.143  0.1928  0.3731 -0.3265
  639MOL0     C86194   4.413  10.989   3.230  0.9558  0.9353 -0.7960
  639MOL0     C86195   4.350  10.904   3.293 -0.1084 -0.4181 -0.6187
  639MOL0     C86196   4.775  11.284   2.774 -0.7077 -0.6381  0.5515
  639MOL0     C86197   4.915  11.302   2.765  0.5564 -0.8156 -0.3008
  639MOL0     H86198   5.318  11.482   2.612 -1.5265  1.3190  1.0370
  639MOL0     H86199   5.559  11.530   2.580 -2.7622  1.2878 -1.0368
  639MOL0     H86200   5.858  11.283   2.691  2.0725 -1.1580 -2.4168
  639MOL0     H86201   5.782  11.374   2.563  0.8514 -1.7705  0.0760
  639MOL0     H86202   5.996  11.433   2.528 -2.1849  0.2112  0.2379
  639MOL0     H86203   5.958  11.564   2.644 -0.2592 -0.0217  0.1877
  639MOL0     H86204   6.163  11.474   2.730  0.1160 -0.9688  3.7271
  639MOL0     H86205   6.037  11.411   2.832 -0.1362 -0.4161  0.2231
  639MOL0     H86206   6.080  11.186   2.710 -0.4110 -0.6031 -1.5202
  639MOL0     H86207   6.158  11.267   2.589 -4.4835 -5.4814 -0.5369
  639MOL0     H86208   6.334  11.346   2.746 -0.2959  0.9367  0.9851
  639MOL0     H86209   6.260  11.238   2.876  2.1481 -2.8177  0.6109
  639MOL0     H86210   6.384  11.129   2.609  3.2405  1.2063  0.2781
  639MOL0     H86211   6.456  11.133   2.767 -0.6508  3.3970  0.5139
  639MOL0     H86212   6.247  11.026   2.861  5.1453  1.6939  0.8794
  639MOL0     H86213   6.191  11.001   2.686  0.2355 -2.1524 -0.5222
  639MOL0     H86214   6.440  10.900   2.824  0.2268 -0.2992 -0.2426
  639MOL0     H86215   6.388  10.850   2.662  2.3335 -2.1294  0.5277
  639MOL0     H86216   6.190  10.807   3.003 -0.6888  0.2518 -0.1076
  639MOL0     H86217   6.077  10.456   3.023  0.1435  0.6288  1.8062
  639MOL0     H86218   6.102  10.598   3.113 -0.9383  0.8517  0.4559
  639MOL0     H86219   5.916  10.700   3.042 -0.0317  1.5510 -1.4083
  639MOL0     H86220   5.862  10.534   3.075 -0.3053  1.3174  1.7256
  639MOL0     H86221   5.889  10.679   2.808 -0.0009  0.1716 -0.2872
  639MOL0     H86222   5.742  10.624   2.880 -0.7668 -2.0369 -3.0251
  639MOL0     H86223   5.858  10.378   2.849  2.8982 -1.2037 -2.1636
  639MOL0     H86224   5.964  10.470   2.746 -0.0582  3.0628 -0.4812
  639MOL0     H86225   5.610  10.518   2.507 -0.2278  0.4013  0.5843
  639MOL0     H86226   5.412  10.561   2.427  1.7163 -0.9153  1.3051
  639MOL0     H86227   5.375  10.392   2.368 -1.9107 -0.2486 -0.9969
  639MOL0     H86228   5.257  10.481   2.465  0.7077 -0.9587  1.2971
  639MOL0     H86229   4.981  10.255   2.793  2.1007  0.4007 -1.5016
  639MOL0     H86230   4.757  10.111   2.785 -0.5882 -0.1473  1.4459
  639MOL0     H86231   4.787   9.692   2.651 -1.3389 -2.7585 -1.1462
  639MOL0     H86232   4.778   9.653   2.827  2.3057  1.2522 -0.2880
  639MOL0     H86233   4.513   9.687   2.794  2.0332  0.0361  1.4197
  639MOL0     H86234   4.563   9.709   2.626  2.5548 -1.8280 -1.5314
  639MOL0     H86235   4.648   9.450   2.767 -0.6207  0.3891 -0.0017
  639MOL0     H86236   4.632   9.482   2.596  1.5864 -1.8144 -0.0403
  639MOL0     H86237   4.422   9.469   2.829 -1.3631 -1.7732 -0.1010
  639MOL0     H86238   4.376   9.496   2.655 -0.6976 -3.2346 -1.3829
  639MOL0     H86239   4.452   9.249   2.797 -3.3303  1.9483  2.2130
  639MOL0     H86240   4.498   9.242   2.633 -0.8472  0.4795 -0.8826
  639MOL0     H86241   4.209   9.326   2.690 -0.2617 -1.3720 -0.4016
  639MOL0     H86242   4.296   9.276   2.536 -2.7881  0.5459 -0.5920
  639MOL0     H86243   4.148   9.125   2.704  0.1576  0.5314  1.7144
  639MOL0     H86244   4.311   9.093   2.758  1.5131 -0.4919 -1.7315
  639MOL0     H86245   4.397   9.042   2.534  0.1310 -0.4741  3.4253
  639MOL0     H86246   4.230   9.075   2.471  1.4950  0.6201 -1.0891
  639MOL0     H86247   4.989   9.766   2.724  0.2674  0.8805  0.2438
  639MOL0     H86248   5.180   9.883   2.702 -1.0837 -1.4018  0.0603
  639MOL0     H86249   5.461  10.182   2.832 -4.3647  0.7144 -0.6172
  639MOL0     H86250   5.684  10.267   2.840 -0.5880  0.1989  0.5507
  639MOL0     H86251   5.639  11.320   2.946  0.6668  1.2556 -1.2001
  639MOL0     H86252   5.386  11.294   2.983 -2.0669  1.2385  0.6773
  639MOL0     H86253   5.004  11.037   2.954 -2.6054 -2.6265  0.6328
  639MOL0     H86254   4.780  11.037   3.017  0.4415 -1.1601 -1.5064
  639MOL0     H86255   4.569  11.413   2.875 -2.4678  0.8603  0.1385
  639MOL0     H86256   4.422  11.324   2.850  0.9562  1.0027 -2.0291
  639MOL0     H86257   4.441  11.417   3.065 -1.2829 -1.3204  0.8352
  639MOL0     H86258   4.590  11.320   3.104 -1.5379 -0.5294  2.5490
  639MOL0     H86259   4.349  11.161   3.018  1.3066 -1.2488 -1.1009
  639MOL0     H86260   4.356  11.227   3.187 -3.3347 -1.7373 -1.0871
  639MOL0     H86261   4.584  11.102   3.196 -1.7400  4.2066  1.5572
  639MOL0     H86262   4.508  11.025   3.047  1.0313 -3.5856  1.6748
  639MOL0     H86263   4.291  10.834   3.350 -0.1527 -0.3041 -0.5237
  639MOL0     H86264   4.706  11.346   2.718 -0.8757  1.3508  2.8023
  639MOL0     H86265   4.952  11.382   2.702  0.4505  1.2032  2.0267
  640MOL0     O86266   6.707   1.981   5.635  0.3317 -0.1253 -0.5219
  640MOL0     C86267   6.818   2.003   5.683 -0.1806  0.5407  0.3476
  640MOL0     O86268   6.842   2.068   5.803 -0.5265 -0.3975 -0.5759
  640MOL0     C86269   6.733   2.105   5.876  0.0191  0.4006  0.0680
  640MOL0     C86270   6.614   2.175   5.830 -0.9961  0.2920  0.4521
  640MOL0     C86271   6.526   2.243   5.928 -0.9705  0.4111  0.2032
  640MOL0     C86272   6.568   2.227   6.064 -0.6686  0.3210  0.5687
  640MOL0     O86273   6.510   2.282   6.169 -1.1543 -0.0966  0.1544
  640MOL0     C86274   6.369   2.274   6.183 -0.8293 -0.2013 -0.5647
  640MOL0     C86275   6.316   2.338   6.313 -0.5709 -0.6365  0.3758
  640MOL0     C86276   6.406   2.310   6.439  0.2879 -0.2290 -0.6211
  640MOL0     C86277   6.355   2.385   6.561 -0.1454 -1.0839  0.3525
  640MOL0     C86278   6.430   2.358   6.682  0.0901  0.3569  0.2230
  640MOL0     C86279   6.408   2.467   6.795  0.1210  0.7725 -0.2946
  640MOL0     C86280   6.265   2.477   6.851  0.1753  0.2975  0.2639
  640MOL0     C86281   6.209   2.341   6.883  1.2389 -0.2162 -0.9582
  640MOL0     N86282   6.272   2.284   7.003  0.5372  0.5868  0.5933
  640MOL0     C86283   6.230   2.310   7.134  0.6957 -0.2026 -0.6574
  640MOL0     C86284   6.302   2.214   7.198 -0.5020 -0.1970 -0.8110
  640MOL0     C86285   6.287   2.195   7.347 -0.0051 -0.1105 -0.7142
  640MOL0     C86286   6.180   2.090   7.384  0.0208  1.2783  0.7722
  640MOL0     C86287   6.219   1.938   7.369  0.3418  0.6857  1.0504
  640MOL0     C86288   6.182   1.879   7.238  0.2149  0.3818  0.3168
  640MOL0     O86289   6.036   1.877   7.213 -0.2382  0.1456 -0.9001
  640MOL0     C86290   5.996   1.804   7.108  0.4261  0.1438 -0.1501
  640MOL0     C86291   5.989   1.854   6.982 -0.3225  0.3418 -0.3964
  640MOL0     C86292   5.925   1.784   6.874  0.2236 -0.1563 -1.0853
  640MOL0     C86293   5.910   1.868   6.746  1.0123  0.3409 -0.1268
  640MOL0     C86294   5.884   1.650   6.884 -0.6042 -0.5318 -0.1157
  640MOL0     C86295   5.832   1.563   6.770 -0.9363  0.4801 -0.9781
  640MOL0     O86296   5.879   1.431   6.785  0.6879 -1.0620  0.3919
  640MOL0     C86297   5.806   1.335   6.717 -0.9936  0.6703 -0.6859
  640MOL0     C86298   5.873   1.207   6.710 -0.0217 -0.1615  0.3845
  640MOL0     C86299   5.818   1.100   6.641  0.0694 -0.0243 -0.1938
  640MOL0     C86300   5.693   1.112   6.582 -0.3719  0.4451  0.2707
  640MOL0     O86301   5.653   0.999   6.510 -0.3717  0.1740 -0.0837
  640MOL0     C86302   5.512   0.988   6.488 -0.6034 -0.1166  0.1505
  640MOL0     C86303   5.500   0.845   6.429  0.5587 -1.1028 -0.3904
  640MOL0     C86304   5.370   0.846   6.344  0.9111 -0.3268  0.0905
  640MOL0     C86305   5.384   0.914   6.210  0.0531 -0.7310 -0.0814
  640MOL0     C86306   5.258   0.892   6.137 -0.4817 -0.3611  0.3091
  640MOL0     C86307   5.260   0.980   6.007  0.1341  0.5078  0.3578
  640MOL0     C86308   5.335   0.917   5.889 -0.1016 -0.5677  0.7675
  640MOL0     C86309   5.357   1.022   5.778 -0.5294  0.4078  0.0120
  640MOL0    Cl86310   5.497   1.117   5.830 -0.2354 -0.1035 -0.1975
  640MOL0     C86311   5.632   1.236   6.570  0.3335 -0.6279 -0.7440
  640MOL0     C86312   5.677   1.342   6.653 -0.2768 -0.1810  0.0388
  640MOL0     O86313   5.762   1.609   6.685 -0.2247 -0.4263  0.9978
  640MOL0     C86314   5.900   1.592   7.008 -0.3216 -0.4497 -0.3258
  640MOL0     C86315   5.953   1.667   7.117 -0.7770 -1.0534 -0.4645
  640MOL0     N86316   6.376   2.135   7.109 -0.7058 -0.0868  0.0084
  640MOL0     N86317   6.375   2.184   6.992  1.1280 -0.9159 -0.0259
  640MOL0     C86318   6.679   2.153   6.107 -0.3838  0.1980  0.5512
  640MOL0     C86319   6.765   2.087   6.015  0.8655  0.0270 -0.1035
  640MOL0     C86320   6.942   1.978   5.599 -0.2955 -0.3229 -1.1184
  640MOL0     C86321   7.065   1.938   5.659  0.5280  0.4489  0.1667
  640MOL0     C86322   7.173   1.913   5.574 -0.3461  0.2512  0.4971
  640MOL0     C86323   7.152   1.919   5.434  0.6165 -1.6546  0.7862
  640MOL0     O86324   7.257   1.905   5.354  0.5216  0.9706  0.9598
  640MOL0     C86325   7.258   1.955   5.216  0.8125 -0.3369 -0.1317
  640MOL0     C86326   7.397   1.935   5.186  0.2025  0.8093 -0.4324
  640MOL0     C86327   7.453   1.797   5.173 -0.5059  0.4409 -0.0723
  640MOL0     C86328   7.347   1.699   5.133  0.3577 -0.3426  0.0667
  640MOL0     C86329   7.399   1.568   5.145  0.1635 -0.1652  0.1035
  640MOL0     C86330   7.438   1.451   5.130 -0.6401  0.3284  1.2107
  640MOL0     C86331   7.034   1.951   5.378 -0.1777 -0.9536  0.1803
  640MOL0     C86332   6.929   1.988   5.463 -0.2713 -1.0177  0.4504
  640MOL0     H86333   6.599   2.182   5.722  2.8277  2.6661 -0.1141
  640MOL0     H86334   6.440   2.288   5.880 -0.0678 -0.9113 -2.9304
  640MOL0     H86335   6.325   2.323   6.095  2.4981  1.2670 -1.5521
  640MOL0     H86336   6.334   2.172   6.163 -1.8161 -0.4246  1.9116
  640MOL0     H86337   6.317   2.447   6.302  0.4771 -0.5659  1.0263
  640MOL0     H86338   6.211   2.321   6.336 -0.0597 -1.8215  2.0458
  640MOL0     H86339   6.399   2.203   6.460  0.7473 -0.3590 -1.1015
  640MOL0     H86340   6.509   2.340   6.417  1.0458 -1.6040  0.8872
  640MOL0     H86341   6.361   2.491   6.532 -0.9573 -1.4281 -1.1914
  640MOL0     H86342   6.249   2.365   6.582 -0.5348 -0.7055 -1.1009
  640MOL0     H86343   6.402   2.260   6.721 -3.3058  1.9059  2.1520
  640MOL0     H86344   6.537   2.362   6.662 -0.0087  0.9658 -0.2211
  640MOL0     H86345   6.476   2.449   6.879 -0.7653 -1.7352 -0.0152
  640MOL0     H86346   6.439   2.561   6.750  1.0490  0.4912 -0.2697
  640MOL0     H86347   6.245   2.558   6.922 -1.2940 -0.4579  0.7391
  640MOL0     H86348   6.202   2.518   6.772  0.6685  3.9135  1.5687
  640MOL0     H86349   6.208   2.268   6.802  0.1538 -2.1978  0.7354
  640MOL0     H86350   6.105   2.357   6.914  0.9096 -0.4621 -1.9023
  640MOL0     H86351   6.146   2.363   7.176 -0.5397 -0.8806 -2.1574
  640MOL0     H86352   6.383   2.167   7.392 -0.5453 -1.0183 -0.0790
  640MOL0     H86353   6.256   2.291   7.390 -1.9488  0.2674 -2.7468
  640MOL0     H86354   6.084   2.111   7.336 -1.4029  1.5994  3.5606
  640MOL0     H86355   6.157   2.102   7.490  0.9708  0.0291  1.1466
  640MOL0     H86356   6.165   1.875   7.441  0.3779 -0.3797  0.1805
  640MOL0     H86357   6.325   1.918   7.385  0.9818  0.3205 -2.7622
  640MOL0     H86358   6.223   1.778   7.230  0.0990  0.4772 -2.4378
  640MOL0     H86359   6.229   1.934   7.156 -1.6016  3.4244  1.1463
  640MOL0     H86360   6.008   1.961   6.972  0.0009  0.3659  0.4458
  640MOL0     H86361   5.969   1.833   6.661  2.0643 -0.6315  0.9752
  640MOL0     H86362   5.803   1.865   6.722  0.4293 -0.9181  2.2738
  640MOL0     H86363   5.938   1.970   6.775  2.4135 -0.5404  1.8181
  640MOL0     H86364   5.966   1.188   6.762 -0.1583  1.8449  1.4469
  640MOL0     H86365   5.871   1.005   6.637  1.3393  0.7118 -1.1492
  640MOL0     H86366   5.452   1.003   6.578  0.9545 -1.8944  1.5564
  640MOL0     H86367   5.479   1.063   6.416  1.8239  1.5430  0.6448
  640MOL0     H86368   5.584   0.810   6.369  0.7335  0.0746 -0.8494
  640MOL0     H86369   5.492   0.781   6.518  3.2366  2.4125  2.7372
  640MOL0     H86370   5.286   0.892   6.397  0.3030  2.9192 -3.3249
  640MOL0     H86371   5.348   0.740   6.331 -3.6698  0.6092 -1.3396
  640MOL0     H86372   5.408   1.021   6.214  1.7932 -1.0490 -0.7611
  640MOL0     H86373   5.468   0.865   6.159 -1.1434 -1.0441 -1.8184
  640MOL0     H86374   5.169   0.921   6.195  0.0639  0.4667  0.7430
  640MOL0     H86375   5.237   0.787   6.114 -2.6218  0.1476 -0.2889
  640MOL0     H86376   5.155   0.977   5.976 -0.4153 -0.8169  2.1821
  640MOL0     H86377   5.298   1.081   6.021 -1.9384  1.5450 -1.0635
  640MOL0     H86378   5.292   0.822   5.856  1.9793 -1.9133  1.7379
  640MOL0     H86379   5.430   0.875   5.923  0.6693 -1.4139 -2.0984
  640MOL0     H86380   5.265   1.072   5.748 -1.2653 -1.6108 -1.2928
  640MOL0     H86381   5.397   0.963   5.695  4.3894  0.3483  2.1002
  640MOL0     H86382   5.543   1.245   6.508 -0.0847 -1.9228 -0.3378
  640MOL0     H86383   5.616   1.432   6.646  0.1159  0.1824  0.9760
  640MOL0     H86384   5.857   1.492   7.018 -1.1028 -0.4022 -2.6050
  640MOL0     H86385   5.965   1.627   7.217  0.7886 -0.4540 -0.3857
  640MOL0     H86386   6.711   2.151   6.211  2.0115  1.2331 -0.0937
  640MOL0     H86387   6.855   2.039   6.051  2.1234  0.8275 -1.9841
  640MOL0     H86388   7.078   1.925   5.765 -3.3699 -0.8533  0.6336
  640MOL0     H86389   7.270   1.886   5.615  0.2523 -0.0593 -1.0695
  640MOL0     H86390   7.186   1.905   5.151  1.4087 -2.6047  0.8395
  640MOL0     H86391   7.247   2.064   5.211  0.5686 -0.3115  0.7835
  640MOL0     H86392   7.459   1.963   5.272  1.8828 -3.8997  0.1356
  640MOL0     H86393   7.430   1.979   5.091 -0.9077  0.3892 -1.0207
  640MOL0     H86394   7.497   1.763   5.267  0.4359 -0.0262 -0.6587
  640MOL0     H86395   7.528   1.781   5.095  0.8708 -0.7879  1.4256
  640MOL0     H86396   7.311   1.722   5.032  1.7926 -0.0782 -0.4080
  640MOL0     H86397   7.264   1.705   5.204  1.5065  0.8750  1.3883
  640MOL0     H86398   7.456   1.346   5.122 -2.1031  0.2229 -3.4371
  640MOL0     H86399   7.004   1.949   5.273  1.7545 -3.4208 -0.4093
  640MOL0     H86400   6.834   2.019   5.420  0.2903  2.6652  1.4938
  641MOL0     O86401   8.757   7.269   9.902  0.6156  0.0360  0.0969
  641MOL0     C86402   8.638   7.254   9.928 -0.0952 -0.6825  0.7074
  641MOL0     O86403   8.592   7.198  10.050  0.0237 -0.0579 -0.1294
  641MOL0     C86404   8.672   7.142  10.147 -0.2160  0.3399  0.6749
  641MOL0     C86405   8.816   7.151  10.166  0.7711  0.4550 -0.5547
  641MOL0     C86406   8.874   7.092  10.279 -0.9268 -0.5550  1.3224
  641MOL0     C86407   8.800   7.045  10.382  0.1304  1.4273  0.6418
  641MOL0     O86408   8.862   6.998  10.496 -0.0496  0.4194  0.3088
  641MOL0     C86409   8.789   7.008  10.627 -1.4909 -1.3169 -0.4421
  641MOL0     C86410   8.761   7.160  10.660 -0.0782  0.4765 -0.4150
  641MOL0     C86411   8.789   7.182  10.813  0.4585 -0.7233 -0.0226
  641MOL0     C86412   8.757   7.328  10.849 -0.5026 -0.3871  0.7784
  641MOL0     C86413   8.805   7.365  10.985 -0.4250 -0.2121  0.2493
  641MOL0     C86414   8.774   7.510  11.031 -0.6929 -0.8570  0.9515
  641MOL0     C86415   8.880   7.566  11.133 -0.2383 -0.4769 -0.0834
  641MOL0     C86416   9.024   7.594  11.071  0.3417  0.1758 -0.2024
  641MOL0     N86417   9.126   7.617  11.173 -0.0972 -0.2895 -1.3536
  641MOL0     C86418   9.256   7.611  11.149 -1.3071 -0.1719 -0.3312
  641MOL0     C86419   9.323   7.623  11.266  0.5650  0.2208  0.1321
  641MOL0     C86420   9.469   7.631  11.280 -0.0034 -0.3928 -0.3093
  641MOL0     C86421   9.531   7.762  11.268 -0.1344 -1.1694  0.0764
  641MOL0     C86422   9.525   7.831  11.132  0.3304  0.0196 -0.7208
  641MOL0     C86423   9.595   7.750  11.033 -0.3810  0.3631 -0.4673
  641MOL0     O86424   9.630   7.831  10.925  0.4284  0.0012  0.0225
  641MOL0     C86425   9.719   7.789  10.826 -0.0850 -0.2382  0.0979
  641MOL0     C86426   9.780   7.661  10.824 -0.8966 -0.4265 -0.0581
  641MOL0     C86427   9.849   7.614  10.706  0.1093  0.9166  0.6682
  641MOL0     C86428   9.909   7.466  10.716 -0.1060 -0.0032 -0.6899
  641MOL0     C86429   9.876   7.708  10.607  0.7101  0.0137 -0.2793
  641MOL0     C86430   9.967   7.682  10.492 -0.2115 -0.3446  0.0248
  641MOL0     O86431   9.995   7.785  10.408  0.5941  0.2280 -0.2711
  641MOL0     C86432  10.087   7.758  10.311 -1.3291 -0.5170  0.0879
  641MOL0     C86433  10.047   7.730  10.178  0.6183 -0.0967 -1.9523
  641MOL0     C86434  10.139   7.733  10.073  0.4872  0.2201 -0.4095
  641MOL0     C86435  10.269   7.771  10.098  0.1022  0.6582 -0.5215
  641MOL0     O86436  10.352   7.773   9.985  0.1728  0.1996 -0.4627
  641MOL0     C86437  10.493   7.809   9.996  0.6131 -0.5550 -0.1631
  641MOL0     C86438  10.554   7.846   9.862  0.2623  0.2368 -0.1822
  641MOL0     C86439  10.481   7.957   9.781  0.0017  1.0051 -1.3345
  641MOL0     C86440  10.496   8.093   9.844 -0.6605  0.2099 -0.8838
  641MOL0     C86441  10.432   8.212   9.761 -0.3177 -0.1308  0.2011
  641MOL0     C86442  10.283   8.205   9.749  0.7335  0.2112  0.1714
  641MOL0     C86443  10.193   8.205   9.870 -0.0109  0.3447  0.2958
  641MOL0     C86444  10.045   8.225   9.835  0.1251  0.3695 -0.4594
  641MOL0    Cl86445  10.007   8.284   9.674 -0.0774 -0.1325 -0.2511
  641MOL0     C86446  10.312   7.773  10.227  0.1760 -0.6214 -0.4494
  641MOL0     C86447  10.226   7.775  10.334  0.2844  0.4781  0.1308
  641MOL0     O86448  10.025   7.572  10.481  0.5949  0.5052  0.7713
  641MOL0     C86449   9.809   7.825  10.611  0.2842 -0.2170 -0.7352
  641MOL0     C86450   9.729   7.863  10.718  0.9025 -1.2017  0.2775
  641MOL0     N86451   9.229   7.637  11.364 -0.9191 -0.0532 -0.2217
  641MOL0     N86452   9.120   7.631  11.309 -0.6390  0.6470  0.1590
  641MOL0     C86453   8.664   7.033  10.367 -0.0443  0.6318  0.1106
  641MOL0     C86454   8.599   7.071  10.249 -0.1017 -0.0856 -0.3408
  641MOL0     C86455   8.532   7.318   9.844 -0.2281  0.3926 -0.3549
  641MOL0     C86456   8.576   7.375   9.725  0.2397 -0.5804 -0.1008
  641MOL0     C86457   8.480   7.432   9.641  0.7329  0.3889  0.4510
  641MOL0     C86458   8.347   7.445   9.677  0.3894 -0.1172 -0.1285
  641MOL0     O86459   8.254   7.489   9.588 -0.3354 -0.2664  0.2841
  641MOL0     C86460   8.142   7.405   9.561 -0.1695 -0.2974 -0.2937
  641MOL0     C86461   8.108   7.438   9.411  0.2222 -0.0867 -0.0457
  641MOL0     C86462   8.029   7.572   9.402 -0.6488 -0.3232 -0.3021
  641MOL0     C86463   8.042   7.632   9.261  1.0331 -0.1148  0.5041
  641MOL0     C86464   8.012   7.777   9.274 -0.0776 -0.5223 -0.5145
  641MOL0     C86465   8.004   7.904   9.282 -0.5120 -0.8578 -0.3724
  641MOL0     C86466   8.306   7.402   9.799 -0.6424 -0.3582 -0.0875
  641MOL0     C86467   8.400   7.338   9.887  0.0814 -0.4318 -0.1265
  641MOL0     H86468   8.885   7.196  10.096  0.2338  1.0780 -0.6874
  641MOL0     H86469   8.982   7.095  10.279 -0.8879 -0.6297  3.2814
  641MOL0     H86470   8.698   6.949  10.641 -2.2894 -0.1825 -0.6998
  641MOL0     H86471   8.859   6.969  10.701  0.9266 -2.1030 -2.9722
  641MOL0     H86472   8.825   7.225  10.600  0.9803  3.0632  3.1654
  641MOL0     H86473   8.654   7.173  10.643 -0.3636 -1.3303 -0.1992
  641MOL0     H86474   8.735   7.101  10.864  2.7141 -1.8510  0.6660
  641MOL0     H86475   8.897   7.169  10.820  0.5112  0.1252  1.0326
  641MOL0     H86476   8.812   7.389  10.776 -0.7306  0.6819  1.4849
  641MOL0     H86477   8.651   7.355  10.838 -0.2581  0.9369  1.4990
  641MOL0     H86478   8.757   7.302  11.061  3.2562 -0.4947  2.5907
  641MOL0     H86479   8.914   7.356  10.982 -0.3207  1.0530 -0.5498
  641MOL0     H86480   8.781   7.568  10.938 -0.3842 -2.7556 -0.2732
  641MOL0     H86481   8.672   7.513  11.071  0.2714 -0.3148  3.5705
  641MOL0     H86482   8.843   7.665  11.163  0.5973 -0.6322  1.5945
  641MOL0     H86483   8.871   7.501  11.220 -2.8364  0.4999  0.4541
  641MOL0     H86484   9.031   7.689  11.017  3.8999  1.8739  2.8105
  641MOL0     H86485   9.048   7.517  10.997  0.2919 -0.7986  0.7784
  641MOL0     H86486   9.308   7.611  11.053  3.4670  2.1060  1.9157
  641MOL0     H86487   9.493   7.594  11.380  0.3140 -1.1582 -0.6609
  641MOL0     H86488   9.523   7.567  11.210  1.7882  2.1732 -1.4307
  641MOL0     H86489   9.636   7.757  11.300  0.0209  2.9812  0.7564
  641MOL0     H86490   9.488   7.829  11.343 -0.7475  1.3251 -2.3319
  641MOL0     H86491   9.566   7.931  11.152 -1.7421  1.4195 -2.9071
  641MOL0     H86492   9.425   7.862  11.099  1.1497  0.4085 -2.9802
  641MOL0     H86493   9.529   7.670  10.997  0.7640 -0.0545 -1.7198
  641MOL0     H86494   9.688   7.709  11.072 -0.0131  1.2459 -0.3942
  641MOL0     H86495   9.777   7.597  10.912  5.5022  1.8714  2.4397
  641MOL0     H86496   9.879   7.407  10.804  2.3470  1.8995  1.5920
  641MOL0     H86497   9.871   7.418  10.626 -2.4019  1.8881 -0.8266
  641MOL0     H86498  10.018   7.463  10.722 -0.0696  1.7186  0.1524
  641MOL0     H86499   9.941   7.721  10.155  0.5033  1.3957 -2.1058
  641MOL0     H86500  10.099   7.707   9.975  2.9778 -2.3157 -0.8685
  641MOL0     H86501  10.500   7.888  10.071 -1.3556 -3.3644  3.3048
  641MOL0     H86502  10.545   7.718  10.029 -0.2084 -0.5618  1.1617
  641MOL0     H86503  10.657   7.881   9.869  0.7934 -1.0973 -1.0107
  641MOL0     H86504  10.564   7.759   9.796 -1.5670 -1.9801  2.2255
  641MOL0     H86505  10.373   7.938   9.777 -0.1784  0.7471  1.8765
  641MOL0     H86506  10.521   7.965   9.679 -0.9873  1.5503 -1.6946
  641MOL0     H86507  10.471   8.095   9.950  1.0095  2.7605 -0.4498
  641MOL0     H86508  10.601   8.120   9.854 -1.0330  2.4222 -2.0542
  641MOL0     H86509  10.465   8.215   9.657  1.7246  0.4896  0.8183
  641MOL0     H86510  10.460   8.310   9.801 -2.5448  1.2183 -1.2880
  641MOL0     H86511  10.257   8.285   9.679  0.6884  0.1643  0.1340
  641MOL0     H86512  10.270   8.106   9.703  3.4460 -0.3129  0.3500
  641MOL0     H86513  10.222   8.287   9.936  2.4656 -0.8283  0.7533
  641MOL0     H86514  10.201   8.112   9.926  0.3745  1.4752  2.2008
  641MOL0     H86515   9.994   8.298   9.899 -2.5851 -2.6527  1.0998
  641MOL0     H86516   9.992   8.131   9.853  3.1444 -1.1391  1.2718
  641MOL0     H86517  10.417   7.791  10.243 -0.6146  1.3945  3.8178
  641MOL0     H86518  10.255   7.783  10.439  0.1470 -1.5234  0.3628
  641MOL0     H86519   9.832   7.904  10.540  3.1729  0.4102  0.7347
  641MOL0     H86520   9.682   7.960  10.721  2.5259 -0.3816  0.6486
  641MOL0     H86521   8.597   6.985  10.438  0.1149  3.2558  2.1773
  641MOL0     H86522   8.491   7.058  10.253 -0.0899 -2.1514 -3.2182
  641MOL0     H86523   8.680   7.364   9.696  0.6485  0.0993  1.0218
  641MOL0     H86524   8.505   7.463   9.540 -1.9131  0.4881 -0.2533
  641MOL0     H86525   8.161   7.299   9.582 -1.5330 -0.7607 -1.2956
  641MOL0     H86526   8.054   7.435   9.619 -1.5469  0.8220 -2.7890
  641MOL0     H86527   8.049   7.353   9.378 -2.4815  1.5853  0.2066
  641MOL0     H86528   8.188   7.441   9.337  0.2424 -0.9244 -0.0608
  641MOL0     H86529   8.083   7.636   9.471  2.9181 -1.3837 -1.8728
  641MOL0     H86530   7.921   7.567   9.420 -0.6257 -3.4178 -0.3750
  641MOL0     H86531   7.975   7.591   9.185  0.7374 -0.4988  0.9683
  641MOL0     H86532   8.138   7.607   9.216 -0.7911 -3.4783 -1.9801
  641MOL0     H86533   8.002   8.010   9.271 -0.4277 -0.3336  3.3059
  641MOL0     H86534   8.202   7.411   9.829 -0.0046  0.6985  1.9914
  641MOL0     H86535   8.369   7.288   9.979  0.7124  1.3010  1.0772
  642MOL0     O86536  11.081   8.884   7.210 -0.0617 -0.2085  0.0194
  642MOL0     C86537  10.977   8.940   7.247 -0.2505  1.6502 -0.5917
  642MOL0     O86538  10.973   9.052   7.324  0.4218 -0.7191  0.0133
  642MOL0     C86539  11.094   9.102   7.353 -0.6476  0.5235 -0.6891
  642MOL0     C86540  11.125   9.232   7.305  0.6535  0.1798 -0.3759
  642MOL0     C86541  11.251   9.283   7.320  0.5387 -0.9143 -0.4765
  642MOL0     C86542  11.344   9.213   7.389 -0.2680 -0.1405  0.7420
  642MOL0     O86543  11.461   9.282   7.411 -0.2244 -0.2131 -1.1753
  642MOL0     C86544  11.574   9.194   7.376 -0.4918 -0.2465 -0.3036
  642MOL0     C86545  11.701   9.276   7.394 -0.8611 -0.0285 -0.7009
  642MOL0     C86546  11.713   9.349   7.524  0.2367 -0.7940 -1.2101
  642MOL0     C86547  11.839   9.443   7.534  0.6651  0.5622 -0.0438
  642MOL0     C86548  11.839   9.516   7.673 -0.4103  0.7268 -0.4089
  642MOL0     C86549  11.878   9.425   7.795  0.6082  0.2435  1.1564
  642MOL0     C86550  11.867   9.500   7.931 -0.1484 -0.7296  0.1787
  642MOL0     C86551  11.953   9.432   8.043 -0.4241 -0.1527  0.1546
  642MOL0     N86552  11.890   9.311   8.092  0.8316  0.2997  0.3605
  642MOL0     C86553  11.752   9.303   8.142 -0.1356 -0.0113  0.5727
  642MOL0     C86554  11.729   9.168   8.153  1.0601 -0.3001 -0.5568
  642MOL0     C86555  11.616   9.116   8.236  1.5304  0.3623  0.0861
  642MOL0     C86556  11.598   8.961   8.239 -0.3346 -0.2009 -0.2460
  642MOL0     C86557  11.593   8.890   8.095  0.4004  0.2694 -0.3916
  642MOL0     C86558  11.509   8.966   7.997  0.1205  0.8346 -0.1126
  642MOL0     O86559  11.495   8.887   7.869 -0.4036  0.1196  0.3197
  642MOL0     C86560  11.600   8.898   7.780 -0.6615 -0.5954 -0.1928
  642MOL0     C86561  11.590   8.807   7.680 -0.0383 -0.1786  0.1420
  642MOL0     C86562  11.669   8.806   7.565 -0.5663  0.2396 -0.8811
  642MOL0     C86563  11.655   8.685   7.474  1.1216 -0.4375  0.4604
  642MOL0     C86564  11.766   8.910   7.542  0.3342  0.4496  0.3536
  642MOL0     C86565  11.851   8.928   7.428  0.4225  0.0547 -0.3401
  642MOL0     O86566  11.959   8.999   7.451 -0.4866 -0.3527 -0.2035
  642MOL0     C86567  12.046   9.028   7.345 -0.2690 -1.9034  0.1113
  642MOL0     C86568  12.109   9.155   7.337 -0.3467  0.2302  0.2124
  642MOL0     C86569  12.192   9.187   7.226  0.0252  0.2464 -1.6355
  642MOL0     C86570  12.206   9.099   7.118  0.8793  0.2253  0.0582
  642MOL0     O86571  12.277   9.141   7.003 -0.1512 -0.1289  0.3045
  642MOL0     C86572  12.417   9.177   7.015 -0.0675  0.5571 -0.5543
  642MOL0     C86573  12.472   9.177   6.868 -1.4388 -0.0626 -0.8154
  642MOL0     C86574  12.630   9.180   6.864 -0.1037  0.2814 -0.0064
  642MOL0     C86575  12.661   9.195   6.714  0.1385 -0.7739  0.4020
  642MOL0     C86576  12.800   9.253   6.692 -1.0079  0.7759  0.3145
  642MOL0     C86577  12.844   9.235   6.545 -0.0039  0.2127 -0.8397
  642MOL0     C86578  12.980   9.306   6.526  0.3148  0.6468 -0.2027
  642MOL0     C86579  13.115   9.225   6.565 -0.4392  1.1757  0.6985
  642MOL0    Cl86580  13.150   9.081   6.470  0.3443  0.2636  0.6455
  642MOL0     C86581  12.139   8.977   7.124  0.5227  0.0261 -0.0898
  642MOL0     C86582  12.070   8.944   7.241  0.2388  0.5469  0.5929
  642MOL0     O86583  11.804   8.899   7.323  0.6028 -0.1685 -0.6373
  642MOL0     C86584  11.782   8.991   7.654 -0.0356 -0.1410  0.2224
  642MOL0     C86585  11.705   8.989   7.767 -0.0631  0.0204  0.8961
  642MOL0     N86586  11.844   9.105   8.111  0.0944  0.5129 -0.1080
  642MOL0     N86587  11.925   9.188   8.057  0.1254  0.2725 -0.5725
  642MOL0     C86588  11.314   9.097   7.459  0.1239  0.3052  0.5988
  642MOL0     C86589  11.184   9.035   7.441 -0.0668 -0.4544 -0.0263
  642MOL0     C86590  10.846   8.883   7.203 -0.1726 -0.0753 -0.4733
  642MOL0     C86591  10.721   8.941   7.216 -0.0805  0.5527 -0.2436
  642MOL0     C86592  10.606   8.877   7.175 -0.4282  0.0020  0.4310
  642MOL0     C86593  10.609   8.753   7.106  0.0364  0.9560 -1.1325
  642MOL0     O86594  10.494   8.688   7.058 -0.2396 -0.2333 -0.0694
  642MOL0     C86595  10.361   8.745   7.062  0.0282  0.1264 -0.1149
  642MOL0     C86596  10.273   8.685   6.952 -0.1912  1.0644 -0.2660
  642MOL0     C86597  10.248   8.538   6.975 -0.2974 -1.1337  0.9417
  642MOL0     C86598  10.155   8.483   6.853 -0.3505  0.2860  0.9335
  642MOL0     C86599  10.221   8.482   6.723  0.0762  0.1063  0.2456
  642MOL0     C86600  10.268   8.464   6.615 -0.0820 -0.1120  0.7803
  642MOL0     C86601  10.735   8.695   7.086  0.6875 -0.2073  0.6310
  642MOL0     C86602  10.849   8.766   7.128 -0.0907 -0.9038 -0.0662
  642MOL0     H86603  11.048   9.290   7.254  1.5384  3.0207  1.2434
  642MOL0     H86604  11.270   9.382   7.279 -1.8959  0.3094  1.1196
  642MOL0     H86605  11.574   9.107   7.442 -0.2161 -0.0803 -0.0847
  642MOL0     H86606  11.569   9.153   7.274  2.3307  0.9878 -1.0206
  642MOL0     H86607  11.793   9.216   7.390 -0.3365  0.8358 -2.1165
  642MOL0     H86608  11.716   9.341   7.308 -1.1191 -2.0553 -2.3483
  642MOL0     H86609  11.618   9.402   7.536 -1.2001 -3.9014  3.9758
  642MOL0     H86610  11.715   9.280   7.609 -0.2457  1.7200  0.9684
  642MOL0     H86611  11.931   9.384   7.532  0.5838  0.0199  4.2502
  642MOL0     H86612  11.818   9.514   7.453  0.9559  0.1000 -0.5221
  642MOL0     H86613  11.920   9.589   7.666  2.0522 -1.2206  3.7946
  642MOL0     H86614  11.742   9.556   7.704 -1.5987 -2.5651  0.5330
  642MOL0     H86615  11.790   9.360   7.785  1.5762 -0.7603 -1.6693
  642MOL0     H86616  11.978   9.386   7.772  0.1597 -0.3054  0.0915
  642MOL0     H86617  11.913   9.598   7.917 -0.1075 -0.5262  1.6345
  642MOL0     H86618  11.761   9.512   7.953 -1.0850 -1.3497 -3.4011
  642MOL0     H86619  11.976   9.512   8.113  1.7814 -0.3657 -0.2679
  642MOL0     H86620  12.056   9.415   8.010 -0.5355 -0.8725  0.1559
  642MOL0     H86621  11.704   9.387   8.190 -1.8307  0.2586 -1.4666
  642MOL0     H86622  11.636   9.153   8.336 -2.4786 -1.5581  1.8341
  642MOL0     H86623  11.523   9.157   8.195  1.6725  0.8004  0.1961
  642MOL0     H86624  11.508   8.940   8.298 -0.8388 -0.1008 -0.9654
  642MOL0     H86625  11.693   8.933   8.286  0.9455  1.9363 -1.4000
  642MOL0     H86626  11.554   8.788   8.105 -0.0581  0.6188  2.2736
  642MOL0     H86627  11.693   8.872   8.055  0.2219  0.6680 -1.0319
  642MOL0     H86628  11.552   9.065   7.982  0.8462  0.4909 -0.3765
  642MOL0     H86629  11.413   8.978   8.048  0.7537 -1.6631  1.9185
  642MOL0     H86630  11.501   8.745   7.683 -0.2617 -0.0307 -2.1340
  642MOL0     H86631  11.599   8.608   7.527 -1.9913  0.4042 -1.3820
  642MOL0     H86632  11.595   8.716   7.388  0.9134 -0.7427  0.4927
  642MOL0     H86633  11.750   8.637   7.446  0.7892 -2.2826  2.1979
  642MOL0     H86634  12.088   9.241   7.401  0.1781 -0.7286  1.7047
  642MOL0     H86635  12.239   9.284   7.238 -3.4103  2.1129 -2.0991
  642MOL0     H86636  12.420   9.281   7.047 -3.9800  0.7400 -0.2532
  642MOL0     H86637  12.477   9.111   7.080  1.5220  2.1381 -0.3447
  642MOL0     H86638  12.449   9.075   6.833 -1.1168 -1.1938  1.9635
  642MOL0     H86639  12.416   9.252   6.812  2.7635  3.0816 -1.2590
  642MOL0     H86640  12.676   9.097   6.918 -1.1180 -1.5371 -1.8358
  642MOL0     H86641  12.675   9.271   6.905  6.3895 -1.4978 -1.9980
  642MOL0     H86642  12.650   9.097   6.665  0.5061 -1.2330  1.2122
  642MOL0     H86643  12.601   9.276   6.673  2.5969  0.9390 -0.0139
  642MOL0     H86644  12.874   9.195   6.747 -1.9794 -2.0487 -1.1492
  642MOL0     H86645  12.805   9.356   6.728 -0.7002  0.1305  2.1753
  642MOL0     H86646  12.860   9.132   6.511 -1.7633  0.0350 -1.2351
  642MOL0     H86647  12.780   9.294   6.479  0.4268 -0.5865 -2.0155
  642MOL0     H86648  12.970   9.405   6.573  1.0980  0.1277  1.1035
  642MOL0     H86649  12.984   9.321   6.417 -0.6077 -3.1799 -0.8848
  642MOL0     H86650  13.118   9.211   6.673  1.8074  1.1724  0.6700
  642MOL0     H86651  13.195   9.297   6.549  4.4051 -2.9822  3.2443
  642MOL0     H86652  12.136   8.916   7.034 -0.8378  0.2871 -0.2348
  642MOL0     H86653  12.034   8.842   7.250  0.4576  0.5344  1.3335
  642MOL0     H86654  11.853   9.073   7.662  0.1693 -0.1797 -1.0078
  642MOL0     H86655  11.719   9.061   7.847 -1.5292  0.7472  0.5334
  642MOL0     H86656  11.390   9.051   7.520 -0.4279 -0.0178  1.0506
  642MOL0     H86657  11.155   8.938   7.480  1.2621 -0.4344  1.0907
  642MOL0     H86658  10.712   9.042   7.254 -2.6071  0.3443 -0.1276
  642MOL0     H86659  10.510   8.921   7.199 -0.6317 -0.6831  0.9220
  642MOL0     H86660  10.313   8.731   7.159  1.1862  3.7532  1.1647
  642MOL0     H86661  10.359   8.854   7.045  0.2678  0.0648 -0.5553
  642MOL0     H86662  10.323   8.709   6.857  0.1128 -0.9470 -0.6578
  642MOL0     H86663  10.178   8.738   6.952 -1.4828 -1.0365 -2.2383
  642MOL0     H86664  10.205   8.531   7.075  1.4783 -0.8774  1.7525
  642MOL0     H86665  10.337   8.475   6.973 -0.9886 -2.1271 -0.1887
  642MOL0     H86666  10.068   8.549   6.851 -1.9613 -1.6066  2.9314
  642MOL0     H86667  10.128   8.386   6.895  1.5167  0.2925  2.3049
  642MOL0     H86668  10.295   8.455   6.512  0.3280  4.5804  0.2518
  642MOL0     H86669  10.747   8.613   7.017 -2.4734  0.3072 -0.6713
  642MOL0     H86670  10.946   8.736   7.090 -0.4143  1.1439 -2.8009
  643MOL0     O86671   5.667   6.347   3.325 -0.0441  0.4549 -0.3770
  643MOL0     C86672   5.746   6.291   3.252 -0.0827  0.1888  0.6248
  643MOL0     O86673   5.751   6.304   3.114 -0.4710 -1.2591 -0.5722
  643MOL0     C86674   5.652   6.373   3.058 -0.6131 -0.5503  0.0075
  643MOL0     C86675   5.523   6.327   3.052  0.6554 -0.3368 -0.8395
  643MOL0     C86676   5.422   6.404   2.998 -0.5613 -0.0577 -0.3462
  643MOL0     C86677   5.446   6.531   2.951 -0.0127  0.0261 -0.2551
  643MOL0     O86678   5.341   6.615   2.922 -1.0379  0.8261 -1.0237
  643MOL0     C86679   5.199   6.585   2.930  0.0474 -0.4977  0.8561
  643MOL0     C86680   5.147   6.618   3.071 -0.4611  0.6132  0.4984
  643MOL0     C86681   4.988   6.612   3.070  0.4248 -0.0613  0.2951
  643MOL0     C86682   4.919   6.723   3.006  0.6169 -0.3802 -0.1711
  643MOL0     C86683   4.761   6.707   3.005  0.0020  0.3879  0.0394
  643MOL0     C86684   4.696   6.828   2.956  0.2883  0.6707 -0.5391
  643MOL0     C86685   4.539   6.813   2.968  0.2695  0.5857 -0.3738
  643MOL0     C86686   4.464   6.926   2.898 -0.1253 -0.4163 -0.1752
  643MOL0     N86687   4.443   6.908   2.754 -0.6367 -0.6688  0.6645
  643MOL0     C86688   4.324   6.860   2.706  0.7556  1.0561  0.1234
  643MOL0     C86689   4.367   6.808   2.585 -0.5983 -0.2643 -0.2096
  643MOL0     C86690   4.282   6.725   2.486  0.2494  0.0391 -0.8876
  643MOL0     C86691   4.374   6.608   2.439  0.6371  1.0063  1.0742
  643MOL0     C86692   4.429   6.524   2.550 -0.0562 -0.3236  0.6803
  643MOL0     C86693   4.436   6.374   2.507  0.4430 -0.0591 -0.6643
  643MOL0     O86694   4.512   6.301   2.597 -0.2697  0.5972  0.1188
  643MOL0     C86695   4.450   6.281   2.717  0.2861 -0.1379  0.8147
  643MOL0     C86696   4.345   6.201   2.740 -0.1340  0.2115  0.7491
  643MOL0     C86697   4.283   6.185   2.862 -0.1432  0.0656 -0.4261
  643MOL0     C86698   4.172   6.075   2.877 -0.2449  0.0321 -0.0433
  643MOL0     C86699   4.330   6.261   2.971 -0.1294 -0.2710 -0.2362
  643MOL0     C86700   4.271   6.261   3.107  0.1629  0.1924 -0.3045
  643MOL0     O86701   4.296   6.374   3.175  0.1489 -0.2864 -0.1087
  643MOL0     C86702   4.240   6.378   3.304  1.0514 -0.0697  0.8060
  643MOL0     C86703   4.288   6.298   3.402  0.3423 -0.0936  0.5285
  643MOL0     C86704   4.218   6.282   3.522  0.1652  0.4462  0.5370
  643MOL0     C86705   4.105   6.360   3.542  0.5125  0.2389 -0.3085
  643MOL0     O86706   4.049   6.351   3.669  0.4197 -1.6934  0.8648
  643MOL0     C86707   3.949   6.451   3.710 -0.1474 -0.9356  0.4010
  643MOL0     C86708   3.806   6.414   3.681 -1.1572 -0.9751  0.1102
  643MOL0     C86709   3.721   6.510   3.759  1.0199  0.1649 -0.7654
  643MOL0     C86710   3.707   6.647   3.696 -0.3047  0.8649  0.7611
  643MOL0     C86711   3.598   6.730   3.760 -1.0566 -0.8058  0.5097
  643MOL0     C86712   3.613   6.884   3.738  0.5391 -0.7531  0.7995
  643MOL0     C86713   3.746   6.944   3.775  0.0368 -0.8601  0.4481
  643MOL0     C86714   3.749   7.102   3.780 -0.5484  0.7317 -0.4592
  643MOL0    Cl86715   3.708   7.174   3.631  0.4221  0.1345 -0.3330
  643MOL0     C86716   4.063   6.458   3.446  0.2968 -0.0375  0.2940
  643MOL0     C86717   4.137   6.471   3.328 -0.0506 -0.1565  0.7648
  643MOL0     O86718   4.206   6.162   3.146  0.3453  0.7210 -0.1195
  643MOL0     C86719   4.428   6.360   2.938  0.0793 -0.5632 -0.6904
  643MOL0     C86720   4.492   6.364   2.816  0.0620  0.3697  0.0319
  643MOL0     N86721   4.496   6.852   2.560  0.3378 -0.7140  1.2780
  643MOL0     N86722   4.539   6.921   2.654 -1.0246  0.2463  0.1173
  643MOL0     C86723   5.581   6.576   2.952  0.3305  0.1013 -0.5551
  643MOL0     C86724   5.685   6.504   3.015  0.2856  0.2809 -0.3811
  643MOL0     C86725   5.852   6.202   3.309 -0.2214 -0.3007 -0.3753
  643MOL0     C86726   5.867   6.188   3.449  0.3780  1.5200 -0.3222
  643MOL0     C86727   5.984   6.125   3.493  0.9018  0.7189 -0.0125
  643MOL0     C86728   6.073   6.063   3.400  0.4137  0.3651 -0.4380
  643MOL0     O86729   6.184   5.995   3.432 -0.1963  0.2346 -0.0520
  643MOL0     C86730   6.185   5.886   3.532  0.6295  0.5818  0.7765
  643MOL0     C86731   6.231   5.945   3.664 -0.5464  0.6492 -0.0171
  643MOL0     C86732   6.321   6.070   3.669  0.1844 -0.5284  0.4069
  643MOL0     C86733   6.462   6.053   3.614  0.1831 -0.4641  0.3894
  643MOL0     C86734   6.555   6.163   3.627 -0.0482 -0.6182  0.5819
  643MOL0     C86735   6.626   6.257   3.642  0.0073 -0.8408  0.4821
  643MOL0     C86736   6.054   6.076   3.273  0.2178 -0.0796 -0.2317
  643MOL0     C86737   5.948   6.149   3.224 -1.2339  0.2354  0.0720
  643MOL0     H86738   5.500   6.227   3.087 -0.2928 -0.2670 -1.2228
  643MOL0     H86739   5.324   6.360   3.012  0.2446 -1.6615  0.6746
  643MOL0     H86740   5.160   6.658   2.859  0.6235 -1.3151 -0.3326
  643MOL0     H86741   5.182   6.480   2.905 -0.6363 -0.1494 -0.2149
  643MOL0     H86742   5.186   6.536   3.132 -0.8587  0.0259 -0.0126
  643MOL0     H86743   5.179   6.715   3.109  0.0006 -0.2887  2.5185
  643MOL0     H86744   4.948   6.520   3.027 -0.8623 -0.9423  3.1319
  643MOL0     H86745   4.957   6.599   3.174 -1.0676 -2.4768 -0.3707
  643MOL0     H86746   4.941   6.806   3.074 -0.2922  2.3596 -2.9833
  643MOL0     H86747   4.952   6.748   2.905 -0.9525 -2.4651 -1.2661
  643MOL0     H86748   4.728   6.625   2.941  2.1472 -0.6761  0.1953
  643MOL0     H86749   4.730   6.687   3.108 -0.2000 -1.0394 -0.2773
  643MOL0     H86750   4.729   6.899   3.033 -0.3210  1.0570 -0.6194
  643MOL0     H86751   4.729   6.859   2.857  1.2788  1.5744  0.0548
  643MOL0     H86752   4.516   6.718   2.920  1.5986 -0.0505  0.1985
  643MOL0     H86753   4.505   6.816   3.072  0.5940  2.1454 -0.2827
  643MOL0     H86754   4.497   7.028   2.917 -2.4074  0.6427 -1.4759
  643MOL0     H86755   4.361   6.926   2.936 -0.6587  2.4576 -1.3811
  643MOL0     H86756   4.221   6.860   2.739 -0.8343 -1.5993 -4.0127
  643MOL0     H86757   4.184   6.686   2.516  0.5453  0.0432  0.1394
  643MOL0     H86758   4.258   6.787   2.400  3.3913  1.6074 -0.7935
  643MOL0     H86759   4.452   6.647   2.374 -1.4408  1.7426 -1.1083
  643MOL0     H86760   4.306   6.547   2.378  1.0014  1.0124  0.6611
  643MOL0     H86761   4.371   6.530   2.642  0.4550 -2.1508  1.1509
  643MOL0     H86762   4.529   6.549   2.586 -0.7615 -0.5608  2.9690
  643MOL0     H86763   4.476   6.366   2.405 -0.1928 -0.8334 -0.8666
  643MOL0     H86764   4.330   6.347   2.511 -0.6960  3.9350  0.5353
  643MOL0     H86765   4.303   6.134   2.666  1.1843 -1.2701  1.2903
  643MOL0     H86766   4.127   6.041   2.784  2.8877 -2.3764 -0.8486
  643MOL0     H86767   4.225   5.986   2.912 -3.7656 -2.0112  0.5336
  643MOL0     H86768   4.090   6.105   2.942  1.0602 -0.0097  1.6963
  643MOL0     H86769   4.375   6.236   3.383  3.5743  4.3219 -1.0574
  643MOL0     H86770   4.252   6.208   3.594  0.4565  1.4450  1.4601
  643MOL0     H86771   3.965   6.445   3.818 -1.2241 -1.5843  0.5365
  643MOL0     H86772   3.960   6.555   3.677 -1.0488 -0.7317  0.7253
  643MOL0     H86773   3.790   6.432   3.574 -0.6207  0.5265  0.2514
  643MOL0     H86774   3.785   6.313   3.714 -0.9381 -1.9465 -2.4931
  643MOL0     H86775   3.757   6.530   3.860  0.9566 -2.3039 -0.1765
  643MOL0     H86776   3.622   6.464   3.764  1.1093  0.0213 -0.2897
  643MOL0     H86777   3.803   6.697   3.711  1.5861 -2.9480  2.7080
  643MOL0     H86778   3.685   6.651   3.588  0.7067 -2.7837  0.3057
  643MOL0     H86779   3.599   6.720   3.869 -0.8666  3.5721  1.0704
  643MOL0     H86780   3.500   6.703   3.719  0.0217  0.1043 -3.0273
  643MOL0     H86781   3.578   6.902   3.636 -3.5572 -2.6156  1.6980
  643MOL0     H86782   3.536   6.930   3.801  0.5008  0.1733  0.0980
  643MOL0     H86783   3.826   6.903   3.713  0.6998 -1.1718  1.4966
  643MOL0     H86784   3.767   6.912   3.877  1.8003 -1.8463 -0.1855
  643MOL0     H86785   3.849   7.127   3.817 -0.4960 -3.7157  3.2798
  643MOL0     H86786   3.676   7.127   3.858  1.3904 -2.2756  2.5585
  643MOL0     H86787   3.987   6.534   3.463  0.8885  0.2237  1.9364
  643MOL0     H86788   4.108   6.544   3.253 -0.6094  1.1759  2.2165
  643MOL0     H86789   4.463   6.434   3.009 -3.4144 -0.6039  1.2828
  643MOL0     H86790   4.584   6.419   2.798  1.1397 -1.4552 -0.3796
  643MOL0     H86791   5.601   6.671   2.903 -1.4479  0.0385 -1.5047
  643MOL0     H86792   5.786   6.544   3.014 -0.7843  3.2611  1.0357
  643MOL0     H86793   5.793   6.227   3.518  1.6760 -0.4282  2.3140
  643MOL0     H86794   6.007   6.109   3.598 -2.2773 -3.3186  0.2857
  643MOL0     H86795   6.082   5.850   3.541  0.6564 -0.0235 -0.8856
  643MOL0     H86796   6.247   5.807   3.489 -0.8169 -0.9279  1.3572
  643MOL0     H86797   6.292   5.880   3.727 -2.1490  1.3578  2.4203
  643MOL0     H86798   6.152   5.981   3.731 -0.7606  2.4707 -1.1862
  643MOL0     H86799   6.328   6.108   3.771 -1.3876 -0.6620  0.5921
  643MOL0     H86800   6.276   6.150   3.609  0.3542 -1.0702 -0.4664
  643MOL0     H86801   6.457   6.038   3.506 -1.3900  1.4812  0.1558
  643MOL0     H86802   6.516   5.969   3.660  2.3188  1.1989  1.0690
  643MOL0     H86803   6.695   6.335   3.668 -4.6106  3.7886  0.5277
  643MOL0     H86804   6.123   6.038   3.197 -1.1387 -0.9181 -1.0819
  643MOL0     H86805   5.942   6.174   3.118 -2.6180  0.2005  0.1185
  644MOL0     O86806   0.698   0.823   6.926  0.3187  0.1364  0.6208
  644MOL0     C86807   0.744   0.728   6.848  0.7955  0.1078 -0.0172
  644MOL0     O86808   0.728   0.595   6.868  0.8443  0.4591 -0.5920
  644MOL0     C86809   0.673   0.558   6.990 -0.0638  0.6752  0.9642
  644MOL0     C86810   0.534   0.533   6.999 -0.3681  0.3095 -0.8488
  644MOL0     C86811   0.483   0.484   7.115 -1.2236  0.3515 -0.2364
  644MOL0     C86812   0.569   0.443   7.217 -0.2580 -0.2170 -0.9348
  644MOL0     O86813   0.514   0.377   7.317  0.2965  0.5246 -0.2271
  644MOL0     C86814   0.549   0.417   7.448 -0.1270  0.5314  0.4449
  644MOL0     C86815   0.470   0.536   7.487  0.6491  0.4492  0.7427
  644MOL0     C86816   0.322   0.513   7.477  0.1621 -0.0802 -0.2869
  644MOL0     C86817   0.231   0.636   7.498  0.4261  0.6406  0.0147
  644MOL0     C86818   0.081   0.605   7.457 -0.4184 -0.3106 -0.2154
  644MOL0     C86819  -0.024   0.657   7.555 -0.5467 -0.6067  0.0987
  644MOL0     C86820  -0.049   0.568   7.682 -0.5403 -0.9775 -0.5481
  644MOL0     C86821  -0.199   0.548   7.709 -0.3438 -0.6876  0.3819
  644MOL0     N86822  -0.274   0.675   7.681  0.0035  0.4247 -1.1749
  644MOL0     C86823  -0.268   0.771   7.778  0.8150  0.7217 -0.0977
  644MOL0     C86824  -0.352   0.866   7.723  0.2128 -0.3732 -0.8872
  644MOL0     C86825  -0.374   0.997   7.795  0.7718 -0.6317  0.0935
  644MOL0     C86826  -0.330   1.117   7.710 -0.4942 -0.2999 -0.4372
  644MOL0     C86827  -0.392   1.243   7.755 -0.3937 -0.4177 -0.4271
  644MOL0     C86828  -0.345   1.357   7.671 -0.6227  0.6763  0.2373
  644MOL0     O86829  -0.386   1.489   7.715  0.0411 -0.4219 -0.4405
  644MOL0     C86830  -0.515   1.530   7.694  0.0631 -0.2166 -0.0838
  644MOL0     C86831  -0.619   1.455   7.637 -0.0543  0.0424 -0.2841
  644MOL0     C86832  -0.739   1.526   7.609 -0.7624 -0.3076 -0.2508
  644MOL0     C86833  -0.849   1.443   7.545  0.3812 -0.0094 -0.7866
  644MOL0     C86834  -0.769   1.658   7.669 -0.4808 -0.4181 -0.0228
  644MOL0     C86835  -0.885   1.740   7.639  0.8344 -0.9810  0.4254
  644MOL0     O86836  -0.975   1.710   7.535  0.1972 -0.2147  0.3938
  644MOL0     C86837  -1.076   1.797   7.515  0.0641  0.0721 -0.0609
  644MOL0     C86838  -1.071   1.906   7.430 -0.5400 -0.3190  0.4640
  644MOL0     C86839  -1.176   1.987   7.416  0.6802  0.0058  0.1927
  644MOL0     C86840  -1.312   1.953   7.477 -0.5449  0.0431  0.0334
  644MOL0     O86841  -1.409   2.045   7.479  0.1960  0.1010 -0.7133
  644MOL0     C86842  -1.540   2.001   7.492  0.1980 -0.6035 -0.0379
  644MOL0     C86843  -1.642   2.097   7.437 -0.3121  0.3663 -0.4752
  644MOL0     C86844  -1.657   2.099   7.287 -0.0088  1.1415 -0.7017
  644MOL0     C86845  -1.779   2.025   7.238  0.5679  0.2540  0.3254
  644MOL0     C86846  -1.766   1.969   7.094 -0.3759  0.6114  0.3268
  644MOL0     C86847  -1.779   2.068   6.978 -0.2253  0.4191  0.8544
  644MOL0     C86848  -1.827   2.026   6.836  0.4690  0.1033  0.0423
  644MOL0     C86849  -1.980   1.989   6.834 -0.3402 -0.5160  0.2297
  644MOL0    Cl86850  -2.016   1.955   6.655 -0.6547 -0.1142 -0.2356
  644MOL0     C86851  -1.307   1.843   7.569 -1.0831 -0.4748 -0.6903
  644MOL0     C86852  -1.195   1.760   7.583 -0.1342 -0.9741 -0.4403
  644MOL0     O86853  -0.903   1.832   7.718 -0.3187 -0.2715 -0.4251
  644MOL0     C86854  -0.661   1.712   7.744  1.6199  0.8082 -0.1371
  644MOL0     C86855  -0.542   1.653   7.753  0.2693 -0.2211 -0.2596
  644MOL0     N86856  -0.402   0.821   7.595 -0.3782  0.2897  0.3259
  644MOL0     N86857  -0.348   0.705   7.577  0.0788 -0.6256 -0.3674
  644MOL0     C86858   0.708   0.457   7.202  0.6642 -0.4905  0.6373
  644MOL0     C86859   0.757   0.521   7.086  0.5769  0.5950 -0.3779
  644MOL0     C86860   0.833   0.785   6.736  0.2185 -0.5390  0.3730
  644MOL0     C86861   0.824   0.914   6.689 -0.2716  0.3054 -1.1869
  644MOL0     C86862   0.900   0.960   6.584 -0.0141  0.0548  0.3377
  644MOL0     C86863   0.977   0.865   6.512 -0.6895 -0.4241  0.0293
  644MOL0     O86864   1.057   0.895   6.391  0.0301  0.2596 -0.6720
  644MOL0     C86865   1.078   1.027   6.338 -0.4624  0.1670 -1.0616
  644MOL0     C86866   1.181   1.029   6.221  1.2346  0.4685 -0.7863
  644MOL0     C86867   1.326   1.037   6.277 -0.6555  0.1246 -0.1721
  644MOL0     C86868   1.432   0.982   6.172  0.8839  0.4862  0.0831
  644MOL0     C86869   1.568   1.002   6.217 -0.4103  0.4491 -0.7279
  644MOL0     C86870   1.685   1.005   6.255  0.8764 -0.5867  0.4287
  644MOL0     C86871   0.992   0.732   6.563 -0.1770 -0.0861  0.4754
  644MOL0     C86872   0.920   0.693   6.673  0.6860 -0.7515 -0.6508
  644MOL0     H86873   0.469   0.573   6.922 -1.3883  1.4351  0.5293
  644MOL0     H86874   0.375   0.467   7.119 -1.1598 -0.0830 -0.2787
  644MOL0     H86875   0.541   0.341   7.526  3.9592 -2.3269 -1.5546
  644MOL0     H86876   0.653   0.451   7.453 -0.8049  2.5528  2.5010
  644MOL0     H86877   0.497   0.545   7.593  2.3114 -0.6712  0.4502
  644MOL0     H86878   0.492   0.627   7.430  0.3684 -1.2750 -2.3145
  644MOL0     H86879   0.296   0.481   7.376 -2.8910 -0.9112  0.6650
  644MOL0     H86880   0.285   0.436   7.545 -2.4959  0.5670 -0.8695
  644MOL0     H86881   0.237   0.683   7.597  2.0262  3.0220 -1.1237
  644MOL0     H86882   0.266   0.713   7.429 -0.7454  0.5452 -0.7077
  644MOL0     H86883   0.085   0.655   7.359  3.6414 -1.3934 -0.7530
  644MOL0     H86884   0.079   0.498   7.433 -1.0073  0.1031 -2.2513
  644MOL0     H86885   0.002   0.759   7.584 -0.0980  0.2110 -2.8485
  644MOL0     H86886  -0.117   0.651   7.496 -1.6841 -2.6544  1.9402
  644MOL0     H86887  -0.004   0.468   7.681  0.6681 -0.4709  0.2875
  644MOL0     H86888   0.000   0.623   7.763  0.0622 -0.1083 -1.4790
  644MOL0     H86889  -0.215   0.514   7.812 -0.4174 -0.8321  0.3232
  644MOL0     H86890  -0.245   0.481   7.636  0.6370  0.6180 -1.4915
  644MOL0     H86891  -0.225   0.779   7.877 -0.5912 -2.4520  0.8847
  644MOL0     H86892  -0.481   1.002   7.819 -0.1937 -3.4754 -2.8510
  644MOL0     H86893  -0.310   1.003   7.884  1.2471 -0.0936 -0.2749
  644MOL0     H86894  -0.342   1.091   7.604 -2.0810 -0.4569 -0.2450
  644MOL0     H86895  -0.222   1.132   7.720 -0.5783  2.8226 -2.8439
  644MOL0     H86896  -0.379   1.257   7.862 -0.1418 -1.7840 -0.2603
  644MOL0     H86897  -0.500   1.234   7.740 -0.3805 -0.4353 -0.5156
  644MOL0     H86898  -0.375   1.338   7.567  0.3201 -5.4901  0.6752
  644MOL0     H86899  -0.235   1.358   7.675 -0.5951 -0.4886  0.0754
  644MOL0     H86900  -0.608   1.352   7.604  1.1719 -0.5902  1.8852
  644MOL0     H86901  -0.873   1.471   7.442  2.2566  1.8525 -0.7903
  644MOL0     H86902  -0.848   1.336   7.571 -0.9706  0.2097  0.2904
  644MOL0     H86903  -0.943   1.474   7.591  0.2102  0.8562 -1.6883
  644MOL0     H86904  -0.982   1.933   7.374 -0.8521  1.4462  0.7422
  644MOL0     H86905  -1.168   2.076   7.354 -1.8606  1.3267  1.5991
  644MOL0     H86906  -1.561   1.904   7.446 -3.1909 -0.2276  0.4204
  644MOL0     H86907  -1.562   1.993   7.599 -2.3461 -2.1947 -0.5646
  644MOL0     H86908  -1.741   2.071   7.475  0.3120 -0.8398  0.4059
  644MOL0     H86909  -1.616   2.197   7.474  0.4135 -0.4981  1.4377
  644MOL0     H86910  -1.563   2.053   7.253  0.2989 -0.2100  1.6922
  644MOL0     H86911  -1.665   2.200   7.248  0.5353  0.6717 -2.0962
  644MOL0     H86912  -1.779   1.930   7.292  3.0910 -1.5237 -2.3938
  644MOL0     H86913  -1.875   2.072   7.258 -0.3811  0.4822 -3.8440
  644MOL0     H86914  -1.837   1.886   7.083  1.0336 -1.0793  2.9309
  644MOL0     H86915  -1.673   1.913   7.082 -1.8757 -1.8366 -0.7454
  644MOL0     H86916  -1.824   2.162   7.010  1.8786  2.4499 -1.6477
  644MOL0     H86917  -1.681   2.110   6.952  0.5873 -1.6015  0.4506
  644MOL0     H86918  -1.773   1.934   6.813  0.5014 -0.5535  2.4884
  644MOL0     H86919  -1.794   2.107   6.771  3.3202  1.6021  3.0638
  644MOL0     H86920  -2.046   2.071   6.864  0.6762  0.3464  0.1832
  644MOL0     H86921  -2.013   1.909   6.901 -0.3521 -0.8610 -0.1827
  644MOL0     H86922  -1.388   1.808   7.632  1.0523  3.9388  5.4321
  644MOL0     H86923  -1.209   1.671   7.643 -1.7549 -1.3255 -1.2784
  644MOL0     H86924  -0.679   1.808   7.792  2.6973  1.3467 -0.7772
  644MOL0     H86925  -0.466   1.702   7.813  0.8405  1.1998 -2.0291
  644MOL0     H86926   0.786   0.432   7.273  1.0518  0.9850  0.7573
  644MOL0     H86927   0.865   0.530   7.085  0.7895 -1.5037 -2.1866
  644MOL0     H86928   0.758   0.983   6.740  0.0035  0.4858 -1.0687
  644MOL0     H86929   0.882   1.063   6.554  1.4007 -0.0632 -1.0146
  644MOL0     H86930   0.981   1.049   6.292 -4.3081 -2.5249  4.6330
  644MOL0     H86931   1.105   1.098   6.417 -0.7986 -0.3227 -0.5053
  644MOL0     H86932   1.165   1.125   6.171 -0.8959  0.7899  0.4174
  644MOL0     H86933   1.163   0.960   6.138 -1.8525  1.6340 -1.2231
  644MOL0     H86934   1.332   0.970   6.363  0.8809 -1.9460 -1.7626
  644MOL0     H86935   1.338   1.143   6.299 -1.3874 -0.0985  1.4157
  644MOL0     H86936   1.428   1.036   6.077  0.7135 -3.0459 -2.0886
  644MOL0     H86937   1.414   0.881   6.135  1.8764  1.0976 -2.3266
  644MOL0     H86938   1.785   0.994   6.290  0.4434  0.5152  2.1195
  644MOL0     H86939   1.052   0.663   6.505 -0.9743 -0.9262  0.6195
  644MOL0     H86940   0.934   0.591   6.706 -0.9722 -0.8492 -0.1357
  645MOL0     O86941   2.295   7.441   0.008  0.4762  0.0433 -0.0415
  645MOL0     C86942   2.255   7.449  -0.105  0.1655 -0.1491  0.2234
  645MOL0     O86943   2.154   7.540  -0.145 -1.4225 -0.8350  0.4814
  645MOL0     C86944   2.094   7.606  -0.045 -1.2921 -0.5668 -0.0171
  645MOL0     C86945   2.089   7.747  -0.045  0.4162 -0.3817 -0.1019
  645MOL0     C86946   2.028   7.821   0.055  0.1221  0.2339 -0.4511
  645MOL0     C86947   1.964   7.756   0.156  0.7126  0.3123  0.6245
  645MOL0     O86948   1.892   7.826   0.250  0.4001 -0.0678 -0.8196
  645MOL0     C86949   1.774   7.772   0.314 -1.2807 -0.0115  0.2453
  645MOL0     C86950   1.707   7.883   0.389 -0.2919  0.1088  0.4913
  645MOL0     C86951   1.589   7.835   0.473  0.5989 -0.4980 -1.1963
  645MOL0     C86952   1.539   7.950   0.561  0.1657 -0.4427 -0.2848
  645MOL0     C86953   1.444   7.905   0.672  0.2553 -0.4261  0.5891
  645MOL0     C86954   1.405   8.029   0.753  0.7793 -0.4755  0.9433
  645MOL0     C86955   1.339   7.993   0.881 -0.0646 -0.6886  0.4049
  645MOL0     C86956   1.339   8.087   1.007 -0.3064 -0.2642 -0.9089
  645MOL0     N86957   1.241   8.197   0.996 -1.3131 -0.3221  0.7196
  645MOL0     C86958   1.277   8.329   0.963  0.3598  0.5914  0.3599
  645MOL0     C86959   1.156   8.397   0.976 -0.3778  0.1660  0.1198
  645MOL0     C86960   1.110   8.541   0.942 -0.3971 -0.1177  0.3760
  645MOL0     C86961   1.214   8.637   1.002  0.1965  0.5234  0.5103
  645MOL0     C86962   1.199   8.781   0.957  0.4731 -0.2783 -1.0571
  645MOL0     C86963   1.053   8.833   0.955  0.0178 -0.3471  0.4210
  645MOL0     O86964   1.009   8.824   1.093 -1.3328 -0.3329  0.2069
  645MOL0     C86965   0.895   8.883   1.123  0.0535 -0.5546  0.1676
  645MOL0     C86966   0.820   8.967   1.036 -0.6517  0.2806 -0.7014
  645MOL0     C86967   0.699   9.014   1.076 -0.3620  0.3360 -0.6831
  645MOL0     C86968   0.625   9.092   0.960 -0.3356 -0.8568  0.0440
  645MOL0     C86969   0.641   8.978   1.202 -0.4719  0.6547  0.0901
  645MOL0     C86970   0.512   9.031   1.244  0.2091  0.0671 -0.0701
  645MOL0     O86971   0.467   8.969   1.359 -0.5723 -0.3191 -0.5585
  645MOL0     C86972   0.348   8.994   1.416  0.7293 -0.0648 -0.4131
  645MOL0     C86973   0.344   9.020   1.557  0.0711 -0.2382 -0.0769
  645MOL0     C86974   0.231   9.044   1.627  0.2537  0.6483  0.2261
  645MOL0     C86975   0.116   9.038   1.561 -0.2515  0.7457  0.9614
  645MOL0     O86976   0.010   9.103   1.616  0.4004  0.6663 -1.0758
  645MOL0     C86977  -0.098   9.144   1.526  0.0035  0.1025 -0.2781
  645MOL0     C86978  -0.179   9.261   1.601 -0.5214  0.2476 -0.0132
  645MOL0     C86979  -0.310   9.204   1.657  0.5847 -0.4600 -0.0623
  645MOL0     C86980  -0.306   9.071   1.737 -0.7224  0.8848 -0.5599
  645MOL0     C86981  -0.441   9.046   1.793  0.9029  0.4736 -0.3215
  645MOL0     C86982  -0.479   9.143   1.915  0.1655 -0.3162 -0.7370
  645MOL0     C86983  -0.618   9.098   1.960  0.8872 -0.0273  0.4105
  645MOL0     C86984  -0.724   9.203   1.897  0.2733 -0.0132 -0.7246
  645MOL0    Cl86985  -0.729   9.198   1.725  0.3716  0.0534  0.0187
  645MOL0     C86986   0.110   8.978   1.431  0.1058  0.0245 -0.1785
  645MOL0     C86987   0.231   8.965   1.356  0.1870 -0.4502 -0.4516
  645MOL0     O86988   0.460   9.124   1.193 -0.2374  0.4613  0.4691
  645MOL0     C86989   0.721   8.906   1.292 -0.3604 -0.0046  0.0269
  645MOL0     C86990   0.841   8.865   1.251  0.3070 -0.4993 -0.0745
  645MOL0     N86991   1.065   8.303   1.031  0.2935 -0.1596  0.0720
  645MOL0     N86992   1.112   8.183   1.035  0.3106  0.8715 -0.0660
  645MOL0     C86993   1.962   7.615   0.152 -0.0047 -0.0746  1.0088
  645MOL0     C86994   2.033   7.535   0.059  0.4851 -0.7363  0.0031
  645MOL0     C86995   2.310   7.350  -0.196  1.0226  1.3857 -0.8034
  645MOL0     C86996   2.412   7.255  -0.160  0.4242 -0.0303  0.5967
  645MOL0     C86997   2.459   7.169  -0.259 -0.2284 -0.2319  0.2855
  645MOL0     C86998   2.416   7.166  -0.399 -0.3507 -0.7286 -0.9322
  645MOL0     O86999   2.480   7.092  -0.495  0.2045  0.4442  0.7565
  645MOL0     C87000   2.568   6.980  -0.456  0.4227  0.0460  0.2949
  645MOL0     C87001   2.706   7.037  -0.423  0.8836 -0.6411 -0.8954
  645MOL0     C87002   2.794   7.053  -0.552 -1.1192  0.5062  0.7107
  645MOL0     C87003   2.912   7.157  -0.532 -0.0937  0.2470 -0.0176
  645MOL0     C87004   2.859   7.292  -0.546 -0.7193 -0.5535  1.3192
  645MOL0     C87005   2.805   7.394  -0.576 -0.5985  0.2517 -0.3206
  645MOL0     C87006   2.310   7.258  -0.428 -0.0044 -0.4638 -0.5441
  645MOL0     C87007   2.260   7.343  -0.320 -0.5005  0.6925  0.0247
  645MOL0     H87008   2.144   7.811  -0.113  0.6347  1.3003  1.5468
  645MOL0     H87009   2.025   7.930   0.054 -0.0959  0.2311 -0.1619
  645MOL0     H87010   1.702   7.734   0.241  0.9109 -2.0389 -1.0222
  645MOL0     H87011   1.793   7.693   0.387 -2.1112  0.1714  0.6680
  645MOL0     H87012   1.785   7.924   0.454  0.8456  1.0191 -1.3657
  645MOL0     H87013   1.680   7.963   0.320  0.7538 -1.2562 -1.6135
  645MOL0     H87014   1.500   7.802   0.418 -0.8517 -0.6111  1.0711
  645MOL0     H87015   1.624   7.756   0.540  1.7802 -1.5812 -2.9900
  645MOL0     H87016   1.630   7.977   0.616  2.0142 -2.6279 -2.0676
  645MOL0     H87017   1.513   8.040   0.503 -0.0761 -0.1763  0.2314
  645MOL0     H87018   1.361   7.856   0.620 -0.5716 -0.3505  1.7749
  645MOL0     H87019   1.505   7.842   0.737  2.6125  3.6813  2.8118
  645MOL0     H87020   1.499   8.080   0.774  0.7806  0.5371 -1.2541
  645MOL0     H87021   1.336   8.099   0.704 -0.4477 -1.8762  0.6049
  645MOL0     H87022   1.245   7.942   0.859  1.0826 -1.5713 -3.0962
  645MOL0     H87023   1.399   7.906   0.910  1.4935 -0.3103 -1.4617
  645MOL0     H87024   1.441   8.119   1.030 -0.5014 -1.3305  1.7225
  645MOL0     H87025   1.312   8.030   1.096 -2.3364  0.0396 -1.2782
  645MOL0     H87026   1.375   8.366   0.936  0.8498 -0.1516  1.0594
  645MOL0     H87027   1.120   8.548   0.834  0.2283 -0.5217  0.4033
  645MOL0     H87028   1.007   8.566   0.969 -0.5657  3.1960 -2.6031
  645MOL0     H87029   1.314   8.606   0.971 -0.9134 -3.5237  0.2911
  645MOL0     H87030   1.208   8.631   1.111  1.3047  0.0459  0.5598
  645MOL0     H87031   1.230   8.766   0.853 -0.5705 -4.3061 -0.9857
  645MOL0     H87032   1.266   8.847   1.013 -1.8719  0.5517  0.9281
  645MOL0     H87033   0.991   8.764   0.896 -0.0484  1.1182 -1.2907
  645MOL0     H87034   1.052   8.924   0.896  3.9605 -3.2351 -4.9350
  645MOL0     H87035   0.851   8.973   0.932 -2.9486 -0.3283 -1.4826
  645MOL0     H87036   0.619   9.199   0.978  0.0350 -0.9731  0.9239
  645MOL0     H87037   0.673   9.060   0.867 -1.5728  0.8444 -1.2317
  645MOL0     H87038   0.518   9.067   0.964 -1.6192  3.8081  0.2031
  645MOL0     H87039   0.438   9.033   1.610  0.9921  0.9853 -1.9290
  645MOL0     H87040   0.236   9.084   1.728 -3.2467 -2.6314  1.9570
  645MOL0     H87041  -0.053   9.199   1.443 -0.8041 -0.2716 -0.9776
  645MOL0     H87042  -0.165   9.067   1.488 -1.5456  1.9341 -1.4377
  645MOL0     H87043  -0.112   9.289   1.683 -1.9676 -1.0517  1.6936
  645MOL0     H87044  -0.196   9.342   1.529  1.4806  0.9802  0.2883
  645MOL0     H87045  -0.382   9.192   1.576 -1.5858 -0.9761  1.8319
  645MOL0     H87046  -0.350   9.283   1.720 -0.5009  0.7039 -2.1062
  645MOL0     H87047  -0.278   8.990   1.669  4.6460  1.2563  0.7862
  645MOL0     H87048  -0.231   9.065   1.816  0.5981 -2.3672 -1.8624
  645MOL0     H87049  -0.426   8.945   1.830  1.2929  0.1656 -1.3003
  645MOL0     H87050  -0.526   9.036   1.724  0.2839  4.3216 -0.3695
  645MOL0     H87051  -0.402   9.137   1.993 -1.4716 -4.2742  0.8369
  645MOL0     H87052  -0.477   9.243   1.871 -2.2864  0.2870  0.3395
  645MOL0     H87053  -0.632   9.103   2.068  0.4498 -2.1607  0.4964
  645MOL0     H87054  -0.640   8.994   1.937  2.1464  0.2559 -2.4916
  645MOL0     H87055  -0.701   9.302   1.937  1.1581 -0.9384  1.1868
  645MOL0     H87056  -0.822   9.172   1.937  0.3283  0.8526  0.1085
  645MOL0     H87057   0.012   8.966   1.386 -1.7707  2.5915  2.7717
  645MOL0     H87058   0.214   8.941   1.252  0.5981 -0.9582 -0.4050
  645MOL0     H87059   0.704   8.881   1.396 -0.3174 -1.5957 -0.3273
  645MOL0     H87060   0.893   8.796   1.316  1.5210 -1.4107 -1.9274
  645MOL0     H87061   1.915   7.555   0.229 -0.3596 -0.9928  0.0989
  645MOL0     H87062   2.027   7.428   0.046 -1.5609 -0.8587  1.4959
  645MOL0     H87063   2.457   7.254  -0.061 -1.3824  1.3420  1.4967
  645MOL0     H87064   2.529   7.101  -0.212  0.5358  2.9854  4.3113
  645MOL0     H87065   2.527   6.914  -0.379  4.2082 -3.5959 -0.4910
  645MOL0     H87066   2.570   6.922  -0.548 -0.7574 -0.2630  0.4417
  645MOL0     H87067   2.756   6.978  -0.345  1.4028 -1.2064 -1.6419
  645MOL0     H87068   2.691   7.138  -0.383 -1.4904 -0.9481 -0.9025
  645MOL0     H87069   2.730   7.083  -0.635  1.3846  3.2872 -0.4170
  645MOL0     H87070   2.850   6.966  -0.586  1.7307  1.9814  1.2953
  645MOL0     H87071   2.991   7.129  -0.602 -0.5284  0.5710 -0.6480
  645MOL0     H87072   2.948   7.151  -0.428 -0.3757 -0.8386  0.0330
  645MOL0     H87073   2.754   7.484  -0.603  2.0116  1.4896 -1.5314
  645MOL0     H87074   2.275   7.259  -0.531  0.8551 -1.9670 -0.8915
  645MOL0     H87075   2.185   7.416  -0.351 -2.7538 -0.7416  1.8106
  646MOL0     O87076   1.389   2.225   6.444 -0.2088 -0.3089 -0.1367
  646MOL0     C87077   1.315   2.306   6.504  0.0826  0.7021 -0.3208
  646MOL0     O87078   1.254   2.269   6.624  0.2470 -0.2258  0.7044
  646MOL0     C87079   1.237   2.141   6.662  1.4154  0.4757 -1.1795
  646MOL0     C87080   1.228   2.142   6.806  0.6559  0.7465  0.2389
  646MOL0     C87081   1.197   2.026   6.872  0.2696  0.4869 -0.4520
  646MOL0     C87082   1.163   1.908   6.808  0.5842 -0.5358  0.7915
  646MOL0     O87083   1.151   1.791   6.881  0.0269  0.2447  0.5230
  646MOL0     C87084   1.015   1.735   6.910  0.3347 -0.2139 -0.5027
  646MOL0     C87085   0.966   1.764   7.049  0.6204 -0.2299  0.0598
  646MOL0     C87086   1.033   1.672   7.158  0.2608 -1.3638 -0.2299
  646MOL0     C87087   1.176   1.717   7.178  0.2431 -0.8198  0.6578
  646MOL0     C87088   1.243   1.659   7.303 -0.9162  0.8079 -0.5054
  646MOL0     C87089   1.252   1.506   7.307 -0.4911  0.2387 -0.6307
  646MOL0     C87090   1.337   1.468   7.427 -1.0939  0.8041 -0.7018
  646MOL0     C87091   1.341   1.313   7.412 -1.0096  0.4070  0.0270
  646MOL0     N87092   1.216   1.239   7.435  0.8443  0.1037  0.2422
  646MOL0     C87093   1.179   1.121   7.372 -0.6001  0.1400 -0.0725
  646MOL0     C87094   1.069   1.072   7.438 -0.6069 -0.0592 -0.4850
  646MOL0     C87095   1.006   0.945   7.400 -0.5842  0.6569  0.3058
  646MOL0     C87096   0.864   0.973   7.363  0.2912  0.2199  0.3700
  646MOL0     C87097   0.795   0.827   7.341  0.6497 -0.2478 -0.9011
  646MOL0     C87098   0.653   0.864   7.297 -0.0841 -0.1924 -0.6554
  646MOL0     O87099   0.587   0.936   7.400 -0.3010 -0.0051  0.0176
  646MOL0     C87100   0.457   0.956   7.383 -0.0806  0.1018  0.3866
  646MOL0     C87101   0.395   0.995   7.496  0.2647 -0.0876 -0.5172
  646MOL0     C87102   0.263   1.037   7.512  0.8554 -0.8676  0.2486
  646MOL0     C87103   0.210   1.092   7.643 -0.7087 -0.3325 -0.1427
  646MOL0     C87104   0.181   1.027   7.391 -0.5847 -0.6596  0.2226
  646MOL0     C87105   0.043   1.071   7.378  0.8418 -0.9832  0.3542
  646MOL0     O87106  -0.045   1.006   7.293 -0.5810 -0.2057  0.4222
  646MOL0     C87107  -0.164   1.060   7.277  0.4001 -0.9376  0.2385
  646MOL0     C87108  -0.275   1.007   7.341 -0.2409 -1.0935 -1.1278
  646MOL0     C87109  -0.400   1.066   7.329 -0.9268  0.2725  0.0480
  646MOL0     C87110  -0.419   1.170   7.239 -0.7769 -0.4152  0.9153
  646MOL0     O87111  -0.552   1.191   7.209 -0.1792 -0.7072  0.0822
  646MOL0     C87112  -0.587   1.234   7.074 -0.7769  0.0957 -0.2662
  646MOL0     C87113  -0.740   1.219   7.055 -0.1594 -0.0151 -0.1023
  646MOL0     C87114  -0.827   1.308   7.150 -0.7442  0.3541  0.5884
  646MOL0     C87115  -0.972   1.319   7.105  0.0567  0.3233  0.0194
  646MOL0     C87116  -1.064   1.387   7.209 -0.4715 -0.4727  0.6229
  646MOL0     C87117  -1.212   1.422   7.150 -0.3426 -0.7741  0.4743
  646MOL0     C87118  -1.266   1.541   7.223 -0.2645 -0.1646 -0.4603
  646MOL0     C87119  -1.409   1.558   7.187  0.2099  0.3743  0.0997
  646MOL0    Cl87120  -1.494   1.715   7.251 -0.4896 -0.0958 -0.1174
  646MOL0     C87121  -0.315   1.235   7.182 -0.4935  0.4047 -0.3980
  646MOL0     C87122  -0.187   1.176   7.197  1.1814  0.0917  0.0340
  646MOL0     O87123   0.010   1.178   7.436 -0.2291 -0.1022 -0.4117
  646MOL0     C87124   0.251   0.990   7.273 -0.6558  0.2465 -0.1581
  646MOL0     C87125   0.384   0.948   7.270 -0.5512  0.3733 -0.2454
  646MOL0     N87126   1.036   1.170   7.539 -0.1259 -0.0180 -0.4184
  646MOL0     N87127   1.117   1.268   7.531  0.0149 -0.5338  1.1452
  646MOL0     C87128   1.160   1.910   6.668  0.7790 -0.1874 -0.3596
  646MOL0     C87129   1.182   2.022   6.589 -0.2433 -0.3010 -0.8830
  646MOL0     C87130   1.272   2.428   6.442 -0.0163 -0.1997 -0.0673
  646MOL0     C87131   1.193   2.526   6.510 -0.6002 -0.2027 -0.1002
  646MOL0     C87132   1.184   2.659   6.452 -0.6396  0.3820  0.1413
  646MOL0     C87133   1.204   2.686   6.315 -1.0476  0.7031 -0.7644
  646MOL0     O87134   1.178   2.807   6.261  0.3565 -0.0559  0.1624
  646MOL0     C87135   1.091   2.895   6.330 -0.7547  0.3397  0.1899
  646MOL0     C87136   1.050   3.015   6.246 -0.2666 -0.4320  0.5400
  646MOL0     C87137   1.155   3.134   6.252 -0.3829  0.2762  0.9709
  646MOL0     C87138   1.121   3.258   6.169 -0.1953 -0.2085  0.3668
  646MOL0     C87139   0.999   3.325   6.222  0.5191  1.1807  0.6285
  646MOL0     C87140   0.905   3.381   6.268  1.0107  0.2341  0.6898
  646MOL0     C87141   1.267   2.583   6.247 -0.5790  0.4508  0.1743
  646MOL0     C87142   1.303   2.456   6.299 -0.2123  0.5509 -0.2146
  646MOL0     H87143   1.244   2.227   6.871  1.1010 -1.2159  2.9172
  646MOL0     H87144   1.204   2.025   6.981 -0.2411 -0.4097 -0.4165
  646MOL0     H87145   0.949   1.786   6.839 -0.5894 -0.5224  0.1159
  646MOL0     H87146   1.013   1.626   6.900  1.8052 -0.3288  0.2785
  646MOL0     H87147   0.985   1.869   7.074 -0.7596 -0.7112  3.7265
  646MOL0     H87148   0.859   1.745   7.033  0.8870 -0.1260 -2.1828
  646MOL0     H87149   0.979   1.681   7.253  0.3631 -0.6328 -0.2393
  646MOL0     H87150   1.033   1.571   7.115  2.2809 -0.4165 -2.6758
  646MOL0     H87151   1.228   1.695   7.084  0.0615  2.6582 -0.3863
  646MOL0     H87152   1.179   1.826   7.183  0.4458 -0.8027  0.1608
  646MOL0     H87153   1.340   1.706   7.323  0.4690 -2.9950  3.4891
  646MOL0     H87154   1.186   1.696   7.389 -1.9209 -0.4033 -0.6258
  646MOL0     H87155   1.156   1.453   7.313 -0.0663 -0.3584  2.2358
  646MOL0     H87156   1.295   1.491   7.208 -1.0651  0.5837 -0.9368
  646MOL0     H87157   1.438   1.510   7.415 -1.2987  0.5637 -4.2594
  646MOL0     H87158   1.299   1.498   7.525 -1.2300  1.2290 -0.8855
  646MOL0     H87159   1.403   1.277   7.494 -2.4426 -0.2531  0.8537
  646MOL0     H87160   1.375   1.291   7.310  2.2311  2.3168  0.5569
  646MOL0     H87161   1.234   1.064   7.298  2.4364  2.8320 -0.0721
  646MOL0     H87162   1.057   0.905   7.312  1.3938  0.5163  1.4679
  646MOL0     H87163   1.016   0.875   7.483 -0.0464 -2.0143 -1.8699
  646MOL0     H87164   0.875   1.032   7.271  4.4444 -1.7595 -0.6703
  646MOL0     H87165   0.812   1.026   7.443 -1.9085 -2.9387  1.1805
  646MOL0     H87166   0.792   0.773   7.436 -1.0017  1.0624 -0.1454
  646MOL0     H87167   0.848   0.767   7.267  2.0357  0.7250 -0.7224
  646MOL0     H87168   0.594   0.773   7.279 -0.4840 -0.3651  1.3081
  646MOL0     H87169   0.658   0.927   7.208 -0.1561  3.4841  1.7315
  646MOL0     H87170   0.454   0.998   7.587  0.9638 -0.1024 -0.9605
  646MOL0     H87171   0.108   1.056   7.652 -0.4810 -0.8588  0.3838
  646MOL0     H87172   0.277   1.077   7.729 -3.1285 -0.5845  1.7884
  646MOL0     H87173   0.205   1.200   7.628 -3.0994 -0.5970 -1.8133
  646MOL0     H87174  -0.260   0.922   7.407 -0.6873  0.4679  1.0913
  646MOL0     H87175  -0.484   1.029   7.387 -2.9916  1.8292 -1.7695
  646MOL0     H87176  -0.568   1.342   7.074 -1.4349  0.2179 -0.4708
  646MOL0     H87177  -0.533   1.177   6.998 -0.1348 -0.7533  0.7958
  646MOL0     H87178  -0.757   1.225   6.948 -1.1347 -0.6578  0.0056
  646MOL0     H87179  -0.763   1.114   7.072  1.3077 -0.4985 -1.0359
  646MOL0     H87180  -0.774   1.403   7.157  2.0292 -0.9988 -0.3027
  646MOL0     H87181  -0.817   1.253   7.244 -2.0057 -1.9880 -0.5455
  646MOL0     H87182  -0.976   1.364   7.005  2.7336  1.8085  0.4972
  646MOL0     H87183  -1.021   1.221   7.098  0.6807  0.0433 -0.6493
  646MOL0     H87184  -1.027   1.482   7.248 -1.4548 -0.1039  0.6665
  646MOL0     H87185  -1.082   1.313   7.287 -3.8927 -0.1467  0.2635
  646MOL0     H87186  -1.196   1.454   7.047  0.8219  3.7853  1.8206
  646MOL0     H87187  -1.282   1.339   7.142 -1.3628 -0.3204  3.4206
  646MOL0     H87188  -1.218   1.636   7.197 -3.8576  2.2906  1.0850
  646MOL0     H87189  -1.263   1.540   7.333  1.4732  2.1328 -0.4233
  646MOL0     H87190  -1.464   1.472   7.227 -0.9694  1.5995  1.2228
  646MOL0     H87191  -1.413   1.564   7.078  1.2910 -1.0391 -0.0508
  646MOL0     H87192  -0.340   1.318   7.116 -0.2857  2.0227  1.4785
  646MOL0     H87193  -0.096   1.217   7.155  2.1509 -0.2442  1.7099
  646MOL0     H87194   0.187   0.974   7.187 -0.9434 -0.6419  0.2093
  646MOL0     H87195   0.433   0.915   7.179  2.1936  2.4190  0.3386
  646MOL0     H87196   1.134   1.813   6.627  1.6625 -0.7926  0.4769
  646MOL0     H87197   1.171   2.020   6.481 -3.0381 -0.6767 -0.6693
  646MOL0     H87198   1.167   2.508   6.614  1.5234  1.3639  0.7833
  646MOL0     H87199   1.140   2.727   6.525 -1.2931 -1.4821  1.5726
  646MOL0     H87200   1.004   2.840   6.366  0.2905 -1.4063  0.1684
  646MOL0     H87201   1.138   2.929   6.423 -0.1906  0.6517 -0.2045
  646MOL0     H87202   0.957   3.052   6.288 -0.3696 -0.7134  0.5619
  646MOL0     H87203   1.025   2.979   6.146  0.6038 -0.5886  0.3676
  646MOL0     H87204   1.253   3.096   6.221  0.1743  2.0131  0.4866
  646MOL0     H87205   1.160   3.160   6.358 -2.4901 -0.3522  1.2751
  646MOL0     H87206   1.098   3.233   6.065 -2.9321  1.5806  0.4282
  646MOL0     H87207   1.200   3.333   6.171  0.1733 -0.5170 -1.3366
  646MOL0     H87208   0.810   3.421   6.298  1.0734 -1.1037  2.8634
  646MOL0     H87209   1.298   2.604   6.145  4.0056 -0.3729  1.1636
  646MOL0     H87210   1.352   2.378   6.242  1.6439  2.4481 -1.3666
  647MOL0     O87211   2.521   5.404   9.729  0.4976 -0.8518  0.0082
  647MOL0     C87212   2.640   5.400   9.713  0.2996 -0.8383  0.5696
  647MOL0     O87213   2.708   5.498   9.652 -0.8372 -0.6483 -0.4073
  647MOL0     C87214   2.646   5.574   9.556 -0.3692 -0.1291 -0.4572
  647MOL0     C87215   2.591   5.689   9.594  0.2665 -0.8707  0.6040
  647MOL0     C87216   2.501   5.752   9.503  0.4828  0.2041  0.2595
  647MOL0     C87217   2.487   5.705   9.372  0.1777  0.5181  0.2905
  647MOL0     O87218   2.390   5.739   9.278  0.1719  0.0742 -0.1339
  647MOL0     C87219   2.262   5.790   9.319 -0.0626 -0.5896 -0.1285
  647MOL0     C87220   2.217   5.899   9.221  0.6398  0.2568  0.4866
  647MOL0     C87221   2.325   6.001   9.195  0.4906  0.9907 -0.5144
  647MOL0     C87222   2.263   6.127   9.150 -0.7745 -1.0600 -0.0964
  647MOL0     C87223   2.177   6.120   9.035  0.4008 -0.2055  0.2325
  647MOL0     C87224   2.153   6.254   8.957  0.4812 -0.0106 -0.6980
  647MOL0     C87225   2.034   6.241   8.863  0.0616 -0.0938 -0.8146
  647MOL0     C87226   2.023   6.354   8.754  0.0220 -0.3458  0.8013
  647MOL0     N87227   1.954   6.473   8.798 -0.9709  0.2946  0.8102
  647MOL0     C87228   1.822   6.492   8.775  0.0899  0.7708  0.2173
  647MOL0     C87229   1.803   6.620   8.823  0.3805 -1.2092 -0.3585
  647MOL0     C87230   1.668   6.688   8.793  1.1601  0.5650  0.2599
  647MOL0     C87231   1.662   6.783   8.669  0.4121  0.1630 -0.5869
  647MOL0     C87232   1.693   6.729   8.532 -0.0303  0.0208  0.5795
  647MOL0     C87233   1.838   6.736   8.483 -0.2361 -0.4161 -0.4122
  647MOL0     O87234   1.862   6.623   8.398 -0.7215 -0.2776  0.5997
  647MOL0     C87235   1.808   6.627   8.276 -0.7293 -0.0560  0.5160
  647MOL0     C87236   1.823   6.512   8.203  0.2843 -0.4313 -0.5731
  647MOL0     C87237   1.775   6.495   8.073  0.5969 -0.0523  0.3111
  647MOL0     C87238   1.809   6.369   8.001  0.9253 -0.5058 -1.0851
  647MOL0     C87239   1.692   6.602   8.017 -0.8013  0.8052  0.5104
  647MOL0     C87240   1.649   6.592   7.876  0.6990  0.3925  0.2458
  647MOL0     O87241   1.566   6.495   7.831 -0.4530  0.5367  0.4212
  647MOL0     C87242   1.579   6.439   7.702  0.5919  0.6000  0.0890
  647MOL0     C87243   1.607   6.501   7.576  0.3964  0.1999  0.5878
  647MOL0     C87244   1.627   6.427   7.450 -0.2357  0.0318  0.2105
  647MOL0     C87245   1.618   6.292   7.454 -0.3592  0.9704  1.2078
  647MOL0     O87246   1.631   6.200   7.346  0.2429 -0.8035  0.1610
  647MOL0     C87247   1.575   6.244   7.224  0.1747 -0.3695  0.9986
  647MOL0     C87248   1.428   6.214   7.239  0.5042 -0.3470  0.4430
  647MOL0     C87249   1.397   6.069   7.257 -0.7560  0.2831 -0.7803
  647MOL0     C87250   1.424   5.978   7.138 -0.3405  0.2491  0.3305
  647MOL0     C87251   1.488   5.845   7.159 -1.0254 -0.0988  0.1724
  647MOL0     C87252   1.641   5.837   7.184  0.0495 -0.7127  0.6339
  647MOL0     C87253   1.734   5.843   7.057  0.1527  1.1487  0.3532
  647MOL0     C87254   1.867   5.899   7.097  0.1605  0.0196  0.5049
  647MOL0    Cl87255   1.961   5.948   6.955 -0.4679  0.1839  0.3631
  647MOL0     C87256   1.597   6.229   7.573 -0.0261  0.1685  0.4347
  647MOL0     C87257   1.578   6.297   7.692  0.1534 -0.9044 -1.0192
  647MOL0     O87258   1.707   6.672   7.805  0.1517 -0.0576  0.4642
  647MOL0     C87259   1.688   6.721   8.091 -0.5482  0.1053 -0.0110
  647MOL0     C87260   1.746   6.731   8.216  0.1719  0.0597  0.8766
  647MOL0     N87261   1.923   6.675   8.876  0.4885 -0.6397  0.2337
  647MOL0     N87262   2.007   6.582   8.856 -0.2070  0.2650 -0.0674
  647MOL0     C87263   2.568   5.604   9.334  0.9294 -1.0829  0.3815
  647MOL0     C87264   2.651   5.539   9.420 -0.5260  0.7045  0.4383
  647MOL0     C87265   2.711   5.289   9.776  0.6150  0.5215 -1.1420
  647MOL0     C87266   2.838   5.304   9.814  0.5230 -0.2080 -0.3637
  647MOL0     C87267   2.907   5.199   9.885  1.2512  0.4720 -0.3779
  647MOL0     C87268   2.845   5.072   9.915  0.4878 -0.5310  0.8696
  647MOL0     O87269   2.904   4.963   9.967 -0.4323  0.5575 -0.2670
  647MOL0     C87270   3.005   4.983  10.081  0.2291 -0.1497 -0.1037
  647MOL0     C87271   3.065   4.843  10.106 -0.2029 -0.8658  0.1405
  647MOL0     C87272   3.172   4.824  10.223 -0.6290 -0.0180  0.6423
  647MOL0     C87273   3.287   4.920  10.203 -0.6304 -0.1983 -0.2897
  647MOL0     C87274   3.274   5.055  10.276  0.0902 -0.9292  1.2172
  647MOL0     C87275   3.246   5.167  10.323 -0.0338  0.6694 -1.0859
  647MOL0     C87276   2.707   5.067   9.879 -0.5475 -1.4637 -0.7738
  647MOL0     C87277   2.644   5.175   9.816 -0.9466  0.0164 -0.6964
  647MOL0     H87278   2.603   5.723   9.696  2.3829 -0.5796  0.2908
  647MOL0     H87279   2.453   5.842   9.540 -0.0935 -0.0822  0.2240
  647MOL0     H87280   2.181   5.717   9.328 -0.2141 -0.2439  1.6476
  647MOL0     H87281   2.272   5.841   9.415  0.3838 -0.4435 -0.2479
  647MOL0     H87282   2.193   5.861   9.121  1.4625 -0.2120  0.4614
  647MOL0     H87283   2.128   5.935   9.273  1.5827 -0.6777  2.8405
  647MOL0     H87284   2.391   6.021   9.280 -0.4258  0.1866  0.4114
  647MOL0     H87285   2.398   5.974   9.119 -1.8742  1.9725 -3.3087
  647MOL0     H87286   2.200   6.165   9.231  0.0140  1.1849 -0.4620
  647MOL0     H87287   2.352   6.191   9.143  0.6248 -2.9743 -0.8589
  647MOL0     H87288   2.222   6.046   8.966  3.7554 -0.4989  2.4811
  647MOL0     H87289   2.080   6.083   9.068 -0.2178  0.3599 -0.8954
  647MOL0     H87290   2.146   6.331   9.034  0.0352  0.0176 -0.7633
  647MOL0     H87291   2.239   6.266   8.891  1.4211  0.4531  0.5777
  647MOL0     H87292   2.045   6.150   8.804 -1.5584 -1.5547  0.9972
  647MOL0     H87293   1.940   6.240   8.919  1.2242 -1.6597  1.2823
  647MOL0     H87294   1.972   6.312   8.667 -1.2149  0.0304  1.3290
  647MOL0     H87295   2.123   6.394   8.732 -0.0263 -1.4944 -1.8676
  647MOL0     H87296   1.753   6.425   8.725  2.0646 -1.5113  0.3255
  647MOL0     H87297   1.595   6.607   8.779  0.8009  1.4287 -7.7631
  647MOL0     H87298   1.639   6.748   8.879  1.6420  0.7683  0.2830
  647MOL0     H87299   1.728   6.867   8.693 -0.3132  0.5493  0.1098
  647MOL0     H87300   1.558   6.818   8.673 -0.0665 -1.2761  1.7249
  647MOL0     H87301   1.637   6.799   8.468  0.7161  0.6631  0.6162
  647MOL0     H87302   1.651   6.629   8.518 -1.7369  0.8540 -0.6216
  647MOL0     H87303   1.908   6.750   8.566  1.8524 -1.6816 -1.8839
  647MOL0     H87304   1.856   6.829   8.428  1.6128  0.2599  1.2149
  647MOL0     H87305   1.869   6.422   8.244  0.6381 -0.4028 -0.8913
  647MOL0     H87306   1.877   6.382   7.916  1.4540 -1.3616 -0.8062
  647MOL0     H87307   1.861   6.303   8.071  2.7474  0.1980 -1.7021
  647MOL0     H87308   1.713   6.323   7.975 -0.3142  0.4344  1.4199
  647MOL0     H87309   1.619   6.609   7.578  0.6801  0.1893  2.9901
  647MOL0     H87310   1.656   6.474   7.356  1.7285 -3.2202 -0.9771
  647MOL0     H87311   1.593   6.350   7.199 -2.5151  0.0231  0.3272
  647MOL0     H87312   1.619   6.192   7.138 -1.6819  0.3879 -0.5144
  647MOL0     H87313   1.377   6.276   7.313 -0.8005 -3.1143  2.0509
  647MOL0     H87314   1.369   6.235   7.149 -2.1497 -1.9352  1.6860
  647MOL0     H87315   1.291   6.064   7.283 -0.5353 -0.9323 -0.0768
  647MOL0     H87316   1.447   6.043   7.351 -1.3410  0.4043 -0.4331
  647MOL0     H87317   1.326   5.951   7.098 -0.7168  2.5219 -0.3912
  647MOL0     H87318   1.488   6.030   7.066  1.9895  2.4202  3.6291
  647MOL0     H87319   1.475   5.789   7.067  0.7724 -3.4868  1.7995
  647MOL0     H87320   1.438   5.778   7.231 -0.5984 -0.1201  0.4534
  647MOL0     H87321   1.655   5.914   7.260  0.7626 -2.4071  2.3226
  647MOL0     H87322   1.666   5.743   7.234  1.1798  0.1559  1.7823
  647MOL0     H87323   1.686   5.911   6.986 -3.1548 -1.7412 -0.4327
  647MOL0     H87324   1.737   5.744   7.011  0.3972  1.0324  0.6165
  647MOL0     H87325   1.918   5.813   7.142 -0.1088 -0.2773  0.2525
  647MOL0     H87326   1.857   5.976   7.174 -0.7647 -1.0935  1.5378
  647MOL0     H87327   1.608   6.121   7.582  0.5500  0.0925 -0.8885
  647MOL0     H87328   1.557   6.251   7.789  1.4459 -1.2701 -0.8989
  647MOL0     H87329   1.633   6.803   8.045  3.2048  2.3848 -0.8868
  647MOL0     H87330   1.742   6.831   8.257  1.8810 -0.3771  2.2483
  647MOL0     H87331   2.552   5.561   9.236 -0.2586 -2.9898  1.3287
  647MOL0     H87332   2.711   5.454   9.390 -1.6799 -0.8031  2.2205
  647MOL0     H87333   2.899   5.391   9.791  0.3279  0.7271  2.3618
  647MOL0     H87334   3.013   5.200   9.907  0.8605  2.2126  1.7430
  647MOL0     H87335   3.072   5.068  10.064 -1.4280  1.1331 -0.5309
  647MOL0     H87336   2.945   5.020  10.164  1.7443  0.1542  0.8801
  647MOL0     H87337   3.097   4.800  10.010  1.6712  0.0653  0.3091
  647MOL0     H87338   2.982   4.781  10.141 -0.6865 -1.5366 -2.0194
  647MOL0     H87339   3.221   4.727  10.232  1.6345  1.0749  0.7143
  647MOL0     H87340   3.111   4.843  10.312  0.0654  0.1334  1.0921
  647MOL0     H87341   3.284   4.945  10.097  2.1260 -2.4144 -0.9985
  647MOL0     H87342   3.379   4.862  10.211  2.2647  4.0344  0.3790
  647MOL0     H87343   3.199   5.259  10.353 -0.7074  0.7267 -2.2776
  647MOL0     H87344   2.643   4.979   9.890 -0.5936 -1.2935  0.3642
  647MOL0     H87345   2.538   5.163   9.796 -0.5591 -2.0874 -1.7409
  648MOL0     O87346   3.292  10.527  10.174 -0.1800 -0.6063  0.4678
  648MOL0     C87347   3.288  10.527  10.296  0.3300 -0.2519  0.2645
  648MOL0     O87348   3.173  10.523  10.374 -0.2559  0.1298  0.4636
  648MOL0     C87349   3.056  10.509  10.305 -0.6851 -0.2449 -0.3292
  648MOL0     C87350   3.001  10.383  10.283  0.7078  0.2046 -0.1293
  648MOL0     C87351   2.870  10.375  10.226 -0.1471  0.2430 -0.0571
  648MOL0     C87352   2.794  10.487  10.202 -0.5800  0.1941 -0.9101
  648MOL0     O87353   2.677  10.492  10.149  0.3881 -0.3418  0.5150
  648MOL0     C87354   2.674  10.442  10.012 -0.0633 -0.2552  0.4651
  648MOL0     C87355   2.546  10.489   9.934  0.9231  0.2878  0.1902
  648MOL0     C87356   2.569  10.619   9.879 -1.0985 -1.4307 -0.8102
  648MOL0     C87357   2.664  10.620   9.753 -0.0578 -0.0361  0.3483
  648MOL0     C87358   2.610  10.548   9.628  0.0330  0.1841 -0.4272
  648MOL0     C87359   2.718  10.539   9.516  0.5715  0.1894  0.8349
  648MOL0     C87360   2.649  10.470   9.386 -0.1394 -1.1727  0.0952
  648MOL0     C87361   2.736  10.438   9.274 -0.3686  0.5564 -0.0452
  648MOL0     N87362   2.800  10.305   9.284  0.0380  0.9007 -0.0778
  648MOL0     C87363   2.862  10.255   9.398  0.3004  0.6778  0.4426
  648MOL0     C87364   2.878  10.128   9.378  0.6577  0.1828  0.3711
  648MOL0     C87365   2.950  10.039   9.485 -0.2853 -0.4683  0.5094
  648MOL0     C87366   2.871   9.921   9.508  0.5672 -0.2548 -0.4434
  648MOL0     C87367   2.733   9.951   9.567 -0.4325  0.4365 -0.5090
  648MOL0     C87368   2.662   9.818   9.584 -0.4595  0.1046 -0.0603
  648MOL0     O87369   2.657   9.726   9.470  0.2629  0.0278  0.6399
  648MOL0     C87370   2.619   9.589   9.491 -0.1227  0.2508  0.5853
  648MOL0     C87371   2.544   9.539   9.596  0.2229  0.9507  0.0466
  648MOL0     C87372   2.490   9.410   9.595 -0.1352  0.5251  0.6331
  648MOL0     C87373   2.415   9.353   9.714  0.0192 -0.6215 -0.5994
  648MOL0     C87374   2.526   9.327   9.478  0.3537 -0.7597 -0.1551
  648MOL0     C87375   2.445   9.214   9.446 -0.2949  0.4084 -0.4102
  648MOL0     O87376   2.403   9.198   9.320  0.7490  0.0174  0.1468
  648MOL0     C87377   2.312   9.103   9.281  0.0172  0.1631 -0.3163
  648MOL0     C87378   2.342   8.990   9.213 -0.6267 -0.0826 -1.0326
  648MOL0     C87379   2.241   8.905   9.181  0.0797 -1.3332  0.6436
  648MOL0     C87380   2.108   8.933   9.198 -0.2801 -0.0145 -0.4198
  648MOL0     O87381   2.010   8.851   9.156 -0.2246  0.1478 -0.4073
  648MOL0     C87382   1.885   8.849   9.227 -0.1740 -1.3103  0.0912
  648MOL0     C87383   1.826   8.709   9.209  0.4525  0.3373 -0.3545
  648MOL0     C87384   1.694   8.680   9.269  1.0808  0.6850 -0.2341
  648MOL0     C87385   1.628   8.562   9.188  0.7961  0.6822  0.4052
  648MOL0     C87386   1.492   8.597   9.140  0.5771 -0.1492 -1.2690
  648MOL0     C87387   1.422   8.489   9.057 -0.8984 -0.8628 -0.2262
  648MOL0     C87388   1.290   8.541   9.002 -0.5275  1.0197 -0.5614
  648MOL0     C87389   1.204   8.435   8.933  0.0582  0.5660  0.5328
  648MOL0    Cl87390   1.303   8.344   8.813  0.2664 -0.3923  0.3430
  648MOL0     C87391   2.080   9.052   9.269  0.6301  0.1087 -0.5192
  648MOL0     C87392   2.183   9.136   9.301 -0.6825 -0.0292 -0.5574
  648MOL0     O87393   2.441   9.128   9.530  0.7335 -0.2979 -0.3173
  648MOL0     C87394   2.606   9.376   9.380  0.1095  0.2353 -0.7753
  648MOL0     C87395   2.651   9.501   9.387  0.5395 -0.3996  0.6550
  648MOL0     N87396   2.816  10.095   9.256 -0.1143  0.7156  0.1217
  648MOL0     N87397   2.765  10.204   9.196 -0.8895 -0.2589  0.0249
  648MOL0     C87398   2.854  10.617  10.220 -1.5977 -0.2675  0.2363
  648MOL0     C87399   2.979  10.621  10.280  0.1226 -0.1213  0.9505
  648MOL0     C87400   3.419  10.529  10.355 -0.8624  0.7660  0.1125
  648MOL0     C87401   3.536  10.550  10.276  0.1360  0.8098 -0.9722
  648MOL0     C87402   3.666  10.536  10.330  0.3384 -0.3949 -0.5969
  648MOL0     C87403   3.679  10.502  10.466  1.4878  0.4686  0.8015
  648MOL0     O87404   3.789  10.469  10.532 -0.1924  0.0340 -0.6164
  648MOL0     C87405   3.913  10.481  10.461  0.6283  0.0895  0.4232
  648MOL0     C87406   3.927  10.366  10.362  0.0594  0.6601 -0.3218
  648MOL0     C87407   4.011  10.255  10.423 -0.2687 -0.2181 -0.0568
  648MOL0     C87408   4.053  10.141  10.324 -0.1159 -0.3270  0.3089
  648MOL0     C87409   4.195  10.150  10.276  0.0591 -0.8151 -0.3939
  648MOL0     C87410   4.300  10.153  10.216  0.6387  0.0944  0.3112
  648MOL0     C87411   3.560  10.495  10.544  0.4111 -0.2838 -0.9127
  648MOL0     C87412   3.437  10.522  10.494 -0.1375  0.4752  0.2533
  648MOL0     H87413   3.056  10.290  10.289 -0.4014 -0.8221 -3.3798
  648MOL0     H87414   2.839  10.273  10.207  2.4622 -0.1703 -2.9446
  648MOL0     H87415   2.765  10.479   9.965  1.6404 -4.0513  0.3768
  648MOL0     H87416   2.687  10.333  10.014  0.4716 -0.2050 -0.0586
  648MOL0     H87417   2.497  10.417   9.868  0.3147  1.1598 -0.3224
  648MOL0     H87418   2.462  10.499  10.003  1.4513  0.7278  0.7753
  648MOL0     H87419   2.475  10.670   9.854 -1.6138 -2.1491 -0.3765
  648MOL0     H87420   2.608  10.683   9.959  0.3124 -3.4051  0.1544
  648MOL0     H87421   2.679  10.725   9.727 -1.5551  0.8602  2.8368
  648MOL0     H87422   2.759  10.574   9.782  1.4158  2.6691  0.1998
  648MOL0     H87423   2.594  10.444   9.657  0.7570  0.5504  1.4764
  648MOL0     H87424   2.517  10.597   9.599  0.6629  3.2830  2.1885
  648MOL0     H87425   2.757  10.638   9.491  4.8063 -1.7333 -0.9806
  648MOL0     H87426   2.806  10.482   9.545  0.0011  0.3646  3.1460
  648MOL0     H87427   2.594  10.380   9.416 -0.9594 -0.4435  0.8154
  648MOL0     H87428   2.581  10.543   9.342 -0.3243 -0.8369  0.9242
  648MOL0     H87429   2.822  10.505   9.266  1.0922 -1.4372 -2.4394
  648MOL0     H87430   2.686  10.446   9.177  0.5699  4.1209 -0.4005
  648MOL0     H87431   2.894  10.314   9.483  0.8390  0.8089  0.1572
  648MOL0     H87432   3.049  10.011   9.448  0.2246  1.9658 -0.1571
  648MOL0     H87433   2.966  10.094   9.579  1.8876  1.3052 -0.8078
  648MOL0     H87434   2.924   9.854   9.577 -2.3250 -0.1930  2.0899
  648MOL0     H87435   2.855   9.878   9.409 -3.6565 -0.0508 -0.0685
  648MOL0     H87436   2.677  10.020   9.503 -3.3624 -0.5249  0.8156
  648MOL0     H87437   2.747   9.997   9.665 -0.2211  2.7210 -1.5442
  648MOL0     H87438   2.562   9.849   9.617  0.3687  1.2873  1.4601
  648MOL0     H87439   2.707   9.768   9.670  0.1507 -1.9453 -1.4904
  648MOL0     H87440   2.539   9.599   9.687 -0.6206  1.0390 -0.0541
  648MOL0     H87441   2.316   9.315   9.686  0.5278 -2.0104 -0.5830
  648MOL0     H87442   2.472   9.268   9.752 -1.3740 -0.9364  0.9119
  648MOL0     H87443   2.408   9.428   9.793 -1.0980  1.1054 -2.2403
  648MOL0     H87444   2.445   8.962   9.194 -0.1802  1.0026 -0.2781
  648MOL0     H87445   2.267   8.820   9.119 -1.2163 -2.2926  1.3442
  648MOL0     H87446   1.914   8.857   9.332 -1.7213 -3.7282  0.7685
  648MOL0     H87447   1.810   8.922   9.196 -0.8161 -3.2861 -3.5963
  648MOL0     H87448   1.818   8.690   9.101  0.6257  1.6752 -0.6256
  648MOL0     H87449   1.881   8.632   9.264 -2.9479  0.2678  3.4319
  648MOL0     H87450   1.624   8.764   9.273 -0.0060 -0.1954 -0.2249
  648MOL0     H87451   1.700   8.640   9.370 -0.5317  0.4734 -0.1925
  648MOL0     H87452   1.684   8.535   9.098 -1.4089 -3.0346 -0.0845
  648MOL0     H87453   1.625   8.482   9.263 -0.6283  0.5405  0.2193
  648MOL0     H87454   1.494   8.691   9.086  0.3782  0.9531  0.5638
  648MOL0     H87455   1.433   8.616   9.231  0.5043 -0.8287 -1.1634
  648MOL0     H87456   1.494   8.457   8.980 -1.5421 -1.6996 -0.4909
  648MOL0     H87457   1.413   8.402   9.122  2.1047 -0.3010  1.1575
  648MOL0     H87458   1.308   8.625   8.934 -2.4844  1.6518 -0.3597
  648MOL0     H87459   1.224   8.584   9.077 -1.9198 -1.0157 -0.5325
  648MOL0     H87460   1.117   8.473   8.880 -0.9856 -1.8617  0.3867
  648MOL0     H87461   1.164   8.357   8.999 -2.0200  0.2296 -1.0503
  648MOL0     H87462   1.976   9.074   9.289  0.3981  1.0872 -2.5318
  648MOL0     H87463   2.158   9.231   9.347 -1.0147 -0.0281 -0.7390
  648MOL0     H87464   2.621   9.302   9.302 -0.7777 -0.7941 -0.0002
  648MOL0     H87465   2.713   9.550   9.313 -1.6104  1.7901  0.1555
  648MOL0     H87466   2.792  10.702  10.195  2.6239  3.2203  0.4662
  648MOL0     H87467   3.023  10.720  10.291  1.5116 -0.0551 -3.4331
  648MOL0     H87468   3.530  10.562  10.168 -2.9951 -0.1562 -1.0093
  648MOL0     H87469   3.752  10.535  10.264 -1.0405 -0.7335 -2.4732
  648MOL0     H87470   3.917  10.582  10.418 -1.2587 -0.1197 -0.3681
  648MOL0     H87471   3.996  10.480  10.531  1.1486 -1.6953 -0.1668
  648MOL0     H87472   3.992  10.409  10.285  1.7763 -0.4394  0.4372
  648MOL0     H87473   3.830  10.323  10.336 -1.4662  1.6311  3.1996
  648MOL0     H87474   3.946  10.203  10.493  0.2426 -1.8091 -0.7328
  648MOL0     H87475   4.096  10.292  10.481 -0.3375  0.9167 -0.6388
  648MOL0     H87476   3.987  10.141  10.237  2.0377 -4.2451 -1.5993
  648MOL0     H87477   4.047  10.045  10.377  0.5987 -1.9006 -2.2832
  648MOL0     H87478   4.399  10.141  10.176  1.3101 -0.3308  2.0078
  648MOL0     H87479   3.571  10.472  10.650  4.6488 -0.8214 -1.2689
  648MOL0     H87480   3.355  10.511  10.565 -0.9082 -0.8895 -0.7955
  649MOL0     O87481   7.169   7.035   8.222  0.2880 -0.0649 -0.0993
  649MOL0     C87482   7.177   7.150   8.268  0.0332  0.3258  0.2384
  649MOL0     O87483   7.082   7.218   8.347 -0.2183 -0.2899  0.1569
  649MOL0     C87484   6.958   7.166   8.367  0.3208  0.5988 -0.5944
  649MOL0     C87485   6.885   7.227   8.471 -0.4756  0.2003 -0.0550
  649MOL0     C87486   6.743   7.194   8.492 -0.2872  1.2232  0.6662
  649MOL0     C87487   6.680   7.098   8.412  0.0859 -0.0923  0.3907
  649MOL0     O87488   6.545   7.065   8.418  0.6382 -0.0125 -0.0432
  649MOL0     C87489   6.478   7.074   8.544 -0.3365 -0.8278 -1.5774
  649MOL0     C87490   6.437   6.934   8.585  0.2219  0.9988 -0.1908
  649MOL0     C87491   6.335   6.893   8.472 -0.7177  0.7801 -0.0492
  649MOL0     C87492   6.279   6.754   8.513  0.2924 -0.3598 -1.1153
  649MOL0     C87493   6.162   6.713   8.430  0.5615 -0.6655 -0.2691
  649MOL0     C87494   6.102   6.587   8.474  0.8987  0.8209 -0.4256
  649MOL0     C87495   5.965   6.573   8.406  0.6778  0.6832 -0.5963
  649MOL0     C87496   5.957   6.590   8.254 -0.4119 -0.9138  0.8332
  649MOL0     N87497   5.819   6.576   8.198  0.3565 -0.0057  0.4499
  649MOL0     C87498   5.703   6.574   8.258  0.1979 -0.7415  0.8486
  649MOL0     C87499   5.612   6.564   8.164  0.3748  0.3130  0.3598
  649MOL0     C87500   5.466   6.563   8.180 -0.5849 -0.3490  0.0665
  649MOL0     C87501   5.397   6.702   8.183 -0.1840 -0.3733  0.6933
  649MOL0     C87502   5.244   6.668   8.199 -0.0219 -0.0897  0.5348
  649MOL0     C87503   5.164   6.797   8.212  0.0207  0.4641  0.5475
  649MOL0     O87504   5.038   6.779   8.270  0.1337 -0.3956  0.5295
  649MOL0     C87505   4.979   6.886   8.338  0.4780  0.2071 -0.0421
  649MOL0     C87506   5.012   7.023   8.344 -0.9518  0.0636  0.5502
  649MOL0     C87507   4.951   7.116   8.434 -0.6208 -0.1894 -0.2072
  649MOL0     C87508   4.982   7.262   8.414 -0.4694  0.6831 -0.8703
  649MOL0     C87509   4.865   7.069   8.533  0.0634 -0.3998  0.5961
  649MOL0     C87510   4.777   7.159   8.621 -0.8276  0.4191 -0.6305
  649MOL0     O87511   4.663   7.203   8.563  0.2357  0.3706 -0.1821
  649MOL0     C87512   4.583   7.284   8.639 -0.0454 -0.1414  0.4728
  649MOL0     C87513   4.495   7.214   8.729 -1.6574  0.3753  1.5783
  649MOL0     C87514   4.416   7.291   8.812 -1.0831  0.8691  0.3154
  649MOL0     C87515   4.399   7.429   8.797  0.6528 -0.1724  1.1262
  649MOL0     O87516   4.315   7.505   8.872  0.2881 -0.2655 -1.0072
  649MOL0     C87517   4.357   7.625   8.935  0.2894 -0.2055 -0.2637
  649MOL0     C87518   4.251   7.723   8.896 -0.8238 -0.1265  0.1386
  649MOL0     C87519   4.299   7.865   8.851  1.4467  0.8362 -0.0207
  649MOL0     C87520   4.188   7.935   8.774 -0.1441  0.2300  0.1577
  649MOL0     C87521   4.240   8.074   8.730  0.1825 -0.5775  0.1341
  649MOL0     C87522   4.132   8.169   8.664 -0.4647 -0.4072  0.2696
  649MOL0     C87523   4.180   8.310   8.617  0.3482 -1.0189  0.3663
  649MOL0     C87524   4.293   8.284   8.513  0.8828  1.1990  0.6944
  649MOL0    Cl87525   4.368   8.426   8.438 -0.0884 -0.2626 -0.0961
  649MOL0     C87526   4.470   7.488   8.692 -1.3096 -0.3197 -0.0451
  649MOL0     C87527   4.565   7.419   8.618  0.4348  0.0886 -0.7296
  649MOL0     O87528   4.812   7.180   8.738  1.0965 -0.1208  0.0561
  649MOL0     C87529   4.840   6.932   8.536  0.0681 -0.4368  0.1177
  649MOL0     C87530   4.890   6.840   8.446 -0.2060  0.0236 -0.0950
  649MOL0     N87531   5.671   6.547   8.049  0.2322  0.3385 -0.7599
  649MOL0     N87532   5.794   6.562   8.064  0.3962  0.3091  0.4017
  649MOL0     C87533   6.751   7.041   8.312 -0.0315 -0.5961 -0.7240
  649MOL0     C87534   6.886   7.079   8.286 -0.1041 -0.4482  0.0326
  649MOL0     C87535   7.298   7.226   8.229 -0.1987 -0.0616  0.7185
  649MOL0     C87536   7.428   7.167   8.204 -0.7792 -0.3611  0.5531
  649MOL0     C87537   7.538   7.240   8.152  0.3061  0.5435  1.3913
  649MOL0     C87538   7.533   7.378   8.140  0.0256  1.3183  0.7185
  649MOL0     O87539   7.637   7.466   8.116 -0.0204  0.3254  0.5467
  649MOL0     C87540   7.763   7.420   8.058 -0.0535  0.5832 -1.4323
  649MOL0     C87541   7.758   7.432   7.910 -0.2128  0.3872 -0.2507
  649MOL0     C87542   7.774   7.579   7.863 -0.4573 -0.0252 -0.2429
  649MOL0     C87543   7.895   7.657   7.924  0.2811  0.3286  1.0611
  649MOL0     C87544   8.017   7.583   7.925  0.9619  0.9216 -0.5328
  649MOL0     C87545   8.116   7.514   7.927 -0.7552 -0.6532 -0.4605
  649MOL0     C87546   7.415   7.437   8.167 -0.5435  0.6341  0.4172
  649MOL0     C87547   7.293   7.370   8.215 -0.1601  0.1322  0.7149
  649MOL0     H87548   6.928   7.286   8.551 -2.2777  2.0718 -0.3922
  649MOL0     H87549   6.692   7.248   8.571 -1.8225  2.2195 -0.9307
  649MOL0     H87550   6.533   7.112   8.631 -1.2615 -1.2091 -0.8178
  649MOL0     H87551   6.388   7.135   8.527 -2.4447 -2.9830  1.0277
  649MOL0     H87552   6.516   6.859   8.593  2.1026  2.7186 -1.4943
  649MOL0     H87553   6.389   6.937   8.683  0.2048  1.1256 -0.2031
  649MOL0     H87554   6.254   6.966   8.466 -0.0650  1.6719  1.4084
  649MOL0     H87555   6.390   6.864   8.382 -0.1857 -2.3693  1.1700
  649MOL0     H87556   6.356   6.676   8.500 -0.3421 -0.9471 -1.3884
  649MOL0     H87557   6.251   6.755   8.619 -0.7183 -3.8986 -1.2047
  649MOL0     H87558   6.085   6.789   8.448  0.1260 -1.1454 -0.0840
  649MOL0     H87559   6.193   6.716   8.325  1.2140  1.7588 -0.0725
  649MOL0     H87560   6.164   6.499   8.453 -1.1902 -0.0444 -3.6791
  649MOL0     H87561   6.086   6.597   8.581 -1.0149  1.7508 -0.7565
  649MOL0     H87562   5.941   6.468   8.427  1.4915  0.4572 -0.7695
  649MOL0     H87563   5.891   6.639   8.452  0.0041 -2.0817  2.7407
  649MOL0     H87564   6.021   6.521   8.199 -1.8652 -0.1595 -1.9687
  649MOL0     H87565   5.986   6.693   8.231 -0.5483 -0.5971  1.9951
  649MOL0     H87566   5.679   6.590   8.363 -2.8439 -1.6883  0.3946
  649MOL0     H87567   5.423   6.504   8.098  1.1826 -0.8247 -0.5660
  649MOL0     H87568   5.436   6.507   8.269  0.7059 -0.4652  0.4430
  649MOL0     H87569   5.421   6.747   8.086 -0.4041 -1.8046 -0.0518
  649MOL0     H87570   5.435   6.759   8.268 -0.5572 -1.6430  1.7591
  649MOL0     H87571   5.225   6.592   8.276 -2.7220  0.2180  0.2639
  649MOL0     H87572   5.217   6.625   8.102 -0.6279  2.3552 -0.4550
  649MOL0     H87573   5.149   6.831   8.110 -0.2580 -0.0343  0.4166
  649MOL0     H87574   5.214   6.881   8.262  1.0240  0.0257  0.3060
  649MOL0     H87575   5.077   7.065   8.267  0.3685 -1.1426  0.9646
  649MOL0     H87576   4.929   7.276   8.320  0.6762  0.1289 -1.6134
  649MOL0     H87577   4.943   7.329   8.491  0.9996 -0.9657  1.4480
  649MOL0     H87578   5.088   7.283   8.398  0.3394  0.2801  2.8555
  649MOL0     H87579   4.506   7.106   8.741 -0.3306  0.3903  0.8041
  649MOL0     H87580   4.371   7.257   8.905 -1.0153  1.1947  0.4690
  649MOL0     H87581   4.338   7.594   9.039 -2.5771 -0.1043 -0.6975
  649MOL0     H87582   4.459   7.664   8.928  1.3918 -2.4108  1.6809
  649MOL0     H87583   4.201   7.690   8.804  0.6506  2.5923 -1.7805
  649MOL0     H87584   4.195   7.733   8.990 -1.1973  1.3491 -0.2221
  649MOL0     H87585   4.390   7.859   8.791  0.1194  2.3965 -2.4098
  649MOL0     H87586   4.318   7.918   8.944 -0.3236  0.2005  0.7613
  649MOL0     H87587   4.166   7.883   8.680  0.0569  1.7703 -0.7887
  649MOL0     H87588   4.103   7.951   8.840 -0.3439  1.6808 -0.4110
  649MOL0     H87589   4.306   8.054   8.645 -1.2463 -2.5768 -0.5612
  649MOL0     H87590   4.289   8.135   8.807 -0.4804  0.0086  0.0945
  649MOL0     H87591   4.093   8.115   8.577 -0.4928  0.9589 -0.5974
  649MOL0     H87592   4.053   8.198   8.734 -0.1883 -1.4625  1.0513
  649MOL0     H87593   4.228   8.371   8.694  1.7320 -1.2383 -0.2772
  649MOL0     H87594   4.091   8.358   8.576 -0.8124 -2.6076  0.9027
  649MOL0     H87595   4.251   8.226   8.430 -1.0119  2.5203  0.6597
  649MOL0     H87596   4.375   8.229   8.561 -2.4162 -2.5831  2.6633
  649MOL0     H87597   4.458   7.595   8.675  0.4834 -0.0212  0.2815
  649MOL0     H87598   4.619   7.458   8.532  3.2110 -2.2501 -0.2459
  649MOL0     H87599   4.774   6.892   8.611 -1.0746  1.3145  0.0963
  649MOL0     H87600   4.877   6.733   8.458  1.2630 -0.2250 -0.5038
  649MOL0     H87601   6.711   6.966   8.244 -2.1423  0.9226 -1.2579
  649MOL0     H87602   6.939   7.033   8.204  1.9542 -0.5280  1.3118
  649MOL0     H87603   7.440   7.061   8.224  0.3137 -0.8315 -2.1556
  649MOL0     H87604   7.625   7.180   8.127  0.9291  2.1891 -0.6567
  649MOL0     H87605   7.832   7.485   8.112  0.4615 -1.3371  0.3530
  649MOL0     H87606   7.783   7.316   8.083  0.7124  0.3300 -2.9569
  649MOL0     H87607   7.662   7.393   7.874  0.3155 -0.2273 -1.0312
  649MOL0     H87608   7.842   7.374   7.871 -1.2083 -0.7254 -0.8282
  649MOL0     H87609   7.686   7.642   7.879 -0.0911  0.7705 -1.2229
  649MOL0     H87610   7.780   7.585   7.754 -1.4325 -1.0490 -0.3762
  649MOL0     H87611   7.866   7.670   8.028  0.0920  1.3501  0.8953
  649MOL0     H87612   7.906   7.763   7.896  2.9446  0.1086  1.0052
  649MOL0     H87613   8.210   7.464   7.937 -0.8826 -0.8430 -0.2244
  649MOL0     H87614   7.401   7.543   8.149  1.3685  1.4213  3.0053
  649MOL0     H87615   7.209   7.438   8.218  1.6199  2.5615 -0.2889
  650MOL0     O87616   0.585   2.070   0.973  0.6846 -0.2774 -0.6027
  650MOL0     C87617   0.577   1.989   0.882  0.4608 -0.0144 -0.2937
  650MOL0     O87618   0.463   1.961   0.814 -0.6209 -1.1012 -0.3752
  650MOL0     C87619   0.354   2.030   0.854  0.3766 -1.3294 -0.0466
  650MOL0     C87620   0.307   2.063   0.973  1.1428 -0.4995 -0.7243
  650MOL0     C87621   0.189   2.139   0.993  0.0691  0.5426 -0.2837
  650MOL0     C87622   0.103   2.167   0.886  0.3515 -1.2373 -0.5940
  650MOL0     O87623  -0.018   2.217   0.896  0.1170 -0.1214  0.1642
  650MOL0     C87624  -0.023   2.353   0.933  0.3880  0.6647 -0.9007
  650MOL0     C87625  -0.157   2.375   0.996 -0.8620 -1.4748 -0.6837
  650MOL0     C87626  -0.211   2.269   1.090  0.7640  0.3779  0.5916
  650MOL0     C87627  -0.354   2.301   1.130  1.0871 -0.7744 -0.1327
  650MOL0     C87628  -0.436   2.189   1.198  0.4576 -0.1877 -0.4917
  650MOL0     C87629  -0.382   2.129   1.326  0.2729  0.3699  0.8508
  650MOL0     C87630  -0.405   2.222   1.447 -0.8698  0.3064  0.5353
  650MOL0     C87631  -0.416   2.145   1.579  0.6988 -0.4386  0.3815
  650MOL0     N87632  -0.547   2.082   1.596  0.2001  0.2281  0.0510
  650MOL0     C87633  -0.574   1.949   1.552 -0.5745 -0.0603 -0.5715
  650MOL0     C87634  -0.706   1.934   1.552  0.7884 -1.0841  0.9624
  650MOL0     C87635  -0.769   1.813   1.495  0.2096 -0.6633  0.0353
  650MOL0     C87636  -0.855   1.857   1.380 -1.1452 -0.7335 -0.5849
  650MOL0     C87637  -0.907   1.728   1.311  0.0143 -0.4331  0.9376
  650MOL0     C87638  -0.996   1.748   1.182 -0.0357 -0.7074  0.3596
  650MOL0     O87639  -1.131   1.756   1.234  0.1047 -0.1822 -0.4971
  650MOL0     C87640  -1.230   1.798   1.161  0.3940 -0.1566  0.2313
  650MOL0     C87641  -1.229   1.840   1.028 -0.2598  0.7896 -0.1434
  650MOL0     C87642  -1.336   1.912   0.971  0.2555 -0.2616  1.4381
  650MOL0     C87643  -1.326   1.985   0.838  0.7101 -0.3403 -0.9936
  650MOL0     C87644  -1.456   1.927   1.043  0.0969 -0.1286 -0.1565
  650MOL0     C87645  -1.577   1.990   0.984 -0.9887 -0.6860 -1.1110
  650MOL0     O87646  -1.670   1.917   0.923  0.4446 -0.2669 -0.2119
  650MOL0     C87647  -1.639   1.791   0.883  0.6519 -0.5963 -0.0711
  650MOL0     C87648  -1.617   1.764   0.745  0.0911 -0.2961  0.7571
  650MOL0     C87649  -1.594   1.631   0.701  0.3826 -0.6189 -0.4920
  650MOL0     C87650  -1.595   1.526   0.788 -0.4957  0.2725 -0.1452
  650MOL0     O87651  -1.582   1.401   0.758 -0.2600 -0.4282  0.1618
  650MOL0     C87652  -1.692   1.309   0.759  0.2634  1.1191  0.3654
  650MOL0     C87653  -1.641   1.166   0.719  0.3730 -0.5086  1.0099
  650MOL0     C87654  -1.759   1.069   0.707 -0.2305  0.7400 -0.3824
  650MOL0     C87655  -1.707   0.937   0.667  0.7373  0.8494 -0.5891
  650MOL0     C87656  -1.823   0.840   0.651 -0.0810 -1.0034  0.7332
  650MOL0     C87657  -1.776   0.708   0.587 -0.4467  0.1630 -0.3226
  650MOL0     C87658  -1.905   0.629   0.571 -0.4113  0.0089 -0.0038
  650MOL0     C87659  -1.875   0.501   0.493 -0.2516 -0.5729  0.0222
  650MOL0    Cl87660  -2.003   0.375   0.490  0.5119  0.2028  0.0942
  650MOL0     C87661  -1.626   1.555   0.928 -0.2573 -0.5736  0.4247
  650MOL0     C87662  -1.651   1.684   0.973  0.1001  0.2671  0.0686
  650MOL0     O87663  -1.572   2.117   0.996  0.8723  0.4000  0.4411
  650MOL0     C87664  -1.456   1.878   1.171  0.0822  0.1857 -0.7038
  650MOL0     C87665  -1.349   1.812   1.232  0.1159 -0.6580  0.3769
  650MOL0     N87666  -0.756   2.059   1.569  0.6447  0.0495  0.4210
  650MOL0     N87667  -0.671   2.148   1.577 -0.1115 -0.3588 -0.3021
  650MOL0     C87668   0.149   2.127   0.760 -0.1815 -0.1696 -0.5013
  650MOL0     C87669   0.280   2.072   0.744  0.7875  0.0999  0.1346
  650MOL0     C87670   0.706   1.922   0.840  0.1688 -0.1844  0.4012
  650MOL0     C87671   0.829   1.967   0.891  0.4300 -0.7252  0.6586
  650MOL0     C87672   0.951   1.907   0.857  0.0751  0.2162  0.5763
  650MOL0     C87673   0.957   1.788   0.774  0.4063  1.0204  0.6854
  650MOL0     O87674   1.075   1.728   0.746 -0.6985  0.1683 -0.4485
  650MOL0     C87675   1.194   1.746   0.835  0.4818 -0.1354  0.5393
  650MOL0     C87676   1.318   1.657   0.802  0.0557 -0.8655  0.2788
  650MOL0     C87677   1.276   1.513   0.822  0.0998  0.2697  0.3909
  650MOL0     C87678   1.401   1.425   0.820  0.8517  0.2411 -0.4024
  650MOL0     C87679   1.499   1.453   0.927  0.3224  0.1334 -0.0252
  650MOL0     C87680   1.573   1.488   1.013  0.2814  0.6195 -1.0431
  650MOL0     C87681   0.832   1.740   0.733 -0.2935  0.3916  0.0590
  650MOL0     C87682   0.710   1.811   0.758 -0.5552 -0.5217  0.2287
  650MOL0     H87683   0.354   2.021   1.061 -1.9473 -1.6721  0.5304
  650MOL0     H87684   0.149   2.153   1.093  0.3716  0.2015 -0.1132
  650MOL0     H87685   0.057   2.353   1.007 -0.4234 -3.2650  0.2067
  650MOL0     H87686  -0.004   2.411   0.842  0.2586 -0.1399 -1.4528
  650MOL0     H87687  -0.158   2.470   1.050  1.0355 -1.2689 -0.9529
  650MOL0     H87688  -0.235   2.393   0.921 -0.6771  1.7726 -0.2595
  650MOL0     H87689  -0.207   2.166   1.053  1.0178  0.7556 -0.4869
  650MOL0     H87690  -0.164   2.264   1.188 -0.0673 -1.6851  0.9418
  650MOL0     H87691  -0.349   2.390   1.193  0.6184  0.5400 -1.8716
  650MOL0     H87692  -0.408   2.333   1.040 -0.2054 -1.5223  0.3385
  650MOL0     H87693  -0.534   2.226   1.228  0.0013 -0.5452 -1.4659
  650MOL0     H87694  -0.463   2.111   1.125 -3.6421  0.9200 -0.3893
  650MOL0     H87695  -0.434   2.034   1.341  2.0909 -1.1535 -1.7287
  650MOL0     H87696  -0.276   2.106   1.315  0.9177  3.8093 -2.6541
  650MOL0     H87697  -0.318   2.289   1.448  0.6310 -1.5061 -0.6994
  650MOL0     H87698  -0.490   2.287   1.426 -0.5619  0.1306 -1.3586
  650MOL0     H87699  -0.409   2.226   1.651 -2.1004  2.0427 -1.8815
  650MOL0     H87700  -0.335   2.072   1.587  0.9235 -0.2338  0.0104
  650MOL0     H87701  -0.493   1.886   1.518  0.0105 -0.1125  0.8324
  650MOL0     H87702  -0.681   1.751   1.475  1.6902  1.6349 -0.8883
  650MOL0     H87703  -0.840   1.767   1.565  1.0275  1.2869  2.2980
  650MOL0     H87704  -0.799   1.929   1.319 -1.0625 -1.1621 -1.0281
  650MOL0     H87705  -0.940   1.916   1.415 -1.9852 -1.5172 -1.2537
  650MOL0     H87706  -0.952   1.668   1.390  0.6079 -2.1208  0.0505
  650MOL0     H87707  -0.821   1.669   1.278 -1.7078 -1.1187 -2.9480
  650MOL0     H87708  -1.000   1.661   1.116 -2.7507  1.6889 -3.0192
  650MOL0     H87709  -0.965   1.837   1.126 -1.1270 -1.0099 -0.7709
  650MOL0     H87710  -1.136   1.836   0.973 -1.1368  2.8406 -1.9001
  650MOL0     H87711  -1.220   1.993   0.812  0.8993 -0.6484 -0.3612
  650MOL0     H87712  -1.388   1.940   0.761 -1.9122 -1.1109  1.3771
  650MOL0     H87713  -1.364   2.086   0.854 -1.9266 -1.4889  0.5379
  650MOL0     H87714  -1.634   1.842   0.672 -3.0801 -2.0266 -0.5487
  650MOL0     H87715  -1.603   1.615   0.594 -3.8515  2.9149 -0.8911
  650MOL0     H87716  -1.744   1.307   0.855 -2.4354  3.0729 -0.9403
  650MOL0     H87717  -1.763   1.340   0.682  2.7908  1.5296 -1.9685
  650MOL0     H87718  -1.578   1.168   0.629  0.8153 -0.2462  1.3250
  650MOL0     H87719  -1.582   1.130   0.803  4.0603 -0.9040 -1.4963
  650MOL0     H87720  -1.832   1.101   0.632  2.3075  1.5878 -2.6424
  650MOL0     H87721  -1.802   1.060   0.808  0.6911 -0.8448 -0.1061
  650MOL0     H87722  -1.664   0.940   0.566  0.0117 -1.9647 -1.0854
  650MOL0     H87723  -1.632   0.903   0.738  2.5459  5.0402 -0.2375
  650MOL0     H87724  -1.900   0.884   0.586 -1.6877 -0.8118  2.6427
  650MOL0     H87725  -1.884   0.825   0.741 -1.9944 -1.1857 -0.5331
  650MOL0     H87726  -1.729   0.733   0.492 -0.7268  1.4205 -0.1488
  650MOL0     H87727  -1.707   0.653   0.651  0.3277  0.5753 -0.7830
  650MOL0     H87728  -1.991   0.684   0.531 -0.2129  0.9363  0.8199
  650MOL0     H87729  -1.932   0.586   0.668  1.0457  0.1651  0.5038
  650MOL0     H87730  -1.774   0.473   0.523 -0.7545 -3.4125 -0.6417
  650MOL0     H87731  -1.864   0.521   0.386  1.1281 -1.8081 -0.0971
  650MOL0     H87732  -1.654   1.465   0.983 -1.1735 -0.9658 -0.6367
  650MOL0     H87733  -1.668   1.706   1.078 -1.0446  0.8501 -0.2245
  650MOL0     H87734  -1.549   1.873   1.227  1.4464  0.0430  1.6817
  650MOL0     H87735  -1.367   1.792   1.337 -0.6841  0.0822  0.3971
  650MOL0     H87736   0.096   2.161   0.671 -0.6240 -0.5559 -0.3884
  650MOL0     H87737   0.306   2.039   0.644 -0.2838 -0.0758 -0.1037
  650MOL0     H87738   0.825   2.054   0.956 -1.4536 -0.5379  0.3588
  650MOL0     H87739   1.041   1.955   0.892 -0.6260  0.0173  2.8143
  650MOL0     H87740   1.217   1.852   0.845  1.1885 -0.0477 -1.4562
  650MOL0     H87741   1.159   1.710   0.932 -0.2742 -2.1350 -0.4195
  650MOL0     H87742   1.384   1.681   0.886 -2.2981 -1.4235  2.4040
  650MOL0     H87743   1.371   1.682   0.709  3.6848  0.3458  2.4654
  650MOL0     H87744   1.210   1.479   0.741  2.2054 -1.4308 -0.7269
  650MOL0     H87745   1.223   1.500   0.917  1.3285 -1.0286  0.9372
  650MOL0     H87746   1.448   1.451   0.725 -2.0654  1.4319 -1.6644
  650MOL0     H87747   1.370   1.321   0.807 -2.0889  0.6427  2.2457
  650MOL0     H87748   1.656   1.500   1.079 -0.1862 -6.5161  1.7723
  650MOL0     H87749   0.824   1.659   0.661 -1.7947 -1.0183  1.7108
  650MOL0     H87750   0.613   1.776   0.724 -1.1277  0.9322  0.3016
  651MOL0     O87751   3.385   6.299   5.413  0.1128  0.3917  0.1985
  651MOL0     C87752   3.322   6.245   5.319 -0.0940  0.2175 -1.9598
  651MOL0     O87753   3.235   6.135   5.340 -0.0242 -1.2464 -0.0254
  651MOL0     C87754   3.208   6.078   5.466 -0.7439 -0.0645 -1.0293
  651MOL0     C87755   3.261   6.109   5.589 -0.3215 -0.0244  0.8313
  651MOL0     C87756   3.230   6.036   5.714 -0.9648  0.2510  0.1440
  651MOL0     C87757   3.150   5.920   5.701 -0.2425  0.1323  0.3507
  651MOL0     O87758   3.138   5.852   5.819 -1.2730  0.1705  0.3382
  651MOL0     C87759   3.180   5.713   5.821 -0.2731  0.2791  0.3607
  651MOL0     C87760   3.092   5.643   5.925  0.4486  0.4539  1.1012
  651MOL0     C87761   2.945   5.643   5.880 -0.1900 -0.7112  0.0511
  651MOL0     C87762   2.839   5.602   5.983 -0.2838  0.2000 -0.3306
  651MOL0     C87763   2.854   5.452   6.011  0.4772 -0.3995  0.1727
  651MOL0     C87764   2.786   5.407   6.143  0.2768  0.8681 -0.3428
  651MOL0     C87765   2.633   5.406   6.141 -0.3446  0.1254  0.1831
  651MOL0     C87766   2.595   5.378   6.293  0.6904 -0.4850  0.2216
  651MOL0     N87767   2.454   5.353   6.312 -0.8727  0.2527  0.5890
  651MOL0     C87768   2.421   5.241   6.380  0.4085 -0.1241 -0.8359
  651MOL0     C87769   2.289   5.269   6.417 -0.2500  0.3121 -0.0290
  651MOL0     C87770   2.201   5.191   6.502 -0.2699  0.5662 -0.1242
  651MOL0     C87771   2.139   5.064   6.432 -0.7817  0.1608  0.6299
  651MOL0     C87772   2.230   4.950   6.485 -0.2858  0.2013 -0.0124
  651MOL0     C87773   2.212   4.821   6.415  0.9720 -0.5271  0.2015
  651MOL0     O87774   2.252   4.823   6.277 -0.2886 -0.2772  0.2796
  651MOL0     C87775   2.378   4.846   6.252 -0.7779 -0.3570  0.3302
  651MOL0     C87776   2.482   4.783   6.326  0.0610 -0.3621 -0.0959
  651MOL0     C87777   2.613   4.830   6.306 -0.3090 -0.7024 -0.4065
  651MOL0     C87778   2.722   4.757   6.372  0.4961 -0.5488  0.0160
  651MOL0     C87779   2.647   4.938   6.208  0.3548  0.2763  0.1353
  651MOL0     C87780   2.778   4.986   6.162 -0.7063  0.9260 -1.3592
  651MOL0     O87781   2.875   4.980   6.266  0.1847  0.5692  0.3638
  651MOL0     C87782   2.994   5.041   6.262  0.2113  0.1724  0.5744
  651MOL0     C87783   3.020   5.156   6.338  0.4702  1.6291 -0.8203
  651MOL0     C87784   3.146   5.212   6.350  0.0798 -0.5585  0.6993
  651MOL0     C87785   3.251   5.150   6.283 -0.2240 -0.4211  0.3609
  651MOL0     O87786   3.387   5.174   6.291  0.0402 -0.0730  0.8461
  651MOL0     C87787   3.448   5.280   6.362  0.2473  0.4020  0.1949
  651MOL0     C87788   3.600   5.247   6.352 -0.0847  0.0385  0.1580
  651MOL0     C87789   3.674   5.350   6.433 -0.4288  0.7044 -0.0536
  651MOL0     C87790   3.809   5.304   6.466  0.2269  0.5445 -0.9539
  651MOL0     C87791   3.880   5.409   6.549  0.7451 -0.3867 -0.1154
  651MOL0     C87792   4.018   5.358   6.587  0.6441  0.1578  0.0176
  651MOL0     C87793   4.117   5.388   6.470 -0.3437  0.3152  0.7944
  651MOL0     C87794   4.188   5.258   6.430  0.6778 -1.0909 -1.0309
  651MOL0    Cl87795   4.339   5.314   6.323  0.1134  0.1240 -0.0371
  651MOL0     C87796   3.219   5.043   6.202  0.4308  0.0648 -0.2585
  651MOL0     C87797   3.095   4.990   6.182 -0.3348  0.3020  0.2687
  651MOL0     O87798   2.807   5.015   6.050 -0.1572 -1.2186  0.5973
  651MOL0     C87799   2.536   4.989   6.144  0.1640  0.2978  0.6310
  651MOL0     C87800   2.403   4.953   6.158 -0.4728  0.1663  0.4107
  651MOL0     N87801   2.260   5.397   6.368 -0.7417  0.3820 -0.0912
  651MOL0     N87802   2.359   5.441   6.299  0.2887  0.2411  0.2446
  651MOL0     C87803   3.090   5.893   5.576  0.0307  0.0961 -0.2907
  651MOL0     C87804   3.117   5.968   5.463  0.6899  0.3668  0.0070
  651MOL0     C87805   3.334   6.299   5.184  0.1515 -0.0536 -0.0356
  651MOL0     C87806   3.410   6.412   5.157  0.8422 -0.2167  0.7026
  651MOL0     C87807   3.428   6.445   5.018  0.2415 -0.0613 -0.8684
  651MOL0     C87808   3.387   6.370   4.910  0.6385  0.0867 -0.0992
  651MOL0     O87809   3.391   6.399   4.772  0.7462 -0.1709  0.6220
  651MOL0     C87810   3.476   6.513   4.745  0.6537 -0.1011  0.4392
  651MOL0     C87811   3.495   6.518   4.581 -0.4063  0.5348  0.3331
  651MOL0     C87812   3.456   6.379   4.523 -0.5177  0.2872  0.8792
  651MOL0     C87813   3.487   6.377   4.375  0.2164 -0.2311 -0.6184
  651MOL0     C87814   3.394   6.280   4.304 -0.4162  0.6782 -0.1377
  651MOL0     C87815   3.332   6.189   4.243 -0.1735  0.3849 -0.1042
  651MOL0     C87816   3.302   6.263   4.942  0.5486  1.1206  0.2173
  651MOL0     C87817   3.269   6.230   5.078  0.2154 -0.4851 -0.0813
  651MOL0     H87818   3.346   6.177   5.599 -0.4578  0.1496  0.8099
  651MOL0     H87819   3.262   6.060   5.814  2.4046 -1.2376 -0.4455
  651MOL0     H87820   3.182   5.665   5.722  3.2794  0.4997  0.1859
  651MOL0     H87821   3.285   5.698   5.847 -0.0972  1.2549  0.2447
  651MOL0     H87822   3.134   5.543   5.942 -2.4600 -1.5525 -2.1248
  651MOL0     H87823   3.108   5.690   6.023 -1.2654 -1.1275  2.2288
  651MOL0     H87824   2.914   5.747   5.869  0.5371  0.4842  5.9385
  651MOL0     H87825   2.930   5.592   5.784 -0.3962  0.6231 -0.6473
  651MOL0     H87826   2.862   5.638   6.084 -0.5851  2.2087 -0.9333
  651MOL0     H87827   2.738   5.626   5.950 -1.0577 -1.5465  0.6391
  651MOL0     H87828   2.808   5.396   5.929  0.9186 -0.4934 -0.0114
  651MOL0     H87829   2.957   5.418   6.025 -0.0434 -1.8287  0.7309
  651MOL0     H87830   2.823   5.304   6.151 -0.8862  0.3429 -1.3667
  651MOL0     H87831   2.823   5.467   6.226 -0.4603  0.8571  0.0046
  651MOL0     H87832   2.599   5.505   6.109  0.0705  0.0446 -0.5344
  651MOL0     H87833   2.580   5.327   6.087 -0.1283 -0.2126  0.4582
  651MOL0     H87834   2.633   5.463   6.348 -0.1958 -0.4224  0.7580
  651MOL0     H87835   2.645   5.291   6.336 -2.3507 -3.0227 -0.9346
  651MOL0     H87836   2.487   5.155   6.388  1.4303  0.8112  1.7175
  651MOL0     H87837   2.249   5.170   6.598 -0.6738 -1.2891 -0.3050
  651MOL0     H87838   2.120   5.262   6.518 -3.3385 -1.7953 -3.6149
  651MOL0     H87839   2.134   5.073   6.323  0.3879  0.4239  0.5831
  651MOL0     H87840   2.037   5.043   6.462 -1.1871 -1.6705 -1.6872
  651MOL0     H87841   2.207   4.929   6.590  2.2199 -0.8514  0.3850
  651MOL0     H87842   2.336   4.977   6.492  0.4942 -2.4089 -0.8066
  651MOL0     H87843   2.103   4.806   6.417  0.8536  0.0556  3.5069
  651MOL0     H87844   2.237   4.732   6.473 -1.1056 -2.6719 -1.9777
  651MOL0     H87845   2.468   4.695   6.388  4.3256 -1.2325 -0.0792
  651MOL0     H87846   2.793   4.729   6.293  0.0364 -5.2373  0.9523
  651MOL0     H87847   2.767   4.828   6.441  0.8090 -0.1500 -0.5906
  651MOL0     H87848   2.689   4.659   6.409  3.0069 -2.6204 -2.6709
  651MOL0     H87849   2.938   5.203   6.392 -1.1443 -2.4862  0.6879
  651MOL0     H87850   3.173   5.295   6.415  2.9179 -1.7114  1.1228
  651MOL0     H87851   3.422   5.378   6.321 -1.6760  0.5235  1.5739
  651MOL0     H87852   3.417   5.276   6.467  1.5241 -0.9449  0.5624
  651MOL0     H87853   3.620   5.150   6.397  1.0116  0.4005  0.4702
  651MOL0     H87854   3.631   5.251   6.247  2.1182  1.7688  0.7952
  651MOL0     H87855   3.607   5.391   6.509 -0.0646  1.3220 -0.0554
  651MOL0     H87856   3.682   5.430   6.358 -1.1844 -1.6799 -2.8876
  651MOL0     H87857   3.813   5.207   6.516  2.0235  0.6168 -0.8945
  651MOL0     H87858   3.877   5.299   6.380  1.9579 -3.6703  0.3746
  651MOL0     H87859   3.822   5.433   6.639  1.4889 -0.7841  0.4834
  651MOL0     H87860   3.889   5.508   6.502  1.2266 -0.6148 -0.5158
  651MOL0     H87861   4.063   5.406   6.674  1.4160  1.4589 -1.0551
  651MOL0     H87862   4.016   5.252   6.614 -1.0747  0.1595 -0.0089
  651MOL0     H87863   4.195   5.461   6.491 -1.9827  3.4011 -2.6769
  651MOL0     H87864   4.065   5.421   6.379  0.9254 -3.6348 -1.6643
  651MOL0     H87865   4.116   5.198   6.374  0.6821 -2.3486  0.2712
  651MOL0     H87866   4.219   5.202   6.518  0.4827  0.4375  0.0601
  651MOL0     H87867   3.305   4.996   6.155  2.2863  0.0891  2.8046
  651MOL0     H87868   3.077   4.914   6.106 -1.3320  1.5324 -0.7668
  651MOL0     H87869   2.549   5.067   6.070  1.0628 -1.3136 -1.0045
  651MOL0     H87870   2.319   5.001   6.110  0.2072  0.5992 -0.3535
  651MOL0     H87871   3.015   5.816   5.586  0.5995 -0.2540  1.6753
  651MOL0     H87872   3.072   5.949   5.366 -4.4927  1.9584  1.7672
  651MOL0     H87873   3.457   6.469   5.236  1.8098  0.9641 -0.6671
  651MOL0     H87874   3.471   6.541   4.990 -0.2290  0.0810 -1.1080
  651MOL0     H87875   3.439   6.609   4.779 -2.1022 -0.8940 -0.0852
  651MOL0     H87876   3.574   6.493   4.790 -0.1171 -3.8003  0.8347
  651MOL0     H87877   3.595   6.554   4.555 -0.3724  1.9901  2.3288
  651MOL0     H87878   3.416   6.587   4.550  0.2082  0.9877 -0.2599
  651MOL0     H87879   3.349   6.356   4.534 -0.5128  0.0110  0.4172
  651MOL0     H87880   3.515   6.301   4.571  2.0001  0.6800 -1.3596
  651MOL0     H87881   3.595   6.358   4.370  0.6280  0.8796  2.4242
  651MOL0     H87882   3.478   6.475   4.327  0.5545 -0.9647 -2.2623
  651MOL0     H87883   3.266   6.114   4.206 -0.8189 -0.0839  1.8712
  651MOL0     H87884   3.250   6.207   4.865  0.2158 -1.3177  2.1081
  651MOL0     H87885   3.191   6.155   5.088 -0.6217  0.4491  0.5118
  652MOL0     O87886   5.269   2.522   7.555  0.3632 -0.5112  0.3107
  652MOL0     C87887   5.262   2.416   7.609  0.0804  0.4099  0.3905
  652MOL0     O87888   5.277   2.292   7.557 -0.3920 -0.2083  0.3266
  652MOL0     C87889   5.252   2.282   7.423  0.4887 -0.1869  0.6032
  652MOL0     C87890   5.348   2.304   7.323  0.2570  0.0134  0.5762
  652MOL0     C87891   5.317   2.287   7.183  0.0923 -0.6394 -0.5615
  652MOL0     C87892   5.189   2.263   7.143 -0.9612 -1.2620  0.0880
  652MOL0     O87893   5.179   2.264   7.009  0.2999 -0.7398 -0.0520
  652MOL0     C87894   5.086   2.163   6.954  0.3906 -1.0739  0.5417
  652MOL0     C87895   5.137   2.099   6.822 -0.5734 -0.2463 -0.3300
  652MOL0     C87896   5.052   1.990   6.775  0.2782  0.2916  0.1962
  652MOL0     C87897   5.129   1.897   6.680  0.1516 -0.5602  0.2359
  652MOL0     C87898   5.038   1.787   6.630  0.3141  0.1726 -0.3746
  652MOL0     C87899   5.113   1.711   6.512 -0.2642  0.1300 -0.0275
  652MOL0     C87900   5.044   1.589   6.453  0.6286  0.8077  0.6588
  652MOL0     C87901   4.913   1.613   6.378  0.1938  0.3966  0.6181
  652MOL0     N87902   4.902   1.728   6.298 -0.4421  0.2339  0.1984
  652MOL0     C87903   4.966   1.744   6.170 -0.0207 -0.2695  0.2812
  652MOL0     C87904   4.956   1.880   6.145 -0.6738  0.2498  0.3629
  652MOL0     C87905   5.028   1.941   6.024 -1.0155  0.4356 -0.3787
  652MOL0     C87906   5.154   2.026   6.064  0.5211  0.0217  0.7886
  652MOL0     C87907   5.144   2.099   6.194 -0.5369 -0.1197 -0.6335
  652MOL0     C87908   5.253   2.201   6.212  0.1918 -0.1275 -0.4819
  652MOL0     O87909   5.229   2.282   6.335 -0.1745 -0.0703 -0.4616
  652MOL0     C87910   5.153   2.400   6.320 -0.0914 -0.3026  0.0519
  652MOL0     C87911   5.084   2.440   6.207 -1.0719 -0.4986 -0.7563
  652MOL0     C87912   5.018   2.565   6.210 -0.3085  1.1048 -0.4663
  652MOL0     C87913   4.949   2.608   6.088 -0.2328  0.6655  0.6454
  652MOL0     C87914   5.014   2.646   6.323 -0.4421  0.1849  1.0308
  652MOL0     C87915   4.936   2.776   6.346 -0.6049 -1.1432 -0.4182
  652MOL0     O87916   4.940   2.831   6.475 -0.1500  0.4142  0.8297
  652MOL0     C87917   4.884   2.958   6.502 -0.3164 -0.5663  0.2523
  652MOL0     C87918   4.937   3.019   6.616  0.1557  0.2241 -0.0712
  652MOL0     C87919   4.889   3.143   6.659  0.7717 -0.4636 -0.0266
  652MOL0     C87920   4.800   3.213   6.585  0.8485  0.5190  0.9617
  652MOL0     O87921   4.771   3.343   6.606 -0.0296  0.3212 -0.1468
  652MOL0     C87922   4.743   3.378   6.743 -0.5144 -0.6822  0.2008
  652MOL0     C87923   4.784   3.521   6.754  0.3922  0.4453 -0.1362
  652MOL0     C87924   4.708   3.583   6.866  0.3756  0.1239 -0.0594
  652MOL0     C87925   4.760   3.563   7.012 -0.3127  0.1754 -0.5231
  652MOL0     C87926   4.677   3.644   7.112  0.0158 -1.0417  0.4164
  652MOL0     C87927   4.683   3.607   7.255  0.2351  0.5361 -1.2721
  652MOL0     C87928   4.637   3.727   7.349 -0.1391  0.3742  0.0365
  652MOL0     C87929   4.494   3.757   7.313 -0.1010  0.2620  0.8130
  652MOL0    Cl87930   4.450   3.895   7.418 -0.1314  0.2081  0.1257
  652MOL0     C87931   4.739   3.150   6.473 -0.0890  0.1063 -0.3404
  652MOL0     C87932   4.778   3.022   6.437  0.1792  0.2928 -0.2918
  652MOL0     O87933   4.892   2.830   6.247 -0.5365 -0.4853 -0.3129
  652MOL0     C87934   5.092   2.606   6.432  0.0902  1.0261  0.0213
  652MOL0     C87935   5.159   2.485   6.432  0.7294  0.1037  0.3446
  652MOL0     N87936   4.880   1.932   6.253 -0.2307  0.6916 -0.4936
  652MOL0     N87937   4.861   1.849   6.346 -0.1598  0.4643 -0.3998
  652MOL0     C87938   5.090   2.242   7.238 -0.1996 -1.3418 -0.5420
  652MOL0     C87939   5.118   2.258   7.376 -0.6654 -0.9180 -0.0961
  652MOL0     C87940   5.261   2.436   7.755 -0.0313  0.4953  0.0651
  652MOL0     C87941   5.246   2.318   7.827 -0.0550  0.2941  0.2178
  652MOL0     C87942   5.250   2.329   7.969  0.6263  0.6764  0.2942
  652MOL0     C87943   5.261   2.453   8.034 -0.2659  0.2226 -0.0372
  652MOL0     O87944   5.244   2.433   8.168  0.3029 -0.4792 -0.4334
  652MOL0     C87945   5.352   2.489   8.251 -0.1312 -0.3170  0.2605
  652MOL0     C87946   5.317   2.438   8.389  0.4817  0.7543  0.6390
  652MOL0     C87947   5.379   2.528   8.495  0.5312  0.2470 -0.7949
  652MOL0     C87948   5.419   2.457   8.626  0.4611  0.0494  0.6806
  652MOL0     C87949   5.403   2.548   8.733 -0.5426 -0.1919 -1.1045
  652MOL0     C87950   5.394   2.641   8.811 -0.0815 -0.1469 -0.8225
  652MOL0     C87951   5.282   2.568   7.958 -0.2959  0.3701 -0.2707
  652MOL0     C87952   5.274   2.559   7.821 -0.5394 -0.3915 -0.0400
  652MOL0     H87953   5.444   2.343   7.354 -0.2303  1.9195 -0.1647
  652MOL0     H87954   5.379   2.309   7.097 -0.9352  1.4782 -0.8202
  652MOL0     H87955   5.058   2.085   7.027 -3.2254 -3.1911 -2.7139
  652MOL0     H87956   4.998   2.224   6.933  1.2393  0.7492  2.0157
  652MOL0     H87957   5.142   2.184   6.754 -1.0770  1.0939  1.2382
  652MOL0     H87958   5.241   2.064   6.825 -0.6099 -0.4335  3.4074
  652MOL0     H87959   5.003   1.936   6.857  0.3203 -0.3256 -0.1730
  652MOL0     H87960   4.972   2.036   6.717  1.0244 -0.3250 -1.3912
  652MOL0     H87961   5.159   1.957   6.593  1.0935 -2.9427 -1.1599
  652MOL0     H87962   5.217   1.847   6.722  1.8454  0.6645 -1.6576
  652MOL0     H87963   5.021   1.712   6.708  4.8726 -1.7316 -0.9186
  652MOL0     H87964   4.952   1.839   6.587  0.2094  2.9981  2.8211
  652MOL0     H87965   5.145   1.775   6.429 -3.8687 -0.6304 -2.2026
  652MOL0     H87966   5.213   1.683   6.547 -0.3045  2.1537  1.9984
  652MOL0     H87967   5.112   1.554   6.374  1.2324  1.8398  0.6964
  652MOL0     H87968   5.044   1.510   6.528 -1.4906  1.0637  0.9773
  652MOL0     H87969   4.835   1.616   6.455 -0.2238  1.6651  0.1647
  652MOL0     H87970   4.902   1.528   6.310 -1.4506 -1.3642  2.8983
  652MOL0     H87971   5.023   1.673   6.110 -0.3255  0.0284 -0.3783
  652MOL0     H87972   5.063   1.859   5.960 -0.6005  0.9313 -0.7898
  652MOL0     H87973   4.953   1.993   5.964 -1.0208  1.2876  0.3498
  652MOL0     H87974   5.172   2.098   5.985 -0.3964  1.3963  1.7925
  652MOL0     H87975   5.247   1.968   6.058  1.0471  0.9268 -0.1384
  652MOL0     H87976   5.143   2.033   6.282 -1.1457 -0.3642 -0.8177
  652MOL0     H87977   5.049   2.154   6.193  0.7286  2.2362 -3.1820
  652MOL0     H87978   5.259   2.261   6.121 -4.2892 -1.1169 -1.6519
  652MOL0     H87979   5.344   2.140   6.223 -0.5852 -0.8556  2.8528
  652MOL0     H87980   5.077   2.364   6.131 -1.2972 -0.1831 -1.0543
  652MOL0     H87981   5.003   2.690   6.040 -0.6769  0.3053 -0.4975
  652MOL0     H87982   4.946   2.527   6.015 -3.6843  2.2596 -1.2191
  652MOL0     H87983   4.842   2.628   6.096 -1.4993 -2.9157 -3.7809
  652MOL0     H87984   5.018   2.980   6.677 -0.9851  0.2122  1.5166
  652MOL0     H87985   4.932   3.175   6.753 -0.1399  1.6247 -0.2706
  652MOL0     H87986   4.635   3.365   6.760 -0.4113  0.4525  2.0012
  652MOL0     H87987   4.801   3.322   6.817 -2.5394 -4.4330 -0.7912
  652MOL0     H87988   4.891   3.528   6.775  0.2438 -2.3625  2.1082
  652MOL0     H87989   4.766   3.575   6.661  3.7005  0.2113 -0.9991
  652MOL0     H87990   4.601   3.560   6.868 -0.2425  2.2458 -2.8821
  652MOL0     H87991   4.727   3.686   6.837  1.3018  0.2717  0.9892
  652MOL0     H87992   4.756   3.461   7.050 -0.0924  0.2414 -0.3198
  652MOL0     H87993   4.860   3.607   7.008  1.0992 -2.8584 -0.6936
  652MOL0     H87994   4.572   3.627   7.087 -0.0645  2.1647 -2.0271
  652MOL0     H87995   4.704   3.749   7.102 -1.0050 -0.6582  1.4557
  652MOL0     H87996   4.634   3.510   7.273  1.9374 -0.0749  0.4848
  652MOL0     H87997   4.785   3.584   7.286  0.9584  2.7825 -1.8470
  652MOL0     H87998   4.697   3.819   7.351 -0.1127  0.4683  4.4822
  652MOL0     H87999   4.650   3.701   7.455  0.6189  0.5444 -0.0113
  652MOL0     H88000   4.421   3.678   7.332 -0.0936 -0.0813 -0.5301
  652MOL0     H88001   4.477   3.788   7.210 -1.9840  0.8189  1.2565
  652MOL0     H88002   4.664   3.211   6.422  0.2563 -0.8024 -2.0019
  652MOL0     H88003   4.718   2.975   6.360 -0.9634  0.5575  0.4178
  652MOL0     H88004   5.082   2.658   6.527 -2.5822 -0.5303  0.6962
  652MOL0     H88005   5.230   2.466   6.512  2.4622  2.4111 -0.5415
  652MOL0     H88006   4.996   2.195   7.211 -0.9413  0.8491 -2.0757
  652MOL0     H88007   5.047   2.222   7.449 -0.7254  0.8873  0.7863
  652MOL0     H88008   5.236   2.218   7.786  0.9825  0.1942  0.1643
  652MOL0     H88009   5.253   2.238   8.029  4.0541  0.2318 -0.3192
  652MOL0     H88010   5.451   2.457   8.215 -0.6615 -0.5884 -1.0060
  652MOL0     H88011   5.346   2.597   8.258  2.3381 -0.1109  0.1602
  652MOL0     H88012   5.363   2.340   8.407 -1.3761 -0.6853 -1.7149
  652MOL0     H88013   5.208   2.433   8.403  0.6111  1.2260  1.8707
  652MOL0     H88014   5.309   2.609   8.519  1.5594  0.6518  1.0790
  652MOL0     H88015   5.473   2.569   8.459  1.3133 -0.4632  0.3843
  652MOL0     H88016   5.522   2.424   8.612  1.3287  1.1683  3.6947
  652MOL0     H88017   5.347   2.375   8.638 -1.9956  1.9684 -0.0719
  652MOL0     H88018   5.384   2.720   8.882 -1.8458  0.8962 -2.1476
  652MOL0     H88019   5.293   2.669   7.999  1.3342  0.5114 -0.9581
  652MOL0     H88020   5.298   2.640   7.753  0.0343 -1.4283 -1.1045
  653MOL0     O88021   9.955   1.181  10.521  0.4971  1.2014  0.1273
  653MOL0     C88022  10.065   1.147  10.561  0.1297 -0.1314 -0.7626
  653MOL0     O88023  10.152   1.241  10.610  0.5157 -0.1655 -0.0238
  653MOL0     C88024  10.106   1.368  10.652 -0.0944  0.9601 -0.0990
  653MOL0     C88025   9.987   1.381  10.718  0.1130 -0.4504  0.6990
  653MOL0     C88026   9.936   1.513  10.757 -0.6806 -0.5354  0.6778
  653MOL0     C88027  10.000   1.628  10.729  0.8084  0.1052  0.1190
  653MOL0     O88028   9.944   1.749  10.771 -0.0324  0.1076 -0.1159
  653MOL0     C88029   9.908   1.853  10.670  0.5399  0.4393 -0.4940
  653MOL0     C88030   9.879   1.987  10.746  0.6139  0.7331 -0.3199
  653MOL0     C88031   9.789   1.969  10.874  0.8123 -0.0432  0.0794
  653MOL0     C88032   9.693   2.092  10.885 -0.6041  0.2100  0.1384
  653MOL0     C88033   9.622   2.098  11.026  0.1044 -1.5246  0.3394
  653MOL0     C88034   9.554   1.964  11.067 -0.4054 -0.0048  0.3285
  653MOL0     C88035   9.503   1.966  11.218 -0.3615  0.0031  0.0462
  653MOL0     C88036   9.616   1.933  11.327  0.0015  0.1558  0.2452
  653MOL0     N88037   9.540   1.885  11.447  0.5513  0.3463  0.2241
  653MOL0     C88038   9.555   1.760  11.493 -0.5090  0.2809 -0.0268
  653MOL0     C88039   9.481   1.749  11.602  0.3043  0.0498  0.8576
  653MOL0     C88040   9.472   1.626  11.692  0.5451 -0.2499  0.3363
  653MOL0     C88041   9.576   1.512  11.660 -0.7224 -0.2367 -0.7097
  653MOL0     C88042   9.531   1.382  11.726 -0.6000  0.0730  0.2519
  653MOL0     C88043   9.652   1.290  11.733  0.6640 -0.5622  0.4832
  653MOL0     O88044   9.641   1.183  11.832  0.3141  0.4782  0.0610
  653MOL0     C88045   9.699   1.064  11.790 -0.4134 -0.0908  0.8865
  653MOL0     C88046   9.838   1.079  11.779 -0.2989  0.6561 -0.4061
  653MOL0     C88047   9.924   0.974  11.747  1.1820 -0.4225  0.5814
  653MOL0     C88048  10.073   0.986  11.766 -0.2332 -0.4184 -0.2055
  653MOL0     C88049   9.857   0.852  11.713  0.0436 -0.7348  1.0689
  653MOL0     C88050   9.932   0.746  11.666 -0.1838  0.4229 -0.2925
  653MOL0     O88051  10.026   0.765  11.573 -0.3170 -0.7795 -0.3045
  653MOL0     C88052  10.116   0.666  11.525  1.9953  1.1435  0.0603
  653MOL0     C88053  10.078   0.524  11.527 -0.3947  0.1164 -0.2699
  653MOL0     C88054  10.170   0.428  11.490 -0.1795  0.3224 -0.2267
  653MOL0     C88055  10.297   0.470  11.436 -0.0906 -0.1769  0.1037
  653MOL0     O88056  10.385   0.378  11.384  0.9495 -0.2833 -0.1607
  653MOL0     C88057  10.404   0.256  11.459  0.6586 -0.2328  0.4224
  653MOL0     C88058  10.519   0.193  11.395  0.3476  0.4507  0.4159
  653MOL0     C88059  10.572   0.095  11.497 -0.0415 -0.5185 -0.6071
  653MOL0     C88060  10.691   0.010  11.429 -0.1691 -0.2975  0.9430
  653MOL0     C88061  10.756  -0.070  11.540 -0.2154 -0.5096  0.0948
  653MOL0     C88062  10.849  -0.172  11.467  0.1990 -0.2858  0.0727
  653MOL0     C88063  10.918  -0.264  11.571  0.9388 -0.1753  0.4363
  653MOL0     C88064  10.990  -0.380  11.502 -0.7076  1.7320  0.5550
  653MOL0    Cl88065  11.144  -0.416  11.593  0.0713 -0.1951 -0.2280
  653MOL0     C88066  10.330   0.603  11.428  1.0437  0.5699  0.2384
  653MOL0     C88067  10.238   0.699  11.474 -0.1746 -0.4262  0.3094
  653MOL0     O88068   9.914   0.642  11.733 -0.4776 -0.2278  0.2187
  653MOL0     C88069   9.716   0.841  11.710  0.6241  0.2693  0.6908
  653MOL0     C88070   9.645   0.950  11.759 -0.2528  0.3505 -0.0401
  653MOL0     N88071   9.417   1.878  11.623  0.1815 -0.2152  0.2861
  653MOL0     N88072   9.464   1.958  11.541  0.8528  0.2124  0.1059
  653MOL0     C88073  10.126   1.614  10.680  0.5299  0.1161  0.9528
  653MOL0     C88074  10.177   1.491  10.629 -0.7890  0.4025 -0.8364
  653MOL0     C88075  10.107   1.007  10.554 -0.1537  1.0897 -0.3729
  653MOL0     C88076  10.024   0.912  10.479 -0.7101 -0.3196 -0.4410
  653MOL0     C88077  10.056   0.778  10.489  0.2959 -0.1628  0.3771
  653MOL0     C88078  10.158   0.719  10.562 -0.3389 -0.6542 -0.5775
  653MOL0     O88079  10.156   0.579  10.572 -0.3617  0.1350 -0.8679
  653MOL0     C88080  10.282   0.515  10.631  0.5469  0.1307  0.3264
  653MOL0     C88081  10.258   0.495  10.779 -0.0495 -0.0861  0.4355
  653MOL0     C88082  10.383   0.479  10.860  0.2609  0.3729  1.1666
  653MOL0     C88083  10.363   0.484  11.013  0.3371 -0.5903 -0.1701
  653MOL0     C88084  10.303   0.357  11.050  0.1158  0.1789 -0.4932
  653MOL0     C88085  10.253   0.248  11.053 -0.1321  0.1819  0.0477
  653MOL0     C88086  10.247   0.812  10.633  0.2130  0.4985  0.5303
  653MOL0     C88087  10.224   0.952  10.623  0.5263 -0.4956  0.4937
  653MOL0     H88088   9.925   1.295  10.740 -2.1098 -0.6252 -4.7544
  653MOL0     H88089   9.847   1.516  10.818 -1.4863  0.5897 -0.4864
  653MOL0     H88090   9.983   1.864  10.591 -0.4825  1.9162 -1.3043
  653MOL0     H88091   9.812   1.821  10.628 -0.6943 -3.2650  4.2218
  653MOL0     H88092   9.970   2.038  10.778 -0.9623  2.7059  1.3344
  653MOL0     H88093   9.825   2.055  10.678 -0.5459  0.9035  0.7187
  653MOL0     H88094   9.728   1.879  10.868 -2.6886  2.0794  0.3797
  653MOL0     H88095   9.851   1.954  10.963 -0.3341 -2.0882  0.5952
  653MOL0     H88096   9.758   2.178  10.869  0.2197 -0.7680 -2.2539
  653MOL0     H88097   9.617   2.085  10.807 -1.1748  0.2933  0.6800
  653MOL0     H88098   9.695   2.127  11.102 -0.2695  1.5122 -0.3319
  653MOL0     H88099   9.551   2.180  11.035  3.3012  1.7692 -1.6546
  653MOL0     H88100   9.472   1.948  10.998 -2.4970  1.6394  2.2884
  653MOL0     H88101   9.614   1.872  11.062 -1.7400 -1.0053  1.6239
  653MOL0     H88102   9.441   2.056  11.226  0.7191  0.7320  0.5201
  653MOL0     H88103   9.425   1.889  11.227  0.9324 -1.3207  0.2374
  653MOL0     H88104   9.674   2.024  11.348 -1.5033  1.2946 -0.4052
  653MOL0     H88105   9.684   1.854  11.295 -1.0317 -2.0289  2.9975
  653MOL0     H88106   9.591   1.675  11.437 -0.6973 -0.4490  0.9338
  653MOL0     H88107   9.487   1.655  11.796  0.8722 -0.4428  0.3461
  653MOL0     H88108   9.367   1.595  11.693 -0.0292  1.6161  0.9326
  653MOL0     H88109   9.675   1.545  11.691 -0.3652 -0.4783 -1.5742
  653MOL0     H88110   9.581   1.496  11.552 -0.0557 -0.7999 -0.6003
  653MOL0     H88111   9.464   1.322  11.664  0.5692 -0.2036 -0.7966
  653MOL0     H88112   9.488   1.405  11.823 -1.0887  0.9205 -0.1517
  653MOL0     H88113   9.738   1.346  11.769  0.2685  0.3432  0.0433
  653MOL0     H88114   9.683   1.254  11.635 -0.8606 -0.0280 -0.2271
  653MOL0     H88115   9.871   1.176  11.815 -1.1872  2.0617 -3.0735
  653MOL0     H88116  10.108   0.910  11.837  0.7678  0.2423  0.0315
  653MOL0     H88117  10.138   0.969  11.679  0.8483 -0.4989  0.5962
  653MOL0     H88118  10.090   1.086  11.807 -0.7945  0.0086 -0.9836
  653MOL0     H88119   9.976   0.495  11.554 -0.5359  0.4305 -0.4610
  653MOL0     H88120  10.145   0.323  11.499 -0.7865  0.4674 -0.1281
  653MOL0     H88121  10.427   0.276  11.564  0.2350  2.5194  0.0766
  653MOL0     H88122  10.318   0.190  11.446 -0.2786  1.4109 -2.7685
  653MOL0     H88123  10.493   0.138  11.304  2.6646 -1.3004  0.7321
  653MOL0     H88124  10.595   0.269  11.373  0.4117  0.4799  0.7279
  653MOL0     H88125  10.497   0.020  11.525  0.2826  0.0247  1.9537
  653MOL0     H88126  10.614   0.146  11.584 -0.3100 -2.1195  0.5143
  653MOL0     H88127  10.654  -0.061  11.354 -0.3630 -1.2473  1.9110
  653MOL0     H88128  10.760   0.075  11.375 -1.1799  0.7140  0.8288
  653MOL0     H88129  10.685  -0.126  11.601  0.5789 -1.0694  0.5249
  653MOL0     H88130  10.812   0.001  11.602 -1.5963  0.2054  0.5671
  653MOL0     H88131  10.796  -0.242  11.401  1.9651  0.2269 -1.9960
  653MOL0     H88132  10.929  -0.121  11.412  1.4439 -1.8001  0.3963
  653MOL0     H88133  10.837  -0.313  11.627 -0.9533  0.8543 -1.2801
  653MOL0     H88134  10.985  -0.210  11.639  2.4940 -2.0315  0.4804
  653MOL0     H88135  11.022  -0.350  11.401 -0.6919 -1.4951 -0.5008
  653MOL0     H88136  10.935  -0.474  11.495  1.0299  0.7464 -0.8890
  653MOL0     H88137  10.429   0.629  11.392  1.1062  1.6799  1.1553
  653MOL0     H88138  10.245   0.807  11.463  1.2639 -0.5599 -0.2295
  653MOL0     H88139   9.662   0.759  11.663  0.6792  1.0092 -0.7262
  653MOL0     H88140   9.538   0.937  11.772 -0.4192  0.6965 -1.0055
  653MOL0     H88141  10.179   1.707  10.662 -2.1482  1.3445 -1.1482
  653MOL0     H88142  10.271   1.485  10.575 -1.4996 -1.3331 -1.9610
  653MOL0     H88143   9.932   0.930  10.424 -0.9701 -3.5259 -1.2159
  653MOL0     H88144  10.004   0.700  10.434 -0.9660  1.5170 -0.9201
  653MOL0     H88145  10.306   0.416  10.592 -0.0065  0.0297  0.2374
  653MOL0     H88146  10.366   0.579  10.602  2.2956 -2.1481  0.0940
  653MOL0     H88147  10.195   0.405  10.783 -2.1836  1.2469 -1.1948
  653MOL0     H88148  10.198   0.579  10.816 -3.4593 -2.6824  1.4302
  653MOL0     H88149  10.448   0.561  10.827  0.3626 -0.9310 -2.2156
  653MOL0     H88150  10.423   0.383  10.828  0.3404  0.6651  0.3733
  653MOL0     H88151  10.317   0.578  11.044  0.2221 -0.6952 -0.0235
  653MOL0     H88152  10.462   0.496  11.058  0.2946  2.6416 -0.6555
  653MOL0     H88153  10.201   0.154  11.064 -2.0208  1.2625  0.8819
  653MOL0     H88154  10.309   0.772  10.713 -0.6179  0.8048  1.3416
  653MOL0     H88155  10.289   1.020  10.678  0.9285 -0.8275  0.4363
  654MOL0     O88156  10.009   4.919   2.468 -0.3546 -0.4009 -0.2544
  654MOL0     C88157   9.942   4.995   2.408 -0.0559 -0.0217  0.2237
  654MOL0     O88158   9.876   5.094   2.479 -0.5794  0.4282 -0.1577
  654MOL0     C88159   9.904   5.111   2.614  1.1278 -1.3677 -0.0035
  654MOL0     C88160  10.033   5.122   2.662 -0.3944 -0.4056 -0.6385
  654MOL0     C88161  10.061   5.170   2.787 -0.3527  0.4267 -0.7992
  654MOL0     C88162   9.964   5.230   2.867 -0.4166 -0.0029 -0.7385
  654MOL0     O88163  10.000   5.297   2.986 -0.1498 -0.8898 -0.0924
  654MOL0     C88164   9.899   5.294   3.093  0.1767 -0.2569  0.6156
  654MOL0     C88165   9.938   5.384   3.209 -0.5528 -0.6636 -1.4092
  654MOL0     C88166   9.889   5.530   3.183 -0.3825 -0.4734  0.1307
  654MOL0     C88167   9.943   5.631   3.298  0.1801 -0.5035 -0.3662
  654MOL0     C88168   9.881   5.775   3.277 -0.1575 -0.1312  0.4302
  654MOL0     C88169   9.736   5.791   3.320 -0.3252  0.3762 -0.1188
  654MOL0     C88170   9.674   5.903   3.250 -0.2822 -0.6797  0.0026
  654MOL0     C88171   9.525   5.895   3.278  0.4455 -0.3377  0.0341
  654MOL0     N88172   9.434   5.991   3.205 -0.3888  1.1837  0.2346
  654MOL0     C88173   9.459   6.121   3.203 -0.4569 -0.2281 -0.3515
  654MOL0     C88174   9.379   6.169   3.104 -0.3237 -0.2064 -0.1980
  654MOL0     C88175   9.365   6.320   3.068  0.3617 -0.5271  0.6952
  654MOL0     C88176   9.231   6.369   3.131 -0.6256  0.4117 -0.3931
  654MOL0     C88177   9.223   6.524   3.157 -0.1383 -0.5461  1.3294
  654MOL0     C88178   9.238   6.606   3.021  0.7296 -0.2865  0.0398
  654MOL0     O88179   9.267   6.745   3.070 -0.0126  0.3481  0.1879
  654MOL0     C88180   9.281   6.840   2.975 -0.6901 -0.4574  0.0458
  654MOL0     C88181   9.272   6.819   2.845 -0.7054  0.2050 -0.2008
  654MOL0     C88182   9.313   6.908   2.745  0.6571 -0.3443  0.2928
  654MOL0     C88183   9.299   6.867   2.598 -0.4429  1.2013 -0.3256
  654MOL0     C88184   9.350   7.040   2.785 -0.9042 -0.3652 -0.2224
  654MOL0     C88185   9.386   7.151   2.693 -0.1593  0.8449  0.1782
  654MOL0     O88186   9.388   7.271   2.756  0.3443 -0.2765 -0.3718
  654MOL0     C88187   9.413   7.389   2.684  0.5527  0.7331  0.1029
  654MOL0     C88188   9.322   7.448   2.604 -0.5739 -0.2654 -0.0214
  654MOL0     C88189   9.360   7.562   2.539 -0.4266 -0.1859  0.5682
  654MOL0     C88190   9.489   7.620   2.572  0.3106 -0.0488 -0.4899
  654MOL0     O88191   9.530   7.751   2.548  0.5422 -0.2852 -0.1624
  654MOL0     C88192   9.459   7.846   2.463 -0.7006 -0.3483  0.6318
  654MOL0     C88193   9.463   7.812   2.303  0.2748 -0.4699  0.4592
  654MOL0     C88194   9.421   7.929   2.210 -0.4127  0.2913 -0.3713
  654MOL0     C88195   9.353   7.884   2.079 -0.3020  0.2148  0.0231
  654MOL0     C88196   9.344   7.998   1.973 -0.4178 -0.1128  0.2422
  654MOL0     C88197   9.260   8.122   1.995  0.1409  0.5807 -0.1708
  654MOL0     C88198   9.290   8.220   1.887  0.6318  0.4010 -0.1239
  654MOL0     C88199   9.347   8.357   1.932  0.3226  0.2747 -0.2802
  654MOL0    Cl88200   9.227   8.438   2.024  0.0538  0.0920 -0.0842
  654MOL0     C88201   9.580   7.554   2.657  0.0989  0.0075  0.5249
  654MOL0     C88202   9.538   7.432   2.711 -0.0857  0.3111 -0.1961
  654MOL0     O88203   9.397   7.137   2.575  0.3747  0.0881 -0.4032
  654MOL0     C88204   9.372   7.064   2.930 -0.4899  1.4265  0.0901
  654MOL0     C88205   9.339   6.966   3.024  0.1381  0.8405 -0.4674
  654MOL0     N88206   9.294   6.064   3.053  0.8506 -0.7925 -1.0900
  654MOL0     N88207   9.330   5.956   3.122 -0.0487  0.7849  0.0411
  654MOL0     C88208   9.841   5.230   2.811 -0.3525  0.8489 -0.1684
  654MOL0     C88209   9.805   5.170   2.696  0.0404 -0.8224  0.7472
  654MOL0     C88210   9.921   4.993   2.259  0.0554 -0.8226  0.8658
  654MOL0     C88211   9.872   5.111   2.183 -0.0761  0.2088 -0.3489
  654MOL0     C88212   9.868   5.100   2.039  0.0869 -1.0043 -0.3186
  654MOL0     C88213   9.913   4.995   1.967 -1.3924  0.1275 -0.5168
  654MOL0     O88214   9.891   4.979   1.831  0.2247  0.5060 -0.2298
  654MOL0     C88215   9.800   5.060   1.748  0.6896  0.7532 -0.0471
  654MOL0     C88216   9.656   5.018   1.765  0.9943 -0.0628  0.1698
  654MOL0     C88217   9.614   4.893   1.693 -0.7109 -0.3100  1.3262
  654MOL0     C88218   9.641   4.753   1.759 -0.9126  0.4831 -0.5935
  654MOL0     C88219   9.546   4.727   1.863  0.3604  0.8955 -0.5309
  654MOL0     C88220   9.457   4.690   1.936  0.4059 -0.0058  0.9901
  654MOL0     C88221   9.957   4.887   2.042 -0.7027  0.8454 -0.2637
  654MOL0     C88222   9.970   4.885   2.182  0.1022  0.4147 -0.3861
  654MOL0     H88223  10.115   5.080   2.604 -0.0829  1.1554 -1.3686
  654MOL0     H88224  10.164   5.173   2.820 -0.8320  2.5806  0.7297
  654MOL0     H88225   9.804   5.325   3.048  1.2331 -1.3740 -2.7509
  654MOL0     H88226   9.887   5.192   3.130  0.6543 -0.2028  0.9262
  654MOL0     H88227   9.894   5.346   3.302  2.1164 -0.6121 -0.0269
  654MOL0     H88228  10.045   5.386   3.231 -1.3137 -1.5438  3.6799
  654MOL0     H88229   9.929   5.564   3.087  1.1990  1.4089  1.3797
  654MOL0     H88230   9.780   5.536   3.178 -0.3025  2.9541 -0.0365
  654MOL0     H88231   9.937   5.602   3.403  1.3851  1.8068  0.4177
  654MOL0     H88232  10.050   5.630   3.275 -0.2678  0.5392 -2.8894
  654MOL0     H88233   9.936   5.841   3.345  2.0215  0.9914 -2.2300
  654MOL0     H88234   9.897   5.811   3.175  1.1009 -1.2511  0.2055
  654MOL0     H88235   9.685   5.701   3.284  0.6820 -0.2328 -0.0726
  654MOL0     H88236   9.730   5.807   3.428 -2.3369 -2.6845  0.3692
  654MOL0     H88237   9.708   5.996   3.296 -0.3660  0.1324 -1.5136
  654MOL0     H88238   9.690   5.907   3.142  2.3721  0.8018  0.3664
  654MOL0     H88239   9.502   5.912   3.383  1.0416  2.4002 -0.1912
  654MOL0     H88240   9.487   5.796   3.256 -1.3634  0.7059 -1.8907
  654MOL0     H88241   9.524   6.183   3.264 -2.7500  0.7513  1.2324
  654MOL0     H88242   9.445   6.380   3.113 -0.9048  4.0281 -2.3598
  654MOL0     H88243   9.366   6.336   2.960 -0.8773 -3.1619  0.2338
  654MOL0     H88244   9.210   6.338   3.234 -2.5962  2.6415 -0.0341
  654MOL0     H88245   9.148   6.327   3.073 -1.4203 -1.4447  1.8815
  654MOL0     H88246   9.292   6.562   3.233  1.4472  2.3686 -1.3170
  654MOL0     H88247   9.125   6.539   3.204 -0.5929 -1.8537  0.8618
  654MOL0     H88248   9.145   6.612   2.963  0.6676  0.9483  0.2229
  654MOL0     H88249   9.327   6.569   2.970  0.0842  1.0014 -2.1402
  654MOL0     H88250   9.228   6.724   2.814 -3.1246  0.5696  1.7789
  654MOL0     H88251   9.243   6.774   2.587  0.2280  1.0156 -2.8585
  654MOL0     H88252   9.256   6.951   2.542 -3.6203 -0.3628 -0.4278
  654MOL0     H88253   9.401   6.840   2.570 -0.2923  1.5511 -0.1103
  654MOL0     H88254   9.224   7.401   2.594 -0.0729 -1.3331 -0.0350
  654MOL0     H88255   9.291   7.620   2.479 -1.8687 -0.1363  2.2038
  654MOL0     H88256   9.358   7.861   2.504 -1.2097 -0.5710 -0.4982
  654MOL0     H88257   9.507   7.941   2.490 -0.3869 -0.2382 -0.2856
  654MOL0     H88258   9.557   7.773   2.264  1.0404  1.2925  0.4811
  654MOL0     H88259   9.374   7.749   2.288  0.1393  0.0951 -1.3220
  654MOL0     H88260   9.517   7.977   2.190 -0.6473  0.0684 -2.1948
  654MOL0     H88261   9.360   8.008   2.255  1.0334  0.8092  0.7762
  654MOL0     H88262   9.401   7.794   2.039 -0.0632  0.7505 -0.9301
  654MOL0     H88263   9.252   7.858   2.112 -0.0645 -0.4244  0.2480
  654MOL0     H88264   9.317   7.957   1.875 -3.9117  4.2309 -0.9929
  654MOL0     H88265   9.449   8.026   1.965 -0.0332 -1.5994 -0.1488
  654MOL0     H88266   9.152   8.104   1.990  0.2769 -0.1364 -0.8406
  654MOL0     H88267   9.287   8.167   2.091 -0.6760 -1.5418  1.1308
  654MOL0     H88268   9.207   8.236   1.818  1.2766 -2.3477 -1.6812
  654MOL0     H88269   9.360   8.182   1.812 -1.6407  0.9855 -2.6990
  654MOL0     H88270   9.380   8.415   1.845 -0.8583 -2.4411 -2.6915
  654MOL0     H88271   9.438   8.343   1.991 -0.8971  0.0696  1.6310
  654MOL0     H88272   9.669   7.610   2.682  2.3566 -2.8002 -0.7402
  654MOL0     H88273   9.603   7.381   2.782 -1.2290 -0.3090  0.4329
  654MOL0     H88274   9.433   7.143   2.974  0.8682 -0.3808  1.6024
  654MOL0     H88275   9.350   6.986   3.130  1.2774 -0.7679 -0.2484
  654MOL0     H88276   9.761   5.289   2.854  0.2102  0.5968  1.2612
  654MOL0     H88277   9.710   5.171   2.644  0.4698 -2.7596 -0.1526
  654MOL0     H88278   9.834   5.189   2.249  2.7961  0.4803  1.1352
  654MOL0     H88279   9.847   5.190   1.982 -0.7179 -2.5109 -2.5760
  654MOL0     H88280   9.802   5.163   1.784  2.9789  0.2852  1.3923
  654MOL0     H88281   9.826   5.051   1.643  0.6200  0.9435 -0.0804
  654MOL0     H88282   9.594   5.097   1.721 -1.4561 -3.1780 -2.4866
  654MOL0     H88283   9.628   5.010   1.870 -1.0069  0.2145 -0.2898
  654MOL0     H88284   9.675   4.899   1.603 -1.6833 -2.7471  0.4218
  654MOL0     H88285   9.506   4.906   1.679 -0.8859 -0.7554  2.1825
  654MOL0     H88286   9.742   4.742   1.800 -0.9520 -5.1608 -1.2728
  654MOL0     H88287   9.630   4.677   1.681  2.2649 -1.5197  0.6974
  654MOL0     H88288   9.369   4.665   1.991  0.5206 -1.3430  0.6014
  654MOL0     H88289  10.000   4.808   1.982  1.6092  0.6895  1.4706
  654MOL0     H88290  10.015   4.802   2.236  0.2790 -1.3239 -2.9906
  655MOL0     O88291  10.764   6.747  10.940 -0.0944  0.3161  0.0714
  655MOL0     C88292  10.881   6.766  10.982 -0.7373  0.5824 -0.0535
  655MOL0     O88293  10.930   6.877  11.047  0.5320 -1.2571 -0.3698
  655MOL0     C88294  10.864   6.991  11.026  0.6068 -0.0326 -0.1038
  655MOL0     C88295  10.920   7.094  10.943 -0.9781  0.7551 -0.4627
  655MOL0     C88296  10.867   7.210  10.923 -0.0810 -0.3984  0.3250
  655MOL0     C88297  10.738   7.239  10.978 -0.3281  0.6691 -0.1762
  655MOL0     O88298  10.684   7.369  10.961  0.6344  0.6674  0.5289
  655MOL0     C88299  10.619   7.429  11.074 -0.0107  0.8326  0.9053
  655MOL0     C88300  10.573   7.570  11.058 -0.1794  0.4172 -0.1399
  655MOL0     C88301  10.692   7.665  11.063 -0.1578  0.3763  0.6595
  655MOL0     C88302  10.622   7.796  11.081  1.0623  0.1142  0.4981
  655MOL0     C88303  10.724   7.907  11.090 -0.2491 -0.2756  0.0020
  655MOL0     C88304  10.822   7.934  10.973  0.3818 -0.1672 -0.5479
  655MOL0     C88305  10.909   8.061  11.004  0.6847 -0.2716 -0.1319
  655MOL0     C88306  10.987   8.102  10.881  0.0842  0.0237 -0.2077
  655MOL0     N88307  11.090   8.206  10.912 -1.0206 -0.0526 -0.5271
  655MOL0     C88308  11.187   8.253  10.823  0.7306  0.7402  0.2136
  655MOL0     C88309  11.266   8.329  10.900  0.4181 -0.0238  0.3513
  655MOL0     C88310  11.385   8.392  10.837 -0.4828 -0.3316  0.2132
  655MOL0     C88311  11.351   8.478  10.718 -0.0311  0.4248  0.6315
  655MOL0     C88312  11.478   8.557  10.659  0.1232  0.0806  0.0241
  655MOL0     C88313  11.559   8.632  10.771  0.0054 -0.2324  0.0516
  655MOL0     O88314  11.639   8.547  10.847 -0.9162  0.3820  0.2796
  655MOL0     C88315  11.745   8.477  10.788 -0.3774 -1.0864 -0.1083
  655MOL0     C88316  11.824   8.543  10.697  0.3796  0.3843  0.7111
  655MOL0     C88317  11.923   8.479  10.627 -0.2787  0.4900 -0.2142
  655MOL0     C88318  12.015   8.566  10.543 -0.0681  0.3433  0.3222
  655MOL0     C88319  11.940   8.340  10.646 -0.7461 -0.6606 -0.1238
  655MOL0     C88320  12.043   8.265  10.575  0.3980 -0.7851 -0.1041
  655MOL0     O88321  12.125   8.310  10.478 -0.7228 -0.3860 -0.0183
  655MOL0     C88322  12.238   8.239  10.458  0.1644  0.4951  0.0738
  655MOL0     C88323  12.334   8.222  10.555 -0.6814 -0.3072 -0.1560
  655MOL0     C88324  12.458   8.164  10.525 -0.3677 -0.3534  1.2239
  655MOL0     C88325  12.486   8.117  10.398  0.1138 -0.8866 -0.0849
  655MOL0     O88326  12.599   8.052  10.378 -0.3200 -0.2479 -0.6472
  655MOL0     C88327  12.642   8.024  10.244 -0.0227  0.7191  0.3129
  655MOL0     C88328  12.620   7.875  10.189  0.0804  0.4521  0.4958
  655MOL0     C88329  12.708   7.764  10.259 -0.2230 -0.6648  0.3991
  655MOL0     C88330  12.856   7.772  10.199  0.0420  0.1649 -0.5422
  655MOL0     C88331  12.964   7.684  10.271 -0.2951 -0.7313  0.6178
  655MOL0     C88332  13.012   7.727  10.406 -0.6006 -0.0331  0.4224
  655MOL0     C88333  13.118   7.649  10.485 -0.7374  0.6587 -0.0193
  655MOL0     C88334  13.086   7.655  10.633  0.2819 -0.8813 -1.2072
  655MOL0    Cl88335  13.197   7.538  10.719 -0.0565  0.3607  0.2224
  655MOL0     C88336  12.384   8.134  10.303 -0.0776  0.7633 -0.0951
  655MOL0     C88337  12.259   8.188  10.331 -0.4947  0.2522  0.0419
  655MOL0     O88338  12.033   8.145  10.608 -0.6262 -0.5038  0.1862
  655MOL0     C88339  11.869   8.278  10.744  0.3119  1.0764 -0.8301
  655MOL0     C88340  11.781   8.353  10.825  0.3284  0.2362 -0.3247
  655MOL0     N88341  11.215   8.335  11.029 -0.2991  0.6532  0.9279
  655MOL0     N88342  11.116   8.255  11.034  1.1009  0.3693 -0.0845
  655MOL0     C88343  10.665   7.133  11.042 -0.7114 -0.0685 -0.0961
  655MOL0     C88344  10.732   7.010  11.080  0.7458 -0.1427  0.4975
  655MOL0     C88345  10.976   6.655  10.968  0.1495  0.0618  1.1957
  655MOL0     C88346  11.090   6.650  11.041  1.0872 -1.4523 -1.7045
  655MOL0     C88347  11.180   6.542  11.036 -0.3810 -0.5553  0.6033
  655MOL0     C88348  11.170   6.430  10.944  0.3112 -0.5992 -0.5414
  655MOL0     O88349  11.270   6.344  10.928  0.1205 -0.5350  0.2452
  655MOL0     C88350  11.395   6.360  10.997 -0.9134 -0.5852  0.1626
  655MOL0     C88351  11.491   6.259  10.950  0.3376 -0.9748 -0.1168
  655MOL0     C88352  11.622   6.265  11.022 -0.4829  0.8062 -0.2064
  655MOL0     C88353  11.603   6.259  11.172  0.5680 -0.1799  0.4368
  655MOL0     C88354  11.726   6.252  11.245  0.9961  1.0724 -0.4121
  655MOL0     C88355  11.825   6.222  11.296 -0.2002 -1.1273 -1.6677
  655MOL0     C88356  11.057   6.441  10.860  0.4191 -0.2272 -0.2478
  655MOL0     C88357  10.953   6.543  10.882 -0.0929 -0.0803 -0.2407
  655MOL0     H88358  11.014   7.079  10.891 -0.1989  2.3460  0.3968
  655MOL0     H88359  10.921   7.286  10.866 -1.7417 -1.2890 -2.6587
  655MOL0     H88360  10.530   7.367  11.093 -0.6203  1.0372 -1.1017
  655MOL0     H88361  10.683   7.421  11.162  2.7055  0.5592 -0.9862
  655MOL0     H88362  10.521   7.604  10.969  2.1176  3.9084 -0.3418
  655MOL0     H88363  10.506   7.591  11.142 -0.9531  1.8226 -1.0709
  655MOL0     H88364  10.764   7.652  11.145  2.7174  1.1049 -1.5984
  655MOL0     H88365  10.747   7.658  10.969  0.8421  0.4003  1.2195
  655MOL0     H88366  10.559   7.832  10.998  0.1862  2.0536  1.9289
  655MOL0     H88367  10.573   7.796  11.179  0.7342 -1.4700  0.3683
  655MOL0     H88368  10.664   7.997  11.105  3.1112  2.2207 -0.2353
  655MOL0     H88369  10.778   7.897  11.185 -0.7894  0.3984  0.3888
  655MOL0     H88370  10.891   7.850  10.967 -0.5075 -0.9912  0.5244
  655MOL0     H88371  10.775   7.943  10.875 -1.6775  0.9926  0.4862
  655MOL0     H88372  10.837   8.143  11.015  1.5593  0.4735  0.1061
  655MOL0     H88373  10.970   8.072  11.094  0.6408  2.0234 -0.3067
  655MOL0     H88374  10.931   8.145  10.798  1.4686  2.5061  0.0433
  655MOL0     H88375  11.046   8.018  10.843  0.4719  0.5773 -0.8487
  655MOL0     H88376  11.212   8.222  10.723  0.9529 -1.7227  0.9578
  655MOL0     H88377  11.431   8.455  10.914 -0.7493  2.3103 -1.6937
  655MOL0     H88378  11.465   8.326  10.802  1.2320  2.0428 -0.5426
  655MOL0     H88379  11.280   8.556  10.747  0.0025  0.4803  0.5627
  655MOL0     H88380  11.302   8.416  10.642  1.3206  0.1919 -0.0687
  655MOL0     H88381  11.439   8.628  10.585 -2.6633 -1.0363  0.2851
  655MOL0     H88382  11.551   8.490  10.613  0.4027  0.0896  0.4502
  655MOL0     H88383  11.488   8.677  10.840 -0.1990  2.5092 -1.7836
  655MOL0     H88384  11.621   8.711  10.728 -2.3562  1.4143 -0.4679
  655MOL0     H88385  11.835   8.651  10.688  1.9016  0.4875  2.9449
  655MOL0     H88386  12.123   8.561  10.563  0.0981 -1.4511 -0.7110
  655MOL0     H88387  12.009   8.536  10.438 -0.0868  0.9981  0.1368
  655MOL0     H88388  11.989   8.672  10.545  2.1254  1.0053 -1.6585
  655MOL0     H88389  12.315   8.259  10.655  1.3076 -4.0186  1.8083
  655MOL0     H88390  12.546   8.153  10.588  1.7714  1.3789 -1.2989
  655MOL0     H88391  12.606   8.099  10.174 -0.8722  0.4338  0.4313
  655MOL0     H88392  12.748   8.050  10.251 -0.4519  2.0375  2.7706
  655MOL0     H88393  12.514   7.850  10.183 -0.1139  1.5747 -1.3750
  655MOL0     H88394  12.639   7.874  10.082  2.2219  2.5305  0.7675
  655MOL0     H88395  12.676   7.661  10.239 -2.7492  0.0171  0.5738
  655MOL0     H88396  12.704   7.788  10.365 -1.1960  0.3045  0.1544
  655MOL0     H88397  12.854   7.752  10.092 -2.3884  0.4715 -0.6111
  655MOL0     H88398  12.889   7.876  10.215 -1.2943  0.3022  1.9674
  655MOL0     H88399  13.054   7.687  10.209 -1.2371 -0.6037 -0.7938
  655MOL0     H88400  12.928   7.582  10.283 -0.3048 -0.6920  0.9407
  655MOL0     H88401  13.039   7.833  10.402 -0.2922 -0.1134  0.3673
  655MOL0     H88402  12.922   7.732  10.469  0.6298  1.2436  2.1772
  655MOL0     H88403  13.216   7.689  10.461 -0.3892 -1.2544 -2.1864
  655MOL0     H88404  13.111   7.544  10.456 -0.5521  1.1702 -2.0332
  655MOL0     H88405  12.982   7.632  10.658  0.0470 -0.2123 -1.5695
  655MOL0     H88406  13.106   7.759  10.660 -4.4864  0.7841 -3.0275
  655MOL0     H88407  12.389   8.103  10.199 -3.6427 -2.9775  0.5896
  655MOL0     H88408  12.175   8.177  10.263 -0.4576 -2.1104  0.2621
  655MOL0     H88409  11.874   8.172  10.770 -1.6201  1.6062  2.2123
  655MOL0     H88410  11.714   8.320  10.904 -1.1019  3.9437  0.2224
  655MOL0     H88411  10.574   7.141  11.099  1.0452  1.4248  2.7336
  655MOL0     H88412  10.682   6.935  11.140  0.9488 -1.8467 -1.3441
  655MOL0     H88413  11.129   6.719  11.115  1.5789 -2.2728 -1.1809
  655MOL0     H88414  11.254   6.538  11.116 -0.1498 -1.4147  0.3643
  655MOL0     H88415  11.434   6.461  10.979  3.7958 -1.9111  1.6264
  655MOL0     H88416  11.385   6.357  11.106 -3.2836 -1.2767 -0.0120
  655MOL0     H88417  11.501   6.271  10.842  3.8053  1.3906  0.3374
  655MOL0     H88418  11.447   6.159  10.945 -0.6031 -0.5218 -3.7603
  655MOL0     H88419  11.667   6.358  10.987 -0.1867  1.4483  1.7477
  655MOL0     H88420  11.688   6.182  10.996 -1.1070  0.8165 -1.9482
  655MOL0     H88421  11.530   6.186  11.208 -2.1461  2.5307  0.8722
  655MOL0     H88422  11.564   6.357  11.203 -0.9196 -1.2319  2.0935
  655MOL0     H88423  11.922   6.206  11.340 -1.9981  2.1714  4.7739
  655MOL0     H88424  11.050   6.374  10.775  4.7029 -2.1139  0.6344
  655MOL0     H88425  10.865   6.536  10.818  3.7649  0.5798 -6.4298
  656MOL0     O88426   7.143  10.233   4.543 -0.6095  0.1043 -0.6649
  656MOL0     C88427   7.192  10.195   4.441  1.0006  1.2622 -0.1882
  656MOL0     O88428   7.116  10.140   4.338  0.1145 -0.8662  1.1452
  656MOL0     C88429   6.976  10.129   4.353 -1.0388  0.9012 -0.0263
  656MOL0     C88430   6.927  10.061   4.469 -0.8012 -0.2167 -0.0212
  656MOL0     C88431   6.796  10.040   4.479  0.0136  0.6348  0.1212
  656MOL0     C88432   6.703  10.085   4.387  0.2789 -0.1815 -0.1455
  656MOL0     O88433   6.569  10.077   4.420 -0.3467  0.0020 -0.2078
  656MOL0     C88434   6.473  10.118   4.317 -0.0139  0.4605  0.2575
  656MOL0     C88435   6.340  10.160   4.385  0.1861  0.9538  0.0788
  656MOL0     C88436   6.255  10.041   4.416  0.5784 -0.7783 -0.2895
  656MOL0     C88437   6.122  10.094   4.460 -0.5874 -0.5224 -0.5262
  656MOL0     C88438   6.024   9.971   4.462  0.6282 -0.1973  0.1400
  656MOL0     C88439   5.875  10.011   4.490  0.1928  0.7427 -0.6686
  656MOL0     C88440   5.869  10.057   4.642  1.1559 -0.2329  0.0079
  656MOL0     C88441   5.728  10.070   4.700  0.2595  0.1345 -1.3831
  656MOL0     N88442   5.641   9.949   4.722  0.2704  0.1896  0.0445
  656MOL0     C88443   5.591   9.898   4.835  0.7269  0.4180  0.0545
  656MOL0     C88444   5.513   9.796   4.800 -1.0956  0.3849  0.6068
  656MOL0     C88445   5.422   9.715   4.896  0.2571 -0.5857 -0.0956
  656MOL0     C88446   5.302   9.677   4.825 -0.0983  0.2741 -0.0556
  656MOL0     C88447   5.249   9.555   4.897 -0.5768  0.3385 -0.1619
  656MOL0     C88448   5.133   9.502   4.819  0.4282  0.1287  0.0417
  656MOL0     O88449   5.063   9.407   4.902 -1.1041 -0.3666  0.0600
  656MOL0     C88450   4.924   9.410   4.914 -0.3931 -0.7323 -0.6745
  656MOL0     C88451   4.838   9.520   4.872 -0.7195  0.3207 -0.0236
  656MOL0     C88452   4.703   9.518   4.903 -0.5280 -0.7084 -0.0925
  656MOL0     C88453   4.613   9.628   4.847 -0.0331 -0.1290  0.0455
  656MOL0     C88454   4.652   9.416   4.996  0.3090  0.6937 -0.4335
  656MOL0     C88455   4.515   9.427   5.041 -0.5493  0.3079 -0.2670
  656MOL0     O88456   4.499   9.538   5.116 -0.0545  0.0152 -0.5290
  656MOL0     C88457   4.367   9.567   5.131 -0.5319  0.0457 -1.1397
  656MOL0     C88458   4.272   9.504   5.204 -0.5147  0.9316 -0.1781
  656MOL0     C88459   4.141   9.548   5.222  0.3182 -0.1316 -0.3054
  656MOL0     C88460   4.120   9.680   5.172 -0.3836 -0.0483  0.9720
  656MOL0     O88461   3.997   9.738   5.202 -0.4767  0.3632  0.3120
  656MOL0     C88462   3.957   9.854   5.126 -0.6581 -1.0548 -0.6926
  656MOL0     C88463   3.937   9.826   4.974  0.3187 -0.7285 -0.4663
  656MOL0     C88464   3.791   9.788   4.939 -0.8832 -0.5251 -0.2865
  656MOL0     C88465   3.698   9.913   4.924 -0.2049  0.2450 -0.1258
  656MOL0     C88466   3.555   9.860   4.882  0.7196  0.0808 -0.5228
  656MOL0     C88467   3.452   9.980   4.913  1.1259  0.9271 -0.1141
  656MOL0     C88468   3.326   9.973   4.827  0.6006 -0.1673 -0.0738
  656MOL0     C88469   3.207  10.040   4.890 -0.4896  0.4384  0.0608
  656MOL0    Cl88470   3.120   9.923   4.985  0.3848 -0.2488 -0.4136
  656MOL0     C88471   4.219   9.752   5.116  0.3818 -0.2757  0.0733
  656MOL0     C88472   4.337   9.698   5.097 -0.7125  0.7425 -0.2349
  656MOL0     O88473   4.442   9.329   5.034 -0.5213 -0.0311 -0.6901
  656MOL0     C88474   4.735   9.313   5.032  0.6109 -0.5690 -0.3221
  656MOL0     C88475   4.866   9.312   4.991 -0.2308 -0.8444 -0.9182
  656MOL0     N88476   5.517   9.779   4.653 -0.6327 -0.0440 -0.8851
  656MOL0     N88477   5.582   9.881   4.619  0.3681  0.8063  0.4147
  656MOL0     C88478   6.755  10.155   4.263 -0.0363  1.1269 -0.8571
  656MOL0     C88479   6.895  10.158   4.248 -0.1179 -0.0997  0.0358
  656MOL0     C88480   7.340  10.204   4.427  0.5069 -0.2946 -0.1679
  656MOL0     C88481   7.397  10.127   4.319  0.8637  0.6396  0.2200
  656MOL0     C88482   7.535  10.114   4.316 -0.7735 -0.7113 -0.4534
  656MOL0     C88483   7.617  10.176   4.412  0.4660 -0.0288  0.0810
  656MOL0     O88484   7.753  10.151   4.401  0.1267 -0.8372  0.3135
  656MOL0     C88485   7.852  10.235   4.480  0.6646  1.1497  0.0202
  656MOL0     C88486   7.993  10.209   4.425  0.8477 -0.4354  0.5368
  656MOL0     C88487   8.023  10.185   4.279  0.4551 -0.9993  0.6410
  656MOL0     C88488   7.966  10.303   4.198  0.0610 -0.0762  0.7150
  656MOL0     C88489   8.044  10.423   4.222 -0.5695 -0.3599 -0.4865
  656MOL0     C88490   8.091  10.531   4.255  0.0640 -0.1229 -0.5729
  656MOL0     C88491   7.553  10.246   4.516 -0.4124 -0.7194 -0.1693
  656MOL0     C88492   7.421  10.274   4.521 -0.4991 -0.2395 -0.7576
  656MOL0     H88493   6.998  10.022   4.541 -0.3779  1.6276  0.6278
  656MOL0     H88494   6.749   9.985   4.560  1.2820  0.5966  0.8514
  656MOL0     H88495   6.492  10.202   4.250  1.4234 -0.6201 -0.7367
  656MOL0     H88496   6.454  10.032   4.253  0.3698 -0.0571  0.8280
  656MOL0     H88497   6.342  10.227   4.472 -1.1541 -1.4901  2.1547
  656MOL0     H88498   6.281  10.216   4.311  0.0217 -0.3665 -0.8355
  656MOL0     H88499   6.239   9.976   4.329 -2.0275 -1.3915  0.5485
  656MOL0     H88500   6.295   9.986   4.501 -1.8288 -1.7611  0.2824
  656MOL0     H88501   6.122  10.150   4.555 -1.3344 -2.1665  0.4950
  656MOL0     H88502   6.084  10.165   4.386 -0.9401 -0.4611 -0.2877
  656MOL0     H88503   6.028   9.903   4.377 -1.3936  1.6765 -1.6016
  656MOL0     H88504   6.056   9.903   4.541 -2.1306 -3.9618 -1.6625
  656MOL0     H88505   5.836  10.091   4.426  0.3770  1.3931  0.0150
  656MOL0     H88506   5.807   9.926   4.478 -0.7845  1.3697  0.3011
  656MOL0     H88507   5.926   9.995   4.712  2.2955  2.5833  1.7814
  656MOL0     H88508   5.926  10.151   4.640 -0.3025  0.7206  1.0992
  656MOL0     H88509   5.669  10.134   4.633 -3.7642 -0.7622  0.9136
  656MOL0     H88510   5.736  10.120   4.797 -3.4874  0.7540 -1.2420
  656MOL0     H88511   5.623   9.932   4.933  1.4378 -1.7438  0.6210
  656MOL0     H88512   5.470   9.625   4.937 -0.4825 -0.8814  0.1351
  656MOL0     H88513   5.385   9.778   4.978 -2.7687  0.8042 -2.3442
  656MOL0     H88514   5.317   9.656   4.718  1.9655 -0.7066  0.3616
  656MOL0     H88515   5.227   9.756   4.825  0.2366  0.5929  0.1960
  656MOL0     H88516   5.212   9.590   4.994  1.4722 -0.8797  1.1355
  656MOL0     H88517   5.329   9.482   4.906 -1.8208 -0.9577  0.7444
  656MOL0     H88518   5.166   9.453   4.727 -0.9667 -0.4727 -0.1747
  656MOL0     H88519   5.072   9.588   4.788 -2.9193 -2.0981 -0.1256
  656MOL0     H88520   4.875   9.589   4.797 -0.2282  0.1212  0.0351
  656MOL0     H88521   4.620   9.628   4.738 -0.1573 -3.0628 -0.0348
  656MOL0     H88522   4.506   9.626   4.871 -0.7552  1.5615 -2.6474
  656MOL0     H88523   4.651   9.722   4.888  0.2406 -1.0363  2.0226
  656MOL0     H88524   4.288   9.402   5.237 -1.0297  1.0702  0.5224
  656MOL0     H88525   4.061   9.504   5.280  1.7343 -1.8700  0.4354
  656MOL0     H88526   3.859   9.880   5.169 -0.7077 -1.2372 -0.6937
  656MOL0     H88527   4.021   9.941   5.137 -1.7191 -0.0866 -1.8874
  656MOL0     H88528   3.948   9.920   4.920 -2.2604  0.4245  0.8149
  656MOL0     H88529   4.002   9.749   4.933 -0.9827 -0.7426 -2.7011
  656MOL0     H88530   3.747   9.720   5.013 -3.9424 -1.0317 -2.3741
  656MOL0     H88531   3.790   9.742   4.840  0.6715 -1.0012 -0.0976
  656MOL0     H88532   3.681   9.962   5.020  0.4826 -1.6108  0.9965
  656MOL0     H88533   3.742   9.989   4.860  0.9175  2.5565  3.1575
  656MOL0     H88534   3.521   9.768   4.929 -0.8290  1.2202  0.7118
  656MOL0     H88535   3.553   9.846   4.774 -0.8410  1.1737 -0.6845
  656MOL0     H88536   3.416   9.963   5.015 -0.9469  0.9698 -0.7994
  656MOL0     H88537   3.489  10.082   4.906  0.3854  1.1020 -2.1332
  656MOL0     H88538   3.298   9.875   4.788  0.8392 -0.7845  1.2544
  656MOL0     H88539   3.359  10.036   4.744 -3.6877  1.7108 -0.6096
  656MOL0     H88540   3.136  10.074   4.814  1.0172 -0.9981 -2.1008
  656MOL0     H88541   3.251  10.123   4.947  2.3262  0.3496 -1.7960
  656MOL0     H88542   4.213   9.856   5.084 -1.4825  0.0725  1.4139
  656MOL0     H88543   4.406   9.757   5.038 -0.7134  0.3224 -0.6624
  656MOL0     H88544   4.705   9.229   5.094  5.0339 -2.0332  0.2145
  656MOL0     H88545   4.920   9.220   5.016  0.3693 -0.3853 -0.4918
  656MOL0     H88546   6.688  10.184   4.183 -2.4423 -2.0712 -0.2133
  656MOL0     H88547   6.941  10.197   4.158  2.9037 -0.4891  1.2982
  656MOL0     H88548   7.340  10.069   4.246  0.0941  2.7749 -0.9654
  656MOL0     H88549   7.591  10.055   4.244  4.2623 -2.0692  3.8926
  656MOL0     H88550   7.816  10.337   4.468  2.9731  1.8847 -1.0588
  656MOL0     H88551   7.846  10.211   4.587  1.0480  2.7039  0.4168
  656MOL0     H88552   8.026  10.118   4.476  0.6688 -0.9806 -0.3039
  656MOL0     H88553   8.053  10.293   4.462  1.3412 -0.0242 -1.1193
  656MOL0     H88554   7.965  10.095   4.254  0.8195 -1.5014  1.5639
  656MOL0     H88555   8.127  10.165   4.251 -0.2671 -1.4275 -2.0452
  656MOL0     H88556   7.858  10.311   4.209  0.0999 -0.2816  1.3445
  656MOL0     H88557   7.977  10.293   4.090 -0.3015  4.0025  0.1331
  656MOL0     H88558   8.129  10.630   4.274 -1.7607  0.2817  1.3462
  656MOL0     H88559   7.615  10.275   4.601  1.4194  0.2788 -1.7533
  656MOL0     H88560   7.367  10.327   4.600  1.9811  0.5962  0.4783
  657MOL0     O88561   9.129   3.408  10.899 -0.6019 -0.4119 -0.6935
  657MOL0     C88562   9.212   3.436  10.984  1.3281  0.1460  0.7238
  657MOL0     O88563   9.340   3.460  10.953 -0.2643  0.2548 -0.1557
  657MOL0     C88564   9.398   3.420  10.833 -0.3302  0.5238  0.4169
  657MOL0     C88565   9.337   3.436  10.709 -0.2469 -0.3457  0.9720
  657MOL0     C88566   9.411   3.414  10.590 -0.1343 -0.1757 -0.4788
  657MOL0     C88567   9.536   3.372  10.596  0.6328  0.7860  1.0220
  657MOL0     O88568   9.612   3.361  10.484  0.0109  0.3928  0.6441
  657MOL0     C88569   9.653   3.483  10.421 -1.1911  0.5229 -0.8383
  657MOL0     C88570   9.805   3.461  10.373 -0.6173 -0.3322  0.1482
  657MOL0     C88571   9.810   3.341  10.279 -0.5729  0.5163  0.1190
  657MOL0     C88572   9.720   3.360  10.153 -0.1156  0.0903  0.9734
  657MOL0     C88573   9.738   3.235  10.068 -0.3993 -1.0800  0.4617
  657MOL0     C88574   9.679   3.103  10.146 -0.2368  0.4923  0.0139
  657MOL0     C88575   9.677   2.991  10.039  0.5883  0.1408  0.8548
  657MOL0     C88576   9.823   2.932  10.031  1.3081 -0.5099  0.0838
  657MOL0     N88577   9.832   2.826   9.930 -0.0508 -0.3481  0.3993
  657MOL0     C88578   9.901   2.837   9.814  0.0963 -0.0017 -0.6343
  657MOL0     C88579   9.897   2.713   9.763  0.7606  0.1984 -0.0457
  657MOL0     C88580   9.977   2.678   9.634  0.4798  0.0060  0.6461
  657MOL0     C88581   9.883   2.582   9.558 -1.2617 -0.4051 -0.0661
  657MOL0     C88582   9.940   2.547   9.424 -0.5914 -0.4557  0.3107
  657MOL0     C88583   9.906   2.665   9.328  0.4520 -0.7812  0.0113
  657MOL0     O88584   9.951   2.623   9.196  0.1033  0.1206  0.2006
  657MOL0     C88585   9.859   2.573   9.100 -1.1413 -0.6711 -0.3477
  657MOL0     C88586   9.879   2.614   8.962 -0.1891 -0.4377 -0.3457
  657MOL0     C88587   9.800   2.562   8.859 -0.1123 -0.6290  0.1343
  657MOL0     C88588   9.812   2.635   8.718 -0.8591 -0.2537  0.0355
  657MOL0     C88589   9.697   2.471   8.888 -0.3743 -0.3302 -0.2001
  657MOL0     C88590   9.583   2.426   8.794  1.0265 -0.6974 -0.9304
  657MOL0     O88591   9.507   2.324   8.835  0.2307 -0.0166  0.0399
  657MOL0     C88592   9.430   2.258   8.745 -1.1531  0.0215  0.6212
  657MOL0     C88593   9.283   2.258   8.766  1.0191 -0.8005  0.4320
  657MOL0     C88594   9.194   2.198   8.681 -0.5406 -0.4028  0.3840
  657MOL0     C88595   9.251   2.136   8.562 -0.3059  0.0177 -0.0274
  657MOL0     O88596   9.172   2.076   8.459 -0.6625 -0.5101 -0.2403
  657MOL0     C88597   9.042   2.107   8.455  0.0487 -1.1771 -0.2767
  657MOL0     C88598   9.005   2.102   8.302 -0.6091  0.4903  1.0098
  657MOL0     C88599   9.054   2.230   8.225  0.5918  0.7059  0.6169
  657MOL0     C88600   8.997   2.366   8.283 -1.1597 -0.3449 -0.1008
  657MOL0     C88601   8.851   2.352   8.327 -0.0752  0.0402  0.5075
  657MOL0     C88602   8.769   2.483   8.327  0.3954  0.6429  0.4737
  657MOL0     C88603   8.845   2.594   8.417 -0.5398 -0.1304 -0.4770
  657MOL0     C88604   8.794   2.742   8.403  0.1239 -0.3501 -0.2043
  657MOL0    Cl88605   8.622   2.745   8.443 -0.3269 -0.1704  0.6271
  657MOL0     C88606   9.389   2.114   8.552 -0.6201  0.1518  0.9938
  657MOL0     C88607   9.480   2.177   8.642 -0.4365  0.7922  0.0189
  657MOL0     O88608   9.569   2.475   8.682  0.5924  0.6982  0.6523
  657MOL0     C88609   9.679   2.435   9.026  0.6684  0.1615  0.2990
  657MOL0     C88610   9.752   2.486   9.133 -0.1402 -0.3067  0.1169
  657MOL0     N88611   9.815   2.637   9.840 -0.1738  0.1501  0.6785
  657MOL0     N88612   9.780   2.705   9.943 -0.5335  0.5329 -0.0823
  657MOL0     C88613   9.598   3.344  10.711 -0.2418  0.1235  0.1915
  657MOL0     C88614   9.525   3.371  10.834 -0.2876  0.2274 -0.0796
  657MOL0     C88615   9.168   3.446  11.120 -0.1449 -0.0087 -0.4812
  657MOL0     C88616   9.033   3.433  11.160 -0.5328  0.0627 -0.1900
  657MOL0     C88617   9.000   3.449  11.292 -0.3549 -0.4983 -0.0384
  657MOL0     C88618   9.098   3.484  11.383 -0.1773  0.4459  0.1401
  657MOL0     O88619   9.068   3.512  11.516 -0.3509 -1.0896  0.6912
  657MOL0     C88620   8.933   3.490  11.564  0.6718 -0.2107 -0.3454
  657MOL0     C88621   8.937   3.541  11.704 -0.0065  0.2191 -0.5266
  657MOL0     C88622   8.816   3.479  11.782 -0.1285 -0.9355  0.1056
  657MOL0     C88623   8.852   3.346  11.846 -0.5127 -0.2767 -0.5610
  657MOL0     C88624   8.788   3.328  11.978 -0.3989  0.4185  0.1320
  657MOL0     C88625   8.744   3.308  12.084 -0.2025 -0.0764  0.4433
  657MOL0     C88626   9.229   3.492  11.346 -0.8323  0.1907  0.1537
  657MOL0     C88627   9.265   3.480  11.220 -0.7934 -1.0627  0.2752
  657MOL0     H88628   9.237   3.478  10.704  0.7547  2.2527  0.7561
  657MOL0     H88629   9.368   3.436  10.493  0.9665  1.2580 -0.6693
  657MOL0     H88630   9.586   3.523  10.344 -2.4299  0.1311 -0.0058
  657MOL0     H88631   9.660   3.565  10.493 -0.2337 -0.0531 -0.2557
  657MOL0     H88632   9.830   3.551  10.315 -0.0087  0.5098  1.6876
  657MOL0     H88633   9.864   3.460  10.464 -4.0229  1.3329  2.6094
  657MOL0     H88634   9.912   3.329  10.241 -1.5071 -2.4123 -1.7408
  657MOL0     H88635   9.800   3.251  10.341 -0.7124 -1.6450 -2.8694
  657MOL0     H88636   9.614   3.359  10.178 -0.4040  0.1209 -0.1614
  657MOL0     H88637   9.744   3.456  10.107  0.3979 -0.9724 -1.1097
  657MOL0     H88638   9.679   3.250   9.977 -4.0281  0.4844  2.8256
  657MOL0     H88639   9.845   3.215  10.055  1.0034  3.6120  2.6705
  657MOL0     H88640   9.748   3.073  10.225  0.8451  2.8017  0.0386
  657MOL0     H88641   9.578   3.120  10.184 -0.9484 -2.6245 -0.1652
  657MOL0     H88642   9.603   2.912  10.050  0.0728  0.4080 -0.4244
  657MOL0     H88643   9.657   3.028   9.937 -0.2832 -0.7814  0.6775
  657MOL0     H88644   9.851   2.888  10.127 -1.8773 -0.7337  1.0302
  657MOL0     H88645   9.883   3.022  10.012 -1.4540  1.5754  0.5741
  657MOL0     H88646   9.952   2.925   9.776  1.1360 -0.5884 -0.6377
  657MOL0     H88647   9.988   2.770   9.576 -0.6862 -0.9508 -1.2102
  657MOL0     H88648  10.073   2.628   9.648  1.8420  2.0047 -0.9211
  657MOL0     H88649   9.785   2.625   9.538 -0.8166  1.7091  1.9111
  657MOL0     H88650   9.886   2.489   9.615 -2.5229  1.2029  2.8430
  657MOL0     H88651   9.886   2.457   9.392  0.2965 -1.1375  0.6783
  657MOL0     H88652  10.048   2.530   9.417 -1.0075 -2.5664 -2.8617
  657MOL0     H88653   9.961   2.758   9.345 -2.4284  1.0763 -0.1979
  657MOL0     H88654   9.800   2.691   9.329  0.0677 -2.1575  2.3153
  657MOL0     H88655   9.963   2.679   8.941  0.0975 -0.2461  1.3018
  657MOL0     H88656   9.804   2.556   8.643 -1.1034 -0.4685  0.2868
  657MOL0     H88657   9.737   2.711   8.696 -0.2179 -0.0815 -1.6530
  657MOL0     H88658   9.913   2.677   8.708 -0.7961 -0.2112  0.7612
  657MOL0     H88659   9.261   2.306   8.860  0.0955  0.5218 -0.4151
  657MOL0     H88660   9.089   2.190   8.709 -0.8318 -1.5094 -0.9191
  657MOL0     H88661   8.985   2.036   8.516 -0.5543 -0.9919 -0.6125
  657MOL0     H88662   9.017   2.205   8.497  0.8639 -1.0041 -0.1831
  657MOL0     H88663   9.043   2.013   8.249 -0.4983  1.3141 -0.3366
  657MOL0     H88664   8.898   2.080   8.293  0.0773 -2.5274 -3.1260
  657MOL0     H88665   9.022   2.226   8.121  0.3294  0.0328  0.7202
  657MOL0     H88666   9.163   2.243   8.218  0.7716 -1.4908 -2.8817
  657MOL0     H88667   9.055   2.395   8.371 -0.2297  4.0596 -1.8661
  657MOL0     H88668   9.007   2.447   8.210 -2.6125 -0.2014 -0.1641
  657MOL0     H88669   8.843   2.307   8.426 -2.7207  1.6028  1.0985
  657MOL0     H88670   8.801   2.305   8.241 -2.6770  1.5714  1.0696
  657MOL0     H88671   8.751   2.522   8.226 -1.5910  1.1721  0.9870
  657MOL0     H88672   8.669   2.470   8.370  1.5881 -2.4970  2.6689
  657MOL0     H88673   8.954   2.585   8.406 -0.4286 -1.7748  1.3177
  657MOL0     H88674   8.826   2.561   8.520  0.0811 -0.2740 -0.4035
  657MOL0     H88675   8.812   2.787   8.305  1.1662 -0.6364 -0.1539
  657MOL0     H88676   8.848   2.802   8.477  1.1222 -3.0664  1.3875
  657MOL0     H88677   9.424   2.065   8.461 -2.1287  0.1589  0.3802
  657MOL0     H88678   9.585   2.180   8.615 -1.1961  1.4631 -3.3438
  657MOL0     H88679   9.602   2.363   9.051  1.9133 -0.8851  1.2861
  657MOL0     H88680   9.723   2.470   9.236 -0.9846 -1.3363 -0.2674
  657MOL0     H88681   9.701   3.310  10.713 -0.7163 -1.4159  1.4594
  657MOL0     H88682   9.571   3.358  10.931  0.4432  1.9417 -0.1781
  657MOL0     H88683   8.966   3.403  11.080  1.4659 -1.6890 -1.3263
  657MOL0     H88684   8.896   3.453  11.322  0.0859  4.1975  1.8092
  657MOL0     H88685   8.857   3.549  11.512  2.1623  1.3964 -0.7956
  657MOL0     H88686   8.895   3.387  11.560 -1.0581  0.3434  0.6185
  657MOL0     H88687   8.923   3.649  11.701  1.3511  0.5469  2.1897
  657MOL0     H88688   9.031   3.525  11.758  1.1034  1.6592 -1.9502
  657MOL0     H88689   8.726   3.476  11.721  0.5280 -0.6232 -0.9027
  657MOL0     H88690   8.799   3.553  11.862  1.9083 -0.7696  0.4309
  657MOL0     H88691   8.961   3.333  11.857 -0.7691 -1.1364  1.4210
  657MOL0     H88692   8.822   3.268  11.775  1.7102 -0.1220 -1.7921
  657MOL0     H88693   8.691   3.287  12.175 -0.8261 -0.5238 -0.0078
  657MOL0     H88694   9.300   3.541  11.413 -0.5627  2.6489 -1.7718
  657MOL0     H88695   9.368   3.493  11.190 -1.1999 -1.9053 -1.5927
  658MOL0     O88696   8.568   6.245   8.366  0.2270  0.6723 -0.3331
  658MOL0     C88697   8.535   6.354   8.342  0.6261  0.1130 -0.4423
  658MOL0     O88698   8.447   6.433   8.419 -0.2358  0.3175  0.3231
  658MOL0     C88699   8.373   6.362   8.511 -0.0788  1.1265  0.0297
  658MOL0     C88700   8.263   6.284   8.477 -0.3033  0.7376 -0.2651
  658MOL0     C88701   8.187   6.201   8.567 -0.1518 -0.6731 -0.3819
  658MOL0     C88702   8.226   6.205   8.707 -0.7985 -0.7806  0.5313
  658MOL0     O88703   8.151   6.143   8.809  0.1221  0.1158  0.5986
  658MOL0     C88704   8.223   6.087   8.924  0.9256  0.0047  0.1067
  658MOL0     C88705   8.331   5.989   8.870 -0.0143 -0.5384  0.1019
  658MOL0     C88706   8.269   5.877   8.788 -0.6702  0.4230  0.3096
  658MOL0     C88707   8.373   5.825   8.684 -0.0024 -0.1278 -1.0533
  658MOL0     C88708   8.281   5.748   8.593 -0.5635  0.0339 -0.4556
  658MOL0     C88709   8.357   5.681   8.479  0.1702  1.0020  1.4139
  658MOL0     C88710   8.409   5.544   8.511 -1.1989  0.4019 -0.3554
  658MOL0     C88711   8.547   5.539   8.577 -0.0365 -0.2900 -0.2664
  658MOL0     N88712   8.595   5.404   8.617 -0.8292 -0.9635 -0.3374
  658MOL0     C88713   8.529   5.326   8.706 -0.1389  0.1108 -0.4247
  658MOL0     C88714   8.606   5.219   8.720 -0.2482 -0.8326 -0.0612
  658MOL0     C88715   8.562   5.105   8.810  0.5968  0.0665 -0.2487
  658MOL0     C88716   8.598   4.974   8.744 -0.8417 -0.5984 -0.3143
  658MOL0     C88717   8.596   4.850   8.831  0.2664 -0.0923  0.0088
  658MOL0     C88718   8.465   4.839   8.907 -0.3708 -0.5580 -1.1323
  658MOL0     O88719   8.452   4.935   9.015 -0.0609  0.5215  1.1213
  658MOL0     C88720   8.368   4.896   9.115 -0.2547  0.5175 -0.3577
  658MOL0     C88721   8.242   4.842   9.095  0.5513  0.0599  0.5295
  658MOL0     C88722   8.157   4.803   9.192 -0.6054  0.6935  0.1423
  658MOL0     C88723   8.033   4.739   9.155  0.7146  0.4578  0.1963
  658MOL0     C88724   8.198   4.801   9.327  0.3888 -1.0498 -1.2889
  658MOL0     C88725   8.144   4.732   9.442 -0.2563  0.4792  0.3590
  658MOL0     O88726   8.085   4.606   9.429 -0.2758 -0.2869  0.1618
  658MOL0     C88727   8.043   4.531   9.536 -0.9128  0.9145  0.4403
  658MOL0     C88728   7.936   4.450   9.507  0.4608  0.8925 -0.7629
  658MOL0     C88729   7.867   4.376   9.605  0.0460 -0.3345 -0.0630
  658MOL0     C88730   7.927   4.363   9.732 -0.5394 -0.2027 -0.4590
  658MOL0     O88731   7.851   4.282   9.806  0.9505  0.1282  0.5303
  658MOL0     C88732   7.854   4.279   9.946 -0.2905 -0.0148  0.3006
  658MOL0     C88733   7.786   4.159  10.005 -0.5842  0.3140 -0.4665
  658MOL0     C88734   7.886   4.038   9.995  1.0593 -0.2422 -0.2634
  658MOL0     C88735   7.840   3.938  10.107  0.1633 -0.7481 -0.5775
  658MOL0     C88736   7.927   3.818  10.093  0.2498  0.1165 -0.4412
  658MOL0     C88737   7.939   3.714  10.203  0.9910 -0.8654  0.7072
  658MOL0     C88738   7.800   3.646  10.221  0.1099  0.5254 -0.9012
  658MOL0     C88739   7.803   3.497  10.177 -0.3193  0.1672 -0.4353
  658MOL0    Cl88740   7.652   3.396  10.202  0.0479  0.5376 -0.1497
  658MOL0     C88741   8.038   4.447   9.768  0.3809  0.1497 -0.7180
  658MOL0     C88742   8.092   4.535   9.672  0.4338  0.1817 -0.4682
  658MOL0     O88743   8.146   4.790   9.547 -0.0736 -0.3954 -0.1123
  658MOL0     C88744   8.311   4.884   9.348 -0.1725 -0.1330 -0.0787
  658MOL0     C88745   8.398   4.920   9.249 -0.2210  0.3557  0.2378
  658MOL0     N88746   8.716   5.226   8.638 -0.5818  0.6281  0.2141
  658MOL0     N88747   8.716   5.347   8.591  0.2669  0.5805 -0.7498
  658MOL0     C88748   8.342   6.282   8.742 -0.1512 -0.2415 -0.4677
  658MOL0     C88749   8.403   6.364   8.648  0.3465  0.0740  0.5389
  658MOL0     C88750   8.585   6.407   8.214 -0.3792 -0.6510 -0.3010
  658MOL0     C88751   8.546   6.538   8.170 -0.0196 -0.7891  0.2537
  658MOL0     C88752   8.590   6.591   8.048 -0.1864  1.3737  0.5572
  658MOL0     C88753   8.670   6.523   7.958  0.3354 -0.0707 -0.3459
  658MOL0     O88754   8.691   6.576   7.835 -0.6521  0.4305 -0.4938
  658MOL0     C88755   8.789   6.518   7.758  0.5999  0.5580  0.9993
  658MOL0     C88756   8.832   6.601   7.638  0.3541  0.3679  0.6643
  658MOL0     C88757   8.728   6.593   7.525 -0.1092 -0.2172 -0.0571
  658MOL0     C88758   8.749   6.708   7.431 -1.0957  0.3380 -0.5283
  658MOL0     C88759   8.860   6.705   7.331 -0.2123 -0.1988  0.3307
  658MOL0     C88760   8.947   6.703   7.249  0.0719  0.2840  0.2039
  658MOL0     C88761   8.698   6.390   7.992 -0.6459  0.2575  0.2238
  658MOL0     C88762   8.659   6.335   8.110  0.6896  0.5714 -0.2534
  658MOL0     H88763   8.227   6.285   8.374 -1.9924 -3.6632  0.0330
  658MOL0     H88764   8.107   6.137   8.531 -1.8190 -0.2869  2.3680
  658MOL0     H88765   8.271   6.161   8.988 -0.3946 -1.2590  2.6917
  658MOL0     H88766   8.151   6.038   8.990  0.5860  1.1068  0.5767
  658MOL0     H88767   8.405   6.046   8.814 -1.4715  1.5534  0.1709
  658MOL0     H88768   8.375   5.953   8.963  1.2935  1.2847  0.2404
  658MOL0     H88769   8.243   5.790   8.849  1.0366 -0.2108  0.1885
  658MOL0     H88770   8.186   5.921   8.732 -0.9433 -2.2361 -1.5846
  658MOL0     H88771   8.418   5.907   8.627 -1.1694  2.0462  0.9700
  658MOL0     H88772   8.444   5.769   8.745 -4.1539 -3.4337  1.3303
  658MOL0     H88773   8.218   5.681   8.652  0.6332  0.4447  1.3508
  658MOL0     H88774   8.207   5.813   8.545 -1.1357  0.1670  0.5609
  658MOL0     H88775   8.287   5.661   8.397 -0.6110 -1.6824  2.6000
  658MOL0     H88776   8.440   5.739   8.439  2.6549  1.4983  6.4551
  658MOL0     H88777   8.339   5.497   8.580  1.1121 -1.0589  1.1433
  658MOL0     H88778   8.423   5.480   8.424  1.5592  2.0255 -1.2435
  658MOL0     H88779   8.551   5.608   8.662  0.9599  0.4212 -0.8746
  658MOL0     H88780   8.612   5.581   8.500 -0.8010  2.2192  0.3674
  658MOL0     H88781   8.436   5.340   8.761 -1.7970  0.3605 -3.1325
  658MOL0     H88782   8.625   5.115   8.899 -2.9938 -0.5137  2.5907
  658MOL0     H88783   8.459   5.110   8.847  0.8254  1.0880  0.2735
  658MOL0     H88784   8.701   4.977   8.706  0.1820 -0.7048  2.2279
  658MOL0     H88785   8.530   4.961   8.660  0.2110  0.5427 -1.3762
  658MOL0     H88786   8.684   4.843   8.897  0.2662 -1.4851 -0.1088
  658MOL0     H88787   8.603   4.767   8.760 -0.1105 -0.2248  0.1234
  658MOL0     H88788   8.458   4.739   8.952 -1.8230  0.0899  0.1352
  658MOL0     H88789   8.376   4.857   8.846 -0.5734  1.9134 -0.1928
  658MOL0     H88790   8.205   4.831   8.993  2.7395 -2.6831 -0.1051
  658MOL0     H88791   7.989   4.797   9.073  2.5599  1.5585 -0.0638
  658MOL0     H88792   8.047   4.638   9.115  2.5062 -0.4379  2.8112
  658MOL0     H88793   7.963   4.743   9.239  0.6874  1.7514  0.1264
  658MOL0     H88794   7.890   4.455   9.409 -0.8174  1.0283 -0.1727
  658MOL0     H88795   7.772   4.324   9.596 -2.0619  3.3277 -1.4119
  658MOL0     H88796   7.950   4.283   9.999 -1.3896  1.4216  2.3319
  658MOL0     H88797   7.805   4.372   9.976  1.5784  1.2180 -0.2906
  658MOL0     H88798   7.747   4.186  10.103  0.5064  0.7795 -0.1421
  658MOL0     H88799   7.700   4.133   9.943  0.4492 -4.0668 -0.4233
  658MOL0     H88800   7.987   4.074  10.017 -0.5196  2.9906  2.5435
  658MOL0     H88801   7.879   3.989   9.897  0.3493 -2.9237  1.0190
  658MOL0     H88802   7.857   3.983  10.206 -2.5012 -2.3817  0.7441
  658MOL0     H88803   7.735   3.907  10.104  0.4401 -1.6629 -1.2474
  658MOL0     H88804   8.026   3.863  10.086 -0.2915  1.4338  0.1027
  658MOL0     H88805   7.898   3.764  10.002 -0.2106  0.7276 -0.6607
  658MOL0     H88806   8.021   3.643  10.186 -0.0670 -2.5956  2.4270
  658MOL0     H88807   7.968   3.768  10.294  2.4433  0.5218 -0.5270
  658MOL0     H88808   7.726   3.697  10.159 -0.3590  0.6474 -0.2457
  658MOL0     H88809   7.770   3.647  10.326  1.4022  0.8866 -0.5192
  658MOL0     H88810   7.883   3.452  10.236 -0.5830 -0.1258 -0.3005
  658MOL0     H88811   7.840   3.496  10.074  0.1208  1.2973 -0.3011
  658MOL0     H88812   8.077   4.440   9.869 -3.5827  2.8071  1.2967
  658MOL0     H88813   8.179   4.592   9.704 -1.1793  0.8087  3.2396
  658MOL0     H88814   8.347   4.895   9.450  0.4013 -1.5662 -0.1119
  658MOL0     H88815   8.494   4.966   9.269 -1.1397  2.1071  0.8110
  658MOL0     H88816   8.362   6.293   8.848 -0.4942 -0.8610 -0.3348
  658MOL0     H88817   8.478   6.433   8.687 -0.6718  2.0406 -0.7782
  658MOL0     H88818   8.482   6.597   8.235 -0.7549 -1.7815  0.4436
  658MOL0     H88819   8.551   6.684   8.008 -1.7307  0.4793 -0.1394
  658MOL0     H88820   8.873   6.491   7.822  0.4146  0.9018  1.3895
  658MOL0     H88821   8.750   6.426   7.714  1.8749  0.7933 -0.7852
  658MOL0     H88822   8.928   6.560   7.607  0.0098  0.6583 -0.9154
  658MOL0     H88823   8.824   6.708   7.661 -1.5141  1.2579 -3.3109
  658MOL0     H88824   8.626   6.600   7.565 -0.5620 -2.6849 -0.5672
  658MOL0     H88825   8.743   6.494   7.480 -2.3922 -1.0195  0.7586
  658MOL0     H88826   8.761   6.803   7.485  1.0885 -0.0771 -0.2023
  658MOL0     H88827   8.656   6.714   7.373  0.1832  2.8843 -2.5460
  658MOL0     H88828   9.039   6.717   7.196  0.2667 -1.8668 -0.1191
  658MOL0     H88829   8.757   6.315   7.940 -0.0862 -1.6890  3.4169
  658MOL0     H88830   8.682   6.237   8.150 -3.7299 -1.3090 -1.6603
  659MOL0     O88831   3.368   6.624  11.380 -0.1174 -0.2052  0.1494
  659MOL0     C88832   3.369   6.681  11.494 -0.5699 -0.4232 -0.9539
  659MOL0     O88833   3.477   6.668  11.579 -0.3792 -0.6246 -0.0583
  659MOL0     C88834   3.595   6.630  11.523 -0.1415 -0.4081  0.4503
  659MOL0     C88835   3.676   6.520  11.559 -0.3907  0.1025  0.0614
  659MOL0     C88836   3.806   6.507  11.518  1.3099 -0.5874  0.2070
  659MOL0     C88837   3.856   6.604  11.424 -0.2419 -0.5727 -0.3211
  659MOL0     O88838   3.986   6.600  11.366  0.5266 -0.0422  0.0325
  659MOL0     C88839   4.000   6.633  11.220 -0.5250 -0.7924  0.0941
  659MOL0     C88840   4.151   6.647  11.210 -0.6090 -1.0754  0.1989
  659MOL0     C88841   4.203   6.775  11.282  0.4255  0.5390  0.4161
  659MOL0     C88842   4.174   6.890  11.190  0.2865 -0.5793 -0.0287
  659MOL0     C88843   4.237   7.014  11.243  0.0277  0.1679  0.0035
  659MOL0     C88844   4.201   7.148  11.166 -0.5199  0.4068  0.2460
  659MOL0     C88845   4.258   7.274  11.217  0.3095 -0.1375 -0.5747
  659MOL0     C88846   4.224   7.383  11.107 -0.2026 -0.5377  1.0101
  659MOL0     N88847   4.240   7.518  11.153 -1.2685 -0.1669  0.3401
  659MOL0     C88848   4.333   7.558  11.249 -0.3974 -0.1619 -0.0795
  659MOL0     C88849   4.328   7.695  11.228  0.0326  0.4547  0.1150
  659MOL0     C88850   4.415   7.793  11.299 -0.3048 -1.1320  0.7089
  659MOL0     C88851   4.414   7.930  11.230 -0.0417  0.2634  0.0091
  659MOL0     C88852   4.277   8.012  11.238 -0.6879 -0.3714  0.6133
  659MOL0     C88853   4.226   8.067  11.377 -0.0766 -0.0608  0.5762
  659MOL0     O88854   4.313   8.169  11.430  0.3077  0.3237 -0.3059
  659MOL0     C88855   4.352   8.145  11.556 -0.5747 -0.3860  1.1522
  659MOL0     C88856   4.267   8.095  11.654  0.8857 -0.0098  0.1375
  659MOL0     C88857   4.315   8.064  11.784 -0.8768 -0.0704 -1.1262
  659MOL0     C88858   4.223   7.995  11.889  1.1721  0.7781 -0.7418
  659MOL0     C88859   4.455   8.091  11.812  1.4604 -0.1042  0.4234
  659MOL0     C88860   4.515   8.077  11.949 -0.8284 -0.7057 -0.3884
  659MOL0     O88861   4.461   7.977  12.018 -0.6201  0.3046  0.1584
  659MOL0     C88862   4.505   7.951  12.144  0.2169  0.5277 -0.4941
  659MOL0     C88863   4.557   7.820  12.170  0.3815 -0.3757  1.0129
  659MOL0     C88864   4.607   7.777  12.295 -0.2804 -0.1990  0.6790
  659MOL0     C88865   4.604   7.867  12.402 -0.1961  0.6838  0.4822
  659MOL0     O88866   4.651   7.834  12.523 -0.2453 -1.2298 -0.4660
  659MOL0     C88867   4.790   7.839  12.520  0.2709 -0.0450  0.3468
  659MOL0     C88868   4.853   7.830  12.661  0.6958 -0.8569 -0.0681
  659MOL0     C88869   4.855   7.965  12.733 -0.4690 -0.4109  0.0371
  659MOL0     C88870   4.932   8.067  12.655  0.6714 -0.0230 -0.3964
  659MOL0     C88871   4.915   8.211  12.714  0.0779 -0.3408  0.2671
  659MOL0     C88872   4.978   8.312  12.620  0.0170 -0.6842  0.2815
  659MOL0     C88873   4.948   8.463  12.652 -0.0925  0.6163  0.0062
  659MOL0     C88874   4.939   8.535  12.519  1.1073  1.3711  0.2330
  659MOL0    Cl88875   5.105   8.555  12.455 -0.5426  0.1290  0.2391
  659MOL0     C88876   4.551   7.998  12.382  0.9339  0.9513  0.2197
  659MOL0     C88877   4.512   8.036  12.252  0.3095 -0.4632  0.2758
  659MOL0     O88878   4.594   8.161  11.989 -0.7059 -0.2030  0.3528
  659MOL0     C88879   4.530   8.152  11.711 -0.2911 -0.0142  0.5451
  659MOL0     C88880   4.485   8.181  11.583  0.4404 -0.0780  0.3283
  659MOL0     N88881   4.247   7.726  11.122 -0.6659  0.6997  0.3139
  659MOL0     N88882   4.188   7.617  11.076  0.5246 -1.5923  0.0279
  659MOL0     C88883   3.772   6.717  11.388  0.0492 -0.1672  0.9862
  659MOL0     C88884   3.642   6.729  11.435  0.2332  0.2556  0.9401
  659MOL0     C88885   3.261   6.773  11.511 -0.6560  0.5699 -0.0469
  659MOL0     C88886   3.277   6.896  11.579 -0.0315  0.1660  0.0116
  659MOL0     C88887   3.177   6.986  11.603  1.1133 -0.3281 -0.0907
  659MOL0     C88888   3.066   6.979  11.525 -0.3933 -0.8453  0.2424
  659MOL0     O88889   2.968   7.083  11.533 -0.9319  0.8594  0.6772
  659MOL0     C88890   3.023   7.209  11.485  0.2682 -0.1766  0.5955
  659MOL0     C88891   2.921   7.326  11.492  0.1214  0.0245  0.1583
  659MOL0     C88892   2.794   7.309  11.410  0.0461  0.1785  0.6142
  659MOL0     C88893   2.703   7.437  11.429 -0.9046  0.6488  0.1733
  659MOL0     C88894   2.675   7.478  11.566 -0.3524  0.5296  0.3285
  659MOL0     C88895   2.642   7.533  11.663 -0.3977  0.6379 -1.5669
  659MOL0     C88896   3.042   6.869  11.446 -0.1611  1.0864  0.0337
  659MOL0     C88897   3.140   6.771  11.438  0.6164  0.4059  0.4156
  659MOL0     H88898   3.658   6.445  11.636  1.3267  0.8967  1.3125
  659MOL0     H88899   3.868   6.427  11.556 -0.8540 -1.3475  2.3475
  659MOL0     H88900   3.966   6.551  11.157  0.1214  1.2113 -3.1148
  659MOL0     H88901   3.956   6.731  11.196 -0.0312 -0.3723  0.8401
  659MOL0     H88902   4.201   6.556  11.245 -1.5200 -1.9575 -0.7354
  659MOL0     H88903   4.170   6.664  11.104  1.1784 -0.5409  0.5564
  659MOL0     H88904   4.163   6.776  11.384  1.2228 -0.7623  0.7617
  659MOL0     H88905   4.311   6.757  11.286  0.2069 -1.2172 -0.8517
  659MOL0     H88906   4.216   6.867  11.092  2.0380 -0.1945  0.6046
  659MOL0     H88907   4.067   6.902  11.168  0.0389 -2.4836 -0.0176
  659MOL0     H88908   4.206   7.027  11.347 -2.9085  0.9981 -0.8801
  659MOL0     H88909   4.344   6.994  11.237 -0.4446 -2.5474 -0.7291
  659MOL0     H88910   4.245   7.133  11.067  2.2799 -1.1601  1.6115
  659MOL0     H88911   4.093   7.155  11.157 -0.6597  1.4412  2.3006
  659MOL0     H88912   4.209   7.312  11.307  0.9090 -1.2773  0.2487
  659MOL0     H88913   4.366   7.268  11.231  0.4667  1.8785 -0.5555
  659MOL0     H88914   4.121   7.378  11.068 -0.0485  2.1638  0.0457
  659MOL0     H88915   4.296   7.357  11.029  0.8595 -1.6116  2.3259
  659MOL0     H88916   4.399   7.491  11.304  1.2086  1.1812 -0.3085
  659MOL0     H88917   4.370   7.792  11.399 -0.6243  1.7051  0.6761
  659MOL0     H88918   4.515   7.753  11.317  0.5210  0.5252 -0.0252
  659MOL0     H88919   4.442   7.929  11.124  1.4604 -1.3586  0.3711
  659MOL0     H88920   4.493   7.996  11.266  1.7816 -1.4897 -0.5623
  659MOL0     H88921   4.188   7.970  11.189 -1.0080  1.5421 -0.5359
  659MOL0     H88922   4.288   8.100  11.175  2.7922 -0.6206  0.6873
  659MOL0     H88923   4.222   7.977  11.439  4.7238 -0.2839  0.9586
  659MOL0     H88924   4.127   8.111  11.363  0.1160  0.0526 -0.4623
  659MOL0     H88925   4.162   8.068  11.650  1.2017 -1.3567  0.5760
  659MOL0     H88926   4.250   7.889  11.896  0.4989  0.6298 -0.3089
  659MOL0     H88927   4.220   8.044  11.987 -0.1962  0.1745 -0.4653
  659MOL0     H88928   4.121   8.002  11.851 -0.3689 -3.0071  2.0608
  659MOL0     H88929   4.542   7.739  12.099 -1.0556 -0.2087  1.1026
  659MOL0     H88930   4.643   7.676  12.313 -2.3008 -0.9131  1.0290
  659MOL0     H88931   4.825   7.743  12.480 -3.2383 -0.8069 -1.2373
  659MOL0     H88932   4.838   7.908  12.450 -1.5229  0.5427 -0.3379
  659MOL0     H88933   4.798   7.751  12.713  0.2214 -1.0210 -0.8007
  659MOL0     H88934   4.956   7.796  12.644  1.0894  0.9214 -1.5492
  659MOL0     H88935   4.911   7.941  12.824  1.3369 -5.4758 -2.0594
  659MOL0     H88936   4.749   7.991  12.748  0.2079  1.8009  1.4996
  659MOL0     H88937   5.039   8.042  12.651  0.7984  0.6369 -3.4270
  659MOL0     H88938   4.885   8.064  12.556  3.2543  3.0196 -1.8919
  659MOL0     H88939   4.967   8.227  12.809 -0.5198  0.3882  0.4846
  659MOL0     H88940   4.808   8.229  12.732  0.3738  0.6363  1.1283
  659MOL0     H88941   5.086   8.295  12.623  0.3672  1.3555  1.0697
  659MOL0     H88942   4.944   8.286  12.519 -0.9562 -0.4971  0.5502
  659MOL0     H88943   5.029   8.514  12.704  0.3243  1.5813 -1.4929
  659MOL0     H88944   4.862   8.460  12.719  1.1715  2.9875  1.8790
  659MOL0     H88945   4.902   8.637  12.525  0.3456  1.0119  2.8877
  659MOL0     H88946   4.880   8.479  12.446 -0.5129  2.1318  0.9104
  659MOL0     H88947   4.550   8.057  12.473 -1.3734  1.2020  0.0935
  659MOL0     H88948   4.480   8.140  12.246 -3.4386 -1.3865  1.6264
  659MOL0     H88949   4.632   8.175  11.740  1.1996 -2.7700 -1.9689
  659MOL0     H88950   4.546   8.217  11.501  0.9935 -1.1664  0.2447
  659MOL0     H88951   3.809   6.808  11.341 -0.7382  0.8325  2.2247
  659MOL0     H88952   3.604   6.827  11.407  1.0055 -0.0917 -1.5487
  659MOL0     H88953   3.363   6.919  11.642 -2.7153  1.7920  3.4454
  659MOL0     H88954   3.209   7.071  11.663 -1.0470 -0.9860  2.1642
  659MOL0     H88955   3.117   7.238  11.532  1.5880 -4.5513  1.0484
  659MOL0     H88956   3.037   7.203  11.377 -0.2521  1.8156  0.3671
  659MOL0     H88957   2.975   7.411  11.450  1.5384 -0.1870  1.4724
  659MOL0     H88958   2.900   7.345  11.598 -0.7116 -0.8935  0.1742
  659MOL0     H88959   2.751   7.212  11.439 -0.3048 -0.0249 -0.5654
  659MOL0     H88960   2.826   7.307  11.306 -0.4902  0.5217  0.4408
  659MOL0     H88961   2.610   7.427  11.371  0.0078 -0.3343 -1.1664
  659MOL0     H88962   2.767   7.518  11.394 -0.8136  0.1319 -0.8967
  659MOL0     H88963   2.608   7.565  11.759  0.3055  0.7020 -1.3382
  659MOL0     H88964   2.945   6.846  11.403 -1.0437  2.8495  0.9994
  659MOL0     H88965   3.112   6.694  11.367  0.8894  0.2064  0.5236
  660MOL0     O88966   9.082   4.480   3.500  0.4428 -0.3986  0.2561
  660MOL0     C88967   9.090   4.356   3.490  0.2382 -0.2234 -0.4562
  660MOL0     O88968   9.039   4.280   3.382 -0.1781 -0.2781 -0.3017
  660MOL0     C88969   8.939   4.322   3.296 -0.2315 -0.0399  1.0446
  660MOL0     C88970   8.931   4.280   3.160  0.1884  0.8437  0.1686
  660MOL0     C88971   8.827   4.331   3.083  0.5628  0.7060  0.0251
  660MOL0     C88972   8.730   4.411   3.128  0.2094 -0.6496 -0.1325
  660MOL0     O88973   8.641   4.478   3.043  0.3584 -0.2477  0.4394
  660MOL0     C88974   8.658   4.470   2.902 -0.1023 -0.0316  0.3511
  660MOL0     C88975   8.580   4.579   2.836 -0.0050 -0.2652  0.3540
  660MOL0     C88976   8.616   4.584   2.684 -0.4342 -1.0855  0.3565
  660MOL0     C88977   8.518   4.681   2.607 -0.0135  0.7353  0.6269
  660MOL0     C88978   8.541   4.696   2.464 -0.4529  0.4269 -0.0576
  660MOL0     C88979   8.510   4.567   2.381  0.4888  0.2959 -0.0661
  660MOL0     C88980   8.497   4.594   2.228 -0.2629  0.0270  0.7991
  660MOL0     C88981   8.362   4.640   2.173 -0.4518 -1.2783 -0.0016
  660MOL0     N88982   8.365   4.674   2.027  0.7345 -0.8703 -0.8531
  660MOL0     C88983   8.262   4.698   1.937 -0.6534  0.2136 -0.2905
  660MOL0     C88984   8.319   4.744   1.824 -0.0000  0.1631 -0.8200
  660MOL0     C88985   8.253   4.776   1.695 -0.9659  0.6849 -0.0086
  660MOL0     C88986   8.234   4.924   1.683  0.1503 -0.8597  0.6592
  660MOL0     C88987   8.158   4.968   1.557  0.5146 -0.1208  0.5310
  660MOL0     C88988   8.255   5.029   1.449  0.1574  0.9250  0.9887
  660MOL0     O88989   8.339   4.928   1.386  0.1562 -0.4100  0.1336
  660MOL0     C88990   8.380   4.969   1.264  0.8779 -0.6976  0.0570
  660MOL0     C88991   8.375   5.102   1.219 -0.5262  0.2354  0.8942
  660MOL0     C88992   8.438   5.129   1.094 -0.7484  0.2904  0.0710
  660MOL0     C88993   8.442   5.276   1.053  0.8760 -0.7025  0.0885
  660MOL0     C88994   8.494   5.026   1.019 -0.3534 -0.3989  0.8652
  660MOL0     C88995   8.560   5.045   0.887  0.4253  0.6800  0.1938
  660MOL0     O88996   8.577   4.944   0.801 -0.3728  0.3229 -0.9010
  660MOL0     C88997   8.589   4.963   0.671  0.2517 -0.1440 -0.3352
  660MOL0     C88998   8.634   5.068   0.591 -0.4683  0.3521 -0.3042
  660MOL0     C88999   8.632   5.078   0.457  0.3190  0.9769  0.2401
  660MOL0     C89000   8.578   4.974   0.381 -0.1017  0.0358 -0.2987
  660MOL0     O89001   8.598   4.962   0.244  0.2427 -0.1051 -0.5414
  660MOL0     C89002   8.479   4.942   0.165 -0.3442  0.9721  0.1078
  660MOL0     C89003   8.489   4.999   0.023 -0.0727 -0.4776 -0.6879
  660MOL0     C89004   8.362   5.006  -0.059  0.4783 -0.4010 -0.4835
  660MOL0     C89005   8.377   5.078  -0.188  0.6022  0.0152  0.2989
  660MOL0     C89006   8.244   5.106  -0.263  0.0282  0.1429 -0.9799
  660MOL0     C89007   8.278   5.185  -0.379  0.1988  0.1817  0.3482
  660MOL0     C89008   8.145   5.203  -0.446  0.1219 -0.6627  0.0764
  660MOL0     C89009   8.147   5.269  -0.581  0.1746 -0.2928  0.1133
  660MOL0    Cl89010   8.306   5.328  -0.650  0.1588 -0.1809 -0.4023
  660MOL0     C89011   8.533   4.862   0.452 -0.3395  0.0828  0.0930
  660MOL0     C89012   8.543   4.859   0.593 -0.6914  0.1467 -0.0789
  660MOL0     O89013   8.626   5.151   0.881 -0.5887  0.1826 -0.2249
  660MOL0     C89014   8.471   4.896   1.054  0.3127 -0.0958 -0.2846
  660MOL0     C89015   8.411   4.868   1.177 -1.1164  0.4873  1.0747
  660MOL0     N89016   8.456   4.723   1.838 -0.2406 -0.4126 -0.3310
  660MOL0     N89017   8.482   4.687   1.957 -0.1395  1.3848  0.1426
  660MOL0     C89018   8.727   4.432   3.264 -0.4133  0.7383  0.1719
  660MOL0     C89019   8.834   4.395   3.353  0.8418  0.3649  0.3933
  660MOL0     C89020   9.194   4.300   3.571  0.2282  0.9965  0.0409
  660MOL0     C89021   9.271   4.377   3.660 -0.6969  0.6270  0.2571
  660MOL0     C89022   9.364   4.314   3.736  0.4715  0.3500 -0.3111
  660MOL0     C89023   9.403   4.176   3.718  0.4529 -0.0143 -0.2456
  660MOL0     O89024   9.513   4.120   3.779  0.7854  0.0903 -0.4756
  660MOL0     C89025   9.584   4.201   3.867 -0.1826 -0.8851  0.1340
  660MOL0     C89026   9.692   4.109   3.924 -0.0191  0.6201  0.4018
  660MOL0     C89027   9.805   4.078   3.834 -0.1807  0.7977 -0.3503
  660MOL0     C89028   9.927   3.996   3.897 -0.4752  0.4557  0.3737
  660MOL0     C89029  10.047   4.078   3.924  0.6145 -0.4425 -0.9378
  660MOL0     C89030  10.148   4.144   3.938  0.6899 -0.1664 -0.4522
  660MOL0     C89031   9.330   4.101   3.627 -0.8432 -0.3007  0.2511
  660MOL0     C89032   9.235   4.160   3.545  0.4487 -0.4769  0.3994
  660MOL0     H89033   8.998   4.204   3.122 -1.2301 -0.3029 -0.1700
  660MOL0     H89034   8.826   4.296   2.980 -2.3404 -3.9219  1.3175
  660MOL0     H89035   8.761   4.485   2.867 -0.4981  1.1971 -0.3468
  660MOL0     H89036   8.624   4.372   2.868 -0.5826 -0.2287  1.3742
  660MOL0     H89037   8.476   4.551   2.855  0.5002 -2.5369  0.1109
  660MOL0     H89038   8.606   4.670   2.890  0.6491  0.1230 -0.5882
  660MOL0     H89039   8.719   4.621   2.676 -1.4384  1.9881  0.3348
  660MOL0     H89040   8.618   4.487   2.633  0.6585 -0.3374 -1.1139
  660MOL0     H89041   8.414   4.647   2.614  0.6835 -1.9591 -0.8387
  660MOL0     H89042   8.525   4.778   2.657 -1.6062  0.6695  1.0507
  660MOL0     H89043   8.470   4.773   2.433  0.4432  0.4263 -2.3080
  660MOL0     H89044   8.641   4.740   2.449  0.9964 -2.3584  0.7538
  660MOL0     H89045   8.584   4.490   2.404 -1.2412 -1.1552  0.9317
  660MOL0     H89046   8.415   4.524   2.414 -0.6333  2.0346 -0.8744
  660MOL0     H89047   8.568   4.675   2.209  1.1915 -0.6944  2.8432
  660MOL0     H89048   8.520   4.508   2.164 -1.3828  1.0368 -1.0604
  660MOL0     H89049   8.327   4.715   2.244  3.1791  0.4633  0.1330
  660MOL0     H89050   8.290   4.558   2.167 -2.0380  0.1141 -1.0757
  660MOL0     H89051   8.154   4.692   1.952 -0.3866  1.4596  2.8521
  660MOL0     H89052   8.308   4.735   1.610 -4.0466 -2.2313 -0.8452
  660MOL0     H89053   8.158   4.722   1.685 -0.0508 -0.7779 -1.1671
  660MOL0     H89054   8.326   4.983   1.684 -1.1789  1.4003 -1.0982
  660MOL0     H89055   8.185   4.947   1.777 -0.6745 -1.3029  0.3434
  660MOL0     H89056   8.091   5.049   1.587  2.2074  1.1070  1.1678
  660MOL0     H89057   8.096   4.894   1.506 -1.0383  1.2730  0.3238
  660MOL0     H89058   8.311   5.103   1.508 -3.1741  3.6984  1.0457
  660MOL0     H89059   8.192   5.085   1.378 -0.6140 -1.1089 -0.0031
  660MOL0     H89060   8.346   5.189   1.277 -0.7437  0.6112  0.2394
  660MOL0     H89061   8.544   5.313   1.065  1.0939 -0.2167 -2.6671
  660MOL0     H89062   8.420   5.285   0.947 -1.9326 -2.7776  0.3878
  660MOL0     H89063   8.375   5.341   1.109  1.3004  1.9332 -2.2858
  660MOL0     H89064   8.691   5.153   0.628  0.9338 -1.1096  0.9867
  660MOL0     H89065   8.685   5.163   0.416 -2.5618  1.7055 -2.2587
  660MOL0     H89066   8.454   4.836   0.155 -0.7129  1.2673 -2.7517
  660MOL0     H89067   8.392   4.989   0.212 -1.0986  0.0569 -0.3288
  660MOL0     H89068   8.527   5.100   0.041  0.2519 -0.3058 -2.2555
  660MOL0     H89069   8.568   4.955  -0.037  2.5972  0.2469  2.0465
  660MOL0     H89070   8.282   5.053  -0.001  0.2938  0.6073 -1.5202
  660MOL0     H89071   8.325   4.906  -0.083 -0.7801  0.7343 -3.9863
  660MOL0     H89072   8.426   5.175  -0.174 -0.2420  0.5630 -0.4066
  660MOL0     H89073   8.449   5.028  -0.253 -1.5976 -1.2467 -1.2907
  660MOL0     H89074   8.178   5.154  -0.191 -1.2154 -1.9885 -0.6055
  660MOL0     H89075   8.210   5.011  -0.306  0.7466  0.7113 -2.9140
  660MOL0     H89076   8.319   5.281  -0.347 -0.9109  0.8897 -0.3295
  660MOL0     H89077   8.349   5.128  -0.440 -0.9064  0.1645 -0.9564
  660MOL0     H89078   8.072   5.255  -0.384 -0.1181  0.4304 -1.0714
  660MOL0     H89079   8.094   5.107  -0.459 -0.9124 -0.0905 -0.2262
  660MOL0     H89080   8.089   5.359  -0.558  0.2729 -0.9056  3.1789
  660MOL0     H89081   8.094   5.197  -0.644  0.0792  1.8626 -2.4535
  660MOL0     H89082   8.499   4.772   0.403  0.3166 -0.1115 -0.0101
  660MOL0     H89083   8.517   4.767   0.645  2.9918 -0.0020  1.7886
  660MOL0     H89084   8.509   4.815   0.992  0.5918 -1.3112  1.4252
  660MOL0     H89085   8.393   4.763   1.196  0.4344  0.3588  1.9583
  660MOL0     H89086   8.643   4.487   3.304  0.7788  1.4028  1.8910
  660MOL0     H89087   8.832   4.437   3.453 -2.1147  0.4291  0.3764
  660MOL0     H89088   9.243   4.480   3.676 -3.9278 -0.5338  3.2078
  660MOL0     H89089   9.429   4.367   3.805 -1.2047 -2.2977  3.7316
  660MOL0     H89090   9.625   4.284   3.810 -1.3237 -1.2500 -1.2866
  660MOL0     H89091   9.528   4.244   3.951 -0.8697  0.1931 -0.8565
  660MOL0     H89092   9.636   4.018   3.951  0.6631  0.6371  1.9685
  660MOL0     H89093   9.724   4.158   4.016 -0.9176  0.9909  0.5237
  660MOL0     H89094   9.839   4.178   3.806 -1.8106  1.9006  1.3421
  660MOL0     H89095   9.768   4.024   3.746 -0.7742 -1.0793  0.9766
  660MOL0     H89096   9.959   3.911   3.836 -2.2001 -0.0119  0.0765
  660MOL0     H89097   9.893   3.952   3.991 -0.0574  1.8096  1.1810
  660MOL0     H89098  10.240   4.197   3.955  0.1537  0.5169  0.3756
  660MOL0     H89099   9.356   3.997   3.609 -1.7291 -0.0548 -2.9777
  660MOL0     H89100   9.183   4.094   3.477 -1.7265  2.5754 -1.1635
  661MOL0     O89101   1.741   2.390   6.965 -0.1967 -0.2209 -0.5228
  661MOL0     C89102   1.626   2.361   6.987 -0.2949 -0.0667  0.6882
  661MOL0     O89103   1.526   2.428   6.941  0.0210  0.0494 -0.0776
  661MOL0     C89104   1.544   2.541   6.869  0.5406 -0.1145  0.4362
  661MOL0     C89105   1.626   2.643   6.911 -0.0805 -0.3849 -1.2828
  661MOL0     C89106   1.635   2.762   6.840 -0.4784 -1.0716  0.0848
  661MOL0     C89107   1.554   2.777   6.728 -0.1707 -0.2697 -0.8329
  661MOL0     O89108   1.583   2.896   6.653  0.8498 -0.3841 -0.6494
  661MOL0     C89109   1.501   2.952   6.544  0.3441  0.0134 -0.1349
  661MOL0     C89110   1.541   3.089   6.498 -0.0381  0.6364 -0.0744
  661MOL0     C89111   1.479   3.193   6.590  0.7647  0.6321  0.0574
  661MOL0     C89112   1.565   3.314   6.586  0.4691  1.0074 -0.3525
  661MOL0     C89113   1.521   3.420   6.691  0.3974  0.7212  0.0693
  661MOL0     C89114   1.628   3.535   6.699  0.1591 -0.0633  1.4653
  661MOL0     C89115   1.624   3.639   6.593  0.2326 -0.1026 -0.1398
  661MOL0     C89116   1.752   3.728   6.616 -0.5001  0.5923 -0.2500
  661MOL0     N89117   1.794   3.801   6.493 -1.0473 -0.1271 -0.6059
  661MOL0     C89118   1.890   3.751   6.407 -1.0430 -0.6133  0.2372
  661MOL0     C89119   1.907   3.847   6.313 -0.5700 -0.4112 -0.7986
  661MOL0     C89120   1.978   3.852   6.187  1.2319  0.1529 -0.0747
  661MOL0     C89121   2.090   3.946   6.200 -0.3871  0.1312  0.6045
  661MOL0     C89122   2.210   3.893   6.286  0.3326  1.3547  0.0716
  661MOL0     C89123   2.307   4.010   6.318 -0.0506 -0.0787  0.2034
  661MOL0     O89124   2.407   3.973   6.417  0.7328  0.5088  0.3225
  661MOL0     C89125   2.530   3.983   6.383 -0.0486  0.0657 -0.4569
  661MOL0     C89126   2.596   4.106   6.409  0.1767  0.0466 -1.3379
  661MOL0     C89127   2.734   4.122   6.397  0.0186 -0.5420 -0.6528
  661MOL0     C89128   2.791   4.258   6.411 -0.4449 -0.6044 -0.2311
  661MOL0     C89129   2.816   4.008   6.373  0.2443  0.3675 -0.6690
  661MOL0     C89130   2.964   3.992   6.362 -1.2469 -0.4748 -0.2081
  661MOL0     O89131   3.031   4.092   6.429 -0.7173  0.5240 -0.6772
  661MOL0     C89132   3.131   4.076   6.522  0.1117 -0.1181  0.3301
  661MOL0     C89133   3.172   3.955   6.568 -0.4647  0.0840 -0.1511
  661MOL0     C89134   3.257   3.935   6.674 -0.5958 -0.5847  0.9012
  661MOL0     C89135   3.316   4.049   6.733 -0.5040  0.0819  0.2951
  661MOL0     O89136   3.394   4.043   6.843 -0.2584  0.1963  0.6007
  661MOL0     C89137   3.443   3.921   6.893 -0.5587 -0.0180  1.0292
  661MOL0     C89138   3.543   3.854   6.805 -0.6461 -0.4219 -0.3184
  661MOL0     C89139   3.578   3.718   6.875  0.3186 -0.0392 -0.5793
  661MOL0     C89140   3.519   3.592   6.815  0.7880  0.0053  0.9434
  661MOL0     C89141   3.570   3.555   6.672 -0.2146  0.0447 -0.1519
  661MOL0     C89142   3.472   3.462   6.600 -0.0859  0.3110  0.3042
  661MOL0     C89143   3.532   3.412   6.465 -0.2520  0.0956  0.1578
  661MOL0     C89144   3.428   3.335   6.398  0.1771  0.0610  0.5961
  661MOL0    Cl89145   3.480   3.267   6.235  0.1200 -0.8101 -0.2944
  661MOL0     C89146   3.288   4.171   6.677  0.2330  0.0753  0.6125
  661MOL0     C89147   3.195   4.182   6.582  0.9009 -0.1639  0.4704
  661MOL0     O89148   3.017   3.906   6.298 -0.1531 -0.6288  0.9885
  661MOL0     C89149   2.748   3.891   6.337  0.1778 -0.6028  0.5390
  661MOL0     C89150   2.610   3.883   6.333  0.3451  0.7363 -0.3718
  661MOL0     N89151   1.850   3.967   6.364 -0.5676  0.5954  0.8400
  661MOL0     N89152   1.772   3.930   6.455  0.3305  0.5223  0.6431
  661MOL0     C89153   1.461   2.684   6.695 -0.1281  0.4815  0.3230
  661MOL0     C89154   1.460   2.558   6.759 -0.0653 -0.1710  0.5979
  661MOL0     C89155   1.613   2.234   7.074  0.6010 -1.7152  1.1894
  661MOL0     C89156   1.720   2.143   7.094 -0.0512  0.4951 -0.9445
  661MOL0     C89157   1.708   2.029   7.177  0.1567 -0.7170 -0.8903
  661MOL0     C89158   1.590   2.006   7.248 -0.4947 -0.2956  0.4178
  661MOL0     O89159   1.578   1.906   7.338  0.2042  0.0596 -0.3474
  661MOL0     C89160   1.593   1.949   7.479  0.4119  0.2103  0.2476
  661MOL0     C89161   1.578   1.834   7.574 -0.1063 -0.7043 -0.1672
  661MOL0     C89162   1.639   1.702   7.520  0.5087  0.7834 -0.1205
  661MOL0     C89163   1.661   1.591   7.622 -0.2518  1.0008 -0.4588
  661MOL0     C89164   1.547   1.538   7.696 -0.5885 -0.0182  0.4193
  661MOL0     C89165   1.454   1.502   7.764  1.3230 -0.6662 -0.1931
  661MOL0     C89166   1.489   2.103   7.238  0.4443 -0.1715  0.0895
  661MOL0     C89167   1.499   2.207   7.146  0.8882 -0.0914 -0.0325
  661MOL0     H89168   1.684   2.645   7.002 -0.9503 -0.4314 -0.7245
  661MOL0     H89169   1.696   2.850   6.856 -2.2874  0.1096  0.8272
  661MOL0     H89170   1.520   2.887   6.458  0.9455 -1.1491  0.8454
  661MOL0     H89171   1.392   2.952   6.560  0.2488  1.8954 -0.4888
  661MOL0     H89172   1.651   3.083   6.498 -0.1104 -4.2007 -0.9885
  661MOL0     H89173   1.520   3.098   6.391  0.4914  1.6112 -0.1100
  661MOL0     H89174   1.377   3.220   6.561  1.8588  3.6097 -1.4993
  661MOL0     H89175   1.487   3.160   6.694  1.4321 -1.7007 -0.6685
  661MOL0     H89176   1.668   3.281   6.600 -0.4724 -2.4560 -0.8520
  661MOL0     H89177   1.556   3.346   6.481  1.6428  2.3229 -0.0738
  661MOL0     H89178   1.426   3.463   6.656 -0.1435 -1.1794 -0.9680
  661MOL0     H89179   1.497   3.371   6.786  2.6598 -0.8154 -0.0932
  661MOL0     H89180   1.632   3.589   6.794  1.6419  1.6475  0.4809
  661MOL0     H89181   1.723   3.481   6.694  1.0865  1.5794  0.7305
  661MOL0     H89182   1.618   3.604   6.490 -1.7354 -1.5088  0.4126
  661MOL0     H89183   1.533   3.689   6.627  2.0429  0.8485  3.9907
  661MOL0     H89184   1.836   3.680   6.666 -1.3519  1.9608  2.7018
  661MOL0     H89185   1.720   3.805   6.687 -1.6795  0.6084 -0.7809
  661MOL0     H89186   1.923   3.648   6.409  1.4913  0.1284 -0.0915
  661MOL0     H89187   2.011   3.749   6.175  1.0124 -0.5713  4.0876
  661MOL0     H89188   1.905   3.883   6.111 -1.4922 -3.2976  0.8981
  661MOL0     H89189   2.060   4.040   6.245 -1.7144  0.4381 -0.8244
  661MOL0     H89190   2.124   3.955   6.096  0.8117 -1.1385  0.8593
  661MOL0     H89191   2.246   3.803   6.235 -0.2087 -0.2340  2.3553
  661MOL0     H89192   2.160   3.854   6.375 -2.7825  0.5075 -1.9069
  661MOL0     H89193   2.256   4.100   6.353 -1.1717  1.2847 -4.3585
  661MOL0     H89194   2.359   4.050   6.231  3.9303 -3.1366  0.8641
  661MOL0     H89195   2.534   4.189   6.442 -0.6898 -1.1799  0.2625
  661MOL0     H89196   2.722   4.341   6.425 -1.2587 -1.5048  1.2461
  661MOL0     H89197   2.860   4.265   6.495 -2.4458  2.2819  1.3026
  661MOL0     H89198   2.837   4.263   6.311  1.7990 -2.9505  0.5574
  661MOL0     H89199   3.131   3.865   6.523 -0.3771 -1.0595  1.9706
  661MOL0     H89200   3.283   3.834   6.702  1.5996  0.3142  2.3186
  661MOL0     H89201   3.478   3.937   6.996 -1.4372  2.1754  1.0399
  661MOL0     H89202   3.360   3.852   6.910 -2.6247  1.8952 -0.6961
  661MOL0     H89203   3.511   3.829   6.704 -1.5037 -0.1259 -0.1286
  661MOL0     H89204   3.627   3.923   6.794 -1.4591  0.5031 -0.9108
  661MOL0     H89205   3.549   3.723   6.980  0.7530 -0.3824 -0.4379
  661MOL0     H89206   3.686   3.710   6.857 -0.0296  1.7142 -4.5062
  661MOL0     H89207   3.526   3.512   6.890  2.1625  1.9296  2.9909
  661MOL0     H89208   3.412   3.606   6.799  0.7920 -0.6236  0.2829
  661MOL0     H89209   3.669   3.511   6.687 -0.3429  0.0673  0.7989
  661MOL0     H89210   3.593   3.643   6.611  1.1293  1.8687  2.7490
  661MOL0     H89211   3.446   3.376   6.663 -0.0666 -0.3659 -0.5967
  661MOL0     H89212   3.376   3.510   6.579 -0.3076 -0.0046  0.5716
  661MOL0     H89213   3.630   3.368   6.484  0.6977  2.3558  0.8519
  661MOL0     H89214   3.555   3.494   6.395 -0.8344 -1.4640 -1.9772
  661MOL0     H89215   3.341   3.400   6.386  1.3770  2.0958  2.3521
  661MOL0     H89216   3.393   3.255   6.464 -0.6537 -1.5496 -1.6598
  661MOL0     H89217   3.329   4.256   6.732  0.9642 -0.6165  1.1606
  661MOL0     H89218   3.168   4.286   6.573  0.9522 -0.0689  1.3635
  661MOL0     H89219   2.796   3.798   6.306 -0.3659 -1.0879  1.1213
  661MOL0     H89220   2.553   3.794   6.311  0.4897  0.3268  0.8130
  661MOL0     H89221   1.408   2.698   6.601  1.5721  1.7994 -0.5118
  661MOL0     H89222   1.392   2.475   6.745  0.8812 -1.4322  2.9126
  661MOL0     H89223   1.810   2.157   7.035 -0.3948 -1.7888 -2.1276
  661MOL0     H89224   1.785   1.954   7.185  0.4571 -0.4160 -0.9206
  661MOL0     H89225   1.693   1.987   7.496 -0.0440  1.8184 -0.4979
  661MOL0     H89226   1.523   2.030   7.501  0.1785  0.3692 -0.9930
  661MOL0     H89227   1.476   1.829   7.612 -0.0392  4.5124  1.4426
  661MOL0     H89228   1.639   1.867   7.658  1.7558 -2.2571 -0.8310
  661MOL0     H89229   1.737   1.716   7.474  0.7101 -2.2086 -0.8303
  661MOL0     H89230   1.584   1.668   7.432 -0.7037 -0.5213  1.0867
  661MOL0     H89231   1.738   1.624   7.692 -0.7705 -2.2419  1.9009
  661MOL0     H89232   1.699   1.504   7.567  0.8813  1.6013 -0.6506
  661MOL0     H89233   1.377   1.472   7.833  0.2338  2.2020 -0.0212
  661MOL0     H89234   1.398   2.095   7.298  2.9517  1.4201  4.6447
  661MOL0     H89235   1.428   2.285   7.121  4.2613  2.4484 -2.7482
  662MOL0     O89236   5.962  10.487   0.114 -0.0759 -0.4508 -0.4568
  662MOL0     C89237   5.892  10.384   0.125  0.4838 -0.2161 -0.4231
  662MOL0     O89238   5.940  10.258   0.150  0.7568 -0.0050  0.1436
  662MOL0     C89239   6.068  10.224   0.181 -0.2873 -0.2433  0.5116
  662MOL0     C89240   6.086  10.089   0.190  0.0040 -0.2337 -0.0920
  662MOL0     C89241   6.202  10.039   0.244 -0.7551 -0.1908  0.2459
  662MOL0     C89242   6.316  10.119   0.269  0.4107 -0.1767 -0.4345
  662MOL0     O89243   6.430  10.052   0.319  0.6591  0.3161 -0.0156
  662MOL0     C89244   6.562  10.110   0.333 -1.4055  0.3683 -0.2866
  662MOL0     C89245   6.667  10.001   0.337 -0.1267  0.4456 -0.5527
  662MOL0     C89246   6.807  10.052   0.375  0.5780  0.1485 -0.4736
  662MOL0     C89247   6.891  10.108   0.261  0.0939 -0.7815  0.1386
  662MOL0     C89248   7.028  10.154   0.322 -0.3846  0.2376 -0.3013
  662MOL0     C89249   7.016  10.292   0.390 -0.0296  0.7521 -0.2619
  662MOL0     C89250   7.171  10.324   0.410  0.4876 -0.6540  0.1103
  662MOL0     C89251   7.183  10.430   0.527 -0.3649  0.5030 -0.4834
  662MOL0     N89252   7.085  10.423   0.639  0.4590  0.4893  0.1206
  662MOL0     C89253   6.976  10.505   0.668 -0.0398  0.6996 -0.6186
  662MOL0     C89254   6.933  10.479   0.798  0.2647 -0.8318 -0.5440
  662MOL0     C89255   6.825  10.542   0.864 -0.1970  0.2071 -1.1121
  662MOL0     C89256   6.854  10.689   0.913  0.9037  0.9875  0.3048
  662MOL0     C89257   6.937  10.706   1.032 -0.6949  0.4336  0.5090
  662MOL0     C89258   6.870  10.648   1.165  0.4571 -0.5291 -0.2698
  662MOL0     O89259   6.951  10.680   1.280 -0.2098  0.1141  0.2636
  662MOL0     C89260   7.075  10.619   1.295  0.1971 -1.2173  0.2652
  662MOL0     C89261   7.120  10.515   1.219  0.1794  0.9263 -0.9317
  662MOL0     C89262   7.246  10.451   1.238  0.2414  0.1564 -0.5240
  662MOL0     C89263   7.287  10.362   1.126 -0.0640 -0.7040 -0.2890
  662MOL0     C89264   7.328  10.495   1.343  0.4673  0.0153 -0.1914
  662MOL0     C89265   7.468  10.442   1.375 -0.2244  0.0154  0.2872
  662MOL0     O89266   7.505  10.445   1.503  0.2302  0.3780 -0.5848
  662MOL0     C89267   7.636  10.402   1.515 -0.5708 -0.0950 -0.4311
  662MOL0     C89268   7.734  10.503   1.503  0.1260  0.2487  0.0921
  662MOL0     C89269   7.866  10.479   1.506 -0.2066 -0.5682  1.1939
  662MOL0     C89270   7.907  10.348   1.529 -0.5136 -0.8569 -0.2422
  662MOL0     O89271   8.044  10.333   1.544 -0.4536  0.4718 -0.1323
  662MOL0     C89272   8.105  10.204   1.510  0.1048  0.1116  0.9187
  662MOL0     C89273   8.257  10.216   1.468  0.0618  0.1579  0.2189
  662MOL0     C89274   8.343  10.328   1.536  0.5414  0.1402  0.8438
  662MOL0     C89275   8.482  10.329   1.471  0.3892 -0.0696 -0.6161
  662MOL0     C89276   8.575  10.415   1.555 -0.1982  0.2387 -0.5680
  662MOL0     C89277   8.716  10.374   1.542  0.2068  0.6383 -0.2782
  662MOL0     C89278   8.782  10.402   1.405 -0.8303  0.4468 -0.1506
  662MOL0     C89279   8.811  10.555   1.392 -0.3811  0.4068 -0.2233
  662MOL0    Cl89280   8.918  10.621   1.527  0.1479 -0.4032  0.3823
  662MOL0     C89281   7.815  10.246   1.547 -0.1598  0.5055 -0.2901
  662MOL0     C89282   7.672  10.274   1.540  0.4548 -0.2530  0.0724
  662MOL0     O89283   7.533  10.387   1.293 -0.0906  0.9906  1.0964
  662MOL0     C89284   7.280  10.599   1.422 -0.0317  0.3480 -0.3535
  662MOL0     C89285   7.146  10.643   1.405 -1.4757 -0.8417  0.0624
  662MOL0     N89286   7.006  10.366   0.839 -0.2381  0.4629 -0.1867
  662MOL0     N89287   7.087  10.332   0.740  0.0267  0.2127 -0.0773
  662MOL0     C89288   6.304  10.255   0.242  0.6244 -0.7561 -0.3127
  662MOL0     C89289   6.178  10.307   0.217 -0.2843  0.1368  0.5933
  662MOL0     C89290   5.749  10.403   0.103  0.1013  0.1044  0.1489
  662MOL0     C89291   5.655  10.302   0.132 -0.6537 -0.7838 -1.3514
  662MOL0     C89292   5.526  10.334   0.130  0.5787 -0.4141  0.0535
  662MOL0     C89293   5.480  10.457   0.088 -0.2543  0.6414 -0.6586
  662MOL0     O89294   5.350  10.463   0.099 -0.5933 -0.4651 -0.1239
  662MOL0     C89295   5.286  10.597   0.093 -0.0735  0.7526  0.2887
  662MOL0     C89296   5.156  10.592   0.160  0.0683  1.2496 -0.2617
  662MOL0     C89297   5.150  10.527   0.291  0.1914  0.2569 -0.4567
  662MOL0     C89298   5.253  10.581   0.405 -0.5583 -0.3385  0.4195
  662MOL0     C89299   5.383  10.519   0.419  0.1319  0.2334  0.5749
  662MOL0     C89300   5.496  10.487   0.434  0.7286 -0.4627 -0.2289
  662MOL0     C89301   5.570  10.559   0.054 -0.5830  0.1817  0.0466
  662MOL0     C89302   5.704  10.529   0.065  0.6855  0.9204  0.9371
  662MOL0     H89303   5.995  10.032   0.171 -0.2694 -0.2232  1.0895
  662MOL0     H89304   6.204   9.931   0.252  0.5173 -0.1775  0.2643
  662MOL0     H89305   6.585  10.173   0.247 -2.0982 -1.6546 -2.0537
  662MOL0     H89306   6.576  10.162   0.428  0.6641 -1.8909  0.7689
  662MOL0     H89307   6.633   9.933   0.416  1.1398 -0.6253 -0.9025
  662MOL0     H89308   6.657   9.941   0.246 -1.0275 -0.8823  0.3834
  662MOL0     H89309   6.809  10.124   0.457  0.4171 -1.8147  1.3298
  662MOL0     H89310   6.867   9.972   0.419 -0.7287  0.1704  1.4565
  662MOL0     H89311   6.901  10.048   0.170  1.2554  1.0370 -1.0008
  662MOL0     H89312   6.834  10.191   0.219  2.4615  0.4031 -0.9414
  662MOL0     H89313   7.059  10.078   0.394 -0.2165  0.5718 -0.0171
  662MOL0     H89314   7.109  10.162   0.249  2.9807 -2.4425  2.7866
  662MOL0     H89315   6.968  10.362   0.321  2.5029  0.2941 -2.6776
  662MOL0     H89316   6.962  10.273   0.483 -0.5148 -2.0982 -1.0204
  662MOL0     H89317   7.226  10.232   0.433 -0.0281 -2.7328 -5.4473
  662MOL0     H89318   7.220  10.365   0.321  1.8102 -0.9174  0.6949
  662MOL0     H89319   7.174  10.522   0.469 -0.0041 -0.8756 -2.8451
  662MOL0     H89320   7.286  10.429   0.563 -0.0782 -2.1792 -1.2114
  662MOL0     H89321   6.933  10.572   0.595 -1.5425  0.0474 -0.3806
  662MOL0     H89322   6.744  10.559   0.793 -1.7403 -0.1093  0.5062
  662MOL0     H89323   6.789  10.492   0.954 -2.3812  2.5941 -0.5261
  662MOL0     H89324   6.759  10.739   0.936 -0.0579 -0.6426  0.0509
  662MOL0     H89325   6.905  10.742   0.832  2.1016 -1.4872 -0.6774
  662MOL0     H89326   6.952  10.812   1.052  0.3078  0.4868 -0.4661
  662MOL0     H89327   7.034  10.657   1.018 -1.1375 -0.2364 -0.3755
  662MOL0     H89328   6.848  10.542   1.154  2.5281 -0.8192 -2.6283
  662MOL0     H89329   6.768  10.687   1.169  0.4687 -0.0378 -2.9598
  662MOL0     H89330   7.068  10.485   1.129 -2.8908  0.4835  0.8398
  662MOL0     H89331   7.228  10.385   1.037 -1.3551 -3.7533 -0.3263
  662MOL0     H89332   7.390  10.387   1.099 -0.4377 -2.1977 -3.5442
  662MOL0     H89333   7.274  10.255   1.142 -2.8879 -0.4904 -0.7101
  662MOL0     H89334   7.700  10.605   1.489  0.7411  0.2054 -1.9154
  662MOL0     H89335   7.944  10.554   1.503 -0.4682 -0.3305 -0.4416
  662MOL0     H89336   8.108  10.146   1.602 -0.2572 -3.0308 -0.9156
  662MOL0     H89337   8.058  10.132   1.443  3.0060 -0.6730 -0.4562
  662MOL0     H89338   8.317  10.128   1.490  2.4945  2.6072  4.9743
  662MOL0     H89339   8.249  10.256   1.367 -1.5693 -0.5284  0.0514
  662MOL0     H89340   8.356  10.308   1.643  2.1917  0.1786  0.6750
  662MOL0     H89341   8.292  10.424   1.524  1.5186  0.4021 -1.6024
  662MOL0     H89342   8.513  10.224   1.461  1.9015  0.4792 -2.1534
  662MOL0     H89343   8.485  10.370   1.369 -0.8337  0.6302 -0.3962
  662MOL0     H89344   8.562  10.412   1.664  2.8503  0.6884 -0.1069
  662MOL0     H89345   8.574  10.522   1.532  2.2687  1.5084  3.9576
  662MOL0     H89346   8.766  10.432   1.620 -0.9684 -1.7165  2.4393
  662MOL0     H89347   8.714  10.269   1.574 -1.6785  0.6557 -0.2737
  662MOL0     H89348   8.733  10.359   1.318 -0.5797  1.7097 -0.9408
  662MOL0     H89349   8.879  10.350   1.408 -1.7662 -1.3463  0.4827
  662MOL0     H89350   8.720  10.616   1.381 -3.0654 -3.5142 -2.7272
  662MOL0     H89351   8.870  10.573   1.302  3.1917 -1.8611  1.4640
  662MOL0     H89352   7.853  10.148   1.570 -0.1153  0.3894 -0.8313
  662MOL0     H89353   7.586  10.211   1.556 -0.4160  1.0488  0.6721
  662MOL0     H89354   7.348  10.639   1.496  0.7184 -2.9119  0.8905
  662MOL0     H89355   7.101  10.714   1.473 -2.1337 -0.5727 -0.6384
  662MOL0     H89356   6.392  10.316   0.262 -0.0521  0.3583 -0.6737
  662MOL0     H89357   6.164  10.415   0.218  0.0105  0.1827  0.1469
  662MOL0     H89358   5.686  10.202   0.158  0.3128 -0.1133  0.2477
  662MOL0     H89359   5.444  10.263   0.140  0.6098 -1.4890 -4.7710
  662MOL0     H89360   5.351  10.657   0.157  0.3132 -3.5213  4.4866
  662MOL0     H89361   5.263  10.615  -0.012 -1.7280 -3.2165 -0.2190
  662MOL0     H89362   5.081  10.547   0.094 -1.1661  2.9208 -0.0539
  662MOL0     H89363   5.127  10.696   0.175  1.3286  1.5771  0.0165
  662MOL0     H89364   5.142  10.419   0.276 -0.6282 -0.0437  1.8194
  662MOL0     H89365   5.058  10.551   0.345  0.9173  0.4082  0.7530
  662MOL0     H89366   5.207  10.558   0.501  0.2455 -0.1770  0.8572
  662MOL0     H89367   5.257  10.689   0.394  0.9285  0.0536  3.6477
  662MOL0     H89368   5.599  10.479   0.462  0.7165 -1.9162 -0.5185
  662MOL0     H89369   5.538  10.658   0.024 -2.5808 -0.9177 -1.7651
  662MOL0     H89370   5.775  10.604   0.033  0.5676  1.4157  1.8074
  663MOL0     O89371   2.856   8.263   0.791  0.7538 -0.0824  0.4785
  663MOL0     C89372   2.766   8.193   0.752  0.1702  0.3605 -0.8580
  663MOL0     O89373   2.631   8.198   0.799 -0.0994 -0.4529  0.5649
  663MOL0     C89374   2.578   8.273   0.900 -0.1221 -0.6006 -1.1788
  663MOL0     C89375   2.658   8.349   0.990  0.9608 -0.6596 -0.5782
  663MOL0     C89376   2.594   8.392   1.110  0.8967  0.4932 -0.2526
  663MOL0     C89377   2.453   8.382   1.136  0.7466  0.6113  0.4151
  663MOL0     O89378   2.393   8.427   1.248 -0.4057 -1.1110 -0.4936
  663MOL0     C89379   2.258   8.384   1.273 -0.3631  0.3581 -0.4289
  663MOL0     C89380   2.213   8.418   1.416  0.3357  0.2642  0.2638
  663MOL0     C89381   2.191   8.571   1.428  0.2717  0.2267 -0.3613
  663MOL0     C89382   2.119   8.601   1.560 -0.1549 -0.9949  0.5318
  663MOL0     C89383   2.082   8.752   1.566 -0.0329 -0.6464 -0.4055
  663MOL0     C89384   1.990   8.779   1.691 -0.3805 -0.6546  0.2051
  663MOL0     C89385   1.847   8.747   1.649 -0.0093  1.0933 -0.8930
  663MOL0     C89386   1.739   8.781   1.751 -0.2288 -0.1453 -0.0421
  663MOL0     N89387   1.767   8.916   1.798 -0.3919 -0.0662 -0.0294
  663MOL0     C89388   1.821   8.941   1.918  0.3748 -1.0171  1.0813
  663MOL0     C89389   1.816   9.075   1.932 -0.1238 -0.3429  1.0472
  663MOL0     C89390   1.839   9.163   2.044 -0.2083  0.8310 -0.6592
  663MOL0     C89391   1.948   9.111   2.138 -0.5136  0.3088 -0.7585
  663MOL0     C89392   2.011   9.228   2.219 -0.0388 -0.1983  0.3070
  663MOL0     C89393   2.146   9.195   2.271 -0.5022 -0.1106 -0.8821
  663MOL0     O89394   2.246   9.207   2.170  0.6373  0.0693  0.1626
  663MOL0     C89395   2.380   9.205   2.212  0.3511  0.5586 -0.2312
  663MOL0     C89396   2.458   9.090   2.206  0.1749 -0.4055 -0.2207
  663MOL0     C89397   2.592   9.085   2.243 -1.3027  0.8450 -0.2703
  663MOL0     C89398   2.661   8.957   2.251 -0.3708 -0.9043 -0.8946
  663MOL0     C89399   2.651   9.201   2.293 -0.7026 -0.5116  0.3423
  663MOL0     C89400   2.785   9.209   2.366  0.2689  0.8141 -0.1972
  663MOL0     O89401   2.832   9.334   2.398 -0.2325 -0.1021  0.1687
  663MOL0     C89402   2.954   9.337   2.471  0.4986 -0.0971 -0.6073
  663MOL0     C89403   3.072   9.296   2.412 -0.2980  0.3032  0.0162
  663MOL0     C89404   3.190   9.293   2.481  0.3707  0.2397 -0.1970
  663MOL0     C89405   3.190   9.309   2.626 -0.1079 -0.4558 -0.2470
  663MOL0     O89406   3.308   9.290   2.691 -0.1100  0.1380 -0.0039
  663MOL0     C89407   3.314   9.301   2.832 -0.0883 -0.5001  0.6021
  663MOL0     C89408   3.322   9.449   2.870  0.5784 -0.4227 -0.4060
  663MOL0     C89409   3.446   9.515   2.811  0.3563 -0.0797 -0.0793
  663MOL0     C89410   3.551   9.533   2.922 -1.6352 -0.8288  0.0149
  663MOL0     C89411   3.697   9.525   2.869  0.7744 -0.5866  0.1797
  663MOL0     C89412   3.801   9.621   2.932  0.4078  0.1683 -0.0765
  663MOL0     C89413   3.928   9.645   2.855 -0.0072 -0.1151 -0.5037
  663MOL0     C89414   4.017   9.752   2.927 -0.1069  0.1017  1.3271
  663MOL0    Cl89415   4.173   9.746   2.855  0.2022  0.1153  0.4777
  663MOL0     C89416   3.067   9.342   2.690 -0.6531 -1.0089 -0.9380
  663MOL0     C89417   2.952   9.366   2.609 -0.2729  1.4145  0.5028
  663MOL0     O89418   2.836   9.102   2.410 -0.1631 -0.5437  0.8512
  663MOL0     C89419   2.575   9.322   2.297 -0.3827 -0.0842 -0.1331
  663MOL0     C89420   2.437   9.320   2.255  0.1317  0.6578 -0.4642
  663MOL0     N89421   1.758   9.128   1.818 -0.8786  0.0075  0.7981
  663MOL0     N89422   1.729   9.030   1.737 -0.2619  0.1694 -0.1568
  663MOL0     C89423   2.377   8.312   1.034  0.0538  0.0310  0.3518
  663MOL0     C89424   2.439   8.256   0.926 -0.6849  0.6389 -0.1006
  663MOL0     C89425   2.782   8.124   0.622  0.1558  0.0458 -0.5305
  663MOL0     C89426   2.673   8.050   0.563 -0.1017  0.1663  0.0618
  663MOL0     C89427   2.696   7.992   0.438  0.6871  0.3449 -0.0774
  663MOL0     C89428   2.816   8.002   0.365 -0.6853  0.2003  0.4508
  663MOL0     O89429   2.836   7.934   0.249  0.5313  0.2681 -0.1288
  663MOL0     C89430   2.910   7.994   0.145 -0.0079  0.3423  0.4228
  663MOL0     C89431   2.864   7.937   0.005  0.2445 -0.1301  0.9978
  663MOL0     C89432   2.970   7.975  -0.106 -0.7807 -0.5722  0.8941
  663MOL0     C89433   2.939   7.933  -0.249 -0.5708  0.0084 -0.2793
  663MOL0     C89434   2.944   7.786  -0.266 -0.8603  1.0566  0.2718
  663MOL0     C89435   2.954   7.666  -0.292 -0.0308 -0.4383 -0.7420
  663MOL0     C89436   2.917   8.076   0.424 -0.4263  0.4143  0.1049
  663MOL0     C89437   2.904   8.131   0.548 -0.1311 -0.1090 -0.0317
  663MOL0     H89438   2.765   8.367   0.989  0.4739  3.9043  1.9115
  663MOL0     H89439   2.645   8.445   1.190 -0.9333  2.3041 -0.2103
  663MOL0     H89440   2.190   8.441   1.210  2.5929  1.9247 -2.4389
  663MOL0     H89441   2.249   8.276   1.260 -0.9339 -0.0909  2.9281
  663MOL0     H89442   2.115   8.375   1.439 -0.8702  3.6826  2.2581
  663MOL0     H89443   2.279   8.379   1.494 -0.8687 -0.7010  0.8497
  663MOL0     H89444   2.290   8.614   1.444  0.9356 -1.6641  0.8799
  663MOL0     H89445   2.141   8.617   1.342 -0.4391  1.4427  0.6586
  663MOL0     H89446   2.026   8.545   1.579 -2.0331  1.8681  0.3634
  663MOL0     H89447   2.188   8.574   1.641  0.6203 -1.0734 -0.1470
  663MOL0     H89448   2.172   8.813   1.567  0.6025 -1.5675  0.6468
  663MOL0     H89449   2.034   8.781   1.472  1.1941 -1.8355 -1.4327
  663MOL0     H89450   2.015   8.716   1.777  0.1088  0.4112  0.8581
  663MOL0     H89451   2.009   8.882   1.722  0.6144 -0.5049 -0.8196
  663MOL0     H89452   1.829   8.809   1.561 -0.8530  1.5710 -0.4001
  663MOL0     H89453   1.846   8.642   1.616  2.9404 -0.0523  2.1509
  663MOL0     H89454   1.736   8.724   1.845 -4.1339 -0.8515 -0.4221
  663MOL0     H89455   1.645   8.772   1.697 -0.3520 -1.9819  0.4041
  663MOL0     H89456   1.848   8.875   1.999 -0.5253  0.6066  2.7797
  663MOL0     H89457   1.858   9.264   2.008  0.4873  1.2432  0.8030
  663MOL0     H89458   1.744   9.177   2.097 -0.6205  0.3866 -1.2676
  663MOL0     H89459   2.031   9.059   2.089 -1.3186 -2.4508  0.5991
  663MOL0     H89460   1.910   9.054   2.223 -0.4419  1.3248 -0.0354
  663MOL0     H89461   1.952   9.249   2.309  0.9655 -0.0656  0.9475
  663MOL0     H89462   2.013   9.319   2.159  3.0695 -0.1475  0.3270
  663MOL0     H89463   2.138   9.099   2.323 -1.2116  1.2273  1.6378
  663MOL0     H89464   2.176   9.273   2.342  0.5173 -0.9628 -0.3488
  663MOL0     H89465   2.411   8.998   2.174 -3.0305  0.4203  1.7550
  663MOL0     H89466   2.591   8.889   2.203 -3.3844  1.2267  0.2022
  663MOL0     H89467   2.760   8.964   2.205  1.4977 -0.3388  2.8068
  663MOL0     H89468   2.678   8.914   2.350 -1.2219 -1.0953 -0.8287
  663MOL0     H89469   3.078   9.273   2.306 -1.0122 -3.5434  0.6405
  663MOL0     H89470   3.284   9.261   2.438 -0.4017 -1.0365 -1.0288
  663MOL0     H89471   3.232   9.247   2.881 -2.3167  1.4657 -0.7612
  663MOL0     H89472   3.412   9.263   2.862  1.0544 -0.0533 -2.2433
  663MOL0     H89473   3.235   9.507   2.838  2.0857  0.8567 -2.4501
  663MOL0     H89474   3.324   9.455   2.980  0.0925 -2.5426 -0.2306
  663MOL0     H89475   3.435   9.616   2.771  1.7294  0.2692  0.3338
  663MOL0     H89476   3.484   9.460   2.724  1.7764  0.1078  0.3808
  663MOL0     H89477   3.544   9.628   2.975 -1.0365 -0.1324 -1.1426
  663MOL0     H89478   3.548   9.455   2.999  3.0947 -0.8457  0.5133
  663MOL0     H89479   3.696   9.549   2.762 -0.3202  2.5402  0.7919
  663MOL0     H89480   3.737   9.424   2.881 -1.2819 -1.4524  0.2093
  663MOL0     H89481   3.763   9.723   2.942  5.6672  2.5768 -1.1462
  663MOL0     H89482   3.832   9.583   3.029 -1.1633 -0.2053  0.3041
  663MOL0     H89483   3.907   9.659   2.748  2.4542  0.0593 -1.0205
  663MOL0     H89484   3.984   9.551   2.854  0.6645  0.2798 -0.8133
  663MOL0     H89485   4.032   9.732   3.033  2.8561 -0.9875  0.8010
  663MOL0     H89486   3.965   9.846   2.907  1.2638  0.6862  0.2917
  663MOL0     H89487   3.057   9.354   2.797 -0.5809  2.3511 -1.2077
  663MOL0     H89488   2.860   9.387   2.663 -0.9268 -2.1208  1.0128
  663MOL0     H89489   2.624   9.414   2.327  0.0600 -0.4760  0.3593
  663MOL0     H89490   2.366   9.403   2.256 -1.2608 -0.4164  2.5193
  663MOL0     H89491   2.269   8.312   1.039 -0.0142  1.8986 -0.5096
  663MOL0     H89492   2.378   8.197   0.858 -0.1500 -0.9264  0.7519
  663MOL0     H89493   2.581   8.039   0.620 -2.7297  4.9845 -2.5570
  663MOL0     H89494   2.613   7.931   0.403 -0.1342  0.6057  1.3133
  663MOL0     H89495   2.910   8.102   0.160 -2.8721  0.1604  2.8178
  663MOL0     H89496   3.006   7.945   0.163  0.1789  1.0092  1.2849
  663MOL0     H89497   2.766   7.976  -0.024 -0.1414 -1.2034  0.8065
  663MOL0     H89498   2.857   7.828   0.009  0.7969 -0.1238  2.5642
  663MOL0     H89499   3.054   7.917  -0.068 -0.5228 -0.7841  0.0188
  663MOL0     H89500   2.999   8.080  -0.095  1.3780 -1.2723  2.5477
  663MOL0     H89501   3.010   7.974  -0.321 -1.1714  3.3990  0.8698
  663MOL0     H89502   2.838   7.972  -0.263 -0.8869 -0.1063  1.4782
  663MOL0     H89503   2.964   7.562  -0.313 -1.3428 -0.7626  0.1263
  663MOL0     H89504   3.014   8.085   0.375  0.9114  2.2149  2.8376
  663MOL0     H89505   2.982   8.191   0.592 -0.4428  1.7323 -1.8217
  664MOL0     O89506   3.078   1.809   1.833  0.2263 -0.0242  0.0224
  664MOL0     C89507   3.173   1.825   1.760  0.0472  0.3394 -0.2840
  664MOL0     O89508   3.170   1.898   1.645  0.4712 -0.3222 -0.7818
  664MOL0     C89509   3.053   1.953   1.601  0.1832 -0.1148  0.2400
  664MOL0     C89510   2.922   1.921   1.638 -0.1652  0.4162  1.2795
  664MOL0     C89511   2.817   1.989   1.599  0.2563 -0.0858 -0.1058
  664MOL0     C89512   2.835   2.092   1.507  0.7201  0.9234 -0.4215
  664MOL0     O89513   2.728   2.175   1.471  0.0244 -0.1810  1.0288
  664MOL0     C89514   2.652   2.230   1.578  0.8178  0.5713  0.3616
  664MOL0     C89515   2.593   2.356   1.534  1.1395  0.0677  1.0686
  664MOL0     C89516   2.514   2.354   1.396  0.0799 -0.7901  0.1754
  664MOL0     C89517   2.374   2.297   1.399 -0.2445 -0.7280 -0.1509
  664MOL0     C89518   2.320   2.300   1.247  0.5120  0.4749 -0.1297
  664MOL0     C89519   2.316   2.447   1.192 -0.9757  0.0228 -0.7714
  664MOL0     C89520   2.243   2.451   1.055  0.4869  0.5436  0.1895
  664MOL0     C89521   2.089   2.434   1.056 -0.9314 -0.2715 -0.0560
  664MOL0     N89522   2.028   2.398   0.926  0.2541 -0.1757  0.0371
  664MOL0     C89523   1.895   2.365   0.900  0.0852 -0.6207 -0.7230
  664MOL0     C89524   1.887   2.339   0.765  0.7385  0.5908  0.0559
  664MOL0     C89525   1.759   2.342   0.679  0.3387 -0.5362 -0.5032
  664MOL0     C89526   1.691   2.489   0.681  0.6329 -0.3420 -0.0544
  664MOL0     C89527   1.703   2.565   0.547 -0.5368  0.6129 -0.6707
  664MOL0     C89528   1.680   2.715   0.567  0.2146 -0.7513 -0.8555
  664MOL0     O89529   1.533   2.733   0.586 -0.3386  0.6553  0.4068
  664MOL0     C89530   1.490   2.856   0.548  0.4227  0.1755 -1.3100
  664MOL0     C89531   1.374   2.868   0.470 -0.1165  0.1001 -0.3000
  664MOL0     C89532   1.327   2.982   0.412 -1.0141  0.6752 -0.2703
  664MOL0     C89533   1.206   2.968   0.332 -0.8106  0.4300  0.4513
  664MOL0     C89534   1.395   3.099   0.436 -0.9858 -0.7563  0.3486
  664MOL0     C89535   1.362   3.233   0.384  0.9028 -0.4268  0.1489
  664MOL0     O89536   1.340   3.251   0.253 -0.2511  0.5028 -0.1392
  664MOL0     C89537   1.273   3.366   0.224 -0.6093 -1.2384  0.2647
  664MOL0     C89538   1.343   3.469   0.160 -0.1699 -0.3800 -0.2955
  664MOL0     C89539   1.286   3.603   0.144  0.7792  0.0146  0.6590
  664MOL0     C89540   1.154   3.619   0.189  0.9117 -1.8253 -0.0011
  664MOL0     O89541   1.094   3.741   0.191  0.1257  0.1170 -0.0694
  664MOL0     C89542   1.102   3.834   0.079  0.1764  0.7251 -0.4777
  664MOL0     C89543   0.972   3.920   0.049 -0.1203  0.4639  0.5085
  664MOL0     C89544   0.841   3.837   0.063 -0.0420 -0.0268 -0.6106
  664MOL0     C89545   0.720   3.926   0.069  0.5318 -0.8647  0.6244
  664MOL0     C89546   0.588   3.838   0.065 -0.4657  0.3943 -1.1867
  664MOL0     C89547   0.472   3.928   0.047 -0.0162  0.0450 -0.1677
  664MOL0     C89548   0.344   3.854   0.041  0.1080  0.3395  0.0126
  664MOL0     C89549   0.201   3.924   0.041 -0.7969 -0.1383  0.6777
  664MOL0    Cl89550   0.147   4.011  -0.124 -0.1803 -0.1971  0.4609
  664MOL0     C89551   1.084   3.514   0.247 -0.1399  0.8558 -0.9465
  664MOL0     C89552   1.142   3.388   0.255 -0.0289  0.1704 -0.5792
  664MOL0     O89553   1.339   3.319   0.467 -0.9050 -0.0577 -0.3156
  664MOL0     C89554   1.509   3.096   0.523  0.4287 -0.7728  0.2840
  664MOL0     C89555   1.555   2.976   0.581  0.6972  0.4577 -0.9004
  664MOL0     N89556   2.014   2.347   0.711  0.2076 -0.3150  0.0429
  664MOL0     N89557   2.095   2.376   0.806  0.6160  0.6901  0.3028
  664MOL0     C89558   2.955   2.124   1.456 -1.0309  0.8996 -0.3375
  664MOL0     C89559   3.072   2.056   1.508  0.2542  1.1337  0.7628
  664MOL0     C89560   3.304   1.768   1.789  0.2376  0.2492 -0.5936
  664MOL0     C89561   3.350   1.756   1.922  0.5590 -0.5591  0.0319
  664MOL0     C89562   3.479   1.702   1.956  0.4499  0.8591  0.0061
  664MOL0     C89563   3.563   1.657   1.849 -0.3601 -1.1364 -0.3424
  664MOL0     O89564   3.689   1.613   1.867  0.8032  0.4131 -0.7431
  664MOL0     C89565   3.723   1.531   1.977 -0.0436 -0.1611 -0.6100
  664MOL0     C89566   3.809   1.599   2.080 -0.2369  0.2494 -0.1936
  664MOL0     C89567   3.917   1.697   2.025 -0.4831  0.3012  0.3803
  664MOL0     C89568   4.012   1.635   1.923  1.0554  0.0900 -0.2816
  664MOL0     C89569   4.120   1.728   1.895 -0.1916  0.3156 -0.2129
  664MOL0     C89570   4.207   1.805   1.862  0.3224 -0.2672 -0.3817
  664MOL0     C89571   3.517   1.670   1.719  0.3410  0.4167  0.0056
  664MOL0     C89572   3.390   1.729   1.690  0.7752  0.5933 -0.3608
  664MOL0     H89573   2.894   1.832   1.693  1.6157 -0.8902  0.1950
  664MOL0     H89574   2.714   1.962   1.620  0.3715 -0.2058  0.3130
  664MOL0     H89575   2.569   2.164   1.602 -0.4524  1.3229 -1.7454
  664MOL0     H89576   2.707   2.250   1.671 -0.2699 -1.5291  1.5266
  664MOL0     H89577   2.523   2.381   1.614 -2.6842 -1.9898 -1.2900
  664MOL0     H89578   2.666   2.437   1.530 -0.3440  1.4294 -1.0776
  664MOL0     H89579   2.506   2.461   1.372  0.0251 -0.6182  0.9214
  664MOL0     H89580   2.578   2.319   1.315 -0.2543  2.8589 -1.8841
  664MOL0     H89581   2.379   2.195   1.438 -0.6593 -0.8926 -0.5148
  664MOL0     H89582   2.308   2.350   1.469  0.4856 -0.9034  0.6843
  664MOL0     H89583   2.375   2.223   1.193  0.8170  1.4309 -1.2234
  664MOL0     H89584   2.216   2.265   1.251  0.4971  0.2838 -1.5501
  664MOL0     H89585   2.282   2.516   1.270 -0.8791  0.1270 -0.8209
  664MOL0     H89586   2.413   2.488   1.160 -0.6272 -1.5647 -1.8447
  664MOL0     H89587   2.248   2.550   1.009 -1.0379  0.4987 -0.1047
  664MOL0     H89588   2.293   2.380   0.988 -0.3733  0.8453 -0.7843
  664MOL0     H89589   2.053   2.529   1.095 -3.6045 -0.2905 -2.1706
  664MOL0     H89590   2.057   2.359   1.129 -0.0447  1.3149  2.0723
  664MOL0     H89591   1.818   2.376   0.975  2.3487 -2.3068  2.0439
  664MOL0     H89592   1.779   2.314   0.575 -1.3137  2.0300 -1.6098
  664MOL0     H89593   1.693   2.261   0.712  2.7716 -1.9699  1.2088
  664MOL0     H89594   1.746   2.553   0.751 -0.3185  0.7500 -0.2762
  664MOL0     H89595   1.586   2.470   0.705 -0.0654 -0.7289 -3.0544
  664MOL0     H89596   1.636   2.522   0.472  1.2524  2.1050 -3.2831
  664MOL0     H89597   1.807   2.554   0.514  0.4427  1.6790  1.8219
  664MOL0     H89598   1.706   2.770   0.476 -1.0406  0.6965 -0.3945
  664MOL0     H89599   1.743   2.759   0.645 -2.6983 -1.2391  2.0013
  664MOL0     H89600   1.314   2.779   0.454 -1.0269  0.7617 -0.5821
  664MOL0     H89601   1.147   2.882   0.365 -0.6650  0.8254  1.8411
  664MOL0     H89602   1.137   3.053   0.341 -1.2116  0.2962 -1.1408
  664MOL0     H89603   1.237   2.941   0.231 -0.1926  0.8824  0.5139
  664MOL0     H89604   1.447   3.455   0.132 -0.4092  0.1406 -1.4688
  664MOL0     H89605   1.337   3.679   0.087 -1.5412  0.5830 -0.8084
  664MOL0     H89606   1.190   3.896   0.097  1.8850 -1.5310 -0.6531
  664MOL0     H89607   1.131   3.770  -0.005 -0.6964 -1.4319  0.7717
  664MOL0     H89608   0.967   4.008   0.114  1.0428 -0.0173  1.2819
  664MOL0     H89609   0.986   3.958  -0.052 -1.0473  1.9412  0.9068
  664MOL0     H89610   0.854   3.783   0.157  2.1240 -2.2712 -2.0714
  664MOL0     H89611   0.831   3.767  -0.020 -0.5906  1.4554 -1.8545
  664MOL0     H89612   0.723   3.996   0.153 -3.1548 -0.5496  0.6580
  664MOL0     H89613   0.719   3.978  -0.027 -1.4365 -3.2328 -0.7581
  664MOL0     H89614   0.587   3.782   0.159 -1.4167  0.4960 -1.1197
  664MOL0     H89615   0.587   3.763  -0.015 -2.1294 -0.2221 -0.6382
  664MOL0     H89616   0.478   4.006   0.124 -3.7303  1.0971 -0.7415
  664MOL0     H89617   0.485   3.985  -0.045  0.3255 -0.2444 -0.2986
  664MOL0     H89618   0.335   3.800   0.136 -2.0510 -1.7594 -1.2535
  664MOL0     H89619   0.354   3.779  -0.039 -2.8216 -2.0751  1.6737
  664MOL0     H89620   0.189   3.989   0.128 -4.0974  0.6084 -0.2152
  664MOL0     H89621   0.123   3.849   0.050 -0.2984 -1.1102 -1.9764
  664MOL0     H89622   0.986   3.526   0.292 -0.4603 -2.7147 -0.4550
  664MOL0     H89623   1.068   3.312   0.278 -0.2872  0.0265 -1.8049
  664MOL0     H89624   1.569   3.183   0.544 -0.8937  0.2596 -0.0815
  664MOL0     H89625   1.652   2.978   0.629 -0.1979 -0.2138  1.0318
  664MOL0     H89626   2.982   2.208   1.392 -2.1344 -1.4202 -4.1587
  664MOL0     H89627   3.176   2.069   1.477  1.4812 -4.2006  1.6368
  664MOL0     H89628   3.293   1.797   2.004 -0.5176 -0.4727 -0.7339
  664MOL0     H89629   3.513   1.707   2.059  0.3920 -0.2108  0.0925
  664MOL0     H89630   3.633   1.478   2.010 -0.6107  2.0438  1.7151
  664MOL0     H89631   3.793   1.455   1.940  0.0395  0.3744 -1.5640
  664MOL0     H89632   3.863   1.533   2.149 -0.9417  0.2599  0.3922
  664MOL0     H89633   3.736   1.657   2.138 -0.3982  0.5253 -0.6733
  664MOL0     H89634   3.980   1.729   2.109  1.9487 -2.7022 -0.1479
  664MOL0     H89635   3.877   1.790   1.984 -3.9619  0.5442  3.7554
  664MOL0     H89636   3.950   1.625   1.833 -0.9958 -0.7537  1.1385
  664MOL0     H89637   4.037   1.533   1.954 -0.3899  0.4106  2.2666
  664MOL0     H89638   4.281   1.875   1.828  2.4011 -1.4577  1.3841
  664MOL0     H89639   3.584   1.673   1.634 -0.6186 -1.3327 -0.8750
  664MOL0     H89640   3.366   1.745   1.585 -1.6175 -0.5753 -0.0712
  665MOL0     O89641   8.152   7.607   0.950  1.1206  0.5237  0.6310
  665MOL0     C89642   8.262   7.634   0.987 -0.2197  0.5435 -0.6765
  665MOL0     O89643   8.342   7.546   1.061  0.2095  0.4216 -0.6600
  665MOL0     C89644   8.301   7.422   1.085  0.1392  0.8313 -0.2009
  665MOL0     C89645   8.178   7.351   1.068  0.4226  1.1417  0.9979
  665MOL0     C89646   8.158   7.220   1.104 -0.3979  0.2111  0.5208
  665MOL0     C89647   8.250   7.141   1.172 -0.1843  0.7461 -0.1008
  665MOL0     O89648   8.235   7.014   1.225  0.1779 -0.1617  0.6344
  665MOL0     C89649   8.119   6.929   1.199 -0.0485  0.4491  0.3967
  665MOL0     C89650   8.161   6.784   1.219 -0.4996  0.1922 -0.2313
  665MOL0     C89651   8.273   6.760   1.117 -0.5280  0.7411  0.2569
  665MOL0     C89652   8.333   6.617   1.125  0.0762 -0.1493  0.3763
  665MOL0     C89653   8.445   6.592   1.029 -0.1526  0.6358  0.7028
  665MOL0     C89654   8.419   6.613   0.877  0.0271  0.5259  0.2038
  665MOL0     C89655   8.524   6.540   0.797  0.9569 -0.0639  0.0996
  665MOL0     C89656   8.660   6.613   0.791 -0.4619 -1.2273  0.1329
  665MOL0     N89657   8.764   6.519   0.746 -0.3264  0.3981  0.5318
  665MOL0     C89658   8.829   6.539   0.628 -0.1667  0.0319 -0.1673
  665MOL0     C89659   8.938   6.457   0.642 -0.0143  0.2216 -0.6460
  665MOL0     C89660   9.034   6.468   0.524 -1.6028 -0.0346  0.4204
  665MOL0     C89661   9.121   6.608   0.523  0.0847 -0.0813  0.8082
  665MOL0     C89662   9.244   6.628   0.443  1.3249 -0.8869 -0.7431
  665MOL0     C89663   9.254   6.575   0.302 -0.3822  0.3287  0.0339
  665MOL0     O89664   9.286   6.431   0.308 -0.2201 -0.4784  0.1798
  665MOL0     C89665   9.416   6.383   0.302  0.8029  0.1473 -0.6296
  665MOL0     C89666   9.534   6.464   0.304 -0.0624 -0.4017 -0.3317
  665MOL0     C89667   9.657   6.403   0.285 -1.1441  0.7608  0.8057
  665MOL0     C89668   9.784   6.485   0.270 -0.4712 -0.2336  0.2625
  665MOL0     C89669   9.661   6.263   0.263 -0.1459  0.6717 -0.9888
  665MOL0     C89670   9.783   6.190   0.232 -0.3739  0.7289 -0.7493
  665MOL0     O89671   9.824   6.094   0.319 -0.4369 -0.7363  0.1280
  665MOL0     C89672   9.957   6.057   0.309 -0.4535 -0.7683  0.3760
  665MOL0     C89673  10.052   6.159   0.357  2.1249  0.2721 -0.0834
  665MOL0     C89674  10.181   6.111   0.381  0.3684  0.6745 -1.3464
  665MOL0     C89675  10.228   5.982   0.351  0.6612  0.2352  1.1007
  665MOL0     O89676  10.351   5.924   0.362 -0.1865  0.1652  1.2136
  665MOL0     C89677  10.441   5.989   0.445 -0.2987  0.5448  0.4173
  665MOL0     C89678  10.578   5.918   0.453  0.1479  0.2725  0.3121
  665MOL0     C89679  10.573   5.768   0.496  0.1571  0.7791  0.6018
  665MOL0     C89680  10.606   5.733   0.643 -0.4000 -0.3188 -0.9653
  665MOL0     C89681  10.627   5.580   0.677 -0.0942  0.0967  1.2482
  665MOL0     C89682  10.666   5.555   0.821 -0.3397 -0.5069  0.2536
  665MOL0     C89683  10.658   5.408   0.839 -0.4849  0.0035 -0.4443
  665MOL0     C89684  10.711   5.373   0.987 -0.6711  0.2969 -0.0447
  665MOL0    Cl89685  10.728   5.189   1.012  0.2670 -0.0927 -0.2437
  665MOL0     C89686  10.134   5.896   0.292 -0.8384  0.5614  0.5714
  665MOL0     C89687  10.001   5.929   0.266  0.4637 -0.0678 -0.0565
  665MOL0     O89688   9.837   6.216   0.127  0.4423  0.3628 -0.2085
  665MOL0     C89689   9.547   6.192   0.271  0.3599  0.6206 -0.4900
  665MOL0     C89690   9.420   6.253   0.286 -0.6181  0.3405  0.4060
  665MOL0     N89691   8.941   6.403   0.767  0.5476  1.0350  0.6880
  665MOL0     N89692   8.828   6.428   0.821 -0.5741  0.6084 -0.5530
  665MOL0     C89693   8.364   7.208   1.205  0.2228  0.5431 -0.2371
  665MOL0     C89694   8.390   7.348   1.167  0.1428 -0.4826 -0.5296
  665MOL0     C89695   8.322   7.767   0.959 -0.2748 -0.6199  0.7720
  665MOL0     C89696   8.241   7.871   0.921  0.1768  0.1462  0.2359
  665MOL0     C89697   8.294   7.995   0.897  0.6033  0.2894  0.8566
  665MOL0     C89698   8.437   8.016   0.904 -0.1941 -0.3230  0.1966
  665MOL0     O89699   8.499   8.136   0.874 -0.5919 -0.1640  0.1609
  665MOL0     C89700   8.423   8.218   0.788  0.4620  0.0981 -0.0362
  665MOL0     C89701   8.542   8.276   0.708 -0.0875  0.2656 -0.1970
  665MOL0     C89702   8.484   8.363   0.589 -0.0735 -0.3247 -0.5299
  665MOL0     C89703   8.444   8.501   0.642 -0.8687 -0.2177 -0.0724
  665MOL0     C89704   8.362   8.558   0.542 -0.9520 -0.5965 -0.0849
  665MOL0     C89705   8.296   8.611   0.459 -0.4237  0.2401 -0.4681
  665MOL0     C89706   8.515   7.905   0.943 -0.1127 -0.5308  0.7747
  665MOL0     C89707   8.457   7.778   0.971  0.1750 -0.5517 -0.1820
  665MOL0     H89708   8.102   7.394   1.004  2.6195  0.6134 -2.2254
  665MOL0     H89709   8.059   7.182   1.084 -0.5288  1.0087 -0.4361
  665MOL0     H89710   8.021   6.950   1.244 -0.9113  0.8068 -1.5662
  665MOL0     H89711   8.083   6.942   1.097 -0.9454 -0.2023  0.6141
  665MOL0     H89712   8.198   6.770   1.322 -0.9902 -2.8477 -0.3860
  665MOL0     H89713   8.080   6.713   1.198 -2.2643  2.2340 -0.6241
  665MOL0     H89714   8.222   6.752   1.020  1.4801  0.0018 -0.8141
  665MOL0     H89715   8.349   6.838   1.124 -2.7600  3.0522 -0.0499
  665MOL0     H89716   8.362   6.608   1.230  0.4079  0.5361  0.3508
  665MOL0     H89717   8.259   6.539   1.107  0.2975  0.0112 -1.3981
  665MOL0     H89718   8.537   6.644   1.055  1.1315 -0.7184 -0.9057
  665MOL0     H89719   8.477   6.487   1.035  0.1170  0.5792 -1.2452
  665MOL0     H89720   8.323   6.566   0.856  0.8184 -1.3576  0.6275
  665MOL0     H89721   8.406   6.715   0.837 -2.2763  0.3021  0.2952
  665MOL0     H89722   8.539   6.443   0.846  0.8079  0.8589  2.0891
  665MOL0     H89723   8.491   6.532   0.693 -1.7211  1.6000  0.7415
  665MOL0     H89724   8.689   6.659   0.886 -2.2521 -0.7985  0.4990
  665MOL0     H89725   8.654   6.697   0.721  1.4758 -1.1635 -0.0067
  665MOL0     H89726   8.808   6.603   0.543  1.7806 -1.4295 -1.8524
  665MOL0     H89727   9.108   6.389   0.509  0.4825  2.2647 -2.8607
  665MOL0     H89728   8.965   6.474   0.440 -1.9124  0.9115  0.7292
  665MOL0     H89729   9.167   6.629   0.620  2.9415 -1.2690 -0.1940
  665MOL0     H89730   9.048   6.685   0.494 -0.3299  0.1145  2.2664
  665MOL0     H89731   9.321   6.575   0.500  0.0050 -2.1750 -0.1181
  665MOL0     H89732   9.260   6.736   0.439 -3.0439  0.0124  1.2674
  665MOL0     H89733   9.337   6.625   0.250 -0.9935  1.3912  0.0433
  665MOL0     H89734   9.164   6.599   0.244 -1.6259 -2.1366  0.7866
  665MOL0     H89735   9.528   6.571   0.323  1.0482 -0.8618  3.3979
  665MOL0     H89736   9.805   6.501   0.164 -0.3037  0.1694  0.3553
  665MOL0     H89737   9.764   6.576   0.327 -3.0386 -0.6344  0.1205
  665MOL0     H89738   9.865   6.436   0.325  0.6853  2.2545  0.8957
  665MOL0     H89739  10.018   6.258   0.382 -0.1826 -0.4668 -0.0889
  665MOL0     H89740  10.251   6.178   0.431  1.1426 -2.1755  1.8096
  665MOL0     H89741  10.463   6.086   0.402  1.2233  0.6735  1.3890
  665MOL0     H89742  10.405   6.003   0.548 -0.5470 -2.3057  0.8050
  665MOL0     H89743  10.625   5.930   0.355  2.0658 -0.8772  1.0365
  665MOL0     H89744  10.635   5.972   0.529 -2.6931  3.1082  0.6804
  665MOL0     H89745  10.654   5.718   0.441 -0.3905  2.8232 -2.2818
  665MOL0     H89746  10.477   5.720   0.477 -0.0002  0.7307  1.4445
  665MOL0     H89747  10.689   5.797   0.675  1.3066 -1.3650 -3.0424
  665MOL0     H89748  10.528   5.772   0.709  0.8323 -1.7885  1.5106
  665MOL0     H89749  10.699   5.541   0.605 -1.8853 -1.1106  0.0400
  665MOL0     H89750  10.528   5.537   0.657  0.2921  0.2973 -1.3545
  665MOL0     H89751  10.767   5.592   0.840 -0.8388  2.1226 -1.6174
  665MOL0     H89752  10.595   5.601   0.890 -1.0329 -2.0078  0.5779
  665MOL0     H89753  10.713   5.354   0.761 -0.1302 -1.5348  0.8198
  665MOL0     H89754  10.553   5.379   0.830 -0.8951  1.0771  0.6171
  665MOL0     H89755  10.649   5.420   1.063 -1.0204  1.8063 -1.2064
  665MOL0     H89756  10.809   5.420   0.999 -0.3066  0.4196 -2.7476
  665MOL0     H89757  10.179   5.800   0.266 -1.3744  0.5142 -0.2309
  665MOL0     H89758   9.923   5.867   0.222  0.6801 -1.6092  1.5898
  665MOL0     H89759   9.545   6.084   0.264 -1.4148  0.3154  2.8854
  665MOL0     H89760   9.339   6.183   0.301  1.5102 -2.0792  1.4958
  665MOL0     H89761   8.431   7.155   1.272  0.8671 -0.6461 -1.7521
  665MOL0     H89762   8.488   7.371   1.207 -0.3116 -2.5440  2.0159
  665MOL0     H89763   8.136   7.853   0.900  0.3492 -0.7020  0.0371
  665MOL0     H89764   8.225   8.076   0.874 -1.7805 -1.3258  1.9320
  665MOL0     H89765   8.375   8.162   0.707  3.4201  2.7015 -4.0294
  665MOL0     H89766   8.356   8.287   0.839 -0.2169 -0.6889  0.1528
  665MOL0     H89767   8.608   8.196   0.674 -1.8264 -0.5602 -1.7863
  665MOL0     H89768   8.601   8.341   0.773 -1.6113 -1.9968  3.8205
  665MOL0     H89769   8.403   8.302   0.549  0.2028 -1.9886  1.2737
  665MOL0     H89770   8.560   8.379   0.512  2.2961 -1.6248  1.4027
  665MOL0     H89771   8.535   8.562   0.647  0.6663 -2.4632  2.1919
  665MOL0     H89772   8.392   8.501   0.738  0.8642  0.9936  0.9188
  665MOL0     H89773   8.218   8.664   0.409 -0.2508  3.7116  2.6066
  665MOL0     H89774   8.621   7.909   0.967 -0.0811  0.2678  0.5544
  665MOL0     H89775   8.524   7.693   0.978  0.3574 -0.6204 -2.2430
  666MOL0     O89776   6.956   3.448   7.107 -0.0758 -0.6185 -0.1734
  666MOL0     C89777   6.970   3.353   7.177  0.0057  0.0543 -0.6199
  666MOL0     O89778   6.905   3.240   7.165  0.3897  0.8229 -0.0841
  666MOL0     C89779   6.807   3.220   7.066 -0.4355  0.7050  0.3856
  666MOL0     C89780   6.760   3.296   6.958 -0.6196 -0.0936  0.3825
  666MOL0     C89781   6.672   3.249   6.865  0.4795  0.4715  0.1352
  666MOL0     C89782   6.643   3.109   6.866  0.1232 -0.8449 -0.2603
  666MOL0     O89783   6.557   3.069   6.765  0.0034  0.4287  0.5675
  666MOL0     C89784   6.574   2.947   6.704  0.0629 -0.7187  1.1392
  666MOL0     C89785   6.455   2.907   6.615 -1.0589  0.6082  0.1429
  666MOL0     C89786   6.332   2.870   6.697  0.2971 -0.2261 -0.1260
  666MOL0     C89787   6.214   2.810   6.615 -0.2274  0.5653  0.6011
  666MOL0     C89788   6.149   2.894   6.508 -0.3004  0.0074  0.3087
  666MOL0     C89789   6.093   3.035   6.542  0.2777 -1.1007  0.3104
  666MOL0     C89790   5.991   3.023   6.658 -0.1540 -0.8953  0.4541
  666MOL0     C89791   5.933   3.167   6.694 -0.8756 -0.2262  0.1828
  666MOL0     N89792   5.870   3.244   6.581 -0.2053 -0.3194 -0.6923
  666MOL0     C89793   5.744   3.235   6.532 -0.3046  0.1743 -0.9970
  666MOL0     C89794   5.708   3.355   6.480  0.4444 -0.8063  0.4050
  666MOL0     C89795   5.572   3.369   6.421 -1.0941  0.3445 -1.1598
  666MOL0     C89796   5.550   3.309   6.279  0.0621 -0.2830  0.2657
  666MOL0     C89797   5.665   3.351   6.183  0.6762  0.5218 -0.4835
  666MOL0     C89798   5.707   3.499   6.180 -0.3772  0.1813 -0.1262
  666MOL0     O89799   5.598   3.595   6.163  0.1284  0.7099  0.5903
  666MOL0     C89800   5.565   3.630   6.032 -0.9411 -0.2786 -0.3989
  666MOL0     C89801   5.601   3.564   5.912  0.6751  0.1634  1.2876
  666MOL0     C89802   5.578   3.615   5.781 -0.7939  0.3021  1.1116
  666MOL0     C89803   5.635   3.539   5.664  0.1015  0.2086 -0.3006
  666MOL0     C89804   5.495   3.730   5.769  0.0027 -0.7765 -0.4564
  666MOL0     C89805   5.445   3.786   5.640  0.1707 -0.3371  0.2808
  666MOL0     O89806   5.438   3.698   5.531 -0.2612 -0.0231  0.3484
  666MOL0     C89807   5.380   3.725   5.410 -0.3725  0.1594 -0.3035
  666MOL0     C89808   5.350   3.857   5.351 -1.3156 -0.2850  1.0844
  666MOL0     C89809   5.299   3.861   5.225 -0.2490 -0.4853 -0.0747
  666MOL0     C89810   5.266   3.746   5.155 -0.1361  0.3749 -0.2244
  666MOL0     O89811   5.210   3.743   5.032 -0.1494  0.6327 -0.1524
  666MOL0     C89812   5.148   3.860   4.976  0.0079  0.5717  0.8410
  666MOL0     C89813   5.175   3.862   4.814 -0.5740  0.6879  0.2548
  666MOL0     C89814   5.199   3.721   4.749  0.2091  0.5810 -0.3171
  666MOL0     C89815   5.231   3.738   4.604 -0.5476 -0.6182 -0.0316
  666MOL0     C89816   5.202   3.621   4.511 -0.1833  0.0785  0.5640
  666MOL0     C89817   5.276   3.485   4.543  1.2705 -0.3315  0.4365
  666MOL0     C89818   5.427   3.479   4.555 -0.7231 -0.3930 -0.3590
  666MOL0     C89819   5.468   3.370   4.641 -1.0431  1.3085 -0.4551
  666MOL0    Cl89820   5.432   3.412   4.812 -0.0902 -0.0819  0.6446
  666MOL0     C89821   5.297   3.622   5.217  0.0610  0.5435  0.5138
  666MOL0     C89822   5.356   3.610   5.341  0.2481  0.4901  0.4772
  666MOL0     O89823   5.408   3.904   5.629 -0.1935  0.8049  0.1485
  666MOL0     C89824   5.441   3.797   5.886  0.1881  0.6078 -0.0204
  666MOL0     C89825   5.478   3.747   6.014  1.5383 -0.1006  0.4495
  666MOL0     N89826   5.813   3.438   6.502 -0.9564  0.3134  0.0407
  666MOL0     N89827   5.903   3.377   6.572  0.4458 -0.2471 -0.5312
  666MOL0     C89828   6.689   3.026   6.966 -0.2598 -0.0851 -0.5114
  666MOL0     C89829   6.767   3.082   7.070  1.1027 -0.0857  1.1449
  666MOL0     C89830   7.076   3.350   7.273  1.0589 -0.3591  0.2496
  666MOL0     C89831   7.088   3.272   7.384 -0.1407 -0.0157 -0.4242
  666MOL0     C89832   7.191   3.276   7.476  0.0845  0.2268 -0.7343
  666MOL0     C89833   7.287   3.375   7.460 -0.6937 -0.1963  0.9437
  666MOL0     O89834   7.407   3.393   7.525  0.2054 -0.1792  0.6577
  666MOL0     C89835   7.452   3.290   7.615 -0.5611 -0.6625 -2.0141
  666MOL0     C89836   7.407   3.345   7.754 -0.8740  0.3978  0.3404
  666MOL0     C89837   7.478   3.478   7.787  0.5714 -0.2703 -0.5871
  666MOL0     C89838   7.619   3.473   7.810 -0.4392 -0.0837 -0.4151
  666MOL0     C89839   7.661   3.387   7.925  0.4834 -0.1591 -0.5829
  666MOL0     C89840   7.688   3.330   8.025 -0.4169 -0.5709  0.3098
  666MOL0     C89841   7.266   3.464   7.361 -0.1948 -0.0447  0.4835
  666MOL0     C89842   7.163   3.455   7.269  0.0506  0.5697 -0.1348
  666MOL0     H89843   6.794   3.396   6.934 -0.0492 -0.5754 -0.9119
  666MOL0     H89844   6.630   3.313   6.788  0.8989  1.0849  0.4073
  666MOL0     H89845   6.655   2.966   6.633 -2.2035 -2.8432 -2.3084
  666MOL0     H89846   6.607   2.867   6.771 -0.9625 -1.3918  0.8616
  666MOL0     H89847   6.430   2.996   6.555 -3.3860  1.6288  2.4079
  666MOL0     H89848   6.467   2.818   6.554  0.2690  1.3099 -0.6738
  666MOL0     H89849   6.361   2.803   6.778 -0.1590 -0.6948 -0.3400
  666MOL0     H89850   6.284   2.961   6.734 -0.8547  0.1174 -2.2825
  666MOL0     H89851   6.232   2.718   6.559 -1.2903  0.4800  0.3779
  666MOL0     H89852   6.136   2.789   6.688 -1.0114  2.5117  0.3838
  666MOL0     H89853   6.222   2.901   6.427 -1.5366  4.3953 -0.6942
  666MOL0     H89854   6.067   2.838   6.463 -0.9246  0.8972  0.3022
  666MOL0     H89855   6.180   3.097   6.564 -1.0936  0.1374  2.6763
  666MOL0     H89856   6.042   3.078   6.456  1.7118  1.8925  0.8310
  666MOL0     H89857   5.907   2.963   6.622  2.1211 -4.5428  0.6781
  666MOL0     H89858   6.034   2.974   6.746 -0.2060  1.3445  1.8159
  666MOL0     H89859   6.020   3.220   6.734  0.7857 -2.2403 -0.6048
  666MOL0     H89860   5.852   3.160   6.767 -1.6354  0.0777 -0.6145
  666MOL0     H89861   5.684   3.145   6.529 -0.6272  0.2926  0.7657
  666MOL0     H89862   5.502   3.318   6.488  0.0693 -0.0609 -0.2253
  666MOL0     H89863   5.569   3.476   6.399 -0.0451  1.7481  4.1650
  666MOL0     H89864   5.453   3.343   6.241  1.2110  0.2500 -2.4030
  666MOL0     H89865   5.545   3.201   6.291  4.1282 -0.5219  1.0728
  666MOL0     H89866   5.623   3.309   6.090 -2.8994 -0.7832  1.5112
  666MOL0     H89867   5.750   3.289   6.212  1.8811  1.5133 -1.7868
  666MOL0     H89868   5.792   3.510   6.113 -0.4377  1.8466  0.0407
  666MOL0     H89869   5.752   3.520   6.277 -3.1858 -3.6335  2.3261
  666MOL0     H89870   5.655   3.471   5.922 -0.8805 -1.8187 -4.8049
  666MOL0     H89871   5.558   3.464   5.643 -1.2521 -0.0955  4.6109
  666MOL0     H89872   5.650   3.605   5.578  0.3099 -1.3718 -1.5203
  666MOL0     H89873   5.733   3.501   5.693  0.0203 -1.0718 -1.5803
  666MOL0     H89874   5.385   3.949   5.397  0.6573  0.0777 -0.9670
  666MOL0     H89875   5.295   3.965   5.192  4.0957  0.1559  0.8503
  666MOL0     H89876   5.040   3.867   4.995 -1.0148 -1.6471 -2.9371
  666MOL0     H89877   5.196   3.944   5.026  1.2937  0.4222 -0.1015
  666MOL0     H89878   5.093   3.910   4.760 -0.3980  0.5300 -0.1613
  666MOL0     H89879   5.268   3.917   4.799 -1.1044  1.5216 -0.0621
  666MOL0     H89880   5.111   3.656   4.738  0.3939  0.5366 -1.7992
  666MOL0     H89881   5.276   3.669   4.805  1.0196  1.2319 -0.8105
  666MOL0     H89882   5.170   3.822   4.572  0.0245 -0.1952 -0.0283
  666MOL0     H89883   5.334   3.775   4.598 -0.4420 -0.5320  1.6557
  666MOL0     H89884   5.228   3.644   4.407  4.9125  0.6498  1.6687
  666MOL0     H89885   5.093   3.610   4.515 -0.2283  0.8604  2.3201
  666MOL0     H89886   5.226   3.440   4.630  0.6075 -2.6481 -1.0408
  666MOL0     H89887   5.243   3.418   4.463  2.2482  0.4412 -0.6260
  666MOL0     H89888   5.467   3.573   4.592 -0.6367  0.1502 -1.7668
  666MOL0     H89889   5.447   3.456   4.450 -0.9202  2.2716 -1.0468
  666MOL0     H89890   5.576   3.351   4.633 -0.9185  2.4333 -1.7338
  666MOL0     H89891   5.415   3.278   4.616 -2.2547  0.2379  4.7953
  666MOL0     H89892   5.268   3.532   5.163 -2.4025  1.8470 -0.4571
  666MOL0     H89893   5.376   3.519   5.396  0.0110  2.6217  4.4750
  666MOL0     H89894   5.370   3.879   5.885  1.4208  1.8212  2.2577
  666MOL0     H89895   5.442   3.795   6.105  0.5731 -0.5004  0.2865
  666MOL0     H89896   6.677   2.919   6.975  2.2556 -0.5224 -1.4469
  666MOL0     H89897   6.800   3.024   7.155  0.3826 -0.4872  1.1548
  666MOL0     H89898   7.004   3.205   7.399  0.3301 -0.9044 -1.5732
  666MOL0     H89899   7.201   3.215   7.565 -0.0143  4.0028  2.1169
  666MOL0     H89900   7.408   3.193   7.589  0.2869 -2.1616  1.4953
  666MOL0     H89901   7.561   3.285   7.613 -0.5270  0.1342 -2.3256
  666MOL0     H89902   7.430   3.270   7.831 -0.9018 -1.9428 -1.7969
  666MOL0     H89903   7.298   3.342   7.746 -0.9095 -1.5550  0.9565
  666MOL0     H89904   7.427   3.513   7.878  1.0121 -1.0989 -0.0107
  666MOL0     H89905   7.455   3.555   7.712 -1.2517 -1.1896 -1.0337
  666MOL0     H89906   7.639   3.577   7.839 -1.2755 -0.9827  4.2714
  666MOL0     H89907   7.675   3.453   7.719 -1.4130  0.4666 -1.1526
  666MOL0     H89908   7.725   3.283   8.114  4.2809 -2.2799 -2.1843
  666MOL0     H89909   7.317   3.559   7.348 -1.6375  0.5950 -0.9429
  666MOL0     H89910   7.152   3.532   7.193  2.0426  1.6769  0.6173
  667MOL0     O89911   2.875   8.132   1.192  0.2678 -0.0200  0.5936
  667MOL0     C89912   2.977   8.163   1.128 -0.1708  1.0260  0.4479
  667MOL0     O89913   3.052   8.282   1.144  0.2553  0.7444  0.3942
  667MOL0     C89914   3.028   8.369   1.249  0.4143  0.0158 -0.4402
  667MOL0     C89915   2.979   8.332   1.378  1.2435 -0.3094 -0.0691
  667MOL0     C89916   2.958   8.423   1.481  1.1772  0.9015  0.6122
  667MOL0     C89917   3.000   8.553   1.453  0.4202 -0.2881 -0.4691
  667MOL0     O89918   2.984   8.650   1.547  1.2065 -0.2360  0.1863
  667MOL0     C89919   2.882   8.646   1.645  0.0395 -0.1206 -0.2176
  667MOL0     C89920   2.745   8.610   1.591 -0.3277 -0.5638  0.6695
  667MOL0     C89921   2.711   8.723   1.487  0.7994  0.1881 -0.0058
  667MOL0     C89922   2.557   8.744   1.467 -0.0109  0.9115 -1.0141
  667MOL0     C89923   2.548   8.875   1.395 -0.0297 -0.2822  0.5448
  667MOL0     C89924   2.392   8.897   1.360  0.0279  0.6405  1.1400
  667MOL0     C89925   2.379   8.828   1.229 -0.1521 -0.8269  0.6756
  667MOL0     C89926   2.244   8.870   1.173  0.4318  0.9580  0.8703
  667MOL0     N89927   2.221   8.795   1.049 -0.0720 -0.0486 -0.8504
  667MOL0     C89928   2.262   8.821   0.923  0.7182 -0.3272  0.6149
  667MOL0     C89929   2.214   8.721   0.852  1.0329  1.0116  0.4706
  667MOL0     C89930   2.246   8.678   0.704  0.1832 -0.0180  0.0355
  667MOL0     C89931   2.350   8.558   0.698  0.6751 -0.3379 -0.1370
  667MOL0     C89932   2.391   8.528   0.553  0.0824  0.6418 -0.7016
  667MOL0     C89933   2.494   8.410   0.528 -0.1761  0.2269  0.5459
  667MOL0     O89934   2.538   8.431   0.393 -0.1191 -0.9215  0.4924
  667MOL0     C89935   2.484   8.347   0.291  0.9212  0.4093  0.5515
  667MOL0     C89936   2.366   8.375   0.215 -0.2239 -0.4691  2.1031
  667MOL0     C89937   2.325   8.294   0.105  0.1618  0.4236  0.8068
  667MOL0     C89938   2.208   8.332   0.028  0.1468 -0.2433  0.0666
  667MOL0     C89939   2.399   8.175   0.068 -1.5042  0.5060 -0.8611
  667MOL0     C89940   2.382   8.073  -0.039  0.3491 -0.3021 -0.4463
  667MOL0     O89941   2.470   7.979  -0.054 -0.2842  0.0030  0.1181
  667MOL0     C89942   2.464   7.899  -0.164 -0.1113 -0.5600  0.6617
  667MOL0     C89943   2.468   7.961  -0.295  0.6379 -0.7649 -0.2802
  667MOL0     C89944   2.480   7.883  -0.411  0.4536  0.4703 -0.6352
  667MOL0     C89945   2.503   7.741  -0.405 -0.6435 -0.1659 -0.9903
  667MOL0     O89946   2.516   7.669  -0.525 -0.0869 -0.2690 -0.7877
  667MOL0     C89947   2.424   7.695  -0.632 -0.5381  0.2401 -0.0763
  667MOL0     C89948   2.451   7.609  -0.746 -0.2503 -0.0542 -0.2359
  667MOL0     C89949   2.451   7.451  -0.733  0.9979  0.5120  0.0857
  667MOL0     C89950   2.503   7.377  -0.855  0.1843 -0.6786  1.7176
  667MOL0     C89951   2.492   7.228  -0.849  0.6702  0.2329  0.2137
  667MOL0     C89952   2.571   7.156  -0.961 -0.1461 -0.2628  0.7030
  667MOL0     C89953   2.723   7.198  -0.978  0.1136  0.0446  0.6014
  667MOL0     C89954   2.805   7.107  -1.064  0.2041  0.5349  0.0863
  667MOL0    Cl89955   2.708   7.087  -1.214  0.3995 -0.2656  0.4862
  667MOL0     C89956   2.494   7.687  -0.276 -0.5632  0.1015 -0.0718
  667MOL0     C89957   2.487   7.766  -0.157  0.5684  0.4558 -0.2039
  667MOL0     O89958   2.273   8.072  -0.093  0.0281  0.0411  0.0039
  667MOL0     C89959   2.521   8.157   0.144 -0.3479 -0.6547  1.1637
  667MOL0     C89960   2.564   8.241   0.246 -0.0424  0.6760 -0.1262
  667MOL0     N89961   2.142   8.639   0.946 -0.7283 -0.0328  0.9900
  667MOL0     N89962   2.148   8.678   1.064  0.2389  0.1431  0.0434
  667MOL0     C89963   3.048   8.596   1.333 -0.6414  0.2385  0.1818
  667MOL0     C89964   3.065   8.500   1.226  0.2697  0.0496 -0.7567
  667MOL0     C89965   3.016   8.080   1.008  0.3197  0.1332  1.3276
  667MOL0     C89966   2.922   7.987   0.959 -0.2925  0.7220  1.2776
  667MOL0     C89967   2.939   7.920   0.840 -0.3303 -0.7553 -0.5941
  667MOL0     C89968   3.066   7.935   0.768 -0.8594  0.6670 -0.1211
  667MOL0     O89969   3.090   7.873   0.654 -0.9585 -0.0918 -0.4780
  667MOL0     C89970   2.992   7.779   0.587 -0.2748 -0.5972  1.1271
  667MOL0     C89971   3.049   7.755   0.445 -0.1727  0.2838 -0.4120
  667MOL0     C89972   2.950   7.664   0.377 -0.3139  0.2617 -0.1844
  667MOL0     C89973   2.983   7.632   0.237 -0.0687  0.5351  0.9501
  667MOL0     C89974   3.106   7.548   0.233 -0.5574  0.6596 -0.1001
  667MOL0     C89975   3.207   7.479   0.239 -0.7305 -0.0086 -0.1251
  667MOL0     C89976   3.163   8.020   0.824 -0.3706 -0.6352 -0.1354
  667MOL0     C89977   3.138   8.099   0.935  0.0888 -0.2963 -0.2656
  667MOL0     H89978   2.948   8.230   1.398  0.6850 -0.4867 -1.6743
  667MOL0     H89979   2.924   8.385   1.577  0.7259  3.3000  1.4812
  667MOL0     H89980   2.914   8.571   1.719 -2.8216 -1.3002 -0.0492
  667MOL0     H89981   2.869   8.735   1.708  0.0417 -2.4511  3.4191
  667MOL0     H89982   2.736   8.517   1.534  4.4789 -0.9492  0.1326
  667MOL0     H89983   2.673   8.600   1.673  1.7431  0.8523  2.8255
  667MOL0     H89984   2.763   8.818   1.507 -1.3046  0.8463  2.9224
  667MOL0     H89985   2.746   8.702   1.385  1.6075  2.3097 -0.2214
  667MOL0     H89986   2.514   8.662   1.408 -2.1302  0.6622  0.7255
  667MOL0     H89987   2.504   8.744   1.563  0.4760 -0.7611 -0.7143
  667MOL0     H89988   2.584   8.955   1.460 -0.4081  1.2920 -1.1030
  667MOL0     H89989   2.618   8.884   1.312 -1.5613  3.1749 -0.5632
  667MOL0     H89990   2.337   8.841   1.435 -0.9819  1.9598  1.4137
  667MOL0     H89991   2.362   9.002   1.365  1.4935  1.5394 -3.5239
  667MOL0     H89992   2.459   8.853   1.160 -1.5295  1.0279 -0.3217
  667MOL0     H89993   2.380   8.720   1.245 -0.0461 -0.8122  0.7721
  667MOL0     H89994   2.256   8.976   1.147  4.8160 -0.3553 -4.4561
  667MOL0     H89995   2.165   8.850   1.245  0.6203  1.9352  1.3630
  667MOL0     H89996   2.322   8.906   0.892 -0.2889  0.2004  0.0785
  667MOL0     H89997   2.156   8.656   0.646  0.3184  1.4277 -0.7789
  667MOL0     H89998   2.294   8.768   0.662  2.2491 -1.2762 -0.4268
  667MOL0     H89999   2.317   8.472   0.758 -1.4473 -0.3793 -1.2738
  667MOL0     H90000   2.438   8.605   0.743  1.8545 -1.8721 -0.7232
  667MOL0     H90001   2.428   8.618   0.503  0.4638  0.3480 -0.9583
  667MOL0     H90002   2.293   8.503   0.513 -1.8063  0.1794  3.6645
  667MOL0     H90003   2.454   8.309   0.544  1.4196 -0.2822  1.5155
  667MOL0     H90004   2.576   8.427   0.597 -0.2664  1.1574  0.4403
  667MOL0     H90005   2.310   8.465   0.237  2.4758  1.5391  1.2352
  667MOL0     H90006   2.240   8.349  -0.075  2.3330  2.5306  1.0796
  667MOL0     H90007   2.131   8.256   0.008  0.8637 -0.5188 -1.8155
  667MOL0     H90008   2.157   8.420   0.067 -0.6636  0.1134 -1.7037
  667MOL0     H90009   2.450   8.067  -0.304  1.8121 -0.5265  0.0431
  667MOL0     H90010   2.485   7.927  -0.510  0.6659 -3.8555 -2.7873
  667MOL0     H90011   2.322   7.670  -0.602  0.1125  0.9307  3.1100
  667MOL0     H90012   2.417   7.799  -0.664  1.5504  0.0057 -1.4426
  667MOL0     H90013   2.377   7.629  -0.824  2.1912  1.2073 -2.3931
  667MOL0     H90014   2.541   7.644  -0.798  0.7800 -0.7294  1.0361
  667MOL0     H90015   2.352   7.415  -0.704  0.9511  1.8380  1.6803
  667MOL0     H90016   2.521   7.425  -0.653 -1.6264  0.4416  2.4975
  667MOL0     H90017   2.444   7.396  -0.946 -0.9532  0.2457  2.6160
  667MOL0     H90018   2.603   7.413  -0.881 -0.1885  0.0497  1.2765
  667MOL0     H90019   2.388   7.194  -0.855  1.5252 -2.4162 -1.0205
  667MOL0     H90020   2.528   7.189  -0.754  1.0741  2.7106  1.1632
  667MOL0     H90021   2.567   7.049  -0.943 -0.7360  0.3184  5.2387
  667MOL0     H90022   2.517   7.194  -1.049 -0.4159 -1.6129  0.2737
  667MOL0     H90023   2.771   7.210  -0.881  0.8208  2.9576 -0.0142
  667MOL0     H90024   2.727   7.300  -1.015 -0.7217  0.2321  0.9980
  667MOL0     H90025   2.826   7.007  -1.025  1.5329  0.9575  0.5084
  667MOL0     H90026   2.900   7.153  -1.094  0.5979 -0.8329 -0.8935
  667MOL0     H90027   2.514   7.581  -0.263  1.3215  0.0228 -2.8647
  667MOL0     H90028   2.505   7.726  -0.058 -3.9632 -0.9731  0.2698
  667MOL0     H90029   2.582   8.071   0.119 -0.0406  0.1820 -1.2212
  667MOL0     H90030   2.666   8.224   0.281  0.1431  1.3263 -0.3317
  667MOL0     H90031   3.064   8.702   1.315 -0.8626 -0.0507 -2.0027
  667MOL0     H90032   3.113   8.529   1.133  0.1492 -0.1406 -0.8789
  667MOL0     H90033   2.829   7.991   1.015  0.7299  1.8989  2.9583
  667MOL0     H90034   2.855   7.869   0.793 -1.2582  2.1998 -2.4461
  667MOL0     H90035   3.006   7.682   0.637 -0.5734 -0.9405  0.5564
  667MOL0     H90036   2.891   7.820   0.582  0.1603  0.4400  0.6162
  667MOL0     H90037   3.148   7.715   0.468  0.5804  0.5775 -2.9333
  667MOL0     H90038   3.066   7.851   0.395  3.6873 -0.0710 -0.0735
  667MOL0     H90039   2.853   7.714   0.381 -0.6135 -0.3391  0.2823
  667MOL0     H90040   2.923   7.575   0.435 -0.7285  1.7884  2.1236
  667MOL0     H90041   2.982   7.719   0.172  2.0514  1.1610  1.6545
  667MOL0     H90042   2.910   7.570   0.186  1.9841  0.1700 -1.7547
  667MOL0     H90043   3.295   7.421   0.257 -1.5064 -0.2355  3.9162
  667MOL0     H90044   3.255   8.046   0.773 -0.3566  0.5524  0.4526
  667MOL0     H90045   3.210   8.167   0.980  0.1128 -0.5375  0.0657
  668MOL0     O90046  11.204   7.801   7.787  0.1074  0.0445 -0.6667
  668MOL0     C90047  11.284   7.889   7.819 -0.1014  0.2723  0.0482
  668MOL0     O90048  11.400   7.880   7.891  0.7159 -0.4112  0.4945
  668MOL0     C90049  11.413   7.754   7.948 -0.4642 -1.2627  0.4818
  668MOL0     C90050  11.365   7.731   8.073  0.1352 -0.4378 -0.2147
  668MOL0     C90051  11.356   7.602   8.114 -0.3654  0.0900  0.1746
  668MOL0     C90052  11.405   7.496   8.036  0.3524 -0.6193 -0.4156
  668MOL0     O90053  11.408   7.365   8.083  1.0088  0.6210  0.3189
  668MOL0     C90054  11.272   7.318   8.122 -0.3747 -0.0703 -0.6613
  668MOL0     C90055  11.261   7.170   8.121  0.3002 -1.0475  0.8500
  668MOL0     C90056  11.178   7.130   8.245 -0.3217  0.9474 -0.3970
  668MOL0     C90057  11.169   6.983   8.258 -0.0622  0.4654  0.7545
  668MOL0     C90058  11.069   6.922   8.356 -0.3416  0.1204  0.6730
  668MOL0     C90059  10.925   6.922   8.299 -0.6964 -0.4446  0.1304
  668MOL0     C90060  10.832   6.888   8.419  0.2089  0.5766 -0.2255
  668MOL0     C90061  10.845   6.741   8.473  0.1726  0.2522 -0.6810
  668MOL0     N90062  10.850   6.631   8.367  0.2539 -1.0265 -0.5186
  668MOL0     C90063  10.962   6.567   8.324  0.5680  0.3562 -0.4536
  668MOL0     C90064  10.922   6.493   8.221  0.9968 -0.0294 -0.8494
  668MOL0     C90065  11.016   6.400   8.142 -0.2940 -0.7520 -0.0217
  668MOL0     C90066  10.964   6.256   8.120  0.1456  1.2331 -0.9588
  668MOL0     C90067  11.061   6.168   8.040  0.4367  0.3617  0.4207
  668MOL0     C90068  11.187   6.143   8.119 -0.8330 -0.1770  0.4532
  668MOL0     O90069  11.248   6.021   8.072 -0.3881 -0.2418 -0.2770
  668MOL0     C90070  11.362   5.980   8.123 -0.3886  0.4002 -0.5334
  668MOL0     C90071  11.431   6.042   8.231  0.7018 -0.3895  0.1654
  668MOL0     C90072  11.552   5.991   8.272 -0.7554  0.0148 -0.2389
  668MOL0     C90073  11.618   6.061   8.388 -0.4986 -0.0785 -0.0793
  668MOL0     C90074  11.615   5.879   8.212 -0.9355 -0.1272  0.2718
  668MOL0     C90075  11.744   5.815   8.242  0.3460 -0.0105  0.3847
  668MOL0     O90076  11.765   5.690   8.193  0.2749  0.8671  0.1749
  668MOL0     C90077  11.877   5.624   8.228 -0.3577 -0.9013 -0.6533
  668MOL0     C90078  11.971   5.566   8.135  0.6836  0.2912 -0.4169
  668MOL0     C90079  12.079   5.495   8.178  1.1060  0.1332 -0.2342
  668MOL0     C90080  12.091   5.460   8.316 -0.2812  0.3553 -1.2795
  668MOL0     O90081  12.193   5.373   8.352  0.5837  0.2004 -0.9667
  668MOL0     C90082  12.239   5.365   8.488 -0.2026  0.0645  0.4228
  668MOL0     C90083  12.352   5.262   8.501 -0.0768 -0.2389  0.2419
  668MOL0     C90084  12.468   5.277   8.402  0.8181 -0.1784 -0.0922
  668MOL0     C90085  12.607   5.288   8.480  0.5488 -0.2571  0.3989
  668MOL0     C90086  12.727   5.256   8.392  0.7893  0.1442 -0.7525
  668MOL0     C90087  12.846   5.251   8.477 -0.6007 -0.1909  0.7104
  668MOL0     C90088  12.958   5.236   8.369  0.0363 -1.0540  0.7857
  668MOL0     C90089  13.095   5.206   8.431 -0.0358  0.6263 -0.6669
  668MOL0    Cl90090  13.137   5.369   8.526  0.8598  0.1521 -0.1342
  668MOL0     C90091  12.008   5.520   8.403  0.0691 -1.2497  0.2739
  668MOL0     C90092  11.902   5.599   8.363 -0.3306 -0.8286  1.0288
  668MOL0     O90093  11.818   5.883   8.313 -0.0746  0.3660  0.2060
  668MOL0     C90094  11.552   5.823   8.098 -0.8816  0.1333 -0.1704
  668MOL0     C90095  11.419   5.864   8.066 -1.0140  0.9304  0.1785
  668MOL0     N90096  10.783   6.523   8.199  0.2481 -0.5317 -0.0447
  668MOL0     N90097  10.746   6.616   8.285 -0.0548  0.3468  0.0455
  668MOL0     C90098  11.465   7.524   7.914 -0.3582  0.4439 -0.0258
  668MOL0     C90099  11.460   7.652   7.864 -0.2902 -1.2276 -0.6558
  668MOL0     C90100  11.264   8.024   7.774  0.5081 -0.1636  0.7591
  668MOL0     C90101  11.158   8.046   7.684 -0.2039 -0.8528  0.7467
  668MOL0     C90102  11.120   8.175   7.636 -0.2555 -0.9116 -0.3969
  668MOL0     C90103  11.192   8.288   7.664  0.7674  1.1670 -0.6351
  668MOL0     O90104  11.145   8.409   7.610 -0.0462 -0.8511 -0.1329
  668MOL0     C90105  11.195   8.541   7.651  0.1136 -0.9500 -0.5078
  668MOL0     C90106  11.292   8.596   7.556 -1.4489 -0.3902  0.5957
  668MOL0     C90107  11.243   8.621   7.409  0.0190  1.0906  0.7188
  668MOL0     C90108  11.260   8.491   7.325 -0.7214  0.1031  0.0695
  668MOL0     C90109  11.178   8.495   7.195  0.0475 -0.2830  0.2727
  668MOL0     C90110  11.113   8.498   7.091 -0.2925  0.4453 -0.3718
  668MOL0     C90111  11.322   8.261   7.730 -0.2271 -0.0829  0.4693
  668MOL0     C90112  11.348   8.139   7.791 -0.6666  0.7544  0.5172
  668MOL0     H90113  11.343   7.816   8.137 -1.3170 -0.8219 -0.1873
  668MOL0     H90114  11.330   7.584   8.218  1.0122 -0.6781  0.4008
  668MOL0     H90115  11.260   7.350   8.226  0.2144  2.5440 -1.3178
  668MOL0     H90116  11.200   7.363   8.053  1.1528  5.6516  0.9757
  668MOL0     H90117  11.213   7.134   8.030 -0.6877 -2.6530  1.9454
  668MOL0     H90118  11.354   7.111   8.117  0.5343 -0.6163 -1.2225
  668MOL0     H90119  11.212   7.172   8.340  1.0014  2.5446 -1.5214
  668MOL0     H90120  11.075   7.165   8.232 -0.5812  0.2515 -0.2169
  668MOL0     H90121  11.138   6.942   8.161 -1.4101  1.2098  0.8528
  668MOL0     H90122  11.265   6.940   8.288  0.2501  0.3885 -0.3085
  668MOL0     H90123  11.088   6.816   8.376  0.0723  0.3974  1.8373
  668MOL0     H90124  11.074   6.973   8.452  1.5656  0.6114  0.3602
  668MOL0     H90125  10.905   7.027   8.274 -1.5297  0.4211  3.7995
  668MOL0     H90126  10.905   6.852   8.218  0.1371  1.5966 -1.9376
  668MOL0     H90127  10.848   6.947   8.510  0.8062 -2.8652  2.1121
  668MOL0     H90128  10.732   6.912   8.380  0.4723  3.1850  0.4693
  668MOL0     H90129  10.755   6.714   8.530 -0.4638  0.0230 -1.7537
  668MOL0     H90130  10.927   6.739   8.544 -0.8376 -3.3414  0.5713
  668MOL0     H90131  11.055   6.587   8.377 -1.5437  1.3368  3.2384
  668MOL0     H90132  11.026   6.440   8.041  0.7483  0.3532  0.4994
  668MOL0     H90133  11.109   6.397   8.200 -0.0053 -0.1151 -0.4428
  668MOL0     H90134  10.872   6.265   8.061  1.3739  4.2897 -2.6313
  668MOL0     H90135  10.938   6.211   8.216 -2.3889 -2.9805 -3.3174
  668MOL0     H90136  11.080   6.209   7.941 -0.3401 -0.0929  0.0715
  668MOL0     H90137  11.002   6.079   8.017 -1.1985  1.4368  0.2588
  668MOL0     H90138  11.162   6.121   8.224 -5.4317 -0.0234 -0.4106
  668MOL0     H90139  11.258   6.225   8.110 -0.2682 -0.7231 -0.1330
  668MOL0     H90140  11.380   6.119   8.288 -3.3573 -3.4546  1.1741
  668MOL0     H90141  11.702   6.117   8.349 -1.8745  1.8671 -0.3762
  668MOL0     H90142  11.552   6.133   8.437 -0.9119 -1.6536  1.7899
  668MOL0     H90143  11.635   5.990   8.469  3.0170 -0.0939 -0.6954
  668MOL0     H90144  11.954   5.586   8.030  0.3981 -0.0831 -0.4463
  668MOL0     H90145  12.141   5.442   8.107 -4.4460 -2.0939 -4.1195
  668MOL0     H90146  12.272   5.466   8.514  1.0120 -1.1012  4.0476
  668MOL0     H90147  12.167   5.330   8.562  0.1053  0.4251  0.9033
  668MOL0     H90148  12.376   5.255   8.608  0.1152  2.4989  0.4643
  668MOL0     H90149  12.303   5.165   8.489  2.9603 -2.2217  2.4359
  668MOL0     H90150  12.455   5.357   8.327 -0.5009 -0.9224 -0.6916
  668MOL0     H90151  12.462   5.183   8.347 -1.6922  0.5401 -1.2408
  668MOL0     H90152  12.624   5.391   8.511 -1.2066 -0.1805  1.2042
  668MOL0     H90153  12.585   5.226   8.567 -0.4435 -0.9627 -0.3281
  668MOL0     H90154  12.739   5.341   8.324  1.2310  1.2559  0.6497
  668MOL0     H90155  12.701   5.162   8.344 -0.1330 -0.7378  1.3271
  668MOL0     H90156  12.848   5.349   8.526 -3.3870  0.2037  0.1980
  668MOL0     H90157  12.853   5.171   8.551 -0.7079  1.6512  2.8416
  668MOL0     H90158  12.952   5.323   8.302 -0.0331 -1.4301  0.3004
  668MOL0     H90159  12.937   5.154   8.299 -1.7348  1.2889 -1.6486
  668MOL0     H90160  13.172   5.184   8.357  0.3196  0.1009 -0.1444
  668MOL0     H90161  13.089   5.125   8.504  1.6969  0.8425 -0.2523
  668MOL0     H90162  12.024   5.514   8.510  1.9373 -0.8904  0.0449
  668MOL0     H90163  11.835   5.623   8.445  0.4532  1.0539  1.1814
  668MOL0     H90164  11.606   5.756   8.032  2.0199  2.2076 -0.0615
  668MOL0     H90165  11.386   5.823   7.972  3.8187  1.7190 -2.1776
  668MOL0     H90166  11.512   7.442   7.861  1.9585  1.5721  0.1379
  668MOL0     H90167  11.505   7.673   7.768  1.4553 -1.6820  0.0150
  668MOL0     H90168  11.085   7.974   7.648 -2.6024  2.4553 -1.6122
  668MOL0     H90169  11.028   8.180   7.579 -0.9983  1.0156  0.8409
  668MOL0     H90170  11.109   8.608   7.663  0.4625 -0.6346  0.3708
  668MOL0     H90171  11.243   8.524   7.748  1.7726  0.5019 -1.0223
  668MOL0     H90172  11.375   8.526   7.563 -0.7374  0.5998  3.7314
  668MOL0     H90173  11.328   8.692   7.595  0.7046 -0.0407 -1.9911
  668MOL0     H90174  11.296   8.710   7.375  2.7977 -1.5996 -2.7394
  668MOL0     H90175  11.136   8.644   7.406 -0.1152  0.7756  2.1192
  668MOL0     H90176  11.227   8.397   7.370  1.0245 -2.4836 -3.5096
  668MOL0     H90177  11.368   8.483   7.310 -0.8074  1.6318 -1.7688
  668MOL0     H90178  11.079   8.500   6.989  2.5656 -1.6269 -1.4900
  668MOL0     H90179  11.397   8.339   7.743  0.9993 -1.3385  1.1775
  668MOL0     H90180  11.439   8.133   7.850  0.8273  0.8947 -1.6667
  669MOL0     O90181   3.077   3.350   9.470  0.3631 -0.3869 -0.3993
  669MOL0     C90182   3.120   3.451   9.414  0.5461  0.5054 -0.6237
  669MOL0     O90183   3.191   3.545   9.485 -0.9380  0.2186  0.0592
  669MOL0     C90184   3.276   3.497   9.585 -0.4701  0.0988  0.8729
  669MOL0     C90185   3.406   3.464   9.545  1.4151 -0.4383  0.7297
  669MOL0     C90186   3.497   3.424   9.634  0.3953 -0.4712  0.2123
  669MOL0     C90187   3.455   3.401   9.762 -0.2893  0.0031 -0.5624
  669MOL0     O90188   3.545   3.348   9.844  0.1298 -0.2348 -0.6647
  669MOL0     C90189   3.569   3.426   9.964 -1.7716  0.0822  0.3261
  669MOL0     C90190   3.647   3.340  10.062  0.7611 -0.7398  0.8914
  669MOL0     C90191   3.664   3.407  10.204 -0.0184 -0.4597 -0.6177
  669MOL0     C90192   3.761   3.321  10.283 -0.7684 -1.3919 -1.1855
  669MOL0     C90193   3.870   3.410  10.350  0.4497  0.1055 -0.0227
  669MOL0     C90194   3.955   3.337  10.449 -0.8725  0.5544 -0.4858
  669MOL0     C90195   4.066   3.262  10.376 -1.1465 -0.9316  0.3297
  669MOL0     C90196   4.137   3.163  10.468 -1.0080 -0.1473  0.0718
  669MOL0     N90197   4.195   3.041  10.412 -0.1320  0.3074  0.3642
  669MOL0     C90198   4.127   2.963  10.331 -0.3954  1.1311  0.4093
  669MOL0     C90199   4.221   2.871  10.302 -0.5417  0.0961  1.5349
  669MOL0     C90200   4.222   2.758  10.195 -1.0869 -0.8709  1.5049
  669MOL0     C90201   4.270   2.805  10.061  0.0497 -0.5401  0.1279
  669MOL0     C90202   4.155   2.887   9.986 -0.2086 -0.3478 -0.0054
  669MOL0     C90203   4.013   2.819   9.971  0.3965  0.0675  0.3813
  669MOL0     O90204   3.920   2.925   9.934  0.6237  0.8233  0.2717
  669MOL0     C90205   3.785   2.881   9.897 -0.0865  0.4019  0.6016
  669MOL0     C90206   3.735   2.753   9.883  0.1045  1.0786  1.1279
  669MOL0     C90207   3.599   2.718   9.844 -0.9244  0.4025 -0.1844
  669MOL0     C90208   3.562   2.566   9.819  0.4118 -0.2930  0.2378
  669MOL0     C90209   3.506   2.826   9.829  0.0553 -0.1385 -0.0780
  669MOL0     C90210   3.359   2.813   9.797 -0.8772 -0.0807  0.8067
  669MOL0     O90211   3.307   2.910   9.718 -0.2525 -0.1022  0.1253
  669MOL0     C90212   3.194   2.892   9.636  0.8920  0.6911  0.3636
  669MOL0     C90213   3.143   2.768   9.588  0.6227 -0.3104 -0.4355
  669MOL0     C90214   3.028   2.765   9.513  0.7827  0.1776  0.3606
  669MOL0     C90215   2.953   2.880   9.476 -1.1882  0.0229 -0.3004
  669MOL0     O90216   2.842   2.888   9.409 -0.0713 -0.3213  0.8557
  669MOL0     C90217   2.744   2.781   9.398  0.1347  0.6105  0.4584
  669MOL0     C90218   2.601   2.830   9.426  0.4904 -0.4325  0.2296
  669MOL0     C90219   2.583   2.892   9.568 -0.6646 -0.7598  0.2146
  669MOL0     C90220   2.485   2.812   9.665  0.4216  0.0175  0.1533
  669MOL0     C90221   2.455   2.878   9.807  0.2910  0.4279 -0.2582
  669MOL0     C90222   2.403   3.022   9.800 -0.5587  0.0546  1.4214
  669MOL0     C90223   2.326   3.056   9.925 -0.5695  0.5262  0.5302
  669MOL0     C90224   2.234   3.173   9.913  0.9875  0.4728 -0.8325
  669MOL0    Cl90225   2.318   3.333   9.879  0.4878 -0.5288  0.0546
  669MOL0     C90226   3.018   3.000   9.509 -0.7049  0.2731  0.7138
  669MOL0     C90227   3.133   3.011   9.588  0.1870  0.4274  0.0975
  669MOL0     O90228   3.298   2.714   9.835  0.2216  0.7820 -0.6773
  669MOL0     C90229   3.556   2.957   9.841  0.5878 -0.0286  0.1998
  669MOL0     C90230   3.691   2.984   9.859 -0.1055 -0.5986  0.2835
  669MOL0     N90231   4.347   2.893  10.365 -0.2940  0.4123  0.1423
  669MOL0     N90232   4.320   2.992  10.435  0.1703  0.4408 -0.3320
  669MOL0     C90233   3.325   3.419   9.806 -0.0589  0.2028  0.3283
  669MOL0     C90234   3.236   3.475   9.716 -0.1822 -0.4961 -0.1355
  669MOL0     C90235   3.093   3.468   9.265 -0.1066 -0.4336  0.8124
  669MOL0     C90236   3.131   3.586   9.199  0.7897  0.4505  0.4511
  669MOL0     C90237   3.115   3.603   9.059 -0.1926 -0.3366 -0.0222
  669MOL0     C90238   3.039   3.508   8.983  0.0942  0.6629  0.4717
  669MOL0     O90239   3.014   3.512   8.850  1.0748 -0.1952  0.1552
  669MOL0     C90240   3.033   3.641   8.785 -0.4651 -0.1203  0.3745
  669MOL0     C90241   2.937   3.668   8.668 -0.5002 -0.0534 -0.0495
  669MOL0     C90242   2.957   3.809   8.617  0.0841 -1.0195  0.4043
  669MOL0     C90243   2.856   3.835   8.501 -0.2899 -0.8268  0.1872
  669MOL0     C90244   2.859   3.982   8.471 -0.3906 -0.5822 -0.9260
  669MOL0     C90245   2.871   4.107   8.449  1.3711  0.0703  0.0629
  669MOL0     C90246   2.991   3.387   9.052  0.1806  0.5309  0.2368
  669MOL0     C90247   3.017   3.369   9.190  0.3325 -0.4432 -0.1502
  669MOL0     H90248   3.428   3.473   9.439 -2.4423 -2.2837 -0.4051
  669MOL0     H90249   3.596   3.399   9.595  0.6312  0.5339  0.1507
  669MOL0     H90250   3.615   3.519   9.929  0.6677 -0.2994  2.2768
  669MOL0     H90251   3.484   3.457  10.026  1.0573  5.1908  2.2754
  669MOL0     H90252   3.581   3.253  10.074 -1.1257  0.9212  3.6233
  669MOL0     H90253   3.749   3.319  10.028  1.2955  1.0558  1.3133
  669MOL0     H90254   3.707   3.504  10.179 -1.1276 -0.4020 -2.4869
  669MOL0     H90255   3.567   3.425  10.251 -0.9888 -2.1884 -1.8024
  669MOL0     H90256   3.703   3.276  10.363 -0.8751  1.1220  0.2527
  669MOL0     H90257   3.803   3.239  10.223 -0.1778  0.1191 -2.9490
  669MOL0     H90258   3.925   3.469  10.277 -2.7777  0.8130 -2.0632
  669MOL0     H90259   3.820   3.487  10.410  0.9832  0.5561 -0.1471
  669MOL0     H90260   4.003   3.404  10.521  0.3295 -1.1835  0.3991
  669MOL0     H90261   3.891   3.266  10.503  2.3599 -0.5712  2.2330
  669MOL0     H90262   4.024   3.210  10.290  0.3938 -0.1327 -0.9411
  669MOL0     H90263   4.148   3.324  10.339 -1.1054  0.1823  2.1655
  669MOL0     H90264   4.056   3.132  10.534 -2.4904  0.8531 -1.2036
  669MOL0     H90265   4.212   3.218  10.526 -0.3899  0.8556 -1.5931
  669MOL0     H90266   4.032   2.968  10.280  0.1447 -2.1543 -1.2220
  669MOL0     H90267   4.282   2.674  10.231  2.7572  0.7584 -0.5856
  669MOL0     H90268   4.123   2.712  10.195 -0.9400 -1.1850  1.5650
  669MOL0     H90269   4.325   2.728  10.007  0.8931 -1.3800  2.0988
  669MOL0     H90270   4.352   2.875  10.083  0.9741 -1.7561  0.6374
  669MOL0     H90271   4.201   2.914   9.890  1.4124 -1.7985  0.3004
  669MOL0     H90272   4.131   2.981  10.036 -1.1488  0.4884 -1.9336
  669MOL0     H90273   3.990   2.758  10.058  0.5170  0.4891  0.7150
  669MOL0     H90274   4.023   2.748   9.888 -2.1410 -0.7951  0.7258
  669MOL0     H90275   3.797   2.667   9.906  4.2152  2.4621 -3.1833
  669MOL0     H90276   3.645   2.497   9.841 -1.1071 -2.7257 -1.1493
  669MOL0     H90277   3.484   2.532   9.888  1.8025  1.5181  2.8418
  669MOL0     H90278   3.537   2.542   9.715 -0.3987 -1.0345  0.5845
  669MOL0     H90279   3.187   2.672   9.614 -0.5861 -0.3852  1.4785
  669MOL0     H90280   2.997   2.667   9.480 -0.7916  0.8376 -0.1985
  669MOL0     H90281   2.741   2.738   9.297 -2.0726  1.6435  0.0236
  669MOL0     H90282   2.771   2.705   9.472  0.1042  1.1401  1.0198
  669MOL0     H90283   2.599   2.910   9.351  3.2257 -1.3041 -0.8964
  669MOL0     H90284   2.518   2.760   9.411  1.2019 -1.4750  1.0745
  669MOL0     H90285   2.534   2.990   9.558  0.4120 -0.1322  0.9577
  669MOL0     H90286   2.681   2.919   9.608  0.2989 -2.7451 -0.6943
  669MOL0     H90287   2.388   2.801   9.616  0.3956 -1.3993  0.4558
  669MOL0     H90288   2.528   2.711   9.668  1.9762  0.6085 -0.8757
  669MOL0     H90289   2.545   2.869   9.868  0.0850 -1.8717 -0.1991
  669MOL0     H90290   2.382   2.816   9.861  1.4952 -1.1946 -0.4221
  669MOL0     H90291   2.487   3.092   9.795 -1.6884  1.3972  0.3841
  669MOL0     H90292   2.332   3.038   9.718  0.7138 -0.5422  0.1732
  669MOL0     H90293   2.399   3.076  10.003  1.2264 -0.1793 -0.8948
  669MOL0     H90294   2.272   2.973   9.970 -0.3447  0.1221  0.0610
  669MOL0     H90295   2.165   3.197   9.994 -0.7345  1.5864 -2.5328
  669MOL0     H90296   2.167   3.144   9.831 -2.5464  0.1523  1.9470
  669MOL0     H90297   2.969   3.088   9.469 -0.9234  0.5216  1.5100
  669MOL0     H90298   3.182   3.108   9.596  1.7278 -0.0162 -2.6505
  669MOL0     H90299   3.491   3.042   9.830 -0.9245 -1.2130 -0.3841
  669MOL0     H90300   3.717   3.090   9.859 -3.0151  0.2441  2.2377
  669MOL0     H90301   3.292   3.395   9.907 -0.7606  2.2996  0.6353
  669MOL0     H90302   3.132   3.487   9.743 -0.0938  0.6060 -0.2450
  669MOL0     H90303   3.178   3.651   9.272  2.7144 -2.0490  1.6122
  669MOL0     H90304   3.171   3.678   9.005 -0.0809  0.0786  0.6597
  669MOL0     H90305   3.012   3.731   8.844 -1.0275  0.3128 -0.4671
  669MOL0     H90306   3.141   3.648   8.765 -0.8002 -0.1272 -1.5328
  669MOL0     H90307   2.832   3.666   8.699 -0.3338  1.6688  0.7176
  669MOL0     H90308   2.950   3.599   8.583 -2.2079 -0.0180 -0.3674
  669MOL0     H90309   3.060   3.838   8.594 -0.4236 -0.6131 -1.5754
  669MOL0     H90310   2.930   3.859   8.711  1.4028  2.7214 -0.9980
  669MOL0     H90311   2.756   3.796   8.526  0.4321 -1.4565  2.3660
  669MOL0     H90312   2.881   3.777   8.412 -0.4929 -0.8825  0.1646
  669MOL0     H90313   2.857   4.210   8.422 -1.1008 -0.2545 -0.1006
  669MOL0     H90314   2.952   3.301   9.000  2.7540  0.1601 -1.2635
  669MOL0     H90315   2.975   3.276   9.228  1.4423 -1.3360 -1.0262
  670MOL0     O90316   2.412   3.411   8.053  0.2118  0.7430  0.1781
  670MOL0     C90317   2.344   3.324   8.005 -0.3136 -0.1208 -0.7858
  670MOL0     O90318   2.267   3.233   8.081 -0.2122  0.0071 -0.7592
  670MOL0     C90319   2.283   3.225   8.214 -0.1628  0.0231 -0.1948
  670MOL0     C90320   2.393   3.174   8.274  1.0800  0.4194 -0.4338
  670MOL0     C90321   2.418   3.175   8.416  0.3609  0.9434 -0.9121
  670MOL0     C90322   2.314   3.219   8.494 -0.8042 -0.7883  0.8928
  670MOL0     O90323   2.325   3.236   8.623 -0.2142 -0.0902 -0.2548
  670MOL0     C90324   2.439   3.181   8.700  0.5177 -0.7204  0.3111
  670MOL0     C90325   2.435   3.261   8.834 -0.6401 -0.0058  0.6114
  670MOL0     C90326   2.488   3.180   8.946  0.1819  0.4114 -0.1890
  670MOL0     C90327   2.525   3.271   9.066  0.6107  0.6009  0.7246
  670MOL0     C90328   2.559   3.193   9.193  0.3170 -0.4688  0.1485
  670MOL0     C90329   2.636   3.292   9.287 -0.1299 -0.1317 -1.0991
  670MOL0     C90330   2.672   3.240   9.431 -1.2991 -0.7200  0.7763
  670MOL0     C90331   2.748   3.344   9.517 -0.2968 -0.6422 -0.6360
  670MOL0     N90332   2.750   3.322   9.662 -1.0841 -0.0212 -0.7250
  670MOL0     C90333   2.760   3.197   9.713  0.0671 -0.9898 -0.2638
  670MOL0     C90334   2.788   3.215   9.839  0.0495 -0.0652 -0.4940
  670MOL0     C90335   2.799   3.112   9.953  0.6720  0.8822 -0.1630
  670MOL0     C90336   2.921   3.114  10.035  0.0944  0.0736  0.0279
  670MOL0     C90337   3.054   3.128   9.952  0.1167  0.8317 -0.0889
  670MOL0     C90338   3.189   3.100  10.022  0.3881 -0.8067  0.5097
  670MOL0     O90339   3.207   3.184  10.133  1.4617  0.1239  0.4108
  670MOL0     C90340   3.315   3.152  10.214  0.1734  0.1373  0.3286
  670MOL0     C90341   3.408   3.057  10.186  0.4450 -0.2119 -0.5077
  670MOL0     C90342   3.516   3.026  10.271 -0.0288  0.1540  0.5449
  670MOL0     C90343   3.615   2.939  10.202  0.6094 -0.1672  0.5021
  670MOL0     C90344   3.524   3.084  10.401  0.3173  0.3034  0.5115
  670MOL0     C90345   3.621   3.038  10.508  0.6717 -0.7254 -1.1218
  670MOL0     O90346   3.668   2.909  10.509  0.1477  0.9598 -0.5184
  670MOL0     C90347   3.789   2.887  10.582  0.3181 -0.4730  0.0774
  670MOL0     C90348   3.823   2.930  10.718  0.2941 -0.8191 -0.0502
  670MOL0     C90349   3.940   2.873  10.777  0.2260  0.0432 -0.0346
  670MOL0     C90350   4.032   2.796  10.696 -0.2420  0.1885 -0.4954
  670MOL0     O90351   4.134   2.735  10.766  0.1645 -0.6030  0.5505
  670MOL0     C90352   4.209   2.635  10.698 -0.4630 -1.0086 -0.6941
  670MOL0     C90353   4.332   2.587  10.777 -0.0856  0.6084  0.7587
  670MOL0     C90354   4.365   2.465  10.700 -0.5278  0.1877  0.3814
  670MOL0     C90355   4.500   2.422  10.742  0.2283 -0.9028  0.5770
  670MOL0     C90356   4.561   2.328  10.635 -0.4561  0.0710  0.4442
  670MOL0     C90357   4.709   2.308  10.649  0.8650 -0.0304 -0.0746
  670MOL0     C90358   4.775   2.213  10.544 -0.4199  0.0462 -0.5325
  670MOL0     C90359   4.906   2.169  10.596 -0.2538  0.9701  1.2237
  670MOL0    Cl90360   5.027   2.313  10.594 -0.1450  0.7844 -0.3432
  670MOL0     C90361   3.996   2.768  10.558 -0.2700 -0.1658 -1.2447
  670MOL0     C90362   3.876   2.806  10.507  1.0923  0.7864 -0.0788
  670MOL0     O90363   3.641   3.116  10.608 -0.0173 -0.0143  0.7138
  670MOL0     C90364   3.430   3.179  10.431  0.2723 -0.8381 -0.6876
  670MOL0     C90365   3.337   3.217  10.334  1.1202  0.2943  0.8403
  670MOL0     N90366   2.804   3.348   9.870  0.3982  1.1005  0.3173
  670MOL0     N90367   2.772   3.415   9.765  0.3156  0.2337 -0.3015
  670MOL0     C90368   2.196   3.267   8.434  0.8011 -1.0357 -0.4904
  670MOL0     C90369   2.185   3.278   8.301 -0.0486 -0.6542  0.2826
  670MOL0     C90370   2.327   3.319   7.853  0.4771 -0.9762 -0.4493
  670MOL0     C90371   2.229   3.246   7.790  0.5633  0.1212 -0.0819
  670MOL0     C90372   2.222   3.226   7.656  0.2073  0.2127  0.8377
  670MOL0     C90373   2.316   3.288   7.573  0.4919 -0.0407  0.2880
  670MOL0     O90374   2.306   3.251   7.439 -0.4426 -0.5572 -0.1766
  670MOL0     C90375   2.428   3.237   7.351  0.3081  0.3508  0.4725
  670MOL0     C90376   2.393   3.276   7.207 -0.0080  0.5792  0.0819
  670MOL0     C90377   2.330   3.175   7.109  1.3104  0.6129 -0.3140
  670MOL0     C90378   2.191   3.121   7.144 -0.0719 -1.3454 -0.8462
  670MOL0     C90379   2.198   2.978   7.150  0.6519 -0.1430 -0.5720
  670MOL0     C90380   2.218   2.859   7.157  0.1333  0.5498 -0.3254
  670MOL0     C90381   2.415   3.357   7.627  0.0286 -0.7836 -0.3574
  670MOL0     C90382   2.422   3.382   7.764 -0.4832  0.2886  0.4517
  670MOL0     H90383   2.474   3.145   8.208 -0.2629  4.0838 -4.0898
  670MOL0     H90384   2.506   3.127   8.457  0.8519  1.4065 -1.4129
  670MOL0     H90385   2.415   3.078   8.725  1.1671 -1.3350 -1.4706
  670MOL0     H90386   2.535   3.189   8.649  0.2179 -2.1164 -0.5184
  670MOL0     H90387   2.486   3.354   8.810 -0.9412 -0.1306 -0.5523
  670MOL0     H90388   2.331   3.282   8.862  0.7690  5.5492  3.1205
  670MOL0     H90389   2.404   3.118   8.981 -0.4246  2.0072  1.3587
  670MOL0     H90390   2.567   3.116   8.906 -2.7555 -3.0141 -1.0565
  670MOL0     H90391   2.614   3.326   9.035  0.3860  0.9574  0.7115
  670MOL0     H90392   2.445   3.344   9.079  1.1495  1.2235  0.6302
  670MOL0     H90393   2.462   3.185   9.243 -0.5585  1.4538 -1.1023
  670MOL0     H90394   2.611   3.098   9.179 -0.0555 -0.8848  1.5173
  670MOL0     H90395   2.724   3.324   9.231 -0.0108 -0.8314 -1.3178
  670MOL0     H90396   2.574   3.381   9.303  0.2377 -0.1862  0.8665
  670MOL0     H90397   2.578   3.204   9.474  0.0193 -4.2353  1.0339
  670MOL0     H90398   2.735   3.151   9.419  0.5662  0.7695 -1.2060
  670MOL0     H90399   2.689   3.435   9.504 -0.9726 -0.3688  3.1921
  670MOL0     H90400   2.846   3.369   9.476  1.0235  2.3436  3.7328
  670MOL0     H90401   2.767   3.097   9.670 -2.0461 -2.2196  2.0052
  670MOL0     H90402   2.721   3.122  10.030  1.0135  1.3974  0.1211
  670MOL0     H90403   2.788   3.015   9.904  1.0391 -0.3673  2.0625
  670MOL0     H90404   2.928   3.019  10.087 -0.6442  0.3950  0.7421
  670MOL0     H90405   2.916   3.198  10.106  1.6925  0.9370 -0.8254
  670MOL0     H90406   3.060   3.229   9.910  0.7454  0.8459  0.0294
  670MOL0     H90407   3.034   3.057   9.871 -1.9814  0.4179  0.7219
  670MOL0     H90408   3.273   3.114   9.953 -0.0029  0.4934  0.2737
  670MOL0     H90409   3.172   2.995  10.047 -2.4433 -1.0428 -1.8427
  670MOL0     H90410   3.399   3.013  10.087 -3.8408 -0.1349 -0.3489
  670MOL0     H90411   3.690   3.007  10.160  1.3496 -2.2265 -1.7716
  670MOL0     H90412   3.660   2.866  10.269  3.0252  0.7112 -0.0168
  670MOL0     H90413   3.553   2.891  10.126 -1.0516  1.3729  0.8286
  670MOL0     H90414   3.768   2.994  10.786  3.8491  1.5617  0.8535
  670MOL0     H90415   3.955   2.887  10.884 -0.4149  1.5840 -0.1234
  670MOL0     H90416   4.143   2.548  10.687  0.9274 -2.2298  0.2031
  670MOL0     H90417   4.255   2.684  10.612 -1.7099  1.5830 -0.0033
  670MOL0     H90418   4.417   2.655  10.764  0.5646  0.4574  3.5996
  670MOL0     H90419   4.302   2.557  10.877 -3.2061 -0.8995 -0.5026
  670MOL0     H90420   4.369   2.492  10.594  3.8460 -2.6289 -0.4279
  670MOL0     H90421   4.298   2.381  10.723  0.6278 -0.1589  2.8818
  670MOL0     H90422   4.569   2.506  10.747  0.7553 -1.4242  3.2476
  670MOL0     H90423   4.490   2.392  10.847 -0.2493  1.8261  1.3876
  670MOL0     H90424   4.557   2.378  10.537  1.4014  2.4835  1.4819
  670MOL0     H90425   4.513   2.230  10.637 -2.2298  0.8919  1.7459
  670MOL0     H90426   4.761   2.405  10.654  2.6528 -0.8694 -1.2041
  670MOL0     H90427   4.732   2.260  10.744  0.6362 -1.6513 -0.8100
  670MOL0     H90428   4.793   2.255  10.445  2.4688 -0.8243 -0.4701
  670MOL0     H90429   4.704   2.129  10.545 -0.5565  0.0944  2.0203
  670MOL0     H90430   4.954   2.099  10.527  0.3000  0.9936  1.5732
  670MOL0     H90431   4.897   2.126  10.696  2.5929  1.4111  1.7459
  670MOL0     H90432   4.064   2.706  10.500  2.7242  0.6018  1.1575
  670MOL0     H90433   3.852   2.771  10.408  1.6859  1.8476 -0.6113
  670MOL0     H90434   3.427   3.232  10.525 -1.6474  1.5659 -1.9814
  670MOL0     H90435   3.281   3.308  10.356  2.1193  1.0064  0.5142
  670MOL0     H90436   2.109   3.306   8.487 -0.4093 -1.9807 -1.7316
  670MOL0     H90437   2.105   3.330   8.249  1.4380  1.7680  0.2470
  670MOL0     H90438   2.151   3.206   7.855  0.2088 -0.0647 -0.6146
  670MOL0     H90439   2.150   3.163   7.605 -0.5074  2.1964 -0.7691
  670MOL0     H90440   2.504   3.307   7.387  0.5094  0.0272  0.6771
  670MOL0     H90441   2.477   3.140   7.353  1.4632  0.7551 -2.8738
  670MOL0     H90442   2.490   3.297   7.159 -0.8123  1.0717 -1.3939
  670MOL0     H90443   2.344   3.373   7.216 -2.9810 -0.9917  2.5751
  670MOL0     H90444   2.403   3.093   7.118 -0.1213 -0.7708 -0.8876
  670MOL0     H90445   2.332   3.215   7.008  2.0781  1.3119 -0.0303
  670MOL0     H90446   2.111   3.142   7.072  0.1221 -1.0921 -0.9897
  670MOL0     H90447   2.163   3.154   7.244 -0.8735 -0.4838 -1.3399
  670MOL0     H90448   2.264   2.763   7.170 -0.3299  0.5909  2.0483
  670MOL0     H90449   2.486   3.413   7.569 -0.9004  1.4763  0.5662
  670MOL0     H90450   2.517   3.428   7.792 -0.3252  1.9732 -2.4500
  671MOL0     O90451   0.502   8.174   7.188  0.6893  0.4071 -0.7360
  671MOL0     C90452   0.421   8.116   7.116 -0.1808 -0.7865 -0.1943
  671MOL0     O90453   0.430   7.987   7.080  0.7575 -0.4750 -0.4109
  671MOL0     C90454   0.538   7.919   7.122  0.6679  0.2128  0.0235
  671MOL0     C90455   0.583   7.917   7.254 -0.0894  1.3436  0.0015
  671MOL0     C90456   0.694   7.840   7.287 -0.1815 -0.3236  0.2254
  671MOL0     C90457   0.766   7.764   7.195 -0.1337 -0.5735 -0.6997
  671MOL0     O90458   0.844   7.660   7.240 -0.7485 -0.0888  0.2526
  671MOL0     C90459   0.980   7.667   7.187 -0.1535 -0.6201 -0.7052
  671MOL0     C90460   0.999   7.542   7.105 -0.4902  0.2828 -0.1216
  671MOL0     C90461   1.046   7.431   7.189 -0.0120  0.6786 -0.2623
  671MOL0     C90462   0.936   7.358   7.273 -0.6950  1.5370 -0.4260
  671MOL0     C90463   0.981   7.222   7.329 -0.4118 -0.0245 -0.6350
  671MOL0     C90464   1.098   7.226   7.424 -0.3723  0.5069 -1.4090
  671MOL0     C90465   1.145   7.096   7.482  0.3211 -0.2059  0.1241
  671MOL0     C90466   1.218   7.006   7.382 -0.1994  0.6769  0.5112
  671MOL0     N90467   1.347   7.072   7.338  0.2445 -0.1138 -0.1606
  671MOL0     C90468   1.462   7.091   7.407  0.2050  0.0690  0.5527
  671MOL0     C90469   1.547   7.142   7.320  0.1691  0.9118  1.2797
  671MOL0     C90470   1.684   7.180   7.361 -0.2414 -0.1495  0.2776
  671MOL0     C90471   1.788   7.072   7.366  0.1299 -0.0087  0.2324
  671MOL0     C90472   1.920   7.127   7.375 -0.4828 -0.6187 -0.1724
  671MOL0     C90473   2.037   7.033   7.364  0.0788  0.6284 -0.1811
  671MOL0     O90474   2.025   6.958   7.481  0.1955 -0.2349 -0.3278
  671MOL0     C90475   2.125   6.861   7.493 -0.0944  0.2676 -0.2673
  671MOL0     C90476   2.230   6.820   7.405 -0.0007 -0.1451  0.6637
  671MOL0     C90477   2.325   6.719   7.442 -0.0897 -0.2137  0.0923
  671MOL0     C90478   2.420   6.674   7.335 -0.9940 -0.2549 -0.2406
  671MOL0     C90479   2.322   6.676   7.578 -0.4617 -0.5429  0.3477
  671MOL0     C90480   2.420   6.578   7.640  0.3052 -1.2084  0.5393
  671MOL0     O90481   2.425   6.565   7.773 -0.6666  0.7588  0.4743
  671MOL0     C90482   2.535   6.495   7.823 -0.0212 -0.0787  0.8231
  671MOL0     C90483   2.637   6.555   7.895 -0.4583  0.0162  0.7733
  671MOL0     C90484   2.740   6.467   7.933  0.0438  0.1080 -0.6430
  671MOL0     C90485   2.752   6.333   7.899  0.6863  1.4447 -0.4675
  671MOL0     O90486   2.861   6.264   7.928  0.5511  0.3150 -0.1542
  671MOL0     C90487   2.881   6.125   7.891  0.3545 -0.0419 -0.3962
  671MOL0     C90488   3.020   6.091   7.939 -0.2153 -0.4352  0.2536
  671MOL0     C90489   3.073   5.951   7.908 -0.0418 -1.1014 -0.2227
  671MOL0     C90490   3.225   5.930   7.924 -0.8201 -0.4614 -0.2129
  671MOL0     C90491   3.268   5.782   7.902  0.1520  0.0840 -0.5312
  671MOL0     C90492   3.423   5.773   7.922 -0.6887 -0.4303 -0.4279
  671MOL0     C90493   3.475   5.638   7.884  0.0069  0.4707 -0.3335
  671MOL0     C90494   3.628   5.620   7.921  0.2999 -0.2567  0.8509
  671MOL0    Cl90495   3.723   5.706   7.799  0.0689  0.1346  0.2364
  671MOL0     C90496   2.650   6.277   7.812  0.4631 -0.1602  0.3924
  671MOL0     C90497   2.548   6.363   7.783 -1.1948  0.3023 -0.1312
  671MOL0     O90498   2.491   6.526   7.559 -0.9604 -0.3450  0.0806
  671MOL0     C90499   2.228   6.732   7.664  0.3241 -0.6694  0.2050
  671MOL0     C90500   2.116   6.808   7.627 -0.1422 -0.5379 -0.1965
  671MOL0     N90501   1.489   7.139   7.193  0.1478 -0.0943  0.5764
  671MOL0     N90502   1.369   7.101   7.200 -0.1768 -1.3024  0.0799
  671MOL0     C90503   0.719   7.768   7.062  0.6259  0.8680  0.8898
  671MOL0     C90504   0.603   7.844   7.025 -0.9049  0.2932  0.0566
  671MOL0     C90505   0.290   8.185   7.094 -0.7781 -0.2159 -0.2591
  671MOL0     C90506   0.169   8.131   7.042 -0.4072  0.2680  0.6982
  671MOL0     C90507   0.060   8.209   7.003 -0.7281 -0.8130  0.3632
  671MOL0     C90508   0.071   8.350   7.033  1.4611 -0.4457 -0.5938
  671MOL0     O90509  -0.026   8.441   6.990 -0.0744 -1.1051  0.1939
  671MOL0     C90510  -0.087   8.429   6.850  0.3356 -1.1448  0.6595
  671MOL0     C90511   0.021   8.425   6.736 -0.3496 -1.1258 -0.0239
  671MOL0     C90512   0.092   8.567   6.729  0.1768  0.7632  0.6686
  671MOL0     C90513   0.169   8.596   6.599  0.2553  0.0157  0.4711
  671MOL0     C90514   0.093   8.574   6.472 -0.3242 -0.2897  0.9646
  671MOL0     C90515   0.025   8.562   6.372 -0.6389  0.5222 -0.1564
  671MOL0     C90516   0.173   8.405   7.103  0.1379 -0.1287  0.6786
  671MOL0     C90517   0.279   8.324   7.134  0.6505  0.3638 -0.3629
  671MOL0     H90518   0.528   7.969   7.332 -1.6224  0.3934 -0.4309
  671MOL0     H90519   0.722   7.836   7.391 -1.8523  0.8068  0.7614
  671MOL0     H90520   1.007   7.742   7.112  3.2495 -0.3817  0.5851
  671MOL0     H90521   1.060   7.681   7.259  0.9674 -0.2050 -1.9984
  671MOL0     H90522   0.910   7.507   7.052 -1.6628  1.9164  0.7086
  671MOL0     H90523   1.078   7.568   7.034  0.2784  1.1908  1.0358
  671MOL0     H90524   1.083   7.348   7.128  0.5086 -0.5724  1.6661
  671MOL0     H90525   1.140   7.471   7.226  1.0571  0.6808 -2.8024
  671MOL0     H90526   0.902   7.410   7.363 -1.4241  0.6629 -0.1786
  671MOL0     H90527   0.853   7.330   7.208  0.2916 -1.7411 -0.4353
  671MOL0     H90528   0.901   7.169   7.381  1.4750 -1.5536  0.8435
  671MOL0     H90529   1.019   7.161   7.246  1.8252 -0.7042  0.8247
  671MOL0     H90530   1.182   7.282   7.382  1.6047  1.4007  3.1617
  671MOL0     H90531   1.071   7.282   7.514  2.1409 -0.3746 -0.0224
  671MOL0     H90532   1.206   7.119   7.570  1.0701  2.9603 -1.0777
  671MOL0     H90533   1.063   7.029   7.509 -0.4892 -0.4545 -2.6581
  671MOL0     H90534   1.154   6.995   7.295 -2.3724  0.7662  2.0061
  671MOL0     H90535   1.243   6.909   7.425  0.7909  0.9506  0.5821
  671MOL0     H90536   1.490   7.069   7.510  5.0855  1.4043 -0.2705
  671MOL0     H90537   1.723   7.254   7.290 -3.7707 -1.7600 -3.8151
  671MOL0     H90538   1.670   7.216   7.463 -3.9577 -3.2976  1.1482
  671MOL0     H90539   1.772   7.021   7.270  2.3517 -0.4472  0.0306
  671MOL0     H90540   1.775   7.002   7.449  2.3591 -1.2614 -0.3749
  671MOL0     H90541   1.925   7.178   7.472  2.5583  0.7180 -0.9135
  671MOL0     H90542   1.945   7.198   7.295 -2.6545 -0.0686 -0.4572
  671MOL0     H90543   2.132   7.085   7.354 -0.3417  1.5773  0.5697
  671MOL0     H90544   2.037   6.969   7.275  1.0548 -0.2168  0.4045
  671MOL0     H90545   2.238   6.862   7.305 -1.8725 -2.1622 -0.4294
  671MOL0     H90546   2.402   6.569   7.311 -0.5127 -0.8566  1.8823
  671MOL0     H90547   2.413   6.739   7.247 -0.4183 -1.3561 -1.1293
  671MOL0     H90548   2.520   6.681   7.378 -1.0260  0.1695 -0.2285
  671MOL0     H90549   2.640   6.661   7.920 -1.4448  1.1695 -3.3295
  671MOL0     H90550   2.817   6.514   7.992  0.4550  0.5671 -1.5226
  671MOL0     H90551   2.802   6.061   7.932  0.6067 -0.6989 -0.9108
  671MOL0     H90552   2.884   6.109   7.783 -1.4345 -3.0003 -0.1246
  671MOL0     H90553   3.085   6.157   7.880 -2.4217  0.5703 -1.2024
  671MOL0     H90554   3.029   6.114   8.046 -1.0182  3.1581 -0.3189
  671MOL0     H90555   3.056   5.933   7.801  0.8280  2.6176 -1.1162
  671MOL0     H90556   3.015   5.882   7.970  0.0777  0.9919  2.3735
  671MOL0     H90557   3.277   5.992   7.851 -0.8519 -0.4785 -0.2503
  671MOL0     H90558   3.255   5.967   8.023 -2.4844 -3.0698  1.4010
  671MOL0     H90559   3.242   5.746   7.802 -0.9347 -0.7744  0.0376
  671MOL0     H90560   3.207   5.726   7.973  0.9648  2.4300  2.1709
  671MOL0     H90561   3.465   5.843   7.849 -1.8372 -1.5013 -2.2185
  671MOL0     H90562   3.463   5.800   8.020 -1.5204  2.7016 -0.8558
  671MOL0     H90563   3.456   5.625   7.777  0.6157  0.6960 -0.4754
  671MOL0     H90564   3.424   5.563   7.944  1.8185 -0.0079  0.6907
  671MOL0     H90565   3.649   5.513   7.928 -4.5850 -1.4773  0.2731
  671MOL0     H90566   3.637   5.656   8.024 -0.7721 -0.7076  1.1189
  671MOL0     H90567   2.643   6.171   7.792 -0.2642 -0.9311  3.9295
  671MOL0     H90568   2.459   6.326   7.732  0.1041 -1.9816 -0.8413
  671MOL0     H90569   2.241   6.713   7.770  1.8657  0.7569  0.3131
  671MOL0     H90570   2.049   6.847   7.703  1.4118 -0.7467  1.3381
  671MOL0     H90571   0.770   7.703   6.992  0.7471  0.5915  1.2285
  671MOL0     H90572   0.552   7.844   6.929 -2.4417 -1.7799  0.7818
  671MOL0     H90573   0.167   8.028   7.006  0.2458 -0.2253  2.0146
  671MOL0     H90574  -0.021   8.177   6.938  0.5635  0.9206 -2.3118
  671MOL0     H90575  -0.142   8.335   6.842 -2.5619  0.4494  0.1114
  671MOL0     H90576  -0.160   8.504   6.819  3.0530  1.0068 -1.0092
  671MOL0     H90577  -0.027   8.388   6.645 -0.4995 -0.6294 -0.1484
  671MOL0     H90578   0.095   8.347   6.758 -0.0226 -0.3876  1.6075
  671MOL0     H90579   0.166   8.578   6.809  2.0787 -0.8041 -0.7630
  671MOL0     H90580   0.014   8.641   6.746 -2.2998 -1.5435 -0.0286
  671MOL0     H90581   0.264   8.543   6.593 -0.3132 -0.9441 -0.5244
  671MOL0     H90582   0.183   8.705   6.601 -1.1810  0.2772 -1.0190
  671MOL0     H90583  -0.041   8.566   6.288 -1.0783 -0.8938  0.1071
  671MOL0     H90584   0.195   8.511   7.110  1.2903 -0.4116  1.9052
  671MOL0     H90585   0.364   8.373   7.181 -1.4597  2.7349  1.2638
  672MOL0     O90586   8.411   0.185   9.002 -0.2565 -0.1757 -0.2272
  672MOL0     C90587   8.485   0.263   8.942 -0.0287  0.1255  0.0455
  672MOL0     O90588   8.454   0.386   8.904  0.5023 -0.1197  0.2380
  672MOL0     C90589   8.323   0.418   8.909 -0.3991 -0.0783  0.3697
  672MOL0     C90590   8.223   0.371   8.827  1.2540  0.1825 -0.3298
  672MOL0     C90591   8.089   0.415   8.847  0.1702 -0.6350  0.4960
  672MOL0     C90592   8.056   0.507   8.940  0.5390 -1.3727 -0.2123
  672MOL0     O90593   7.916   0.538   8.959 -0.0617  0.2101  0.1866
  672MOL0     C90594   7.880   0.601   9.086  0.9417  0.0395 -0.3757
  672MOL0     C90595   7.738   0.542   9.125  0.4865  0.8299 -0.7703
  672MOL0     C90596   7.720   0.388   9.121 -0.1188 -0.2394 -0.2832
  672MOL0     C90597   7.793   0.310   9.240 -0.0701 -0.3092 -0.0136
  672MOL0     C90598   7.831   0.171   9.199  0.2698 -0.5045 -0.1484
  672MOL0     C90599   7.952   0.163   9.118  0.3517 -0.8043 -0.1414
  672MOL0     C90600   8.001   0.027   9.092 -0.0349 -0.0502  0.3176
  672MOL0     C90601   8.151   0.026   9.061 -0.5969 -1.1471 -0.1274
  672MOL0     N90602   8.202  -0.095   9.011 -0.1978  0.6300 -0.2779
  672MOL0     C90603   8.333  -0.135   9.027 -0.4764 -0.1900  0.5241
  672MOL0     C90604   8.341  -0.261   8.983  0.4789 -0.2411  0.3999
  672MOL0     C90605   8.458  -0.342   8.989 -0.3376 -0.2391  1.1831
  672MOL0     C90606   8.535  -0.323   8.864 -0.6401  0.3458 -0.4221
  672MOL0     C90607   8.470  -0.396   8.741  0.6321 -0.0563  0.1085
  672MOL0     C90608   8.557  -0.377   8.617 -0.9044 -0.2232 -0.5923
  672MOL0     O90609   8.616  -0.253   8.605 -0.3921 -0.1533  0.0689
  672MOL0     C90610   8.544  -0.146   8.544 -0.0477  0.2677 -0.7434
  672MOL0     C90611   8.541  -0.142   8.407  0.3828 -0.4567 -0.6602
  672MOL0     C90612   8.464  -0.046   8.336  0.3103 -0.1838  0.4780
  672MOL0     C90613   8.470  -0.055   8.186 -0.0203 -0.3093 -0.6278
  672MOL0     C90614   8.372   0.039   8.411  0.0831  0.6774 -0.5836
  672MOL0     C90615   8.276   0.137   8.357  0.0592  0.4916  0.2500
  672MOL0     O90616   8.185   0.194   8.438 -0.4847 -0.1002 -1.0639
  672MOL0     C90617   8.096   0.277   8.379 -0.7297  0.0997 -0.6363
  672MOL0     C90618   8.111   0.416   8.380 -1.2480 -0.0945 -0.4289
  672MOL0     C90619   8.016   0.505   8.326  0.4180  0.3121 -0.6004
  672MOL0     C90620   7.892   0.458   8.279  0.9080  0.2827 -0.1309
  672MOL0     O90621   7.800   0.551   8.226  0.4569  1.5551 -0.0937
  672MOL0     C90622   7.671   0.488   8.194  0.5198  0.5761  0.3980
  672MOL0     C90623   7.576   0.580   8.139  0.4427  0.1622 -0.2227
  672MOL0     C90624   7.544   0.691   8.232  0.4531 -0.6471  0.1632
  672MOL0     C90625   7.453   0.654   8.358  0.8102  0.6214  0.1073
  672MOL0     C90626   7.297   0.644   8.317  0.1012  0.3016 -0.9670
  672MOL0     C90627   7.230   0.783   8.285 -0.4788  0.4217 -0.3517
  672MOL0     C90628   7.090   0.742   8.231 -0.5437  0.2314  0.3014
  672MOL0     C90629   7.030   0.867   8.170 -0.2914  0.8701  0.0639
  672MOL0    Cl90630   6.963   0.960   8.305 -0.3921 -0.3439  0.0142
  672MOL0     C90631   7.877   0.310   8.277 -0.5553 -0.2566 -1.1953
  672MOL0     C90632   7.981   0.226   8.328  0.4577 -0.0233 -0.1574
  672MOL0     O90633   8.274   0.141   8.234 -0.1606 -0.2969  0.2226
  672MOL0     C90634   8.381   0.039   8.552 -0.2858 -0.3805  0.6584
  672MOL0     C90635   8.473  -0.050   8.615 -0.0477 -0.4813 -1.2178
  672MOL0     N90636   8.210  -0.303   8.939 -0.0779 -0.6198 -0.0686
  672MOL0     N90637   8.131  -0.198   8.960 -0.2355  0.5393  0.9037
  672MOL0     C90638   8.160   0.562   9.015 -1.0386  0.0267 -0.8810
  672MOL0     C90639   8.296   0.523   8.996  0.9052  0.6554 -0.1685
  672MOL0     C90640   8.616   0.210   8.905 -1.4109  0.1205 -1.1306
  672MOL0     C90641   8.729   0.298   8.880  0.2417 -0.9267 -0.4217
  672MOL0     C90642   8.855   0.258   8.865  0.2337  0.3050 -0.8578
  672MOL0     C90643   8.887   0.123   8.837  0.0355  0.5324 -0.5085
  672MOL0     O90644   9.022   0.100   8.814 -0.4084  0.2535 -0.1982
  672MOL0     C90645   9.063  -0.019   8.748 -1.2968 -0.1652  0.0566
  672MOL0     C90646   9.024  -0.020   8.602 -1.1309 -0.5049 -0.8570
  672MOL0     C90647   9.061   0.105   8.520  1.3719  0.0355 -0.6042
  672MOL0     C90648   8.954   0.131   8.410  0.0341 -0.0488  0.2377
  672MOL0     C90649   8.827   0.163   8.469  0.1775  1.0043  0.5616
  672MOL0     C90650   8.718   0.182   8.522 -0.0280 -0.3729  0.4093
  672MOL0     C90651   8.783   0.036   8.862  0.6554 -0.1117  0.5022
  672MOL0     C90652   8.650   0.075   8.894  0.6144 -0.0363  0.6598
  672MOL0     H90653   8.244   0.288   8.761  0.6812 -0.4815  0.3064
  672MOL0     H90654   8.023   0.364   8.778  3.2592 -1.4578 -2.0339
  672MOL0     H90655   7.947   0.560   9.161 -1.2172 -1.1350  1.0345
  672MOL0     H90656   7.875   0.709   9.100 -0.3327 -0.0632  0.1184
  672MOL0     H90657   7.715   0.572   9.227 -1.3713 -1.0263 -0.5690
  672MOL0     H90658   7.666   0.597   9.064 -1.1284  1.1609  1.3275
  672MOL0     H90659   7.615   0.383   9.151 -1.5453  4.0581 -3.4153
  672MOL0     H90660   7.739   0.340   9.024 -0.8782  0.2932 -0.7030
  672MOL0     H90661   7.885   0.361   9.269  0.1598 -0.0788 -1.0942
  672MOL0     H90662   7.730   0.312   9.329  1.3857  2.1086  1.0684
  672MOL0     H90663   7.835   0.112   9.290 -1.1360 -0.7541 -0.2326
  672MOL0     H90664   7.748   0.141   9.134 -1.7567  0.2883  1.9307
  672MOL0     H90665   7.937   0.217   9.024 -1.3207  0.7195  0.9333
  672MOL0     H90666   8.033   0.213   9.172 -0.9097 -0.2219  1.2859
  672MOL0     H90667   7.972  -0.034   9.177  0.1397 -0.3048  0.1945
  672MOL0     H90668   7.939  -0.008   9.009 -1.7960  0.4330  1.3741
  672MOL0     H90669   8.207   0.065   9.146 -0.5361  3.6053 -2.0562
  672MOL0     H90670   8.151   0.103   8.982 -1.1887 -1.8114 -0.7951
  672MOL0     H90671   8.415  -0.079   9.071  0.2434  1.4983 -2.6616
  672MOL0     H90672   8.531  -0.312   9.064  0.1879 -0.7598  0.8810
  672MOL0     H90673   8.435  -0.448   9.006  2.9808 -1.1466  0.6684
  672MOL0     H90674   8.634  -0.364   8.886  0.3164  3.0021  0.6087
  672MOL0     H90675   8.556  -0.219   8.836 -2.4119  0.2843 -2.2737
  672MOL0     H90676   8.378  -0.344   8.711  1.6017 -0.4672 -4.4388
  672MOL0     H90677   8.460  -0.503   8.759  0.0992 -0.3190 -1.5738
  672MOL0     H90678   8.490  -0.409   8.536 -1.0842  1.2148 -1.0326
  672MOL0     H90679   8.647  -0.439   8.632 -0.0441  1.7504  4.4550
  672MOL0     H90680   8.593  -0.217   8.348  0.0721 -2.0741  1.0230
  672MOL0     H90681   8.516   0.036   8.146 -2.3210  1.5041  0.5896
  672MOL0     H90682   8.536  -0.138   8.157 -0.2226 -0.3536 -0.9655
  672MOL0     H90683   8.366  -0.062   8.154 -0.4527 -1.1615  0.8802
  672MOL0     H90684   8.199   0.463   8.424 -2.4528  3.8194 -1.7744
  672MOL0     H90685   8.029   0.613   8.322 -1.2997  0.7734  2.6379
  672MOL0     H90686   7.670   0.410   8.117 -4.6535 -1.8374  2.4526
  672MOL0     H90687   7.626   0.431   8.275 -0.2612 -1.9471 -1.6621
  672MOL0     H90688   7.609   0.622   8.044  1.0559 -0.6614 -0.3802
  672MOL0     H90689   7.485   0.526   8.111 -1.5223  2.4221  1.3377
  672MOL0     H90690   7.487   0.767   8.179 -0.9665 -2.0992 -0.4944
  672MOL0     H90691   7.635   0.735   8.273 -1.8266  3.5087  1.2503
  672MOL0     H90692   7.491   0.562   8.404  0.5251  0.9971  1.1257
  672MOL0     H90693   7.461   0.737   8.428 -2.3706  1.7309 -0.7085
  672MOL0     H90694   7.244   0.616   8.408  0.3866  2.5258 -0.0447
  672MOL0     H90695   7.276   0.574   8.236  1.3771 -0.0205 -1.0507
  672MOL0     H90696   7.232   0.836   8.381  1.0074  0.2603 -0.2715
  672MOL0     H90697   7.279   0.835   8.202  0.7198  0.9971  0.6791
  672MOL0     H90698   7.031   0.684   8.302  2.2021 -2.0181  0.9372
  672MOL0     H90699   7.114   0.692   8.136 -0.0193  4.4538 -2.0453
  672MOL0     H90700   6.946   0.840   8.106  0.9131  3.9579 -3.1240
  672MOL0     H90701   7.097   0.924   8.106 -0.6478  0.8390 -0.3428
  672MOL0     H90702   7.784   0.261   8.250 -0.7098 -1.7968  1.6663
  672MOL0     H90703   7.967   0.119   8.329  2.5437 -0.3537 -1.3827
  672MOL0     H90704   8.331   0.112   8.615  1.0202  1.4377 -0.2929
  672MOL0     H90705   8.480  -0.051   8.723 -0.4220  0.6075 -1.1759
  672MOL0     H90706   8.142   0.635   9.094 -0.1883 -0.0967 -0.5590
  672MOL0     H90707   8.380   0.564   9.049 -0.9009  1.3753  2.3347
  672MOL0     H90708   8.710   0.405   8.885  0.2993 -0.9624  0.7776
  672MOL0     H90709   8.935   0.331   8.859 -1.8030  2.6486 -1.2451
  672MOL0     H90710   9.169  -0.041   8.764 -1.5132  0.1457  2.1925
  672MOL0     H90711   9.022  -0.110   8.795 -1.9105  1.3718  2.7051
  672MOL0     H90712   8.920  -0.050   8.586 -0.9991 -0.4089 -1.9548
  672MOL0     H90713   9.075  -0.108   8.562 -0.8270  0.2255 -2.1399
  672MOL0     H90714   9.155   0.091   8.466  1.1478  1.2388 -1.3351
  672MOL0     H90715   9.069   0.194   8.583 -2.7068  0.0600  0.1329
  672MOL0     H90716   8.945   0.044   8.345  0.1356  0.5007 -0.5217
  672MOL0     H90717   8.996   0.213   8.350  1.9144 -0.8925  0.3057
  672MOL0     H90718   8.623   0.223   8.549 -0.3418  0.7719 -2.0789
  672MOL0     H90719   8.808  -0.069   8.859 -2.5076 -0.9909  1.2220
  672MOL0     H90720   8.573   0.002   8.915  0.3440 -0.7413 -2.3267
  673MOL0     O90721   1.978  10.438   0.192 -0.0785  0.0100 -0.4012
  673MOL0     C90722   2.025  10.531   0.255  1.0526  0.1364 -0.4943
  673MOL0     O90723   1.965  10.592   0.359 -0.2575 -0.3789 -0.2347
  673MOL0     C90724   1.841  10.559   0.405  0.2509 -0.7102 -0.4488
  673MOL0     C90725   1.822  10.489   0.521  0.1820  0.3289 -0.1160
  673MOL0     C90726   1.700  10.430   0.566  0.3039 -0.1595  0.5308
  673MOL0     C90727   1.585  10.450   0.486 -0.0899 -0.3620 -0.2284
  673MOL0     O90728   1.459  10.397   0.495 -0.0612 -0.1217  0.0074
  673MOL0     C90729   1.416  10.297   0.600  1.1754 -1.2313  0.6799
  673MOL0     C90730   1.356  10.179   0.525 -0.0221  0.0546 -0.2880
  673MOL0     C90731   1.289  10.070   0.617  0.7090  0.8404 -1.7134
  673MOL0     C90732   1.129  10.090   0.614 -0.0240  0.5929  0.4436
  673MOL0     C90733   1.046  10.045   0.732  0.2802 -0.1979 -0.9539
  673MOL0     C90734   1.043   9.890   0.770 -0.0445  0.0588 -0.0437
  673MOL0     C90735   1.001   9.860   0.917 -0.7616 -0.2879 -0.6846
  673MOL0     C90736   0.953   9.727   0.955  1.0846  0.4173  0.2064
  673MOL0     N90737   0.839   9.690   0.869  0.3349 -0.0113  0.4096
  673MOL0     C90738   0.706   9.692   0.913  0.0526  0.0211 -0.1559
  673MOL0     C90739   0.636   9.610   0.839  0.4684  0.0447 -0.2358
  673MOL0     C90740   0.489   9.578   0.848 -0.0149 -0.0784  0.3141
  673MOL0     C90741   0.464   9.475   0.965  0.9551  0.8696 -0.3351
  673MOL0     C90742   0.326   9.447   1.009  0.1668 -1.1854 -0.6451
  673MOL0     C90743   0.260   9.571   1.069  0.0070  0.4779 -0.1250
  673MOL0     O90744   0.133   9.539   1.138 -0.0418 -0.1164  0.0139
  673MOL0     C90745   0.021   9.607   1.095 -0.1461  0.3609 -0.1182
  673MOL0     C90746  -0.081   9.609   1.188  0.9081  0.1072  0.5769
  673MOL0     C90747  -0.212   9.660   1.158  0.5771 -0.8725 -0.3176
  673MOL0     C90748  -0.330   9.629   1.252  0.4950 -0.7771  0.0116
  673MOL0     C90749  -0.236   9.736   1.040 -0.0861  0.0085 -0.4910
  673MOL0     C90750  -0.340   9.829   1.029 -0.0521 -0.5261 -0.0284
  673MOL0     O90751  -0.321   9.916   0.926  0.1144  0.0323  0.1850
  673MOL0     C90752  -0.411  10.013   0.896  0.4386 -0.5382 -0.0188
  673MOL0     C90753  -0.372  10.145   0.880  0.0366  0.2970 -0.6493
  673MOL0     C90754  -0.466  10.239   0.839 -0.5135 -0.3366 -0.8895
  673MOL0     C90755  -0.604  10.208   0.828 -0.1978  0.1934  0.2369
  673MOL0     O90756  -0.683  10.312   0.792 -0.8140 -0.0907  0.3139
  673MOL0     C90757  -0.818  10.287   0.776  1.1268  0.4514  0.9240
  673MOL0     C90758  -0.861  10.266   0.637 -1.5199 -0.3075  0.6082
  673MOL0     C90759  -1.013  10.238   0.628 -0.0312  0.1472 -0.9987
  673MOL0     C90760  -1.075  10.269   0.495  0.7867  0.2300 -0.1914
  673MOL0     C90761  -1.181  10.165   0.448  0.0765 -0.9154  0.1082
  673MOL0     C90762  -1.217  10.184   0.297 -0.0226  0.0093  0.4658
  673MOL0     C90763  -1.277  10.319   0.259 -0.7215  0.4697 -0.2964
  673MOL0     C90764  -1.319  10.356   0.108 -0.8185  0.5942  0.1424
  673MOL0    Cl90765  -1.383  10.523   0.094  0.1892 -0.0535 -0.1357
  673MOL0     C90766  -0.636  10.072   0.843  0.0359 -0.4288  0.6339
  673MOL0     C90767  -0.549   9.978   0.879 -0.4255  0.0734 -0.1521
  673MOL0     O90768  -0.445   9.817   1.099 -0.1821  0.4530  0.6351
  673MOL0     C90769  -0.123   9.734   0.948 -0.7167  0.4793  0.1408
  673MOL0     C90770   0.000   9.659   0.973  0.1446  0.3104  1.1447
  673MOL0     N90771   0.722   9.555   0.741  0.1530 -0.1406 -0.0601
  673MOL0     N90772   0.846   9.605   0.761  0.5590  0.3007 -0.5921
  673MOL0     C90773   1.603  10.522   0.368 -0.0167  0.0281  0.1086
  673MOL0     C90774   1.725  10.583   0.328 -0.6252 -0.5062  0.2173
  673MOL0     C90775   2.162  10.585   0.213 -0.2443 -0.1345 -0.3114
  673MOL0     C90776   2.239  10.675   0.297  0.5482  1.0133 -1.1236
  673MOL0     C90777   2.370  10.707   0.262 -1.3474 -0.0751 -0.6156
  673MOL0     C90778   2.428  10.657   0.142 -0.3966 -0.6639 -0.4685
  673MOL0     O90779   2.553  10.666   0.086 -0.5564 -0.0262 -0.1799
  673MOL0     C90780   2.650  10.737   0.163 -0.2938 -0.1583  0.5243
  673MOL0     C90781   2.795  10.730   0.099  0.0163  0.0641  0.4637
  673MOL0     C90782   2.893  10.606   0.131 -0.7663 -0.5356 -0.5504
  673MOL0     C90783   3.043  10.621   0.137 -0.5561 -0.5103  0.6725
  673MOL0     C90784   3.091  10.712   0.240  0.8086 -0.1109 -0.4603
  673MOL0     C90785   3.150  10.789   0.312  0.0052 -0.5442 -0.4526
  673MOL0     C90786   2.347  10.576   0.060 -0.6384  0.3565  0.0533
  673MOL0     C90787   2.220  10.536   0.092  0.1012 -0.7640  0.1034
  673MOL0     H90788   1.908  10.456   0.579 -0.5676 -1.3709  0.0810
  673MOL0     H90789   1.703  10.373   0.659  1.7561 -0.4619  0.3325
  673MOL0     H90790   1.494  10.256   0.664  1.5834 -0.4043  0.7288
  673MOL0     H90791   1.337  10.346   0.657  1.6156 -1.6851  1.7158
  673MOL0     H90792   1.288  10.217   0.448 -1.7581  2.0841  2.1016
  673MOL0     H90793   1.441  10.139   0.468 -1.1696 -1.8767 -0.7307
  673MOL0     H90794   1.313   9.965   0.594 -2.2059 -0.2883 -0.0622
  673MOL0     H90795   1.316  10.080   0.722  1.5216 -0.8977 -1.7142
  673MOL0     H90796   1.118  10.199   0.609 -2.1652  0.3842 -1.2902
  673MOL0     H90797   1.093  10.043   0.522  1.7024  1.5902 -0.7878
  673MOL0     H90798   1.082  10.093   0.823  0.2263  1.8787 -1.9855
  673MOL0     H90799   0.946  10.087   0.718 -0.2915 -1.1547  0.0769
  673MOL0     H90800   0.985   9.840   0.692  0.7977  3.1883 -2.8704
  673MOL0     H90801   1.147   9.861   0.753 -1.1148 -2.0678 -4.1800
  673MOL0     H90802   1.081   9.870   0.991  0.4530  0.4684 -2.0367
  673MOL0     H90803   0.922   9.931   0.942 -1.5001 -1.6967  1.1911
  673MOL0     H90804   0.924   9.727   1.060 -1.4598  1.6697 -0.4187
  673MOL0     H90805   1.029   9.648   0.955  1.5463  0.8565 -0.1628
  673MOL0     H90806   0.676   9.752   0.999 -0.2192 -1.7202  1.0188
  673MOL0     H90807   0.437   9.672   0.868 -0.3731 -0.0097 -0.8477
  673MOL0     H90808   0.474   9.544   0.745  1.6889  2.8310 -1.0157
  673MOL0     H90809   0.512   9.517   1.054  1.3415 -2.6808  1.3245
  673MOL0     H90810   0.513   9.380   0.942  0.4808 -0.5283  3.6148
  673MOL0     H90811   0.337   9.365   1.080 -0.1036  1.2295  2.3935
  673MOL0     H90812   0.268   9.414   0.922  1.1766  0.9139 -2.1998
  673MOL0     H90813   0.262   9.655   1.000  1.8267  2.5089  2.1979
  673MOL0     H90814   0.322   9.620   1.145  0.7367 -0.6605  0.0522
  673MOL0     H90815  -0.056   9.561   1.282 -1.7849 -0.9388  0.8292
  673MOL0     H90816  -0.296   9.557   1.326 -0.8021 -0.9925  0.4283
  673MOL0     H90817  -0.377   9.712   1.307  0.2813  0.0241 -1.3277
  673MOL0     H90818  -0.410   9.580   1.195  0.3512  0.4056 -0.8642
  673MOL0     H90819  -0.271  10.176   0.905 -0.4171  2.1608 -0.9287
  673MOL0     H90820  -0.428  10.339   0.823 -3.1757  1.3611  2.1376
  673MOL0     H90821  -0.872  10.216   0.840 -2.8192  1.5554 -0.9114
  673MOL0     H90822  -0.868  10.383   0.792 -0.7603  0.2705 -2.9676
  673MOL0     H90823  -0.837  10.358   0.582 -0.7741 -0.6168  0.4026
  673MOL0     H90824  -0.800  10.180   0.609  0.7326 -0.9689  6.0932
  673MOL0     H90825  -1.066  10.306   0.695 -1.1491 -3.2082  1.7943
  673MOL0     H90826  -1.044  10.139   0.664 -2.6996  2.1181  2.7903
  673MOL0     H90827  -1.111  10.372   0.495 -1.8985 -0.6156  0.4258
  673MOL0     H90828  -1.000  10.255   0.416 -0.3213  2.6454 -1.7921
  673MOL0     H90829  -1.265  10.165   0.519  0.3639  2.3314  0.6034
  673MOL0     H90830  -1.137  10.065   0.445 -0.1530 -0.9891 -1.3728
  673MOL0     H90831  -1.119  10.183   0.248  0.6394  2.0646  1.6078
  673MOL0     H90832  -1.288  10.108   0.263  2.8213 -2.6539  0.0160
  673MOL0     H90833  -1.212  10.402   0.286 -0.9415  0.8505 -0.9177
  673MOL0     H90834  -1.363  10.336   0.325 -1.4836 -0.8815 -0.8915
  673MOL0     H90835  -1.393  10.280   0.078 -0.1824  0.4943 -1.2597
  673MOL0     H90836  -1.229  10.345   0.047 -0.9717  3.1900 -0.6461
  673MOL0     H90837  -0.736  10.037   0.821 -0.4535  0.6842  0.9983
  673MOL0     H90838  -0.572   9.872   0.887  0.2816 -0.1481 -0.9411
  673MOL0     H90839  -0.138   9.782   0.852 -2.4058  1.5206  0.8607
  673MOL0     H90840   0.072   9.662   0.892  0.0204  0.2770  1.0342
  673MOL0     H90841   1.509  10.533   0.315  1.8641  0.4487 -3.4521
  673MOL0     H90842   1.739  10.640   0.237 -1.1892  2.4387  1.8303
  673MOL0     H90843   2.195  10.714   0.389  1.0024  1.2501 -1.0025
  673MOL0     H90844   2.426  10.782   0.317 -0.9284  0.2863 -1.5147
  673MOL0     H90845   2.631  10.840   0.134  0.4315 -0.8418 -2.7617
  673MOL0     H90846   2.640  10.734   0.272 -0.0016  1.3457  0.6186
  673MOL0     H90847   2.842  10.810   0.156  0.2833 -1.9090  3.2201
  673MOL0     H90848   2.796  10.741  -0.010  1.7566 -1.0136  0.3372
  673MOL0     H90849   2.862  10.524   0.065  0.9497  0.5966 -2.9242
  673MOL0     H90850   2.864  10.574   0.231 -0.8663 -0.3412 -0.5161
  673MOL0     H90851   3.077  10.656   0.039 -3.0197 -1.6122 -0.6923
  673MOL0     H90852   3.075  10.518   0.151  1.7531  0.1474  0.6206
  673MOL0     H90853   3.200  10.860   0.375 -1.3276  1.1333 -1.2068
  673MOL0     H90854   2.387  10.540  -0.034 -1.6583  0.2654 -0.3536
  673MOL0     H90855   2.157  10.480   0.023 -1.9273  2.3606 -0.7991
  674MOL0     O90856  11.344   7.982  10.758 -0.2373  0.1392  0.5734
  674MOL0     C90857  11.453   8.039  10.730  0.3253 -0.1199  0.6491
  674MOL0     O90858  11.558   8.054  10.808  0.7418 -0.4669 -0.9817
  674MOL0     C90859  11.562   7.973  10.919  0.1733 -0.8834  0.5279
  674MOL0     C90860  11.458   7.972  11.011  0.5335  0.6506  0.2258
  674MOL0     C90861  11.456   7.883  11.122 -0.6741 -0.2309  0.0181
  674MOL0     C90862  11.570   7.793  11.134  0.2881 -0.6855 -0.6984
  674MOL0     O90863  11.575   7.722  11.247 -0.3898  0.3698 -0.1488
  674MOL0     C90864  11.607   7.581  11.226 -0.2061 -0.2236  0.2609
  674MOL0     C90865  11.617   7.502  11.354 -0.1985 -0.1351 -0.1181
  674MOL0     C90866  11.684   7.357  11.332  0.3599  0.0044 -0.7850
  674MOL0     C90867  11.692   7.288  11.474  0.1597 -0.9385 -0.2219
  674MOL0     C90868  11.792   7.169  11.484  0.2798 -0.2018  0.0959
  674MOL0     C90869  11.797   7.104  11.626 -0.1315  0.4897  0.3912
  674MOL0     C90870  11.683   7.000  11.660 -0.1640 -0.0524 -0.5151
  674MOL0     C90871  11.701   6.953  11.805 -0.3626 -0.7205  0.1738
  674MOL0     N90872  11.603   6.852  11.839 -0.8742  0.0568  0.6071
  674MOL0     C90873  11.595   6.711  11.832  0.7964 -0.7691  0.4729
  674MOL0     C90874  11.468   6.681  11.892 -1.3317  0.3500 -0.5916
  674MOL0     C90875  11.406   6.547  11.920 -0.0849  0.1563  0.3308
  674MOL0     C90876  11.488   6.452  12.014  0.8117 -1.1081 -0.3192
  674MOL0     C90877  11.488   6.499  12.163  0.3223 -0.4758 -0.4845
  674MOL0     C90878  11.347   6.539  12.234 -0.1624  1.2050  0.5887
  674MOL0     O90879  11.267   6.415  12.243  0.0923  0.4511  0.0940
  674MOL0     C90880  11.288   6.344  12.358  0.9123  0.2682  0.3232
  674MOL0     C90881  11.340   6.213  12.342  1.3061 -0.4731 -0.0016
  674MOL0     C90882  11.328   6.120  12.452 -0.9682 -0.1791  0.4958
  674MOL0     C90883  11.369   5.985  12.411  0.4457  0.0739  0.5632
  674MOL0     C90884  11.288   6.166  12.576 -0.3013 -0.1761  0.2235
  674MOL0     C90885  11.293   6.080  12.698  0.7389  0.3835 -1.1351
  674MOL0     O90886  11.258   6.146  12.816 -0.3966 -0.2569 -0.3246
  674MOL0     C90887  11.258   6.075  12.936 -0.2767 -0.6112 -0.0382
  674MOL0     C90888  11.174   6.127  13.032 -0.5237 -0.0662 -0.0572
  674MOL0     C90889  11.185   6.097  13.165  0.2675  1.1150 -0.1578
  674MOL0     C90890  11.284   6.008  13.210  0.0852  0.1329 -0.7520
  674MOL0     O90891  11.275   5.972  13.342  0.3542  0.2620 -0.8692
  674MOL0     C90892  11.395   5.997  13.422  0.0569  0.4346  0.4514
  674MOL0     C90893  11.360   6.028  13.573 -0.8769  0.4136 -0.2884
  674MOL0     C90894  11.488   6.075  13.652  0.1553 -1.0362 -0.9044
  674MOL0     C90895  11.455   6.182  13.765  0.3899  0.7961 -0.3012
  674MOL0     C90896  11.592   6.244  13.801 -0.5182 -0.6273 -0.1369
  674MOL0     C90897  11.677   6.141  13.881  0.4229 -0.1923 -0.6011
  674MOL0     C90898  11.822   6.185  13.918 -0.2664 -0.0577  0.1393
  674MOL0     C90899  11.884   6.087  14.026 -0.0679  0.3221  0.5948
  674MOL0    Cl90900  11.779   6.092  14.181 -0.0104 -0.4428  0.1619
  674MOL0     C90901  11.364   5.941  13.113  0.7624  0.3242 -1.1501
  674MOL0     C90902  11.354   5.980  12.974  0.6177  0.9790  0.6906
  674MOL0     O90903  11.311   5.957  12.684 -0.7792  0.2560 -0.3823
  674MOL0     C90904  11.232   6.292  12.589 -0.3107  0.9412 -0.3253
  674MOL0     C90905  11.228   6.385  12.478 -0.6891 -0.0362 -1.3386
  674MOL0     N90906  11.413   6.797  11.919  0.8788  0.6701 -0.5288
  674MOL0     N90907  11.490   6.896  11.895 -0.5665  0.0722  0.1481
  674MOL0     C90908  11.683   7.814  11.053  0.4120 -0.2970  0.7455
  674MOL0     C90909  11.678   7.901  10.939  0.4142  0.5664 -0.7856
  674MOL0     C90910  11.453   8.115  10.599 -1.0745  0.1899 -0.4302
  674MOL0     C90911  11.574   8.182  10.557  0.4947  0.8885  0.8032
  674MOL0     C90912  11.584   8.235  10.419 -0.1976  0.2382 -0.0475
  674MOL0     C90913  11.470   8.245  10.336 -0.6178  0.0811  0.9122
  674MOL0     O90914  11.492   8.322  10.224 -0.2405  0.1839 -0.0572
  674MOL0     C90915  11.377   8.389  10.169  0.1850 -0.7242 -0.6926
  674MOL0     C90916  11.414   8.453  10.037  0.7194 -0.6488 -1.5589
  674MOL0     C90917  11.289   8.491   9.954  0.0818 -0.5313 -0.5853
  674MOL0     C90918  11.322   8.582   9.834 -0.6249  0.3782 -0.1426
  674MOL0     C90919  11.192   8.640   9.796  0.0437 -0.3007 -0.1357
  674MOL0     C90920  11.084   8.686   9.754 -0.5979 -0.1553  0.3177
  674MOL0     C90921  11.351   8.201  10.388 -0.9394  0.0403  0.0425
  674MOL0     C90922  11.345   8.133  10.510  0.5716 -0.3592  0.1918
  674MOL0     H90923  11.369   8.034  11.005 -2.2136 -2.8579  1.2641
  674MOL0     H90924  11.379   7.891  11.198  0.4914 -1.0218  1.3378
  674MOL0     H90925  11.529   7.540  11.161 -2.0345 -1.6566  3.1094
  674MOL0     H90926  11.693   7.569  11.160 -1.3646 -3.4947 -0.8508
  674MOL0     H90927  11.687   7.561  11.414  0.5016 -1.9702  0.9572
  674MOL0     H90928  11.523   7.487  11.407 -0.0878 -1.3995 -0.2385
  674MOL0     H90929  11.628   7.296  11.261  2.0503  3.6310 -5.8085
  674MOL0     H90930  11.786   7.355  11.293 -0.8096 -0.9431 -4.0800
  674MOL0     H90931  11.713   7.355  11.557 -3.0256 -1.3670  1.0674
  674MOL0     H90932  11.591   7.257  11.501  0.6220 -1.3596  1.1174
  674MOL0     H90933  11.754   7.097  11.410 -1.3986 -0.4290  1.1244
  674MOL0     H90934  11.891   7.194  11.445  0.1475 -0.2351 -0.2698
  674MOL0     H90935  11.894   7.054  11.619  0.3084  1.3658  0.1970
  674MOL0     H90936  11.793   7.181  11.704 -1.2524  0.1944  0.6529
  674MOL0     H90937  11.583   7.038  11.636 -0.6002 -2.5509 -3.2150
  674MOL0     H90938  11.707   6.908  11.605  3.3434  0.7258 -0.5411
  674MOL0     H90939  11.696   7.038  11.873 -0.8598  2.3749 -3.3595
  674MOL0     H90940  11.807   6.927  11.813  0.2280  0.7958 -1.6779
  674MOL0     H90941  11.668   6.642  11.792  0.9118 -0.7461  0.6412
  674MOL0     H90942  11.311   6.549  11.974 -0.0599 -0.1940  0.3841
  674MOL0     H90943  11.399   6.496  11.824  1.8192 -2.0237  1.2508
  674MOL0     H90944  11.591   6.437  11.980  3.1559  3.7200  3.4115
  674MOL0     H90945  11.440   6.353  12.011 -1.9096  0.1043 -0.1872
  674MOL0     H90946  11.542   6.594  12.174 -1.8676  0.7965 -0.1299
  674MOL0     H90947  11.539   6.434  12.235  0.9607 -0.8247 -1.2400
  674MOL0     H90948  11.307   6.617  12.169 -1.9071  0.8793  1.2279
  674MOL0     H90949  11.366   6.579  12.334 -0.4840 -0.3547  1.3003
  674MOL0     H90950  11.369   6.182  12.242  1.8970  0.8505 -0.2614
  674MOL0     H90951  11.473   5.968  12.441  0.2929 -0.6384  0.6993
  674MOL0     H90952  11.312   5.903  12.456  1.4672  0.4224  2.6678
  674MOL0     H90953  11.359   5.973  12.303  5.8761  0.3589 -0.2715
  674MOL0     H90954  11.088   6.192  13.014  0.5848  1.9978  1.6868
  674MOL0     H90955  11.112   6.143  13.230  0.1924  1.6023 -0.5843
  674MOL0     H90956  11.466   5.915  13.433  1.7718  1.9578  1.3322
  674MOL0     H90957  11.453   6.077  13.374  1.1710  1.7068  3.6464
  674MOL0     H90958  11.288   6.111  13.577 -0.8961  0.3473  1.8833
  674MOL0     H90959  11.315   5.945  13.628 -0.5725 -1.3601 -2.5772
  674MOL0     H90960  11.566   6.125  13.594 -1.5815  3.3578  0.1849
  674MOL0     H90961  11.539   5.988  13.697  1.0605 -1.3605 -2.4780
  674MOL0     H90962  11.375   6.242  13.721 -1.4013 -2.5944 -2.0503
  674MOL0     H90963  11.423   6.128  13.855  5.0854  1.1475  1.9111
  674MOL0     H90964  11.577   6.331  13.867 -0.5954 -0.0800 -0.8655
  674MOL0     H90965  11.647   6.275  13.712 -0.2381  0.0506  0.2657
  674MOL0     H90966  11.620   6.119  13.971  0.3566 -1.6021 -0.9704
  674MOL0     H90967  11.682   6.055  13.814 -0.3474  0.3535 -1.3738
  674MOL0     H90968  11.818   6.283  13.966  1.5080  0.4855 -0.7193
  674MOL0     H90969  11.884   6.191  13.828 -0.1266  1.9657  0.3204
  674MOL0     H90970  11.988   6.120  14.040 -1.3783  5.2071  0.3352
  674MOL0     H90971  11.883   5.984  13.988 -0.0897  0.0695  1.2765
  674MOL0     H90972  11.441   5.868  13.132 -1.5751 -1.4635  2.7561
  674MOL0     H90973  11.421   5.933  12.903 -3.0329  0.5842 -2.8341
  674MOL0     H90974  11.180   6.327  12.678 -0.9992  2.4727 -1.2849
  674MOL0     H90975  11.187   6.486  12.474  0.8847  0.7617  0.5070
  674MOL0     H90976  11.777   7.765  11.076  0.6132 -0.2501  0.0453
  674MOL0     H90977  11.758   7.924  10.870 -0.6713  1.0454 -1.9445
  674MOL0     H90978  11.666   8.184  10.614  2.9984 -1.7189 -2.6733
  674MOL0     H90979  11.673   8.283  10.381 -0.2168  0.8369  0.6414
  674MOL0     H90980  11.296   8.316  10.169  2.8545 -4.1013  2.7528
  674MOL0     H90981  11.337   8.465  10.237  2.4265 -0.2916  0.2348
  674MOL0     H90982  11.475   8.378   9.987  0.0301 -2.0461 -0.3598
  674MOL0     H90983  11.474   8.543  10.053  0.9942 -0.6912 -2.3101
  674MOL0     H90984  11.223   8.541  10.026 -0.4739 -1.9082 -0.0929
  674MOL0     H90985  11.236   8.399   9.925  0.1028 -0.2012 -1.7101
  674MOL0     H90986  11.363   8.518   9.756 -0.1142 -1.9967  1.9382
  674MOL0     H90987  11.400   8.657   9.854 -0.2607 -0.1336  0.4147
  674MOL0     H90988  10.997   8.740   9.722  0.1999  2.0591  1.6424
  674MOL0     H90989  11.253   8.228  10.348 -0.3767  1.0805 -0.6826
  674MOL0     H90990  11.247   8.099  10.541 -1.1389 -0.8935 -4.7742
  675MOL0     O90991   2.544   1.697   6.978  0.4285 -0.0126 -0.4462
  675MOL0     C90992   2.427   1.740   6.958 -1.1066  1.2554  0.0138
  675MOL0     O90993   2.341   1.687   6.862 -0.1737 -0.2992  0.2185
  675MOL0     C90994   2.406   1.607   6.770  0.3338 -0.2848  0.5936
  675MOL0     C90995   2.448   1.653   6.639 -0.1422  0.2952 -0.0314
  675MOL0     C90996   2.500   1.557   6.542  1.3150  0.0527  0.4824
  675MOL0     C90997   2.509   1.419   6.577 -0.1764  0.4437 -0.7655
  675MOL0     O90998   2.555   1.320   6.493  0.0451 -0.5354  0.0960
  675MOL0     C90999   2.627   1.363   6.379 -0.5992 -0.1667  0.3912
  675MOL0     C91000   2.729   1.253   6.331 -0.1402 -0.6258  0.4320
  675MOL0     C91001   2.837   1.217   6.431 -0.8722 -0.0747  0.2712
  675MOL0     C91002   2.932   1.333   6.458  0.1994 -0.1298  0.0833
  675MOL0     C91003   3.057   1.302   6.544 -0.3886  0.6225  0.5083
  675MOL0     C91004   3.030   1.230   6.674 -0.0909  0.0159 -0.2770
  675MOL0     C91005   3.167   1.195   6.739 -0.1011  0.2697  0.5136
  675MOL0     C91006   3.128   1.165   6.885  0.2405  0.3463  0.3948
  675MOL0     N91007   3.231   1.085   6.947 -0.7213 -1.2119  0.8233
  675MOL0     C91008   3.247   0.949   6.936  0.3945 -0.1065 -0.5908
  675MOL0     C91009   3.362   0.915   7.008 -0.9384  0.3160  0.6529
  675MOL0     C91010   3.415   0.776   7.028 -0.5539 -0.7384  0.9863
  675MOL0     C91011   3.399   0.722   7.172  0.2447  0.2830  0.0918
  675MOL0     C91012   3.497   0.801   7.261 -0.3438 -1.4957 -0.0758
  675MOL0     C91013   3.482   0.755   7.403 -0.2141 -0.5440  0.4787
  675MOL0     O91014   3.512   0.617   7.409 -0.5379 -0.0254 -0.8998
  675MOL0     C91015   3.643   0.571   7.404  0.6960  0.9557  0.8995
  675MOL0     C91016   3.752   0.635   7.434  1.0866  0.7918 -0.7393
  675MOL0     C91017   3.880   0.582   7.429 -0.0015  0.5404 -0.8676
  675MOL0     C91018   4.003   0.661   7.481 -0.1885  0.1777  1.5921
  675MOL0     C91019   3.892   0.454   7.371 -0.7054  0.6687 -0.6868
  675MOL0     C91020   4.023   0.374   7.357  0.1899  0.0510 -1.1893
  675MOL0     O91021   4.019   0.263   7.291 -0.0105 -0.1371  0.1289
  675MOL0     C91022   4.128   0.180   7.298 -0.2587 -0.9351 -1.3715
  675MOL0     C91023   4.158   0.114   7.417 -0.8219 -0.1146  0.1475
  675MOL0     C91024   4.243   0.006   7.424  0.0475 -0.0186  1.4387
  675MOL0     C91025   4.297  -0.053   7.299 -0.4868  0.0855 -0.8179
  675MOL0     O91026   4.381  -0.158   7.317  0.3033  0.1464  0.0726
  675MOL0     C91027   4.300  -0.272   7.279  0.2043  0.4239  0.8821
  675MOL0     C91028   4.396  -0.374   7.247 -0.0105  0.7033 -0.7843
  675MOL0     C91029   4.321  -0.505   7.229  0.2511  0.7194  0.1104
  675MOL0     C91030   4.413  -0.626   7.189  0.4901 -0.2289  0.1639
  675MOL0     C91031   4.351  -0.768   7.195  0.4486 -0.2254  0.8612
  675MOL0     C91032   4.456  -0.862   7.141  0.0081 -0.0803  0.0590
  675MOL0     C91033   4.433  -1.003   7.199 -1.1747  0.1765 -0.6962
  675MOL0     C91034   4.491  -1.118   7.113 -0.7625  0.0919 -0.5471
  675MOL0    Cl91035   4.676  -1.129   7.100  0.8027  0.1935 -0.0698
  675MOL0     C91036   4.251  -0.002   7.184  0.0539  1.1895  0.5225
  675MOL0     C91037   4.178   0.118   7.179 -0.3455 -0.0009 -0.3675
  675MOL0     O91038   4.128   0.422   7.402  0.2478 -0.4411  0.0358
  675MOL0     C91039   3.777   0.388   7.323 -0.0491  0.3937 -0.1309
  675MOL0     C91040   3.655   0.454   7.335 -0.0179  0.7416 -0.5041
  675MOL0     N91041   3.419   1.035   7.056 -0.7057 -0.9294  0.0434
  675MOL0     N91042   3.339   1.132   7.017  0.1049 -0.3026  0.4702
  675MOL0     C91043   2.465   1.384   6.703  0.0157  0.0314 -0.1317
  675MOL0     C91044   2.403   1.473   6.784  0.7196  0.3145 -0.5010
  675MOL0     C91045   2.366   1.840   7.048  0.8820  0.6263  0.6961
  675MOL0     C91046   2.221   1.850   7.043  0.4547 -0.2176 -0.7117
  675MOL0     C91047   2.165   1.954   7.109  0.0523  0.1052 -0.0989
  675MOL0     C91048   2.239   2.044   7.191 -1.3341  0.2689 -0.1640
  675MOL0     O91049   2.181   2.151   7.251 -0.0349 -0.5199  0.0938
  675MOL0     C91050   2.040   2.169   7.234  0.6580  0.6358 -0.0158
  675MOL0     C91051   1.986   2.279   7.318  0.5642 -0.2092 -1.2526
  675MOL0     C91052   1.986   2.406   7.235  0.1721  0.6528 -0.5887
  675MOL0     C91053   1.951   2.539   7.298 -0.6134  0.2448  0.2225
  675MOL0     C91054   2.070   2.590   7.366  1.3984 -0.2873 -0.2723
  675MOL0     C91055   2.163   2.655   7.412  0.6826 -0.6728 -0.2029
  675MOL0     C91056   2.383   2.026   7.206  1.0951 -0.8100 -0.0203
  675MOL0     C91057   2.441   1.924   7.129  0.4803  0.7833  0.1809
  675MOL0     H91058   2.435   1.758   6.617 -0.2750 -0.5535 -5.5506
  675MOL0     H91059   2.523   1.583   6.439  2.3096 -0.5734  0.5336
  675MOL0     H91060   2.557   1.383   6.298  0.1620 -2.0142 -0.7805
  675MOL0     H91061   2.685   1.451   6.409  0.8112 -0.6690 -0.7372
  675MOL0     H91062   2.676   1.165   6.295 -0.7899 -1.2344  2.6938
  675MOL0     H91063   2.767   1.304   6.242 -3.3384 -0.8498 -1.2164
  675MOL0     H91064   2.804   1.178   6.527  0.5388 -0.8405  0.4664
  675MOL0     H91065   2.899   1.142   6.381  2.2528  0.6416  2.7402
  675MOL0     H91066   2.949   1.380   6.360 -2.2842  0.5919 -0.0721
  675MOL0     H91067   2.885   1.414   6.515 -2.3063 -1.9674  0.7938
  675MOL0     H91068   3.126   1.253   6.474 -1.5166  1.1325 -1.0049
  675MOL0     H91069   3.090   1.400   6.577 -0.5499  0.8815 -0.0840
  675MOL0     H91070   2.973   1.293   6.743  1.4652 -1.6491  2.7688
  675MOL0     H91071   2.971   1.138   6.667 -2.3370  1.5181 -2.4862
  675MOL0     H91072   3.211   1.113   6.682  2.0083  2.6632 -1.5791
  675MOL0     H91073   3.240   1.276   6.735  1.5318 -1.1722 -0.4000
  675MOL0     H91074   3.034   1.110   6.896 -1.3434  2.8281  0.1694
  675MOL0     H91075   3.121   1.263   6.933  2.5675 -0.4131  2.5270
  675MOL0     H91076   3.184   0.885   6.874  1.7360 -0.3046 -1.7893
  675MOL0     H91077   3.362   0.706   6.964 -0.2856  0.6777 -0.8706
  675MOL0     H91078   3.516   0.773   6.988 -0.6433  2.5890  0.1810
  675MOL0     H91079   3.433   0.618   7.172 -0.1483  0.0732  3.3321
  675MOL0     H91080   3.292   0.721   7.194  0.0988  0.3800 -0.5788
  675MOL0     H91081   3.484   0.909   7.253 -2.1634 -1.6894 -0.2425
  675MOL0     H91082   3.599   0.769   7.238 -0.3696 -2.5422  1.1866
  675MOL0     H91083   3.383   0.780   7.443 -0.8461 -1.7373 -0.2369
  675MOL0     H91084   3.545   0.820   7.464  1.3114 -2.0157  0.5403
  675MOL0     H91085   3.742   0.737   7.470 -5.2221  0.0833  0.6240
  675MOL0     H91086   4.070   0.674   7.395 -3.2468  0.7547 -0.8831
  675MOL0     H91087   3.968   0.763   7.498 -1.0072  0.1029  0.5136
  675MOL0     H91088   4.053   0.615   7.566  0.6518  0.7586  1.4278
  675MOL0     H91089   4.108   0.155   7.503  0.6761 -0.7044  1.3405
  675MOL0     H91090   4.277  -0.030   7.521 -0.7287 -1.6092  1.1467
  675MOL0     H91091   4.235  -0.315   7.355  0.5196 -1.3131  0.2208
  675MOL0     H91092   4.253  -0.260   7.180  1.0074 -1.9392  0.1527
  675MOL0     H91093   4.451  -0.358   7.154  1.4627  1.4090  0.1690
  675MOL0     H91094   4.469  -0.383   7.328 -1.7853  0.6211  0.8693
  675MOL0     H91095   4.240  -0.500   7.156 -1.1538 -3.1550  1.1751
  675MOL0     H91096   4.274  -0.522   7.326 -0.0235  3.2454  0.4868
  675MOL0     H91097   4.449  -0.612   7.087  3.6688 -0.2884  1.1697
  675MOL0     H91098   4.496  -0.637   7.259 -1.4883 -1.2373  2.5471
  675MOL0     H91099   4.256  -0.786   7.143 -0.2117 -2.7311  2.7274
  675MOL0     H91100   4.336  -0.789   7.301 -1.4806  2.8962  1.3264
  675MOL0     H91101   4.461  -0.872   7.032  3.0632  0.5230  0.0696
  675MOL0     H91102   4.555  -0.828   7.172 -0.1179  0.5109 -0.1878
  675MOL0     H91103   4.327  -1.022   7.221 -1.2728  2.5371  1.2505
  675MOL0     H91104   4.489  -0.999   7.293  0.0209 -4.2069 -0.9612
  675MOL0     H91105   4.454  -1.125   7.011 -4.4203  0.4642  0.5889
  675MOL0     H91106   4.448  -1.205   7.164  0.3554  1.3847  2.8828
  675MOL0     H91107   4.283  -0.054   7.093 -0.6180 -0.2598  1.0734
  675MOL0     H91108   4.156   0.162   7.082  0.0568  1.4487  0.1653
  675MOL0     H91109   3.778   0.296   7.266 -0.0982  0.7297 -0.6862
  675MOL0     H91110   3.563   0.403   7.307  0.4674 -1.2638  1.2672
  675MOL0     H91111   2.478   1.282   6.736  2.3592  0.3957  0.2672
  675MOL0     H91112   2.371   1.447   6.885  1.7713 -0.9116 -0.4545
  675MOL0     H91113   2.147   1.797   6.983 -0.1009 -0.6920  0.3456
  675MOL0     H91114   2.061   1.947   7.081  0.8624  1.0230 -3.8706
  675MOL0     H91115   2.032   2.172   7.125  2.0702 -4.1870 -0.4592
  675MOL0     H91116   1.986   2.082   7.272 -0.6076  1.5116  0.2625
  675MOL0     H91117   2.041   2.292   7.411  0.4134  0.6533 -1.2730
  675MOL0     H91118   1.881   2.265   7.344  0.1030  3.3170 -0.6869
  675MOL0     H91119   1.913   2.384   7.156 -0.9908 -0.4612  0.7424
  675MOL0     H91120   2.081   2.402   7.182 -0.2118  0.5617 -1.2914
  675MOL0     H91121   1.873   2.521   7.372 -0.9300  1.1373  0.1161
  675MOL0     H91122   1.912   2.604   7.219 -0.0609  0.4418  0.1054
  675MOL0     H91123   2.241   2.688   7.477 -0.3391 -2.4143  2.0420
  675MOL0     H91124   2.442   2.088   7.273 -0.3670  0.9813 -0.3169
  675MOL0     H91125   2.543   1.890   7.143  0.2737  1.0496  2.8433
  676MOL0     O91126   1.081   5.699   2.943  0.1341  0.2853  0.4597
  676MOL0     C91127   1.024   5.635   2.848  0.2613  0.3141 -0.4343
  676MOL0     O91128   1.051   5.656   2.710  0.2710  0.7001  0.3950
  676MOL0     C91129   1.112   5.773   2.670  0.6338 -0.4910  0.4385
  676MOL0     C91130   1.060   5.903   2.710  0.7444  0.2251 -0.5623
  676MOL0     C91131   1.125   6.013   2.663 -0.3847  0.2932  0.3823
  676MOL0     C91132   1.229   5.998   2.568  0.2517  0.4793 -0.0661
  676MOL0     O91133   1.297   6.110   2.519 -0.6753  0.1488  0.5190
  676MOL0     C91134   1.306   6.241   2.574  0.7206  0.6743  0.2575
  676MOL0     C91135   1.397   6.244   2.696 -0.0947 -0.2359 -0.6363
  676MOL0     C91136   1.379   6.379   2.766 -0.4355  0.3815  0.2061
  676MOL0     C91137   1.512   6.424   2.813  0.8068 -0.4444  0.2455
  676MOL0     C91138   1.553   6.384   2.946  0.5358  0.6380 -0.0281
  676MOL0     C91139   1.484   6.462   3.059  1.3702  0.7307  0.7533
  676MOL0     C91140   1.548   6.604   3.089  0.0254  0.3591 -0.3263
  676MOL0     C91141   1.528   6.651   3.242 -0.0919 -0.1851  0.9879
  676MOL0     N91142   1.590   6.781   3.273  0.0166  0.3768 -0.0957
  676MOL0     C91143   1.528   6.908   3.303 -0.2232 -0.3534  0.4958
  676MOL0     C91144   1.637   6.977   3.316 -0.0555 -0.7888 -1.2073
  676MOL0     C91145   1.628   7.131   3.334 -0.4093  0.2874 -0.5102
  676MOL0     C91146   1.765   7.199   3.315 -0.0279 -0.5835 -0.3000
  676MOL0     C91147   1.750   7.352   3.315  0.5777 -0.4627  0.2998
  676MOL0     C91148   1.898   7.418   3.315  0.6744 -0.4446 -0.5500
  676MOL0     O91149   1.950   7.388   3.442  0.3236 -0.3936 -0.1996
  676MOL0     C91150   2.069   7.442   3.484  0.1484 -0.1499  0.1127
  676MOL0     C91151   2.074   7.447   3.626 -0.5123 -0.9749  0.2757
  676MOL0     C91152   2.192   7.495   3.686 -0.4834 -0.1336  0.5828
  676MOL0     C91153   2.206   7.482   3.830  0.0642  0.7357  0.2118
  676MOL0     C91154   2.301   7.551   3.605  0.9742  0.7982 -0.6005
  676MOL0     C91155   2.426   7.600   3.661 -0.7315  0.4509  0.2927
  676MOL0     O91156   2.517   7.658   3.567  0.6919  0.2246 -0.1770
  676MOL0     C91157   2.625   7.733   3.608  0.4589 -0.4121  1.1731
  676MOL0     C91158   2.719   7.745   3.508 -0.3194 -0.1875  0.0667
  676MOL0     C91159   2.849   7.796   3.535 -0.1949  1.0585  0.0843
  676MOL0     C91160   2.873   7.853   3.655 -0.3634 -0.2757  0.1947
  676MOL0     O91161   3.001   7.905   3.677  0.6547  0.2852 -0.2183
  676MOL0     C91162   3.011   8.017   3.770 -0.4252 -0.0304 -0.0467
  676MOL0     C91163   3.149   8.060   3.781  0.3237  0.5505 -0.7676
  676MOL0     C91164   3.227   7.972   3.890 -0.4833  0.1872  0.3170
  676MOL0     C91165   3.383   7.987   3.875  0.0953  0.1886  0.1367
  676MOL0     C91166   3.426   8.133   3.839 -0.1933 -0.0112 -0.1132
  676MOL0     C91167   3.392   8.238   3.951  0.3560  0.3984  0.2338
  676MOL0     C91168   3.436   8.378   3.886 -0.1286  0.1736 -0.5952
  676MOL0     C91169   3.437   8.469   4.009 -0.2406 -0.5438  0.3173
  676MOL0    Cl91170   3.602   8.464   4.093  0.4185  0.0849 -0.0301
  676MOL0     C91171   2.779   7.843   3.757  0.0752  0.4100 -0.5079
  676MOL0     C91172   2.650   7.786   3.734  0.1588 -0.0060 -0.0289
  676MOL0     O91173   2.450   7.584   3.779 -0.4657 -0.6851 -0.4254
  676MOL0     C91174   2.272   7.567   3.470  0.0968  0.1381  0.7379
  676MOL0     C91175   2.164   7.503   3.405 -0.4413 -0.7908 -0.0476
  676MOL0     N91176   1.753   6.912   3.289  0.1521 -0.4275 -0.1194
  676MOL0     N91177   1.722   6.787   3.272  0.0361 -0.2578  0.1580
  676MOL0     C91178   1.260   5.874   2.513 -0.2841 -0.4930 -0.4625
  676MOL0     C91179   1.204   5.767   2.573  0.5965 -0.1971 -0.3326
  676MOL0     C91180   0.925   5.533   2.884  0.0035 -0.1171 -0.8016
  676MOL0     C91181   0.827   5.480   2.795 -0.6610  0.5124  0.2666
  676MOL0     C91182   0.732   5.384   2.834 -0.0613 -1.3059 -0.1174
  676MOL0     C91183   0.729   5.334   2.960 -0.3571  0.3586 -0.2017
  676MOL0     O91184   0.626   5.246   2.992 -0.3538  0.7628  0.6596
  676MOL0     C91185   0.620   5.181   3.124  0.6089  0.3981 -1.0072
  676MOL0     C91186   0.553   5.276   3.232  0.5452  0.4042  0.7178
  676MOL0     C91187   0.407   5.316   3.183 -0.3448  0.1306 -0.7740
  676MOL0     C91188   0.324   5.185   3.164  0.8896 -0.6902  0.3363
  676MOL0     C91189   0.181   5.228   3.144 -0.4758  0.4936 -0.9572
  676MOL0     C91190   0.064   5.236   3.131  0.4131 -0.1579  0.2770
  676MOL0     C91191   0.832   5.383   3.047 -0.3812  0.0975  1.0939
  676MOL0     C91192   0.926   5.483   3.018 -0.1401 -1.0705  0.2891
  676MOL0     H91193   0.976   5.908   2.779 -0.8183 -0.0952 -2.3466
  676MOL0     H91194   1.080   6.109   2.684 -0.5235  0.8064 -1.9823
  676MOL0     H91195   1.348   6.307   2.497  2.0504 -1.8535 -1.3025
  676MOL0     H91196   1.214   6.291   2.605  1.8677  0.8111  3.9635
  676MOL0     H91197   1.369   6.168   2.769  0.6578 -0.0428 -0.1303
  676MOL0     H91198   1.500   6.223   2.664 -0.6508 -1.5462 -1.6755
  676MOL0     H91199   1.339   6.450   2.694  2.7136  0.9656 -1.1418
  676MOL0     H91200   1.313   6.370   2.853  0.7509 -0.2339  1.0746
  676MOL0     H91201   1.590   6.394   2.742  2.2603 -0.9730  1.9799
  676MOL0     H91202   1.519   6.533   2.817  1.8431 -0.4795 -0.2586
  676MOL0     H91203   1.535   6.277   2.953  0.1916  0.7960  1.8456
  676MOL0     H91204   1.662   6.391   2.943  0.4811  2.1290  0.3788
  676MOL0     H91205   1.376   6.477   3.057  1.1411 -0.8454 -1.0035
  676MOL0     H91206   1.502   6.396   3.144  1.7237 -0.7544 -0.4284
  676MOL0     H91207   1.655   6.610   3.067 -0.0025 -1.6215 -1.1758
  676MOL0     H91208   1.501   6.674   3.020  0.0721  0.7810  0.0647
  676MOL0     H91209   1.575   6.572   3.300 -2.7723 -1.2239  1.9279
  676MOL0     H91210   1.422   6.649   3.268 -0.6666 -1.9069 -1.2285
  676MOL0     H91211   1.427   6.942   3.319 -0.0116  1.1354 -1.0415
  676MOL0     H91212   1.555   7.173   3.264 -0.2347 -1.3363 -1.7410
  676MOL0     H91213   1.584   7.154   3.431  0.5222  0.0268 -0.0154
  676MOL0     H91214   1.803   7.173   3.215 -1.9115 -0.8502 -0.9964
  676MOL0     H91215   1.831   7.156   3.391 -0.9019 -2.4254 -0.5177
  676MOL0     H91216   1.708   7.385   3.410 -2.9735 -0.9364 -0.9632
  676MOL0     H91217   1.682   7.386   3.237 -0.1427  2.6684  2.1375
  676MOL0     H91218   1.905   7.525   3.295  2.6937 -0.9148 -2.9305
  676MOL0     H91219   1.952   7.360   3.239  0.7032  0.3487 -1.1545
  676MOL0     H91220   1.994   7.399   3.682 -0.9123  0.8604  1.3768
  676MOL0     H91221   2.199   7.574   3.889 -3.0774  0.7500  0.0061
  676MOL0     H91222   2.127   7.419   3.872  0.9161  1.0116  2.3246
  676MOL0     H91223   2.289   7.419   3.862 -0.6029 -0.3692 -0.1632
  676MOL0     H91224   2.717   7.708   3.406  5.8770 -1.4761 -0.0060
  676MOL0     H91225   2.936   7.787   3.471 -0.5834 -2.6683 -0.0973
  676MOL0     H91226   2.943   8.094   3.732 -0.8147  0.5965  1.8059
  676MOL0     H91227   2.974   7.988   3.869 -2.4107  0.4421 -0.6159
  676MOL0     H91228   3.190   8.038   3.682  0.8123 -2.2740 -0.0119
  676MOL0     H91229   3.164   8.163   3.816 -0.3592  0.0528  1.0964
  676MOL0     H91230   3.211   7.865   3.878 -0.4234  0.1162  0.8511
  676MOL0     H91231   3.198   8.000   3.991 -2.4136  0.2659 -0.2030
  676MOL0     H91232   3.429   7.943   3.963 -1.7776  0.4163  1.2641
  676MOL0     H91233   3.416   7.926   3.790 -2.6882 -2.9884  1.1412
  676MOL0     H91234   3.393   8.165   3.740  1.9664  5.2954  0.5579
  676MOL0     H91235   3.535   8.125   3.825 -0.3487  1.4954 -2.8541
  676MOL0     H91236   3.284   8.245   3.969  0.2815  2.1998 -0.6922
  676MOL0     H91237   3.439   8.213   4.046 -0.3409 -0.6709  0.3197
  676MOL0     H91238   3.359   8.407   3.814 -0.1758 -0.4479 -0.8012
  676MOL0     H91239   3.533   8.369   3.836  0.2594 -3.5936  0.5277
  676MOL0     H91240   3.361   8.437   4.080 -3.2002  3.9777 -0.3689
  676MOL0     H91241   3.415   8.573   3.980 -0.8319 -0.8887 -0.5260
  676MOL0     H91242   2.809   7.880   3.855 -2.5524  0.7077  0.2483
  676MOL0     H91243   2.576   7.795   3.812  0.0823 -2.6075  0.2702
  676MOL0     H91244   2.346   7.624   3.415  1.1557 -1.6322  0.2386
  676MOL0     H91245   2.160   7.505   3.296  2.3578  2.2360 -0.2372
  676MOL0     H91246   1.338   5.850   2.441  0.2788 -0.7365  0.2172
  676MOL0     H91247   1.245   5.667   2.563 -0.3528 -0.9161  2.3092
  676MOL0     H91248   0.828   5.498   2.688 -2.0341 -0.4463  0.0612
  676MOL0     H91249   0.656   5.355   2.762 -0.0994 -1.6647  0.0598
  676MOL0     H91250   0.573   5.083   3.117  0.3050  0.2197  2.0768
  676MOL0     H91251   0.721   5.160   3.162  0.3623 -0.4137 -0.7799
  676MOL0     H91252   0.618   5.363   3.237  2.2263 -0.6456 -1.3727
  676MOL0     H91253   0.546   5.228   3.330  0.1977  3.6046  2.3694
  676MOL0     H91254   0.397   5.379   3.094 -1.4804  0.4732 -0.4202
  676MOL0     H91255   0.366   5.376   3.264  4.3253  0.0445  1.9882
  676MOL0     H91256   0.329   5.120   3.252  2.1613  1.0514  1.6265
  676MOL0     H91257   0.366   5.134   3.077 -0.4017 -0.7876 -0.2477
  676MOL0     H91258  -0.042   5.241   3.113  0.5280 -2.1888 -1.3227
  676MOL0     H91259   0.838   5.345   3.149 -2.6573 -1.8614  0.5754
  676MOL0     H91260   1.002   5.525   3.084 -1.2056  0.1582  0.7893
  677MOL0     O91261   9.279  10.145   9.707 -0.4090  0.1673  0.0069
  677MOL0     C91262   9.233  10.052   9.769 -0.1814  0.5085 -0.1390
  677MOL0     O91263   9.262  10.014   9.893 -0.3166  0.0035 -0.4161
  677MOL0     C91264   9.322  10.091   9.988 -0.1521 -0.4361  0.8634
  677MOL0     C91265   9.411  10.201   9.970  0.4340  0.4818  0.2924
  677MOL0     C91266   9.448  10.287  10.077  0.5982  0.3186  0.1263
  677MOL0     C91267   9.407  10.252  10.206 -0.1183 -0.1090 -0.6290
  677MOL0     O91268   9.445  10.324  10.321 -0.3351  0.0543  0.7629
  677MOL0     C91269   9.477  10.462  10.324  0.3871 -0.4664 -0.4625
  677MOL0     C91270   9.533  10.511  10.464  0.1113 -0.1104 -0.2168
  677MOL0     C91271   9.612  10.400  10.535 -0.0328 -0.3641  0.9872
  677MOL0     C91272   9.650  10.438  10.681 -0.2118  0.0503 -0.4581
  677MOL0     C91273   9.537  10.387  10.769  0.2696  0.7617 -0.2313
  677MOL0     C91274   9.568  10.382  10.921 -0.0218  0.2855  1.2791
  677MOL0     C91275   9.641  10.504  10.968 -0.3266 -0.2598  0.1605
  677MOL0     C91276   9.623  10.531  11.113 -0.0368 -0.0760 -0.1491
  677MOL0     N91277   9.492  10.589  11.119 -0.6694 -0.3686 -0.1274
  677MOL0     C91278   9.465  10.720  11.095  0.4126 -0.3287 -0.4560
  677MOL0     C91279   9.341  10.741  11.154 -0.0231 -1.2288 -1.1518
  677MOL0     C91280   9.262  10.876  11.148  0.8889  1.0474  0.4596
  677MOL0     C91281   9.155  10.884  11.036 -0.0010 -0.1607  0.2708
  677MOL0     C91282   9.079  11.016  11.041 -0.3596 -0.3687 -0.6675
  677MOL0     C91283   9.011  11.048  11.181 -0.0331  0.9631  0.3219
  677MOL0     O91284   8.957  11.181  11.169 -0.1160 -0.5965  0.0981
  677MOL0     C91285   8.868  11.201  11.281  0.1586 -0.0763  0.9914
  677MOL0     C91286   8.830  11.118  11.382  0.1391 -0.0318  0.4499
  677MOL0     C91287   8.749  11.172  11.491  0.2458 -0.3421  0.3066
  677MOL0     C91288   8.726  11.075  11.608  0.3461  0.4913 -0.2209
  677MOL0     C91289   8.691  11.301  11.484 -0.4212 -0.5605 -0.0422
  677MOL0     C91290   8.590  11.358  11.586  1.0208 -0.4063  0.1507
  677MOL0     O91291   8.574  11.498  11.598 -0.4634 -0.1943 -0.4549
  677MOL0     C91292   8.513  11.552  11.707  0.5085  0.6258  0.4770
  677MOL0     C91293   8.549  11.516  11.838  0.2267  0.4286 -0.5556
  677MOL0     C91294   8.470  11.551  11.952 -0.2639  0.1268  0.4219
  677MOL0     C91295   8.365  11.649  11.937 -0.3335  0.4547 -0.0995
  677MOL0     O91296   8.307  11.677  12.057 -0.1532 -0.2472  0.4477
  677MOL0     C91297   8.298  11.822  12.077  0.0540 -0.2343  0.1305
  677MOL0     C91298   8.435  11.869  12.131 -0.2385  0.2448  0.2061
  677MOL0     C91299   8.435  12.022  12.164  0.0070  0.7040 -0.0787
  677MOL0     C91300   8.570  12.079  12.186 -0.6842 -0.6869 -0.2358
  677MOL0     C91301   8.556  12.226  12.221  0.6287 -1.2255  0.0382
  677MOL0     C91302   8.697  12.296  12.262  0.3654  0.4502  0.2231
  677MOL0     C91303   8.688  12.441  12.312  0.7168 -0.1833 -0.0267
  677MOL0     C91304   8.603  12.534  12.225 -0.0953  0.0381  1.2624
  677MOL0    Cl91305   8.658  12.525  12.054  0.6313 -0.6114 -0.0852
  677MOL0     C91306   8.335  11.698  11.813 -0.1939  0.0210  0.3725
  677MOL0     C91307   8.403  11.648  11.696 -0.5341 -0.8703 -0.3894
  677MOL0     O91308   8.530  11.275  11.658  0.3054 -0.1582  0.7339
  677MOL0     C91309   8.726  11.382  11.376 -0.4049 -0.0474 -0.0148
  677MOL0     C91310   8.821  11.331  11.285  0.3654 -0.3898 -0.7556
  677MOL0     N91311   9.301  10.625  11.202  0.2846 -0.3335 -0.3286
  677MOL0     N91312   9.384  10.537  11.186 -0.3977 -0.5595  0.8970
  677MOL0     C91313   9.340  10.136  10.231  0.8346  1.2680 -0.5190
  677MOL0     C91314   9.295  10.057  10.121  0.4313  0.2176  0.3137
  677MOL0     C91315   9.135   9.971   9.702  0.7680  0.7997  0.1216
  677MOL0     C91316   9.068  10.010   9.585  0.1086  0.7071 -0.3855
  677MOL0     C91317   8.962   9.935   9.535 -0.6564 -1.0738 -0.3552
  677MOL0     C91318   8.923   9.821   9.604 -0.2397  0.7595 -0.6924
  677MOL0     O91319   8.835   9.745   9.544 -0.1137  0.7475  0.9305
  677MOL0     C91320   8.736   9.665   9.617  0.5405  0.4963 -0.0312
  677MOL0     C91321   8.622   9.762   9.651  0.3577 -0.0786  0.1141
  677MOL0     C91322   8.522   9.671   9.719  0.0078  0.0584  1.1605
  677MOL0     C91323   8.401   9.751   9.773  0.0081  0.9074 -0.3508
  677MOL0     C91324   8.330   9.840   9.683 -1.0826  0.2470  0.1768
  677MOL0     C91325   8.271   9.922   9.614 -0.0234  0.2679  0.0999
  677MOL0     C91326   8.985   9.775   9.718 -0.3541 -0.4927 -0.4376
  677MOL0     C91327   9.089   9.851   9.770  0.8139  0.0922 -0.1624
  677MOL0     H91328   9.430  10.222   9.865  0.8106 -5.9991 -1.3480
  677MOL0     H91329   9.502  10.381  10.072 -1.8644  1.9124  1.1358
  677MOL0     H91330   9.553  10.480  10.247 -0.4116  0.0995 -1.1437
  677MOL0     H91331   9.394  10.532  10.313  0.6608  0.3838  2.2972
  677MOL0     H91332   9.603  10.594  10.451  1.1407 -1.2263 -2.4504
  677MOL0     H91333   9.446  10.529  10.527  1.8582  1.3019  1.9228
  677MOL0     H91334   9.557  10.308  10.515  1.6124 -1.0006 -1.0593
  677MOL0     H91335   9.695  10.392  10.463 -1.3178 -2.8542 -0.3575
  677MOL0     H91336   9.734  10.372  10.707 -0.6376 -0.3512 -0.0747
  677MOL0     H91337   9.674  10.543  10.695  0.9505  0.1592 -2.8828
  677MOL0     H91338   9.448  10.444  10.741  1.4001  2.8822  0.2835
  677MOL0     H91339   9.503  10.287  10.744  0.9901  0.3695  0.3142
  677MOL0     H91340   9.481  10.365  10.985  0.8361 -0.4071  2.3065
  677MOL0     H91341   9.637  10.300  10.941  0.7335  1.0733  1.9845
  677MOL0     H91342   9.745  10.484  10.944 -0.7358 -1.5863 -0.6154
  677MOL0     H91343   9.607  10.590  10.909  1.3014  0.1000 -0.2919
  677MOL0     H91344   9.699  10.604  11.145  0.6858 -0.9126  0.0757
  677MOL0     H91345   9.634  10.438  11.170 -0.2028 -0.4776 -0.7673
  677MOL0     H91346   9.525  10.798  11.048  0.0588  0.0078 -0.3560
  677MOL0     H91347   9.212  10.887  11.245 -2.7412  1.0159 -1.2297
  677MOL0     H91348   9.328  10.962  11.135  1.2780  1.0808  2.3480
  677MOL0     H91349   9.079  10.805  11.045 -1.9141  1.4307 -0.8589
  677MOL0     H91350   9.198  10.863  10.937  2.9398 -0.4717  1.5452
  677MOL0     H91351   9.007  11.002  10.959 -0.3267 -3.7778 -0.2548
  677MOL0     H91352   9.150  11.098  11.030 -3.2167  2.0103 -3.2807
  677MOL0     H91353   9.087  11.044  11.259 -0.8909  0.6625  1.1601
  677MOL0     H91354   8.941  10.970  11.212  2.5905 -0.4388  3.2350
  677MOL0     H91355   8.873  11.019  11.392  2.8257  1.1654  1.5723
  677MOL0     H91356   8.622  11.041  11.607  0.6740 -0.5560 -1.4778
  677MOL0     H91357   8.791  10.989  11.592  1.8529  1.7865 -1.4055
  677MOL0     H91358   8.757  11.127  11.699 -2.5480 -0.7263  1.6036
  677MOL0     H91359   8.635  11.449  11.843  1.2761  1.7549  0.1385
  677MOL0     H91360   8.495  11.503  12.046 -1.3554 -0.7739  0.2779
  677MOL0     H91361   8.271  11.874  11.985  3.8636 -2.0224 -2.2507
  677MOL0     H91362   8.218  11.838  12.150  1.4898  0.1375  1.6747
  677MOL0     H91363   8.472  11.800  12.207 -0.9736 -1.3609 -0.8448
  677MOL0     H91364   8.514  11.857  12.057 -0.6101 -0.4070 -0.0905
  677MOL0     H91365   8.364  12.027  12.247  1.7559 -1.3161  1.6295
  677MOL0     H91366   8.395  12.071  12.074 -0.2615 -2.1399 -1.6176
  677MOL0     H91367   8.631  12.026  12.259  2.0584  0.8956 -1.2296
  677MOL0     H91368   8.631  12.072  12.095  0.7847  2.2711  0.4102
  677MOL0     H91369   8.489  12.239  12.307  0.4192 -0.1034 -0.2760
  677MOL0     H91370   8.510  12.281  12.138  4.0626 -0.1745 -1.3535
  677MOL0     H91371   8.755  12.240  12.336  0.9437  0.3308 -0.3204
  677MOL0     H91372   8.756  12.279  12.172  1.3348  2.7402  0.3636
  677MOL0     H91373   8.791  12.473  12.327  0.6076 -0.4290  1.3848
  677MOL0     H91374   8.641  12.454  12.410  1.4286  3.4812 -0.0324
  677MOL0     H91375   8.613  12.633  12.269 -1.7326  0.7097  0.2319
  677MOL0     H91376   8.495  12.514  12.233  0.0354  0.1088  4.3199
  677MOL0     H91377   8.249  11.761  11.796  1.7155  1.8867 -4.0486
  677MOL0     H91378   8.362  11.698  11.609 -2.7649 -0.0134  1.0653
  677MOL0     H91379   8.682  11.481  11.374  0.7628  0.5146  1.0240
  677MOL0     H91380   8.859  11.397  11.208  0.9982  0.4228  0.2267
  677MOL0     H91381   9.302  10.106  10.327  1.1914  2.2363 -0.0595
  677MOL0     H91382   9.227   9.974  10.137  2.7171 -1.5476  1.5746
  677MOL0     H91383   9.096  10.102   9.534  4.0020 -0.8079 -1.3814
  677MOL0     H91384   8.901   9.972   9.453 -1.5473  1.8153  1.4586
  677MOL0     H91385   8.696   9.586   9.554 -1.8122  1.2778  0.3728
  677MOL0     H91386   8.779   9.616   9.705 -0.1441 -0.1336 -0.0401
  677MOL0     H91387   8.582   9.812   9.563  1.1622 -0.0242 -0.2272
  677MOL0     H91388   8.665   9.835   9.721  0.5897  2.1417 -2.1762
  677MOL0     H91389   8.566   9.609   9.797  1.2574  0.5279  0.8562
  677MOL0     H91390   8.483   9.602   9.644 -1.0104  1.9645 -0.1553
  677MOL0     H91391   8.438   9.817   9.852  0.5112  0.2174 -0.0008
  677MOL0     H91392   8.330   9.685   9.824  2.1236 -1.2883 -0.0386
  677MOL0     H91393   8.206   9.995   9.571  1.0637  0.0383 -2.0793
  677MOL0     H91394   8.947   9.692   9.777 -0.2542 -0.0708  0.2370
  677MOL0     H91395   9.122   9.823   9.869 -0.8569 -1.2745  0.0632
  678MOL0     O91396   6.698   6.710   9.285 -0.2550 -0.2345 -0.2361
  678MOL0     C91397   6.799   6.694   9.352 -0.1236  0.9377  0.7496
  678MOL0     O91398   6.811   6.621   9.467 -0.1349  0.3452  0.5358
  678MOL0     C91399   6.697   6.547   9.514  0.3097 -0.5292 -0.3246
  678MOL0     C91400   6.585   6.610   9.573 -0.7188 -0.0443 -0.1631
  678MOL0     C91401   6.482   6.530   9.620 -0.5942 -0.7789 -0.5804
  678MOL0     C91402   6.490   6.387   9.614 -0.4755  0.5998  0.4251
  678MOL0     O91403   6.381   6.315   9.660 -0.2025  0.2120 -0.1037
  678MOL0     C91404   6.358   6.184   9.607 -0.0110  0.0499 -0.2000
  678MOL0     C91405   6.360   6.096   9.719 -0.1049 -0.5878 -0.0057
  678MOL0     C91406   6.273   5.970   9.707  0.9463 -0.0762  0.3004
  678MOL0     C91407   6.128   6.002   9.723  0.5090 -0.5392 -0.7369
  678MOL0     C91408   6.042   5.874   9.704 -0.5754 -0.7050 -0.0134
  678MOL0     C91409   5.893   5.883   9.720  0.9944 -0.7818 -0.5878
  678MOL0     C91410   5.833   5.922   9.854 -0.4422  0.2434  0.8969
  678MOL0     C91411   5.895   5.829   9.963  0.5075 -0.5919 -0.1685
  678MOL0     N91412   5.844   5.688   9.936  0.3977 -0.4138 -0.2585
  678MOL0     C91413   5.922   5.580   9.905  0.3077 -1.1717  0.2401
  678MOL0     C91414   5.847   5.484   9.933 -0.0403 -0.0029 -0.5646
  678MOL0     C91415   5.869   5.332   9.924 -1.0892  0.6216  0.1185
  678MOL0     C91416   6.017   5.301   9.898  0.6513 -0.1369 -0.3358
  678MOL0     C91417   6.034   5.145   9.893 -0.6709  0.4751  0.2238
  678MOL0     C91418   6.184   5.112   9.892 -0.1833  0.7076  0.1772
  678MOL0     O91419   6.217   4.967   9.899 -0.1921  0.0580  0.2032
  678MOL0     C91420   6.346   4.929   9.885 -0.5372  0.2231  0.1935
  678MOL0     C91421   6.371   4.807   9.830  0.2760  0.3703  0.2004
  678MOL0     C91422   6.504   4.761   9.799  0.5164  0.3338 -0.0806
  678MOL0     C91423   6.504   4.626   9.726 -0.0919  0.6554  0.3132
  678MOL0     C91424   6.617   4.837   9.850  0.2266 -0.4555  1.1559
  678MOL0     C91425   6.749   4.791   9.854 -0.0077  0.9014 -0.1511
  678MOL0     O91426   6.852   4.890   9.854 -0.1623  0.5957 -0.1028
  678MOL0     C91427   6.987   4.861   9.857  0.5380  0.3880  0.4836
  678MOL0     C91428   7.070   4.929   9.772 -0.1661 -0.3590 -0.0110
  678MOL0     C91429   7.216   4.903   9.762 -0.3405  0.3257 -0.4799
  678MOL0     C91430   7.275   4.804   9.848 -0.2862  0.3812 -0.0019
  678MOL0     O91431   7.415   4.810   9.845  0.1740 -0.1032  0.3129
  678MOL0     C91432   7.477   4.779   9.972  0.1856  0.2813 -0.3997
  678MOL0     C91433   7.550   4.904  10.012 -0.5951  0.0980 -0.0701
  678MOL0     C91434   7.673   4.917   9.918  0.2683 -0.5658 -0.4976
  678MOL0     C91435   7.800   4.884  10.011 -0.0169 -0.9458 -0.3057
  678MOL0     C91436   7.924   4.942   9.949  0.0193  0.1834 -0.7361
  678MOL0     C91437   8.051   4.915  10.034 -0.5833 -0.0415 -0.3529
  678MOL0     C91438   8.086   4.761  10.043 -0.0446 -0.4268 -1.4002
  678MOL0     C91439   8.221   4.729  10.098 -0.6148  0.6190 -0.7043
  678MOL0    Cl91440   8.359   4.806  10.002  0.2836  0.3406 -0.0928
  678MOL0     C91441   7.187   4.734   9.933  0.0933  0.0414 -0.6773
  678MOL0     C91442   7.050   4.762   9.936 -0.0615  1.2435  0.0316
  678MOL0     O91443   6.770   4.669   9.855 -0.5843 -0.2407  0.6587
  678MOL0     C91444   6.589   4.962   9.914 -0.3662 -0.1144  0.5499
  678MOL0     C91445   6.455   5.009   9.921  0.3372 -0.0603 -0.6308
  678MOL0     N91446   5.725   5.525  10.002 -1.1174  0.5113  0.7716
  678MOL0     N91447   5.720   5.652   9.989 -0.8275  0.1016  0.5877
  678MOL0     C91448   6.616   6.324   9.571 -0.0402 -0.2872  0.7041
  678MOL0     C91449   6.718   6.407   9.518 -0.9681 -0.2544  0.7470
  678MOL0     C91450   6.921   6.758   9.294  0.0178 -0.0874  0.4660
  678MOL0     C91451   7.036   6.757   9.369  0.3774 -0.8214  0.4454
  678MOL0     C91452   7.152   6.830   9.318 -0.0055 -0.2421 -0.9183
  678MOL0     C91453   7.151   6.901   9.193  0.3228  0.0861 -0.6954
  678MOL0     O91454   7.259   6.954   9.133 -0.6281 -0.4567  0.6079
  678MOL0     C91455   7.362   7.009   9.215  0.5360  0.2832  0.6811
  678MOL0     C91456   7.478   6.908   9.219  0.0304 -0.2303  0.4290
  678MOL0     C91457   7.612   6.966   9.211  0.6464 -1.3988 -1.0085
  678MOL0     C91458   7.655   7.016   9.073  0.3395 -0.4652  0.0804
  678MOL0     C91459   7.671   6.908   8.979 -0.9158 -0.0461  0.1629
  678MOL0     C91460   7.675   6.832   8.885  0.3548 -0.3321  0.5744
  678MOL0     C91461   7.031   6.892   9.118  0.0845  0.1146  0.4154
  678MOL0     C91462   6.926   6.822   9.167 -0.0435 -0.2879 -0.6314
  678MOL0     H91463   6.588   6.719   9.571  0.7906 -0.0387  0.6735
  678MOL0     H91464   6.388   6.570   9.656 -1.3096  0.8685 -3.9035
  678MOL0     H91465   6.269   6.179   9.543 -0.2419  0.9399  0.0388
  678MOL0     H91466   6.428   6.141   9.535 -1.3155 -1.4832 -0.6233
  678MOL0     H91467   6.465   6.077   9.742 -0.2037 -0.5492  0.4873
  678MOL0     H91468   6.319   6.139   9.811 -1.6879 -1.7887 -0.0979
  678MOL0     H91469   6.278   5.920   9.610 -0.6812  1.2541 -0.5330
  678MOL0     H91470   6.287   5.897   9.787  4.5348  0.1708  0.0509
  678MOL0     H91471   6.112   6.035   9.826  1.6175 -0.4686 -0.5755
  678MOL0     H91472   6.100   6.088   9.661  0.7438  0.0816  0.0020
  678MOL0     H91473   6.059   5.849   9.599  3.6741  0.4779  0.2276
  678MOL0     H91474   6.071   5.791   9.768  1.7819 -1.3957 -1.8269
  678MOL0     H91475   5.857   5.963   9.655  2.3331 -0.0731 -0.4943
  678MOL0     H91476   5.851   5.785   9.698  0.7012 -1.0778  1.1454
  678MOL0     H91477   5.865   6.022   9.887  1.3150 -0.4920  1.5770
  678MOL0     H91478   5.724   5.917   9.849 -0.6392  0.8318  3.2812
  678MOL0     H91479   5.847   5.869  10.053  3.2243  3.1846 -0.1971
  678MOL0     H91480   6.003   5.827   9.977  0.5374  2.9968  1.1847
  678MOL0     H91481   6.013   5.584   9.847  0.1824 -1.4119  0.0234
  678MOL0     H91482   5.825   5.286  10.014  2.2217 -2.4680  0.3600
  678MOL0     H91483   5.801   5.282   9.854 -0.5369  1.5736 -1.1389
  678MOL0     H91484   6.079   5.349   9.974 -0.5950  1.3838 -0.2194
  678MOL0     H91485   6.034   5.342   9.798  1.3923  0.3020 -0.0439
  678MOL0     H91486   5.981   5.112   9.803  1.7838 -2.1703 -0.3667
  678MOL0     H91487   5.978   5.093   9.971 -0.7068 -1.3188 -0.9494
  678MOL0     H91488   6.239   5.167   9.968 -2.0400  1.7869  0.8133
  678MOL0     H91489   6.224   5.151   9.798  1.3476  0.6580  0.7929
  678MOL0     H91490   6.286   4.740   9.816  0.8923 -0.7231  1.3755
  678MOL0     H91491   6.600   4.615   9.674 -0.4396  2.7237 -0.9082
  678MOL0     H91492   6.474   4.540   9.786 -0.0226  0.0501 -0.4909
  678MOL0     H91493   6.427   4.635   9.648 -0.5783 -0.5432  0.6442
  678MOL0     H91494   7.026   5.012   9.717 -2.1005 -0.1073  1.8021
  678MOL0     H91495   7.276   4.968   9.699 -2.8318  2.4189 -0.8834
  678MOL0     H91496   7.410   4.753  10.054  1.4569  0.6607  0.8022
  678MOL0     H91497   7.538   4.690   9.953 -3.1587 -2.0416 -1.2173
  678MOL0     H91498   7.484   4.991  10.016 -2.3270 -1.0939 -1.3232
  678MOL0     H91499   7.578   4.886  10.116  0.0938 -1.9629 -0.5735
  678MOL0     H91500   7.674   5.020   9.881 -1.7343 -1.0553 -2.1513
  678MOL0     H91501   7.661   4.856   9.828 -0.8314 -0.1657 -0.6494
  678MOL0     H91502   7.785   4.933  10.107 -2.9670 -1.8351 -0.2086
  678MOL0     H91503   7.808   4.775  10.017  0.4083 -0.8586  0.9040
  678MOL0     H91504   7.915   5.051   9.950  0.6433  0.2454 -1.0870
  678MOL0     H91505   7.925   4.904   9.846 -0.5483 -0.6285 -0.4550
  678MOL0     H91506   8.127   4.971   9.979 -2.8115 -0.9900 -4.8771
  678MOL0     H91507   8.049   4.950  10.138 -0.1206  2.2087 -1.0344
  678MOL0     H91508   8.069   4.705   9.950 -0.3275 -0.4524 -1.3323
  678MOL0     H91509   8.016   4.722  10.117  1.1806 -0.8020 -0.4097
  678MOL0     H91510   8.242   4.622  10.096  0.4594  0.7843  0.4466
  678MOL0     H91511   8.229   4.760  10.202  1.3985 -2.1022  0.0664
  678MOL0     H91512   7.229   4.672  10.012 -0.8249  0.5998  0.2810
  678MOL0     H91513   6.991   4.700  10.002  0.5312 -1.9772 -2.2033
  678MOL0     H91514   6.671   5.025   9.948  1.0084 -1.5268  0.0068
  678MOL0     H91515   6.455   5.107   9.969 -0.4430  0.4515 -1.6236
  678MOL0     H91516   6.623   6.216   9.566 -0.6794 -0.2858 -0.7604
  678MOL0     H91517   6.813   6.361   9.492 -0.3282 -1.1040  4.0599
  678MOL0     H91518   7.040   6.720   9.471 -1.4707 -3.9633 -0.5000
  678MOL0     H91519   7.241   6.807   9.375 -0.3319 -0.8051 -0.6320
  678MOL0     H91520   7.389   7.101   9.161  1.5946  0.9353  2.2502
  678MOL0     H91521   7.326   7.044   9.312 -0.3052  0.3491  0.3526
  678MOL0     H91522   7.466   6.835   9.138  2.2499 -1.8088  1.4129
  678MOL0     H91523   7.468   6.852   9.313 -3.3679 -1.9194 -0.7724
  678MOL0     H91524   7.689   6.894   9.242  1.7877  0.6295  1.2791
  678MOL0     H91525   7.623   7.050   9.281  4.6846 -0.9577 -1.8772
  678MOL0     H91526   7.746   7.076   9.070 -1.2262  2.0055 -1.5906
  678MOL0     H91527   7.581   7.087   9.034  0.8207  0.8751  1.5058
  678MOL0     H91528   7.676   6.759   8.807  3.3006  2.3885 -2.2936
  678MOL0     H91529   7.036   6.928   9.015  0.5809 -1.2106 -0.0418
  678MOL0     H91530   6.825   6.835   9.129 -1.1597 -0.4923  2.0559
  679MOL0     O91531  10.262   4.710  11.122 -0.0662  0.1391 -0.8521
  679MOL0     C91532  10.325   4.685  11.024  0.9044  0.6030 -0.2676
  679MOL0     O91533  10.463   4.693  11.010  0.8269 -0.2645  0.4783
  679MOL0     C91534  10.567   4.723  11.090  0.4570  0.4234 -0.0105
  679MOL0     C91535  10.700   4.718  11.028 -1.0122 -0.2867  0.5352
  679MOL0     C91536  10.811   4.746  11.108  0.4751 -1.3331 -0.1576
  679MOL0     C91537  10.798   4.754  11.248  0.0452  0.6808 -0.8595
  679MOL0     O91538  10.895   4.773  11.345 -0.0410 -0.6448  1.1146
  679MOL0     C91539  11.028   4.735  11.304  0.2242  0.6268 -0.4205
  679MOL0     C91540  11.119   4.724  11.427 -0.6932  0.3984 -0.1379
  679MOL0     C91541  11.137   4.866  11.478  0.4743  0.4466  0.6287
  679MOL0     C91542  11.229   4.867  11.606  0.9486  0.0666  0.7817
  679MOL0     C91543  11.217   5.014  11.660 -0.5315 -0.4852 -0.2403
  679MOL0     C91544  11.288   5.132  11.590 -0.0242  0.9570  1.4894
  679MOL0     C91545  11.423   5.107  11.524  0.0380 -0.4556  0.1168
  679MOL0     C91546  11.485   5.235  11.468 -0.4644 -0.2438 -0.7244
  679MOL0     N91547  11.506   5.331  11.588  0.3460  0.2642  0.9014
  679MOL0     C91548  11.634   5.334  11.644  0.0354 -0.5622  0.5535
  679MOL0     C91549  11.633   5.438  11.729  0.0050  0.3281 -0.9011
  679MOL0     C91550  11.757   5.478  11.805  1.6285 -0.1791  1.2001
  679MOL0     C91551  11.740   5.438  11.952  0.7774  0.3139 -0.0797
  679MOL0     C91552  11.789   5.293  11.999  0.5378  0.7500  0.4990
  679MOL0     C91553  11.944   5.282  11.997 -0.1847  0.8914  0.1625
  679MOL0     O91554  11.978   5.162  12.058  0.3061  0.1778 -0.0465
  679MOL0     C91555  12.103   5.125  12.023 -0.6238 -0.8697 -0.7023
  679MOL0     C91556  12.117   5.001  11.969  0.1580  0.2171 -0.3648
  679MOL0     C91557  12.230   4.948  11.915 -0.5894  0.2560  0.3014
  679MOL0     C91558  12.226   4.805  11.858  0.7926  0.3915  0.0821
  679MOL0     C91559  12.352   5.021  11.946 -0.3714 -0.2407 -0.6195
  679MOL0     C91560  12.497   4.976  11.905  0.2503 -0.6212 -0.5363
  679MOL0     O91561  12.606   5.060  11.911  0.5306  0.7155  0.8306
  679MOL0     C91562  12.729   5.015  11.938 -0.4522 -0.2671 -0.6500
  679MOL0     C91563  12.827   5.112  11.954 -0.0202 -0.1669 -0.4643
  679MOL0     C91564  12.966   5.085  11.979 -0.0078  0.2003  0.4372
  679MOL0     C91565  13.002   4.946  11.988  0.3868 -0.1765  1.4362
  679MOL0     O91566  13.134   4.926  12.010  0.6912 -0.2044  0.3687
  679MOL0     C91567  13.184   4.790  12.012 -0.3476  0.4468 -0.8564
  679MOL0     C91568  13.339   4.805  12.022 -0.4384 -0.8065  0.4761
  679MOL0     C91569  13.377   4.835  12.166  0.7420 -0.1174  0.0410
  679MOL0     C91570  13.535   4.853  12.184  0.0000  0.1946  0.1416
  679MOL0     C91571  13.594   4.862  12.332  1.1169  0.1335  0.4725
  679MOL0     C91572  13.518   4.976  12.420 -0.6509  0.7600 -0.1862
  679MOL0     C91573  13.545   4.949  12.579 -0.8344 -0.4350  0.0500
  679MOL0     C91574  13.443   5.035  12.662 -1.0158  0.2926  0.2385
  679MOL0    Cl91575  13.467   4.990  12.832  0.1929 -0.0186  0.2326
  679MOL0     C91576  12.903   4.848  11.967 -0.9803  0.4985 -0.3300
  679MOL0     C91577  12.767   4.880  11.950  0.1377  0.1067 -0.7108
  679MOL0     O91578  12.497   4.863  11.863  0.7767  1.4149  0.5140
  679MOL0     C91579  12.348   5.147  12.015  0.5423 -0.5649  0.0315
  679MOL0     C91580  12.224   5.203  12.043  0.2085 -0.2786 -0.4370
  679MOL0     N91581  11.512   5.500  11.721  0.5940  0.1616 -0.6180
  679MOL0     N91582  11.436   5.435  11.632 -0.3042 -0.0633 -0.1657
  679MOL0     C91583  10.667   4.760  11.300  0.0790  0.3286  1.1735
  679MOL0     C91584  10.553   4.755  11.222 -1.4171  0.8118  0.3818
  679MOL0     C91585  10.241   4.634  10.911 -0.6783  0.1522 -0.4076
  679MOL0     C91586  10.104   4.625  10.927  0.1892 -0.6397  0.3512
  679MOL0     C91587  10.020   4.593  10.817  0.5384 -0.5582  0.3486
  679MOL0     C91588  10.069   4.539  10.701  0.0364  0.3304 -0.2413
  679MOL0     O91589   9.999   4.499  10.591  0.4480 -0.2373  0.2655
  679MOL0     C91590   9.900   4.393  10.611 -0.7263 -0.2301  0.5456
  679MOL0     C91591   9.809   4.391  10.487 -0.4015  0.4822 -0.5854
  679MOL0     C91592   9.875   4.357  10.356 -0.2801 -0.4992  0.7343
  679MOL0     C91593   9.792   4.403  10.236 -0.4061 -0.2240  1.2138
  679MOL0     C91594   9.670   4.319  10.224 -0.5572  0.4114  0.0233
  679MOL0     C91595   9.569   4.252  10.246  0.6168 -0.4593  0.2777
  679MOL0     C91596  10.208   4.546  10.689 -0.8040 -0.3894  0.3863
  679MOL0     C91597  10.300   4.593  10.785  0.3548 -0.7789 -0.2503
  679MOL0     H91598  10.723   4.715  10.922  1.4968  0.3641  0.9833
  679MOL0     H91599  10.903   4.770  11.056 -1.0124 -1.4533 -3.0141
  679MOL0     H91600  11.029   4.632  11.269 -1.4783 -0.8267  3.3270
  679MOL0     H91601  11.071   4.799  11.226  0.4042  0.2385 -0.6429
  679MOL0     H91602  11.069   4.663  11.502  1.4109  2.3565  3.0978
  679MOL0     H91603  11.217   4.688  11.394 -0.5031 -0.8371  1.6797
  679MOL0     H91604  11.192   4.931  11.410  0.1451  0.6315  0.5370
  679MOL0     H91605  11.041   4.910  11.507 -0.0132 -0.1607 -0.0364
  679MOL0     H91606  11.189   4.791  11.674  0.1492 -1.0951 -0.9050
  679MOL0     H91607  11.333   4.847  11.582  0.5192 -1.8277  0.3836
  679MOL0     H91608  11.112   5.041  11.672 -0.0204  1.2431  0.6237
  679MOL0     H91609  11.263   5.003  11.759 -0.1607 -0.3324 -0.3910
  679MOL0     H91610  11.235   5.159  11.498  1.1814  1.4412  0.9094
  679MOL0     H91611  11.300   5.216  11.659 -0.6142 -0.7194  3.7230
  679MOL0     H91612  11.498   5.099  11.604  0.6973  5.4327  0.5377
  679MOL0     H91613  11.417   5.023  11.454 -0.3430  0.9671 -1.6229
  679MOL0     H91614  11.416   5.277  11.394  0.0611 -1.3179 -1.8570
  679MOL0     H91615  11.577   5.207  11.416  0.6269  1.5249  0.1495
  679MOL0     H91616  11.721   5.274  11.618 -1.2904 -2.0328 -0.6488
  679MOL0     H91617  11.839   5.425  11.757 -0.9029 -2.1053 -1.3902
  679MOL0     H91618  11.775   5.586  11.804 -2.3501  0.6753 -1.0024
  679MOL0     H91619  11.636   5.458  11.978  0.4720 -1.3108  0.0955
  679MOL0     H91620  11.804   5.512  12.001 -0.5926  1.4174  0.0759
  679MOL0     H91621  11.751   5.205  11.945 -1.5118  1.5450  0.5616
  679MOL0     H91622  11.744   5.280  12.098  1.0777  0.5933  0.7272
  679MOL0     H91623  11.979   5.363  12.061 -0.7870  1.9211 -0.7757
  679MOL0     H91624  11.989   5.304  11.900 -0.3709  3.5271  0.6182
  679MOL0     H91625  12.025   4.945  11.958  0.1727  0.4456 -1.7520
  679MOL0     H91626  12.126   4.785  11.816 -0.4468  0.6858  2.7088
  679MOL0     H91627  12.299   4.802  11.776  1.4725  0.2194  0.6902
  679MOL0     H91628  12.249   4.716  11.918  0.0578 -0.1838 -0.4671
  679MOL0     H91629  12.789   5.214  11.950 -2.4922 -0.9655  0.5649
  679MOL0     H91630  13.040   5.162  11.996 -1.3562  1.3423  1.3927
  679MOL0     H91631  13.148   4.747  12.105  1.6797  0.3374 -0.0623
  679MOL0     H91632  13.144   4.736  11.926 -1.5306  2.0675 -1.3652
  679MOL0     H91633  13.385   4.713  11.987 -0.4891 -0.4198 -0.6658
  679MOL0     H91634  13.378   4.884  11.956  0.4425 -1.3416  0.3524
  679MOL0     H91635  13.345   4.741  12.212 -1.2486 -0.1518 -1.2879
  679MOL0     H91636  13.320   4.912  12.218  1.1833 -0.3032  0.8154
  679MOL0     H91637  13.590   4.773  12.133 -2.0011 -1.6197  0.7068
  679MOL0     H91638  13.565   4.950  12.143  4.8092  0.2255  2.9331
  679MOL0     H91639  13.703   4.875  12.328  1.3088  0.8220  4.2032
  679MOL0     H91640  13.576   4.767  12.383  0.5008 -0.4657 -0.8216
  679MOL0     H91641  13.552   5.076  12.391  2.1500  0.6298  2.1683
  679MOL0     H91642  13.410   4.972  12.405 -1.1384  0.1806  2.8481
  679MOL0     H91643  13.641   4.999  12.596 -2.0531  1.7192  1.0499
  679MOL0     H91644  13.540   4.844  12.608 -1.3432 -0.6225 -0.6832
  679MOL0     H91645  13.342   5.008  12.629 -0.3586 -1.0001 -0.8184
  679MOL0     H91646  13.473   5.139  12.647 -0.3028  0.2912  1.5447
  679MOL0     H91647  12.924   4.742  11.952  1.4862  0.7728  0.5709
  679MOL0     H91648  12.697   4.800  11.930  0.6028 -0.7435  0.8742
  679MOL0     H91649  12.441   5.195  12.043  0.5796 -1.6960  1.9693
  679MOL0     H91650  12.210   5.298  12.093 -0.9891 -0.8253  0.3146
  679MOL0     H91651  10.667   4.781  11.406  1.1213 -1.3329  1.5464
  679MOL0     H91652  10.453   4.770  11.262 -1.7149  4.7295 -1.3216
  679MOL0     H91653  10.057   4.660  11.018  0.9146 -4.8526  2.5873
  679MOL0     H91654   9.912   4.604  10.827  0.3995  0.0897 -1.5140
  679MOL0     H91655   9.948   4.295  10.609 -1.2655 -0.4938 -1.9905
  679MOL0     H91656   9.844   4.403  10.705  1.2140 -0.9028  1.8571
  679MOL0     H91657   9.751   4.484  10.481  0.1586  0.8449 -0.5244
  679MOL0     H91658   9.735   4.311  10.494 -0.8429  0.8699 -0.7516
  679MOL0     H91659   9.911   4.254  10.354  2.0812  0.2753 -0.6872
  679MOL0     H91660   9.973   4.406  10.360  0.3195 -1.6223  0.3205
  679MOL0     H91661   9.843   4.384  10.141 -1.8393 -0.9457  0.5736
  679MOL0     H91662   9.784   4.511  10.249  4.0217  0.8974 -2.5071
  679MOL0     H91663   9.480   4.194  10.259  0.1504 -0.1860 -1.3790
  679MOL0     H91664  10.261   4.526  10.597 -2.7470  3.8734 -1.9622
  679MOL0     H91665  10.403   4.607  10.750  0.3061  0.1692 -0.0495
  680MOL0     O91666   2.806  10.452   7.447 -0.0399  0.7203 -0.2371
  680MOL0     C91667   2.788  10.549   7.384 -0.7963  0.3067  0.5670
  680MOL0     O91668   2.713  10.565   7.278  0.1874 -0.1694  0.4105
  680MOL0     C91669   2.689  10.456   7.200 -0.3468 -0.1914 -0.7104
  680MOL0     C91670   2.756  10.448   7.079  0.3445 -0.5310 -0.2387
  680MOL0     C91671   2.743  10.348   7.000  0.4706  0.4377 -0.6882
  680MOL0     C91672   2.640  10.258   7.024 -0.4361 -0.3664 -0.1414
  680MOL0     O91673   2.623  10.148   6.942 -0.1652 -0.3631  0.6522
  680MOL0     C91674   2.727  10.046   6.950  0.6138  0.4856  0.0098
  680MOL0     C91675   2.683   9.922   6.884 -0.0744 -0.3957 -0.2150
  680MOL0     C91676   2.742   9.795   6.952 -0.2605 -0.0674  0.7612
  680MOL0     C91677   2.889   9.780   6.899  0.2339 -0.8108 -0.1754
  680MOL0     C91678   2.978   9.667   6.970 -0.9243  0.4342  0.0840
  680MOL0     C91679   3.129   9.705   6.956  0.3095 -0.5271 -0.7745
  680MOL0     C91680   3.212   9.584   7.006 -0.5954  0.3820  1.1125
  680MOL0     C91681   3.352   9.578   6.947  0.5760 -0.0344 -0.0209
  680MOL0     N91682   3.421   9.449   6.978  0.2644  0.1350  0.1028
  680MOL0     C91683   3.459   9.400   7.099 -0.1991  1.1576 -0.0281
  680MOL0     C91684   3.515   9.278   7.071 -0.6212 -0.8771 -0.0032
  680MOL0     C91685   3.566   9.175   7.169 -0.2387 -0.0923 -0.3649
  680MOL0     C91686   3.682   9.220   7.264  0.4417  1.1767  0.2792
  680MOL0     C91687   3.820   9.255   7.198  0.2762 -0.3792  0.3845
  680MOL0     C91688   3.891   9.135   7.142 -0.0622 -0.2732  0.2460
  680MOL0     O91689   3.939   9.049   7.229 -0.0856  0.6330 -0.0602
  680MOL0     C91690   4.064   9.020   7.190 -0.9626  0.1299  0.3831
  680MOL0     C91691   4.079   8.916   7.094 -0.7253 -0.1695 -0.1100
  680MOL0     C91692   4.210   8.869   7.051  0.0381  0.0895  0.6617
  680MOL0     C91693   4.212   8.760   6.949  0.8296  0.1312  0.2507
  680MOL0     C91694   4.317   8.944   7.092 -0.5193 -0.4971 -0.2357
  680MOL0     C91695   4.464   8.908   7.052 -0.0733 -0.7572 -1.0828
  680MOL0     O91696   4.554   8.947   7.143  0.6553  0.3319  0.5110
  680MOL0     C91697   4.676   9.003   7.093  1.1106  0.1940  0.7448
  680MOL0     C91698   4.780   8.935   7.031  0.2008 -0.1068  1.1697
  680MOL0     C91699   4.903   8.991   6.982  0.3467  0.1116  0.0704
  680MOL0     C91700   4.911   9.130   6.999 -1.1675  0.0037  0.7126
  680MOL0     O91701   5.028   9.197   6.960 -0.4584 -0.4251 -0.3255
  680MOL0     C91702   5.031   9.340   6.918  0.2577 -0.0307 -0.2774
  680MOL0     C91703   5.046   9.366   6.768 -0.8563 -0.7854 -0.3557
  680MOL0     C91704   5.052   9.522   6.724  0.2465  1.0997 -0.3347
  680MOL0     C91705   4.915   9.588   6.747 -0.5270  0.3464  0.3564
  680MOL0     C91706   4.902   9.716   6.668  0.1535 -0.3262  0.5768
  680MOL0     C91707   4.928   9.712   6.512 -0.7380  0.1601 -0.1843
  680MOL0     C91708   4.893   9.850   6.434 -0.4163 -0.5802  0.2287
  680MOL0     C91709   4.972   9.869   6.300 -0.8518 -0.7318  0.5286
  680MOL0    Cl91710   4.863   9.878   6.152 -0.0310 -0.0873  0.2096
  680MOL0     C91711   4.799   9.201   7.041  0.6009  0.1177  0.2950
  680MOL0     C91712   4.676   9.137   7.089 -0.3377 -0.0002 -0.0573
  680MOL0     O91713   4.491   8.848   6.954  0.6917  0.2530  0.4451
  680MOL0     C91714   4.306   9.050   7.187  0.5883  0.0508 -0.7270
  680MOL0     C91715   4.189   9.076   7.240  0.5865 -0.1125 -0.3253
  680MOL0     N91716   3.526   9.272   6.935 -0.8216 -0.5563  0.2635
  680MOL0     N91717   3.470   9.371   6.884 -0.3094 -0.8298 -1.0201
  680MOL0     C91718   2.562  10.268   7.142  0.0530 -0.2599 -0.1544
  680MOL0     C91719   2.593  10.367   7.238 -0.0694  0.5062 -0.1871
  680MOL0     C91720   2.844  10.678   7.436 -0.6008  0.9818 -0.2850
  680MOL0     C91721   2.846  10.796   7.351  0.8562  1.1168 -0.4919
  680MOL0     C91722   2.914  10.908   7.400  0.1749 -0.0647 -0.4769
  680MOL0     C91723   2.990  10.910   7.515 -1.1571  0.4038 -0.1661
  680MOL0     O91724   3.041  11.030   7.556  0.1151 -0.2563 -0.0219
  680MOL0     C91725   3.153  11.028   7.652  0.2341  0.7994 -0.2172
  680MOL0     C91726   3.101  11.065   7.790  0.4828  0.3215  0.0952
  680MOL0     C91727   3.062  11.218   7.791 -0.1034 -0.7769 -0.3493
  680MOL0     C91728   3.179  11.315   7.847 -0.4152  0.3883 -0.1659
  680MOL0     C91729   3.307  11.287   7.784  0.0094  0.6855 -0.3087
  680MOL0     C91730   3.419  11.268   7.757 -0.1132  0.5217  0.5880
  680MOL0     C91731   2.982  10.795   7.596  0.4990 -0.6710  0.4028
  680MOL0     C91732   2.906  10.686   7.558  0.1297 -0.2417 -0.3826
  680MOL0     H91733   2.833  10.525   7.068  0.2469 -0.0468  2.0121
  680MOL0     H91734   2.820  10.334   6.925  0.2476  2.0655 -1.2787
  680MOL0     H91735   2.817  10.088   6.905  2.0536 -0.1182  2.1314
  680MOL0     H91736   2.733  10.024   7.057  0.1846  0.5560  0.0497
  680MOL0     H91737   2.574   9.914   6.897  0.1734 -0.7112  2.0874
  680MOL0     H91738   2.695   9.935   6.776 -0.4793  1.6696 -0.0523
  680MOL0     H91739   2.737   9.790   7.061  0.2588 -1.5604  0.7371
  680MOL0     H91740   2.681   9.711   6.920 -0.8951  0.3057  0.9753
  680MOL0     H91741   2.892   9.772   6.790 -1.1717 -1.6460 -0.1777
  680MOL0     H91742   2.934   9.875   6.927  0.6067  0.0922 -3.4878
  680MOL0     H91743   2.937   9.650   7.070 -5.3172  0.8677 -1.4415
  680MOL0     H91744   2.966   9.568   6.924  1.8089  1.3808 -3.0878
  680MOL0     H91745   3.154   9.721   6.851  0.0529 -0.2884 -0.8001
  680MOL0     H91746   3.143   9.798   7.012  0.8450  0.6394 -2.7742
  680MOL0     H91747   3.212   9.590   7.115  0.7462 -3.8467  1.5179
  680MOL0     H91748   3.165   9.488   6.981 -2.1174  0.7018  2.5535
  680MOL0     H91749   3.408   9.669   6.969 -1.8138  1.2890  0.9402
  680MOL0     H91750   3.322   9.578   6.842  3.5730  0.9185 -0.9608
  680MOL0     H91751   3.425   9.426   7.198 -1.3583  2.6347 -0.7745
  680MOL0     H91752   3.477   9.156   7.230  1.0295  2.3653  2.5535
  680MOL0     H91753   3.598   9.086   7.115 -1.6518  0.6066 -2.5036
  680MOL0     H91754   3.692   9.143   7.342  0.8469  3.7782  2.9917
  680MOL0     H91755   3.647   9.306   7.322 -1.4535  0.3631  0.3928
  680MOL0     H91756   3.878   9.296   7.282 -1.4286  0.8636  1.0149
  680MOL0     H91757   3.802   9.315   7.109  1.7377 -1.2744 -0.5439
  680MOL0     H91758   3.959   9.174   7.066 -0.1045 -0.3787  0.1520
  680MOL0     H91759   3.817   9.071   7.092  2.0884 -3.4523  0.8238
  680MOL0     H91760   3.988   8.861   7.076  0.0456 -1.9649  1.2305
  680MOL0     H91761   4.228   8.800   6.849  3.2201  0.9436  0.8927
  680MOL0     H91762   4.289   8.687   6.976 -0.6696 -1.8352 -0.5534
  680MOL0     H91763   4.116   8.707   6.941 -0.1354  1.4941  2.0347
  680MOL0     H91764   4.779   8.826   7.031  1.4354 -0.2179 -2.2972
  680MOL0     H91765   4.980   8.937   6.927 -0.5411 -0.5972 -0.5159
  680MOL0     H91766   4.949   9.401   6.957 -1.2496  0.2309 -3.5417
  680MOL0     H91767   5.118   9.379   6.971 -1.3429  0.6749  1.9790
  680MOL0     H91768   5.139   9.318   6.736  0.1322 -0.2623  1.5602
  680MOL0     H91769   4.961   9.320   6.717 -3.9501 -0.4806  3.9621
  680MOL0     H91770   5.097   9.525   6.624 -1.2503 -2.9586 -1.3264
  680MOL0     H91771   5.125   9.564   6.794 -1.5382  2.5511  0.7224
  680MOL0     H91772   4.824   9.532   6.724 -2.1858  3.2781 -0.7706
  680MOL0     H91773   4.896   9.620   6.850  0.4009 -1.7707  1.2203
  680MOL0     H91774   4.966   9.788   6.721  4.7466 -3.5651 -0.0275
  680MOL0     H91775   4.795   9.742   6.670  0.2641  0.5108 -1.5950
  680MOL0     H91776   5.035   9.695   6.497 -1.2055 -1.5431 -1.9260
  680MOL0     H91777   4.869   9.630   6.472 -0.6327  0.4231 -0.8890
  680MOL0     H91778   4.926   9.932   6.499  3.6801 -0.2856 -1.9124
  680MOL0     H91779   4.785   9.838   6.422 -0.1989 -3.7724  0.5237
  680MOL0     H91780   5.033   9.779   6.285 -0.7598 -0.6708  0.5405
  680MOL0     H91781   5.048   9.948   6.302 -0.4088 -1.1611  1.9565
  680MOL0     H91782   4.797   9.309   7.052  0.1003  0.0672  0.7296
  680MOL0     H91783   4.592   9.196   7.125  0.0667 -0.5813  1.9314
  680MOL0     H91784   4.392   9.098   7.232 -0.4561  0.5718  0.7781
  680MOL0     H91785   4.192   9.151   7.318  4.1372 -0.2254 -0.2313
  680MOL0     H91786   2.477  10.205   7.166 -0.7561  1.2033  0.9297
  680MOL0     H91787   2.537  10.378   7.331  2.0147 -3.5030  1.7756
  680MOL0     H91788   2.803  10.782   7.252  1.7562 -4.7944 -0.4002
  680MOL0     H91789   2.915  10.999   7.340  0.4317 -1.2480 -2.3184
  680MOL0     H91790   3.205  10.933   7.644 -3.4020 -1.1946 -2.8730
  680MOL0     H91791   3.225  11.105   7.624  2.7183 -1.3483 -0.0165
  680MOL0     H91792   3.168  11.034   7.871 -0.0937  1.6098  1.0954
  680MOL0     H91793   3.006  11.013   7.809  1.8282 -1.6242  2.0159
  680MOL0     H91794   2.978  11.236   7.858  0.1758 -2.1874  0.4190
  680MOL0     H91795   3.039  11.252   7.690  1.7954 -0.0532 -0.5984
  680MOL0     H91796   3.187  11.300   7.955 -1.9886  0.0951 -0.0679
  680MOL0     H91797   3.160  11.421   7.826  1.1877  1.1573  1.8498
  680MOL0     H91798   3.521  11.249   7.733  0.2626  0.2628  2.2674
  680MOL0     H91799   3.036  10.784   7.690  1.7213 -1.4158 -0.3613
  680MOL0     H91800   2.902  10.597   7.620 -0.9067  1.6087  2.3786
  681MOL0     O91801   5.881   1.583   3.471  0.0811  0.0266 -0.2977
  681MOL0     C91802   5.985   1.537   3.506 -0.2388  0.1588 -0.0418
  681MOL0     O91803   6.038   1.421   3.470 -0.3351  0.0847  0.1619
  681MOL0     C91804   5.980   1.326   3.394  0.4407 -0.7016  0.1036
  681MOL0     C91805   6.054   1.216   3.367  0.0494 -0.0124 -0.0158
  681MOL0     C91806   5.999   1.111   3.295 -0.4177  0.9660  0.3803
  681MOL0     C91807   5.871   1.116   3.236 -0.4471 -0.2057 -0.9015
  681MOL0     O91808   5.816   1.017   3.165 -0.1167  0.0636  0.1062
  681MOL0     C91809   5.906   0.915   3.116 -0.5785 -0.5430 -0.3362
  681MOL0     C91810   5.847   0.823   3.018  0.4140 -0.3567  0.2026
  681MOL0     C91811   5.742   0.733   3.078 -0.3133 -0.2268  0.2057
  681MOL0     C91812   5.717   0.621   2.968  1.3123  0.2538 -0.3435
  681MOL0     C91813   5.612   0.524   3.015 -0.6547  0.5900  0.3921
  681MOL0     C91814   5.523   0.477   2.900  0.4000 -0.0953  1.0178
  681MOL0     C91815   5.415   0.579   2.856 -0.0213 -0.8158  0.0324
  681MOL0     C91816   5.290   0.583   2.940  1.0980  0.1035 -0.0556
  681MOL0     N91817   5.191   0.486   2.884 -0.3763 -0.0065 -0.6036
  681MOL0     C91818   5.187   0.352   2.921 -0.8255 -0.6235 -0.4695
  681MOL0     C91819   5.084   0.302   2.849 -0.1644 -1.9616  0.2528
  681MOL0     C91820   5.039   0.162   2.854 -0.1191 -0.2345  0.5000
  681MOL0     C91821   4.993   0.123   2.998 -0.4771 -0.3097 -0.5448
  681MOL0     C91822   4.842   0.136   3.023  0.8133  1.0776  0.6487
  681MOL0     C91823   4.799   0.282   3.036  1.1046  0.1045 -0.1473
  681MOL0     O91824   4.658   0.296   3.078  0.2593  0.3582  0.7203
  681MOL0     C91825   4.555   0.293   2.986 -0.6579 -0.0824 -0.5705
  681MOL0     C91826   4.554   0.238   2.853  0.2089 -0.7250 -0.7712
  681MOL0     C91827   4.439   0.246   2.776  0.1393 -0.5945 -0.6029
  681MOL0     C91828   4.452   0.222   2.627  0.1094 -0.5413  0.1865
  681MOL0     C91829   4.316   0.288   2.840  0.2623 -0.0698 -1.0755
  681MOL0     C91830   4.196   0.303   2.763  0.5884  0.5052  0.7179
  681MOL0     O91831   4.103   0.393   2.809 -0.4661  0.2094 -0.1409
  681MOL0     C91832   3.983   0.425   2.747  0.0262  0.1764  0.1005
  681MOL0     C91833   3.874   0.444   2.835 -1.0648 -0.4305 -1.1290
  681MOL0     C91834   3.756   0.468   2.776  0.4342 -0.0162 -0.8081
  681MOL0     C91835   3.743   0.502   2.638 -0.3721  0.0572  0.1282
  681MOL0     O91836   3.630   0.537   2.569 -0.2934  0.3312 -0.1126
  681MOL0     C91837   3.512   0.476   2.606  0.3867  0.2482 -0.4057
  681MOL0     C91838   3.489   0.330   2.543 -0.0313  0.4355  0.1659
  681MOL0     C91839   3.558   0.224   2.631 -0.1035 -0.0097  0.0307
  681MOL0     C91840   3.567   0.090   2.568  0.6665  0.7837 -1.2465
  681MOL0     C91841   3.599  -0.016   2.674 -0.3504  0.7102 -0.1506
  681MOL0     C91842   3.571  -0.156   2.630 -0.6942  0.7526  0.2581
  681MOL0     C91843   3.532  -0.247   2.755  0.2517  0.4706 -0.4281
  681MOL0     C91844   3.394  -0.203   2.813 -0.4831  0.8509 -0.4460
  681MOL0    Cl91845   3.329  -0.328   2.915  0.0720  0.3786  0.6477
  681MOL0     C91846   3.862   0.487   2.558  0.1256 -0.2347 -0.9624
  681MOL0     C91847   3.977   0.450   2.618 -0.0124  0.4270  1.1987
  681MOL0     O91848   4.178   0.238   2.662 -0.4425  0.1789  0.0358
  681MOL0     C91849   4.311   0.318   2.973 -0.8430 -0.4371 -0.0774
  681MOL0     C91850   4.427   0.318   3.043  0.1200  0.1938 -0.4060
  681MOL0     N91851   5.022   0.405   2.776  0.5810 -0.5450  0.7600
  681MOL0     N91852   5.096   0.513   2.791 -0.0298 -0.0705 -0.1987
  681MOL0     C91853   5.792   1.229   3.271  0.3061 -1.2777 -0.4349
  681MOL0     C91854   5.845   1.323   3.360  0.3656  0.3326 -0.5326
  681MOL0     C91855   6.068   1.612   3.604 -0.0595 -0.3999 -0.5036
  681MOL0     C91856   6.030   1.737   3.657 -0.7618  0.2613 -0.5344
  681MOL0     C91857   6.106   1.796   3.765 -0.3038 -0.3155  0.4277
  681MOL0     C91858   6.216   1.746   3.818 -0.0446 -0.4510  0.8547
  681MOL0     O91859   6.266   1.817   3.925  0.1798  0.8504  0.2712
  681MOL0     C91860   6.369   1.753   3.995  0.7791  0.6628  1.0689
  681MOL0     C91861   6.425   1.844   4.099  0.0370 -0.3722 -0.0223
  681MOL0     C91862   6.312   1.896   4.202  0.0052  0.2149 -0.4260
  681MOL0     C91863   6.325   2.039   4.240  0.4805 -0.9267  0.3024
  681MOL0     C91864   6.223   2.077   4.339  1.2258 -0.0511 -0.6950
  681MOL0     C91865   6.145   2.113   4.426 -0.1705 -0.3359  0.1400
  681MOL0     C91866   6.260   1.628   3.760  0.5885  0.0114 -0.2339
  681MOL0     C91867   6.194   1.557   3.650  0.0517 -0.3914  0.4590
  681MOL0     H91868   6.152   1.211   3.413 -0.9530 -1.2413  2.1372
  681MOL0     H91869   6.074   1.033   3.288  0.1740  1.5486  0.0716
  681MOL0     H91870   5.997   0.954   3.071 -0.1431  1.1378  1.8365
  681MOL0     H91871   5.927   0.849   3.201 -0.0935  1.1267  0.8981
  681MOL0     H91872   5.803   0.883   2.938  1.1126 -1.6448 -1.1990
  681MOL0     H91873   5.932   0.764   2.984 -0.7054 -1.7353 -0.3433
  681MOL0     H91874   5.782   0.685   3.168 -0.5770 -2.1973 -0.6845
  681MOL0     H91875   5.648   0.785   3.100 -0.6025  0.3419 -2.1065
  681MOL0     H91876   5.681   0.660   2.873  0.9751  2.4239  0.6026
  681MOL0     H91877   5.814   0.572   2.961  2.5477  2.0434  2.3414
  681MOL0     H91878   5.669   0.441   3.059  1.8186  0.8515 -2.0625
  681MOL0     H91879   5.555   0.584   3.086 -1.1742  1.5322 -0.7956
  681MOL0     H91880   5.578   0.453   2.809 -0.9089  0.6463 -0.0029
  681MOL0     H91881   5.477   0.382   2.930  2.8764 -1.8412 -0.3327
  681MOL0     H91882   5.467   0.676   2.853  1.0089 -1.3654 -3.0827
  681MOL0     H91883   5.400   0.557   2.750  1.2384 -0.8065 -0.1692
  681MOL0     H91884   5.244   0.680   2.924  0.2960 -0.6852 -3.5710
  681MOL0     H91885   5.300   0.559   3.046 -4.2895 -2.1903  0.2358
  681MOL0     H91886   5.252   0.300   2.991 -2.6312 -2.2736  0.0429
  681MOL0     H91887   4.956   0.156   2.783 -0.0059  0.5910  0.2793
  681MOL0     H91888   5.123   0.097   2.825 -1.2186 -0.9654 -1.2232
  681MOL0     H91889   5.050   0.180   3.072 -1.7112 -0.6676  0.7508
  681MOL0     H91890   5.026   0.019   3.006 -0.6657 -0.3857 -0.7260
  681MOL0     H91891   4.828   0.081   3.116  3.3921 -2.7317 -0.9465
  681MOL0     H91892   4.791   0.083   2.942 -0.2720 -1.4166  2.8296
  681MOL0     H91893   4.808   0.332   2.940 -0.5437 -0.8361 -0.8406
  681MOL0     H91894   4.844   0.340   3.117 -0.3332  2.6556 -1.0462
  681MOL0     H91895   4.647   0.207   2.806  0.5658  0.6917 -1.0449
  681MOL0     H91896   4.552   0.186   2.602 -0.8197 -1.2461 -2.9031
  681MOL0     H91897   4.393   0.136   2.596  2.3061 -2.4122  0.8994
  681MOL0     H91898   4.437   0.311   2.565  0.4861 -0.1173  0.6884
  681MOL0     H91899   3.888   0.425   2.941 -3.8872 -0.7736 -0.7448
  681MOL0     H91900   3.681   0.477   2.854  1.4155 -1.8205  0.4142
  681MOL0     H91901   3.501   0.476   2.715 -2.8483 -1.9934 -0.6030
  681MOL0     H91902   3.434   0.550   2.587 -1.4368 -0.9507  1.8293
  681MOL0     H91903   3.384   0.306   2.561  0.1176  0.9876  1.9336
  681MOL0     H91904   3.525   0.325   2.440 -0.3451 -2.3449  0.0936
  681MOL0     H91905   3.494   0.211   2.718  2.0599 -1.5318  1.5105
  681MOL0     H91906   3.662   0.253   2.654  0.9622 -1.5593 -2.4567
  681MOL0     H91907   3.474   0.071   2.514  0.8691  1.4458 -1.8330
  681MOL0     H91908   3.641   0.087   2.487  0.6648  2.6603 -1.3449
  681MOL0     H91909   3.544   0.013   2.764 -0.1030 -0.8364  0.5316
  681MOL0     H91910   3.705  -0.002   2.696 -0.1641 -0.3064 -0.3566
  681MOL0     H91911   3.479  -0.148   2.572  0.7669 -0.0364 -2.3082
  681MOL0     H91912   3.655  -0.204   2.579 -2.4125 -1.5128 -0.5894
  681MOL0     H91913   3.609  -0.219   2.828  2.9687  4.2024 -4.1888
  681MOL0     H91914   3.528  -0.349   2.717 -2.2145  1.4716 -3.2593
  681MOL0     H91915   3.326  -0.200   2.727  1.0340 -3.5587 -2.0701
  681MOL0     H91916   3.397  -0.107   2.866  0.0949  0.9810 -0.7096
  681MOL0     H91917   3.871   0.508   2.451 -0.1722  0.3739 -0.8765
  681MOL0     H91918   4.061   0.458   2.550 -0.4974  1.9833  0.7318
  681MOL0     H91919   4.213   0.329   3.018 -1.6451  0.9337 -2.0105
  681MOL0     H91920   4.431   0.324   3.152 -0.5498  1.6120 -0.4326
  681MOL0     H91921   5.696   1.231   3.221 -0.5659 -0.5347  1.1688
  681MOL0     H91922   5.781   1.411   3.370 -0.5638 -0.1965 -1.6045
  681MOL0     H91923   5.936   1.774   3.619 -1.3087 -1.5822 -1.1114
  681MOL0     H91924   6.072   1.897   3.789 -0.0690 -0.3701  1.0072
  681MOL0     H91925   6.322   1.664   4.038  0.8148  0.0441 -0.1279
  681MOL0     H91926   6.447   1.744   3.919  0.3850  3.0233  0.2924
  681MOL0     H91927   6.455   1.931   4.039 -1.5680  0.7773  0.7634
  681MOL0     H91928   6.513   1.815   4.157 -1.2859 -0.5529  2.0136
  681MOL0     H91929   6.326   1.834   4.290 -0.8454  0.3175 -0.2091
  681MOL0     H91930   6.212   1.870   4.167  1.3569 -3.8364 -1.8293
  681MOL0     H91931   6.320   2.101   4.150 -0.2816 -3.2047 -1.3396
  681MOL0     H91932   6.425   2.053   4.281 -0.3626 -2.7616  3.2844
  681MOL0     H91933   6.071   2.125   4.503 -0.7790  2.6320 -0.7734
  681MOL0     H91934   6.350   1.586   3.804  1.6236  2.5739  0.2885
  681MOL0     H91935   6.252   1.478   3.604  1.5765  0.8407  0.1565
  682MOL0     O91936   0.352   9.994   7.538  1.1909 -0.0370 -0.6686
  682MOL0     C91937   0.289  10.094   7.575  0.5840  1.0683 -0.3193
  682MOL0     O91938   0.275  10.128   7.702  0.5194 -0.2138 -0.0445
  682MOL0     C91939   0.356  10.074   7.795 -0.2026 -0.6508 -0.1380
  682MOL0     C91940   0.293  10.037   7.917  0.5522 -0.2111 -0.2124
  682MOL0     C91941   0.363   9.992   8.023 -0.1758  0.4475 -0.6786
  682MOL0     C91942   0.507   9.975   8.014  0.6031 -0.4005  0.4592
  682MOL0     O91943   0.569   9.925   8.128  0.4833 -0.0033 -0.2021
  682MOL0     C91944   0.706   9.875   8.122 -0.4312  0.1940 -0.0653
  682MOL0     C91945   0.697   9.738   8.040 -0.3035  0.2845 -0.0148
  682MOL0     C91946   0.825   9.664   8.007 -0.0646  0.3287 -0.3611
  682MOL0     C91947   0.911   9.729   7.907  0.4465 -0.5412  0.4120
  682MOL0     C91948   1.020   9.635   7.847  1.1341 -1.1162  0.5209
  682MOL0     C91949   1.152   9.702   7.803  0.2123  0.9241 -0.0573
  682MOL0     C91950   1.244   9.696   7.931  0.0379  0.4230  0.2346
  682MOL0     C91951   1.370   9.796   7.924  0.4420 -0.9399  0.1604
  682MOL0     N91952   1.439   9.779   7.799  0.2053  0.8709 -0.4230
  682MOL0     C91953   1.483   9.663   7.757  1.4398  0.5192  1.5815
  682MOL0     C91954   1.524   9.685   7.632 -0.7638 -0.8534  0.8622
  682MOL0     C91955   1.577   9.608   7.517  0.1497 -0.0840  0.4350
  682MOL0     C91956   1.466   9.518   7.455 -0.7313 -1.1483  0.3459
  682MOL0     C91957   1.450   9.387   7.537  0.2130 -0.3670 -0.6862
  682MOL0     C91958   1.341   9.303   7.465  0.0840  0.2864 -0.0667
  682MOL0     O91959   1.320   9.186   7.540 -0.0109 -0.7628  0.2069
  682MOL0     C91960   1.263   9.073   7.490  1.3881  0.3924  0.3775
  682MOL0     C91961   1.260   8.967   7.577  0.2475 -0.0229  0.3548
  682MOL0     C91962   1.189   8.851   7.542  0.7203 -0.0490  0.3042
  682MOL0     C91963   1.199   8.744   7.642 -0.1660  0.6532  0.2983
  682MOL0     C91964   1.127   8.841   7.416  0.7328  0.5630 -0.0912
  682MOL0     C91965   1.038   8.734   7.386  0.3870 -0.0646 -0.6128
  682MOL0     O91966   0.927   8.742   7.471 -0.5421  0.7824 -0.4039
  682MOL0     C91967   0.814   8.662   7.457 -0.1185 -0.1445  0.3199
  682MOL0     C91968   0.808   8.540   7.400  0.7013 -1.1663  0.7435
  682MOL0     C91969   0.696   8.461   7.404  0.0740  0.3214  0.2664
  682MOL0     C91970   0.572   8.511   7.446 -0.6635 -0.1153  0.5024
  682MOL0     O91971   0.461   8.432   7.449  0.0684  0.3382  0.0804
  682MOL0     C91972   0.464   8.307   7.527  0.3787 -0.1484  0.4153
  682MOL0     C91973   0.336   8.229   7.496 -0.2288 -0.5003  0.8440
  682MOL0     C91974   0.193   8.293   7.506 -0.3200  0.2719 -0.4761
  682MOL0     C91975   0.072   8.195   7.497  0.0332 -0.3237 -0.6634
  682MOL0     C91976   0.053   8.127   7.367  0.8344  0.6087  0.9944
  682MOL0     C91977  -0.074   8.036   7.347 -0.1512 -0.8983 -0.4761
  682MOL0     C91978  -0.205   8.109   7.333 -0.2607 -0.9447  0.7044
  682MOL0     C91979  -0.229   8.160   7.196  0.0008  0.1370 -0.2749
  682MOL0    Cl91980  -0.225   8.026   7.076 -0.0658 -0.1870 -0.1946
  682MOL0     C91981   0.569   8.646   7.488 -0.0303 -0.2959 -0.6207
  682MOL0     C91982   0.692   8.719   7.492  0.1378 -0.9275 -0.9816
  682MOL0     O91983   1.040   8.688   7.277  0.3511 -1.0351 -0.3361
  682MOL0     C91984   1.144   8.946   7.324 -0.4316  0.2757  0.3935
  682MOL0     C91985   1.211   9.062   7.362  0.1160 -0.0136  0.7636
  682MOL0     N91986   1.494   9.815   7.603 -1.1362  0.1057  0.4720
  682MOL0     N91987   1.439   9.872   7.702 -0.7599  0.9320  0.1137
  682MOL0     C91988   0.565   9.997   7.881  0.1453  0.1529  0.2374
  682MOL0     C91989   0.488  10.052   7.776 -1.0737  0.7897 -0.6189
  682MOL0     C91990   0.207  10.174   7.480  0.2867  0.9082  0.1737
  682MOL0     C91991   0.232  10.170   7.340 -0.3477  0.5156 -1.4947
  682MOL0     C91992   0.163  10.251   7.250 -0.0320 -0.2186  0.0706
  682MOL0     C91993   0.074  10.342   7.292 -0.3403 -1.0649 -0.2038
  682MOL0     O91994   0.000  10.424   7.208  0.4422  0.3215  0.6999
  682MOL0     C91995   0.054  10.470   7.083  0.9157  0.7936 -0.9073
  682MOL0     C91996   0.127  10.602   7.129 -0.2069 -0.3471 -0.3260
  682MOL0     C91997   0.035  10.734   7.139 -0.4084  0.5742  0.0210
  682MOL0     C91998   0.075  10.842   7.043 -0.9219  0.2225  0.9542
  682MOL0     C91999   0.057  10.798   6.898 -0.1524 -0.1417  1.0937
  682MOL0     C92000   0.053  10.744   6.788 -0.5672  0.2656  0.4400
  682MOL0     C92001   0.051  10.353   7.432 -0.1647  0.0124  0.0800
  682MOL0     C92002   0.115  10.266   7.525 -0.1496 -0.3709 -0.7630
  682MOL0     H92003   0.186  10.054   7.918  0.6410  0.3548  1.0741
  682MOL0     H92004   0.313   9.951   8.110  3.2850 -2.3423  0.2369
  682MOL0     H92005   0.774   9.950   8.083  1.9017 -1.1414  1.2245
  682MOL0     H92006   0.733   9.835   8.220  5.3068 -2.9438 -2.4408
  682MOL0     H92007   0.639   9.669   8.101 -1.6002  0.0658 -1.4371
  682MOL0     H92008   0.634   9.748   7.952 -3.2972 -0.9627  1.8302
  682MOL0     H92009   0.882   9.649   8.098 -1.7901 -1.9050  0.4550
  682MOL0     H92010   0.797   9.566   7.966  0.7241 -0.4480  0.9151
  682MOL0     H92011   0.856   9.778   7.826  1.3644 -0.1175  0.0202
  682MOL0     H92012   0.954   9.816   7.956  0.0712  1.4829 -2.5521
  682MOL0     H92013   1.047   9.560   7.922 -1.3061  0.0777  2.7792
  682MOL0     H92014   0.978   9.588   7.757 -2.9160  1.8495  0.5551
  682MOL0     H92015   1.198   9.652   7.717 -3.0168  0.2169 -1.4985
  682MOL0     H92016   1.127   9.803   7.769 -0.6970  1.2053  1.3910
  682MOL0     H92017   1.191   9.718   8.024  0.6348 -2.1732  1.2852
  682MOL0     H92018   1.286   9.597   7.952  2.9470  1.4799 -0.1246
  682MOL0     H92019   1.438   9.773   8.006  1.9182 -1.5706 -1.2069
  682MOL0     H92020   1.346   9.902   7.939  3.3675 -0.2199  0.3487
  682MOL0     H92021   1.474   9.567   7.807 -0.2018 -0.7585 -0.9259
  682MOL0     H92022   1.639   9.653   7.439 -1.7381 -2.5950 -2.8053
  682MOL0     H92023   1.645   9.538   7.567 -2.1976 -1.1599  2.3712
  682MOL0     H92024   1.496   9.505   7.351 -1.3800  2.4544 -0.4405
  682MOL0     H92025   1.372   9.575   7.448 -0.1527 -0.3931 -3.6645
  682MOL0     H92026   1.421   9.411   7.639 -2.7763  2.9189 -2.1025
  682MOL0     H92027   1.532   9.317   7.553 -1.7202 -2.3953  1.0574
  682MOL0     H92028   1.365   9.282   7.361 -1.0867 -1.8392  0.0350
  682MOL0     H92029   1.249   9.361   7.471 -0.5624 -0.7073 -0.1731
  682MOL0     H92030   1.293   8.970   7.680 -4.0313 -1.3358  1.9768
  682MOL0     H92031   1.104   8.690   7.649  0.2390 -0.2112 -0.7281
  682MOL0     H92032   1.286   8.687   7.607 -0.1164  1.7106 -1.4096
  682MOL0     H92033   1.229   8.789   7.737 -1.1174  0.5326  0.6656
  682MOL0     H92034   0.906   8.509   7.364  0.5750  1.5073 -2.3106
  682MOL0     H92035   0.700   8.363   7.359 -2.9878  0.1268  0.1736
  682MOL0     H92036   0.544   8.244   7.486  0.8096  0.3365  0.4993
  682MOL0     H92037   0.471   8.322   7.635 -0.7885  0.4634  0.4182
  682MOL0     H92038   0.353   8.201   7.391  1.0159  1.2695  0.5432
  682MOL0     H92039   0.339   8.140   7.559  0.5260 -1.8031 -0.9254
  682MOL0     H92040   0.173   8.358   7.420 -2.9030 -1.4647 -1.2906
  682MOL0     H92041   0.197   8.348   7.601 -0.4424  0.5285 -0.6167
  682MOL0     H92042   0.077   8.122   7.578 -1.6148  0.6087  0.3228
  682MOL0     H92043  -0.021   8.251   7.503  0.7472  1.0573 -1.7315
  682MOL0     H92044   0.139   8.066   7.341 -1.8230 -2.6284 -1.0171
  682MOL0     H92045   0.055   8.200   7.285  6.0438  1.2694  1.3999
  682MOL0     H92046  -0.053   7.953   7.279  3.2899  0.4201 -1.2313
  682MOL0     H92047  -0.087   7.990   7.446 -1.5080 -1.0859 -0.7311
  682MOL0     H92048  -0.207   8.199   7.396 -2.5750 -0.4004 -0.0295
  682MOL0     H92049  -0.291   8.047   7.360 -0.5241 -0.7591  0.2938
  682MOL0     H92050  -0.150   8.233   7.178 -0.3750  0.9017  1.0324
  682MOL0     H92051  -0.322   8.214   7.180  1.2354  1.7006 -2.7414
  682MOL0     H92052   0.474   8.689   7.519  0.3079 -0.7906  1.2246
  682MOL0     H92053   0.696   8.826   7.507 -0.2687 -0.4152 -3.9472
  682MOL0     H92054   1.093   8.946   7.228  0.8590 -0.4723 -0.3205
  682MOL0     H92055   1.198   9.144   7.292  0.4524 -1.9316 -1.7299
  682MOL0     H92056   0.668   9.971   7.859 -0.2257 -1.1121 -0.0956
  682MOL0     H92057   0.524  10.064   7.674  0.2056 -2.7191 -0.6942
  682MOL0     H92058   0.307  10.103   7.299  1.2078 -1.4603  3.7431
  682MOL0     H92059   0.186  10.218   7.150  2.0584 -0.0899  0.4650
  682MOL0     H92060   0.123  10.405   7.028 -0.0003  1.5369 -3.0437
  682MOL0     H92061  -0.029  10.482   7.013  1.4901 -0.7245 -1.9106
  682MOL0     H92062   0.203  10.609   7.050 -0.4032 -1.8965 -0.6915
  682MOL0     H92063   0.181  10.579   7.221 -1.7488 -3.1706 -0.0199
  682MOL0     H92064   0.060  10.774   7.237  1.4323  0.5848 -0.4276
  682MOL0     H92065  -0.072  10.717   7.126 -0.0396 -0.8002 -1.5835
  682MOL0     H92066   0.178  10.875   7.060 -0.7167 -0.6024  1.3939
  682MOL0     H92067   0.012  10.930   7.052  2.0128  2.5121  0.8404
  682MOL0     H92068   0.026  10.695   6.696 -2.4830 -1.3390  1.7825
  682MOL0     H92069  -0.021  10.428   7.463  1.9102  1.3870  1.8844
  682MOL0     H92070   0.088  10.264   7.630  2.6689  2.4030  0.1697
  683MOL0     O92071   4.507  11.089   8.641 -0.9167  0.6127  0.3524
  683MOL0     C92072   4.451  10.983   8.668 -1.0613  0.5665 -0.4415
  683MOL0     O92073   4.512  10.870   8.722  0.3688  0.3407  0.1678
  683MOL0     C92074   4.637  10.881   8.775 -0.6892 -0.1831 -0.3239
  683MOL0     C92075   4.757  10.929   8.710 -0.3554 -0.7458  0.0369
  683MOL0     C92076   4.884  10.909   8.759  0.1576  0.3267 -1.4777
  683MOL0     C92077   4.911  10.841   8.883 -0.3719 -0.1845 -0.2362
  683MOL0     O92078   5.037  10.824   8.936 -0.6478  0.5667 -0.1754
  683MOL0     C92079   5.152  10.883   8.870 -0.7091 -0.4893 -1.1051
  683MOL0     C92080   5.289  10.838   8.928  0.0249  0.0412 -0.2530
  683MOL0     C92081   5.288  10.694   8.986 -0.0220 -0.5677 -0.6639
  683MOL0     C92082   5.420  10.643   9.050  0.4600  0.6446 -0.1788
  683MOL0     C92083   5.413  10.492   9.087  0.3037  0.1987  0.1096
  683MOL0     C92084   5.533  10.426   9.168  0.3277  0.2295  0.0777
  683MOL0     C92085   5.658  10.422   9.078  1.0907 -0.9922  0.2547
  683MOL0     C92086   5.750  10.304   9.110 -0.1448  0.0053 -0.5177
  683MOL0     N92087   5.823  10.338   9.240  0.4698  0.1632 -0.8274
  683MOL0     C92088   5.771  10.306   9.365 -0.4827 -0.1852  0.4732
  683MOL0     C92089   5.856  10.369   9.442 -0.8105 -0.3043  0.4358
  683MOL0     C92090   5.853  10.380   9.598 -0.7889  1.1139 -0.2154
  683MOL0     C92091   5.964  10.281   9.658  0.4919 -0.4298  0.1348
  683MOL0     C92092   5.960  10.296   9.820 -0.0862  0.0027  1.0246
  683MOL0     C92093   6.048  10.187   9.883  1.2762 -0.0232 -0.4299
  683MOL0     O92094   6.020  10.150  10.015  0.4232  0.2037 -0.1527
  683MOL0     C92095   5.902  10.084  10.046 -0.9429 -0.7008  0.4672
  683MOL0     C92096   5.812  10.023   9.950 -0.0303  1.2988 -0.6001
  683MOL0     C92097   5.689   9.967   9.995 -0.2813 -0.3814  0.4173
  683MOL0     C92098   5.599   9.916   9.896  1.0208 -0.4770  0.0189
  683MOL0     C92099   5.652   9.980  10.130 -0.4144  0.2426  0.1306
  683MOL0     C92100   5.530   9.929  10.190  1.2200  0.8771 -0.0560
  683MOL0     O92101   5.434   9.864  10.116 -0.0945  0.6132 -0.3373
  683MOL0     C92102   5.314   9.811  10.173  0.2016  0.3231 -0.2792
  683MOL0     C92103   5.233   9.869  10.270  0.6092 -0.0448  0.9278
  683MOL0     C92104   5.125   9.800  10.319 -0.5091  0.4185  0.4232
  683MOL0     C92105   5.115   9.662  10.290 -0.5313  0.3925 -0.6640
  683MOL0     O92106   5.019   9.582  10.340 -0.0698  0.4921 -0.3378
  683MOL0     C92107   5.017   9.562  10.485 -0.0945  0.1964 -0.1385
  683MOL0     C92108   5.134   9.480  10.532 -0.5535  0.2674 -0.5283
  683MOL0     C92109   5.170   9.357  10.438 -0.1006  0.4055 -0.7594
  683MOL0     C92110   5.178   9.228  10.515 -0.3357 -1.1652 -0.0306
  683MOL0     C92111   5.261   9.122  10.451 -0.5798  0.7077 -0.1520
  683MOL0     C92112   5.304   9.018  10.559  1.0141  0.4117 -0.3481
  683MOL0     C92113   5.363   8.886  10.507  0.0579  0.1352  0.0121
  683MOL0     C92114   5.350   8.785  10.626 -0.8581  0.2999 -0.2976
  683MOL0    Cl92115   5.183   8.704  10.625 -0.0965  0.0749 -0.0395
  683MOL0     C92116   5.195   9.602  10.188  0.4323  0.1782 -0.1440
  683MOL0     C92117   5.297   9.676  10.131  0.5613 -0.9626 -0.2236
  683MOL0     O92118   5.504   9.965  10.303  0.4828  0.7098 -0.2319
  683MOL0     C92119   5.745  10.039  10.216 -0.9193 -0.3204 -0.5306
  683MOL0     C92120   5.872  10.084  10.170 -0.2849  0.0057 -0.7889
  683MOL0     N92121   5.963  10.420   9.362  0.8694  0.0125  0.1789
  683MOL0     N92122   5.930  10.417   9.241  0.0232  0.3489 -0.3141
  683MOL0     C92123   4.799  10.789   8.948  0.8055  0.1373  0.9910
  683MOL0     C92124   4.671  10.809   8.897 -0.0967  0.1635  0.3429
  683MOL0     C92125   4.306  10.984   8.637 -0.0703 -0.3332  0.0374
  683MOL0     C92126   4.244  11.100   8.585  0.5151  0.8511  0.0351
  683MOL0     C92127   4.103  11.105   8.566  0.4152  0.0917 -0.2554
  683MOL0     C92128   4.028  10.982   8.595  0.5695 -0.0119  0.8825
  683MOL0     O92129   3.896  10.958   8.604 -0.6458  0.4828  0.7333
  683MOL0     C92130   3.816  11.069   8.618  0.0050 -0.1129  0.8774
  683MOL0     C92131   3.676  11.035   8.642 -0.3320  0.3270 -0.1513
  683MOL0     C92132   3.599  11.138   8.728 -0.9471  0.2911 -0.2855
  683MOL0     C92133   3.597  11.090   8.884  0.7009 -0.3656  1.0768
  683MOL0     C92134   3.492  10.987   8.902  0.1577 -0.7027 -0.3739
  683MOL0     C92135   3.407  10.904   8.917 -0.7678  0.4575  0.5006
  683MOL0     C92136   4.093  10.869   8.634  0.1062  0.9406 -0.6702
  683MOL0     C92137   4.233  10.864   8.653  0.2359  0.2993 -1.2065
  683MOL0     H92138   4.751  10.974   8.612 -1.1449  0.2210  0.5002
  683MOL0     H92139   4.967  10.948   8.700  0.9034 -3.2515 -2.9997
  683MOL0     H92140   5.149  10.847   8.767  0.4438  0.7242 -1.6004
  683MOL0     H92141   5.132  10.991   8.873  1.1635 -0.1152 -0.9879
  683MOL0     H92142   5.360  10.845   8.845 -0.7578  0.8069 -0.8800
  683MOL0     H92143   5.311  10.916   9.002 -1.0529 -0.1657  0.3045
  683MOL0     H92144   5.204  10.673   9.053  0.8712 -1.7257  0.1432
  683MOL0     H92145   5.257  10.623   8.909  2.8012 -1.9986 -0.6276
  683MOL0     H92146   5.511  10.658   8.990  0.6225  0.5653  0.0447
  683MOL0     H92147   5.439  10.689   9.148 -1.3502 -2.1859  1.6722
  683MOL0     H92148   5.324  10.477   9.149 -2.0713 -0.1768 -3.1456
  683MOL0     H92149   5.396  10.438   8.994 -2.6071  1.2987 -0.1224
  683MOL0     H92150   5.558  10.475   9.263  0.4582 -0.4975  0.4278
  683MOL0     H92151   5.502  10.325   9.196 -1.8706  1.0057  0.6306
  683MOL0     H92152   5.629  10.416   8.973  3.3768  2.3345 -0.7103
  683MOL0     H92153   5.709  10.518   9.091  2.4515 -1.5797 -0.5983
  683MOL0     H92154   5.821  10.293   9.027  2.3091 -3.9595  1.8099
  683MOL0     H92155   5.686  10.215   9.115 -1.5878  1.0031 -0.7047
  683MOL0     H92156   5.680  10.257   9.398 -1.2606  0.7452 -0.2102
  683MOL0     H92157   5.870  10.484   9.626  0.5864  0.7672  0.3217
  683MOL0     H92158   5.751  10.350   9.623 -0.4993  1.2371  1.1817
  683MOL0     H92159   6.060  10.316   9.618  0.7823  2.2485  2.8134
  683MOL0     H92160   5.937  10.180   9.626 -0.4037 -0.0656 -0.2717
  683MOL0     H92161   5.855  10.296   9.854 -0.2440  1.6260  0.5866
  683MOL0     H92162   6.012  10.389   9.845  0.2352  0.8598 -2.3674
  683MOL0     H92163   6.148  10.230   9.874  2.1949 -1.4808  1.9045
  683MOL0     H92164   6.060  10.100   9.819 -0.5915 -1.5523  1.1751
  683MOL0     H92165   5.860  10.001   9.855 -0.6287 -1.1383 -0.3941
  683MOL0     H92166   5.646   9.913   9.797  1.1577 -0.7837  0.0926
  683MOL0     H92167   5.562   9.815   9.914 -3.0200  1.1420  1.7973
  683MOL0     H92168   5.506   9.971   9.884  0.0169 -2.1583 -0.1540
  683MOL0     H92169   5.272   9.962  10.312  2.5649 -0.2012 -0.4357
  683MOL0     H92170   5.070   9.842  10.402 -0.7320  3.0460 -0.9297
  683MOL0     H92171   5.023   9.661  10.530  2.2116  0.1730 -0.3039
  683MOL0     H92172   4.926   9.516  10.525  0.0791  1.0310  1.2820
  683MOL0     H92173   5.225   9.538  10.550 -0.1489 -1.0834  2.2331
  683MOL0     H92174   5.104   9.433  10.625 -1.7123  3.7391  1.0330
  683MOL0     H92175   5.264   9.371  10.384 -0.2912  1.9329 -0.7324
  683MOL0     H92176   5.082   9.347  10.375 -2.7550 -0.6584  2.7989
  683MOL0     H92177   5.217   9.257  10.612 -2.4902 -2.0005  1.1451
  683MOL0     H92178   5.079   9.186  10.531 -1.6423  1.6149 -0.1648
  683MOL0     H92179   5.352   9.178  10.428  0.0316  0.5903  1.7753
  683MOL0     H92180   5.211   9.088  10.360 -1.4964 -1.2419  1.0218
  683MOL0     H92181   5.374   9.059  10.633  2.4672 -2.4210 -0.0421
  683MOL0     H92182   5.211   8.991  10.610 -0.8183 -1.7235 -4.3373
  683MOL0     H92183   5.468   8.908  10.485 -0.3524 -0.7180 -3.3554
  683MOL0     H92184   5.316   8.844  10.418  0.6060 -2.6320  0.9288
  683MOL0     H92185   5.374   8.828  10.724 -2.7096  0.2470  0.2106
  683MOL0     H92186   5.419   8.702  10.605  1.1203  1.4466  1.2648
  683MOL0     H92187   5.186   9.498  10.159  0.5682 -1.2862  4.3067
  683MOL0     H92188   5.365   9.628  10.062  0.6583  1.0717 -1.6431
  683MOL0     H92189   5.731  10.056  10.322 -0.0600  3.5435 -0.8918
  683MOL0     H92190   5.936  10.134  10.242 -0.2763 -1.4776  0.3024
  683MOL0     H92191   4.816  10.735   9.042  0.0633  1.0548  1.6704
  683MOL0     H92192   4.588  10.758   8.943 -1.0964  1.3435 -0.1070
  683MOL0     H92193   4.318  11.179   8.571  3.4118 -1.9353 -2.0444
  683MOL0     H92194   4.072  11.198   8.520  1.7392  2.2124  2.7290
  683MOL0     H92195   3.857  11.119   8.706  0.5096 -0.3688  0.7947
  683MOL0     H92196   3.815  11.142   8.537 -0.2685  1.7830  2.5070
  683MOL0     H92197   3.670  10.939   8.692 -2.4329  1.0831  1.1912
  683MOL0     H92198   3.611  11.031   8.554 -1.5037  0.9838  0.6528
  683MOL0     H92199   3.498  11.149   8.689 -0.0560  0.4478 -2.7276
  683MOL0     H92200   3.647  11.235   8.715  0.1358  0.6750  4.7206
  683MOL0     H92201   3.567  11.177   8.944 -0.8076  0.6618 -1.0311
  683MOL0     H92202   3.697  11.054   8.909  1.2369  0.3027 -0.0458
  683MOL0     H92203   3.338  10.822   8.924 -0.1156 -0.1380 -0.0263
  683MOL0     H92204   4.030  10.781   8.645  2.4729 -0.7313  0.4501
  683MOL0     H92205   4.256  10.761   8.679  2.9542  0.7006 -1.7830
  684MOL0     O92206   6.553   5.099   5.946  1.3228 -0.0322  0.6548
  684MOL0     C92207   6.566   5.153   6.054  0.1808 -0.8317 -0.8739
  684MOL0     O92208   6.530   5.110   6.180  0.0720  0.1503  0.0414
  684MOL0     C92209   6.448   4.993   6.185 -0.4604  1.3571 -0.4087
  684MOL0     C92210   6.428   4.898   6.087  0.4472  1.0831 -0.2241
  684MOL0     C92211   6.340   4.792   6.102  0.6682  0.2273 -0.1478
  684MOL0     C92212   6.269   4.769   6.229 -0.9738  0.0030 -0.0186
  684MOL0     O92213   6.183   4.672   6.237  0.1538 -0.1762 -0.1634
  684MOL0     C92214   6.047   4.697   6.278  0.0183  0.2467 -0.3133
  684MOL0     C92215   5.944   4.587   6.261 -0.0834  0.1373 -0.2905
  684MOL0     C92216   5.994   4.450   6.313  0.8442  0.2833  0.5818
  684MOL0     C92217   5.986   4.436   6.465  0.0723 -1.1437  0.7890
  684MOL0     C92218   6.045   4.305   6.504  0.0759 -0.8671  0.2035
  684MOL0     C92219   6.029   4.258   6.653  0.1540  0.6437  0.4549
  684MOL0     C92220   6.054   4.380   6.743  0.2340 -0.8139 -0.1347
  684MOL0     C92221   6.032   4.351   6.895 -0.0435  0.1108 -0.0759
  684MOL0     N92222   6.111   4.241   6.952 -0.2636  0.4913 -0.4977
  684MOL0     C92223   6.107   4.187   7.081 -0.5360 -0.3193  0.2855
  684MOL0     C92224   6.203   4.092   7.074  0.3004  0.7821 -0.7228
  684MOL0     C92225   6.255   4.014   7.182 -0.2931  0.2330 -0.2387
  684MOL0     C92226   6.194   3.876   7.197  1.3195  0.3547 -0.1757
  684MOL0     C92227   6.241   3.813   7.326 -0.4352  0.4427  0.0364
  684MOL0     C92228   6.204   3.878   7.454  0.8386 -1.1080 -0.1656
  684MOL0     O92229   6.061   3.907   7.448  0.6550 -0.1918  0.3935
  684MOL0     C92230   5.997   3.920   7.565  0.2225  0.6671 -0.6378
  684MOL0     C92231   5.961   3.806   7.636  0.8244  0.2461 -0.3917
  684MOL0     C92232   5.907   3.817   7.762 -0.1331 -0.0685  0.6947
  684MOL0     C92233   5.832   3.691   7.818  0.1328 -1.2497  0.1566
  684MOL0     C92234   5.907   3.942   7.830 -0.3789 -0.8330 -1.5538
  684MOL0     C92235   5.844   3.965   7.969 -0.1417 -0.4145  0.1982
  684MOL0     O92236   5.741   3.888   8.008  0.0726  0.3080 -0.1580
  684MOL0     C92237   5.670   3.919   8.121 -0.1608  0.7075  0.1998
  684MOL0     C92238   5.534   3.916   8.110 -0.3740 -0.5729  1.1532
  684MOL0     C92239   5.457   3.946   8.220 -0.5826  0.6906  0.3437
  684MOL0     C92240   5.513   3.979   8.345 -0.9261 -0.7247 -0.4770
  684MOL0     O92241   5.448   4.009   8.453  0.0902 -0.2420 -0.6108
  684MOL0     C92242   5.327   4.093   8.425 -0.7518  0.7697 -0.6820
  684MOL0     C92243   5.214   3.995   8.440  1.2435  0.1301 -0.0394
  684MOL0     C92244   5.078   4.068   8.417  0.6370  0.7608 -0.0771
  684MOL0     C92245   4.977   4.047   8.534 -0.5774 -1.3314  0.3482
  684MOL0     C92246   5.026   4.152   8.647 -0.1126  0.1234  0.1450
  684MOL0     C92247   4.930   4.134   8.769 -0.5785  0.9604 -0.6980
  684MOL0     C92248   4.965   4.012   8.851  0.1980  0.0685  0.1533
  684MOL0     C92249   4.918   4.035   8.996  0.6926  0.7701  1.0878
  684MOL0    Cl92250   4.926   3.873   9.080  0.5669 -0.2663 -0.1150
  684MOL0     C92251   5.651   3.975   8.351  0.3706  0.2702  0.5131
  684MOL0     C92252   5.730   3.952   8.241 -0.1010 -0.2033 -0.0919
  684MOL0     O92253   5.896   4.056   8.032  0.9190 -0.4912  0.0674
  684MOL0     C92254   5.958   4.048   7.760 -0.7713  0.0129 -0.2386
  684MOL0     C92255   5.986   4.043   7.621  0.7184 -0.5658 -0.5959
  684MOL0     N92256   6.247   4.077   6.949  0.2485 -1.3071  1.1287
  684MOL0     N92257   6.205   4.180   6.875  0.1663  0.5089  0.1066
  684MOL0     C92258   6.290   4.862   6.326 -0.1585 -0.3698 -0.7007
  684MOL0     C92259   6.378   4.970   6.304  0.4658 -0.3003  0.2562
  684MOL0     C92260   6.638   5.286   6.060  0.6779  1.1760  0.0572
  684MOL0     C92261   6.686   5.347   6.176  0.0074  0.3633  0.5072
  684MOL0     C92262   6.749   5.475   6.169  0.7628 -0.1616 -0.4622
  684MOL0     C92263   6.757   5.551   6.048  0.9577  0.5799  0.8370
  684MOL0     O92264   6.824   5.668   6.053  0.0351 -0.0226 -0.1686
  684MOL0     C92265   6.865   5.740   5.935  0.5258  0.6900 -0.8027
  684MOL0     C92266   6.771   5.855   5.899  0.4472 -0.7482  0.6345
  684MOL0     C92267   6.829   5.952   5.795 -0.0620  0.3315  1.0714
  684MOL0     C92268   6.724   6.025   5.714  0.1810 -0.1671  0.5218
  684MOL0     C92269   6.636   6.092   5.816  0.2098 -0.7235  0.4165
  684MOL0     C92270   6.576   6.154   5.908  0.6232 -0.3005  0.7551
  684MOL0     C92271   6.702   5.487   5.926  0.7541 -0.3263  0.1117
  684MOL0     C92272   6.656   5.358   5.933  0.1431 -0.3789 -0.3800
  684MOL0     H92273   6.482   4.886   5.994  1.9053  1.0585  0.5927
  684MOL0     H92274   6.307   4.728   6.020 -3.0189 -0.9107  1.9975
  684MOL0     H92275   6.042   4.731   6.381 -2.6285 -1.4481  0.2145
  684MOL0     H92276   6.004   4.780   6.221 -1.2906  0.6242  1.1701
  684MOL0     H92277   5.851   4.628   6.301  0.8971  1.9202  0.2461
  684MOL0     H92278   5.920   4.574   6.155 -1.2966 -0.8376  0.0777
  684MOL0     H92279   5.938   4.368   6.268  3.4500 -2.9060  2.7502
  684MOL0     H92280   6.094   4.423   6.280  0.8620 -1.0307  1.6689
  684MOL0     H92281   6.045   4.523   6.496 -3.1092  0.3683  3.0458
  684MOL0     H92282   5.887   4.463   6.501  0.6433  1.6829  0.4723
  684MOL0     H92283   6.002   4.230   6.437 -1.7105  0.3758 -0.0866
  684MOL0     H92284   6.153   4.297   6.488  0.0482 -1.5986  0.3058
  684MOL0     H92285   5.924   4.235   6.667 -0.2326  1.2482 -1.1505
  684MOL0     H92286   6.085   4.169   6.682  0.3537  1.1064  1.5300
  684MOL0     H92287   6.156   4.419   6.735 -1.0382  2.8544 -0.1582
  684MOL0     H92288   5.985   4.464   6.728 -0.5064 -1.0969  1.4994
  684MOL0     H92289   5.928   4.320   6.915  0.4562 -0.2968  2.0530
  684MOL0     H92290   6.055   4.441   6.952  3.4848 -0.4988 -0.3234
  684MOL0     H92291   6.040   4.199   7.166  0.9587 -1.7548  1.7331
  684MOL0     H92292   6.359   3.995   7.153 -1.1676 -0.3169 -3.4514
  684MOL0     H92293   6.258   4.073   7.274  4.3579  1.8594 -1.1539
  684MOL0     H92294   6.215   3.818   7.106  0.2674  0.6682 -0.6339
  684MOL0     H92295   6.085   3.882   7.200  0.7229 -4.6785  5.3744
  684MOL0     H92296   6.349   3.804   7.312 -0.5131  1.5935 -1.7410
  684MOL0     H92297   6.207   3.709   7.330  1.5401 -0.5426 -3.6242
  684MOL0     H92298   6.253   3.974   7.473 -1.8618 -0.1497  2.9348
  684MOL0     H92299   6.244   3.817   7.536  1.1522 -0.2110  0.3623
  684MOL0     H92300   5.977   3.710   7.588  1.6349 -0.1250  0.5674
  684MOL0     H92301   5.851   3.603   7.756  0.0872 -0.7585 -0.5549
  684MOL0     H92302   5.864   3.684   7.923 -1.2828 -2.4647  0.5457
  684MOL0     H92303   5.723   3.699   7.808  0.4322  0.4927 -2.5013
  684MOL0     H92304   5.491   3.894   8.013 -1.8137  4.0062  0.5183
  684MOL0     H92305   5.350   3.935   8.207 -0.3978  1.6178 -2.7663
  684MOL0     H92306   5.317   4.151   8.517 -0.0013  0.0907 -0.1603
  684MOL0     H92307   5.326   4.159   8.338  2.1720  2.2741  0.2839
  684MOL0     H92308   5.229   3.909   8.374  3.3402 -2.8409  3.9081
  684MOL0     H92309   5.209   3.956   8.542  0.7957  1.0610  0.3074
  684MOL0     H92310   5.032   4.012   8.335 -0.7031  2.4880 -0.5434
  684MOL0     H92311   5.082   4.170   8.378 -0.1831  0.9843  0.4051
  684MOL0     H92312   4.875   4.065   8.499 -0.5719  1.2870  1.4863
  684MOL0     H92313   4.992   3.941   8.557  0.3164 -1.8603 -2.2887
  684MOL0     H92314   5.001   4.253   8.616 -2.1796 -0.2370  0.4826
  684MOL0     H92315   5.134   4.143   8.662  0.9537  0.4498 -5.3544
  684MOL0     H92316   4.923   4.224   8.831 -2.1524  1.0141 -0.9269
  684MOL0     H92317   4.829   4.113   8.733  0.3284 -1.7986 -1.9104
  684MOL0     H92318   5.073   3.990   8.849 -0.2526 -2.5988 -2.7369
  684MOL0     H92319   4.910   3.928   8.807 -1.4891 -1.9412  5.3388
  684MOL0     H92320   4.813   4.066   9.000  0.5656  0.3365  1.1810
  684MOL0     H92321   4.964   4.110   9.061  2.0283 -1.7557  3.2356
  684MOL0     H92322   5.693   3.999   8.448  1.9362  0.2787 -0.1261
  684MOL0     H92323   5.837   3.950   8.258 -0.1133  0.4720  0.1173
  684MOL0     H92324   5.952   4.141   7.815 -1.2155 -1.3335  2.1160
  684MOL0     H92325   6.012   4.127   7.557  0.8218 -0.1037  0.0332
  684MOL0     H92326   6.239   4.837   6.418 -1.5763  0.2112 -1.2892
  684MOL0     H92327   6.400   5.032   6.391  0.9509 -0.1235  0.0144
  684MOL0     H92328   6.694   5.294   6.270  0.4369 -0.7583 -0.1336
  684MOL0     H92329   6.806   5.507   6.256  2.8281 -0.7156 -1.5539
  684MOL0     H92330   6.964   5.781   5.958  0.8115 -0.4042 -0.0199
  684MOL0     H92331   6.885   5.675   5.849  3.2337  1.4143 -0.8155
  684MOL0     H92332   6.753   5.920   5.985 -0.9538  1.4933 -1.2152
  684MOL0     H92333   6.681   5.817   5.850 -1.2262  2.6276  0.7779
  684MOL0     H92334   6.906   5.908   5.731 -0.3965  0.6662  0.4175
  684MOL0     H92335   6.880   6.032   5.849  1.1882 -0.3922  1.0005
  684MOL0     H92336   6.666   5.959   5.650 -0.1946  0.9718 -0.3448
  684MOL0     H92337   6.770   6.103   5.654 -0.0232  0.5131  1.2262
  684MOL0     H92338   6.501   6.196   5.972 -0.7595 -0.0884 -0.9390
  684MOL0     H92339   6.699   5.542   5.833  4.9786  0.1051  0.0680
  684MOL0     H92340   6.634   5.306   5.840 -1.7345 -2.6923  1.2351
  685MOL0     O92341  10.070  10.790   1.007  0.0356  0.2570 -0.2201
  685MOL0     C92342  10.033  10.798   1.127 -0.4888 -0.2032 -0.1154
  685MOL0     O92343   9.909  10.771   1.168  0.1894 -0.0045  0.0450
  685MOL0     C92344   9.808  10.734   1.075  0.7514 -0.7561  0.8584
  685MOL0     C92345   9.697  10.826   1.080 -0.4075 -0.3387  0.2305
  685MOL0     C92346   9.603  10.808   0.981  0.6749  0.1861 -0.0431
  685MOL0     C92347   9.610  10.703   0.885  0.2573 -0.3865 -0.1648
  685MOL0     O92348   9.503  10.679   0.803 -0.2574  0.5339 -0.5163
  685MOL0     C92349   9.530  10.587   0.694  0.1837 -0.7950 -0.0747
  685MOL0     C92350   9.399  10.581   0.627  0.2258  0.0481  1.1047
  685MOL0     C92351   9.272  10.542   0.703 -0.8085 -0.3641  0.0535
  685MOL0     C92352   9.156  10.525   0.611 -1.3369  0.3532  0.0446
  685MOL0     C92353   9.036  10.447   0.672  0.3807 -0.4905 -0.2365
  685MOL0     C92354   8.919  10.441   0.569  0.1269  0.3502 -0.1598
  685MOL0     C92355   8.784  10.372   0.619  0.0611 -0.3990  1.0629
  685MOL0     C92356   8.658  10.423   0.541 -0.5095 -0.5528  1.4141
  685MOL0     N92357   8.589  10.530   0.611  0.1185 -1.1588  0.0652
  685MOL0     C92358   8.466  10.503   0.668 -0.0095  0.0773 -0.1915
  685MOL0     C92359   8.415  10.627   0.688 -0.9504  0.8443  0.4134
  685MOL0     C92360   8.288  10.645   0.766  0.2649 -0.4123 -0.0025
  685MOL0     C92361   8.175  10.599   0.676  0.7020 -0.3104 -0.3209
  685MOL0     C92362   8.147  10.688   0.563 -0.0045  0.8191 -0.0854
  685MOL0     C92363   8.045  10.654   0.464  0.5866  0.2335  0.0648
  685MOL0     O92364   8.040  10.516   0.441 -0.3065 -0.3044 -1.0134
  685MOL0     C92365   7.928  10.461   0.384 -0.0243  0.3249 -0.5048
  685MOL0     C92366   7.921  10.321   0.384 -0.0848 -0.5855  0.5828
  685MOL0     C92367   7.815  10.254   0.328  0.4309  0.0196  0.1707
  685MOL0     C92368   7.820  10.101   0.325 -0.6227 -0.6244  0.2773
  685MOL0     C92369   7.710  10.329   0.278  0.2377 -0.5375 -0.6766
  685MOL0     C92370   7.587  10.271   0.232  1.0847 -0.7197  0.0593
  685MOL0     O92371   7.598  10.219   0.108  0.1476 -0.4231 -0.7774
  685MOL0     C92372   7.492  10.136   0.071  0.3768 -0.3600 -0.4920
  685MOL0     C92373   7.422  10.048   0.153  0.0500  1.4855  0.1188
  685MOL0     C92374   7.311   9.988   0.098 -0.0074  0.3261  0.3588
  685MOL0     C92375   7.270   9.994  -0.037  0.1368 -0.4467 -0.4809
  685MOL0     O92376   7.168   9.925  -0.081 -0.0266 -0.9197  0.8975
  685MOL0     C92377   7.187   9.784  -0.076 -0.6538 -0.5424  0.4424
  685MOL0     C92378   7.063   9.708  -0.031  0.1971 -0.6096  0.5922
  685MOL0     C92379   6.952   9.727  -0.134  0.2132 -0.7686 -0.4541
  685MOL0     C92380   6.826   9.651  -0.092 -0.1402  0.9536  0.4610
  685MOL0     C92381   6.722   9.730   0.003 -0.8693  0.3433  0.1278
  685MOL0     C92382   6.600   9.646   0.031 -0.0419  0.1995  0.1003
  685MOL0     C92383   6.510   9.701   0.147  0.0511  0.1307 -0.5800
  685MOL0     C92384   6.378   9.623   0.171 -0.6011 -0.6202 -0.5772
  685MOL0    Cl92385   6.269   9.692   0.294 -0.1248  0.1714 -0.1258
  685MOL0     C92386   7.344  10.082  -0.111 -0.6992 -0.1991  0.7283
  685MOL0     C92387   7.453  10.151  -0.056 -0.1865 -0.4208  0.5510
  685MOL0     O92388   7.480  10.274   0.295 -0.6716  0.5378 -0.0435
  685MOL0     C92389   7.716  10.466   0.271 -0.0544  0.1077  0.7206
  685MOL0     C92390   7.825  10.530   0.330 -0.2994  0.0480 -0.3263
  685MOL0     N92391   8.513  10.720   0.666 -1.1262 -0.2371 -0.3057
  685MOL0     N92392   8.612  10.662   0.614 -0.7919 -0.5800 -0.3028
  685MOL0     C92393   9.724  10.623   0.886  1.2401  0.2959  0.4863
  685MOL0     C92394   9.823  10.640   0.970 -0.3275 -0.6909 -0.3624
  685MOL0     C92395  10.146  10.834   1.207 -0.8956  0.4112 -0.4840
  685MOL0     C92396  10.271  10.869   1.152 -0.5067  0.0817  0.1330
  685MOL0     C92397  10.383  10.900   1.233 -0.2262  0.7647  0.7071
  685MOL0     C92398  10.379  10.901   1.373  0.0312 -0.1029 -0.0121
  685MOL0     O92399  10.500  10.937   1.432  0.2661  0.2665 -0.4795
  685MOL0     C92400  10.502  10.946   1.574  0.1071  0.3862 -0.3565
  685MOL0     C92401  10.648  10.943   1.617  0.0805 -0.2625 -0.0573
  685MOL0     C92402  10.662  10.887   1.759 -0.1898 -0.2268  1.0264
  685MOL0     C92403  10.813  10.887   1.800 -0.6543  0.2131  0.8037
  685MOL0     C92404  10.887  11.019   1.786 -0.0179  0.2413  0.0351
  685MOL0     C92405  10.959  11.118   1.775 -0.1435  0.5885  0.9226
  685MOL0     C92406  10.252  10.860   1.435 -0.3058  0.1361  0.1681
  685MOL0     C92407  10.144  10.825   1.351 -0.1957  0.3309 -0.2794
  685MOL0     H92408   9.686  10.910   1.148  2.7555 -1.3230  2.1983
  685MOL0     H92409   9.521  10.879   0.976  0.2783 -0.3545 -2.8929
  685MOL0     H92410   9.607  10.635   0.631  0.4825  0.5662  1.2519
  685MOL0     H92411   9.557  10.485   0.720  1.7238 -1.1574 -2.7328
  685MOL0     H92412   9.384  10.681   0.584  0.2443 -0.1596  0.6132
  685MOL0     H92413   9.414  10.507   0.548 -4.2075  0.1091 -0.0963
  685MOL0     H92414   9.294  10.444   0.746  0.4401  0.3622  1.1054
  685MOL0     H92415   9.239  10.617   0.776  0.9341  0.4489  0.0458
  685MOL0     H92416   9.124  10.622   0.574 -2.6109 -0.2824 -0.5641
  685MOL0     H92417   9.181  10.472   0.519 -1.4821 -0.8834  0.6906
  685MOL0     H92418   9.061  10.346   0.705  2.3107  0.5017  1.6230
  685MOL0     H92419   9.008  10.502   0.763  1.0198 -0.0779 -0.2827
  685MOL0     H92420   8.903  10.543   0.533  2.7353  1.3781  1.3196
  685MOL0     H92421   8.950  10.366   0.496 -0.9290 -0.2889  0.0184
  685MOL0     H92422   8.796  10.264   0.600 -1.0124 -0.6067  1.5126
  685MOL0     H92423   8.761  10.375   0.726 -1.5192 -1.4712  0.7873
  685MOL0     H92424   8.587  10.340   0.539 -1.2987 -0.0002  3.7359
  685MOL0     H92425   8.675  10.454   0.437 -1.9440  3.1074  2.1209
  685MOL0     H92426   8.422  10.404   0.683  2.1831 -1.2261 -1.8121
  685MOL0     H92427   8.295  10.593   0.862  2.6897 -0.8330 -0.3510
  685MOL0     H92428   8.280  10.753   0.785 -1.1840 -0.2783 -1.1514
  685MOL0     H92429   8.083  10.589   0.735  0.9733  1.5644  0.4970
  685MOL0     H92430   8.202  10.502   0.635 -0.3773  0.2571 -2.5747
  685MOL0     H92431   8.237  10.718   0.508  1.5483 -1.0939  1.2456
  685MOL0     H92432   8.127  10.788   0.603  1.3666  0.5993  1.2632
  685MOL0     H92433   8.086  10.703   0.376  1.3521 -1.7058 -0.7157
  685MOL0     H92434   7.947  10.691   0.495  0.7066  1.1526 -0.6407
  685MOL0     H92435   8.012  10.274   0.420  1.4140 -1.1892 -3.4834
  685MOL0     H92436   7.791  10.061   0.423 -0.9049 -1.0103  0.0369
  685MOL0     H92437   7.748  10.064   0.251 -1.9378 -3.5040  2.7861
  685MOL0     H92438   7.920  10.066   0.301 -0.8076 -0.9316 -0.0440
  685MOL0     H92439   7.456  10.020   0.252 -0.9656  0.5467  0.2103
  685MOL0     H92440   7.253   9.931   0.170 -1.1713  2.2359  1.0170
  685MOL0     H92441   7.220   9.759  -0.177  0.9033  0.8332  0.5680
  685MOL0     H92442   7.274   9.767  -0.011 -0.2521  2.6385  0.8854
  685MOL0     H92443   7.083   9.601  -0.028  0.8913 -0.4953  0.2005
  685MOL0     H92444   7.019   9.760   0.055 -0.7135  2.2648 -1.4470
  685MOL0     H92445   6.998   9.667  -0.213  1.7222 -0.8871  0.4743
  685MOL0     H92446   6.939   9.823  -0.185  1.0797 -1.2079 -1.5303
  685MOL0     H92447   6.783   9.621  -0.188 -1.5910  3.5295  0.2081
  685MOL0     H92448   6.848   9.555  -0.045 -1.4368 -1.2417 -3.0372
  685MOL0     H92449   6.701   9.824  -0.049 -0.1589 -1.0340 -2.8795
  685MOL0     H92450   6.779   9.741   0.096  2.6754  0.7183 -1.8935
  685MOL0     H92451   6.531   9.635  -0.053  0.2783 -0.9720 -0.0233
  685MOL0     H92452   6.644   9.547   0.046  2.4350  1.6989  4.6202
  685MOL0     H92453   6.490   9.806   0.128  1.3463  0.8722  1.7458
  685MOL0     H92454   6.569   9.712   0.239 -2.1735  1.9366  0.7392
  685MOL0     H92455   6.406   9.523   0.208  1.7761  0.8395  1.9106
  685MOL0     H92456   6.317   9.615   0.080 -3.3315 -1.7293  1.2242
  685MOL0     H92457   7.315  10.119  -0.209 -1.9669  2.4792  1.9952
  685MOL0     H92458   7.516  10.207  -0.124 -0.6050 -0.7192 -0.1007
  685MOL0     H92459   7.638  10.524   0.222  1.7464  1.5615 -0.5325
  685MOL0     H92460   7.827  10.638   0.326  1.5791  0.1024 -5.1904
  685MOL0     H92461   9.729  10.537   0.820 -3.2314  0.4235 -0.3377
  685MOL0     H92462   9.911  10.577   0.972  1.4270  1.6289 -0.9355
  685MOL0     H92463  10.294  10.843   1.049  0.6584  0.8275  0.1880
  685MOL0     H92464  10.473  10.920   1.175 -0.3483  1.4783  0.7501
  685MOL0     H92465  10.467  11.046   1.601  1.8810  0.7200  0.7959
  685MOL0     H92466  10.451  10.863   1.623 -1.5235  2.0010  0.8184
  685MOL0     H92467  10.678  11.048   1.612 -3.8948  1.1181  1.3867
  685MOL0     H92468  10.704  10.875   1.553  0.5671  0.3965 -0.3395
  685MOL0     H92469  10.641  10.779   1.765  1.2970 -0.5245  1.2631
  685MOL0     H92470  10.613  10.954   1.830 -1.3103  2.3917 -1.9924
  685MOL0     H92471  10.860  10.814   1.733 -0.2397  0.5309  0.7434
  685MOL0     H92472  10.829  10.835   1.895 -0.9220 -0.9529  0.2331
  685MOL0     H92473  11.018  11.207   1.775 -1.8175  1.7603  1.9306
  685MOL0     H92474  10.244  10.851   1.543  0.3528  0.8720  0.2833
  685MOL0     H92475  10.060  10.784   1.407 -0.7302  1.9986  0.2229
  686MOL0     O92476   7.236   9.668   2.965 -0.4607 -0.3155  0.2045
  686MOL0     C92477   7.179   9.658   2.861 -0.2503  0.5265  0.6426
  686MOL0     O92478   7.075   9.722   2.814  0.2377  0.1832  0.1500
  686MOL0     C92479   6.988   9.764   2.902 -0.9573 -0.9211  0.2119
  686MOL0     C92480   6.925   9.893   2.893  0.0618  0.0864 -1.0323
  686MOL0     C92481   6.798   9.919   2.962 -0.6847  0.6059 -0.0612
  686MOL0     C92482   6.740   9.830   3.054 -0.4577 -0.4302 -0.6650
  686MOL0     O92483   6.642   9.865   3.145  0.4125  0.4408  0.4737
  686MOL0     C92484   6.578   9.998   3.138 -0.7822  0.5501  0.1741
  686MOL0     C92485   6.466  10.020   3.240 -1.0143  0.8925  0.0056
  686MOL0     C92486   6.451   9.915   3.349 -0.9852  0.1384 -0.1449
  686MOL0     C92487   6.361   9.792   3.345  1.0137  0.2403 -0.6672
  686MOL0     C92488   6.310   9.757   3.482  0.2367 -0.2758 -1.1302
  686MOL0     C92489   6.198   9.657   3.469  0.3482  0.0966 -0.6054
  686MOL0     C92490   6.141   9.624   3.614 -0.0014  0.5208  0.1177
  686MOL0     C92491   6.054   9.495   3.606  0.3875 -0.5040 -0.3818
  686MOL0     N92492   6.016   9.421   3.726 -0.0852 -0.3924 -0.1923
  686MOL0     C92493   6.021   9.473   3.853 -0.1374 -0.3717  1.0317
  686MOL0     C92494   5.963   9.382   3.934  0.9268 -0.9358  0.1385
  686MOL0     C92495   5.953   9.393   4.085  0.3378  0.2681 -0.1663
  686MOL0     C92496   5.808   9.389   4.147 -0.8355 -0.6172 -0.5183
  686MOL0     C92497   5.685   9.450   4.073  1.0656 -0.6817  0.2878
  686MOL0     C92498   5.707   9.601   4.052 -0.1071 -0.5977  0.3872
  686MOL0     O92499   5.667   9.677   4.166  0.5498  0.1841  0.4036
  686MOL0     C92500   5.528   9.681   4.192 -0.3315 -0.6360 -0.2132
  686MOL0     C92501   5.427   9.670   4.103  0.4624 -0.3702  0.2524
  686MOL0     C92502   5.288   9.674   4.144  0.0529  0.2126  0.6342
  686MOL0     C92503   5.175   9.665   4.040  0.6961 -0.4270 -0.9840
  686MOL0     C92504   5.261   9.674   4.286  0.3077 -0.5309  0.5681
  686MOL0     C92505   5.124   9.678   4.339  0.1633  0.7479  0.5949
  686MOL0     O92506   5.078   9.807   4.348  0.0853 -0.2120 -0.5607
  686MOL0     C92507   4.963   9.823   4.419 -0.1850 -0.6275 -0.7419
  686MOL0     C92508   4.960   9.886   4.539 -0.9901 -1.1557 -0.8140
  686MOL0     C92509   4.833   9.929   4.596  0.2214 -0.1948  0.4713
  686MOL0     C92510   4.710   9.887   4.532 -0.1772 -1.1052 -0.1676
  686MOL0     O92511   4.586   9.925   4.567  0.3860  0.4066  0.4013
  686MOL0     C92512   4.566   9.966   4.705 -0.1929 -0.6832  0.0755
  686MOL0     C92513   4.419   9.932   4.729  0.1977  0.8771 -0.5015
  686MOL0     C92514   4.320   9.974   4.617 -0.0323 -0.5971 -0.4330
  686MOL0     C92515   4.179  10.001   4.672 -0.2797  0.5171  0.9224
  686MOL0     C92516   4.090  10.010   4.554  0.1881 -0.0426  0.4643
  686MOL0     C92517   3.946  10.046   4.605 -0.7872 -0.8321  0.2771
  686MOL0     C92518   3.847  10.071   4.483  0.1407  0.5146 -0.6027
  686MOL0     C92519   3.763  10.201   4.490 -0.8902  0.6234 -0.7171
  686MOL0    Cl92520   3.643  10.211   4.618  0.1956 -0.3638  0.3514
  686MOL0     C92521   4.724   9.801   4.424 -0.3001 -0.5309 -0.7870
  686MOL0     C92522   4.843   9.779   4.358 -0.4670 -0.2589  0.0889
  686MOL0     O92523   5.069   9.577   4.367 -0.5150  0.0247 -0.8551
  686MOL0     C92524   5.363   9.682   4.377 -0.0848  0.3033  0.4825
  686MOL0     C92525   5.500   9.698   4.329 -0.5273  0.3178 -0.9943
  686MOL0     N92526   5.914   9.285   3.856  0.3115  0.4359  0.1132
  686MOL0     N92527   5.931   9.317   3.735  0.7547 -0.2532  0.5059
  686MOL0     C92528   6.801   9.705   3.062  1.0335 -0.6027  0.2509
  686MOL0     C92529   6.919   9.676   2.985 -0.5038 -0.2821 -0.1474
  686MOL0     C92530   7.243   9.555   2.782  0.0512 -0.2525  1.3271
  686MOL0     C92531   7.322   9.462   2.839 -0.8813 -0.3379 -0.4497
  686MOL0     C92532   7.374   9.359   2.757 -1.5052 -1.3570  0.8938
  686MOL0     C92533   7.339   9.348   2.624 -0.5852 -0.7075 -0.3136
  686MOL0     O92534   7.379   9.222   2.568 -0.2527 -0.7165 -0.8675
  686MOL0     C92535   7.364   9.210   2.425 -0.0300  0.1786 -0.8737
  686MOL0     C92536   7.231   9.133   2.387 -0.0172 -0.1825  1.0180
  686MOL0     C92537   7.231   8.978   2.418 -0.3412 -0.2651 -1.1351
  686MOL0     C92538   7.328   8.884   2.334  0.5942 -0.9035 -0.1154
  686MOL0     C92539   7.343   8.913   2.190 -0.4983 -0.5720  0.4878
  686MOL0     C92540   7.353   8.915   2.067 -0.0078 -0.3459 -0.1011
  686MOL0     C92541   7.262   9.446   2.561 -0.3908 -0.3451  0.9145
  686MOL0     C92542   7.211   9.544   2.643  0.6171 -0.2592 -0.2647
  686MOL0     H92543   6.974   9.966   2.830 -1.7532 -0.3612 -3.0606
  686MOL0     H92544   6.753  10.018   2.959 -0.3662  0.8429  1.5984
  686MOL0     H92545   6.661  10.068   3.146  0.1021 -0.4770  0.2542
  686MOL0     H92546   6.522  10.010   3.045 -2.3325  1.3741  1.1684
  686MOL0     H92547   6.491  10.109   3.298 -0.9685  0.7836  0.1551
  686MOL0     H92548   6.367  10.029   3.195 -0.9533  1.0182 -0.1022
  686MOL0     H92549   6.553   9.876   3.360 -0.0969  1.8059 -1.8924
  686MOL0     H92550   6.416   9.974   3.435  0.3569 -1.7440  1.8100
  686MOL0     H92551   6.280   9.824   3.279  1.0846 -1.4518 -1.6292
  686MOL0     H92552   6.406   9.704   3.298  5.9056  0.2789  3.0644
  686MOL0     H92553   6.396   9.711   3.531 -0.1828 -0.2437 -0.3505
  686MOL0     H92554   6.280   9.843   3.543 -0.6764 -0.6351 -1.0560
  686MOL0     H92555   6.113   9.677   3.404 -1.5983 -1.1390  1.4162
  686MOL0     H92556   6.234   9.562   3.428 -0.2367  0.0874 -1.1160
  686MOL0     H92557   6.224   9.609   3.683  0.0466  0.3251  0.0170
  686MOL0     H92558   6.080   9.712   3.638  2.0455  1.7858  0.9802
  686MOL0     H92559   6.099   9.426   3.535  0.6628  1.7445 -2.5194
  686MOL0     H92560   5.960   9.529   3.560 -0.2489  1.2312  1.9679
  686MOL0     H92561   6.064   9.568   3.882 -1.9620  1.4189 -1.5579
  686MOL0     H92562   5.998   9.299   4.118  1.2739  1.1499  1.1507
  686MOL0     H92563   6.016   9.467   4.135  0.4089 -0.3184  0.6297
  686MOL0     H92564   5.806   9.437   4.245 -0.7728 -2.5172  0.4685
  686MOL0     H92565   5.773   9.287   4.165 -1.8610 -0.2385 -0.3235
  686MOL0     H92566   5.586   9.438   4.117  0.8286  1.8306  0.6294
  686MOL0     H92567   5.673   9.406   3.973 -2.6164 -2.9457  1.5376
  686MOL0     H92568   5.662   9.635   3.959  1.3986  2.1328  0.5663
  686MOL0     H92569   5.815   9.617   4.048  0.0120 -1.5120 -1.8986
  686MOL0     H92570   5.442   9.676   3.996 -2.4453 -0.8682 -0.2714
  686MOL0     H92571   5.084   9.713   4.077 -0.9584 -3.5789 -0.6174
  686MOL0     H92572   5.201   9.716   3.947 -3.8517  0.1158 -2.1757
  686MOL0     H92573   5.152   9.563   4.008  0.8237 -0.1768 -1.9091
  686MOL0     H92574   5.047   9.918   4.596 -1.1886 -1.1052 -0.5358
  686MOL0     H92575   4.845   9.985   4.688 -0.5837 -0.4925  0.7647
  686MOL0     H92576   4.644   9.920   4.766 -1.0705 -1.2714  0.7678
  686MOL0     H92577   4.588  10.072   4.714  2.9876 -1.4529  3.9432
  686MOL0     H92578   4.408   9.824   4.743  1.2643  0.8368  0.1291
  686MOL0     H92579   4.377   9.977   4.819  0.3072  1.6695 -0.8434
  686MOL0     H92580   4.320   9.887   4.550  0.4514 -1.7399  0.9959
  686MOL0     H92581   4.352  10.064   4.562 -3.1544  1.8382  1.4132
  686MOL0     H92582   4.143   9.921   4.737 -6.5574  2.3105  0.2678
  686MOL0     H92583   4.170  10.097   4.725 -0.7686  0.8473  0.2447
  686MOL0     H92584   4.082   9.909   4.512 -1.3498  0.2405  0.0299
  686MOL0     H92585   4.115  10.090   4.485 -0.1202  1.3289  1.8881
  686MOL0     H92586   3.925   9.958   4.665  2.2845 -2.6471 -1.0432
  686MOL0     H92587   3.949  10.137   4.665  1.2170  0.4842 -1.6302
  686MOL0     H92588   3.768   9.996   4.473 -2.5276  3.1231 -0.3088
  686MOL0     H92589   3.902  10.064   4.388 -2.6545 -1.2808 -2.2314
  686MOL0     H92590   3.731  10.211   4.386  2.0303 -2.0531 -2.0506
  686MOL0     H92591   3.827  10.286   4.516 -0.9224  0.1821  0.9184
  686MOL0     H92592   4.628   9.767   4.387  0.8166 -2.9128 -1.7141
  686MOL0     H92593   4.833   9.728   4.263 -4.1026 -1.0641  0.7776
  686MOL0     H92594   5.340   9.673   4.483  1.1019 -4.2125  0.5620
  686MOL0     H92595   5.574   9.714   4.406 -2.3310 -3.0531  1.7271
  686MOL0     H92596   6.745   9.631   3.119 -2.1434  2.1253  0.9862
  686MOL0     H92597   6.948   9.572   2.976 -2.5423 -0.8262 -0.8284
  686MOL0     H92598   7.343   9.461   2.945 -3.2939 -1.1425  0.0700
  686MOL0     H92599   7.437   9.289   2.811 -0.7855 -0.5927  1.0820
  686MOL0     H92600   7.371   9.310   2.383  0.1108  1.8896  2.8077
  686MOL0     H92601   7.452   9.159   2.384  3.1280  4.2784  0.0973
  686MOL0     H92602   7.226   9.145   2.278 -0.0206  3.7971  1.3293
  686MOL0     H92603   7.148   9.182   2.439 -0.4761  1.1528 -0.8747
  686MOL0     H92604   7.126   8.949   2.408 -1.3349  2.6131 -0.1092
  686MOL0     H92605   7.248   8.962   2.525 -2.4614  1.0025 -0.5305
  686MOL0     H92606   7.286   8.783   2.342 -1.5153 -0.1953 -1.2861
  686MOL0     H92607   7.424   8.896   2.385  0.5520 -1.1126  0.0126
  686MOL0     H92608   7.371   8.935   1.963 -2.0299 -0.8579 -0.6070
  686MOL0     H92609   7.239   9.445   2.455 -1.6344  2.0295  1.0852
  686MOL0     H92610   7.134   9.612   2.607  2.1233  2.7727  1.8381
  687MOL0     O92611   9.419   6.837   3.519 -0.0824  0.6586 -0.6790
  687MOL0     C92612   9.312   6.812   3.464 -0.3924  0.3390  0.2583
  687MOL0     O92613   9.252   6.688   3.469  0.2761 -0.0217  0.4656
  687MOL0     C92614   9.302   6.568   3.516 -0.3812 -0.3132 -0.5128
  687MOL0     C92615   9.428   6.550   3.579 -0.2998 -1.4625  0.2271
  687MOL0     C92616   9.486   6.426   3.599  0.2839  0.8047 -0.7466
  687MOL0     C92617   9.417   6.310   3.580  0.1403 -0.2141 -0.7038
  687MOL0     O92618   9.461   6.181   3.601 -0.2388 -0.7330  0.7568
  687MOL0     C92619   9.566   6.148   3.695  0.0277  0.2345 -0.2786
  687MOL0     C92620   9.563   6.008   3.746 -0.0141 -0.0365 -0.5987
  687MOL0     C92621   9.501   6.014   3.882 -0.5975  1.0511 -0.5909
  687MOL0     C92622   9.501   5.877   3.958  0.7533  0.0620 -0.7406
  687MOL0     C92623   9.380   5.793   3.908 -0.9099  0.6325 -0.3914
  687MOL0     C92624   9.350   5.683   4.000 -0.1446  0.5510  0.6604
  687MOL0     C92625   9.230   5.591   3.946  0.8336 -0.2517 -0.7049
  687MOL0     C92626   9.158   5.499   4.042  0.0069 -0.6517 -0.0271
  687MOL0     N92627   9.101   5.560   4.169 -0.3634  1.0298  0.8582
  687MOL0     C92628   8.992   5.644   4.190 -0.3884 -0.0641 -0.4859
  687MOL0     C92629   9.017   5.703   4.306 -0.2746 -1.2049 -0.3549
  687MOL0     C92630   8.946   5.816   4.371 -0.0191 -0.2045 -0.2619
  687MOL0     C92631   8.907   5.786   4.515  0.0882 -0.3596  0.3395
  687MOL0     C92632   8.860   5.906   4.591 -0.4840  0.3127  0.1205
  687MOL0     C92633   8.748   5.995   4.529 -0.0430  0.4951  0.2425
  687MOL0     O92634   8.629   5.916   4.511 -0.4281  0.3123  0.3023
  687MOL0     C92635   8.526   5.997   4.487 -0.4193 -0.0676  1.2479
  687MOL0     C92636   8.398   5.939   4.487  0.5729  0.8074 -0.7245
  687MOL0     C92637   8.274   6.003   4.483  0.3592 -0.6290  0.1875
  687MOL0     C92638   8.149   5.914   4.483  0.4386  0.0574 -0.1296
  687MOL0     C92639   8.281   6.146   4.475  1.0184  0.5951 -0.2912
  687MOL0     C92640   8.161   6.232   4.487 -0.4627  0.1198 -1.1124
  687MOL0     O92641   8.173   6.363   4.452  0.2656 -0.1168 -0.1040
  687MOL0     C92642   8.062   6.436   4.479 -0.1180 -0.5795  1.2757
  687MOL0     C92643   7.980   6.462   4.373  0.1907  0.0035  0.6224
  687MOL0     C92644   7.861   6.523   4.369 -0.3089 -0.4110 -0.7471
  687MOL0     C92645   7.821   6.586   4.496 -0.8847  0.2259 -1.2037
  687MOL0     O92646   7.710   6.668   4.523 -0.3213 -0.1228 -0.1140
  687MOL0     C92647   7.702   6.764   4.408 -0.7156  0.7487 -1.2737
  687MOL0     C92648   7.634   6.886   4.464  0.0514 -0.1777 -0.0537
  687MOL0     C92649   7.614   6.986   4.342  1.3264  0.6371 -0.5268
  687MOL0     C92650   7.584   7.133   4.395  0.3884 -0.4527  0.3516
  687MOL0     C92651   7.570   7.238   4.277  0.0634 -0.6165 -0.2539
  687MOL0     C92652   7.454   7.210   4.185 -0.2545 -0.1134  0.6848
  687MOL0     C92653   7.459   7.306   4.059 -1.7393  0.1427  0.0690
  687MOL0     C92654   7.329   7.296   3.978 -0.6698  0.0817 -0.4310
  687MOL0    Cl92655   7.339   7.181   3.843  0.3492  0.0312  0.2833
  687MOL0     C92656   7.894   6.547   4.610  0.1026  0.0319  0.4909
  687MOL0     C92657   8.018   6.484   4.606  0.0667 -0.3032  0.7355
  687MOL0     O92658   8.056   6.180   4.517  0.1432 -0.0433  0.1078
  687MOL0     C92659   8.408   6.199   4.454  0.2616 -0.1833 -0.2779
  687MOL0     C92660   8.526   6.131   4.458 -1.2763  0.4896 -0.7274
  687MOL0     N92661   9.124   5.637   4.366 -0.2133  0.2300 -0.1603
  687MOL0     N92662   9.176   5.555   4.278 -0.6017  0.0551  0.3635
  687MOL0     C92663   9.284   6.324   3.530  0.5219  0.2037  0.7130
  687MOL0     C92664   9.229   6.451   3.499 -0.0091  0.1351  0.4573
  687MOL0     C92665   9.234   6.917   3.401 -0.0108  0.4216  0.4778
  687MOL0     C92666   9.289   7.045   3.408 -0.1435  0.7957  0.2034
  687MOL0     C92667   9.212   7.148   3.349  0.1524 -0.1621  0.0484
  687MOL0     C92668   9.093   7.123   3.273 -0.1905  0.4858  0.4449
  687MOL0     O92669   9.014   7.210   3.206  0.2708  0.5137  0.1231
  687MOL0     C92670   9.056   7.347   3.219 -0.4380 -0.3364  0.5228
  687MOL0     C92671   9.181   7.382   3.124  0.6251 -1.5191 -0.2168
  687MOL0     C92672   9.214   7.533   3.128 -0.2775  0.0112 -0.0037
  687MOL0     C92673   9.284   7.568   3.262 -0.5734 -0.2567 -0.1568
  687MOL0     C92674   9.197   7.664   3.334  0.0621 -0.4620 -0.4704
  687MOL0     C92675   9.106   7.722   3.387  0.2012  0.1229 -0.9233
  687MOL0     C92676   9.048   6.985   3.270 -0.1539 -1.1673  0.2192
  687MOL0     C92677   9.113   6.888   3.337  0.2663  0.4540  0.3029
  687MOL0     H92678   9.497   6.629   3.608  0.5825 -2.1105 -0.0421
  687MOL0     H92679   9.582   6.419   3.650 -0.5871  0.8713  0.9591
  687MOL0     H92680   9.659   6.168   3.642 -0.3755  3.4631  0.0521
  687MOL0     H92681   9.562   6.215   3.782  1.5135  1.0683 -0.8292
  687MOL0     H92682   9.525   5.928   3.681  1.4455  2.3425 -4.7886
  687MOL0     H92683   9.668   5.982   3.763  0.1974  2.1747  2.1411
  687MOL0     H92684   9.552   6.079   3.953  1.4452  0.9128 -1.8564
  687MOL0     H92685   9.398   6.052   3.882 -0.5797  1.2256  1.6209
  687MOL0     H92686   9.602   5.837   3.948  0.3376 -1.4504  0.7383
  687MOL0     H92687   9.473   5.904   4.060 -1.3150 -1.5888 -0.8188
  687MOL0     H92688   9.300   5.864   3.885 -0.3795  0.8910 -1.5257
  687MOL0     H92689   9.406   5.772   3.804 -2.3667  1.6698 -1.0025
  687MOL0     H92690   9.437   5.618   4.015 -2.2891 -2.4580  1.0103
  687MOL0     H92691   9.322   5.734   4.092 -1.6218  1.6851 -0.3738
  687MOL0     H92692   9.163   5.653   3.885  2.2079  0.1519 -1.8412
  687MOL0     H92693   9.280   5.522   3.878 -0.8049 -3.7804  1.3730
  687MOL0     H92694   9.237   5.427   4.067  2.1720  1.8341  0.7850
  687MOL0     H92695   9.073   5.450   3.993 -0.9680  0.8970  0.0629
  687MOL0     H92696   8.923   5.669   4.110 -2.1494 -3.5204 -0.2443
  687MOL0     H92697   9.002   5.910   4.372 -0.7895  0.2730 -0.3604
  687MOL0     H92698   8.854   5.830   4.313  0.7244  1.0534 -1.1834
  687MOL0     H92699   8.989   5.748   4.576  0.0167 -0.8074  0.1678
  687MOL0     H92700   8.821   5.717   4.515  0.1788 -0.5371 -1.6510
  687MOL0     H92701   8.951   5.965   4.605  2.3160 -2.3992 -4.2702
  687MOL0     H92702   8.821   5.871   4.688 -2.6742  1.2627 -0.3692
  687MOL0     H92703   8.770   6.043   4.433 -5.7014  4.4615  0.4294
  687MOL0     H92704   8.727   6.077   4.598  2.0410  1.2684  0.0056
  687MOL0     H92705   8.394   5.831   4.491  0.0128  0.8480 -0.1317
  687MOL0     H92706   8.060   5.947   4.430 -1.0143  0.5583  2.4695
  687MOL0     H92707   8.177   5.825   4.426  1.7699  0.0971  0.4183
  687MOL0     H92708   8.123   5.875   4.582 -0.8815  4.7557  1.6676
  687MOL0     H92709   8.009   6.431   4.272  1.1722  1.3018  0.4737
  687MOL0     H92710   7.795   6.523   4.283  0.8059 -0.4990 -1.6137
  687MOL0     H92711   7.802   6.794   4.377 -0.1389  0.9942  0.6660
  687MOL0     H92712   7.638   6.735   4.324 -0.9074  2.9407 -1.9245
  687MOL0     H92713   7.540   6.851   4.505 -0.6048  1.8622  0.3131
  687MOL0     H92714   7.686   6.923   4.553 -1.1036  0.7920  0.2442
  687MOL0     H92715   7.540   6.942   4.274  0.0587  1.7943  0.0557
  687MOL0     H92716   7.711   6.990   4.292  2.2760 -2.7035  0.7455
  687MOL0     H92717   7.485   7.140   4.441 -0.6753 -0.2330 -1.8477
  687MOL0     H92718   7.656   7.171   4.468  1.0931 -0.3952 -0.3597
  687MOL0     H92719   7.660   7.220   4.218  0.3909  0.2294 -0.0260
  687MOL0     H92720   7.563   7.342   4.310  0.7705 -0.0891 -1.6913
  687MOL0     H92721   7.442   7.113   4.135  0.1837  1.1492 -2.0877
  687MOL0     H92722   7.360   7.238   4.232 -0.2699  3.2814 -1.0569
  687MOL0     H92723   7.545   7.279   3.997 -1.2670  2.2881 -0.2931
  687MOL0     H92724   7.484   7.409   4.088 -1.0943  0.5079 -1.6721
  687MOL0     H92725   7.317   7.396   3.935  2.3968  0.5055 -0.5162
  687MOL0     H92726   7.250   7.266   4.047  0.2831 -1.4066  0.0553
  687MOL0     H92727   7.871   6.582   4.710  0.1892 -0.3317  0.6398
  687MOL0     H92728   8.066   6.459   4.700 -0.2256  1.8923  1.5122
  687MOL0     H92729   8.411   6.303   4.423  0.3895 -0.3681 -0.8969
  687MOL0     H92730   8.617   6.189   4.449 -0.3428 -0.6063  1.2084
  687MOL0     H92731   9.217   6.239   3.543 -1.1650  1.3348 -0.1924
  687MOL0     H92732   9.127   6.459   3.463 -1.1893 -2.7652  2.6827
  687MOL0     H92733   9.383   7.062   3.460  0.8518 -3.3516  0.1200
  687MOL0     H92734   9.267   7.240   3.367  1.0733 -0.7407  0.2367
  687MOL0     H92735   8.972   7.410   3.187  1.3120  0.7017 -2.4358
  687MOL0     H92736   9.080   7.366   3.324  0.9762 -1.1496  0.3644
  687MOL0     H92737   9.151   7.354   3.023 -2.0067 -1.1672  0.3822
  687MOL0     H92738   9.277   7.332   3.138  0.4853 -1.9978 -0.9139
  687MOL0     H92739   9.146   7.616   3.106  2.1560  2.8500  2.3332
  687MOL0     H92740   9.293   7.541   3.052  0.3293 -1.9972  0.3510
  687MOL0     H92741   9.381   7.614   3.241  0.2910 -2.6900 -1.9417
  687MOL0     H92742   9.303   7.493   3.340 -0.7021  1.6901  1.8312
  687MOL0     H92743   9.025   7.779   3.429  1.2626  0.0119  1.4242
  687MOL0     H92744   8.956   6.971   3.214  0.4669  0.2205 -1.2193
  687MOL0     H92745   9.077   6.786   3.327  0.7247  0.0837  2.1209
  688MOL0     O92746   3.349   2.162   6.454 -0.3114 -0.5875  0.2130
  688MOL0     C92747   3.319   2.068   6.532 -0.4390  0.0379  0.1214
  688MOL0     O92748   3.312   1.937   6.502  0.7395 -0.3594  0.1992
  688MOL0     C92749   3.306   1.887   6.375  0.4122  0.0134  0.3547
  688MOL0     C92750   3.340   1.950   6.257 -0.6319 -0.3462 -0.1371
  688MOL0     C92751   3.338   1.882   6.134 -0.3319  0.2985  0.5604
  688MOL0     C92752   3.295   1.752   6.127 -0.1791  0.7268  0.2201
  688MOL0     O92753   3.283   1.674   6.012  0.3260 -0.1521 -0.3481
  688MOL0     C92754   3.289   1.732   5.876 -0.1261  0.1936 -0.2768
  688MOL0     C92755   3.271   1.622   5.766 -0.3678  0.9332  0.3446
  688MOL0     C92756   3.351   1.499   5.788  0.4490  0.2885 -1.3293
  688MOL0     C92757   3.376   1.416   5.662 -0.1479  0.4571  0.5225
  688MOL0     C92758   3.428   1.281   5.700 -0.3411  0.0330  0.2177
  688MOL0     C92759   3.450   1.191   5.575 -0.7243  0.0617 -0.6352
  688MOL0     C92760   3.331   1.102   5.547  0.5888  0.3245  0.4679
  688MOL0     C92761   3.329   1.026   5.408  0.0669 -0.6001  1.0162
  688MOL0     N92762   3.449   0.942   5.384  0.0100  0.6653  0.3647
  688MOL0     C92763   3.523   0.944   5.271  0.1131 -0.1582 -0.3394
  688MOL0     C92764   3.611   0.851   5.279 -0.9037 -0.2973 -0.4235
  688MOL0     C92765   3.696   0.831   5.156 -0.2453  0.1319 -0.2631
  688MOL0     C92766   3.696   0.687   5.113 -0.3739  0.2770  0.1526
  688MOL0     C92767   3.757   0.594   5.219 -0.7797  0.0889  0.0630
  688MOL0     C92768   3.903   0.633   5.261  0.8168 -0.0123 -0.0978
  688MOL0     O92769   3.996   0.655   5.162 -0.4370  0.0014  0.2347
  688MOL0     C92770   4.103   0.571   5.159 -0.3341  0.5363 -0.4110
  688MOL0     C92771   4.105   0.447   5.086  0.5499 -0.8973  0.8048
  688MOL0     C92772   4.208   0.349   5.097 -0.3602 -1.0508 -0.7045
  688MOL0     C92773   4.178   0.228   5.010  0.6232  0.0175 -0.8676
  688MOL0     C92774   4.313   0.385   5.185  0.7523 -0.7022  0.3714
  688MOL0     C92775   4.433   0.306   5.216  0.3964  0.2788  0.6524
  688MOL0     O92776   4.561   0.373   5.221 -0.4532 -0.1046  0.3491
  688MOL0     C92777   4.677   0.306   5.187 -0.7711 -0.9656 -0.3139
  688MOL0     C92778   4.756   0.366   5.093 -0.7486 -0.3732  0.2688
  688MOL0     C92779   4.870   0.303   5.041 -0.4468 -0.8104 -0.1329
  688MOL0     C92780   4.897   0.169   5.076 -0.0055 -0.4081 -0.0148
  688MOL0     O92781   5.002   0.093   5.029 -0.0215 -0.3226  0.1642
  688MOL0     C92782   5.109   0.148   4.949  0.3641 -0.6812  0.3220
  688MOL0     C92783   5.176   0.043   4.863 -0.0092 -0.5382  1.1276
  688MOL0     C92784   5.312   0.093   4.809 -0.9713 -0.5627 -0.1610
  688MOL0     C92785   5.358   0.002   4.695 -0.5703 -0.0767 -0.5202
  688MOL0     C92786   5.507  -0.028   4.711  0.2804  0.7483  0.5716
  688MOL0     C92787   5.553  -0.116   4.599 -0.7283 -0.9011  0.6469
  688MOL0     C92788   5.683  -0.189   4.641 -0.2852  0.5699  0.7977
  688MOL0     C92789   5.716  -0.308   4.554  0.5703 -0.6223  0.1722
  688MOL0    Cl92790   5.580  -0.421   4.516 -0.3676  0.3415 -0.1524
  688MOL0     C92791   4.829   0.118   5.177 -0.4600 -0.4000 -0.0790
  688MOL0     C92792   4.719   0.184   5.239  0.9002  0.6815  0.2240
  688MOL0     O92793   4.418   0.183   5.224  0.2706 -0.4065  0.1619
  688MOL0     C92794   4.326   0.511   5.238 -0.1726  0.0783 -0.6885
  688MOL0     C92795   4.219   0.596   5.234 -0.6090  0.4657 -0.8117
  688MOL0     N92796   3.608   0.801   5.404 -0.6547  0.3231 -0.3197
  688MOL0     N92797   3.508   0.858   5.471  0.1876  0.3522 -0.5543
  688MOL0     C92798   3.266   1.691   6.253  0.1733  0.1173 -0.6375
  688MOL0     C92799   3.265   1.752   6.370  0.0621 -0.7037 -0.8679
  688MOL0     C92800   3.301   2.105   6.675 -0.6825  0.2816 -0.7700
  688MOL0     C92801   3.229   2.026   6.764 -0.1044 -1.0591 -1.2850
  688MOL0     C92802   3.209   2.063   6.897 -0.0746 -0.3056 -0.0078
  688MOL0     C92803   3.271   2.180   6.949 -0.0397  0.4137 -0.2185
  688MOL0     O92804   3.273   2.196   7.086 -0.0676 -0.0151  0.2234
  688MOL0     C92805   3.377   2.123   7.151  0.4024 -0.4079  0.8473
  688MOL0     C92806   3.334   2.088   7.295  0.4282 -0.0706  0.5284
  688MOL0     C92807   3.197   2.004   7.287  0.0150 -0.3549 -0.0787
  688MOL0     C92808   3.149   1.967   7.432  0.1150  0.4542 -0.0259
  688MOL0     C92809   3.149   2.079   7.523  0.2437 -0.6131  0.2453
  688MOL0     C92810   3.158   2.167   7.607 -0.7646 -0.3388 -0.1981
  688MOL0     C92811   3.338   2.263   6.856 -1.1257  0.0550 -0.2483
  688MOL0     C92812   3.362   2.221   6.728  0.0953 -0.5308  0.2283
  688MOL0     H92813   3.374   2.053   6.254  0.7476 -0.7662  0.3309
  688MOL0     H92814   3.373   1.939   6.048  0.2632  1.1242  1.3331
  688MOL0     H92815   3.218   1.813   5.858  1.1348  1.5241  0.4767
  688MOL0     H92816   3.387   1.780   5.869 -0.0725  0.0637 -0.4186
  688MOL0     H92817   3.165   1.596   5.757  0.1849 -1.1682 -0.6269
  688MOL0     H92818   3.296   1.658   5.665 -2.3645 -0.8991 -0.8803
  688MOL0     H92819   3.440   1.527   5.844 -0.7444 -0.4770  1.0784
  688MOL0     H92820   3.301   1.445   5.869  1.7578 -0.2973 -0.8934
  688MOL0     H92821   3.290   1.412   5.595  1.3145  1.5988 -1.5348
  688MOL0     H92822   3.449   1.472   5.603 -1.9948  3.0070  0.5128
  688MOL0     H92823   3.518   1.300   5.760  0.4680 -2.5645 -0.0347
  688MOL0     H92824   3.356   1.233   5.768 -0.1724  0.9159  1.0442
  688MOL0     H92825   3.469   1.252   5.487 -0.2845 -0.3796 -0.8493
  688MOL0     H92826   3.543   1.135   5.585 -0.5144  0.1500 -2.0107
  688MOL0     H92827   3.323   1.022   5.622  0.6268  0.8152  1.0027
  688MOL0     H92828   3.243   1.166   5.554  0.0600  0.2090 -3.2292
  688MOL0     H92829   3.327   1.099   5.327 -2.8493 -1.8925 -0.2516
  688MOL0     H92830   3.236   0.968   5.403  0.1869 -0.6796 -1.2983
  688MOL0     H92831   3.495   1.007   5.187  0.8851 -2.2218 -2.2263
  688MOL0     H92832   3.657   0.895   5.077 -3.1277 -1.3547 -0.2097
  688MOL0     H92833   3.799   0.863   5.174  0.7939 -1.7032 -2.5197
  688MOL0     H92834   3.755   0.679   5.022 -4.8740  0.0916 -3.1054
  688MOL0     H92835   3.593   0.652   5.103  0.0245 -0.8746 -0.0107
  688MOL0     H92836   3.756   0.495   5.174 -2.8422 -0.5196  1.3103
  688MOL0     H92837   3.694   0.582   5.308 -1.6687  0.2406 -0.5419
  688MOL0     H92838   3.942   0.552   5.325 -1.3694 -0.7266  0.3964
  688MOL0     H92839   3.909   0.725   5.319  0.7692  1.1741 -1.8929
  688MOL0     H92840   4.012   0.444   5.030  0.4478 -1.7261  1.0042
  688MOL0     H92841   4.201   0.136   5.065  1.4818  2.1326  2.6113
  688MOL0     H92842   4.078   0.230   4.966  0.6554 -2.3880 -1.1851
  688MOL0     H92843   4.241   0.235   4.921  0.9237 -0.5794 -0.7092
  688MOL0     H92844   4.738   0.468   5.063  0.6862 -0.2667 -0.3390
  688MOL0     H92845   4.928   0.367   4.975 -1.8600 -2.0289 -2.7330
  688MOL0     H92846   5.081   0.231   4.884 -4.0561 -0.5876  1.9840
  688MOL0     H92847   5.181   0.201   5.011 -0.2477  0.1632  0.3314
  688MOL0     H92848   5.185  -0.048   4.924 -2.2786 -1.7134 -0.1571
  688MOL0     H92849   5.107   0.016   4.783 -1.8471  0.3682  2.3179
  688MOL0     H92850   5.395   0.091   4.881 -1.8735 -2.7722  0.9302
  688MOL0     H92851   5.307   0.198   4.780  2.5372 -0.5365 -1.0674
  688MOL0     H92852   5.299  -0.090   4.697  0.2454 -0.6097  0.4346
  688MOL0     H92853   5.332   0.044   4.598 -2.8698  0.2090  0.1465
  688MOL0     H92854   5.511  -0.098   4.796 -1.4853 -2.5047 -1.7852
  688MOL0     H92855   5.573   0.058   4.720  1.1332  0.5143 -2.4054
  688MOL0     H92856   5.481  -0.196   4.580 -0.0460 -1.6568  1.1617
  688MOL0     H92857   5.579  -0.051   4.515 -4.0430  1.3594  1.2006
  688MOL0     H92858   5.686  -0.230   4.743  1.3015 -3.5234 -0.6909
  688MOL0     H92859   5.761  -0.112   4.637 -0.6189  0.8525 -0.6131
  688MOL0     H92860   5.787  -0.375   4.603 -0.1868 -1.7355 -0.1982
  688MOL0     H92861   5.756  -0.270   4.459  1.4064 -2.3299 -0.1920
  688MOL0     H92862   4.845   0.011   5.189  0.2081 -0.5058 -1.6427
  688MOL0     H92863   4.664   0.133   5.317  2.6518 -1.4495  0.1685
  688MOL0     H92864   4.414   0.554   5.285 -0.5963 -2.2517  2.6072
  688MOL0     H92865   4.241   0.683   5.296  1.2378 -1.5435  1.5764
  688MOL0     H92866   3.236   1.586   6.260  0.4553 -0.3728 -4.4349
  688MOL0     H92867   3.247   1.715   6.470  0.0748  2.4226  0.4182
  688MOL0     H92868   3.203   1.928   6.724  0.3728 -1.5780 -0.3732
  688MOL0     H92869   3.163   2.000   6.972  1.6868  1.4007  2.6725
  688MOL0     H92870   3.398   2.034   7.090 -0.6357 -1.0334  1.3802
  688MOL0     H92871   3.472   2.176   7.163  0.2296  0.1586 -0.2103
  688MOL0     H92872   3.325   2.183   7.348 -0.0871 -0.7219  1.6345
  688MOL0     H92873   3.406   2.025   7.348  2.7000  2.8591  1.2036
  688MOL0     H92874   3.206   1.911   7.231  1.6347 -0.1448 -0.2060
  688MOL0     H92875   3.119   2.074   7.256  0.4327  0.8814  1.4871
  688MOL0     H92876   3.222   1.891   7.462  0.9750  0.4041 -2.0757
  688MOL0     H92877   3.048   1.927   7.429 -0.6210  2.2363 -1.6104
  688MOL0     H92878   3.154   2.254   7.669 -0.1289  0.9608 -1.8984
  688MOL0     H92879   3.393   2.345   6.900  0.9214 -2.4841  2.2826
  688MOL0     H92880   3.428   2.277   6.663 -0.2797 -1.1931 -0.7524
  689MOL0     O92881   5.441  10.081  11.290  0.0059  0.7079  0.4122
  689MOL0     C92882   5.500   9.977  11.324 -0.3271  0.1409 -0.1761
  689MOL0     O92883   5.634   9.952  11.304  0.0107  0.3294 -0.0457
  689MOL0     C92884   5.717  10.033  11.228 -0.7128 -1.1462  0.1386
  689MOL0     C92885   5.819  10.088  11.298  0.5444 -1.3853 -0.8100
  689MOL0     C92886   5.914  10.182  11.235 -0.6287 -0.2005 -1.1848
  689MOL0     C92887   5.899  10.222  11.105 -0.3777  0.4009  0.5581
  689MOL0     O92888   5.982  10.316  11.037 -0.0808  0.1382 -0.2568
  689MOL0     C92889   6.051  10.418  11.112  0.1918  0.1229 -0.0884
  689MOL0     C92890   5.949  10.524  11.171 -0.8024 -0.3280  0.6148
  689MOL0     C92891   5.845  10.557  11.060 -0.3134 -0.4009  0.4314
  689MOL0     C92892   5.913  10.606  10.926 -0.2206  0.1587 -0.5048
  689MOL0     C92893   6.038  10.703  10.952  0.7331  0.3113 -0.0483
  689MOL0     C92894   6.047  10.789  10.827  0.0823 -0.5128  0.1288
  689MOL0     C92895   6.148  10.739  10.709  0.8255  0.3132  0.3329
  689MOL0     C92896   6.098  10.613  10.628  0.9307 -0.0657  0.1149
  689MOL0     N92897   6.200  10.574  10.524 -0.3514  0.2427 -0.3688
  689MOL0     C92898   6.173  10.498  10.415  0.2993 -0.3744  0.3065
  689MOL0     C92899   6.291  10.455  10.364  1.2238 -1.5609 -0.2501
  689MOL0     C92900   6.312  10.357  10.244 -1.4266 -0.2768 -0.0917
  689MOL0     C92901   6.305  10.206  10.287 -0.5613  0.4952  0.3799
  689MOL0     C92902   6.435  10.148  10.353 -0.4541 -0.2783 -0.2738
  689MOL0     C92903   6.385  10.024  10.428 -0.1484  0.8931  0.5288
  689MOL0     O92904   6.492   9.960  10.494 -0.4987  0.0622 -0.2709
  689MOL0     C92905   6.457   9.879  10.606 -0.7290 -0.2748  0.9094
  689MOL0     C92906   6.563   9.859  10.691 -0.8173 -0.1519  0.2492
  689MOL0     C92907   6.546   9.797  10.810  0.6819  0.7834 -0.1490
  689MOL0     C92908   6.660   9.811  10.912  0.4200  1.0406  1.0863
  689MOL0     C92909   6.417   9.735  10.839  0.5760 -0.2876 -0.2565
  689MOL0     C92910   6.399   9.651  10.959  0.4697 -1.0677  1.0786
  689MOL0     O92911   6.277   9.641  11.008 -0.4631  0.6753 -0.1547
  689MOL0     C92912   6.250   9.547  11.099  0.1174 -0.2049  0.3238
  689MOL0     C92913   6.170   9.432  11.058 -1.1093  0.0319 -0.1032
  689MOL0     C92914   6.143   9.329  11.137  0.9203  0.1959 -0.0293
  689MOL0     C92915   6.187   9.320  11.269 -0.9816  0.4047 -0.3495
  689MOL0     O92916   6.160   9.211  11.344 -0.1272  0.4235  0.0249
  689MOL0     C92917   6.257   9.152  11.432 -0.1022  0.9208 -0.0503
  689MOL0     C92918   6.205   9.029  11.503 -0.0004 -0.3581  0.0668
  689MOL0     C92919   6.312   8.934  11.556  0.4974 -1.0580  0.3312
  689MOL0     C92920   6.271   8.804  11.604 -0.4504  0.2906  0.1444
  689MOL0     C92921   6.180   8.726  11.507 -0.3175  0.3712 -1.0925
  689MOL0     C92922   6.144   8.599  11.587  0.3133 -0.5835 -1.3712
  689MOL0     C92923   6.066   8.502  11.497 -0.0730 -0.7822 -0.2377
  689MOL0     C92924   6.023   8.375  11.574  0.6272 -0.1163  0.7200
  689MOL0    Cl92925   6.151   8.249  11.590  0.0118 -0.0226  0.0104
  689MOL0     C92926   6.263   9.434  11.325 -0.0549  0.8127  0.6080
  689MOL0     C92927   6.298   9.538  11.236  0.2870  0.0608 -0.0817
  689MOL0     O92928   6.486   9.584  10.995  0.1674 -0.5418 -0.3218
  689MOL0     C92929   6.304   9.751  10.747  0.2245 -0.5028  0.0787
  689MOL0     C92930   6.332   9.830  10.634 -0.4860 -0.2235  0.8614
  689MOL0     N92931   6.388  10.501  10.452 -0.1488 -0.1636  0.3888
  689MOL0     N92932   6.334  10.577  10.542 -0.8650 -0.3318 -0.8792
  689MOL0     C92933   5.793  10.158  11.029 -0.5628  0.3089 -0.0523
  689MOL0     C92934   5.710  10.065  11.088  0.4264 -0.1513  0.8396
  689MOL0     C92935   5.420   9.866  11.384  0.0928 -0.0448 -0.2319
  689MOL0     C92936   5.486   9.752  11.423 -0.2408 -0.8454  0.3351
  689MOL0     C92937   5.426   9.648  11.495 -1.1709  0.0492 -0.3587
  689MOL0     C92938   5.298   9.653  11.537  0.4481  0.5582  0.4497
  689MOL0     O92939   5.242   9.540  11.597 -0.5590  0.8731 -0.1985
  689MOL0     C92940   5.101   9.538  11.632 -0.1207  0.5419  0.1425
  689MOL0     C92941   5.070   9.430  11.736 -0.9542  0.2439  1.0004
  689MOL0     C92942   4.936   9.358  11.707  0.2665  0.4519 -0.5921
  689MOL0     C92943   4.919   9.237  11.809 -0.2079 -0.4144 -0.3079
  689MOL0     C92944   4.802   9.281  11.886  0.0675 -0.4041  0.3978
  689MOL0     C92945   4.723   9.343  11.953  0.7155 -0.0852  0.1806
  689MOL0     C92946   5.229   9.768  11.481 -0.4530 -0.0697  0.5760
  689MOL0     C92947   5.282   9.872  11.403 -0.7632 -0.5212  0.5358
  689MOL0     H92948   5.833  10.056  11.401 -0.3249 -0.4442 -0.3883
  689MOL0     H92949   5.999  10.216  11.293 -1.7075  1.9036 -0.7154
  689MOL0     H92950   6.106  10.374  11.195  0.6972 -0.0428 -0.5110
  689MOL0     H92951   6.132  10.465  11.056  0.5356 -0.3246  0.0336
  689MOL0     H92952   5.887  10.495  11.257 -1.5729  1.6943  0.7978
  689MOL0     H92953   6.008  10.610  11.204 -3.2872  0.7804  2.5294
  689MOL0     H92954   5.777  10.472  11.053  1.1912 -1.7795  1.7495
  689MOL0     H92955   5.781  10.636  11.098 -1.7557 -0.3587 -1.8848
  689MOL0     H92956   5.951  10.511  10.886  0.4978 -0.5776  1.7993
  689MOL0     H92957   5.828  10.648  10.872  0.5815  0.9779 -1.1819
  689MOL0     H92958   6.017  10.768  11.038 -0.8632  1.7057 -1.4168
  689MOL0     H92959   6.126  10.638  10.951 -0.7184 -1.7172  0.2606
  689MOL0     H92960   5.953  10.825  10.785  0.8699  0.0131 -1.2610
  689MOL0     H92961   6.097  10.880  10.861 -1.9638  2.1049 -3.2763
  689MOL0     H92962   6.157  10.812  10.628 -1.6230  0.3263 -0.0035
  689MOL0     H92963   6.247  10.722  10.751  1.8361  2.3243 -1.0701
  689MOL0     H92964   6.000  10.622  10.579  0.5793  0.8304  0.9626
  689MOL0     H92965   6.090  10.537  10.706  0.5189  1.8825  2.0693
  689MOL0     H92966   6.074  10.478  10.374  0.0182  1.7165 -0.1617
  689MOL0     H92967   6.229  10.359  10.173 -1.3351 -0.1480 -0.1959
  689MOL0     H92968   6.404  10.382  10.189 -1.3570  0.7863  0.4773
  689MOL0     H92969   6.279  10.147  10.199  0.4654 -0.5136  0.7332
  689MOL0     H92970   6.226  10.198  10.363 -0.4436  0.9043  0.5466
  689MOL0     H92971   6.471  10.228  10.419 -1.7862 -0.1998  0.4133
  689MOL0     H92972   6.510  10.122  10.278 -0.1498  2.0763 -0.8636
  689MOL0     H92973   6.337   9.956  10.357  1.6149 -0.3129  0.4405
  689MOL0     H92974   6.309  10.055  10.501 -1.4226 -0.0149 -0.3647
  689MOL0     H92975   6.643   9.927  10.664 -3.1889  2.5460 -0.5098
  689MOL0     H92976   6.625   9.841  11.011 -3.6829 -0.2345  0.2122
  689MOL0     H92977   6.704   9.711  10.914 -0.4340  0.6738  2.4993
  689MOL0     H92978   6.731   9.888  10.880 -0.6015  0.4942 -3.0457
  689MOL0     H92979   6.144   9.425  10.953 -1.2550 -1.3379  0.0052
  689MOL0     H92980   6.089   9.243  11.098 -2.0681  1.1258  1.7663
  689MOL0     H92981   6.339   9.119  11.368  0.3928  1.5030  0.2753
  689MOL0     H92982   6.290   9.223  11.509 -1.6179 -0.0559  1.5864
  689MOL0     H92983   6.137   9.054  11.585  0.5479 -2.9740  1.4380
  689MOL0     H92984   6.148   8.980  11.423  4.2712 -2.8596 -1.7887
  689MOL0     H92985   6.360   8.996  11.632 -0.4729  2.0667 -1.4235
  689MOL0     H92986   6.391   8.930  11.480 -0.5587 -0.4434 -0.8557
  689MOL0     H92987   6.366   8.752  11.620 -0.6823 -0.5114 -0.9794
  689MOL0     H92988   6.233   8.814  11.706  0.5836  0.7674  0.5000
  689MOL0     H92989   6.243   8.689  11.426  3.2132  0.1812  1.4629
  689MOL0     H92990   6.104   8.784  11.453 -1.1361 -1.3171 -1.8115
  689MOL0     H92991   6.233   8.569  11.642  0.5034  1.7260 -0.3041
  689MOL0     H92992   6.065   8.626  11.658  0.6572  0.8552 -1.5004
  689MOL0     H92993   6.141   8.462  11.427  0.6786 -1.9858  1.1940
  689MOL0     H92994   5.988   8.554  11.441  0.2514 -1.2386 -1.1377
  689MOL0     H92995   5.931   8.342  11.525 -0.8097  2.1807  1.7193
  689MOL0     H92996   5.989   8.416  11.670  0.1869  3.8296 -0.9341
  689MOL0     H92997   6.312   9.440  11.421  1.2557  1.9891 -0.0844
  689MOL0     H92998   6.362   9.620  11.266  1.9105 -1.4489  0.7569
  689MOL0     H92999   6.205   9.712  10.767  0.3411 -0.2005  1.3365
  689MOL0     H93000   6.250   9.844  10.565 -0.7915 -3.4180  0.3905
  689MOL0     H93001   5.783  10.183  10.924  1.2206  3.0834  0.3498
  689MOL0     H93002   5.633  10.009  11.036  0.9119 -1.8785  1.9061
  689MOL0     H93003   5.590   9.734  11.399  0.6898  4.1709 -0.5698
  689MOL0     H93004   5.497   9.568  11.512  0.1840  1.5332  1.3564
  689MOL0     H93005   5.061   9.633  11.670  1.2940  0.9477  0.6527
  689MOL0     H93006   5.061   9.515  11.533  1.1089  3.1862 -1.0554
  689MOL0     H93007   5.063   9.464  11.839 -3.1198  0.3312  0.8741
  689MOL0     H93008   5.146   9.352  11.729  0.1015  1.3043  0.4270
  689MOL0     H93009   4.945   9.313  11.608  3.3056 -0.3008 -0.0842
  689MOL0     H93010   4.852   9.428  11.712  0.0737  0.1558  2.5360
  689MOL0     H93011   5.006   9.219  11.873 -0.6484 -0.2703  0.3557
  689MOL0     H93012   4.885   9.150  11.752 -0.2669  0.3852 -1.5239
  689MOL0     H93013   4.643   9.393  12.004 -0.9367 -1.7788 -0.6346
  689MOL0     H93014   5.124   9.779  11.506 -0.0420 -0.4128  2.6715
  689MOL0     H93015   5.213   9.950  11.371 -0.1582 -0.4169 -0.5390
  690MOL0     O93016   6.721   1.101   2.856 -0.1084  0.3994 -0.5442
  690MOL0     C93017   6.725   1.082   2.734 -0.8182 -0.8728  0.1724
  690MOL0     O93018   6.836   1.061   2.666 -0.6413  0.4160  0.6399
  690MOL0     C93019   6.958   1.019   2.725 -0.1063  0.1017 -0.2034
  690MOL0     C93020   7.070   1.042   2.656  0.0809 -1.6888  0.0291
  690MOL0     C93021   7.197   0.994   2.695 -0.0664 -1.0434 -0.2883
  690MOL0     C93022   7.202   0.910   2.807  0.5656 -0.1728  0.0088
  690MOL0     O93023   7.316   0.836   2.839  0.7228  0.0846 -0.2025
  690MOL0     C93024   7.443   0.850   2.769 -0.1226 -0.8788  0.1410
  690MOL0     C93025   7.503   0.711   2.768 -0.4217  0.3417 -0.2865
  690MOL0     C93026   7.609   0.663   2.666  0.4664 -0.2873  0.3497
  690MOL0     C93027   7.693   0.548   2.722 -0.3262  0.9006  0.4714
  690MOL0     C93028   7.804   0.494   2.632  0.4432  0.4504 -0.2286
  690MOL0     C93029   7.941   0.566   2.660 -0.2804  0.6047  0.5938
  690MOL0     C93030   8.042   0.551   2.554  0.6650  0.8843 -0.2368
  690MOL0     C93031   7.991   0.611   2.421 -0.4390  0.5904 -0.7064
  690MOL0     N93032   8.110   0.628   2.340 -0.0281  0.5868  1.2282
  690MOL0     C93033   8.123   0.595   2.208 -0.9950 -0.0941  0.0672
  690MOL0     C93034   8.235   0.674   2.171 -0.5085 -0.3810 -0.5048
  690MOL0     C93035   8.290   0.675   2.029  1.0093 -0.8925  0.2450
  690MOL0     C93036   8.424   0.593   2.020  0.7634  0.4818  0.2762
  690MOL0     C93037   8.418   0.451   2.039 -0.3612  0.8629 -0.1392
  690MOL0     C93038   8.558   0.390   2.019 -0.1593 -0.6509  0.0760
  690MOL0     O93039   8.603   0.390   1.883 -0.4563  0.7241 -0.8315
  690MOL0     C93040   8.719   0.313   1.858 -0.1802  0.3451 -0.6055
  690MOL0     C93041   8.745   0.299   1.720  1.1079  0.4182  0.2717
  690MOL0     C93042   8.843   0.224   1.669  0.7628  0.9772 -0.4301
  690MOL0     C93043   8.851   0.222   1.516  0.1242  0.2185  0.1723
  690MOL0     C93044   8.923   0.141   1.756 -0.0150 -0.0425 -0.1248
  690MOL0     C93045   9.050   0.066   1.711  0.4461  0.6700  0.2679
  690MOL0     O93046   9.118   0.107   1.597  0.0923  0.1848  0.3362
  690MOL0     C93047   9.232   0.037   1.562  0.6064 -0.5854  0.8562
  690MOL0     C93048   9.230  -0.038   1.441  0.0849 -0.1351 -0.1700
  690MOL0     C93049   9.347  -0.100   1.401  0.2691 -0.1791  0.5858
  690MOL0     C93050   9.467  -0.092   1.470  0.0194  0.9515  0.5686
  690MOL0     O93051   9.571  -0.161   1.421  0.8381 -0.5291 -0.3007
  690MOL0     C93052   9.697  -0.113   1.477  0.4861 -0.5827  0.6875
  690MOL0     C93053   9.809  -0.147   1.377 -0.6228  0.4229  1.2008
  690MOL0     C93054   9.933  -0.080   1.418 -0.4643 -0.1419  0.0426
  690MOL0     C93055  10.068  -0.084   1.334  0.2739  0.5153  0.2630
  690MOL0     C93056  10.178  -0.019   1.411 -0.7258  0.0530 -0.6035
  690MOL0     C93057  10.311  -0.014   1.342  0.0298  0.3544  0.0525
  690MOL0     C93058  10.385  -0.151   1.336  0.5637  0.1309 -0.1183
  690MOL0     C93059  10.516  -0.144   1.252 -0.0581  0.2255  0.1720
  690MOL0    Cl93060  10.604   0.004   1.325 -0.4012 -0.2314  0.4870
  690MOL0     C93061   9.460  -0.033   1.600 -0.2123  0.8449  0.6740
  690MOL0     C93062   9.344   0.031   1.646 -1.3504 -0.7485  0.2455
  690MOL0     O93063   9.086  -0.025   1.782  0.4905 -0.0891  0.4161
  690MOL0     C93064   8.885   0.139   1.891 -0.6997 -0.6928 -0.8008
  690MOL0     C93065   8.789   0.227   1.942 -0.6781 -0.2443  0.4814
  690MOL0     N93066   8.280   0.746   2.276 -0.1530 -0.4719 -0.2141
  690MOL0     N93067   8.218   0.704   2.379  0.5565 -0.2105 -0.3286
  690MOL0     C93068   7.084   0.877   2.876  0.1192  0.3933 -0.4419
  690MOL0     C93069   6.972   0.930   2.832 -0.1525 -0.4483  0.4961
  690MOL0     C93070   6.595   1.094   2.658 -0.0052  0.6583 -0.6018
  690MOL0     C93071   6.587   1.071   2.523 -0.2746  0.4840 -0.1223
  690MOL0     C93072   6.482   1.118   2.446 -0.0524  0.2261 -0.0788
  690MOL0     C93073   6.369   1.172   2.506 -0.2394  0.0632 -0.0560
  690MOL0     O93074   6.267   1.220   2.434 -0.4722  0.2891 -0.3864
  690MOL0     C93075   6.139   1.169   2.458 -0.5895  0.2973  0.2075
  690MOL0     C93076   6.047   1.211   2.343 -1.1179  0.0554 -0.1630
  690MOL0     C93077   6.094   1.167   2.202  0.1265  0.4325 -0.1550
  690MOL0     C93078   6.141   1.017   2.191  0.5810 -0.5441 -0.6673
  690MOL0     C93079   6.126   0.963   2.059 -0.6036  0.2163  0.4037
  690MOL0     C93080   6.128   0.908   1.951  0.1131 -0.4748 -0.7270
  690MOL0     C93081   6.369   1.167   2.647 -0.2852 -1.1000 -0.2183
  690MOL0     C93082   6.479   1.131   2.726  0.1927 -0.4006 -0.1217
  690MOL0     H93083   7.063   1.115   2.575 -5.1675  0.6439  2.1391
  690MOL0     H93084   7.277   1.026   2.630 -1.3034 -0.0681 -1.3718
  690MOL0     H93085   7.433   0.884   2.665  1.5642  3.1111  1.1061
  690MOL0     H93086   7.496   0.926   2.826 -1.2238 -0.7093  0.9690
  690MOL0     H93087   7.529   0.679   2.869  2.2880 -2.2745 -1.6717
  690MOL0     H93088   7.416   0.650   2.739 -0.3334  0.8988 -1.7947
  690MOL0     H93089   7.556   0.642   2.573 -2.1602  1.0642  1.4437
  690MOL0     H93090   7.680   0.744   2.651  0.4179 -0.2370  0.3938
  690MOL0     H93091   7.741   0.584   2.813 -0.5520  0.6858  0.6781
  690MOL0     H93092   7.633   0.461   2.752  1.3035 -0.6950 -0.7021
  690MOL0     H93093   7.821   0.387   2.642  3.3043  0.6080 -2.4722
  690MOL0     H93094   7.780   0.519   2.528 -2.5123 -0.7508  0.0495
  690MOL0     H93095   7.924   0.666   2.700  2.6860  0.6927  1.9072
  690MOL0     H93096   7.993   0.514   2.742  0.9122 -0.7083 -0.9354
  690MOL0     H93097   8.141   0.589   2.580  2.1136 -3.2141  1.0473
  690MOL0     H93098   8.053   0.442   2.551 -1.6999  0.5996 -0.5189
  690MOL0     H93099   7.945   0.707   2.445  0.2176  1.3822 -2.4882
  690MOL0     H93100   7.927   0.539   2.369 -0.2784 -2.9086  3.3293
  690MOL0     H93101   8.066   0.537   2.136 -0.8728  0.0921 -0.1795
  690MOL0     H93102   8.216   0.627   1.964  2.4480 -0.2470 -1.9716
  690MOL0     H93103   8.304   0.776   1.990  0.1306 -1.2634 -1.1130
  690MOL0     H93104   8.499   0.631   2.090  1.5765 -0.5245 -0.0180
  690MOL0     H93105   8.459   0.602   1.917  1.6747 -4.6430 -0.1533
  690MOL0     H93106   8.343   0.411   1.970 -0.5289 -0.4431  0.7547
  690MOL0     H93107   8.390   0.422   2.141  0.6012 -1.9152 -0.5743
  690MOL0     H93108   8.550   0.283   2.039 -1.3053 -0.8887 -1.4349
  690MOL0     H93109   8.621   0.437   2.094 -1.0589  0.0703  0.4026
  690MOL0     H93110   8.671   0.353   1.661 -0.8806 -3.2508 -0.8940
  690MOL0     H93111   8.852   0.120   1.475 -0.3325  1.7353 -4.1767
  690MOL0     H93112   8.763   0.276   1.479  0.4476  0.4481 -0.2586
  690MOL0     H93113   8.938   0.272   1.473 -1.1321  0.9661 -1.6357
  690MOL0     H93114   9.141  -0.041   1.379  1.2544  0.8320 -1.9673
  690MOL0     H93115   9.337  -0.148   1.305 -4.1648 -0.9120  1.1932
  690MOL0     H93116   9.695  -0.005   1.491 -0.4379 -0.5344  0.2720
  690MOL0     H93117   9.720  -0.162   1.572 -1.1287 -0.2994  1.2577
  690MOL0     H93118   9.823  -0.256   1.374 -1.8524  0.2392 -2.4947
  690MOL0     H93119   9.791  -0.127   1.271 -3.4736 -1.6101  1.1998
  690MOL0     H93120   9.963  -0.100   1.522  2.1212 -0.3109 -0.6729
  690MOL0     H93121   9.915   0.027   1.426 -0.3462 -0.0450 -0.9454
  690MOL0     H93122  10.098  -0.186   1.308 -0.8401  0.3930 -0.6263
  690MOL0     H93123  10.046  -0.037   1.238 -0.2169 -3.8583 -2.0002
  690MOL0     H93124  10.188  -0.059   1.512 -0.7960  1.5972  0.0361
  690MOL0     H93125  10.154   0.085   1.432  1.2799  0.3778  0.3599
  690MOL0     H93126  10.292   0.041   1.250 -1.2506  1.1815  0.7765
  690MOL0     H93127  10.368   0.054   1.406 -1.7153  1.9654 -0.0269
  690MOL0     H93128  10.320  -0.231   1.300  0.4565 -1.3378  2.9884
  690MOL0     H93129  10.413  -0.152   1.442  2.1381  1.8178 -0.4651
  690MOL0     H93130  10.483  -0.138   1.148  0.3836  0.3466  0.0339
  690MOL0     H93131  10.574  -0.236   1.257  1.3291  0.8838 -2.1613
  690MOL0     H93132   9.538  -0.049   1.675 -4.1225 -2.0779  4.6721
  690MOL0     H93133   9.347   0.085   1.740 -3.7568 -1.4028  0.7729
  690MOL0     H93134   8.920   0.075   1.971  3.0561 -2.1291 -3.2980
  690MOL0     H93135   8.779   0.229   2.050 -2.2748  0.9217  0.3607
  690MOL0     H93136   7.083   0.811   2.962 -1.8906  0.8953 -0.0326
  690MOL0     H93137   6.882   0.906   2.889 -0.2748 -0.7893  0.1639
  690MOL0     H93138   6.667   1.032   2.460 -1.0379 -0.7571 -0.3689
  690MOL0     H93139   6.480   1.093   2.341 -1.1334 -1.6622  0.3504
  690MOL0     H93140   6.131   1.061   2.467 -3.0672  0.2392 -1.7955
  690MOL0     H93141   6.110   1.206   2.557 -1.0974 -0.5464  0.3800
  690MOL0     H93142   6.042   1.320   2.333  2.8723  0.5608  1.5738
  690MOL0     H93143   5.954   1.156   2.358  0.7224 -3.2191  0.1104
  690MOL0     H93144   6.177   1.232   2.172  1.3251 -0.8392  0.3024
  690MOL0     H93145   6.015   1.181   2.128  0.7728  0.2785 -0.8890
  690MOL0     H93146   6.064   0.960   2.243 -0.9667  0.4609 -1.7660
  690MOL0     H93147   6.244   1.003   2.224  1.2799  2.8632 -1.1035
  690MOL0     H93148   6.121   0.855   1.858 -0.6710 -1.4307 -0.1530
  690MOL0     H93149   6.284   1.217   2.692  2.3115  2.4854  1.1648
  690MOL0     H93150   6.481   1.151   2.833 -0.0926 -5.0917  0.9959
  691MOL0     O93151   5.512   0.529   8.304 -0.7790  0.1752  0.7226
  691MOL0     C93152   5.602   0.589   8.355 -0.2864 -0.1331 -1.1583
  691MOL0     O93153   5.597   0.643   8.477  0.1780  0.8730  0.2585
  691MOL0     C93154   5.478   0.665   8.539  0.7779 -0.5353 -0.0875
  691MOL0     C93155   5.370   0.571   8.544  0.2296 -0.2259 -0.1261
  691MOL0     C93156   5.258   0.596   8.623 -0.7806 -0.6053  0.4102
  691MOL0     C93157   5.246   0.712   8.696  0.4944  1.4555 -0.1878
  691MOL0     O93158   5.145   0.743   8.788 -0.2243  0.0032 -0.5301
  691MOL0     C93159   5.058   0.634   8.829  0.4763  0.3908  0.7378
  691MOL0     C93160   5.121   0.524   8.918 -0.7138 -0.6356  0.0915
  691MOL0     C93161   5.014   0.438   8.984  0.3763 -0.8205  0.3695
  691MOL0     C93162   5.072   0.370   9.103 -0.3581  0.4053  0.0744
  691MOL0     C93163   5.004   0.233   9.151  0.1681 -1.0360  0.1986
  691MOL0     C93164   5.113   0.113   9.163  0.8992  0.0213  0.4078
  691MOL0     C93165   5.082   0.001   9.269 -0.4341  0.4595  0.1524
  691MOL0     C93166   5.086   0.054   9.415 -0.1761  0.4993 -0.4762
  691MOL0     N93167   5.104  -0.053   9.509  0.5317 -0.7542 -0.1502
  691MOL0     C93168   5.017  -0.121   9.583  0.4552 -1.0022 -0.5342
  691MOL0     C93169   5.083  -0.209   9.651 -0.1895  0.0098  0.3870
  691MOL0     C93170   5.032  -0.303   9.761 -0.5216  0.0203 -1.1414
  691MOL0     C93171   4.996  -0.232   9.898  0.1304  0.4361  0.5864
  691MOL0     C93172   4.953  -0.323  10.010  0.0860 -0.0035 -0.0912
  691MOL0     C93173   4.900  -0.251  10.140  0.2617 -0.3599 -0.2476
  691MOL0     O93174   4.841  -0.362  10.212 -0.3777 -0.5905 -0.6727
  691MOL0     C93175   4.714  -0.415  10.182  0.3229  0.0851 -0.3276
  691MOL0     C93176   4.616  -0.356  10.101  0.0155 -0.6321 -0.9765
  691MOL0     C93177   4.485  -0.407  10.095 -0.5379 -0.7288  0.8058
  691MOL0     C93178   4.395  -0.306  10.023  0.3530  0.3795 -0.3705
  691MOL0     C93179   4.458  -0.530  10.166  0.2386  0.4317  0.0216
  691MOL0     C93180   4.322  -0.583  10.159 -1.1753  0.6717 -1.0877
  691MOL0     O93181   4.219  -0.535  10.082 -0.4967 -0.2329 -0.0333
  691MOL0     C93182   4.103  -0.599  10.085  0.4089 -0.9088  1.2048
  691MOL0     C93183   4.011  -0.593  10.190 -0.7056  0.2579 -0.4296
  691MOL0     C93184   3.884  -0.658  10.166 -0.1532 -0.4668 -0.7316
  691MOL0     C93185   3.853  -0.724  10.047 -0.6159  0.0596 -0.1879
  691MOL0     O93186   3.733  -0.783  10.047 -0.5128 -0.5568 -0.3038
  691MOL0     C93187   3.669  -0.811   9.919 -0.5397 -0.3633 -0.0671
  691MOL0     C93188   3.638  -0.682   9.860 -0.1234  0.3842  0.9552
  691MOL0     C93189   3.491  -0.671   9.823  0.9857  0.8207  0.5204
  691MOL0     C93190   3.453  -0.768   9.702 -0.3530  0.4728 -0.4162
  691MOL0     C93191   3.325  -0.743   9.617 -0.5953  0.3967 -0.2030
  691MOL0     C93192   3.193  -0.767   9.695 -0.0939 -1.5622  0.8212
  691MOL0     C93193   3.183  -0.908   9.742 -1.4070  0.2941 -0.1704
  691MOL0     C93194   3.040  -0.937   9.794 -0.5882  0.3354 -0.8552
  691MOL0    Cl93195   3.024  -1.118   9.766 -0.0972  0.2936  0.0534
  691MOL0     C93196   3.939  -0.723   9.943 -0.1987 -1.1735  0.0237
  691MOL0     C93197   4.070  -0.668   9.969  0.0804 -0.0478  0.1881
  691MOL0     O93198   4.320  -0.684  10.226  0.5698 -0.6702 -0.4326
  691MOL0     C93199   4.563  -0.585  10.244  0.0373  0.3330  0.4439
  691MOL0     C93200   4.682  -0.535  10.245 -0.6869 -0.1068 -1.0623
  691MOL0     N93201   5.215  -0.197   9.630 -0.9327 -0.4547  0.1231
  691MOL0     N93202   5.226  -0.104   9.538 -0.4208 -0.0883 -0.4083
  691MOL0     C93203   5.341   0.807   8.688 -0.9779  0.4602 -0.6161
  691MOL0     C93204   5.451   0.789   8.602 -0.1091  0.3679 -0.7412
  691MOL0     C93205   5.735   0.589   8.304  0.2721  0.7588  0.4671
  691MOL0     C93206   5.776   0.481   8.225 -0.0180 -0.3953  0.1920
  691MOL0     C93207   5.887   0.496   8.145 -0.2579  0.0110  0.0680
  691MOL0     C93208   5.959   0.609   8.146  0.5008 -0.3202  0.4019
  691MOL0     O93209   6.060   0.617   8.046  0.3285  0.0318 -0.0358
  691MOL0     C93210   6.127   0.748   8.035  0.2234  1.3654  0.0220
  691MOL0     C93211   6.042   0.857   7.954  0.1023  0.2090  0.2423
  691MOL0     C93212   6.142   0.971   7.919  0.7068 -0.2943 -0.1847
  691MOL0     C93213   6.067   1.104   7.906  0.0206  0.3136 -0.3044
  691MOL0     C93214   5.969   1.110   7.796  0.4070  0.5043 -0.5161
  691MOL0     C93215   5.878   1.114   7.716 -0.2780  0.1523 -0.6208
  691MOL0     C93216   5.929   0.710   8.240  0.7434  1.0558 -0.4574
  691MOL0     C93217   5.808   0.700   8.314 -0.5143 -1.2583 -0.7626
  691MOL0     H93218   5.377   0.471   8.502  0.0471  0.0437 -0.8062
  691MOL0     H93219   5.171   0.531   8.625 -0.1342 -1.4669  1.4475
  691MOL0     H93220   4.989   0.675   8.903 -0.9363 -2.2218  1.0048
  691MOL0     H93221   5.003   0.584   8.748  0.8099 -3.0056  2.4044
  691MOL0     H93222   5.186   0.461   8.856 -1.6243 -1.9507  0.4169
  691MOL0     H93223   5.191   0.566   8.991  0.4212 -1.5406 -0.4466
  691MOL0     H93224   4.927   0.496   9.017  0.2977 -0.1637 -0.9042
  691MOL0     H93225   4.977   0.360   8.915 -0.2880 -0.7244  0.6118
  691MOL0     H93226   5.178   0.355   9.079 -1.1279 -0.9306 -2.9187
  691MOL0     H93227   5.072   0.438   9.188 -3.0227  1.4089 -0.6320
  691MOL0     H93228   4.967   0.261   9.250  3.4001  0.0419  1.2256
  691MOL0     H93229   4.920   0.207   9.085 -1.0655 -1.2598  1.7857
  691MOL0     H93230   5.127   0.069   9.064  0.0422 -0.4174  0.4797
  691MOL0     H93231   5.210   0.157   9.189  1.6089 -1.6254  0.6649
  691MOL0     H93232   4.985  -0.044   9.249  0.0608 -0.1498 -0.9821
  691MOL0     H93233   5.156  -0.079   9.256  0.0607  1.2977 -3.1939
  691MOL0     H93234   4.998   0.113   9.441 -0.3649 -0.3363  0.8666
  691MOL0     H93235   5.159   0.133   9.432 -2.7684  2.6092  1.6815
  691MOL0     H93236   4.911  -0.101   9.589  0.6421  0.0936 -0.7256
  691MOL0     H93237   4.934  -0.342   9.732 -1.3346  3.1570 -3.0524
  691MOL0     H93238   5.113  -0.377   9.767  0.4630  0.9900 -1.9808
  691MOL0     H93239   4.926  -0.153   9.870  1.2778  0.9200 -1.0602
  691MOL0     H93240   5.083  -0.170   9.923 -1.5454  1.5978  4.1998
  691MOL0     H93241   5.045  -0.379  10.028  1.0255  1.1445 -1.1307
  691MOL0     H93242   4.874  -0.393   9.985 -0.5331  1.1426 -1.4561
  691MOL0     H93243   4.833  -0.165  10.124 -1.4763 -1.6573 -0.1955
  691MOL0     H93244   4.979  -0.208  10.202 -0.4702 -0.0977  0.5330
  691MOL0     H93245   4.638  -0.267  10.043 -1.4167 -1.2812 -2.6266
  691MOL0     H93246   4.426  -0.201  10.021 -0.2530  0.6150  1.0455
  691MOL0     H93247   4.375  -0.346   9.924  2.9706  0.2091 -0.8971
  691MOL0     H93248   4.301  -0.291  10.078 -0.2573  0.2226 -1.3584
  691MOL0     H93249   4.042  -0.532  10.274  0.7801  2.4298 -2.4415
  691MOL0     H93250   3.811  -0.649  10.246  2.3955  2.7603  1.4812
  691MOL0     H93251   3.721  -0.862   9.838 -0.0143  2.5070 -1.6525
  691MOL0     H93252   3.583  -0.870   9.953 -1.1421  1.7066  2.2789
  691MOL0     H93253   3.656  -0.594   9.921 -2.9753  3.2806 -1.9545
  691MOL0     H93254   3.686  -0.670   9.762  0.9330  1.2501  1.5670
  691MOL0     H93255   3.461  -0.568   9.800  0.8998  0.2490 -2.2082
  691MOL0     H93256   3.414  -0.694   9.897 -0.9885  1.3385 -1.2900
  691MOL0     H93257   3.538  -0.757   9.633  1.0169  1.2139  1.3123
  691MOL0     H93258   3.456  -0.874   9.729  0.2776  0.2685 -1.2273
  691MOL0     H93259   3.324  -0.807   9.529 -0.0252  1.2955 -0.8681
  691MOL0     H93260   3.324  -0.642   9.576 -1.8579  0.0558 -1.0601
  691MOL0     H93261   3.185  -0.702   9.783 -3.0994  0.6567 -0.8830
  691MOL0     H93262   3.107  -0.741   9.633  1.3613  0.6583 -0.4050
  691MOL0     H93263   3.256  -0.921   9.823 -1.8481 -2.1692 -0.0934
  691MOL0     H93264   3.209  -0.975   9.660 -0.1199 -1.3441  1.4884
  691MOL0     H93265   2.964  -0.873   9.747 -1.0274  0.7030  0.3204
  691MOL0     H93266   3.039  -0.915   9.901  0.6536 -1.2719 -0.4776
  691MOL0     H93267   3.910  -0.774   9.852 -2.0640 -0.0960 -0.0552
  691MOL0     H93268   4.149  -0.654   9.895 -1.3439  4.5983 -0.7603
  691MOL0     H93269   4.542  -0.676  10.299  0.7357 -0.6380 -0.8746
  691MOL0     H93270   4.759  -0.581  10.306 -0.6516  0.6981 -0.4899
  691MOL0     H93271   5.327   0.904   8.736 -2.4838 -0.6565  1.3745
  691MOL0     H93272   5.525   0.868   8.595 -0.4055  0.6662 -0.5063
  691MOL0     H93273   5.720   0.388   8.225 -2.5737  0.9566 -2.6947
  691MOL0     H93274   5.923   0.411   8.086 -1.6853 -1.7198  1.5812
  691MOL0     H93275   6.155   0.779   8.136  0.2281 -3.3982  1.7060
  691MOL0     H93276   6.219   0.727   7.980 -2.5996 -2.2329 -4.0861
  691MOL0     H93277   5.958   0.893   8.015 -0.5154 -2.0363  0.8020
  691MOL0     H93278   6.004   0.819   7.859 -1.2121  2.0442 -0.0206
  691MOL0     H93279   6.211   0.957   7.835  0.3977  4.7746 -1.6458
  691MOL0     H93280   6.210   0.984   8.004  3.3037  0.4626 -2.2230
  691MOL0     H93281   6.136   1.187   7.884  0.7098 -0.4566 -1.1116
  691MOL0     H93282   6.005   1.129   7.993 -0.6484  1.7117 -1.1404
  691MOL0     H93283   5.792   1.116   7.653 -0.3799  0.7778 -0.4729
  691MOL0     H93284   5.981   0.805   8.244 -2.1680  2.9286 -2.5346
  691MOL0     H93285   5.783   0.789   8.369  2.3518 -0.2898 -0.8569
  692MOL0     O93286   1.957   5.789   3.737  0.3486  0.1249  0.6459
  692MOL0     C93287   1.893   5.805   3.631  0.3091 -0.4850 -0.0379
  692MOL0     O93288   1.789   5.725   3.594  0.1523  0.5958  0.1723
  692MOL0     C93289   1.774   5.602   3.652 -0.3800 -0.4587  0.1268
  692MOL0     C93290   1.803   5.481   3.575  0.9359  0.1011 -0.9279
  692MOL0     C93291   1.765   5.350   3.629 -0.6519 -0.1767 -0.5589
  692MOL0     C93292   1.714   5.346   3.763 -0.9153  1.3009 -0.2972
  692MOL0     O93293   1.676   5.228   3.819 -0.2157  0.5609  0.1278
  692MOL0     C93294   1.775   5.122   3.825 -0.6353  0.8711  0.0187
  692MOL0     C93295   1.724   5.007   3.916  0.6658 -0.4262 -0.2131
  692MOL0     C93296   1.819   4.885   3.909  0.0312 -0.0503  0.4324
  692MOL0     C93297   1.947   4.910   3.986  1.1747  0.3308  0.7850
  692MOL0     C93298   2.046   4.796   3.995  0.0232 -0.7588 -0.1604
  692MOL0     C93299   2.020   4.694   4.111 -0.2730  0.5372 -0.0131
  692MOL0     C93300   2.041   4.749   4.247  0.2859 -0.5825 -0.2601
  692MOL0     C93301   2.010   4.644   4.360 -0.0288  0.6078  0.1952
  692MOL0     N93302   2.084   4.511   4.339 -0.2750 -0.9228  0.4441
  692MOL0     C93303   2.031   4.416   4.256 -0.3002 -0.4486  0.3432
  692MOL0     C93304   2.133   4.330   4.234 -0.4001  1.2205 -0.6222
  692MOL0     C93305   2.134   4.198   4.150  0.1205 -0.1937 -0.6533
  692MOL0     C93306   2.185   4.245   4.015 -0.3177  0.3467 -0.4059
  692MOL0     C93307   2.180   4.134   3.913  0.3707  0.2459  0.3234
  692MOL0     C93308   2.205   4.203   3.781  0.7588 -0.6535 -0.2934
  692MOL0     O93309   2.194   4.112   3.675  0.2299  0.1884 -0.3533
  692MOL0     C93310   2.072   4.068   3.624  0.3473  0.3140  0.1405
  692MOL0     C93311   2.085   3.973   3.525  0.1455  0.7770  0.8519
  692MOL0     C93312   1.983   3.911   3.453  0.9182 -0.4235  0.6108
  692MOL0     C93313   2.016   3.841   3.324  0.0966  0.2086  0.4322
  692MOL0     C93314   1.856   3.935   3.511 -0.2212 -0.8514 -0.0153
  692MOL0     C93315   1.727   3.880   3.441  0.1476 -0.8630 -0.0209
  692MOL0     O93316   1.717   3.867   3.306 -0.5475 -0.2788  0.9256
  692MOL0     C93317   1.596   3.808   3.265  0.0997 -0.5733  0.0770
  692MOL0     C93318   1.471   3.868   3.257  0.7347 -0.4727  0.0272
  692MOL0     C93319   1.368   3.802   3.204  0.4283  1.4896 -0.3062
  692MOL0     C93320   1.382   3.681   3.146 -0.0343  0.0846 -0.7466
  692MOL0     O93321   1.268   3.619   3.097  0.1814 -0.2499  0.3127
  692MOL0     C93322   1.269   3.507   3.000  0.4822 -1.1849 -0.3362
  692MOL0     C93323   1.126   3.486   2.917 -0.3587 -0.5598 -0.2587
  692MOL0     C93324   0.997   3.526   2.992 -0.7610 -0.6449 -0.1838
  692MOL0     C93325   0.877   3.518   2.897  0.3703  0.0820 -0.4814
  692MOL0     C93326   0.743   3.549   2.970 -0.3284  0.3184  0.0923
  692MOL0     C93327   0.673   3.439   3.032 -0.1857 -0.2169 -0.5304
  692MOL0     C93328   0.541   3.494   3.089  1.2838 -1.1583  0.1776
  692MOL0     C93329   0.494   3.408   3.197  0.4896 -0.5293 -0.2946
  692MOL0    Cl93330   0.362   3.483   3.295 -0.0097  0.4132 -0.2600
  692MOL0     C93331   1.508   3.612   3.156  0.5262 -0.3523  0.6655
  692MOL0     C93332   1.623   3.675   3.214 -0.0752 -0.8693  0.4431
  692MOL0     O93333   1.640   3.850   3.523  0.0303  0.5051  0.3625
  692MOL0     C93334   1.837   4.035   3.610 -0.5175  0.9159 -0.5318
  692MOL0     C93335   1.947   4.102   3.669 -0.3069 -1.2661 -0.0577
  692MOL0     N93336   2.245   4.383   4.299 -0.2717 -0.1637  0.9700
  692MOL0     N93337   2.212   4.491   4.357 -0.6342  0.4405 -0.1070
  692MOL0     C93338   1.696   5.462   3.825  0.2235  0.9749  0.3737
  692MOL0     C93339   1.711   5.586   3.767  0.3947 -0.0015 -0.6639
  692MOL0     C93340   1.929   5.934   3.561  0.0686 -0.1493 -0.1944
  692MOL0     C93341   2.024   6.028   3.606  0.2719  0.0055  0.5283
  692MOL0     C93342   2.055   6.135   3.524 -0.3047 -0.4206 -0.9601
  692MOL0     C93343   1.983   6.167   3.407 -0.5434  0.6332  0.8118
  692MOL0     O93344   2.004   6.296   3.355 -0.2064  0.5043 -0.1610
  692MOL0     C93345   1.904   6.389   3.412  0.0608 -0.1203  0.3969
  692MOL0     C93346   1.945   6.532   3.380  0.4184 -0.6246 -0.1531
  692MOL0     C93347   2.075   6.568   3.458 -0.6548 -0.7509  0.0566
  692MOL0     C93348   2.118   6.710   3.439  0.3230  0.3626 -0.1413
  692MOL0     C93349   2.154   6.733   3.300  0.4027  0.4007  0.4068
  692MOL0     C93350   2.198   6.734   3.191 -0.6359  0.8252  0.2353
  692MOL0     C93351   1.901   6.063   3.361  0.5615 -0.3421 -0.6921
  692MOL0     C93352   1.870   5.947   3.431  0.5309 -0.4507 -0.2564
  692MOL0     H93353   1.823   5.490   3.469 -3.3834 -2.2528 -2.2177
  692MOL0     H93354   1.781   5.259   3.572  0.2578 -1.5886  1.7957
  692MOL0     H93355   1.799   5.092   3.723  0.1011  0.8887  0.1825
  692MOL0     H93356   1.866   5.160   3.873  0.5875  0.5675 -1.9459
  692MOL0     H93357   1.698   5.037   4.018 -0.1499 -2.4689  0.2444
  692MOL0     H93358   1.632   4.973   3.867  1.2434 -3.7785  0.7867
  692MOL0     H93359   1.770   4.801   3.959 -0.5377 -0.3169 -0.5532
  692MOL0     H93360   1.834   4.864   3.803 -2.4559  2.9309 -0.6380
  692MOL0     H93361   2.003   4.981   3.925 -0.1790 -2.2478 -3.9023
  692MOL0     H93362   1.926   4.960   4.082 -2.1914 -2.1519  1.5264
  692MOL0     H93363   2.057   4.743   3.900  2.8974 -3.3949  1.4543
  692MOL0     H93364   2.142   4.845   4.016  0.2046 -1.5517  0.9406
  692MOL0     H93365   1.927   4.637   4.107 -0.0334  0.1348  0.0859
  692MOL0     H93366   2.094   4.617   4.084  0.8677  0.4659  2.9122
  692MOL0     H93367   2.147   4.772   4.257 -0.3148  1.3883  3.7053
  692MOL0     H93368   1.986   4.844   4.256 -1.3012 -1.4325 -0.5218
  692MOL0     H93369   1.904   4.620   4.376  0.2969 -0.6623  0.5477
  692MOL0     H93370   2.049   4.689   4.452 -0.2140  2.4057 -0.5573
  692MOL0     H93371   1.926   4.405   4.227 -0.3033  1.4774 -0.4767
  692MOL0     H93372   2.178   4.107   4.191 -1.3078 -0.6989 -0.1711
  692MOL0     H93373   2.027   4.179   4.145 -0.0942  0.1537  1.6308
  692MOL0     H93374   2.287   4.284   4.022 -0.1306 -0.4182  2.6211
  692MOL0     H93375   2.114   4.322   3.982  0.7834  1.1371 -0.9871
  692MOL0     H93376   2.078   4.093   3.908  0.8364 -0.9025  0.0717
  692MOL0     H93377   2.254   4.060   3.943  0.9184  1.0519  1.0088
  692MOL0     H93378   2.311   4.233   3.790  0.6680 -0.3618 -0.1716
  692MOL0     H93379   2.144   4.292   3.766  1.6560  0.2295  1.0329
  692MOL0     H93380   2.187   3.961   3.491 -0.6064 -0.8751 -0.9832
  692MOL0     H93381   2.001   3.905   3.236  4.1519 -1.3274 -1.6638
  692MOL0     H93382   2.116   3.796   3.324 -0.2672 -0.6093  1.1498
  692MOL0     H93383   1.956   3.750   3.322  0.3728 -0.0475  2.2061
  692MOL0     H93384   1.470   3.971   3.290 -3.5558 -0.2380 -0.2578
  692MOL0     H93385   1.267   3.841   3.205  0.1343  0.7441 -0.4832
  692MOL0     H93386   1.348   3.526   2.927  1.4043  1.1510  1.1527
  692MOL0     H93387   1.281   3.410   3.048  1.2933  0.2546  2.6408
  692MOL0     H93388   1.146   3.544   2.827 -0.4684  0.6515  0.4839
  692MOL0     H93389   1.113   3.382   2.886 -0.7993 -0.5579 -0.0901
  692MOL0     H93390   1.014   3.626   3.035 -0.1125  0.2422 -2.3597
  692MOL0     H93391   0.983   3.446   3.065 -1.6752 -1.9265 -1.7029
  692MOL0     H93392   0.892   3.593   2.819  0.4838  1.1778  0.5600
  692MOL0     H93393   0.884   3.418   2.852 -1.1036  0.3818 -1.4247
  692MOL0     H93394   0.671   3.586   2.897  0.8702  1.0464 -0.7608
  692MOL0     H93395   0.763   3.633   3.036  2.0781 -0.8119  0.9390
  692MOL0     H93396   0.646   3.353   2.970 -2.0616 -0.9561  1.1791
  692MOL0     H93397   0.731   3.401   3.117  1.9051 -2.4822 -2.8004
  692MOL0     H93398   0.469   3.499   3.007  0.5752 -0.6216  0.8163
  692MOL0     H93399   0.552   3.596   3.129 -1.5773  0.3154 -2.3924
  692MOL0     H93400   0.578   3.383   3.263 -1.1351 -1.1019  1.6845
  692MOL0     H93401   0.460   3.309   3.165 -0.0461 -0.7345  0.8340
  692MOL0     H93402   1.529   3.522   3.098 -0.3638 -1.0710  1.4177
  692MOL0     H93403   1.721   3.636   3.237  0.9986  1.3891 -0.0399
  692MOL0     H93404   1.740   4.069   3.644 -2.1841 -3.0160 -0.8903
  692MOL0     H93405   1.948   4.178   3.747  2.6871 -1.2071 -0.0553
  692MOL0     H93406   1.646   5.464   3.922  1.6692  2.8131  1.1320
  692MOL0     H93407   1.673   5.674   3.819 -2.5106 -1.9255  0.7988
  692MOL0     H93408   2.081   6.005   3.696 -1.2211 -1.5679  1.1143
  692MOL0     H93409   2.129   6.207   3.559  0.7685 -2.0926  0.3521
  692MOL0     H93410   1.812   6.367   3.357  0.4859 -0.0304 -0.3571
  692MOL0     H93411   1.884   6.373   3.519 -0.1337  0.8598  0.5161
  692MOL0     H93412   1.867   6.598   3.419  2.0079  1.0005  0.3959
  692MOL0     H93413   1.945   6.546   3.271  3.6106 -2.1042 -0.4322
  692MOL0     H93414   2.159   6.510   3.420 -0.7767 -0.6137 -0.4408
  692MOL0     H93415   2.057   6.536   3.561  1.9831 -2.7650 -0.0134
  692MOL0     H93416   2.215   6.716   3.489  1.3979  1.1058 -2.2312
  692MOL0     H93417   2.042   6.778   3.481  0.9420  0.2069  1.2904
  692MOL0     H93418   2.230   6.730   3.089  4.1950  0.3929  1.4940
  692MOL0     H93419   1.840   6.077   3.272 -1.2903 -2.0087  0.2548
  692MOL0     H93420   1.791   5.882   3.395  2.5398 -3.1209 -0.1022
  693MOL0     O93421   9.881   8.498   1.095  0.0278 -0.0602  0.0616
  693MOL0     C93422   9.970   8.482   1.186  0.7749 -0.2079 -0.3146
  693MOL0     O93423  10.087   8.558   1.189  0.5789 -0.1366  0.3126
  693MOL0     C93424  10.150   8.579   1.067 -0.6807  0.2465 -0.4799
  693MOL0     C93425  10.106   8.642   0.955  0.0082  0.3824 -0.3921
  693MOL0     C93426  10.173   8.638   0.833 -0.0492 -1.1607  0.2379
  693MOL0     C93427  10.302   8.578   0.817 -0.3669 -0.8092 -0.2096
  693MOL0     O93428  10.372   8.567   0.707 -0.7582 -0.8412 -0.0883
  693MOL0     C93429  10.302   8.588   0.582 -0.3459  0.3775 -0.3190
  693MOL0     C93430  10.397   8.553   0.468 -0.3507  0.9812  0.6489
  693MOL0     C93431  10.331   8.553   0.331 -1.2533 -0.2301 -0.1126
  693MOL0     C93432  10.445   8.567   0.232  0.2098 -0.1579  0.0133
  693MOL0     C93433  10.398   8.585   0.090 -0.4868  0.5421 -0.4014
  693MOL0     C93434  10.309   8.468   0.042 -1.2130  0.7255  0.3086
  693MOL0     C93435  10.318   8.448  -0.110 -0.4402  0.9399 -0.1650
  693MOL0     C93436  10.233   8.561  -0.177 -1.2666  0.9278 -0.2715
  693MOL0     N93437  10.306   8.634  -0.279 -0.1779  0.1178  0.5253
  693MOL0     C93438  10.366   8.754  -0.270 -0.2040  0.0120 -0.3150
  693MOL0     C93439  10.422   8.769  -0.390 -0.1284 -0.0250  0.2196
  693MOL0     C93440  10.505   8.877  -0.434 -0.1973 -0.2033  0.0473
  693MOL0     C93441  10.638   8.835  -0.506 -0.3965 -0.2037  0.0047
  693MOL0     C93442  10.619   8.804  -0.656  0.0632 -0.1190 -0.6091
  693MOL0     C93443  10.728   8.736  -0.719 -0.5683  0.6326 -0.4302
  693MOL0     O93444  10.819   8.823  -0.783 -0.4067 -0.1116 -0.0526
  693MOL0     C93445  10.905   8.903  -0.714  0.1814  0.1026 -0.2324
  693MOL0     C93446  10.913   9.040  -0.760  0.4787  0.0309  0.0727
  693MOL0     C93447  11.008   9.129  -0.712 -0.1945  0.6559 -0.9544
  693MOL0     C93448  11.003   9.270  -0.768  0.0347  0.2245 -0.5432
  693MOL0     C93449  11.090   9.090  -0.606  0.1015  1.1277  0.4922
  693MOL0     C93450  11.194   9.176  -0.545 -0.4799 -0.0116  0.1404
  693MOL0     O93451  11.190   9.182  -0.408 -0.4831  0.1728 -0.1440
  693MOL0     C93452  11.265   9.285  -0.361 -0.4110 -1.0033 -0.8829
  693MOL0     C93453  11.390   9.261  -0.319 -0.4009 -0.1943  0.2703
  693MOL0     C93454  11.472   9.366  -0.274 -0.2019  0.1487 -1.1141
  693MOL0     C93455  11.417   9.496  -0.260 -0.0003 -0.5515  0.1092
  693MOL0     O93456  11.488   9.614  -0.231  0.9687  0.3215 -0.1565
  693MOL0     C93457  11.582   9.592  -0.128  0.4819 -0.2763 -0.0408
  693MOL0     C93458  11.611   9.720  -0.055  0.9511 -0.5913 -0.9826
  693MOL0     C93459  11.713   9.711   0.046  0.0185 -0.0074  0.9477
  693MOL0     C93460  11.699   9.597   0.153  0.3851  0.2811 -0.2907
  693MOL0     C93461  11.763   9.624   0.286  0.2771  0.0099 -0.1399
  693MOL0     C93462  11.676   9.714   0.369  0.8062 -0.1611 -0.4736
  693MOL0     C93463  11.743   9.721   0.499 -0.4014  0.1344 -0.0817
  693MOL0     C93464  11.638   9.722   0.606 -0.6601  0.1049  0.0361
  693MOL0    Cl93465  11.557   9.553   0.613 -0.1728  0.5254 -0.3641
  693MOL0     C93466  11.280   9.516  -0.292 -0.4801  1.1719 -0.9760
  693MOL0     C93467  11.204   9.404  -0.330  0.1722 -0.2027 -0.8238
  693MOL0     O93468  11.253   9.254  -0.619  0.3923  0.1124  0.2905
  693MOL0     C93469  11.080   8.958  -0.557 -0.3264 -0.0208 -0.5153
  693MOL0     C93470  10.991   8.860  -0.615  0.7397  0.2139  0.0077
  693MOL0     N93471  10.375   8.679  -0.475  0.3819  0.8221  0.3217
  693MOL0     N93472  10.301   8.587  -0.410  0.5154 -0.2182 -0.2873
  693MOL0     C93473  10.350   8.529   0.934  0.1303  0.8876 -0.2163
  693MOL0     C93474  10.284   8.535   1.060 -0.5190 -0.0382 -0.1710
  693MOL0     C93475   9.914   8.405   1.302 -0.1244 -0.4808 -0.3798
  693MOL0     C93476   9.983   8.400   1.423  0.1315  0.1687  0.3852
  693MOL0     C93477   9.940   8.309   1.527 -1.2664 -0.2150 -0.8046
  693MOL0     C93478   9.826   8.229   1.510  0.4835 -0.0956  0.0924
  693MOL0     O93479   9.774   8.170   1.621  0.2512  0.1525 -0.7027
  693MOL0     C93480   9.681   8.063   1.594 -0.0007  0.4386 -0.2576
  693MOL0     C93481   9.529   8.090   1.616 -0.5421 -0.0946  0.8470
  693MOL0     C93482   9.437   7.970   1.590 -0.0523  0.5158  0.4994
  693MOL0     C93483   9.406   7.951   1.433 -0.4339  0.3544 -0.3355
  693MOL0     C93484   9.448   7.817   1.389 -0.2317 -0.8497 -0.1685
  693MOL0     C93485   9.463   7.699   1.354  0.4810 -0.6592 -0.4002
  693MOL0     C93486   9.747   8.253   1.389  0.4612  0.5116 -0.0669
  693MOL0     C93487   9.803   8.324   1.284 -0.1043  0.6128  0.4961
  693MOL0     H93488  10.006   8.682   0.965  0.0277  0.5993 -1.0379
  693MOL0     H93489  10.124   8.676   0.744  1.2730  1.9899  0.7289
  693MOL0     H93490  10.210   8.530   0.587 -0.4040  0.5323  0.4515
  693MOL0     H93491  10.279   8.695   0.573 -1.7990  0.3538  2.2444
  693MOL0     H93492  10.483   8.621   0.467 -1.2159  2.1941 -1.9526
  693MOL0     H93493  10.436   8.455   0.493 -1.1090  1.2084  3.0076
  693MOL0     H93494  10.257   8.474   0.313 -2.8651  1.3585 -0.7893
  693MOL0     H93495  10.275   8.647   0.336  2.1886  2.1471 -1.5374
  693MOL0     H93496  10.492   8.663   0.258 -1.7723  0.6310  0.9057
  693MOL0     H93497  10.512   8.481   0.228 -2.7380 -2.6104 -0.3342
  693MOL0     H93498  10.343   8.680   0.085  1.2184  1.5408 -0.9164
  693MOL0     H93499  10.487   8.584   0.027  0.3475 -1.0389  0.7358
  693MOL0     H93500  10.346   8.376   0.089  0.4691  0.1981 -1.8615
  693MOL0     H93501  10.208   8.488   0.078 -1.3774 -1.1025  0.9839
  693MOL0     H93502  10.421   8.445  -0.149  0.1666  2.3592  1.2089
  693MOL0     H93503  10.287   8.350  -0.147  1.9914 -0.5240  1.3770
  693MOL0     H93504  10.197   8.633  -0.103  3.8743  2.2069  1.3439
  693MOL0     H93505  10.149   8.514  -0.230  0.6845 -0.9958 -1.8223
  693MOL0     H93506  10.381   8.824  -0.188 -0.3304  1.0181 -1.1243
  693MOL0     H93507  10.446   8.926  -0.512 -1.1860 -1.2159  0.1266
  693MOL0     H93508  10.524   8.949  -0.354  2.4969  2.9171 -3.0588
  693MOL0     H93509  10.692   8.758  -0.451  1.2378  0.6427 -0.3551
  693MOL0     H93510  10.705   8.919  -0.488 -1.5240  0.8075 -0.3534
  693MOL0     H93511  10.579   8.893  -0.706 -2.9874  0.6870  2.8412
  693MOL0     H93512  10.535   8.734  -0.647 -0.3932  0.4608 -0.2374
  693MOL0     H93513  10.687   8.669  -0.795  0.0348 -1.0362  0.6673
  693MOL0     H93514  10.778   8.669  -0.648  1.5881  1.8994 -0.6709
  693MOL0     H93515  10.843   9.054  -0.842  0.9937 -0.9042 -0.5579
  693MOL0     H93516  10.896   9.294  -0.773  0.1992  1.5693  1.1824
  693MOL0     H93517  11.054   9.341  -0.701  1.9177 -0.0159 -1.6674
  693MOL0     H93518  11.047   9.270  -0.868 -1.5317 -2.6493 -1.3326
  693MOL0     H93519  11.430   9.161  -0.328 -1.8291 -0.8083  0.5217
  693MOL0     H93520  11.578   9.345  -0.267 -0.2779  0.2584  1.4613
  693MOL0     H93521  11.539   9.523  -0.055  2.0214  0.6422  1.8169
  693MOL0     H93522  11.670   9.551  -0.177  0.3042 -0.9969  0.2391
  693MOL0     H93523  11.630   9.800  -0.127 -1.4918  1.8522  0.8950
  693MOL0     H93524  11.528   9.757   0.005  2.2749  1.3617 -0.2572
  693MOL0     H93525  11.716   9.807   0.098  0.5423  0.5109 -0.0044
  693MOL0     H93526  11.814   9.690   0.010  1.2805  1.2696  3.5097
  693MOL0     H93527  11.596   9.574   0.183  0.7202  0.1727  0.8277
  693MOL0     H93528  11.754   9.508   0.122 -0.3943 -0.8960  1.4763
  693MOL0     H93529  11.865   9.663   0.281  1.5668 -2.5431  2.6985
  693MOL0     H93530  11.767   9.530   0.342 -1.0003  0.8913  1.5212
  693MOL0     H93531  11.658   9.808   0.315  1.3760  0.3582  0.2074
  693MOL0     H93532  11.586   9.655   0.384  0.5837  0.0814 -0.8172
  693MOL0     H93533  11.797   9.816   0.503 -0.0621 -0.1065  1.9147
  693MOL0     H93534  11.819   9.644   0.519  0.7721  1.4231  0.6034
  693MOL0     H93535  11.562   9.799   0.592  1.2414  2.5539  2.2061
  693MOL0     H93536  11.686   9.746   0.701  3.1164  0.7208 -1.8388
  693MOL0     H93537  11.237   9.615  -0.287  2.0299  2.2957  1.2081
  693MOL0     H93538  11.097   9.415  -0.342 -0.2107 -3.8169 -2.0590
  693MOL0     H93539  11.147   8.942  -0.474  0.5876  1.5560 -0.9091
  693MOL0     H93540  10.975   8.760  -0.576  0.1221  0.3967  0.2452
  693MOL0     H93541  10.450   8.490   0.924 -0.2808 -0.1324 -0.5407
  693MOL0     H93542  10.323   8.503   1.156 -1.4888  0.5679  0.4426
  693MOL0     H93543  10.071   8.459   1.445 -0.8177  1.4524  0.8221
  693MOL0     H93544   9.992   8.308   1.622 -2.4644 -0.0632 -0.1337
  693MOL0     H93545   9.692   8.023   1.493  2.6514  3.8166 -1.5014
  693MOL0     H93546   9.711   7.979   1.657 -0.8178  2.4942  3.1509
  693MOL0     H93547   9.497   8.175   1.555  1.0747 -1.7433 -2.5264
  693MOL0     H93548   9.519   8.103   1.724 -0.9928 -2.8783  1.2170
  693MOL0     H93549   9.340   7.982   1.639 -0.7768 -2.4126 -0.0774
  693MOL0     H93550   9.491   7.884   1.630 -0.8325 -1.0138 -1.5679
  693MOL0     H93551   9.449   8.024   1.364  1.1472 -1.0624 -0.9119
  693MOL0     H93552   9.298   7.962   1.421 -0.2127  3.0410 -0.5579
  693MOL0     H93553   9.453   7.592   1.356 -2.7039 -0.5937 -3.0785
  693MOL0     H93554   9.647   8.212   1.389  1.1472 -1.3298  1.3973
  693MOL0     H93555   9.737   8.339   1.199 -3.5395 -2.8521  2.2080
  694MOL0     O93556   6.923   8.442   3.640 -0.3392  0.0161  0.3929
  694MOL0     C93557   6.935   8.477   3.524 -0.4439  0.0331  0.7446
  694MOL0     O93558   6.883   8.413   3.415 -0.4040 -0.0178  0.6182
  694MOL0     C93559   6.818   8.292   3.423  0.3520  0.0729  0.0340
  694MOL0     C93560   6.719   8.269   3.321  0.4594  0.2569 -0.0425
  694MOL0     C93561   6.627   8.170   3.341  0.2507  0.1865  0.1448
  694MOL0     C93562   6.631   8.078   3.439 -0.0682  0.6461 -0.1950
  694MOL0     O93563   6.528   7.988   3.446  0.2120  0.4009  0.5123
  694MOL0     C93564   6.555   7.860   3.496 -0.2066 -0.2490  0.0953
  694MOL0     C93565   6.506   7.841   3.639 -0.4887  0.2667  0.1656
  694MOL0     C93566   6.349   7.830   3.623 -0.1527 -0.1154  0.4094
  694MOL0     C93567   6.277   7.786   3.751  1.1295 -0.1100 -0.3694
  694MOL0     C93568   6.121   7.772   3.740  0.0919 -0.0866 -0.1506
  694MOL0     C93569   6.061   7.646   3.677  0.2297 -0.7630 -0.8294
  694MOL0     C93570   5.906   7.627   3.706  0.6255 -0.5567  0.3712
  694MOL0     C93571   5.806   7.740   3.695  0.5337  0.2927 -0.2265
  694MOL0     N93572   5.825   7.808   3.567  0.0702  0.4719 -0.7329
  694MOL0     C93573   5.847   7.941   3.553 -1.2743  0.4574  0.5641
  694MOL0     C93574   5.876   7.955   3.423  0.3459  0.1667  0.5427
  694MOL0     C93575   5.904   8.092   3.372  1.0418  0.7009  0.6791
  694MOL0     C93576   6.034   8.150   3.433 -0.9458 -0.5636  0.2880
  694MOL0     C93577   6.160   8.112   3.337 -0.1305 -0.1155  0.4415
  694MOL0     C93578   6.161   8.182   3.199 -0.4089 -0.9893  1.2238
  694MOL0     O93579   6.293   8.219   3.159  0.1362  0.4008 -0.1869
  694MOL0     C93580   6.315   8.256   3.029  0.7906 -0.1484  0.4693
  694MOL0     C93581   6.442   8.288   2.990 -0.3524  0.4721  0.3107
  694MOL0     C93582   6.479   8.312   2.856  0.5201  1.2272 -0.6046
  694MOL0     C93583   6.624   8.331   2.826 -0.1677 -0.4624 -0.6980
  694MOL0     C93584   6.372   8.312   2.758  0.3292 -0.1078  0.6274
  694MOL0     C93585   6.407   8.329   2.617  0.3999 -0.1425  0.3959
  694MOL0     O93586   6.319   8.407   2.546 -0.2822  0.9099 -0.3376
  694MOL0     C93587   6.308   8.390   2.410 -0.2524  0.6073 -0.1527
  694MOL0     C93588   6.392   8.318   2.319 -0.3690 -0.2633  0.8648
  694MOL0     C93589   6.345   8.308   2.183  0.0937 -0.8949  0.4334
  694MOL0     C93590   6.248   8.392   2.126 -0.4988 -0.2343  0.2364
  694MOL0     O93591   6.199   8.394   1.996  0.0671 -0.0807 -0.1647
  694MOL0     C93592   6.249   8.303   1.900  0.1188 -0.1506  0.0369
  694MOL0     C93593   6.144   8.196   1.866 -0.3323  0.4716 -0.6857
  694MOL0     C93594   6.130   8.090   1.969 -1.1817  0.5444 -0.8399
  694MOL0     C93595   6.030   7.987   1.922  0.6879 -0.3987  0.4444
  694MOL0     C93596   6.020   7.865   2.014  0.3995 -0.3837  0.3879
  694MOL0     C93597   5.888   7.835   2.069  0.0130 -0.5128  0.4374
  694MOL0     C93598   5.903   7.743   2.188 -0.1737  0.5497  0.3563
  694MOL0     C93599   5.764   7.696   2.235  0.4695  0.6073  0.4997
  694MOL0    Cl93600   5.762   7.602   2.384 -0.8991  0.2773 -0.3926
  694MOL0     C93601   6.174   8.466   2.217 -1.1871 -0.9335  0.7664
  694MOL0     C93602   6.213   8.466   2.350  0.5239  0.2128  0.7808
  694MOL0     O93603   6.496   8.256   2.574  0.1121 -0.1125  0.8138
  694MOL0     C93604   6.246   8.285   2.785 -0.5993 -0.0148  0.6372
  694MOL0     C93605   6.217   8.254   2.920  0.0139 -0.4106 -0.1433
  694MOL0     N93606   5.854   7.829   3.357 -0.2152  0.3944  0.3364
  694MOL0     N93607   5.829   7.746   3.444  0.0554  0.5269 -0.2106
  694MOL0     C93608   6.736   8.088   3.533 -0.1449 -0.1270  0.5232
  694MOL0     C93609   6.828   8.194   3.523  0.1793 -0.2932 -0.1935
  694MOL0     C93610   7.022   8.591   3.492 -0.0083 -0.1067  0.6911
  694MOL0     C93611   7.005   8.682   3.379 -0.0741  0.6786  0.2175
  694MOL0     C93612   7.077   8.803   3.360 -0.7147  0.1584  0.0912
  694MOL0     C93613   7.179   8.841   3.454 -0.9004 -0.3763  0.7390
  694MOL0     O93614   7.254   8.954   3.454 -0.1301 -0.0652  0.1011
  694MOL0     C93615   7.291   9.008   3.323  0.7606  0.7577 -0.9390
  694MOL0     C93616   7.362   9.129   3.354 -0.7632 -0.0770  0.5786
  694MOL0     C93617   7.422   9.181   3.225  0.6072 -0.8523 -0.3019
  694MOL0     C93618   7.524   9.280   3.250  0.2923 -0.4258  0.3563
  694MOL0     C93619   7.573   9.346   3.129 -0.1288  0.0167 -0.0748
  694MOL0     C93620   7.626   9.387   3.027 -0.8797  0.0856  0.1492
  694MOL0     C93621   7.202   8.754   3.566  0.9231 -0.5012  0.5453
  694MOL0     C93622   7.119   8.640   3.588 -1.0408 -0.4068 -0.8264
  694MOL0     H93623   6.715   8.333   3.233  0.9778 -2.6670 -2.3207
  694MOL0     H93624   6.541   8.166   3.275 -0.2747  1.4092  0.7248
  694MOL0     H93625   6.495   7.796   3.432 -2.5389  2.9082 -1.1570
  694MOL0     H93626   6.660   7.836   3.483  0.5443  2.9254 -0.6151
  694MOL0     H93627   6.555   7.748   3.671 -0.7842  0.1589  0.3036
  694MOL0     H93628   6.541   7.925   3.699 -1.6332  2.6290 -2.2612
  694MOL0     H93629   6.301   7.920   3.581 -0.1430  0.4542  1.5899
  694MOL0     H93630   6.326   7.757   3.544  0.5811 -0.7920  0.8140
  694MOL0     H93631   6.322   7.692   3.784 -0.5421 -1.1952 -1.0391
  694MOL0     H93632   6.286   7.870   3.821  2.1504  0.1646 -0.8129
  694MOL0     H93633   6.069   7.778   3.836 -3.3122  0.5369 -1.8835
  694MOL0     H93634   6.089   7.859   3.682 -0.3044  1.1251  1.7824
  694MOL0     H93635   6.070   7.649   3.568 -4.3470  1.1164 -1.4015
  694MOL0     H93636   6.118   7.565   3.724 -2.2036 -1.4356  1.2053
  694MOL0     H93637   5.866   7.545   3.645 -1.6651  0.3836  0.5128
  694MOL0     H93638   5.898   7.595   3.810 -1.9107 -0.8348  0.1569
  694MOL0     H93639   5.816   7.805   3.783  1.1254  0.0515 -0.1082
  694MOL0     H93640   5.704   7.703   3.702  0.9483 -0.7220  0.9099
  694MOL0     H93641   5.841   8.012   3.634 -1.7637  0.4187  0.5664
  694MOL0     H93642   5.921   8.090   3.264 -1.2658  0.6721  0.2682
  694MOL0     H93643   5.814   8.154   3.384 -1.6116 -2.3694 -1.7939
  694MOL0     H93644   6.043   8.096   3.528  1.2957  0.5493  0.7953
  694MOL0     H93645   6.030   8.258   3.452 -0.2861 -0.6257  0.8207
  694MOL0     H93646   6.165   8.003   3.324  2.5802 -0.1947  1.5564
  694MOL0     H93647   6.253   8.141   3.386  0.8791  0.5091 -1.7043
  694MOL0     H93648   6.096   8.271   3.197 -0.9209 -1.3598 -1.6527
  694MOL0     H93649   6.109   8.114   3.132 -1.7493  0.5775  0.5972
  694MOL0     H93650   6.516   8.282   3.069 -0.8466 -0.1700  0.7350
  694MOL0     H93651   6.669   8.381   2.913  3.9461 -0.1843 -2.7442
  694MOL0     H93652   6.681   8.239   2.810 -3.6159 -2.6399 -1.4510
  694MOL0     H93653   6.649   8.395   2.741  4.3384 -2.1742 -0.9526
  694MOL0     H93654   6.482   8.262   2.345 -1.0243 -1.3010  0.9625
  694MOL0     H93655   6.391   8.235   2.117 -0.0952 -0.2060 -0.4950
  694MOL0     H93656   6.274   8.352   1.806  3.9302 -2.1757 -0.2062
  694MOL0     H93657   6.342   8.253   1.926  1.0649  0.9933 -1.0179
  694MOL0     H93658   6.045   8.238   1.852 -0.7910 -0.2815  0.1797
  694MOL0     H93659   6.175   8.149   1.772  1.5785 -0.3055  0.2547
  694MOL0     H93660   6.108   8.122   2.071 -4.2049  0.1512 -1.2982
  694MOL0     H93661   6.230   8.045   1.970 -2.7029 -3.3271  1.7317
  694MOL0     H93662   5.936   8.042   1.927  0.5513 -0.4098 -1.3047
  694MOL0     H93663   6.032   7.966   1.814 -1.1281 -0.2237  0.3420
  694MOL0     H93664   6.092   7.874   2.096  2.1881 -3.7880 -0.6045
  694MOL0     H93665   6.061   7.788   1.948  4.5862  0.2693  1.9594
  694MOL0     H93666   5.847   7.931   2.101 -0.0283 -0.4532  0.2113
  694MOL0     H93667   5.811   7.810   1.995  0.3038 -2.0538  0.6221
  694MOL0     H93668   5.945   7.796   2.274 -0.4098 -1.5077  1.8055
  694MOL0     H93669   5.969   7.660   2.162  1.3317  1.5256  0.9201
  694MOL0     H93670   5.718   7.625   2.165  0.1911  0.1832  1.1029
  694MOL0     H93671   5.694   7.780   2.243 -1.1608 -0.6112 -0.2579
  694MOL0     H93672   6.090   8.525   2.183  0.3090  1.9057  1.6754
  694MOL0     H93673   6.141   8.526   2.404 -1.4279  1.0317 -2.4549
  694MOL0     H93674   6.169   8.292   2.709 -0.6287  2.7961  0.8082
  694MOL0     H93675   6.111   8.242   2.936  0.0536  0.1537  0.6037
  694MOL0     H93676   6.741   8.018   3.615 -1.7779 -1.2318 -0.2686
  694MOL0     H93677   6.904   8.209   3.599 -0.9796  2.6493  0.5296
  694MOL0     H93678   6.929   8.662   3.304  2.2176 -3.2450 -1.3800
  694MOL0     H93679   7.046   8.873   3.282 -1.6901 -0.2108  0.1296
  694MOL0     H93680   7.344   8.930   3.269 -1.6767 -1.8491  0.1609
  694MOL0     H93681   7.193   9.028   3.278 -0.2561 -0.3768  0.6566
  694MOL0     H93682   7.421   9.110   3.444  1.6406 -2.7932 -1.3936
  694MOL0     H93683   7.282   9.202   3.372 -1.3923 -0.8063  0.7931
  694MOL0     H93684   7.351   9.221   3.153  0.7684  2.5385  1.2020
  694MOL0     H93685   7.483   9.105   3.175  0.9416 -1.6355  1.2452
  694MOL0     H93686   7.607   9.234   3.304 -0.9006 -0.1584  2.5613
  694MOL0     H93687   7.473   9.353   3.314  0.1280 -0.8055  0.6677
  694MOL0     H93688   7.681   9.416   2.939  1.0492  0.7861  1.5287
  694MOL0     H93689   7.269   8.794   3.642  2.1057  1.3317 -1.3646
  694MOL0     H93690   7.137   8.580   3.677  3.0490  1.5754 -0.0943
  695MOL0     O93691   3.960   4.209   1.920 -0.1801  0.0839 -0.5599
  695MOL0     C93692   4.018   4.098   1.894  0.2088 -0.2055 -1.0739
  695MOL0     O93693   3.967   3.976   1.861 -0.6210 -1.0379 -0.6833
  695MOL0     C93694   3.843   3.943   1.893 -0.0891  0.2543  0.2419
  695MOL0     C93695   3.783   3.849   1.816  1.4351 -0.0358 -0.0121
  695MOL0     C93696   3.641   3.814   1.822 -0.2756 -0.2901  0.1928
  695MOL0     C93697   3.567   3.878   1.919  0.4774 -1.1022  0.4242
  695MOL0     O93698   3.434   3.853   1.919  0.1022 -0.9401 -0.2213
  695MOL0     C93699   3.355   3.965   1.959  0.0279 -0.9771  0.4521
  695MOL0     C93700   3.205   3.932   1.940  0.1031 -0.8666 -0.1054
  695MOL0     C93701   3.102   4.053   1.945  0.3094 -0.4767  0.3198
  695MOL0     C93702   2.961   4.004   1.901  0.1350 -0.6523  0.4331
  695MOL0     C93703   2.839   4.095   1.949 -0.3564 -0.1488  0.0705
  695MOL0     C93704   2.706   4.003   1.958 -0.6365 -0.1689  0.6640
  695MOL0     C93705   2.579   4.091   1.919 -0.0503 -0.1356 -0.3187
  695MOL0     C93706   2.557   4.202   2.025  0.4613  0.0041 -0.2037
  695MOL0     N93707   2.517   4.148   2.159 -0.0733 -0.2066  0.0487
  695MOL0     C93708   2.582   4.177   2.282  0.2923  0.6062 -0.5622
  695MOL0     C93709   2.505   4.103   2.373  0.8990  0.1595 -0.4982
  695MOL0     C93710   2.552   4.082   2.519 -0.0841 -0.4259 -0.0301
  695MOL0     C93711   2.458   4.135   2.624 -0.6874  0.2604  0.6618
  695MOL0     C93712   2.515   4.256   2.686  0.1451  0.6257 -0.5271
  695MOL0     C93713   2.615   4.217   2.797  0.4959  0.0757 -0.3971
  695MOL0     O93714   2.673   4.336   2.855  0.2566  0.0561  0.0531
  695MOL0     C93715   2.747   4.328   2.975  0.0404  0.9704 -0.1830
  695MOL0     C93716   2.778   4.448   3.039  0.5087  0.7635 -0.4481
  695MOL0     C93717   2.841   4.450   3.157 -0.0418 -0.2776  0.1519
  695MOL0     C93718   2.827   4.580   3.231  0.0594  0.0041  0.8913
  695MOL0     C93719   2.890   4.333   3.227 -0.2316 -0.8700 -0.2508
  695MOL0     C93720   2.965   4.330   3.353 -0.4310 -0.3933 -0.2638
  695MOL0     O93721   3.077   4.257   3.335 -0.0646  0.7145 -0.7684
  695MOL0     C93722   3.175   4.256   3.432 -0.6413  0.2334  0.3541
  695MOL0     C93723   3.287   4.331   3.421  1.7679 -0.6742 -1.2467
  695MOL0     C93724   3.376   4.334   3.528 -0.2328 -0.5787  0.3501
  695MOL0     C93725   3.364   4.261   3.642 -0.2022  0.6983  0.5043
  695MOL0     O93726   3.447   4.259   3.747  0.3271 -0.4993 -0.4187
  695MOL0     C93727   3.582   4.288   3.724  0.1343 -0.2816  0.0332
  695MOL0     C93728   3.658   4.192   3.627  0.1299 -0.1833  0.2287
  695MOL0     C93729   3.803   4.225   3.624 -0.3087  0.2281  0.3330
  695MOL0     C93730   3.866   4.152   3.750 -0.2062  0.3620  0.2936
  695MOL0     C93731   4.010   4.198   3.801  1.0000 -0.9694 -0.5098
  695MOL0     C93732   4.049   4.339   3.754  0.4306 -0.5512  1.0101
  695MOL0     C93733   4.195   4.381   3.793 -0.5548  0.3309 -0.4042
  695MOL0     C93734   4.208   4.471   3.917 -0.2186 -0.1551 -0.8894
  695MOL0    Cl93735   4.200   4.363   4.056  0.6176  0.5259  0.0448
  695MOL0     C93736   3.251   4.181   3.652 -0.1426  0.8647  0.3923
  695MOL0     C93737   3.151   4.187   3.555 -0.5164 -0.1345  0.0619
  695MOL0     O93738   2.945   4.403   3.451 -0.1721  0.0269 -0.6186
  695MOL0     C93739   2.866   4.211   3.162 -0.1275 -0.5397 -0.4150
  695MOL0     C93740   2.795   4.212   3.044  0.5804 -0.4923 -0.3494
  695MOL0     N93741   2.400   4.042   2.309  0.2578 -0.4616 -0.6644
  695MOL0     N93742   2.402   4.071   2.179  0.7128  0.0463  0.6231
  695MOL0     C93743   3.632   3.966   2.007  0.3389 -0.7098 -0.7223
  695MOL0     C93744   3.770   4.000   1.991  1.1188 -0.9535 -0.8575
  695MOL0     C93745   4.166   4.110   1.893 -0.6305 -0.8922  0.0000
  695MOL0     C93746   4.236   4.012   1.815  0.0771 -0.6262 -0.7531
  695MOL0     C93747   4.375   4.004   1.815 -0.3454 -0.0804  1.1146
  695MOL0     C93748   4.451   4.101   1.880 -0.1236 -0.2346  0.0735
  695MOL0     O93749   4.588   4.107   1.881 -0.0331 -0.5871  0.0715
  695MOL0     C93750   4.656   3.997   1.841  0.2087  0.5751 -0.1849
  695MOL0     C93751   4.800   3.991   1.894  0.9684  0.2924  0.0923
  695MOL0     C93752   4.898   3.903   1.816  0.5007 -0.1688 -0.5087
  695MOL0     C93753   5.045   3.936   1.854 -0.1498 -0.4624 -0.5562
  695MOL0     C93754   5.093   3.862   1.971 -0.6670  0.2294  0.3377
  695MOL0     C93755   5.138   3.802   2.065  0.4019 -1.2619  0.0130
  695MOL0     C93756   4.381   4.192   1.950 -0.0966  0.2046  0.0216
  695MOL0     C93757   4.244   4.197   1.967  0.9568  0.1875  1.2027
  695MOL0     H93758   3.849   3.809   1.739  1.4712  1.1431 -0.6150
  695MOL0     H93759   3.593   3.746   1.752  0.3282 -1.0741  0.5300
  695MOL0     H93760   3.374   4.000   2.061 -0.7070  0.7671  0.0293
  695MOL0     H93761   3.377   4.044   1.887  0.9155 -1.4848  0.1568
  695MOL0     H93762   3.191   3.886   1.842  0.9149 -0.8978 -0.2129
  695MOL0     H93763   3.189   3.861   2.022  0.6752  0.6492  1.3867
  695MOL0     H93764   3.097   4.104   2.042  4.8240 -1.3412  1.1941
  695MOL0     H93765   3.130   4.136   1.879 -0.0780 -0.1468  0.5562
  695MOL0     H93766   2.963   4.011   1.792 -1.2578  1.4133  0.4763
  695MOL0     H93767   2.951   3.897   1.921 -2.0329 -0.6556 -0.4399
  695MOL0     H93768   2.858   4.134   2.050 -1.2419 -1.8046  0.9136
  695MOL0     H93769   2.832   4.176   1.877 -1.5182  0.0849  0.4317
  695MOL0     H93770   2.710   3.914   1.894 -0.7826  0.4073 -0.1700
  695MOL0     H93771   2.697   3.978   2.064  0.2559  1.0771  1.0664
  695MOL0     H93772   2.582   4.138   1.820  1.6582  3.3947  1.2769
  695MOL0     H93773   2.497   4.021   1.943 -1.0701  1.9036  2.5843
  695MOL0     H93774   2.480   4.273   1.993 -0.0413  0.7023  2.3638
  695MOL0     H93775   2.649   4.261   2.025  0.8095 -0.5205 -0.5984
  695MOL0     H93776   2.669   4.239   2.300  1.9398 -1.3973 -1.0952
  695MOL0     H93777   2.555   3.974   2.539  2.3145 -0.1687  1.3867
  695MOL0     H93778   2.656   4.114   2.527 -0.3864  0.8300 -0.8146
  695MOL0     H93779   2.452   4.055   2.698  0.4034 -1.1055 -0.6619
  695MOL0     H93780   2.357   4.159   2.592 -0.4602  0.7154  0.2716
  695MOL0     H93781   2.427   4.309   2.725 -0.0500 -1.3950  2.1417
  695MOL0     H93782   2.550   4.329   2.613 -2.0031 -0.4542 -2.7467
  695MOL0     H93783   2.701   4.157   2.764  2.2037 -0.3005  4.0357
  695MOL0     H93784   2.569   4.156   2.875  0.2115  1.2281  0.3587
  695MOL0     H93785   2.747   4.547   3.008  0.1777  2.1483  3.7167
  695MOL0     H93786   2.917   4.625   3.274  0.7490  1.2740 -1.6904
  695MOL0     H93787   2.812   4.652   3.151 -1.9273  1.3287  2.3488
  695MOL0     H93788   2.733   4.580   3.288  0.0615  0.0542  0.8940
  695MOL0     H93789   3.312   4.391   3.334  1.2942  0.1939 -0.7947
  695MOL0     H93790   3.460   4.403   3.518  0.2760 -1.3767 -1.1328
  695MOL0     H93791   3.586   4.392   3.690  0.1511  0.7293  2.8657
  695MOL0     H93792   3.629   4.295   3.822 -2.1813 -0.5849  1.2380
  695MOL0     H93793   3.640   4.087   3.652 -0.1030 -0.1261  0.3054
  695MOL0     H93794   3.628   4.204   3.523 -0.7361 -1.5296  0.3037
  695MOL0     H93795   3.815   4.333   3.621  1.5476  0.0285 -0.5687
  695MOL0     H93796   3.834   4.185   3.527 -1.4686 -1.0283  0.4369
  695MOL0     H93797   3.793   4.165   3.830 -0.1808 -2.3589  0.8507
  695MOL0     H93798   3.881   4.046   3.728  1.5744  1.3414 -4.6430
  695MOL0     H93799   4.087   4.131   3.760  1.0907 -0.5139 -1.0964
  695MOL0     H93800   4.008   4.181   3.909 -1.4713 -1.6463 -0.6080
  695MOL0     H93801   4.050   4.330   3.645 -1.9787 -0.1650  0.9034
  695MOL0     H93802   3.973   4.408   3.790  1.4989  0.7165  0.9095
  695MOL0     H93803   4.239   4.444   3.715  0.2375 -4.1660 -4.0648
  695MOL0     H93804   4.261   4.294   3.796  0.8771  1.3137 -1.7162
  695MOL0     H93805   4.133   4.550   3.914  0.0945  0.1307 -3.6609
  695MOL0     H93806   4.308   4.514   3.919 -0.8290  1.3194  0.9652
  695MOL0     H93807   3.234   4.126   3.744  0.1285  1.3005  0.7095
  695MOL0     H93808   3.055   4.139   3.574 -1.1314 -0.3044 -2.9726
  695MOL0     H93809   2.908   4.125   3.212  1.8851  1.1907  1.0650
  695MOL0     H93810   2.774   4.117   2.995 -0.1288 -1.8057  2.2854
  695MOL0     H93811   3.580   4.012   2.091  5.0381 -0.4790  2.4627
  695MOL0     H93812   3.819   4.070   2.058  1.7566 -2.6898  0.5770
  695MOL0     H93813   4.183   3.960   1.736  1.2758 -1.6038 -0.9482
  695MOL0     H93814   4.415   3.918   1.762  0.0707  0.5225  0.4267
  695MOL0     H93815   4.605   3.905   1.868 -0.2439  1.3321  1.7125
  695MOL0     H93816   4.655   4.004   1.732  1.4024 -1.8759 -0.4196
  695MOL0     H93817   4.788   3.954   1.997  0.9921 -3.6649 -1.1819
  695MOL0     H93818   4.843   4.089   1.918 -3.7681  2.1652  2.3418
  695MOL0     H93819   4.877   3.926   1.711 -3.0291 -1.7977 -0.2922
  695MOL0     H93820   4.873   3.799   1.836 -0.3226  0.0898 -0.1615
  695MOL0     H93821   5.057   4.038   1.892 -0.6222 -1.6074  2.9689
  695MOL0     H93822   5.110   3.911   1.769  0.6973 -0.3835  0.0635
  695MOL0     H93823   5.173   3.781   2.165 -0.1668  0.9477  0.7270
  695MOL0     H93824   4.433   4.254   2.022 -1.1803  0.0516  0.9677
  695MOL0     H93825   4.201   4.276   2.028  1.2344  0.5643  0.9183
  696MOL0     O93826   4.012  10.496   2.379  0.0256  0.6150 -0.0074
  696MOL0     C93827   4.094  10.575   2.428  0.4653 -0.4076 -0.2586
  696MOL0     O93828   4.066  10.684   2.512  0.7669 -0.2169  1.0502
  696MOL0     C93829   3.938  10.697   2.559 -0.2616  0.3250  0.3367
  696MOL0     C93830   3.916  10.706   2.697  0.4265  0.0831 -0.2581
  696MOL0     C93831   3.786  10.742   2.753  0.9248  0.8337 -0.6052
  696MOL0     C93832   3.689  10.767   2.657 -0.2897  0.4792 -0.5922
  696MOL0     O93833   3.582  10.810   2.715  0.3215  1.1778  0.2152
  696MOL0     C93834   3.465  10.735   2.689 -0.2231  0.7598 -0.7223
  696MOL0     C93835   3.341  10.807   2.738 -1.3460 -0.4752 -1.1211
  696MOL0     C93836   3.227  10.716   2.781  0.6026 -0.3789 -0.4717
  696MOL0     C93837   3.122  10.793   2.856 -0.1797 -0.2962  0.1188
  696MOL0     C93838   3.001  10.706   2.878 -0.1038 -0.2589  0.0934
  696MOL0     C93839   2.886  10.789   2.933 -0.3425 -0.3113  0.0965
  696MOL0     C93840   2.892  10.827   3.084  0.0480  1.0094  0.4159
  696MOL0     C93841   2.763  10.882   3.139  0.6528  0.3227  0.6599
  696MOL0     N93842   2.731  11.005   3.065 -0.5956 -0.5004 -1.1602
  696MOL0     C93843   2.624  11.025   2.985 -0.3167 -0.9016  0.1776
  696MOL0     C93844   2.641  11.157   2.928  0.1794 -0.2106 -1.4122
  696MOL0     C93845   2.545  11.228   2.849  0.1344  0.2713 -1.0752
  696MOL0     C93846   2.457  11.309   2.938 -0.0964  0.5037 -0.1164
  696MOL0     C93847   2.390  11.426   2.863 -0.6511 -0.8897  0.8549
  696MOL0     C93848   2.270  11.369   2.790  0.5619 -0.3982 -0.8898
  696MOL0     O93849   2.300  11.329   2.662  0.1162 -0.3487 -0.3156
  696MOL0     C93850   2.211  11.269   2.578  0.6265 -0.2378 -0.6981
  696MOL0     C93851   2.071  11.293   2.594 -0.4660  0.4476 -0.1540
  696MOL0     C93852   1.976  11.232   2.508 -0.2234  0.3446 -0.1756
  696MOL0     C93853   1.824  11.241   2.534 -1.8381  0.2274  0.9843
  696MOL0     C93854   2.034  11.153   2.401  0.4731  0.4838 -0.0039
  696MOL0     C93855   1.962  11.060   2.316  0.7350  0.0242 -0.3130
  696MOL0     O93856   1.999  11.045   2.183 -0.8423  0.4374  0.0781
  696MOL0     C93857   1.907  10.985   2.095 -1.0359  0.3829  0.0395
  696MOL0     C93858   1.965  10.903   1.994 -0.1723 -0.2423  0.4202
  696MOL0     C93859   1.888  10.839   1.900 -0.6040 -0.2418 -0.2137
  696MOL0     C93860   1.747  10.854   1.896  0.9769 -0.1581 -0.1920
  696MOL0     O93861   1.651  10.796   1.806 -1.1043  0.3896  0.2291
  696MOL0     C93862   1.701  10.732   1.686 -0.8019 -0.6827  0.1883
  696MOL0     C93863   1.588  10.670   1.619  0.3584  0.6699  0.2211
  696MOL0     C93864   1.505  10.760   1.527 -0.3347 -0.1305  0.9976
  696MOL0     C93865   1.593  10.787   1.399  0.2642  0.2154 -0.3309
  696MOL0     C93866   1.586  10.934   1.356 -0.3972  0.9440 -0.0255
  696MOL0     C93867   1.650  10.960   1.212 -0.4905 -0.6442 -0.6126
  696MOL0     C93868   1.700  11.101   1.212  0.2825  0.5465 -0.0724
  696MOL0     C93869   1.591  11.211   1.187 -0.0372  0.4599  0.1424
  696MOL0    Cl93870   1.513  11.219   1.025 -0.0988 -0.4438 -0.1088
  696MOL0     C93871   1.689  10.933   1.998 -0.1601 -0.2656 -0.2020
  696MOL0     C93872   1.765  10.993   2.095  0.7352  0.1286 -0.0889
  696MOL0     O93873   1.866  11.002   2.362  0.1793 -0.2380 -0.3165
  696MOL0     C93874   2.173  11.141   2.384  0.4599  0.4159 -0.2526
  696MOL0     C93875   2.258  11.196   2.476 -1.3710  0.0715 -0.6854
  696MOL0     N93876   2.759  11.205   2.979  0.4818 -0.2204  0.2977
  696MOL0     N93877   2.816  11.112   3.052 -0.0270 -0.2036  0.3835
  696MOL0     C93878   3.701  10.770   2.522 -0.6357 -0.2528  0.2700
  696MOL0     C93879   3.821  10.728   2.473  0.0455 -0.3958  0.0356
  696MOL0     C93880   4.240  10.558   2.403 -1.0719 -1.0907 -0.6511
  696MOL0     C93881   4.341  10.650   2.463 -0.4581 -0.0245  0.6760
  696MOL0     C93882   4.473  10.620   2.456 -0.1047  0.4481 -0.8166
  696MOL0     C93883   4.516  10.510   2.390 -0.1631 -0.0664 -0.6566
  696MOL0     O93884   4.648  10.475   2.363  0.5860 -0.8466  0.2908
  696MOL0     C93885   4.757  10.535   2.441  0.0487 -0.0088  0.3302
  696MOL0     C93886   4.896  10.462   2.418 -0.0855 -0.1196 -0.3668
  696MOL0     C93887   4.973  10.516   2.293 -0.1391 -1.0101  0.3211
  696MOL0     C93888   4.873  10.562   2.182 -0.3568  0.1863  0.5763
  696MOL0     C93889   4.939  10.620   2.067 -0.3752  0.3840  0.4845
  696MOL0     C93890   4.986  10.663   1.961 -0.3192 -0.2278  0.2570
  696MOL0     C93891   4.429  10.419   2.341  0.5597  0.6402 -0.2699
  696MOL0     C93892   4.291  10.446   2.336  0.6681  0.1828  0.1444
  696MOL0     H93893   3.992  10.706   2.774 -0.1559  1.1113  0.3436
  696MOL0     H93894   3.768  10.749   2.859  2.5823  2.4851 -0.3732
  696MOL0     H93895   3.445  10.694   2.590  0.4941  1.6214 -1.2331
  696MOL0     H93896   3.466  10.651   2.759 -2.4272 -1.8752 -3.5768
  696MOL0     H93897   3.367  10.864   2.828  0.5618 -3.5424  0.4436
  696MOL0     H93898   3.322  10.882   2.661 -1.3900  1.7811  0.9622
  696MOL0     H93899   3.182  10.681   2.688  3.4720 -2.2013 -1.3008
  696MOL0     H93900   3.273  10.636   2.840 -1.5911 -0.5124  1.1745
  696MOL0     H93901   3.167  10.818   2.952  5.0171 -4.2096 -0.7821
  696MOL0     H93902   3.099  10.883   2.799  1.6852 -1.3204 -2.5125
  696MOL0     H93903   2.974  10.657   2.784  3.0366 -2.0361 -0.0536
  696MOL0     H93904   3.038  10.627   2.945 -0.6672  0.3554  1.1598
  696MOL0     H93905   2.862  10.880   2.877  0.6783 -1.2214 -1.9542
  696MOL0     H93906   2.804  10.716   2.926 -0.7975  0.2818 -1.1696
  696MOL0     H93907   2.916  10.744   3.151  1.8418  1.5755  0.5034
  696MOL0     H93908   2.961  10.910   3.098  2.0122 -0.0198 -2.4439
  696MOL0     H93909   2.780  10.898   3.246 -1.9719  0.5918  1.0996
  696MOL0     H93910   2.677  10.816   3.127  0.5249  0.4038  1.1067
  696MOL0     H93911   2.534  10.966   2.972  0.2084 -1.4031 -1.4532
  696MOL0     H93912   2.594  11.302   2.785 -1.0473  1.3918 -0.7301
  696MOL0     H93913   2.477  11.161   2.795 -2.5444  1.2389  0.8773
  696MOL0     H93914   2.530  11.347   3.010  0.2095 -0.3873  0.0624
  696MOL0     H93915   2.392  11.258   3.011 -0.2212  0.7378 -0.0631
  696MOL0     H93916   2.463  11.469   2.794 -2.2572  0.6798  0.0433
  696MOL0     H93917   2.372  11.502   2.940  0.9434  0.9720 -0.4999
  696MOL0     H93918   2.205  11.457   2.793 -1.4084 -1.7455 -1.5780
  696MOL0     H93919   2.213  11.294   2.844 -0.5753 -0.1988 -1.7752
  696MOL0     H93920   2.039  11.370   2.665  4.0387  0.6685  1.9645
  696MOL0     H93921   1.776  11.147   2.564 -0.6980 -0.6645  0.1094
  696MOL0     H93922   1.802  11.320   2.607 -1.6470  1.1099  0.1034
  696MOL0     H93923   1.784  11.281   2.440 -2.5517  1.2629  1.6975
  696MOL0     H93924   2.073  10.893   1.991 -0.3120 -1.8660  0.2454
  696MOL0     H93925   1.946  10.776   1.833 -0.8552  1.5213 -2.2064
  696MOL0     H93926   1.744  10.809   1.622 -2.0563 -0.0314  0.0884
  696MOL0     H93927   1.781  10.659   1.704  1.8785  1.8808 -0.5846
  696MOL0     H93928   1.638  10.582   1.577  1.4590  0.4483  1.9095
  696MOL0     H93929   1.509  10.622   1.678  1.3614 -1.1026  0.1832
  696MOL0     H93930   1.477  10.850   1.582 -0.5946  1.3859 -1.4357
  696MOL0     H93931   1.414  10.709   1.495  0.1011  0.2419 -0.9583
  696MOL0     H93932   1.695  10.752   1.417 -0.0978 -0.4790  0.4406
  696MOL0     H93933   1.549  10.737   1.312 -4.0211  0.6425  1.3341
  696MOL0     H93934   1.632  10.995   1.434 -0.7396 -0.1215  1.0263
  696MOL0     H93935   1.480  10.959   1.341 -0.6772 -1.1485 -2.0693
  696MOL0     H93936   1.739  10.901   1.189  0.0901  0.4385 -1.2649
  696MOL0     H93937   1.587  10.938   1.125  1.9095  0.9130 -2.8812
  696MOL0     H93938   1.758  11.104   1.119 -0.5252 -1.9010 -0.7600
  696MOL0     H93939   1.766  11.127   1.295  0.7745 -1.9290  0.3956
  696MOL0     H93940   1.652  11.302   1.186  2.8505 -1.2516 -3.5596
  696MOL0     H93941   1.520  11.203   1.270  0.4418 -0.7168  0.4610
  696MOL0     H93942   1.583  10.956   2.007  0.5310  2.8993  1.2233
  696MOL0     H93943   1.714  11.062   2.161  0.8567 -0.4185  0.5854
  696MOL0     H93944   2.202  11.078   2.300 -2.4408  2.8274 -3.3418
  696MOL0     H93945   2.363  11.175   2.459 -1.7034 -2.5190  0.0389
  696MOL0     H93946   3.619  10.804   2.460 -2.0409  0.5210  2.4511
  696MOL0     H93947   3.841  10.740   2.367  1.1800  1.6829  0.4268
  696MOL0     H93948   4.308  10.736   2.521  2.1067  0.3752  1.6994
  696MOL0     H93949   4.535  10.701   2.494  1.8392 -0.2260 -2.3582
  696MOL0     H93950   4.766  10.644   2.427  5.6296 -0.2922 -0.3261
  696MOL0     H93951   4.734  10.529   2.547  2.0363  1.7982  0.9218
  696MOL0     H93952   4.876  10.356   2.399  2.3022 -0.9499  1.3632
  696MOL0     H93953   4.956  10.478   2.507 -0.9701 -1.9467  0.6205
  696MOL0     H93954   5.036  10.433   2.261  1.2212 -0.5091  1.5906
  696MOL0     H93955   5.027  10.606   2.324  0.2996 -1.4211  0.7535
  696MOL0     H93956   4.807  10.643   2.215 -0.1105  0.2369  0.9501
  696MOL0     H93957   4.820  10.471   2.153 -0.2181  0.6151 -1.1111
  696MOL0     H93958   5.037  10.696   1.873 -0.1459 -2.5247 -0.5834
  696MOL0     H93959   4.471  10.331   2.294 -0.7146 -0.6262  0.8623
  696MOL0     H93960   4.218  10.376   2.297 -1.8399  2.9227 -0.4228
  697MOL0     O93961   9.890   8.848   9.842  0.6172  0.1336 -0.4407
  697MOL0     C93962   9.836   8.840   9.956 -0.0413 -0.2642 -0.1120
  697MOL0     O93963   9.705   8.812   9.974 -0.0861  0.0776 -0.8156
  697MOL0     C93964   9.637   8.746   9.880 -0.0337 -0.5909 -0.7214
  697MOL0     C93965   9.697   8.648   9.805  0.6763 -0.2522  0.0446
  697MOL0     C93966   9.618   8.583   9.712 -0.5130 -1.1690  0.0130
  697MOL0     C93967   9.473   8.595   9.706 -1.1164 -0.3870 -0.0999
  697MOL0     O93968   9.382   8.535   9.620 -0.0454 -0.7606 -0.4453
  697MOL0     C93969   9.413   8.490   9.487  0.1092 -0.6778  0.0101
  697MOL0     C93970   9.280   8.456   9.437  0.6704  0.5370  0.1518
  697MOL0     C93971   9.194   8.574   9.378 -0.3474 -0.6473 -0.4889
  697MOL0     C93972   9.086   8.544   9.273  0.0612 -0.0399  0.2970
  697MOL0     C93973   9.151   8.492   9.143  0.9607  0.3909 -0.8858
  697MOL0     C93974   9.237   8.584   9.069 -0.7617  0.6059 -0.2237
  697MOL0     C93975   9.162   8.704   9.014  0.1715 -0.2967 -0.8761
  697MOL0     C93976   9.241   8.765   8.894  0.1894 -0.0126  0.2725
  697MOL0     N93977   9.243   8.686   8.774  0.0038 -0.1141  0.4516
  697MOL0     C93978   9.367   8.654   8.721  0.6431 -0.3262  0.2332
  697MOL0     C93979   9.339   8.615   8.589  0.0437  0.3119  0.4878
  697MOL0     C93980   9.421   8.575   8.470 -0.1601  0.2232  0.1479
  697MOL0     C93981   9.470   8.696   8.386 -0.7423 -0.6592 -0.6714
  697MOL0     C93982   9.534   8.645   8.265  0.4894  0.4252 -0.2933
  697MOL0     C93983   9.664   8.594   8.283 -0.0898 -0.0588 -0.4957
  697MOL0     O93984   9.733   8.527   8.168  0.2715 -0.5263 -0.8544
  697MOL0     C93985   9.868   8.483   8.175  1.5331  0.4432 -0.0097
  697MOL0     C93986   9.938   8.501   8.285 -0.3371  0.3288 -0.0725
  697MOL0     C93987  10.074   8.478   8.296  0.5517 -0.0333  0.2742
  697MOL0     C93988  10.140   8.535   8.420  0.0717 -0.2410 -0.4568
  697MOL0     C93989  10.141   8.423   8.186 -1.0144 -0.3487  0.0610
  697MOL0     C93990  10.281   8.383   8.187 -0.4202  0.0769  0.5171
  697MOL0     O93991  10.299   8.262   8.122 -0.1805  0.4359 -0.3885
  697MOL0     C93992  10.410   8.189   8.150  0.4918 -0.6071 -0.0291
  697MOL0     C93993  10.464   8.183   8.278  0.2482 -0.1681 -0.9423
  697MOL0     C93994  10.576   8.113   8.308 -0.1721  0.2401  0.3362
  697MOL0     C93995  10.646   8.044   8.202  0.0823  0.1380  0.7714
  697MOL0     O93996  10.767   7.981   8.239  0.1042 -0.9013 -0.1930
  697MOL0     C93997  10.816   7.879   8.149 -0.1460 -0.4074 -0.0092
  697MOL0     C93998  10.919   7.786   8.205  0.8010  0.6300  0.4563
  697MOL0     C93999  10.896   7.638   8.175  0.2892  0.0195 -0.2637
  697MOL0     C94000  11.024   7.546   8.201  0.4134  0.5903 -0.0464
  697MOL0     C94001  11.077   7.568   8.339  0.0972 -0.8567  0.2576
  697MOL0     C94002  10.994   7.519   8.460  0.8564  0.4747 -0.7280
  697MOL0     C94003  10.926   7.372   8.444  0.1156 -0.8805  0.0731
  697MOL0     C94004  10.950   7.290   8.570 -0.0432 -0.0896  0.1088
  697MOL0    Cl94005  11.119   7.225   8.578  0.1040 -0.2311  0.0689
  697MOL0     C94006  10.588   8.050   8.066 -0.2981 -0.3737  0.0657
  697MOL0     C94007  10.473   8.121   8.043  0.3522 -0.4186 -0.0476
  697MOL0     O94008  10.369   8.457   8.234  0.1008 -0.0328 -1.2218
  697MOL0     C94009  10.059   8.388   8.070 -0.2826  0.6316  0.2723
  697MOL0     C94010   9.931   8.431   8.058 -0.2483 -0.6120 -0.3024
  697MOL0     N94011   9.203   8.639   8.571 -0.0765 -0.6397 -0.1383
  697MOL0     N94012   9.153   8.688   8.677 -0.0889 -0.4955  0.1456
  697MOL0     C94013   9.416   8.696   9.788  0.1852  0.8361 -0.0028
  697MOL0     C94014   9.498   8.769   9.875  0.2224 -0.6864 -0.4245
  697MOL0     C94015   9.919   8.878  10.075 -0.3829  0.4532 -1.2799
  697MOL0     C94016  10.060   8.848  10.071 -0.1951 -1.1284  0.1202
  697MOL0     C94017  10.134   8.857  10.187  0.1489  0.1207  0.4997
  697MOL0     C94018  10.085   8.908  10.306  0.2822 -0.4939 -0.2757
  697MOL0     O94019  10.168   8.897  10.409  0.1940  0.0440 -0.8176
  697MOL0     C94020  10.137   8.797  10.504 -0.5208  0.4046  0.1653
  697MOL0     C94021  10.270   8.732  10.548  0.0643  0.7622 -0.4720
  697MOL0     C94022  10.303   8.609  10.470  0.0052 -0.9484 -0.2538
  697MOL0     C94023  10.432   8.540  10.523 -0.0749 -0.1073 -0.6118
  697MOL0     C94024  10.549   8.580  10.447  0.3081 -0.2452 -0.0929
  697MOL0     C94025  10.657   8.589  10.401 -0.5961 -0.1128  0.4532
  697MOL0     C94026   9.944   8.941  10.314 -0.1890 -0.5767 -1.5098
  697MOL0     C94027   9.867   8.925  10.203 -0.1821 -0.6630 -0.2966
  697MOL0     H94028   9.799   8.612   9.799 -0.3813 -3.4058 -3.8020
  697MOL0     H94029   9.670   8.510   9.650  0.2834 -1.5269  1.0742
  697MOL0     H94030   9.461   8.572   9.431 -0.8678 -0.6555 -0.8250
  697MOL0     H94031   9.477   8.402   9.488 -1.2256 -1.6689  0.0976
  697MOL0     H94032   9.287   8.384   9.354 -1.1578  1.4836 -0.8766
  697MOL0     H94033   9.218   8.412   9.515  1.4953  1.3033  1.2794
  697MOL0     H94034   9.141   8.620   9.462  0.6623 -2.2523  1.0761
  697MOL0     H94035   9.260   8.656   9.349 -0.7494 -0.3307 -0.5282
  697MOL0     H94036   9.014   8.472   9.313 -0.4735  1.0674  1.3924
  697MOL0     H94037   9.044   8.644   9.254 -0.1150 -0.4420 -1.7010
  697MOL0     H94038   9.187   8.392   9.168  2.1814  1.5151  2.3015
  697MOL0     H94039   9.071   8.474   9.070  0.4205  4.1065 -1.4103
  697MOL0     H94040   9.321   8.623   9.128 -0.5230  1.7105 -1.2639
  697MOL0     H94041   9.275   8.523   8.986 -1.9013 -0.7147  0.1954
  697MOL0     H94042   9.062   8.667   8.987  1.0138 -1.8988 -1.9577
  697MOL0     H94043   9.160   8.770   9.101  0.2424 -1.2259 -0.1439
  697MOL0     H94044   9.344   8.779   8.928  0.8033  2.1122 -2.1169
  697MOL0     H94045   9.197   8.861   8.864 -0.8447 -0.3456  0.6547
  697MOL0     H94046   9.464   8.651   8.770  1.3312  1.0533 -0.9915
  697MOL0     H94047   9.500   8.515   8.515 -1.7066 -2.1282 -0.0829
  697MOL0     H94048   9.358   8.504   8.416  0.2944 -0.1513  0.1045
  697MOL0     H94049   9.533   8.751   8.456 -2.1071 -2.0624  1.7996
  697MOL0     H94050   9.386   8.758   8.350  0.2466  0.1624 -1.6402
  697MOL0     H94051   9.529   8.728   8.193  2.2956  1.4855  0.7210
  697MOL0     H94052   9.475   8.560   8.230  0.1950  0.6316 -0.3033
  697MOL0     H94053   9.665   8.527   8.369  3.8506  0.4376  0.0074
  697MOL0     H94054   9.730   8.675   8.314 -0.2116 -0.5513  1.1207
  697MOL0     H94055   9.887   8.551   8.367  0.3185 -1.1799  1.3194
  697MOL0     H94056  10.103   8.474   8.503  1.0838 -0.3503 -0.0724
  697MOL0     H94057  10.247   8.516   8.428  0.2890  1.3018  0.7827
  697MOL0     H94058  10.117   8.640   8.438 -1.8702 -0.6301 -0.4258
  697MOL0     H94059  10.415   8.243   8.354  0.5687  1.0875 -1.6958
  697MOL0     H94060  10.623   8.117   8.406  1.3797  0.3774 -0.3875
  697MOL0     H94061  10.727   7.819   8.124 -1.8623  1.2653  1.7489
  697MOL0     H94062  10.853   7.915   8.053 -0.3303 -1.9099 -0.6669
  697MOL0     H94063  11.020   7.822   8.182  1.0081 -0.0845  0.2325
  697MOL0     H94064  10.900   7.807   8.311  0.9716  0.4985  0.5128
  697MOL0     H94065  10.850   7.640   8.076 -0.0134  1.6001 -0.1240
  697MOL0     H94066  10.820   7.605   8.245  1.3950 -1.5577  0.2536
  697MOL0     H94067  11.002   7.441   8.180  1.6705  0.0903  1.0260
  697MOL0     H94068  11.096   7.586   8.128  0.2335  0.6215 -0.2081
  697MOL0     H94069  11.102   7.675   8.346 -0.7742 -0.6837  1.0178
  697MOL0     H94070  11.173   7.517   8.349 -0.2692 -1.5807  0.0709
  697MOL0     H94071  11.074   7.512   8.535  1.6048  3.4470 -1.1157
  697MOL0     H94072  10.918   7.592   8.490 -1.6264 -2.9247  2.0194
  697MOL0     H94073  10.969   7.318   8.360  0.7356  0.9076 -0.8208
  697MOL0     H94074  10.822   7.393   8.419 -0.1702 -1.9685  0.3235
  697MOL0     H94075  10.874   7.211   8.561 -2.6928  2.4862 -1.8460
  697MOL0     H94076  10.915   7.335   8.664 -1.1100 -1.5920  0.4806
  697MOL0     H94077  10.632   7.999   7.982 -2.6902 -1.3599 -0.6662
  697MOL0     H94078  10.427   8.121   7.945 -3.3024 -0.8270  1.5169
  697MOL0     H94079  10.101   8.329   7.989  0.6967  0.3907  0.9365
  697MOL0     H94080   9.868   8.428   7.969  2.3799 -1.1704 -2.2728
  697MOL0     H94081   9.309   8.701   9.773 -0.0807  2.4337  1.9690
  697MOL0     H94082   9.451   8.824   9.956 -0.4440 -1.3772 -0.3317
  697MOL0     H94083  10.099   8.809   9.977  1.7509  1.2601 -0.1622
  697MOL0     H94084  10.238   8.824  10.183  0.1029 -0.2230  1.5449
  697MOL0     H94085  10.089   8.861  10.579 -0.3649  1.9129 -0.9983
  697MOL0     H94086  10.062   8.723  10.474 -0.3820  0.0371  0.7040
  697MOL0     H94087  10.259   8.708  10.654 -0.6439 -0.4230 -0.7968
  697MOL0     H94088  10.358   8.797  10.542 -0.2064  1.2502  0.5946
  697MOL0     H94089  10.323   8.636  10.366  0.6688 -2.3285 -0.5228
  697MOL0     H94090  10.214   8.547  10.463 -0.8674  0.4582 -2.4061
  697MOL0     H94091  10.416   8.432  10.510  0.1693 -0.1272 -0.7388
  697MOL0     H94092  10.438   8.553  10.631 -2.5315  2.5516 -0.6762
  697MOL0     H94093  10.751   8.596  10.351 -1.2468 -0.8639 -0.9405
  697MOL0     H94094   9.907   8.977  10.409  1.9656  3.8490 -2.0950
  697MOL0     H94095   9.761   8.950  10.198 -0.0972 -0.2071  0.1398
  698MOL0     O94096   0.212   6.356   8.223 -0.2591  0.5287 -0.6613
  698MOL0     C94097   0.268   6.452   8.283 -0.3480 -0.0252 -0.4192
  698MOL0     O94098   0.215   6.573   8.299 -0.5035  0.2201 -0.0443
  698MOL0     C94099   0.104   6.607   8.237 -0.1143  0.6013  0.1743
  698MOL0     C94100   0.099   6.741   8.201  0.7808 -0.1366 -0.1570
  698MOL0     C94101  -0.020   6.786   8.134 -0.0721 -0.5929 -0.1358
  698MOL0     C94102  -0.125   6.701   8.101  0.2901 -0.6335 -0.0072
  698MOL0     O94103  -0.228   6.752   8.028  0.2649 -0.3970 -0.0203
  698MOL0     C94104  -0.194   6.739   7.886 -0.4134 -0.3146 -0.3719
  698MOL0     C94105  -0.327   6.783   7.819  0.3872 -0.4201 -0.8146
  698MOL0     C94106  -0.435   6.677   7.855 -0.2031 -0.9026 -0.0877
  698MOL0     C94107  -0.557   6.686   7.779  1.1929  0.0038 -1.0434
  698MOL0     C94108  -0.683   6.712   7.875  0.8714 -0.7035 -1.5220
  698MOL0     C94109  -0.813   6.699   7.797 -0.1538 -0.9204  0.7564
  698MOL0     C94110  -0.946   6.731   7.874  0.4082 -0.2403  0.4245
  698MOL0     C94111  -0.941   6.861   7.949 -0.0270 -0.1684 -0.3237
  698MOL0     N94112  -1.030   6.856   8.060  0.0861 -0.2169 -0.3656
  698MOL0     C94113  -0.980   6.803   8.178  0.0066 -0.1880 -0.6093
  698MOL0     C94114  -1.087   6.798   8.259 -0.0340 -0.3220  0.8549
  698MOL0     C94115  -1.081   6.757   8.402  0.6248  0.2822 -0.2550
  698MOL0     C94116  -1.082   6.605   8.429 -0.8590  1.2670 -0.4135
  698MOL0     C94117  -1.209   6.536   8.376  0.5295  0.0511 -0.3736
  698MOL0     C94118  -1.187   6.380   8.386 -0.2813 -0.6001 -0.6736
  698MOL0     O94119  -1.113   6.330   8.281 -0.2253  0.2492  0.4358
  698MOL0     C94120  -1.043   6.217   8.315  0.5398 -0.6130 -0.3729
  698MOL0     C94121  -1.105   6.114   8.374  0.0596  0.7416  1.1060
  698MOL0     C94122  -1.034   5.997   8.423  1.0504  0.6171  0.6216
  698MOL0     C94123  -1.119   5.906   8.511  0.6858  0.7795  0.4961
  698MOL0     C94124  -0.897   5.979   8.389 -0.2597  0.2925  0.1194
  698MOL0     C94125  -0.818   5.859   8.430 -0.2029  0.1479  0.4987
  698MOL0     O94126  -0.863   5.771   8.522  0.2768  0.4632 -0.0261
  698MOL0     C94127  -0.814   5.642   8.525 -0.0296  0.2920  0.4806
  698MOL0     C94128  -0.886   5.540   8.459 -0.1690  0.5805 -0.1600
  698MOL0     C94129  -0.827   5.414   8.458  0.9224  0.6019  0.1083
  698MOL0     C94130  -0.712   5.385   8.530 -0.0211 -0.2896 -0.0904
  698MOL0     O94131  -0.670   5.251   8.538  0.2098 -0.3152  0.1287
  698MOL0     C94132  -0.531   5.233   8.535  0.5293  0.2307 -0.7230
  698MOL0     C94133  -0.493   5.105   8.453 -0.3779  0.8169  0.0691
  698MOL0     C94134  -0.338   5.111   8.426 -0.4415  0.9161 -0.9087
  698MOL0     C94135  -0.282   4.979   8.397 -1.0155 -0.5655 -0.5376
  698MOL0     C94136  -0.285   4.879   8.505 -0.7356  0.3275  0.1482
  698MOL0     C94137  -0.206   4.750   8.469 -1.2477 -0.3345  0.6772
  698MOL0     C94138  -0.213   4.628   8.561  0.2565 -0.1498 -0.8212
  698MOL0     C94139  -0.139   4.507   8.501  0.3301 -0.4777 -0.3003
  698MOL0    Cl94140  -0.090   4.421   8.636  0.6004  0.3043  0.1693
  698MOL0     C94141  -0.660   5.487   8.613  0.8138 -0.7687  0.1283
  698MOL0     C94142  -0.702   5.618   8.598 -0.5919  0.5362  0.3606
  698MOL0     O94143  -0.716   5.845   8.368  0.5422 -0.1957  0.6983
  698MOL0     C94144  -0.834   6.082   8.316 -0.9779  0.1137 -0.3464
  698MOL0     C94145  -0.904   6.203   8.286 -0.0341  0.5674  0.0087
  698MOL0     N94146  -1.191   6.863   8.198 -0.2886 -0.1308  0.4895
  698MOL0     N94147  -1.156   6.898   8.079  0.7522  0.4841 -1.0241
  698MOL0     C94148  -0.111   6.570   8.128  0.2247 -0.1953  0.3599
  698MOL0     C94149   0.002   6.521   8.190  0.9167  0.0070  0.0411
  698MOL0     C94150   0.397   6.429   8.349  0.2289 -0.0508 -0.9206
  698MOL0     C94151   0.436   6.511   8.455  0.0659 -1.1439 -0.5227
  698MOL0     C94152   0.570   6.496   8.496  0.3406  0.1151  0.0433
  698MOL0     C94153   0.651   6.396   8.447 -0.1646  0.6043 -0.8480
  698MOL0     O94154   0.772   6.372   8.508 -0.4330  0.1441 -0.3422
  698MOL0     C94155   0.864   6.270   8.463  0.5352 -0.0931  1.4201
  698MOL0     C94156   0.947   6.320   8.347  0.4546  0.3348  0.6534
  698MOL0     C94157   0.996   6.198   8.275 -0.1491  0.1477  0.1482
  698MOL0     C94158   1.126   6.243   8.189  0.4233  0.4972 -0.1459
  698MOL0     C94159   1.107   6.371   8.124  0.1822 -0.3416  0.9352
  698MOL0     C94160   1.083   6.479   8.070 -0.5973 -0.1364  0.8878
  698MOL0     C94161   0.615   6.327   8.335  0.4629  0.3747  0.4466
  698MOL0     C94162   0.488   6.343   8.284 -0.1193 -0.5375 -1.1146
  698MOL0     H94163   0.177   6.809   8.234  0.3732 -0.2276  1.0455
  698MOL0     H94164  -0.021   6.894   8.125  2.7334 -0.5130 -0.4697
  698MOL0     H94165  -0.117   6.811   7.858  1.2223 -1.8344  0.0972
  698MOL0     H94166  -0.173   6.636   7.856  0.6862 -0.0790 -0.4225
  698MOL0     H94167  -0.360   6.881   7.854  0.8386 -0.1391 -1.1658
  698MOL0     H94168  -0.325   6.784   7.710 -0.4476  1.4177 -0.8519
  698MOL0     H94169  -0.393   6.576   7.852 -0.1777 -0.8775 -0.5866
  698MOL0     H94170  -0.454   6.691   7.962  0.0819 -3.8903  0.4602
  698MOL0     H94171  -0.555   6.768   7.706  3.0695  0.0901 -0.9467
  698MOL0     H94172  -0.567   6.590   7.727 -0.1116  0.8102 -2.3382
  698MOL0     H94173  -0.685   6.636   7.954  1.0214  0.8512  0.0388
  698MOL0     H94174  -0.676   6.796   7.944  4.1805 -3.6365  2.2317
  698MOL0     H94175  -0.807   6.762   7.708 -4.0400  2.0490  2.2964
  698MOL0     H94176  -0.816   6.596   7.760  3.1697 -1.3671  1.3768
  698MOL0     H94177  -1.023   6.740   7.797  3.3462 -0.2745 -2.7878
  698MOL0     H94178  -0.970   6.652   7.946  2.5835  0.1338  1.6401
  698MOL0     H94179  -0.981   6.934   7.878 -3.1977 -1.4986 -0.0533
  698MOL0     H94180  -0.845   6.895   7.991  1.1321 -4.2296  0.7204
  698MOL0     H94181  -0.880   6.764   8.193  0.1685  1.3617  3.6954
  698MOL0     H94182  -0.989   6.797   8.445  0.8983  0.5752 -1.0986
  698MOL0     H94183  -1.173   6.801   8.441  1.3474 -0.0628  1.9482
  698MOL0     H94184  -1.098   6.599   8.538  1.5940 -4.4779 -0.0182
  698MOL0     H94185  -0.989   6.557   8.397 -2.5334 -1.5438 -1.4309
  698MOL0     H94186  -1.237   6.557   8.273 -0.8510  3.0070  0.4864
  698MOL0     H94187  -1.296   6.555   8.440 -1.0699 -3.7764 -1.1271
  698MOL0     H94188  -1.287   6.337   8.388 -1.4905  2.0097 -0.1209
  698MOL0     H94189  -1.135   6.357   8.479  1.5541 -2.6369 -2.1136
  698MOL0     H94190  -1.212   6.127   8.390  0.0481  1.1507  0.7130
  698MOL0     H94191  -1.073   5.914   8.610  0.9691  3.1641  0.2306
  698MOL0     H94192  -1.223   5.938   8.517  0.6450  0.7328  0.0720
  698MOL0     H94193  -1.122   5.806   8.465  0.2275  1.8548 -1.9996
  698MOL0     H94194  -0.982   5.547   8.411 -1.6340  0.6925  2.5630
  698MOL0     H94195  -0.862   5.335   8.393  2.2029  2.0642 -2.5097
  698MOL0     H94196  -0.473   5.311   8.484  2.0216 -1.4313 -1.6629
  698MOL0     H94197  -0.503   5.217   8.639  3.1063  0.5779 -1.3142
  698MOL0     H94198  -0.525   5.019   8.513 -3.5259 -0.4774 -3.0789
  698MOL0     H94199  -0.549   5.090   8.360  2.1568 -0.6456 -1.3250
  698MOL0     H94200  -0.275   5.157   8.503  0.9652  0.8128 -1.9573
  698MOL0     H94201  -0.317   5.179   8.344  1.2719 -0.7479 -1.9460
  698MOL0     H94202  -0.339   4.928   8.318  3.6767 -0.8882 -4.1727
  698MOL0     H94203  -0.184   4.998   8.352 -0.6297 -1.5977 -0.1605
  698MOL0     H94204  -0.384   4.845   8.536 -0.6600 -2.9151 -2.5398
  698MOL0     H94205  -0.237   4.929   8.589 -0.1048  0.0381 -0.0333
  698MOL0     H94206  -0.223   4.712   8.368  2.7458  1.9576 -1.1091
  698MOL0     H94207  -0.102   4.784   8.470 -0.5371 -2.3501  1.3820
  698MOL0     H94208  -0.315   4.594   8.581  0.6363 -1.0217 -0.3175
  698MOL0     H94209  -0.165   4.655   8.655  0.8836 -0.8513 -0.9282
  698MOL0     H94210  -0.049   4.534   8.445 -1.0691  0.8406 -2.0222
  698MOL0     H94211  -0.197   4.452   8.428 -1.2582  0.1633  0.4413
  698MOL0     H94212  -0.571   5.462   8.668  1.8838  0.7425 -0.8298
  698MOL0     H94213  -0.647   5.699   8.644  2.9426 -0.3111 -2.0125
  698MOL0     H94214  -0.728   6.074   8.295 -0.5891  2.3675  0.4690
  698MOL0     H94215  -0.849   6.282   8.236  0.9759  0.6795  1.2433
  698MOL0     H94216  -0.192   6.504   8.096 -0.0497  0.0734  0.4969
  698MOL0     H94217  -0.010   6.416   8.212 -4.3230  0.5407  1.0748
  698MOL0     H94218   0.377   6.586   8.506  1.0288  0.4958 -1.7093
  698MOL0     H94219   0.599   6.559   8.580 -1.0506  0.9839 -0.0987
  698MOL0     H94220   0.929   6.238   8.545 -1.4242 -2.5332  2.1536
  698MOL0     H94221   0.803   6.184   8.432  0.1865  1.1969 -1.9375
  698MOL0     H94222   1.017   6.395   8.385 -0.3458  0.2501  2.3648
  698MOL0     H94223   0.877   6.365   8.277  2.3649  3.5158  0.6089
  698MOL0     H94224   0.919   6.160   8.208  1.0195 -2.6588  0.2866
  698MOL0     H94225   1.021   6.112   8.337  1.2507  0.3751 -0.0581
  698MOL0     H94226   1.163   6.173   8.114  2.6273  1.8531 -0.4175
  698MOL0     H94227   1.210   6.239   8.260  0.9380 -0.1502 -0.7759
  698MOL0     H94228   1.052   6.564   8.014 -0.1179 -1.2204 -1.1147
  698MOL0     H94229   0.684   6.260   8.285  3.5969  3.6092  0.0376
  698MOL0     H94230   0.461   6.295   8.190 -0.8100 -0.1206 -1.1424
  699MOL0     O94231   8.928   3.718   5.208 -0.2460 -0.1508 -0.1183
  699MOL0     C94232   8.873   3.659   5.118 -0.8532 -0.5944 -0.6523
  699MOL0     O94233   8.846   3.533   5.117 -0.4597  0.4753  0.4626
  699MOL0     C94234   8.873   3.452   5.217 -0.1673 -0.4379 -0.0674
  699MOL0     C94235   9.000   3.456   5.290 -0.0728 -0.9033  0.6580
  699MOL0     C94236   9.032   3.360   5.381  0.2479 -0.1618 -0.4916
  699MOL0     C94237   8.937   3.250   5.406 -0.0916  0.4980  0.9621
  699MOL0     O94238   8.978   3.151   5.490  0.4174  0.3140  0.2151
  699MOL0     C94239   8.928   3.015   5.478  0.4079 -0.5459 -0.4006
  699MOL0     C94240   8.990   2.918   5.573  0.8488 -0.5827  0.4282
  699MOL0     C94241   8.886   2.807   5.613 -0.1337 -0.3176 -0.1584
  699MOL0     C94242   8.823   2.827   5.753 -0.9616 -0.7864 -0.0363
  699MOL0     C94243   8.736   2.709   5.795  0.1468 -0.6655 -0.1470
  699MOL0     C94244   8.816   2.582   5.824 -0.4584  0.1436  0.1114
  699MOL0     C94245   8.725   2.461   5.860 -0.0316  0.5970  0.5814
  699MOL0     C94246   8.787   2.324   5.813  0.0340  0.6886  0.6436
  699MOL0     N94247   8.910   2.286   5.884 -0.4395 -0.4911 -0.4874
  699MOL0     C94248   9.027   2.242   5.821 -0.0798 -0.9295 -0.1822
  699MOL0     C94249   9.095   2.176   5.920  0.3114 -1.0269  0.0183
  699MOL0     C94250   9.225   2.105   5.894  0.3351  0.5014 -0.7272
  699MOL0     C94251   9.195   1.975   5.817 -0.8573  0.2670  0.0953
  699MOL0     C94252   9.129   1.871   5.897 -0.9086  0.2898  0.0859
  699MOL0     C94253   9.131   1.741   5.826  0.1067  0.5487 -0.5790
  699MOL0     O94254   9.111   1.764   5.689  0.1551  0.7530  0.6541
  699MOL0     C94255   9.076   1.655   5.611  0.2841  0.4155 -0.2192
  699MOL0     C94256   9.113   1.521   5.631  0.7008  0.3355  0.4468
  699MOL0     C94257   9.084   1.423   5.531  0.7466  0.9669 -0.0081
  699MOL0     C94258   9.111   1.278   5.566  0.9717 -0.1296 -0.6134
  699MOL0     C94259   9.020   1.466   5.414  0.1023 -1.0591  0.2185
  699MOL0     C94260   8.991   1.375   5.302  0.0231  0.3309 -0.7091
  699MOL0     O94261   8.945   1.252   5.322  0.3357 -0.1045  0.8401
  699MOL0     C94262   8.909   1.171   5.218  0.4183 -0.7607  1.0680
  699MOL0     C94263   8.772   1.148   5.181  0.0078  0.1831  0.0542
  699MOL0     C94264   8.742   1.086   5.063  0.0559  1.0712  0.2537
  699MOL0     C94265   8.835   1.042   4.971  0.5481 -0.5917  0.5430
  699MOL0     O94266   8.785   0.990   4.858 -0.1670 -0.7745  0.4442
  699MOL0     C94267   8.886   0.927   4.772  1.2185  1.1266 -0.3655
  699MOL0     C94268   8.793   0.849   4.673 -0.1715 -1.5305  0.6229
  699MOL0     C94269   8.701   0.743   4.728  0.3813 -0.5770  0.7119
  699MOL0     C94270   8.590   0.692   4.638  1.6171  0.1959 -0.8493
  699MOL0     C94271   8.476   0.800   4.605 -0.4245  0.5604 -1.0164
  699MOL0     C94272   8.452   0.896   4.718  0.0351 -0.4185  0.1137
  699MOL0     C94273   8.323   0.969   4.725 -0.1019  0.0247 -0.3758
  699MOL0     C94274   8.191   0.894   4.768  0.6143  0.2091 -0.2673
  699MOL0    Cl94275   8.196   0.895   4.950 -0.8154 -0.4150 -0.3780
  699MOL0     C94276   8.972   1.046   5.011 -0.7408 -1.2218 -0.3066
  699MOL0     C94277   9.009   1.122   5.132  0.0001 -0.2727  1.1237
  699MOL0     O94278   9.015   1.427   5.197 -0.1131  0.4200  1.0966
  699MOL0     C94279   8.971   1.603   5.399 -0.0542 -0.0182  0.1565
  699MOL0     C94280   9.000   1.693   5.506 -0.4039  0.1746  0.5534
  699MOL0     N94281   9.029   2.184   6.039  0.3755 -0.1282 -0.1173
  699MOL0     N94282   8.918   2.247   6.016  0.2954 -0.5502  0.4951
  699MOL0     C94283   8.820   3.235   5.333 -0.1341  0.3611 -1.0277
  699MOL0     C94284   8.784   3.342   5.240  0.4107 -0.2822  0.1213
  699MOL0     C94285   8.846   3.746   4.999  0.3605  0.3475  0.0378
  699MOL0     C94286   8.905   3.874   4.980  0.3787  0.9322 -0.2778
  699MOL0     C94287   8.897   3.941   4.856 -0.5531  0.6695 -0.0923
  699MOL0     C94288   8.812   3.895   4.760  0.7632  0.4841 -0.2583
  699MOL0     O94289   8.824   3.956   4.641  0.1454 -0.0813  0.2298
  699MOL0     C94290   8.723   4.045   4.613  0.0037  0.0256 -0.0101
  699MOL0     C94291   8.589   3.977   4.590  0.6515  0.0637 -0.1506
  699MOL0     C94292   8.583   3.910   4.452 -0.2451 -0.5730  0.6434
  699MOL0     C94293   8.482   3.799   4.442  0.6013  0.7731  0.2973
  699MOL0     C94294   8.349   3.839   4.463  0.4706  0.0043 -0.0631
  699MOL0     C94295   8.231   3.856   4.478 -0.5398 -1.1640  1.2243
  699MOL0     C94296   8.747   3.771   4.771 -0.7946  0.3798 -0.3780
  699MOL0     C94297   8.774   3.692   4.889  0.3462 -0.5996 -0.4072
  699MOL0     H94298   9.074   3.525   5.251 -2.7928  2.6844  1.2921
  699MOL0     H94299   9.134   3.357   5.419  0.2665 -3.0445 -0.5656
  699MOL0     H94300   8.820   3.031   5.488  0.5141  0.8016 -1.2323
  699MOL0     H94301   8.942   2.983   5.375 -0.9925  4.1742 -2.3334
  699MOL0     H94302   9.081   2.878   5.527  0.7096  1.7671 -2.1090
  699MOL0     H94303   9.015   2.975   5.663 -1.0543 -2.9310  2.6379
  699MOL0     H94304   8.814   2.797   5.531  1.8043 -3.0060 -1.6813
  699MOL0     H94305   8.943   2.714   5.612  0.9573  0.3133  0.7105
  699MOL0     H94306   8.903   2.841   5.826 -1.3923  0.0750  0.2873
  699MOL0     H94307   8.771   2.923   5.752  0.7849  0.2042 -1.1745
  699MOL0     H94308   8.681   2.735   5.886  1.0710  3.3597 -0.5728
  699MOL0     H94309   8.663   2.695   5.715  0.9770 -1.1700 -0.8395
  699MOL0     H94310   8.861   2.551   5.729 -1.7351 -0.8018 -0.2100
  699MOL0     H94311   8.896   2.614   5.891  1.3083  0.5377 -2.0511
  699MOL0     H94312   8.704   2.451   5.967  0.3769 -1.6751  0.4992
  699MOL0     H94313   8.629   2.471   5.810 -2.2989  1.0523  4.5749
  699MOL0     H94314   8.814   2.335   5.708 -0.4356  3.7284  0.7648
  699MOL0     H94315   8.702   2.257   5.825 -1.2933  1.8084 -1.8344
  699MOL0     H94316   9.050   2.248   5.715 -1.4618 -1.0952 -0.5115
  699MOL0     H94317   9.297   2.169   5.844  2.1254  0.2084  1.3425
  699MOL0     H94318   9.267   2.072   5.990 -0.6088 -1.9852 -1.0727
  699MOL0     H94319   9.288   1.937   5.775  0.0690  0.6863  1.7067
  699MOL0     H94320   9.125   2.003   5.737 -0.3789 -0.8255 -0.7298
  699MOL0     H94321   9.026   1.906   5.910 -0.3695  3.2615 -2.4489
  699MOL0     H94322   9.188   1.864   5.989  0.3526  0.2254 -0.7035
  699MOL0     H94323   9.051   1.677   5.865 -1.8701  1.6110 -2.6135
  699MOL0     H94324   9.222   1.685   5.848  0.7356  1.8494  0.3276
  699MOL0     H94325   9.160   1.487   5.723  4.4849  0.2317 -1.2976
  699MOL0     H94326   9.217   1.258   5.588  0.3443  0.5813  3.9872
  699MOL0     H94327   9.043   1.257   5.648  0.2020 -0.7848 -1.3963
  699MOL0     H94328   9.093   1.206   5.485 -1.4045  0.2389 -0.4864
  699MOL0     H94329   8.693   1.183   5.248  2.0784 -0.0245  2.8134
  699MOL0     H94330   8.640   1.052   5.046  0.0510 -1.7057  4.1676
  699MOL0     H94331   8.948   1.003   4.723  0.0940  0.6849 -2.6403
  699MOL0     H94332   8.943   0.859   4.836 -0.7799  0.2898  0.6118
  699MOL0     H94333   8.737   0.927   4.620 -2.3400 -2.2679  1.7106
  699MOL0     H94334   8.857   0.807   4.595 -1.4686  1.3419 -2.2616
  699MOL0     H94335   8.649   0.783   4.816  1.9521 -0.7079  1.7469
  699MOL0     H94336   8.766   0.660   4.757 -0.8813 -2.4173 -1.4299
  699MOL0     H94337   8.622   0.646   4.544 -1.5912  0.2411 -2.0991
  699MOL0     H94338   8.532   0.618   4.694 -0.2848  0.0383 -2.8642
  699MOL0     H94339   8.391   0.733   4.588  0.4786 -0.4515 -1.7324
  699MOL0     H94340   8.491   0.852   4.510 -2.3433 -0.1848 -1.7822
  699MOL0     H94341   8.447   0.846   4.815  0.3639 -1.1665 -0.2497
  699MOL0     H94342   8.532   0.971   4.720 -0.4215  0.1213 -0.9040
  699MOL0     H94343   8.294   1.011   4.628  0.0639 -1.4925 -1.1156
  699MOL0     H94344   8.331   1.056   4.791 -0.3069 -1.0451  1.1231
  699MOL0     H94345   8.184   0.791   4.732 -3.0461 -0.1495  1.0737
  699MOL0     H94346   8.101   0.946   4.734 -2.1825 -4.2824 -0.5533
  699MOL0     H94347   9.055   1.010   4.950 -0.3021 -4.1454  1.7959
  699MOL0     H94348   9.111   1.154   5.148 -0.2017  1.0310 -0.0118
  699MOL0     H94349   8.918   1.638   5.311  0.9699 -2.3789 -1.4887
  699MOL0     H94350   8.973   1.798   5.495 -0.7028  0.3325  2.3531
  699MOL0     H94351   8.751   3.153   5.350  0.4622  0.2289  1.0253
  699MOL0     H94352   8.694   3.315   5.187  1.9983 -3.2208 -1.3408
  699MOL0     H94353   8.957   3.912   5.067  2.3122 -0.8554 -0.5579
  699MOL0     H94354   8.944   4.037   4.834 -2.7672  2.1420  1.1549
  699MOL0     H94355   8.713   4.112   4.699  0.1498  0.2728 -0.1871
  699MOL0     H94356   8.738   4.100   4.520 -0.5532 -0.0749 -0.1651
  699MOL0     H94357   8.512   4.056   4.596 -2.8769 -3.1357  0.7299
  699MOL0     H94358   8.565   3.914   4.676  3.5550 -0.9626 -0.0013
  699MOL0     H94359   8.682   3.870   4.428 -0.7791 -1.3013 -0.4480
  699MOL0     H94360   8.576   3.987   4.375  3.2735 -0.1721  0.5410
  699MOL0     H94361   8.502   3.714   4.508 -1.9171 -1.2236 -1.2819
  699MOL0     H94362   8.489   3.762   4.339 -4.0034 -0.9045  0.3383
  699MOL0     H94363   8.132   3.886   4.507  0.2315  0.8514  1.9867
  699MOL0     H94364   8.688   3.726   4.691 -0.9185  1.2856 -0.8120
  699MOL0     H94365   8.751   3.586   4.902  1.6436 -0.7308  1.2167
  700MOL0     O94366   3.949   8.330   7.618 -0.0192  0.2273 -0.0433
  700MOL0     C94367   4.024   8.357   7.525  0.4899 -0.4318 -0.0352
  700MOL0     O94368   3.988   8.336   7.393  0.4677 -0.1382  0.3182
  700MOL0     C94369   3.868   8.288   7.354  0.4896  0.6331  0.2735
  700MOL0     C94370   3.835   8.154   7.384 -1.0524 -0.1603 -0.5245
  700MOL0     C94371   3.726   8.094   7.329  0.6474  0.6068 -0.4651
  700MOL0     C94372   3.640   8.161   7.253  0.2677 -0.6805  0.1732
  700MOL0     O94373   3.529   8.098   7.194 -1.0445  0.0898 -0.1250
  700MOL0     C94374   3.453   7.994   7.261 -0.6316  0.2864  0.5567
  700MOL0     C94375   3.313   7.980   7.196  1.0786  0.3306 -0.0899
  700MOL0     C94376   3.238   7.862   7.248 -0.4081  0.6394 -1.2347
  700MOL0     C94377   3.135   7.806   7.149 -0.4448  0.0290 -0.0893
  700MOL0     C94378   2.982   7.790   7.182 -1.3079  0.4002  1.1409
  700MOL0     C94379   2.938   7.735   7.317 -0.2078  0.2657 -0.3809
  700MOL0     C94380   2.782   7.705   7.320 -0.3552 -0.6181 -0.3285
  700MOL0     C94381   2.682   7.824   7.356  0.1352  0.2286 -0.6406
  700MOL0     N94382   2.638   7.823   7.489  0.7489 -0.1291 -0.1280
  700MOL0     C94383   2.708   7.784   7.604  1.0831  0.2931  0.7765
  700MOL0     C94384   2.653   7.836   7.713  0.9934  0.5991 -0.1444
  700MOL0     C94385   2.705   7.813   7.859  0.0903  0.8286  0.7897
  700MOL0     C94386   2.604   7.740   7.941  0.7029  0.1247 -0.2195
  700MOL0     C94387   2.580   7.592   7.897 -0.1518 -0.4825  0.9632
  700MOL0     C94388   2.479   7.526   7.997  0.2386 -0.4112 -0.7592
  700MOL0     O94389   2.448   7.390   7.976 -0.4773  0.4519  0.3410
  700MOL0     C94390   2.414   7.319   8.089 -0.2334  0.5274 -0.1285
  700MOL0     C94391   2.293   7.340   8.144 -0.5452  0.0631  0.1886
  700MOL0     C94392   2.252   7.261   8.252 -1.0557  0.2983 -0.4166
  700MOL0     C94393   2.111   7.293   8.300 -1.0124 -0.1881 -0.3464
  700MOL0     C94394   2.333   7.157   8.308 -0.3331 -0.7014 -0.5395
  700MOL0     C94395   2.308   7.071   8.422 -0.4098  0.6586 -0.2981
  700MOL0     O94396   2.391   6.967   8.441  0.5349  0.2662 -0.1843
  700MOL0     C94397   2.383   6.876   8.548  0.3511 -0.5940  0.5756
  700MOL0     C94398   2.260   6.830   8.597 -0.0781  0.8115 -0.0733
  700MOL0     C94399   2.270   6.725   8.686  0.2621 -0.0411  0.5176
  700MOL0     C94400   2.383   6.667   8.740  0.5911 -0.1537  0.0868
  700MOL0     O94401   2.372   6.554   8.813  0.2790 -0.1732 -0.3691
  700MOL0     C94402   2.470   6.536   8.914 -0.7581 -0.2103  1.5064
  700MOL0     C94403   2.577   6.442   8.866 -0.1149  1.5479  0.2072
  700MOL0     C94404   2.531   6.294   8.875  0.4520 -0.2933  1.0061
  700MOL0     C94405   2.643   6.191   8.906 -0.8751  0.7292  0.8439
  700MOL0     C94406   2.591   6.055   8.885  1.1670 -0.9691  0.4409
  700MOL0     C94407   2.705   5.955   8.893  0.2623  0.3689 -0.2167
  700MOL0     C94408   2.652   5.820   8.956 -0.5058  0.0631 -0.1008
  700MOL0     C94409   2.739   5.699   8.927  1.3145 -0.2325 -0.9707
  700MOL0    Cl94410   2.754   5.655   8.758  0.3913 -0.6320  0.2479
  700MOL0     C94411   2.504   6.727   8.695  0.0991  0.5450 -0.4662
  700MOL0     C94412   2.503   6.826   8.594  0.2031 -0.0735 -0.5191
  700MOL0     O94413   2.219   7.105   8.498  0.3165 -0.4093 -0.2617
  700MOL0     C94414   2.461   7.148   8.252  0.3596  0.9821 -0.1185
  700MOL0     C94415   2.500   7.226   8.144 -0.3088  0.8385  0.3080
  700MOL0     N94416   2.537   7.901   7.671  1.1701  0.0495  1.0926
  700MOL0     N94417   2.526   7.894   7.538 -0.3287 -0.1542 -0.5066
  700MOL0     C94418   3.669   8.294   7.217  0.3282  0.0491  0.0019
  700MOL0     C94419   3.788   8.359   7.262 -0.1040 -0.3716 -0.0561
  700MOL0     C94420   4.167   8.378   7.552  0.2521  0.7056  0.1338
  700MOL0     C94421   4.204   8.409   7.687 -0.3070  0.8422 -0.7318
  700MOL0     C94422   4.342   8.419   7.721  0.3675  0.3609  0.3829
  700MOL0     C94423   4.451   8.405   7.625  0.6413 -0.6088 -0.0102
  700MOL0     O94424   4.586   8.412   7.638  0.0625  0.4038 -0.3590
  700MOL0     C94425   4.632   8.399   7.774  0.5389 -0.5139  0.0988
  700MOL0     C94426   4.781   8.416   7.791 -0.4865 -0.1044  0.1007
  700MOL0     C94427   4.870   8.355   7.680  1.2285 -0.1683 -0.3259
  700MOL0     C94428   4.851   8.202   7.676  0.4176  0.5524  0.7505
  700MOL0     C94429   4.897   8.141   7.803  0.9526 -1.1095  0.1242
  700MOL0     C94430   4.933   8.092   7.907 -0.1026 -0.2205  0.3158
  700MOL0     C94431   4.410   8.380   7.492 -0.2322 -0.3403 -0.0902
  700MOL0     C94432   4.270   8.358   7.455 -0.3261  0.0983 -0.9840
  700MOL0     H94433   3.897   8.103   7.457 -0.9729  0.2871 -0.2791
  700MOL0     H94434   3.702   7.989   7.346 -2.1828  1.0072 -1.5373
  700MOL0     H94435   3.507   7.900   7.244 -0.0984  0.9469 -1.8168
  700MOL0     H94436   3.439   8.016   7.367 -2.3145  0.1891  0.3812
  700MOL0     H94437   3.248   8.065   7.215  1.6245  1.4405 -2.6969
  700MOL0     H94438   3.319   7.959   7.089 -1.0554  0.4281 -0.2549
  700MOL0     H94439   3.302   7.780   7.284 -0.4026  1.8617  1.8329
  700MOL0     H94440   3.185   7.885   7.340 -1.1524 -0.1766 -1.4459
  700MOL0     H94441   3.141   7.839   7.045 -2.4374  1.5894  0.2353
  700MOL0     H94442   3.162   7.701   7.135 -0.8457 -0.3284  1.5820
  700MOL0     H94443   2.938   7.888   7.163  2.9439  2.2183 -0.4505
  700MOL0     H94444   2.942   7.719   7.110  3.2037 -0.7374 -0.5415
  700MOL0     H94445   2.992   7.645   7.347 -2.4860 -0.9042  0.4235
  700MOL0     H94446   2.951   7.815   7.390  1.2192  0.3320 -0.6678
  700MOL0     H94447   2.747   7.658   7.227 -1.6423 -0.2136 -0.0716
  700MOL0     H94448   2.776   7.621   7.390 -0.3963 -2.3662 -2.3085
  700MOL0     H94449   2.590   7.805   7.300  0.6904 -0.0501 -1.4791
  700MOL0     H94450   2.720   7.920   7.319 -1.4126  1.8790  1.7752
  700MOL0     H94451   2.803   7.730   7.606  1.1667  0.2310 -1.5158
  700MOL0     H94452   2.784   7.741   7.836 -0.1371  1.0206 -0.7419
  700MOL0     H94453   2.744   7.912   7.882  0.4399  1.3186 -1.6192
  700MOL0     H94454   2.508   7.792   7.950 -0.6725 -2.3170  0.0449
  700MOL0     H94455   2.651   7.745   8.040  1.1969 -1.8914 -0.3123
  700MOL0     H94456   2.676   7.541   7.889 -0.3015 -0.6335  0.0256
  700MOL0     H94457   2.521   7.583   7.805 -6.0919  4.4129  3.5470
  700MOL0     H94458   2.381   7.574   7.995 -0.9022 -1.9175  4.3534
  700MOL0     H94459   2.520   7.530   8.098 -0.6288  1.9237 -0.4531
  700MOL0     H94460   2.241   7.428   8.107 -0.8084 -1.0794 -2.3820
  700MOL0     H94461   2.107   7.321   8.406 -1.1177 -0.5183 -0.2608
  700MOL0     H94462   2.065   7.377   8.247  2.8486  1.5032 -1.3781
  700MOL0     H94463   2.042   7.209   8.285 -1.9105  0.4349  0.1501
  700MOL0     H94464   2.168   6.873   8.560 -1.6070 -0.1434  2.3735
  700MOL0     H94465   2.183   6.671   8.722  0.1574  1.8957  3.4554
  700MOL0     H94466   2.519   6.629   8.943  2.2861 -0.5493 -1.8034
  700MOL0     H94467   2.419   6.505   9.005 -0.5124 -0.1351  1.6680
  700MOL0     H94468   2.605   6.473   8.764  2.9490  1.9477  1.0747
  700MOL0     H94469   2.670   6.457   8.922 -0.8585 -0.9464  2.2643
  700MOL0     H94470   2.490   6.262   8.779  1.7067  0.8526  0.0399
  700MOL0     H94471   2.457   6.284   8.954 -0.6772 -0.1967 -0.0137
  700MOL0     H94472   2.734   6.218   8.851  0.6199 -2.4872  1.5141
  700MOL0     H94473   2.675   6.207   9.009  0.9044  2.4709  0.0896
  700MOL0     H94474   2.530   6.036   8.796 -0.9299 -0.2718  1.6486
  700MOL0     H94475   2.528   6.038   8.973 -0.3414 -0.4511 -0.4938
  700MOL0     H94476   2.744   5.945   8.792 -1.6669 -1.3267 -0.8566
  700MOL0     H94477   2.789   6.000   8.948  1.5423  0.2775 -2.0180
  700MOL0     H94478   2.554   5.800   8.910 -0.1569 -3.6215  0.4276
  700MOL0     H94479   2.634   5.841   9.062  0.4008 -1.7592  0.4478
  700MOL0     H94480   2.699   5.605   8.966 -0.7484  0.5471 -1.0606
  700MOL0     H94481   2.839   5.716   8.968  0.9960  0.8429 -0.6104
  700MOL0     H94482   2.595   6.694   8.745 -2.1608 -2.5652  1.9458
  700MOL0     H94483   2.592   6.872   8.551  0.0119  1.0583  0.2609
  700MOL0     H94484   2.535   7.079   8.292  1.1448  2.0323  0.2744
  700MOL0     H94485   2.599   7.217   8.100 -1.4797  2.3408 -2.9069
  700MOL0     H94486   3.585   8.347   7.174  0.2766  1.7406  2.0505
  700MOL0     H94487   3.818   8.462   7.243  3.2922 -1.3314 -0.4955
  700MOL0     H94488   4.124   8.411   7.760  0.0025 -1.4661 -0.2804
  700MOL0     H94489   4.369   8.435   7.825  0.8932 -0.5432  0.3962
  700MOL0     H94490   4.589   8.463   7.852 -3.1563 -2.6046  0.0051
  700MOL0     H94491   4.599   8.300   7.806 -1.0424 -1.0260 -2.7602
  700MOL0     H94492   4.813   8.378   7.889  1.2152 -1.0829 -0.7946
  700MOL0     H94493   4.803   8.523   7.796 -0.7333 -0.0422 -0.1533
  700MOL0     H94494   4.973   8.384   7.701  0.7264  0.9550  0.7257
  700MOL0     H94495   4.850   8.402   7.583 -2.8487 -1.1413 -0.1310
  700MOL0     H94496   4.917   8.158   7.601  1.8002  1.4903  1.3682
  700MOL0     H94497   4.750   8.178   7.643  0.3840  2.1669 -0.4279
  700MOL0     H94498   4.980   8.039   7.987 -0.7730  0.2633  1.0504
  700MOL0     H94499   4.488   8.375   7.417 -0.0634 -1.7832  0.1540
  700MOL0     H94500   4.243   8.343   7.351  0.4842 -2.7745 -0.8617
  701MOL0     O94501   0.739  10.946   7.989 -0.2347  1.1670  0.0144
  701MOL0     C94502   0.668  10.938   8.090 -0.4623  0.5758  0.7858
  701MOL0     O94503   0.549  10.995   8.106  0.1918 -0.1720 -0.2090
  701MOL0     C94504   0.514  11.077   8.011  0.0649  0.0398  0.5876
  701MOL0     C94505   0.418  11.045   7.910 -0.5863 -0.8705 -0.1033
  701MOL0     C94506   0.368  11.141   7.811 -0.2009  1.4771 -0.0963
  701MOL0     C94507   0.402  11.273   7.825 -0.8023 -0.9882 -0.4067
  701MOL0     O94508   0.343  11.374   7.757  0.3234 -0.1703  0.3759
  701MOL0     C94509   0.321  11.503   7.822 -0.4821 -0.4809 -0.3590
  701MOL0     C94510   0.197  11.565   7.762  0.5849 -0.7507 -0.3326
  701MOL0     C94511   0.122  11.663   7.862  0.1253 -0.3114 -0.4291
  701MOL0     C94512   0.201  11.785   7.922  0.9690  0.1456 -0.7057
  701MOL0     C94513   0.157  11.849   8.053  0.1828 -0.9851 -1.5323
  701MOL0     C94514   0.024  11.920   8.036  1.0710 -0.3649 -0.4237
  701MOL0     C94515  -0.014  11.970   8.185 -0.5007  0.0031  0.1530
  701MOL0     C94516  -0.052  11.855   8.277 -0.4259  0.0912  0.1666
  701MOL0     N94517  -0.166  11.781   8.219 -0.2945  0.4385  0.0237
  701MOL0     C94518  -0.162  11.659   8.148  0.7526 -0.2018 -0.0423
  701MOL0     C94519  -0.287  11.624   8.119  0.0148 -0.3733  0.2709
  701MOL0     C94520  -0.326  11.502   8.032 -0.2881 -0.5109 -1.2559
  701MOL0     C94521  -0.286  11.528   7.887 -0.7707 -0.5229 -0.5572
  701MOL0     C94522  -0.405  11.573   7.803 -0.2236  0.0260 -0.2938
  701MOL0     C94523  -0.359  11.661   7.682  0.8504 -1.1595 -0.3323
  701MOL0     O94524  -0.263  11.591   7.596  0.1049  0.3016  0.8661
  701MOL0     C94525  -0.201  11.659   7.494 -0.2976  0.0935 -0.0230
  701MOL0     C94526  -0.067  11.631   7.480  0.5127  0.5005  0.0142
  701MOL0     C94527   0.011  11.675   7.370  0.9497 -0.5026  0.3500
  701MOL0     C94528   0.147  11.624   7.356  0.0402  0.5301  0.0488
  701MOL0     C94529  -0.048  11.769   7.276  0.6777  0.3989 -0.6113
  701MOL0     C94530   0.022  11.839   7.156  0.3694 -0.5562  0.4839
  701MOL0     O94531  -0.009  11.975   7.132  0.9672 -0.1243  0.0007
  701MOL0     C94532   0.066  12.036   7.037 -0.7910  0.2216  0.2987
  701MOL0     C94533   0.055  12.001   6.898 -0.2816  0.7542  0.3449
  701MOL0     C94534   0.126  12.055   6.795 -0.0345  0.8601  0.0276
  701MOL0     C94535   0.234  12.138   6.829  0.5698 -0.3387  0.3150
  701MOL0     O94536   0.327  12.182   6.740  0.4637  0.2862 -0.7822
  701MOL0     C94537   0.306  12.166   6.602 -0.0238  0.2139 -0.6767
  701MOL0     C94538   0.436  12.191   6.524 -1.0869 -0.3145  0.3937
  701MOL0     C94539   0.473  12.341   6.503  0.3634  0.9056 -0.4797
  701MOL0     C94540   0.408  12.393   6.376  0.4213  0.7369  0.0246
  701MOL0     C94541   0.428  12.544   6.361 -0.9050  0.0040  0.3141
  701MOL0     C94542   0.574  12.614   6.370  0.2287 -0.1117 -0.9159
  701MOL0     C94543   0.662  12.602   6.246 -0.3343 -0.3593 -1.1026
  701MOL0     C94544   0.644  12.722   6.153  0.4211  0.7709 -0.7602
  701MOL0    Cl94545   0.692  12.876   6.246  0.0996 -0.3160  0.0085
  701MOL0     C94546   0.252  12.173   6.964 -0.3306 -0.4649  0.2614
  701MOL0     C94547   0.167  12.121   7.065 -0.3747 -0.0679  0.0089
  701MOL0     O94548   0.096  11.768   7.084  0.4267 -0.0840 -0.7444
  701MOL0     C94549  -0.190  11.790   7.291  0.3939 -0.9567 -0.4627
  701MOL0     C94550  -0.262  11.748   7.409  0.7654 -0.1659 -0.2775
  701MOL0     N94551  -0.364  11.729   8.158 -0.2348  0.6189  0.0927
  701MOL0     N94552  -0.294  11.823   8.211  0.5521  0.0737 -0.6238
  701MOL0     C94553   0.489  11.300   7.927 -1.1551  0.0933 -0.1621
  701MOL0     C94554   0.545  11.207   8.016 -0.0019 -0.5547 -0.4513
  701MOL0     C94555   0.718  10.843   8.193  0.2444  0.1807  0.5589
  701MOL0     C94556   0.799  10.731   8.163  1.0115  0.1426 -0.3620
  701MOL0     C94557   0.838  10.646   8.266  0.6358 -0.1592  0.1648
  701MOL0     C94558   0.797  10.671   8.391 -0.0552  1.1371 -0.5367
  701MOL0     O94559   0.856  10.597   8.491 -0.1018  0.0959 -0.0241
  701MOL0     C94560   0.813  10.607   8.629 -0.0604 -0.5528  0.0753
  701MOL0     C94561   0.893  10.489   8.698  0.2896 -0.4482  0.3738
  701MOL0     C94562   1.038  10.527   8.739  0.2467 -0.1705  0.6522
  701MOL0     C94563   1.099  10.448   8.848  0.7031 -0.0924 -0.1313
  701MOL0     C94564   1.023  10.440   8.971 -0.4475  0.0527  0.1022
  701MOL0     C94565   0.958  10.442   9.070  0.0288 -1.3537  0.4054
  701MOL0     C94566   0.704  10.766   8.418 -0.4436  0.3989  0.0791
  701MOL0     C94567   0.660  10.853   8.319  0.4534 -0.4308  0.2802
  701MOL0     H94568   0.372  10.947   7.922  2.5094 -2.5438 -0.7363
  701MOL0     H94569   0.290  11.117   7.741  3.0663  1.0207 -3.9476
  701MOL0     H94570   0.295  11.464   7.921  0.0735 -0.4264 -0.1887
  701MOL0     H94571   0.409  11.567   7.830 -0.8246 -0.0397 -0.0347
  701MOL0     H94572   0.217  11.614   7.666 -1.9681 -1.8395 -1.5265
  701MOL0     H94573   0.127  11.483   7.742 -1.0233 -0.0492  1.9840
  701MOL0     H94574   0.039  11.708   7.806  2.5222  2.7906 -1.7804
  701MOL0     H94575   0.077  11.611   7.948  2.1324  0.7173  1.3388
  701MOL0     H94576   0.307  11.758   7.934  1.0287 -0.1105 -1.6786
  701MOL0     H94577   0.192  11.863   7.845  0.5313 -0.0730 -0.8829
  701MOL0     H94578   0.155  11.771   8.130 -1.1361 -0.2608 -0.8019
  701MOL0     H94579   0.230  11.923   8.086 -2.1677  1.3817 -1.2769
  701MOL0     H94580   0.036  12.000   7.963  1.9519  3.0667  3.1489
  701MOL0     H94581  -0.054  11.847   8.011 -0.1557 -0.8312  3.9244
  701MOL0     H94582   0.064  12.024   8.240 -0.9539  0.4462  0.3673
  701MOL0     H94583  -0.088  12.048   8.167 -0.3135 -0.1995 -1.7334
  701MOL0     H94584  -0.083  11.898   8.372  1.1243 -1.5284  1.4881
  701MOL0     H94585   0.039  11.795   8.289 -1.2175 -1.5823 -1.6987
  701MOL0     H94586  -0.077  11.593   8.133  0.9014 -0.7739  2.8242
  701MOL0     H94587  -0.275  11.416   8.075  0.1353 -0.5813 -1.8853
  701MOL0     H94588  -0.432  11.476   8.047  0.4704 -1.6572  4.1810
  701MOL0     H94589  -0.245  11.437   7.844 -1.7154 -1.5928  0.7362
  701MOL0     H94590  -0.218  11.614   7.889 -0.5066 -0.7331 -0.4069
  701MOL0     H94591  -0.466  11.624   7.878 -0.7175  0.1814 -0.7923
  701MOL0     H94592  -0.455  11.485   7.762 -0.9257  0.4436 -0.3506
  701MOL0     H94593  -0.305  11.746   7.726  0.9181 -1.1143 -0.5028
  701MOL0     H94594  -0.440  11.701   7.621  0.0100 -2.8189 -0.3806
  701MOL0     H94595  -0.029  11.565   7.557  0.5833  0.2393 -0.2413
  701MOL0     H94596   0.191  11.611   7.256  3.4241  1.5669  1.2570
  701MOL0     H94597   0.214  11.696   7.403  0.9674  1.0567 -1.9360
  701MOL0     H94598   0.164  11.527   7.403 -2.2816  0.7950  1.5597
  701MOL0     H94599  -0.021  11.927   6.871  0.8786 -0.9468  1.5127
  701MOL0     H94600   0.099  12.019   6.696  0.7336  0.5972 -0.0906
  701MOL0     H94601   0.279  12.064   6.573  1.3021 -0.2012 -0.5300
  701MOL0     H94602   0.234  12.241   6.570  1.9196  3.2403  1.5244
  701MOL0     H94603   0.513  12.145   6.585 -1.2600 -0.5364  0.4475
  701MOL0     H94604   0.448  12.139   6.428  0.4928 -0.3558  0.5887
  701MOL0     H94605   0.582  12.343   6.490  0.0600  1.7263 -4.0711
  701MOL0     H94606   0.438  12.393   6.592 -1.6212 -0.5841 -0.3246
  701MOL0     H94607   0.449  12.338   6.291 -1.7201 -1.0707  0.0927
  701MOL0     H94608   0.301  12.371   6.381  0.3648  0.9083 -0.4020
  701MOL0     H94609   0.363  12.596   6.432 -0.1992  1.7113 -0.2385
  701MOL0     H94610   0.393  12.573   6.262  0.2439 -0.4879 -0.2609
  701MOL0     H94611   0.568  12.721   6.394 -2.5016 -0.0085 -1.7785
  701MOL0     H94612   0.620  12.560   6.453 -0.1189 -2.0303 -1.9215
  701MOL0     H94613   0.628  12.513   6.192 -1.7091 -0.9533  0.6488
  701MOL0     H94614   0.769  12.603   6.267 -0.1177  0.2885 -2.1767
  701MOL0     H94615   0.542  12.731   6.115 -1.3829 -2.5168  2.6812
  701MOL0     H94616   0.715  12.715   6.069  1.8272  2.0502  0.2630
  701MOL0     H94617   0.342  12.226   6.993  0.2561 -0.9431 -0.6538
  701MOL0     H94618   0.174  12.167   7.163  0.0783  2.3332 -1.0728
  701MOL0     H94619  -0.246  11.852   7.222 -0.5221 -0.1547  0.9578
  701MOL0     H94620  -0.364  11.782   7.428  0.1095 -2.3750  0.4189
  701MOL0     H94621   0.533  11.394   7.958  4.4085 -1.9082 -0.7528
  701MOL0     H94622   0.612  11.238   8.096  3.1842 -2.6393 -2.0974
  701MOL0     H94623   0.843  10.715   8.065  2.3042  2.1783 -0.1586
  701MOL0     H94624   0.901  10.558   8.265 -0.8548 -1.2565  0.1254
  701MOL0     H94625   0.836  10.709   8.659 -3.1941  0.1605  0.4399
  701MOL0     H94626   0.705  10.596   8.644 -0.0481 -1.5417 -0.4346
  701MOL0     H94627   0.888  10.409   8.623  0.9559  0.8934 -1.1835
  701MOL0     H94628   0.833  10.467   8.787 -0.9549 -2.0564 -0.7994
  701MOL0     H94629   1.046  10.633   8.762  1.4388 -0.4798  1.8060
  701MOL0     H94630   1.100  10.503   8.652  0.2690  1.8546  0.0709
  701MOL0     H94631   1.198  10.493   8.865  0.2011  1.6648 -1.5672
  701MOL0     H94632   1.107  10.347   8.808 -5.7707 -0.6913 -0.9870
  701MOL0     H94633   0.907  10.439   9.164  4.4068 -2.6147  3.0387
  701MOL0     H94634   0.681  10.805   8.517 -1.5358 -0.1436  0.0545
  701MOL0     H94635   0.585  10.926   8.351 -0.8109 -0.2016 -2.8299
  702MOL0     O94636   0.666   9.432   6.329  0.2965 -0.2708  0.6752
  702MOL0     C94637   0.766   9.460   6.390 -0.3122 -0.6512  0.2389
  702MOL0     O94638   0.795   9.427   6.519  0.1559 -0.0175 -0.2747
  702MOL0     C94639   0.720   9.323   6.580 -0.8212 -1.8141 -0.7118
  702MOL0     C94640   0.708   9.199   6.524 -0.2592  0.7655 -0.2892
  702MOL0     C94641   0.641   9.100   6.593 -0.3741 -0.1454  0.4513
  702MOL0     C94642   0.574   9.119   6.718  0.0694 -0.4625 -0.1359
  702MOL0     O94643   0.516   9.015   6.790  0.5928  0.1048  0.1319
  702MOL0     C94644   0.398   9.053   6.867  1.0721  0.2171 -0.1089
  702MOL0     C94645   0.314   8.919   6.900  0.1104  0.1919  0.5226
  702MOL0     C94646   0.193   8.946   7.001 -0.4599  0.1839  0.1088
  702MOL0     C94647   0.095   9.010   6.909 -0.5364 -0.2068 -0.4889
  702MOL0     C94648  -0.018   9.054   6.997  0.7476 -0.2045  0.2205
  702MOL0     C94649  -0.080   8.942   7.080  0.7211 -1.0378 -0.4003
  702MOL0     C94650  -0.157   8.844   6.978 -0.4146 -0.0919  0.1395
  702MOL0     C94651  -0.270   8.907   6.898  0.4503 -0.2157  0.2213
  702MOL0     N94652  -0.354   8.808   6.837 -0.3250 -0.0690  0.8664
  702MOL0     C94653  -0.316   8.743   6.719  0.5023 -0.8677 -0.6942
  702MOL0     C94654  -0.419   8.675   6.678 -0.6819 -0.6833 -0.5076
  702MOL0     C94655  -0.426   8.603   6.551  0.8662  0.0043  0.0691
  702MOL0     C94656  -0.384   8.455   6.574  0.2394  0.5144  0.0451
  702MOL0     C94657  -0.343   8.393   6.435  0.3851  0.2091  0.6332
  702MOL0     C94658  -0.357   8.243   6.425 -0.1427 -0.2571 -0.1953
  702MOL0     O94659  -0.282   8.175   6.523  0.4486 -0.0755 -0.0152
  702MOL0     C94660  -0.147   8.152   6.510  0.5442 -0.5340  0.3827
  702MOL0     C94661  -0.077   8.093   6.612 -1.1727  1.2704 -0.5589
  702MOL0     C94662   0.062   8.078   6.607  0.5830  0.2923  0.0108
  702MOL0     C94663   0.137   8.015   6.723 -0.0722  0.2921  0.8994
  702MOL0     C94664   0.133   8.123   6.497 -0.6797  0.4933  0.9540
  702MOL0     C94665   0.288   8.119   6.480  0.2069  0.1591 -0.3698
  702MOL0     O94666   0.336   8.162   6.359  1.1411  0.1545  0.2061
  702MOL0     C94667   0.464   8.206   6.356  0.4569 -0.3039 -0.7513
  702MOL0     C94668   0.508   8.335   6.387 -0.0071 -0.6785 -0.6137
  702MOL0     C94669   0.641   8.381   6.388  0.1525 -1.3369 -0.0403
  702MOL0     C94670   0.739   8.285   6.369 -0.2702  0.1484  1.4191
  702MOL0     O94671   0.875   8.311   6.367  0.2526  0.2529 -0.0843
  702MOL0     C94672   0.932   8.333   6.498  0.0880  1.1345  0.1454
  702MOL0     C94673   1.063   8.415   6.475 -0.2059 -0.0318 -0.8419
  702MOL0     C94674   1.124   8.413   6.333 -0.3401 -0.1957  0.1069
  702MOL0     C94675   1.259   8.496   6.332  0.0671 -0.1528 -0.5675
  702MOL0     C94676   1.233   8.644   6.371  0.2955  1.4816 -0.3841
  702MOL0     C94677   1.356   8.740   6.340 -0.7342 -0.6299 -0.4280
  702MOL0     C94678   1.491   8.707   6.412 -0.4913  1.1464 -0.2357
  702MOL0     C94679   1.483   8.723   6.562 -0.9548 -0.1283 -0.5569
  702MOL0    Cl94680   1.424   8.886   6.605  0.2485 -0.5659  0.0839
  702MOL0     C94681   0.699   8.159   6.335 -0.0238 -1.1695 -0.3459
  702MOL0     C94682   0.561   8.119   6.321 -0.8344 -0.0542  0.2806
  702MOL0     O94683   0.362   8.089   6.574 -0.5826 -0.8494 -0.0541
  702MOL0     C94684   0.062   8.182   6.389  0.2196  0.4629 -0.2285
  702MOL0     C94685  -0.074   8.206   6.394  0.1433  0.2324  0.7150
  702MOL0     N94686  -0.521   8.703   6.757  0.3603  0.5628  0.2667
  702MOL0     N94687  -0.477   8.767   6.854 -0.2629 -0.0492 -0.5033
  702MOL0     C94688   0.587   9.254   6.774 -0.0433 -0.1017 -1.0777
  702MOL0     C94689   0.656   9.352   6.695  0.5913 -0.1902  0.9019
  702MOL0     C94690   0.882   9.540   6.326  0.6752  0.1808  0.5237
  702MOL0     C94691   1.009   9.549   6.384  0.1911 -0.0992 -0.6937
  702MOL0     C94692   1.114   9.609   6.316 -0.3028  0.6447  0.3893
  702MOL0     C94693   1.096   9.631   6.179 -0.9819 -0.5720  0.2125
  702MOL0     O94694   1.225   9.652   6.125 -0.3547 -0.2496  0.4263
  702MOL0     C94695   1.234   9.682   5.982  0.4073 -0.1132  0.3577
  702MOL0     C94696   1.374   9.736   5.960  1.8226 -0.1793  0.3142
  702MOL0     C94697   1.407   9.742   5.810 -0.6245  0.6150  1.0751
  702MOL0     C94698   1.556   9.701   5.792 -1.0140 -0.5496 -0.9376
  702MOL0     C94699   1.617   9.723   5.661  0.2218  0.1347  0.6883
  702MOL0     C94700   1.661   9.746   5.547  0.4235 -0.5624 -0.5002
  702MOL0     C94701   0.968   9.640   6.127 -0.1863  0.0762  0.0485
  702MOL0     C94702   0.864   9.579   6.196  0.7449  0.8069 -0.4385
  702MOL0     H94703   0.752   9.179   6.427  0.1183  0.7135 -0.1089
  702MOL0     H94704   0.633   9.000   6.552  2.2864  0.5137 -2.0168
  702MOL0     H94705   0.415   9.100   6.965 -1.6711 -1.2239  1.1943
  702MOL0     H94706   0.345   9.127   6.807  1.6820  0.9228  0.2021
  702MOL0     H94707   0.285   8.863   6.811 -3.2292 -2.1939  2.8679
  702MOL0     H94708   0.385   8.855   6.953  1.6891  0.4009 -1.2232
  702MOL0     H94709   0.150   8.847   7.018 -2.0025  0.7167 -0.5339
  702MOL0     H94710   0.222   9.002   7.090  1.7974 -1.8734  0.7850
  702MOL0     H94711   0.132   9.097   6.854 -0.5909 -0.5528 -1.0839
  702MOL0     H94712   0.057   8.941   6.832 -0.5634 -0.5009 -0.2148
  702MOL0     H94713   0.034   9.128   7.059 -2.0752  2.4106 -0.2820
  702MOL0     H94714  -0.091   9.114   6.942 -0.9640 -2.5977 -0.2684
  702MOL0     H94715  -0.013   8.894   7.153  0.5658  0.7916  1.0099
  702MOL0     H94716  -0.149   8.992   7.149  0.8882  2.9285 -2.8199
  702MOL0     H94717  -0.087   8.790   6.914  0.3635 -0.0307  0.9133
  702MOL0     H94718  -0.220   8.776   7.036 -0.6505 -0.9791 -1.1144
  702MOL0     H94719  -0.240   8.979   6.820 -0.6611  0.3208  0.2579
  702MOL0     H94720  -0.345   8.958   6.959 -2.8798 -0.1638 -3.5214
  702MOL0     H94721  -0.225   8.769   6.666  0.1130  0.6650 -0.6505
  702MOL0     H94722  -0.521   8.607   6.498  0.9331 -0.0457 -0.0580
  702MOL0     H94723  -0.349   8.646   6.485  3.5842 -3.6405  0.5036
  702MOL0     H94724  -0.473   8.405   6.613 -1.2924  1.1690 -2.4012
  702MOL0     H94725  -0.298   8.447   6.642  1.4447 -2.1505 -1.6132
  702MOL0     H94726  -0.245   8.431   6.403 -0.5913  0.5827 -2.2213
  702MOL0     H94727  -0.410   8.427   6.355 -0.2314  0.7967  1.3930
  702MOL0     H94728  -0.338   8.202   6.326 -1.1854  1.2845 -1.0715
  702MOL0     H94729  -0.459   8.210   6.448 -0.4521 -0.0010 -1.1568
  702MOL0     H94730  -0.132   8.058   6.699 -1.9195  1.4252 -0.9660
  702MOL0     H94731   0.210   8.087   6.762  2.0095 -0.3481 -1.5780
  702MOL0     H94732   0.068   7.973   6.797 -1.0142 -0.2603 -0.2707
  702MOL0     H94733   0.198   7.930   6.692  2.1765  2.0065  0.3611
  702MOL0     H94734   0.424   8.396   6.416  0.3287 -0.0158 -1.0146
  702MOL0     H94735   0.667   8.482   6.419  1.4498 -1.3500 -1.0064
  702MOL0     H94736   0.862   8.394   6.557 -2.1023 -0.5186 -0.6290
  702MOL0     H94737   0.954   8.243   6.557  3.0700  1.1845 -0.7360
  702MOL0     H94738   1.042   8.517   6.509 -1.0715 -0.1973 -0.8499
  702MOL0     H94739   1.144   8.377   6.537 -0.7247 -1.0208 -0.7446
  702MOL0     H94740   1.057   8.460   6.261 -2.1889 -2.5737  0.1337
  702MOL0     H94741   1.133   8.306   6.310 -0.3945  0.2341 -2.1202
  702MOL0     H94742   1.336   8.448   6.393 -0.4107  1.7102  1.6147
  702MOL0     H94743   1.301   8.489   6.232 -1.0951  1.3116 -1.1849
  702MOL0     H94744   1.217   8.670   6.476 -1.4567  0.6348 -0.4138
  702MOL0     H94745   1.147   8.676   6.311 -0.0315 -0.5829 -1.1006
  702MOL0     H94746   1.386   8.733   6.235  0.9020  1.1417 -0.1190
  702MOL0     H94747   1.319   8.842   6.355 -2.1100 -0.6209 -3.2195
  702MOL0     H94748   1.567   8.775   6.374  0.7567 -2.1775 -4.5389
  702MOL0     H94749   1.515   8.603   6.391  0.4307  1.2373  0.3368
  702MOL0     H94750   1.579   8.709   6.612 -0.9486 -2.4313 -1.0923
  702MOL0     H94751   1.425   8.640   6.603 -2.1732  0.9729  0.0083
  702MOL0     H94752   0.760   8.070   6.322  0.7947 -1.3104  3.2815
  702MOL0     H94753   0.531   8.017   6.297 -0.1521 -0.4803  1.1893
  702MOL0     H94754   0.106   8.213   6.295  2.3541  0.1176  0.6016
  702MOL0     H94755  -0.113   8.253   6.304 -0.7280  0.1126  1.0266
  702MOL0     H94756   0.575   9.297   6.873 -0.2608  3.4583 -2.4829
  702MOL0     H94757   0.673   9.452   6.735 -1.0771 -1.0022  3.9797
  702MOL0     H94758   1.018   9.506   6.484  0.8670  3.3867  0.9034
  702MOL0     H94759   1.213   9.614   6.362 -1.1010 -0.1543  2.2963
  702MOL0     H94760   1.228   9.586   5.929 -0.5751 -0.6870  1.4736
  702MOL0     H94761   1.154   9.744   5.939 -0.3405 -1.7182 -0.6687
  702MOL0     H94762   1.445   9.668   6.009 -0.1866 -2.9543 -0.4345
  702MOL0     H94763   1.377   9.833   6.012  0.1468 -0.4217  0.8905
  702MOL0     H94764   1.411   9.836   5.755  0.4666  0.2103  0.4166
  702MOL0     H94765   1.361   9.655   5.761  4.1187 -1.0792 -1.0165
  702MOL0     H94766   1.569   9.597   5.823 -0.0503 -0.6374 -1.5647
  702MOL0     H94767   1.616   9.762   5.860  1.2710 -1.7680 -1.7490
  702MOL0     H94768   1.697   9.766   5.448  2.1929 -1.1175 -0.0084
  702MOL0     H94769   0.952   9.662   6.022 -0.1100  1.3770  0.2879
  702MOL0     H94770   0.772   9.543   6.151  1.3054 -3.0306  1.0426
  703MOL0     O94771   1.479   3.732  10.512 -0.2430  0.3884 -0.4467
  703MOL0     C94772   1.421   3.632  10.470 -0.9974 -0.1495  0.0657
  703MOL0     O94773   1.305   3.634  10.397  0.4407  0.3823 -0.7652
  703MOL0     C94774   1.260   3.758  10.350 -0.1686  0.8160 -0.3183
  703MOL0     C94775   1.336   3.839  10.263  0.0036 -0.1685  0.1639
  703MOL0     C94776   1.283   3.958  10.206  1.1728 -0.2882  0.3810
  703MOL0     C94777   1.155   4.014  10.247  0.4633  0.6729 -0.2307
  703MOL0     O94778   1.104   4.122  10.182 -0.3907 -0.5099 -0.4303
  703MOL0     C94779   0.990   4.091  10.101  0.1766 -0.2032  0.7633
  703MOL0     C94780   0.978   4.186   9.976 -0.5578  0.3378 -0.0390
  703MOL0     C94781   0.972   4.342  10.008  0.1184 -0.2444  0.5032
  703MOL0     C94782   0.877   4.359  10.135  0.7831  0.3183  0.2543
  703MOL0     C94783   0.828   4.504  10.146  0.3618 -0.1288  0.1080
  703MOL0     C94784   0.754   4.537  10.276 -0.0303 -0.4468 -0.1244
  703MOL0     C94785   0.855   4.594  10.382  0.2540  0.2190  0.4475
  703MOL0     C94786   0.793   4.602  10.525  0.5492  0.1174  0.0004
  703MOL0     N94787   0.905   4.621  10.623 -0.3920  0.4549  0.6367
  703MOL0     C94788   1.013   4.539  10.636 -0.5371  1.2673 -0.1908
  703MOL0     C94789   1.093   4.612  10.717  0.8060 -0.3862  0.6883
  703MOL0     C94790   1.230   4.575  10.767 -0.7451  0.4585 -0.4065
  703MOL0     C94791   1.272   4.640  10.897 -0.7777 -0.5329  0.4055
  703MOL0     C94792   1.198   4.576  11.014 -0.1612 -0.1734  0.2166
  703MOL0     C94793   1.233   4.636  11.152  0.2580 -0.2397 -0.6787
  703MOL0     O94794   1.363   4.578  11.190  0.7399 -0.8883 -0.1038
  703MOL0     C94795   1.370   4.445  11.215 -0.5500 -0.1844  0.3425
  703MOL0     C94796   1.313   4.387  11.330  0.1791 -1.0067  0.6720
  703MOL0     C94797   1.331   4.256  11.362 -0.5343 -0.1682 -0.8571
  703MOL0     C94798   1.266   4.181  11.477  0.0564  0.0373  0.4635
  703MOL0     C94799   1.416   4.174  11.286 -0.0823 -0.7065 -0.5360
  703MOL0     C94800   1.446   4.039  11.321 -0.3944  0.7175 -0.7530
  703MOL0     O94801   1.429   3.946  11.217 -0.3205  0.2382  0.1598
  703MOL0     C94802   1.449   3.818  11.239  0.5188  0.5564 -0.5073
  703MOL0     C94803   1.343   3.730  11.254 -0.1053 -0.5141 -0.3729
  703MOL0     C94804   1.367   3.588  11.263 -0.4767 -0.6209  0.3341
  703MOL0     C94805   1.493   3.533  11.265  0.2454 -0.7790 -0.0156
  703MOL0     O94806   1.498   3.398  11.294 -0.6552 -0.2299  0.2322
  703MOL0     C94807   1.559   3.317  11.202  0.4827  0.0519  0.3093
  703MOL0     C94808   1.505   3.178  11.233  0.1056  0.6357  0.0461
  703MOL0     C94809   1.534   3.132  11.373  0.5307  0.2809 -0.6030
  703MOL0     C94810   1.507   2.982  11.379  0.2258 -0.6407 -0.8729
  703MOL0     C94811   1.532   2.922  11.513 -0.4458 -0.6446 -0.3428
  703MOL0     C94812   1.544   2.772  11.501 -0.2878  0.1488 -0.1726
  703MOL0     C94813   1.549   2.723  11.647  0.4174  0.7695  0.3878
  703MOL0     C94814   1.564   2.574  11.650 -0.5443 -0.2243 -0.8019
  703MOL0    Cl94815   1.428   2.503  11.553  0.1225  0.5509 -0.2962
  703MOL0     C94816   1.601   3.631  11.231 -0.1667 -0.3485 -1.3078
  703MOL0     C94817   1.577   3.764  11.214  0.1568 -0.5133 -0.1325
  703MOL0     O94818   1.489   4.012  11.433  0.4963 -0.4156  0.2493
  703MOL0     C94819   1.487   4.235  11.170 -0.1408 -0.6160 -0.0626
  703MOL0     C94820   1.457   4.369  11.139  0.5386  0.3388 -0.2419
  703MOL0     N94821   1.028   4.729  10.754  0.2923 -0.6863 -0.5727
  703MOL0     N94822   0.913   4.735  10.693  0.9866  0.2506  0.2271
  703MOL0     C94823   1.090   3.933  10.349  0.4264  0.4083  0.3874
  703MOL0     C94824   1.136   3.804  10.394  0.5533  0.0703 -0.2967
  703MOL0     C94825   1.498   3.506  10.467  0.0064 -0.4079 -0.6347
  703MOL0     C94826   1.434   3.388  10.513 -0.1433  0.4241  1.4763
  703MOL0     C94827   1.496   3.269  10.483  0.0501 -0.5169  0.0732
  703MOL0     C94828   1.628   3.267  10.442 -0.1011 -0.1059 -0.3978
  703MOL0     O94829   1.689   3.141  10.424  0.2655 -0.1027 -0.7715
  703MOL0     C94830   1.774   3.116  10.308  0.2129  0.5888 -0.3685
  703MOL0     C94831   1.674   3.039  10.213 -0.4106 -0.6309  0.3078
  703MOL0     C94832   1.725   3.031  10.066 -0.2164 -0.0631 -0.4624
  703MOL0     C94833   1.873   2.987  10.048  0.2243  0.2505  0.2736
  703MOL0     C94834   1.905   2.836  10.059 -0.0334  0.2182  0.1027
  703MOL0     C94835   1.937   2.718  10.065  0.0187  0.2368  0.0469
  703MOL0     C94836   1.692   3.387  10.418 -0.3338 -0.5911 -0.2776
  703MOL0     C94837   1.630   3.506  10.431 -0.1373  0.4655  0.4821
  703MOL0     H94838   1.441   3.818  10.247 -0.3404 -1.9441 -0.0261
  703MOL0     H94839   1.349   4.013  10.140  0.2659 -1.9614 -2.0677
  703MOL0     H94840   0.993   3.989  10.062 -1.7478  0.3062 -0.8917
  703MOL0     H94841   0.896   4.104  10.156 -0.8546 -0.1655 -0.9412
  703MOL0     H94842   1.050   4.154   9.900 -2.2361 -1.9957 -0.7597
  703MOL0     H94843   0.887   4.157   9.923  1.8761 -1.2569 -3.8045
  703MOL0     H94844   1.075   4.369  10.030 -0.3227  2.5229 -0.4148
  703MOL0     H94845   0.931   4.396   9.922 -2.0101  0.1450  1.6709
  703MOL0     H94846   0.793   4.289  10.140  0.0871  0.9921 -1.4471
  703MOL0     H94847   0.935   4.337  10.225  0.5566  1.1263  0.6019
  703MOL0     H94848   0.916   4.568  10.136 -0.0451  0.5509  0.8159
  703MOL0     H94849   0.753   4.529  10.070 -0.4212 -1.1282  0.5272
  703MOL0     H94850   0.682   4.618  10.258 -1.4453 -1.6798 -0.2555
  703MOL0     H94851   0.702   4.447  10.310 -2.1419 -0.2200 -2.4594
  703MOL0     H94852   0.936   4.522  10.398 -0.7534 -1.2163 -0.6665
  703MOL0     H94853   0.905   4.687  10.352  0.8306  0.9354  3.3335
  703MOL0     H94854   0.746   4.507  10.554  0.5130  0.0480 -0.2896
  703MOL0     H94855   0.730   4.691  10.534  0.9505  0.1722  4.5966
  703MOL0     H94856   1.029   4.439  10.596  2.0170  1.7791 -0.6107
  703MOL0     H94857   1.253   4.468  10.770 -0.9623  0.4179  2.8229
  703MOL0     H94858   1.300   4.622  10.697  0.9388 -1.2972 -0.0009
  703MOL0     H94859   1.265   4.749  10.908 -0.2625 -0.5862  1.5205
  703MOL0     H94860   1.378   4.623  10.921 -0.3075  4.5748  3.4836
  703MOL0     H94861   1.225   4.470  11.014  0.2995 -0.0741 -1.5449
  703MOL0     H94862   1.092   4.595  10.994  0.0693  2.3522  1.0592
  703MOL0     H94863   1.144   4.604  11.208 -0.2257  1.0781 -0.6673
  703MOL0     H94864   1.230   4.745  11.146 -1.9046 -0.3158 -2.1281
  703MOL0     H94865   1.258   4.449  11.401 -2.1801 -0.6894 -1.2904
  703MOL0     H94866   1.332   4.177  11.565 -3.3328  0.6435  3.2592
  703MOL0     H94867   1.175   4.228  11.515 -0.1296 -1.2250  1.6772
  703MOL0     H94868   1.230   4.079  11.458  1.4384 -0.0679 -1.9757
  703MOL0     H94869   1.242   3.769  11.243 -0.4210  0.4979  4.3118
  703MOL0     H94870   1.282   3.525  11.284 -2.5975  1.9689  0.0632
  703MOL0     H94871   1.522   3.339  11.101 -1.6224 -0.3849  0.9425
  703MOL0     H94872   1.668   3.319  11.207  0.5734 -1.0183 -0.7719
  703MOL0     H94873   1.399   3.175  11.210 -0.5439 -1.2944  2.7349
  703MOL0     H94874   1.550   3.109  11.161 -1.3788  0.2148 -0.4911
  703MOL0     H94875   1.463   3.183  11.439  0.2239  0.0832 -0.7792
  703MOL0     H94876   1.638   3.148  11.404  0.2988  3.9229 -1.3119
  703MOL0     H94877   1.413   2.951  11.332 -0.4378  2.8718 -2.2413
  703MOL0     H94878   1.582   2.937  11.313 -0.9500 -2.2604 -1.1762
  703MOL0     H94879   1.462   2.948  11.593 -2.7068 -1.4793 -1.9426
  703MOL0     H94880   1.621   2.972  11.551 -2.2376  2.5594 -0.0046
  703MOL0     H94881   1.452   2.732  11.460 -1.0416 -0.3691  1.8977
  703MOL0     H94882   1.626   2.736  11.438 -2.1682  0.0996 -2.7444
  703MOL0     H94883   1.453   2.755  11.687 -0.2960  3.4464 -2.9838
  703MOL0     H94884   1.625   2.779  11.703 -1.1114  3.3385  0.0098
  703MOL0     H94885   1.541   2.533  11.749 -0.5816 -0.2807 -0.8337
  703MOL0     H94886   1.659   2.544  11.606  0.3766  3.9305 -2.1330
  703MOL0     H94887   1.701   3.589  11.238 -1.4567 -3.3702  2.2104
  703MOL0     H94888   1.658   3.833  11.196 -0.9992  0.4716 -1.9474
  703MOL0     H94889   1.552   4.180  11.103 -2.2329 -1.6669 -1.3697
  703MOL0     H94890   1.485   4.397  11.038 -3.3081  1.9960 -1.0141
  703MOL0     H94891   0.998   3.960  10.400 -0.7792 -0.6413 -1.1440
  703MOL0     H94892   1.083   3.758  10.477  0.6939 -0.0188 -0.2548
  703MOL0     H94893   1.338   3.379  10.564  0.4005 -0.0139  2.4515
  703MOL0     H94894   1.455   3.175  10.518  1.3326 -1.8974 -1.9319
  703MOL0     H94895   1.808   3.211  10.267  0.7421  1.6282  2.2743
  703MOL0     H94896   1.851   3.042  10.331 -1.4935 -2.0804 -2.5946
  703MOL0     H94897   1.582   3.099  10.218 -1.3097 -2.0801  2.3150
  703MOL0     H94898   1.661   2.938  10.252  2.3887 -0.9289  0.6717
  703MOL0     H94899   1.737   3.138  10.044  0.7915 -0.1191 -0.2391
  703MOL0     H94900   1.648   2.982  10.007  0.2420 -0.4211 -0.7642
  703MOL0     H94901   1.938   3.036  10.122  1.0909  0.5356 -0.6568
  703MOL0     H94902   1.906   3.014   9.947 -0.1796 -0.4401 -0.0491
  703MOL0     H94903   1.985   2.625  10.090  1.9859  0.9953 -0.7282
  703MOL0     H94904   1.796   3.397  10.390 -0.7149  2.2700 -0.9841
  703MOL0     H94905   1.690   3.594  10.409  0.3123 -0.2951 -1.6175
  704MOL0     O94906   1.628   9.443   5.370 -0.2653  0.9436  0.1797
  704MOL0     C94907   1.540   9.464   5.284 -0.4896  0.8150  0.3699
  704MOL0     O94908   1.568   9.474   5.152 -0.1083 -0.3247  0.6672
  704MOL0     C94909   1.699   9.445   5.113 -0.2601  0.1761  0.9699
  704MOL0     C94910   1.798   9.540   5.106  0.5794 -0.4847 -0.0200
  704MOL0     C94911   1.931   9.512   5.073  0.3654  1.3273 -0.0513
  704MOL0     C94912   1.976   9.376   5.062  0.2600 -0.5839  0.9236
  704MOL0     O94913   2.107   9.335   5.056  0.0962 -0.4605  0.8268
  704MOL0     C94914   2.206   9.442   5.042  0.6740  0.4309 -0.9677
  704MOL0     C94915   2.336   9.381   4.992 -0.6785  0.2548 -0.1813
  704MOL0     C94916   2.428   9.310   5.097  0.2061 -0.4289 -0.6417
  704MOL0     C94917   2.580   9.345   5.093 -0.9262 -0.2580 -0.6080
  704MOL0     C94918   2.668   9.256   5.175  0.6389 -0.1313 -1.3456
  704MOL0     C94919   2.817   9.277   5.168 -0.1169 -0.0017  0.6049
  704MOL0     C94920   2.863   9.418   5.207 -0.0575  0.6373 -0.3588
  704MOL0     C94921   2.840   9.456   5.356  0.4020 -0.5271 -0.3126
  704MOL0     N94922   2.960   9.534   5.406  0.1984  0.5760 -0.0514
  704MOL0     C94923   3.023   9.649   5.357 -0.0917  0.3902  0.2675
  704MOL0     C94924   3.127   9.673   5.437 -0.9528  0.0012 -0.8191
  704MOL0     C94925   3.221   9.778   5.408 -0.3668 -0.6704 -0.9166
  704MOL0     C94926   3.193   9.916   5.492  0.5628 -0.1870  0.0962
  704MOL0     C94927   3.315  10.002   5.472  0.0678 -0.8109  0.3224
  704MOL0     C94928   3.373  10.029   5.333 -0.7019 -0.4053  0.0684
  704MOL0     O94929   3.278  10.101   5.243 -0.3946  0.9989 -0.2466
  704MOL0     C94930   3.253  10.239   5.258 -0.3381 -0.5949  0.1135
  704MOL0     C94931   3.312  10.319   5.357 -0.9253 -0.2251 -0.7966
  704MOL0     C94932   3.288  10.454   5.373  0.8866  0.1964  0.1103
  704MOL0     C94933   3.345  10.524   5.489 -0.4605 -0.2048 -0.7986
  704MOL0     C94934   3.184  10.507   5.283  0.2221  0.2619  0.6498
  704MOL0     C94935   3.155  10.650   5.279  0.6218 -0.4296  0.2806
  704MOL0     O94936   3.024  10.674   5.221 -0.3132  0.1196 -0.2173
  704MOL0     C94937   2.999  10.800   5.176  0.3770 -0.5859  1.2963
  704MOL0     C94938   2.883  10.859   5.230 -0.0654  0.0774  0.0469
  704MOL0     C94939   2.857  10.996   5.218  0.2895 -0.1970  0.2544
  704MOL0     C94940   2.936  11.077   5.132 -0.2935  0.2223 -0.1918
  704MOL0     O94941   2.909  11.200   5.098 -0.3662 -0.3064  0.2299
  704MOL0     C94942   2.785  11.213   5.025 -0.4230 -0.4234  0.4101
  704MOL0     C94943   2.688  11.322   5.080  0.9768  0.3088 -0.7895
  704MOL0     C94944   2.562  11.332   4.978 -0.3917 -0.3729 -0.6069
  704MOL0     C94945   2.448  11.401   5.045  0.2189  0.0752  0.5122
  704MOL0     C94946   2.318  11.406   4.947 -1.1379  0.2588 -1.2867
  704MOL0     C94947   2.330  11.515   4.843  0.5636  0.2256 -0.4487
  704MOL0     C94948   2.217  11.541   4.744 -0.0788 -0.3056  0.4203
  704MOL0     C94949   2.248  11.634   4.621  0.2333  0.0147  0.5456
  704MOL0    Cl94950   2.098  11.649   4.532 -0.3309  0.2639 -0.7501
  704MOL0     C94951   3.045  11.008   5.060  0.4257 -0.1046 -0.5825
  704MOL0     C94952   3.074  10.874   5.089 -0.3535 -0.1911 -0.3406
  704MOL0     O94953   3.235  10.731   5.309  0.4611 -0.1746 -0.3306
  704MOL0     C94954   3.129  10.426   5.185  0.4778 -0.5683 -0.4907
  704MOL0     C94955   3.162  10.292   5.178  0.0677  0.4464  0.3886
  704MOL0     N94956   3.139   9.566   5.530 -0.8432  0.1468 -0.7751
  704MOL0     N94957   3.029   9.495   5.520 -0.1652 -0.9801 -0.2637
  704MOL0     C94958   1.875   9.284   5.063  0.1596  0.5134  0.0082
  704MOL0     C94959   1.743   9.313   5.099 -0.2806 -0.1413 -0.9490
  704MOL0     C94960   1.406   9.455   5.333 -1.3610  0.0715 -0.2823
  704MOL0     C94961   1.314   9.389   5.257  0.6869 -0.6074  0.6137
  704MOL0     C94962   1.184   9.366   5.293 -0.7843  0.5384 -0.5941
  704MOL0     C94963   1.136   9.426   5.412  0.5787 -0.7972  0.0428
  704MOL0     O94964   1.001   9.420   5.437 -0.4359 -0.1375  0.6444
  704MOL0     C94965   0.964   9.405   5.579 -0.3538  0.1780  0.5657
  704MOL0     C94966   0.838   9.334   5.602  0.7870 -1.3646  0.2323
  704MOL0     C94967   0.783   9.356   5.736 -0.0765  0.3698  0.5258
  704MOL0     C94968   0.866   9.283   5.841 -0.8444  1.1714 -0.3114
  704MOL0     C94969   0.782   9.234   5.944 -0.9471 -0.0823  0.3903
  704MOL0     C94970   0.721   9.170   6.036  1.4659  0.3463  0.0587
  704MOL0     C94971   1.229   9.497   5.490 -0.5008 -0.9728  0.8309
  704MOL0     C94972   1.368   9.507   5.456  0.5252 -0.6256 -0.1172
  704MOL0     H94973   1.764   9.640   5.132  0.7826 -0.3232 -0.3671
  704MOL0     H94974   1.989   9.604   5.073 -0.9811  2.2239 -0.3979
  704MOL0     H94975   2.174   9.510   4.962  0.5070  1.4487 -0.0613
  704MOL0     H94976   2.217   9.506   5.130  2.4686 -0.9242 -0.1487
  704MOL0     H94977   2.332   9.308   4.910  3.1016 -1.0016  0.5336
  704MOL0     H94978   2.400   9.457   4.946 -0.4101  0.4519  0.5072
  704MOL0     H94979   2.384   9.344   5.191 -0.3014  0.4976 -1.2028
  704MOL0     H94980   2.408   9.203   5.105 -1.0629 -0.0471  3.7073
  704MOL0     H94981   2.609   9.345   4.988 -0.7252  1.6794 -0.5915
  704MOL0     H94982   2.595   9.447   5.129 -2.9142  0.2866 -1.1813
  704MOL0     H94983   2.630   9.261   5.278  0.4595  2.0908 -1.4685
  704MOL0     H94984   2.650   9.150   5.153 -0.3371 -0.2778  0.0210
  704MOL0     H94985   2.859   9.198   5.231  2.6651 -0.7320 -1.9648
  704MOL0     H94986   2.852   9.252   5.067  0.4225  0.0447  0.7786
  704MOL0     H94987   2.965   9.438   5.172 -0.3853 -1.2186 -2.5835
  704MOL0     H94988   2.814   9.496   5.149  1.7068  0.5036 -2.1110
  704MOL0     H94989   2.819   9.370   5.421  0.8792  0.7480  1.5933
  704MOL0     H94990   2.752   9.521   5.364 -0.4841 -1.8363  1.0271
  704MOL0     H94991   2.988   9.713   5.277  1.0422 -0.5149 -0.9794
  704MOL0     H94992   3.325   9.746   5.421  0.1302 -0.4957 -3.7239
  704MOL0     H94993   3.214   9.795   5.300  1.6800  1.1954 -0.8340
  704MOL0     H94994   3.165   9.897   5.596  0.3160  1.3613  0.3419
  704MOL0     H94995   3.115   9.978   5.446  1.2667  0.3691 -0.3687
  704MOL0     H94996   3.391   9.952   5.533  1.5541 -4.1218 -3.7745
  704MOL0     H94997   3.302  10.101   5.517  0.2582 -1.4490  1.8255
  704MOL0     H94998   3.401   9.931   5.294 -0.7688 -3.0001  5.5307
  704MOL0     H94999   3.474  10.071   5.336 -1.2130  0.8384  2.6581
  704MOL0     H95000   3.388  10.282   5.425 -1.2584  0.5164 -0.0053
  704MOL0     H95001   3.352  10.456   5.574  0.2305 -1.5842 -1.9112
  704MOL0     H95002   3.446  10.562   5.472  0.2465 -1.3567  0.5374
  704MOL0     H95003   3.274  10.598   5.528  2.5409  1.1806  2.5935
  704MOL0     H95004   2.828  10.797   5.300 -0.2457  3.1650  2.9006
  704MOL0     H95005   2.773  11.031   5.277 -0.0775 -1.2956  0.4039
  704MOL0     H95006   2.810  11.255   4.927 -0.8273 -0.4095  0.3119
  704MOL0     H95007   2.740  11.115   5.011  1.7864 -1.9859  3.0653
  704MOL0     H95008   2.656  11.282   5.177  0.3488 -3.0689 -2.2789
  704MOL0     H95009   2.738  11.416   5.107  1.0271 -0.3718  1.8463
  704MOL0     H95010   2.521  11.233   4.953 -1.7720 -0.8511  2.9680
  704MOL0     H95011   2.586  11.385   4.885 -1.7481  1.5925  0.0965
  704MOL0     H95012   2.435  11.335   5.131  2.3158 -0.8854  0.1526
  704MOL0     H95013   2.485  11.500   5.075 -0.2923  1.0898 -1.9524
  704MOL0     H95014   2.231  11.423   5.011  1.0137  0.3916  1.7908
  704MOL0     H95015   2.301  11.307   4.903  1.7594 -0.9197  0.0227
  704MOL0     H95016   2.347  11.606   4.901  0.3634  0.0478 -0.1076
  704MOL0     H95017   2.426  11.498   4.794  1.7713 -0.4861  2.0138
  704MOL0     H95018   2.150  11.599   4.808  0.3176 -1.6438  2.0927
  704MOL0     H95019   2.173  11.450   4.703 -0.9133  0.2868 -0.0420
  704MOL0     H95020   2.335  11.592   4.568  1.9943  1.2036  2.3408
  704MOL0     H95021   2.275  11.735   4.654  0.5529 -0.1212  0.7098
  704MOL0     H95022   3.106  11.065   4.991  0.6168  1.8838  1.1308
  704MOL0     H95023   3.160  10.827   5.042 -0.4466  1.6479 -2.5326
  704MOL0     H95024   3.060  10.461   5.109  2.8245 -2.5443 -3.7507
  704MOL0     H95025   3.111  10.225   5.109 -0.7755  0.9633  0.4930
  704MOL0     H95026   1.891   9.178   5.044 -3.3946  0.0991 -1.5594
  704MOL0     H95027   1.682   9.225   5.116 -1.2558  0.3967 -1.5692
  704MOL0     H95028   1.359   9.341   5.171  4.8712  0.4368  1.9762
  704MOL0     H95029   1.117   9.299   5.240 -1.2781 -0.4505  1.1842
  704MOL0     H95030   1.036   9.336   5.624 -0.8575 -1.1481 -0.5613
  704MOL0     H95031   0.962   9.506   5.621 -0.1365  0.8685 -1.0046
  704MOL0     H95032   0.850   9.230   5.568  0.0273 -1.3072 -0.2386
  704MOL0     H95033   0.772   9.384   5.531  1.3137 -0.0014  0.6649
  704MOL0     H95034   0.677   9.327   5.736  0.0056  0.0647  0.0164
  704MOL0     H95035   0.782   9.463   5.760 -0.6303  0.7723 -1.1938
  704MOL0     H95036   0.927   9.361   5.889 -0.2251  2.2712 -2.7243
  704MOL0     H95037   0.928   9.203   5.800 -2.3719 -0.7198  0.8989
  704MOL0     H95038   0.674   9.122   6.119  1.0048  1.8855  0.7124
  704MOL0     H95039   1.201   9.539   5.586  0.0726 -2.5999  1.7519
  704MOL0     H95040   1.436   9.560   5.521  0.5867 -2.5164  1.4426
  705MOL0     O95041   6.883   0.393   0.492  0.0514  0.1380 -0.3110
  705MOL0     C95042   6.983   0.430   0.426  0.2044  0.5316  0.1602
  705MOL0     O95043   6.997   0.418   0.291  0.4340 -0.6290  0.6436
  705MOL0     C95044   6.887   0.377   0.220 -0.5624  0.0135  0.6195
  705MOL0     C95045   6.840   0.249   0.234 -0.0679  0.8499  0.0060
  705MOL0     C95046   6.737   0.203   0.158  0.4356 -0.6124  0.0931
  705MOL0     C95047   6.675   0.291   0.063 -0.1120  0.5673  1.2485
  705MOL0     O95048   6.560   0.246  -0.003 -0.3962  0.4040 -0.0562
  705MOL0     C95049   6.567   0.119  -0.082 -0.4515  0.9707  0.4456
  705MOL0     C95050   6.492   0.141  -0.209  0.4442 -0.3262 -0.4330
  705MOL0     C95051   6.343   0.131  -0.169  0.2026 -0.2534 -0.3012
  705MOL0     C95052   6.269   0.129  -0.304  0.5830 -0.2751  0.4770
  705MOL0     C95053   6.140   0.041  -0.298 -0.3020 -0.6437  0.2209
  705MOL0     C95054   6.054   0.070  -0.425 -0.3505 -0.6852 -0.3196
  705MOL0     C95055   5.911   0.053  -0.394  0.7739  0.6070  0.8159
  705MOL0     C95056   5.821   0.039  -0.519  0.3373 -0.0186 -0.9177
  705MOL0     N95057   5.746   0.160  -0.566  0.4652 -0.4723 -0.9690
  705MOL0     C95058   5.621   0.195  -0.524 -0.1384  0.4729  0.6777
  705MOL0     C95059   5.592   0.311  -0.601 -0.4934  0.0069  0.1237
  705MOL0     C95060   5.468   0.402  -0.596  1.0946 -0.2283 -1.1381
  705MOL0     C95061   5.359   0.332  -0.510  0.7230  0.7913 -0.8199
  705MOL0     C95062   5.226   0.416  -0.497 -0.7723 -0.5914 -0.0230
  705MOL0     C95063   5.117   0.392  -0.596  0.0066  0.5851  0.4911
  705MOL0     O95064   4.985   0.432  -0.564  0.8592  0.1151  0.1842
  705MOL0     C95065   4.883   0.406  -0.660  0.5019 -0.9150  0.4439
  705MOL0     C95066   4.884   0.337  -0.785 -0.0107 -0.1637 -0.2381
  705MOL0     C95067   4.783   0.350  -0.882 -0.3916 -0.2181 -0.6996
  705MOL0     C95068   4.809   0.280  -1.016 -0.6849  0.0123  0.1775
  705MOL0     C95069   4.661   0.413  -0.838 -0.5700 -0.6373  1.0580
  705MOL0     C95070   4.544   0.434  -0.944  0.1244 -0.8462 -0.0719
  705MOL0     O95071   4.436   0.508  -0.901  0.3823 -0.2722  0.0283
  705MOL0     C95072   4.322   0.528  -0.973 -0.6454 -0.7610 -0.0223
  705MOL0     C95073   4.317   0.552  -1.115 -0.3277 -0.1403 -0.3846
  705MOL0     C95074   4.190   0.583  -1.175  0.1263  0.2942  0.4551
  705MOL0     C95075   4.080   0.601  -1.098 -0.1852  0.0372 -0.0525
  705MOL0     O95076   3.969   0.643  -1.166  0.4186 -0.1802 -0.3505
  705MOL0     C95077   3.833   0.644  -1.098 -0.7341  0.2484 -0.0527
  705MOL0     C95078   3.769   0.505  -1.085  0.4103  0.4122  0.2904
  705MOL0     C95079   3.624   0.524  -1.043  0.2289  0.6558  0.1899
  705MOL0     C95080   3.566   0.394  -0.996  0.4289 -0.5984 -0.6162
  705MOL0     C95081   3.420   0.422  -0.952  0.0499  0.1403 -1.0490
  705MOL0     C95082   3.367   0.296  -0.880 -0.3306 -0.4747  0.1053
  705MOL0     C95083   3.228   0.308  -0.827  0.7523 -0.4165 -1.4250
  705MOL0     C95084   3.134   0.361  -0.936  0.8668  0.6089  0.7872
  705MOL0    Cl95085   2.959   0.362  -0.897 -0.2439 -1.0657  0.4305
  705MOL0     C95086   4.087   0.573  -0.959  0.7835  0.2363  0.5229
  705MOL0     C95087   4.207   0.546  -0.897  0.2095  0.0471  0.5967
  705MOL0     O95088   4.545   0.381  -1.048  0.3015 -0.1657 -0.1612
  705MOL0     C95089   4.656   0.479  -0.716 -1.1383 -0.8757 -0.5296
  705MOL0     C95090   4.767   0.475  -0.628 -0.0449 -0.0618  0.3640
  705MOL0     N95091   5.695   0.333  -0.687  0.7503 -0.2214  1.1531
  705MOL0     N95092   5.791   0.251  -0.659  0.2485  0.0559 -0.6159
  705MOL0     C95093   6.718   0.420   0.050 -0.1492 -0.1355  0.8832
  705MOL0     C95094   6.815   0.474   0.133 -0.8797 -0.3704  0.3575
  705MOL0     C95095   7.091   0.501   0.495 -0.8854  0.1530 -0.3820
  705MOL0     C95096   7.229   0.503   0.463 -0.6227  0.2168  0.5856
  705MOL0     C95097   7.323   0.561   0.552  0.0987 -0.7583 -0.0837
  705MOL0     C95098   7.284   0.618   0.670  0.4034 -0.3456 -0.0465
  705MOL0     O95099   7.373   0.683   0.750 -0.6600  0.6580 -0.8604
  705MOL0     C95100   7.419   0.600   0.863 -0.3089 -0.1181 -0.5169
  705MOL0     C95101   7.514   0.485   0.817  0.0770  0.3459  0.5166
  705MOL0     C95102   7.612   0.421   0.911 -0.2148 -0.0546  0.3298
  705MOL0     C95103   7.742   0.503   0.908 -0.6501 -0.3509  0.5353
  705MOL0     C95104   7.829   0.484   1.021 -0.0183  0.3513 -0.5769
  705MOL0     C95105   7.882   0.450   1.130 -0.3061 -0.1683 -0.0009
  705MOL0     C95106   7.150   0.609   0.707 -0.4148 -1.2889 -0.2289
  705MOL0     C95107   7.053   0.560   0.622 -0.0043  0.4286  0.4019
  705MOL0     H95108   6.884   0.181   0.307 -0.7807  1.8009  1.3749
  705MOL0     H95109   6.699   0.103   0.180  2.5393 -1.5609 -0.3404
  705MOL0     H95110   6.668   0.096  -0.119 -2.4077 -0.9067 -4.6530
  705MOL0     H95111   6.519   0.039  -0.026 -2.5034  0.1959 -2.2345
  705MOL0     H95112   6.514   0.241  -0.247  0.6064  0.4537  1.5416
  705MOL0     H95113   6.513   0.062  -0.282  2.1008 -1.1468  0.8667
  705MOL0     H95114   6.322   0.045  -0.105 -3.3379  2.0697  2.0143
  705MOL0     H95115   6.307   0.216  -0.111 -1.8282 -0.1677 -1.6011
  705MOL0     H95116   6.244   0.234  -0.316 -0.0866 -0.0687  3.0680
  705MOL0     H95117   6.326   0.092  -0.390  2.3973 -1.1783  1.9820
  705MOL0     H95118   6.155  -0.067  -0.295 -0.8104 -1.1057 -4.8235
  705MOL0     H95119   6.086   0.077  -0.209  1.0093  2.4463 -0.0978
  705MOL0     H95120   6.062   0.175  -0.453 -2.2023  0.1421  1.9100
  705MOL0     H95121   6.086   0.011  -0.511  0.3663  0.1450 -0.6349
  705MOL0     H95122   5.891  -0.045  -0.350  0.5096  0.7381  0.9940
  705MOL0     H95123   5.867   0.123  -0.323  0.3559  1.5837 -0.3729
  705MOL0     H95124   5.751  -0.039  -0.489  0.7275  0.0695  0.2555
  705MOL0     H95125   5.891   0.017  -0.600  1.0324  0.0368 -0.3390
  705MOL0     H95126   5.560   0.137  -0.455  0.5043 -2.3424 -0.9923
  705MOL0     H95127   5.495   0.502  -0.561 -2.5781  0.1672  1.0891
  705MOL0     H95128   5.433   0.411  -0.699  2.5714  0.9937 -1.5670
  705MOL0     H95129   5.389   0.317  -0.405  1.8384  0.2078 -1.2059
  705MOL0     H95130   5.327   0.237  -0.553 -0.7629 -0.2473  2.2931
  705MOL0     H95131   5.259   0.520  -0.488 -1.3000 -0.2827 -1.4286
  705MOL0     H95132   5.196   0.382  -0.397  0.8460 -3.5832 -0.4496
  705MOL0     H95133   5.118   0.289  -0.633 -2.1901  0.9014 -0.5831
  705MOL0     H95134   5.151   0.433  -0.692  3.2072 -0.4913  1.0306
  705MOL0     H95135   4.978   0.285  -0.805  1.1155  0.0096  3.7510
  705MOL0     H95136   4.875   0.194  -0.998  0.5952  0.9419  0.1079
  705MOL0     H95137   4.720   0.239  -1.063 -0.7747  0.7050 -0.2656
  705MOL0     H95138   4.854   0.347  -1.090 -2.1929 -0.7352 -1.4673
  705MOL0     H95139   4.411   0.561  -1.168 -1.4345  4.8708 -2.0807
  705MOL0     H95140   4.174   0.605  -1.280 -2.5568 -0.9923  0.5233
  705MOL0     H95141   3.843   0.701  -1.005  3.8464 -0.5188  0.1668
  705MOL0     H95142   3.771   0.705  -1.164  0.1748  1.8505  0.5174
  705MOL0     H95143   3.765   0.467  -1.188  3.6570  1.6097 -0.3978
  705MOL0     H95144   3.816   0.426  -1.025 -1.2649 -2.5196 -1.9610
  705MOL0     H95145   3.561   0.566  -1.122 -0.9064 -0.8632  0.2403
  705MOL0     H95146   3.624   0.590  -0.956  0.4888 -1.3127  1.7565
  705MOL0     H95147   3.559   0.310  -1.065  3.2579 -2.8599  1.5776
  705MOL0     H95148   3.626   0.358  -0.912 -0.1153  5.1736  2.8191
  705MOL0     H95149   3.359   0.450  -1.038 -1.3822 -3.2713 -1.2797
  705MOL0     H95150   3.429   0.507  -0.883  2.6922 -0.0905 -0.9972
  705MOL0     H95151   3.352   0.218  -0.955  1.1357 -0.7185  0.0370
  705MOL0     H95152   3.440   0.259  -0.807 -0.4863  0.0435  0.5288
  705MOL0     H95153   3.239   0.368  -0.737 -0.0056 -1.5545 -0.5528
  705MOL0     H95154   3.200   0.208  -0.792 -0.7525  0.4573 -0.0477
  705MOL0     H95155   3.146   0.304  -1.028 -0.1746  3.5498 -1.3124
  705MOL0     H95156   3.161   0.466  -0.952 -1.0237  0.6371 -3.5201
  705MOL0     H95157   4.005   0.566  -0.888 -0.1176 -1.5847 -0.6201
  705MOL0     H95158   4.208   0.522  -0.791 -1.7705 -1.9961  0.2300
  705MOL0     H95159   4.562   0.530  -0.697 -0.4209  0.2063  0.1773
  705MOL0     H95160   4.761   0.531  -0.536 -0.8473 -0.4415  0.5534
  705MOL0     H95161   6.676   0.483  -0.028 -2.5118 -1.1083  1.2862
  705MOL0     H95162   6.848   0.577   0.127  0.4826 -0.7844 -5.5366
  705MOL0     H95163   7.260   0.454   0.371 -0.5510 -2.4123  1.8873
  705MOL0     H95164   7.428   0.559   0.523  0.2571  0.0519  0.4044
  705MOL0     H95165   7.473   0.646   0.946  0.3374 -1.8443  0.0681
  705MOL0     H95166   7.327   0.577   0.918  1.2972  1.2112  3.0559
  705MOL0     H95167   7.566   0.524   0.729 -0.1518 -1.7327 -0.6139
  705MOL0     H95168   7.456   0.405   0.770  2.4640 -0.7870 -0.6570
  705MOL0     H95169   7.637   0.322   0.873 -1.8848 -0.3385 -0.0879
  705MOL0     H95170   7.565   0.416   1.010 -1.7188 -0.1358 -0.3565
  705MOL0     H95171   7.718   0.610   0.908  0.7100 -0.0171  2.1253
  705MOL0     H95172   7.792   0.481   0.813 -1.4886  1.7922 -0.4662
  705MOL0     H95173   7.928   0.426   1.224 -1.9761 -1.9749  0.4135
  705MOL0     H95174   7.107   0.654   0.795 -3.2229 -1.4233 -1.4183
  705MOL0     H95175   6.949   0.555   0.653  0.1665 -0.6726  0.8702
  706MOL0     O95176   9.112   7.180   1.751  0.3858 -0.8794  0.0004
  706MOL0     C95177   9.012   7.234   1.690  1.3238  0.4812 -0.0268
  706MOL0     O95178   8.898   7.176   1.659 -1.4712  0.0171 -0.5617
  706MOL0     C95179   8.886   7.046   1.702  0.2209 -0.3928 -0.9200
  706MOL0     C95180   8.877   6.936   1.619 -0.8710  0.1101  0.8373
  706MOL0     C95181   8.870   6.815   1.673 -0.9334 -0.2108 -0.8251
  706MOL0     C95182   8.851   6.789   1.810 -0.4514  0.2221  0.1665
  706MOL0     O95183   8.828   6.668   1.867  0.2882 -0.2645  0.0982
  706MOL0     C95184   8.911   6.564   1.824 -0.1756  0.0472 -0.6761
  706MOL0     C95185   8.849   6.474   1.714  0.6490 -0.2619 -0.4690
  706MOL0     C95186   8.959   6.418   1.633  0.3259 -0.0255  0.8814
  706MOL0     C95187   9.021   6.506   1.531  0.1415  0.2636  0.5076
  706MOL0     C95188   9.110   6.436   1.433  0.8251 -0.2563 -0.0426
  706MOL0     C95189   9.138   6.530   1.313 -0.5685  0.6504  0.4711
  706MOL0     C95190   9.242   6.481   1.215  0.2512 -0.0078  0.5401
  706MOL0     C95191   9.282   6.594   1.117 -0.5378  0.2201  0.7875
  706MOL0     N95192   9.352   6.707   1.189 -0.3554 -0.1829 -1.3609
  706MOL0     C95193   9.490   6.734   1.183  1.5988  0.6047 -0.0168
  706MOL0     C95194   9.500   6.862   1.231 -0.1537 -0.6182  0.3796
  706MOL0     C95195   9.629   6.938   1.261 -0.5353  0.3142 -0.5325
  706MOL0     C95196   9.669   7.027   1.139  0.9137 -0.6636  1.0482
  706MOL0     C95197   9.801   7.103   1.155  0.4593 -0.0821 -0.1112
  706MOL0     C95198   9.927   7.018   1.175  0.5369  0.1715 -0.2626
  706MOL0     O95199  10.028   7.104   1.209 -0.6260 -0.3858  0.2272
  706MOL0     C95200  10.153   7.069   1.249 -0.4547 -0.4207 -0.4802
  706MOL0     C95201  10.198   6.932   1.237 -1.1709 -0.7926 -0.4492
  706MOL0     C95202  10.330   6.904   1.267  0.8712 -0.1958 -0.3345
  706MOL0     C95203  10.376   6.771   1.247 -0.0733  0.1321  0.7397
  706MOL0     C95204  10.408   7.004   1.326 -0.6924 -0.4479 -0.0636
  706MOL0     C95205  10.553   6.979   1.358  0.5213 -0.6328 -0.1218
  706MOL0     O95206  10.581   7.010   1.488  0.6616  1.0018 -0.1461
  706MOL0     C95207  10.706   7.040   1.546  0.5656  1.1432  0.4365
  706MOL0     C95208  10.714   7.043   1.684 -0.9783  0.3396  0.2005
  706MOL0     C95209  10.834   7.072   1.762 -0.5122  0.0296 -0.4352
  706MOL0     C95210  10.947   7.111   1.687 -0.9015  0.1436  0.2089
  706MOL0     O95211  11.075   7.135   1.738  0.6162  0.1080 -0.5487
  706MOL0     C95212  11.099   7.087   1.866 -0.1668  0.0853 -0.0112
  706MOL0     C95213  11.242   7.046   1.886 -0.2908  1.0154  0.2651
  706MOL0     C95214  11.285   6.914   1.803 -0.1235 -0.5963 -0.2602
  706MOL0     C95215  11.439   6.881   1.823 -0.6634 -0.2760  0.1340
  706MOL0     C95216  11.482   6.760   1.731  0.5056 -0.5872 -0.3966
  706MOL0     C95217  11.633   6.741   1.757 -0.4520  0.0717  0.3936
  706MOL0     C95218  11.729   6.841   1.691  0.0122  0.6070  0.3751
  706MOL0     C95219  11.873   6.799   1.702 -0.2344 -1.2534 -0.1645
  706MOL0    Cl95220  11.976   6.925   1.610 -0.2981  0.0103  0.2346
  706MOL0     C95221  10.934   7.108   1.547  0.0287 -0.0696  0.4687
  706MOL0     C95222  10.822   7.074   1.481 -0.1156 -0.3482 -0.2477
  706MOL0     O95223  10.633   6.922   1.281  0.2983 -0.2860  0.6523
  706MOL0     C95224  10.361   7.130   1.352 -0.0852 -0.7852 -0.5214
  706MOL0     C95225  10.228   7.168   1.313 -0.3678  0.5666 -1.0542
  706MOL0     N95226   9.370   6.917   1.243 -0.5062  0.2087 -0.5895
  706MOL0     N95227   9.288   6.819   1.228 -0.4812  0.3262  0.1965
  706MOL0     C95228   8.854   6.904   1.894  0.5746 -0.3749  0.6090
  706MOL0     C95229   8.863   7.031   1.837 -0.0456  0.0062  0.2255
  706MOL0     C95230   9.020   7.365   1.611  0.3353 -0.2629 -1.0160
  706MOL0     C95231   8.911   7.422   1.539 -0.5398  0.2570 -0.7421
  706MOL0     C95232   8.920   7.556   1.484  1.0582  0.5044 -0.0782
  706MOL0     C95233   9.044   7.615   1.498  1.5760  0.5992 -0.6345
  706MOL0     O95234   9.056   7.745   1.457 -0.1167  0.1799  0.1018
  706MOL0     C95235   8.973   7.843   1.517  0.0070  0.2025 -0.4735
  706MOL0     C95236   8.985   7.980   1.445 -0.1447 -0.2135  0.4141
  706MOL0     C95237   8.978   8.102   1.537 -1.0326  0.1154 -0.3184
  706MOL0     C95238   9.076   8.206   1.490 -0.5046  0.3977  0.0635
  706MOL0     C95239   9.082   8.320   1.585 -0.4704 -0.1562  0.3013
  706MOL0     C95240   9.074   8.424   1.662 -0.1304  0.1189 -0.0215
  706MOL0     C95241   9.151   7.557   1.556  0.2243 -0.7532  0.7576
  706MOL0     C95242   9.142   7.433   1.620  0.2854 -0.0067 -0.2208
  706MOL0     H95243   8.870   6.950   1.512  1.9984 -1.2372  0.3530
  706MOL0     H95244   8.866   6.741   1.594 -0.0214 -0.2096 -0.8756
  706MOL0     H95245   9.007   6.609   1.795  0.5869 -1.4615 -0.5966
  706MOL0     H95246   8.929   6.503   1.912 -2.6707 -0.5598 -0.5223
  706MOL0     H95247   8.781   6.397   1.751  1.0165  0.6859  2.4571
  706MOL0     H95248   8.786   6.531   1.646 -1.9850 -0.3811  1.6804
  706MOL0     H95249   9.040   6.375   1.693  0.6528 -1.4732 -0.5304
  706MOL0     H95250   8.926   6.332   1.574  0.0898 -0.1256  1.1561
  706MOL0     H95251   8.943   6.553   1.470 -0.8818 -2.4347 -0.4194
  706MOL0     H95252   9.085   6.585   1.570 -0.2608  1.0244 -0.3232
  706MOL0     H95253   9.206   6.404   1.474  2.6067 -0.9482 -4.3214
  706MOL0     H95254   9.059   6.343   1.408 -1.0991  0.5046  0.7885
  706MOL0     H95255   9.042   6.545   1.262 -1.3666  0.4297  1.8340
  706MOL0     H95256   9.176   6.624   1.354  0.8038 -1.1643  3.7422
  706MOL0     H95257   9.334   6.456   1.268  0.9052  0.3871 -0.3838
  706MOL0     H95258   9.197   6.391   1.173 -3.2901 -0.6020  4.9157
  706MOL0     H95259   9.194   6.629   1.061  1.7228  2.0004 -1.9074
  706MOL0     H95260   9.346   6.554   1.038 -0.5279 -1.8238  1.7677
  706MOL0     H95261   9.569   6.668   1.149 -1.0647 -2.8451 -0.0426
  706MOL0     H95262   9.611   7.013   1.338  1.7687  1.9863 -1.5152
  706MOL0     H95263   9.704   6.864   1.291  0.6399  1.3881 -0.7651
  706MOL0     H95264   9.588   7.098   1.121 -0.1354 -2.3012 -1.0814
  706MOL0     H95265   9.674   6.969   1.047  1.7778  2.2437 -0.9113
  706MOL0     H95266   9.782   7.163   1.245 -3.6412 -2.1359  0.6264
  706MOL0     H95267   9.812   7.171   1.070 -1.9303  2.3517  1.3291
  706MOL0     H95268   9.950   6.951   1.092  0.9207 -0.3667  0.2727
  706MOL0     H95269   9.903   6.951   1.258  0.0196  1.3960  0.6091
  706MOL0     H95270  10.132   6.850   1.211 -3.2129  0.8007 -0.5548
  706MOL0     H95271  10.362   6.708   1.335  2.3078 -0.6738  0.6142
  706MOL0     H95272  10.315   6.722   1.170 -1.5542  0.1260  1.8797
  706MOL0     H95273  10.481   6.772   1.216 -1.0853  1.8283 -3.3489
  706MOL0     H95274  10.642   6.997   1.751  0.1532  2.1459  2.8430
  706MOL0     H95275  10.818   7.067   1.870 -3.5485  2.4294 -0.6085
  706MOL0     H95276  11.086   7.163   1.944  0.7128 -1.0205  1.2516
  706MOL0     H95277  11.033   7.004   1.893 -0.9019  0.6629  0.0009
  706MOL0     H95278  11.319   7.116   1.853  1.7209 -0.4609  1.5730
  706MOL0     H95279  11.248   7.024   1.994 -1.5624 -0.2322  0.1053
  706MOL0     H95280  11.249   6.934   1.702  1.6787 -3.3756 -1.5775
  706MOL0     H95281  11.229   6.823   1.830 -0.8964 -0.1890 -0.4581
  706MOL0     H95282  11.500   6.964   1.786  0.7310 -1.5108 -0.4493
  706MOL0     H95283  11.461   6.863   1.929 -2.4479  0.9552  0.7554
  706MOL0     H95284  11.468   6.787   1.626  1.3959  2.1799  0.1210
  706MOL0     H95285  11.425   6.670   1.755  2.1609 -1.0346  2.2819
  706MOL0     H95286  11.655   6.738   1.864  0.7855 -0.7798  0.1358
  706MOL0     H95287  11.669   6.646   1.717  0.3706  1.5085 -2.5426
  706MOL0     H95288  11.728   6.943   1.729  1.8347  1.3984 -1.5099
  706MOL0     H95289  11.697   6.841   1.586 -1.9146  0.4537  0.9192
  706MOL0     H95290  11.904   6.698   1.674 -1.8990 -1.1377 -2.7488
  706MOL0     H95291  11.904   6.808   1.807  2.6433  0.7165 -1.0616
  706MOL0     H95292  11.018   7.132   1.482 -1.7963  0.0690 -2.0158
  706MOL0     H95293  10.824   7.081   1.372 -0.7495  2.4338 -0.1504
  706MOL0     H95294  10.424   7.207   1.396 -0.7728 -0.3191 -0.3463
  706MOL0     H95295  10.174   7.260   1.335 -4.1075 -2.0411  2.1055
  706MOL0     H95296   8.832   6.895   2.000  0.5526  1.9265  0.8381
  706MOL0     H95297   8.861   7.113   1.908 -1.1723 -0.7734  1.1467
  706MOL0     H95298   8.816   7.374   1.519 -0.8788  0.0886  1.0662
  706MOL0     H95299   8.827   7.599   1.449  1.2190  0.5187 -0.4957
  706MOL0     H95300   8.870   7.809   1.508  0.4855 -2.2845  2.1610
  706MOL0     H95301   9.007   7.857   1.620  2.1524  2.1725 -1.3700
  706MOL0     H95302   8.917   7.989   1.360  1.7226  0.4130 -1.0872
  706MOL0     H95303   9.084   7.987   1.399  0.7983  1.1060  2.4881
  706MOL0     H95304   9.031   8.069   1.627  0.8109 -0.1218 -1.4582
  706MOL0     H95305   8.874   8.138   1.547 -0.8238  1.0687 -1.4284
  706MOL0     H95306   9.059   8.235   1.386  1.9564 -2.7383 -1.3365
  706MOL0     H95307   9.178   8.169   1.495  0.0541  1.4086 -2.3927
  706MOL0     H95308   9.059   8.510   1.723  1.0109 -0.0854  0.5776
  706MOL0     H95309   9.242   7.611   1.583 -1.4493  0.3417  4.9520
  706MOL0     H95310   9.236   7.403   1.665  0.7290 -0.4830 -1.4371
  707MOL0     O95311   9.907   0.215   7.058  0.0774 -0.0322 -0.3408
  707MOL0     C95312   9.873   0.227   6.938 -0.0218  1.2390  1.0571
  707MOL0     O95313   9.896   0.339   6.861 -0.0120  0.0588  1.0209
  707MOL0     C95314   9.939   0.454   6.913 -1.0046  0.0093  0.5265
  707MOL0     C95315  10.045   0.469   7.009 -0.6462 -0.2531 -0.6553
  707MOL0     C95316  10.083   0.594   7.052  0.0336 -0.3311  0.7712
  707MOL0     C95317  10.030   0.702   6.992  0.8811 -0.0580  0.0735
  707MOL0     O95318  10.050   0.835   7.037  0.5739 -0.6946  0.3896
  707MOL0     C95319  10.164   0.869   7.115  0.0114 -0.0469  0.0443
  707MOL0     C95320  10.199   1.017   7.108  0.6771 -0.3636  0.3207
  707MOL0     C95321  10.213   1.076   6.970  0.3129 -0.0640 -0.5028
  707MOL0     C95322  10.326   1.031   6.882  0.3625 -0.7786 -0.5642
  707MOL0     C95323  10.332   1.087   6.739  0.3599  0.1262 -0.3634
  707MOL0     C95324  10.471   1.071   6.672  0.7751  0.2850 -0.4223
  707MOL0     C95325  10.496   1.126   6.533 -0.1583 -0.7853 -0.6184
  707MOL0     C95326  10.418   1.047   6.428 -0.0458  0.9268 -0.5320
  707MOL0     N95327  10.465   0.913   6.400 -0.7519 -0.4945 -0.1341
  707MOL0     C95328  10.438   0.807   6.477  0.0437  0.7020  0.8919
  707MOL0     C95329  10.505   0.702   6.426 -0.9848 -0.0321 -1.7252
  707MOL0     C95330  10.502   0.564   6.487 -0.4345 -0.4391  0.2516
  707MOL0     C95331  10.408   0.475   6.393  0.0115  0.6124 -0.2460
  707MOL0     C95332  10.447   0.462   6.246  0.1024 -0.3291 -0.1279
  707MOL0     C95333  10.370   0.347   6.175 -0.3898  0.4161 -1.0423
  707MOL0     O95334  10.385   0.218   6.245  0.5366 -0.5809  0.0389
  707MOL0     C95335  10.380   0.113   6.157  0.0958 -0.1920  0.2819
  707MOL0     C95336  10.464   0.102   6.045  0.2148 -0.2775 -0.1887
  707MOL0     C95337  10.479  -0.020   5.967  0.7765  0.0695  0.2141
  707MOL0     C95338  10.569  -0.020   5.852 -0.1992  0.2128 -0.8980
  707MOL0     C95339  10.387  -0.116   5.991  0.2060  0.1394 -0.1706
  707MOL0     C95340  10.362  -0.231   5.895  0.1690 -0.4141 -0.0930
  707MOL0     O95341  10.457  -0.282   5.822 -0.0899  0.6728 -0.5556
  707MOL0     C95342  10.401  -0.370   5.724 -0.2913 -0.9571  0.3239
  707MOL0     C95343  10.396  -0.310   5.593 -0.6117  0.6351 -0.3503
  707MOL0     C95344  10.356  -0.397   5.490  0.1410 -1.3394  0.2498
  707MOL0     C95345  10.313  -0.533   5.516  0.2670 -0.2098 -0.7099
  707MOL0     O95346  10.272  -0.613   5.417 -0.0353  0.4229  0.3518
  707MOL0     C95347  10.333  -0.592   5.280 -0.3570  0.9745  0.4900
  707MOL0     C95348  10.213  -0.603   5.186 -0.0285  0.6314  0.1978
  707MOL0     C95349  10.257  -0.624   5.039  0.1958  0.4172  0.6812
  707MOL0     C95350  10.302  -0.763   5.000 -0.0307 -0.6253  0.2683
  707MOL0     C95351  10.194  -0.862   4.992 -0.2221  0.3236 -0.8369
  707MOL0     C95352  10.243  -0.998   4.967  0.5504  0.2981  0.0368
  707MOL0     C95353  10.127  -1.102   4.970 -0.1890 -0.8835  0.0408
  707MOL0     C95354  10.184  -1.239   4.941 -0.3265 -0.0272 -0.3654
  707MOL0    Cl95355  10.301  -1.301   5.060 -0.0734  0.0953  0.1434
  707MOL0     C95356  10.314  -0.577   5.649 -0.1487  0.4735  0.3205
  707MOL0     C95357  10.367  -0.503   5.751  0.7604 -0.2309 -0.1565
  707MOL0     O95358  10.244  -0.259   5.896  0.1855  0.5841 -0.0240
  707MOL0     C95359  10.310  -0.114   6.100  0.1776 -0.2969 -0.8090
  707MOL0     C95360  10.304   0.004   6.176 -0.1154 -0.2470 -0.5061
  707MOL0     N95361  10.566   0.749   6.310  0.4842  0.2167 -0.2174
  707MOL0     N95362  10.559   0.879   6.304 -0.3325 -0.2001  0.1101
  707MOL0     C95363   9.937   0.695   6.886 -0.5458  0.8173 -0.1397
  707MOL0     C95364   9.887   0.571   6.857 -0.4615 -0.4362  0.6238
  707MOL0     C95365   9.827   0.100   6.862 -0.1292 -0.3453  0.1651
  707MOL0     C95366   9.819   0.090   6.719 -0.9319  0.2040  0.4201
  707MOL0     C95367   9.772  -0.024   6.655  0.0357  0.0028  0.7965
  707MOL0     C95368   9.750  -0.144   6.731 -1.4648  0.5082  0.9248
  707MOL0     O95369   9.721  -0.265   6.671 -0.0306  0.7066 -0.5736
  707MOL0     C95370   9.828  -0.338   6.612  0.2601  0.4325  0.2157
  707MOL0     C95371   9.935  -0.399   6.709 -0.0317  0.2163 -0.1799
  707MOL0     C95372   9.873  -0.506   6.793 -0.4686  0.3131  0.4676
  707MOL0     C95373   9.974  -0.598   6.860  0.3408 -0.2469  0.5092
  707MOL0     C95374   9.921  -0.680   6.975 -0.4850 -0.3980  0.0493
  707MOL0     C95375   9.883  -0.743   7.072 -0.1912  0.4978  0.0903
  707MOL0     C95376   9.749  -0.133   6.867  1.0001 -0.6341  0.4192
  707MOL0     C95377   9.783  -0.014   6.926  0.3136 -0.2942 -0.6511
  707MOL0     H95378  10.096   0.374   7.019 -2.2134 -1.2336 -1.6563
  707MOL0     H95379  10.174   0.597   7.111  1.6111 -2.3914 -1.3695
  707MOL0     H95380  10.169   0.836   7.219 -0.6518  0.4585  0.2422
  707MOL0     H95381  10.252   0.814   7.078  0.6479 -1.4266  3.3031
  707MOL0     H95382  10.127   1.071   7.170  0.5265 -1.6196  1.2740
  707MOL0     H95383  10.299   1.032   7.150  1.1887 -1.0645 -0.6124
  707MOL0     H95384  10.121   1.055   6.915  1.4388 -2.7663 -1.5458
  707MOL0     H95385  10.210   1.184   6.983  1.3636 -0.3588  3.1811
  707MOL0     H95386  10.419   1.052   6.936 -0.7695  0.4902  0.9770
  707MOL0     H95387  10.312   0.923   6.873 -0.3434 -0.6641 -0.8928
  707MOL0     H95388  10.250   1.031   6.694 -0.8335 -0.9133  2.8448
  707MOL0     H95389  10.311   1.194   6.729 -4.0309 -0.6622 -1.7128
  707MOL0     H95390  10.541   1.127   6.737 -1.0042 -0.0806  1.9411
  707MOL0     H95391  10.508   0.968   6.675  0.0668  0.0206  2.0911
  707MOL0     H95392  10.465   1.231   6.529 -0.6607 -0.9267 -0.4267
  707MOL0     H95393  10.605   1.126   6.525 -0.1158  3.3449 -3.8898
  707MOL0     H95394  10.409   1.100   6.333  1.2909  1.6435 -0.2837
  707MOL0     H95395  10.313   1.034   6.456 -0.1555 -1.9293 -1.9049
  707MOL0     H95396  10.383   0.795   6.570  4.2217 -2.2141  3.3369
  707MOL0     H95397  10.607   0.534   6.493 -0.6041 -0.8405  1.3601
  707MOL0     H95398  10.482   0.571   6.595  3.1980 -0.0282  1.0178
  707MOL0     H95399  10.304   0.507   6.404 -0.6437 -1.4635 -0.0016
  707MOL0     H95400  10.413   0.369   6.421 -3.8860 -0.3682 -2.4799
  707MOL0     H95401  10.555   0.443   6.252  0.7809  1.8037 -3.3102
  707MOL0     H95402  10.450   0.560   6.197  1.2777  0.5195  1.5043
  707MOL0     H95403  10.399   0.333   6.070 -0.4557 -2.6794 -0.7494
  707MOL0     H95404  10.265   0.376   6.167 -0.3304  0.3050 -2.4133
  707MOL0     H95405  10.527   0.187   6.025 -4.3610  3.0457 -2.3232
  707MOL0     H95406  10.635  -0.107   5.851 -0.1746  0.2275 -0.7306
  707MOL0     H95407  10.515  -0.029   5.758  0.8782 -2.9021 -1.3298
  707MOL0     H95408  10.626   0.074   5.847  0.6476 -0.2958 -0.9541
  707MOL0     H95409  10.435  -0.211   5.569  0.8264 -0.3388 -2.2353
  707MOL0     H95410  10.344  -0.339   5.399 -3.4386  0.9212  1.9495
  707MOL0     H95411  10.386  -0.498   5.263 -1.0037  1.5616  1.6036
  707MOL0     H95412  10.394  -0.682   5.264 -0.8783  1.0117 -2.0952
  707MOL0     H95413  10.143  -0.680   5.218  2.2436 -3.2524 -3.2033
  707MOL0     H95414  10.156  -0.510   5.192  0.5374  0.9576  0.6698
  707MOL0     H95415  10.326  -0.556   4.988  1.1278 -2.2706 -1.9735
  707MOL0     H95416  10.159  -0.608   4.993 -1.3147  0.1287  3.5824
  707MOL0     H95417  10.354  -0.745   4.906 -3.4222  0.3512 -1.5864
  707MOL0     H95418  10.375  -0.790   5.077  2.4811 -0.0992 -1.7805
  707MOL0     H95419  10.115  -0.831   4.923 -1.2044  1.2915  0.6453
  707MOL0     H95420  10.147  -0.862   5.091 -1.4388  1.0766 -1.3905
  707MOL0     H95421  10.272  -0.997   4.862  1.8548 -3.6447  0.2035
  707MOL0     H95422  10.331  -1.027   5.025  3.7919  0.8188 -4.1122
  707MOL0     H95423  10.053  -1.082   4.892 -2.5090  0.1262  2.3443
  707MOL0     H95424  10.070  -1.097   5.063 -2.1618  2.0148 -1.1803
  707MOL0     H95425  10.242  -1.243   4.849  3.3427 -0.7459  1.7829
  707MOL0     H95426  10.105  -1.316   4.938 -0.0864 -0.3047  0.2077
  707MOL0     H95427  10.286  -0.680   5.669 -0.3034  0.8560  2.2949
  707MOL0     H95428  10.387  -0.553   5.846  0.1530  2.5971  1.5962
  707MOL0     H95429  10.237  -0.193   6.117 -1.0900  0.8555 -0.6490
  707MOL0     H95430  10.252   0.007   6.272  2.5232  3.5765  1.0448
  707MOL0     H95431   9.906   0.786   6.836 -1.5141  1.8680  2.1799
  707MOL0     H95432   9.814   0.566   6.777  0.3150  2.0262 -0.3640
  707MOL0     H95433   9.849   0.175   6.660 -0.1351 -1.0397 -1.0245
  707MOL0     H95434   9.775  -0.029   6.547  0.3244  2.2872  0.6407
  707MOL0     H95435   9.794  -0.416   6.544 -0.5470  2.5844 -1.9570
  707MOL0     H95436   9.886  -0.265   6.555 -1.1774  1.6431  0.2514
  707MOL0     H95437   9.968  -0.320   6.778 -1.4352 -0.9829  1.9880
  707MOL0     H95438  10.019  -0.440   6.653  0.2632 -0.4649  0.7478
  707MOL0     H95439   9.802  -0.563   6.732  0.5687 -1.2716  0.6532
  707MOL0     H95440   9.818  -0.460   6.875 -0.6541 -0.2949  0.6950
  707MOL0     H95441  10.064  -0.545   6.893  0.9903 -0.0912 -1.3351
  707MOL0     H95442  10.004  -0.671   6.784 -0.1518 -1.1465  1.1685
  707MOL0     H95443   9.838  -0.821   7.131 -0.8304  0.9128  0.1585
  707MOL0     H95444   9.710  -0.217   6.923  1.9665 -0.6300  1.1234
  707MOL0     H95445   9.782  -0.005   7.035 -1.0872 -3.0062 -0.3524
  708MOL0     O95446  10.127   2.829   4.227 -0.2041 -0.1893  0.3568
  708MOL0     C95447  10.058   2.729   4.265  0.7085 -0.1840  0.0632
  708MOL0     O95448   9.983   2.712   4.377 -0.2914 -0.0355  0.3979
  708MOL0     C95449   9.979   2.825   4.457  1.1891  0.3991 -0.9526
  708MOL0     C95450   9.921   2.942   4.419 -0.2917 -0.3788  0.4794
  708MOL0     C95451   9.892   3.040   4.513  0.4242  0.0460  0.3172
  708MOL0     C95452   9.915   3.022   4.648  0.3131 -0.5095 -0.3081
  708MOL0     O95453   9.864   3.121   4.731 -0.0758  0.6070 -0.2937
  708MOL0     C95454   9.886   3.125   4.871 -0.6164  0.6746  0.6026
  708MOL0     C95455   9.816   3.256   4.925 -0.4151 -0.4374 -0.3234
  708MOL0     C95456   9.861   3.282   5.077  0.4916  0.0619  0.1874
  708MOL0     C95457   9.809   3.160   5.163  0.0143  0.3286 -0.4994
  708MOL0     C95458   9.806   3.198   5.312 -0.3754  0.1080 -0.6976
  708MOL0     C95459   9.739   3.084   5.396  0.0188 -0.6190 -0.0573
  708MOL0     C95460   9.586   3.058   5.372 -0.4215 -0.0646 -0.2076
  708MOL0     C95461   9.524   3.011   5.509 -0.6063  0.4288  0.1837
  708MOL0     N95462   9.549   2.869   5.540 -0.6747  0.8050  0.1315
  708MOL0     C95463   9.676   2.814   5.567  0.5806  0.3490  0.5709
  708MOL0     C95464   9.659   2.679   5.543 -0.6482 -0.5348 -0.2024
  708MOL0     C95465   9.760   2.582   5.560  0.8408  0.0144 -0.3770
  708MOL0     C95466   9.740   2.515   5.704  0.0319 -0.9279 -0.4494
  708MOL0     C95467   9.869   2.496   5.782 -0.2015  0.4854  0.3314
  708MOL0     C95468   9.852   2.406   5.913  0.1933  0.5121 -0.5524
  708MOL0     O95469   9.969   2.400   5.998  0.1694  0.2083 -0.3609
  708MOL0     C95470   9.987   2.502   6.084  0.6535 -0.3108 -0.1042
  708MOL0     C95471  10.096   2.494   6.171 -0.8287  0.2299 -0.3229
  708MOL0     C95472  10.129   2.577   6.269  0.0640  0.2150 -0.0492
  708MOL0     C95473  10.256   2.555   6.356 -0.2199  0.1752  0.4508
  708MOL0     C95474  10.036   2.684   6.301  0.1839  0.1002 -0.0669
  708MOL0     C95475  10.042   2.766   6.426 -0.4205  0.5442  0.2940
  708MOL0     O95476   9.948   2.859   6.427 -0.3262 -0.5240 -0.0750
  708MOL0     C95477   9.950   2.954   6.529  0.2543  0.0322  0.2388
  708MOL0     C95478  10.059   3.045   6.540  0.0077  1.2599  0.2951
  708MOL0     C95479  10.057   3.152   6.625  0.7753  0.0344  0.1144
  708MOL0     C95480   9.945   3.183   6.702 -0.0061  0.2940 -1.1195
  708MOL0     O95481   9.927   3.299   6.770  0.4148  0.0574 -0.2969
  708MOL0     C95482   9.961   3.311   6.915  0.2561  0.7379  0.9646
  708MOL0     C95483   9.948   3.456   6.946  0.1635  0.0899 -0.0090
  708MOL0     C95484   9.964   3.476   7.099 -0.6704  0.9734 -0.1167
  708MOL0     C95485   9.967   3.615   7.149  0.1484 -0.6199 -0.7174
  708MOL0     C95486   9.956   3.634   7.294 -0.4716 -0.3807 -0.5070
  708MOL0     C95487   9.945   3.783   7.328  0.2416 -0.4947 -0.5220
  708MOL0     C95488  10.081   3.865   7.329  0.1541 -0.0363  0.4280
  708MOL0     C95489  10.058   3.995   7.412 -0.4454  0.5746  0.7780
  708MOL0    Cl95490  10.183   4.118   7.392 -0.1402  0.0220 -0.3693
  708MOL0     C95491   9.837   3.092   6.695  0.8953 -0.3578  0.7665
  708MOL0     C95492   9.838   2.973   6.616 -0.9772  0.2047 -0.2815
  708MOL0     O95493  10.119   2.735   6.521  0.8564  0.6216 -0.2121
  708MOL0     C95494   9.936   2.705   6.204  0.5794 -0.0844  1.0688
  708MOL0     C95495   9.907   2.619   6.088 -0.1835  0.4814 -0.5311
  708MOL0     N95496   9.527   2.657   5.501 -0.2578 -0.0785  1.4419
  708MOL0     N95497   9.465   2.762   5.498  0.4376 -0.2127 -0.1828
  708MOL0     C95498   9.971   2.901   4.683  0.2777  0.3648 -0.0452
  708MOL0     C95499  10.006   2.805   4.592 -0.8674  0.0836  0.3749
  708MOL0     C95500  10.043   2.615   4.167 -0.5352 -0.7845 -0.4829
  708MOL0     C95501  10.138   2.592   4.075 -0.5412  0.3043  1.0432
  708MOL0     C95502  10.145   2.481   3.991  0.3913 -0.5429  0.0370
  708MOL0     C95503  10.038   2.392   3.985  0.7956 -0.0770 -0.1832
  708MOL0     O95504  10.042   2.286   3.895 -0.5256 -0.7538  1.0188
  708MOL0     C95505   9.934   2.196   3.887  0.1121  0.1900 -0.1037
  708MOL0     C95506   9.956   2.079   3.790 -0.4610 -0.1690 -0.8847
  708MOL0     C95507   9.841   1.991   3.773  0.7687  0.1957  0.1644
  708MOL0     C95508   9.884   1.861   3.705 -0.4340 -0.7409  0.0277
  708MOL0     C95509   9.933   1.871   3.569 -0.4436 -0.4315 -0.9542
  708MOL0     C95510   9.982   1.893   3.456  0.1543 -1.2802 -0.4903
  708MOL0     C95511   9.938   2.407   4.092 -0.3083  0.9292  0.7394
  708MOL0     C95512   9.937   2.522   4.179 -0.0054 -0.4245  0.5936
  708MOL0     H95513   9.889   2.961   4.317  0.9708 -0.7161 -0.0039
  708MOL0     H95514   9.833   3.126   4.482 -1.0945 -0.2629  2.1722
  708MOL0     H95515   9.841   3.041   4.924 -1.9374  1.3918  0.6921
  708MOL0     H95516   9.993   3.138   4.889 -0.6845 -0.5176  2.0513
  708MOL0     H95517   9.834   3.337   4.854 -1.1165 -0.7327 -0.8412
  708MOL0     H95518   9.708   3.241   4.923 -0.2250 -1.9867 -0.0230
  708MOL0     H95519   9.970   3.289   5.083  0.7442 -0.0840 -2.8104
  708MOL0     H95520   9.812   3.375   5.105  0.9286  0.3910 -0.1279
  708MOL0     H95521   9.708   3.146   5.124 -0.7168 -0.4182  1.5131
  708MOL0     H95522   9.865   3.070   5.136 -0.5338  0.6974 -3.1576
  708MOL0     H95523   9.910   3.225   5.336 -0.9737  0.7943  1.2575
  708MOL0     H95524   9.745   3.288   5.308 -2.5192 -1.1857  0.9614
  708MOL0     H95525   9.787   2.986   5.383  0.3240 -0.6738  1.3762
  708MOL0     H95526   9.731   3.116   5.500 -6.2232 -0.6045 -0.1768
  708MOL0     H95527   9.535   3.154   5.361 -2.3336 -0.6317  2.5203
  708MOL0     H95528   9.567   2.996   5.285 -1.9345 -0.0254  0.0758
  708MOL0     H95529   9.416   3.022   5.511 -0.6852  1.2705 -3.1944
  708MOL0     H95530   9.566   3.072   5.589 -0.3514 -0.1213  0.4734
  708MOL0     H95531   9.768   2.861   5.602  2.2126 -3.1792  1.4912
  708MOL0     H95532   9.769   2.503   5.484  0.9452 -0.7075  0.3610
  708MOL0     H95533   9.863   2.619   5.550  0.5379  0.4041 -2.3247
  708MOL0     H95534   9.703   2.413   5.687 -0.3587 -0.5229 -2.2440
  708MOL0     H95535   9.665   2.568   5.763  0.7576 -2.5710  2.1494
  708MOL0     H95536   9.909   2.596   5.802 -1.1567  1.6651 -2.9969
  708MOL0     H95537   9.936   2.443   5.713 -0.8085 -3.5369  2.5297
  708MOL0     H95538   9.831   2.307   5.872 -1.2607  0.0691  1.1170
  708MOL0     H95539   9.764   2.433   5.973  1.2040  0.7746  0.8453
  708MOL0     H95540  10.161   2.407   6.160  0.0788  1.1113 -2.5349
  708MOL0     H95541  10.299   2.656   6.353  1.1600 -0.1541  3.9649
  708MOL0     H95542  10.226   2.518   6.454  1.6057 -0.3238  0.8718
  708MOL0     H95543  10.320   2.477   6.315  0.6753  1.6239 -1.0757
  708MOL0     H95544  10.142   3.031   6.472 -0.9669 -0.7469 -0.5816
  708MOL0     H95545  10.133   3.226   6.605  1.8284 -1.8431 -3.5492
  708MOL0     H95546   9.892   3.248   6.971 -3.1934  2.3433 -1.0862
  708MOL0     H95547  10.064   3.278   6.928 -0.1719 -0.8336  0.6125
  708MOL0     H95548  10.024   3.512   6.892  1.5485 -0.3958  1.3701
  708MOL0     H95549   9.851   3.492   6.910 -0.6503  0.4648  2.3646
  708MOL0     H95550  10.061   3.435   7.127 -1.2722 -1.0192 -0.7576
  708MOL0     H95551   9.895   3.414   7.157 -1.7380  1.2257 -1.0816
  708MOL0     H95552  10.062   3.651   7.109  1.0592 -1.6111  0.4772
  708MOL0     H95553   9.878   3.659   7.102  0.6787  1.2730 -0.0682
  708MOL0     H95554  10.048   3.604   7.345  0.1622  0.9495 -0.8240
  708MOL0     H95555   9.877   3.582   7.349  0.5995 -1.5820 -0.0575
  708MOL0     H95556   9.877   3.836   7.262  0.3767  1.8070  1.0735
  708MOL0     H95557   9.893   3.785   7.425 -1.4109 -0.9911 -1.3645
  708MOL0     H95558  10.089   3.905   7.227 -0.9897  1.8504  1.0206
  708MOL0     H95559  10.157   3.800   7.373 -0.6012  0.0585  1.9342
  708MOL0     H95560  10.059   3.978   7.520 -4.1346  2.1217  1.1819
  708MOL0     H95561   9.959   4.037   7.394 -0.4209 -0.0493 -0.9863
  708MOL0     H95562   9.759   3.095   6.770  1.1809 -2.3007  1.1918
  708MOL0     H95563   9.747   2.915   6.601 -1.6908  1.4822 -1.0551
  708MOL0     H95564   9.865   2.787   6.213 -0.2399  0.1135 -3.9879
  708MOL0     H95565   9.814   2.642   6.036 -3.4696 -4.5594  2.3089
  708MOL0     H95566  10.002   2.875   4.784 -0.0357 -1.6439 -0.4205
  708MOL0     H95567  10.042   2.707   4.621  0.7258  0.9651  1.4660
  708MOL0     H95568  10.223   2.660   4.065 -1.9631  2.4629  2.6419
  708MOL0     H95569  10.223   2.471   3.916  0.7915  0.0688  0.3694
  708MOL0     H95570   9.930   2.143   3.983  2.0183 -0.5105 -0.3657
  708MOL0     H95571   9.848   2.261   3.870 -0.8956  0.6441  5.1369
  708MOL0     H95572  10.050   2.025   3.807  0.8239  2.5253  1.4892
  708MOL0     H95573   9.979   2.126   3.694 -0.0768  0.3902 -0.5251
  708MOL0     H95574   9.764   2.047   3.719  2.1385  2.4279  0.4024
  708MOL0     H95575   9.797   1.980   3.873  2.0693  5.2138  1.5877
  708MOL0     H95576   9.797   1.795   3.693 -2.5141  1.8652 -0.2106
  708MOL0     H95577   9.959   1.804   3.761 -0.3490 -1.4316 -0.7688
  708MOL0     H95578  10.024   1.935   3.367  0.7230 -2.1171 -0.6234
  708MOL0     H95579   9.863   2.330   4.108 -0.6699  1.2093  0.4153
  708MOL0     H95580   9.861   2.539   4.256 -1.7321  0.6289 -1.2503
  709MOL0     O95581   7.142   6.844   5.158  0.0659  0.4323  0.0697
  709MOL0     C95582   7.061   6.807   5.066  0.1814 -0.4036 -0.0813
  709MOL0     O95583   6.935   6.846   5.061  0.5305  0.0503  0.3535
  709MOL0     C95584   6.888   6.926   5.156  0.2304 -0.4588 -0.2526
  709MOL0     C95585   6.820   6.870   5.273  0.4210  1.1979  1.0516
  709MOL0     C95586   6.773   6.952   5.375  0.7663  0.5761  0.8741
  709MOL0     C95587   6.816   7.091   5.376 -0.9000 -0.2525 -0.4334
  709MOL0     O95588   6.778   7.155   5.490  0.6198 -0.2979 -0.1210
  709MOL0     C95589   6.838   7.278   5.505  0.1215 -0.0414  0.4890
  709MOL0     C95590   6.800   7.339   5.648  0.3260  0.2512  0.2218
  709MOL0     C95591   6.864   7.478   5.669  0.4775  0.6483  0.1762
  709MOL0     C95592   6.851   7.521   5.815  0.3235  0.3374 -0.2807
  709MOL0     C95593   6.946   7.451   5.909  0.1257  0.0599  0.3295
  709MOL0     C95594   6.901   7.463   6.061 -0.6890  0.0862  0.1642
  709MOL0     C95595   6.959   7.346   6.149 -0.3880 -0.1609 -0.2231
  709MOL0     C95596   6.913   7.360   6.294 -0.9313 -0.9742  0.0627
  709MOL0     N95597   6.941   7.501   6.345 -0.2086  0.3562 -0.1459
  709MOL0     C95598   7.046   7.544   6.424  0.1320 -0.5032  0.5685
  709MOL0     C95599   6.998   7.653   6.487  0.3197 -1.2676 -0.2361
  709MOL0     C95600   7.068   7.746   6.587 -0.0351  0.2714  0.2303
  709MOL0     C95601   7.120   7.887   6.530  0.3183  0.0084 -0.2064
  709MOL0     C95602   7.221   7.868   6.424 -0.3861 -0.4046  1.0833
  709MOL0     C95603   7.217   7.981   6.331 -0.6826 -0.2416 -0.4964
  709MOL0     O95604   7.336   7.964   6.259 -0.5474 -0.2819 -0.5528
  709MOL0     C95605   7.383   8.069   6.182  1.3814 -0.0935  0.0547
  709MOL0     C95606   7.299   8.178   6.150 -1.0310 -0.4501  0.1645
  709MOL0     C95607   7.345   8.283   6.072 -0.1063  0.3542 -0.2838
  709MOL0     C95608   7.266   8.406   6.053  0.2148 -0.4911 -0.3516
  709MOL0     C95609   7.472   8.266   6.007  0.3692 -0.7309  0.3603
  709MOL0     C95610   7.538   8.375   5.920 -0.3824 -0.9145  0.5936
  709MOL0     O95611   7.473   8.442   5.826 -0.2885  0.3836  0.4723
  709MOL0     C95612   7.548   8.505   5.731  0.4040  0.7752  0.9193
  709MOL0     C95613   7.594   8.634   5.755  0.3240  0.0117 -0.6510
  709MOL0     C95614   7.669   8.702   5.661 -0.0837  0.0835 -1.1127
  709MOL0     C95615   7.696   8.637   5.540  0.0852  0.7570  0.2604
  709MOL0     O95616   7.775   8.710   5.450 -0.4636  0.3296 -0.3375
  709MOL0     C95617   7.826   8.653   5.335  0.6626  0.7129 -0.9004
  709MOL0     C95618   7.948   8.723   5.274 -0.1888  0.7466 -0.5588
  709MOL0     C95619   8.071   8.702   5.366 -0.5618  0.4071  0.2841
  709MOL0     C95620   8.183   8.793   5.315  0.0573 -0.3577  0.5860
  709MOL0     C95621   8.299   8.813   5.416 -0.0281  0.5222 -0.0766
  709MOL0     C95622   8.409   8.917   5.372 -0.4489  0.5946  1.0429
  709MOL0     C95623   8.530   8.904   5.464  0.4861  0.0703 -0.2120
  709MOL0     C95624   8.667   8.927   5.398  0.1991  0.1309 -0.0318
  709MOL0    Cl95625   8.686   9.081   5.297 -0.4648  0.0299 -0.1697
  709MOL0     C95626   7.643   8.510   5.508  1.0301  0.3216 -0.4956
  709MOL0     C95627   7.573   8.449   5.609  0.8682 -0.0752  0.9315
  709MOL0     O95628   7.653   8.401   5.954  0.7577  0.1491 -0.2912
  709MOL0     C95629   7.555   8.145   6.038  0.0931 -0.6062  0.0626
  709MOL0     C95630   7.504   8.055   6.123  0.5345  0.9162 -0.3978
  709MOL0     N95631   6.876   7.688   6.435 -0.7849 -0.2599  0.8889
  709MOL0     N95632   6.847   7.597   6.357  0.1659 -0.2331  0.5485
  709MOL0     C95633   6.871   7.149   5.261 -0.0953  0.7342  1.3458
  709MOL0     C95634   6.898   7.064   5.144  0.4316  0.2724 -0.1479
  709MOL0     C95635   7.104   6.705   4.960 -0.7747  0.3897 -0.7605
  709MOL0     C95636   7.202   6.607   5.003  0.7826  0.2720  0.2418
  709MOL0     C95637   7.235   6.502   4.916 -0.4384 -0.0687  0.4913
  709MOL0     C95638   7.183   6.486   4.790  0.0628 -0.4669  0.0852
  709MOL0     O95639   7.226   6.393   4.704 -0.6645  0.2784  1.0325
  709MOL0     C95640   7.361   6.346   4.706  0.2049 -1.5193  0.2685
  709MOL0     C95641   7.453   6.450   4.636  0.2433 -0.2616  0.2559
  709MOL0     C95642   7.401   6.528   4.508 -0.6152  0.0151 -0.7845
  709MOL0     C95643   7.342   6.444   4.397  0.4339 -0.2158  1.1700
  709MOL0     C95644   7.452   6.370   4.329 -0.3619 -0.5832  1.1336
  709MOL0     C95645   7.566   6.332   4.283 -0.3947 -0.0102  0.1376
  709MOL0     C95646   7.081   6.580   4.752 -0.0093 -0.3421 -0.3868
  709MOL0     C95647   7.049   6.693   4.836 -0.8462  0.4699 -0.2662
  709MOL0     H95648   6.809   6.763   5.278  2.8671  0.5163 -3.2914
  709MOL0     H95649   6.725   6.917   5.466  1.5365  0.0031  1.0658
  709MOL0     H95650   6.947   7.266   5.509  0.0884 -1.0676 -0.7975
  709MOL0     H95651   6.814   7.354   5.430  0.2765 -0.1540  0.3256
  709MOL0     H95652   6.691   7.346   5.645  0.4364  2.6037 -2.5407
  709MOL0     H95653   6.831   7.271   5.728 -0.5712 -1.5209 -0.8718
  709MOL0     H95654   6.965   7.475   5.626  1.1646 -1.8566  1.7362
  709MOL0     H95655   6.807   7.545   5.604 -0.9876 -0.6702  0.0441
  709MOL0     H95656   6.863   7.630   5.823 -3.1090  1.0556 -2.5221
  709MOL0     H95657   6.747   7.513   5.848 -0.1719  1.4126 -1.4639
  709MOL0     H95658   6.958   7.346   5.884  1.0402 -0.0928  1.3424
  709MOL0     H95659   7.038   7.510   5.903 -1.2565  2.3196 -0.1573
  709MOL0     H95660   6.949   7.555   6.097  0.9565  0.2626 -2.2278
  709MOL0     H95661   6.792   7.471   6.068 -0.7727  0.1181 -0.9193
  709MOL0     H95662   6.916   7.254   6.107  1.2996 -0.4578 -1.4304
  709MOL0     H95663   7.068   7.349   6.144 -0.4003 -0.8261 -3.7312
  709MOL0     H95664   6.980   7.295   6.352 -0.4763  1.4747  2.4653
  709MOL0     H95665   6.809   7.327   6.301 -1.0961 -0.8224 -1.4515
  709MOL0     H95666   7.132   7.477   6.418  2.0273  1.7687  1.0958
  709MOL0     H95667   7.010   7.767   6.677  2.3604 -0.1490  1.9982
  709MOL0     H95668   7.145   7.682   6.631  0.3777  1.8141  1.8926
  709MOL0     H95669   7.159   7.956   6.605  1.5735  0.7543 -1.5046
  709MOL0     H95670   7.030   7.934   6.489  1.1524  0.5979 -1.4193
  709MOL0     H95671   7.193   7.788   6.354 -2.2622  1.1472 -0.0571
  709MOL0     H95672   7.323   7.856   6.460 -0.3377 -4.5041  0.0990
  709MOL0     H95673   7.204   8.079   6.376 -3.1940  1.7491 -4.9627
  709MOL0     H95674   7.135   7.977   6.259 -1.2276 -2.2921  0.1375
  709MOL0     H95675   7.203   8.193   6.198 -1.4304  1.1636 -1.0394
  709MOL0     H95676   7.193   8.419   6.133 -0.3344 -0.3835 -0.8672
  709MOL0     H95677   7.340   8.485   6.072  0.7273 -1.1864  0.6050
  709MOL0     H95678   7.221   8.412   5.953  0.7277  0.0690 -0.5581
  709MOL0     H95679   7.583   8.685   5.850  5.3706  4.0557 -1.7714
  709MOL0     H95680   7.718   8.794   5.691 -2.5293  1.2809 -0.5613
  709MOL0     H95681   7.857   8.554   5.367 -0.5000  0.6626  0.1648
  709MOL0     H95682   7.751   8.637   5.257  0.6081 -0.3459 -0.6400
  709MOL0     H95683   7.971   8.672   5.180 -1.8673 -2.3482  0.5643
  709MOL0     H95684   7.925   8.830   5.282  0.4669  0.8092  0.6423
  709MOL0     H95685   8.105   8.598   5.364  0.4140  0.6945  1.0332
  709MOL0     H95686   8.047   8.733   5.468 -1.0563 -0.3214  0.3960
  709MOL0     H95687   8.217   8.742   5.224 -2.0130 -4.4313  1.8424
  709MOL0     H95688   8.139   8.890   5.292  1.1716  0.2102  0.7714
  709MOL0     H95689   8.352   8.718   5.428  0.7800  1.0683  0.8668
  709MOL0     H95690   8.256   8.844   5.511 -3.8840 -3.4115 -0.2339
  709MOL0     H95691   8.425   8.905   5.265 -1.9257  0.3514  0.8193
  709MOL0     H95692   8.371   9.020   5.382  0.5474  1.0042  0.7150
  709MOL0     H95693   8.517   8.808   5.513 -3.1966  0.1795 -0.7433
  709MOL0     H95694   8.511   8.973   5.547 -1.1259  1.0079 -1.3109
  709MOL0     H95695   8.679   8.840   5.333  1.1550 -1.0540  1.6740
  709MOL0     H95696   8.748   8.921   5.470 -1.1724  0.8721  1.6556
  709MOL0     H95697   7.656   8.456   5.416 -1.4141 -2.6907  0.7370
  709MOL0     H95698   7.505   8.372   5.575  0.4982  0.7552 -0.2878
  709MOL0     H95699   7.645   8.147   5.978 -0.0206  2.5940 -0.1795
  709MOL0     H95700   7.560   7.972   6.163  0.5493  0.7298 -0.8042
  709MOL0     H95701   6.893   7.255   5.258 -0.0831  0.7185  0.7385
  709MOL0     H95702   6.927   7.107   5.049  0.5305  1.4596  0.3977
  709MOL0     H95703   7.244   6.617   5.103  0.3582  0.5181  0.4009
  709MOL0     H95704   7.308   6.429   4.950  1.1595  1.2437 -0.0116
  709MOL0     H95705   7.402   6.308   4.800  2.9769 -1.6441 -0.8956
  709MOL0     H95706   7.357   6.258   4.640 -1.4288  0.5847 -2.6827
  709MOL0     H95707   7.546   6.400   4.607  0.3109 -0.9391  1.5479
  709MOL0     H95708   7.470   6.530   4.709  0.9860  1.2363 -1.5098
  709MOL0     H95709   7.489   6.586   4.482  2.0860 -3.3726  0.0193
  709MOL0     H95710   7.327   6.601   4.542 -0.1146  1.4252 -2.5760
  709MOL0     H95711   7.291   6.502   4.319  0.2798 -0.8219  0.8121
  709MOL0     H95712   7.268   6.385   4.453 -1.4402  4.2153  3.9072
  709MOL0     H95713   7.665   6.301   4.258 -0.2244 -0.3153  1.1798
  709MOL0     H95714   7.017   6.553   4.668 -0.0946  0.4135 -0.5673
  709MOL0     H95715   6.973   6.764   4.805 -0.4720  0.0942 -2.1862
  710MOL0     O95716  10.289  10.339   2.243  0.1174  0.1457 -0.1862
  710MOL0     C95717  10.398  10.323   2.302  0.1154  0.1715  0.2287
  710MOL0     O95718  10.521  10.282   2.246  0.1491  0.5053  0.0046
  710MOL0     C95719  10.536  10.282   2.106  0.5097  0.0025  0.2402
  710MOL0     C95720  10.440  10.217   2.028 -0.6394 -0.5817 -0.1574
  710MOL0     C95721  10.448  10.228   1.890 -1.2177  0.4059  0.9394
  710MOL0     C95722  10.555  10.290   1.829 -0.0476  0.0284  0.3699
  710MOL0     O95723  10.560  10.272   1.694  0.4134  0.5495  0.6524
  710MOL0     C95724  10.651  10.336   1.612  0.3510  0.8777  0.5045
  710MOL0     C95725  10.620  10.481   1.595  0.0190  0.2869 -0.0166
  710MOL0     C95726  10.502  10.506   1.494 -0.3726  0.1037 -0.8404
  710MOL0     C95727  10.365  10.484   1.563  1.0038 -0.6862  0.5719
  710MOL0     C95728  10.254  10.464   1.451  0.5082 -0.0987 -0.1314
  710MOL0     C95729  10.118  10.445   1.527  0.2774  0.3613  0.9742
  710MOL0     C95730   9.996  10.428   1.441 -0.6340 -0.2026  0.0814
  710MOL0     C95731   9.989  10.295   1.380  0.6652  0.4118 -0.7177
  710MOL0     N95732   9.874  10.284   1.290 -0.8737 -0.4743  0.1453
  710MOL0     C95733   9.872  10.301   1.150  0.5551 -0.2503 -0.6185
  710MOL0     C95734   9.738  10.266   1.114  0.0113 -0.4124  0.5572
  710MOL0     C95735   9.687  10.256   0.979  0.4334  1.0152 -0.0220
  710MOL0     C95736   9.541  10.200   0.965 -1.1303  0.6451 -0.4779
  710MOL0     C95737   9.486  10.191   0.825 -0.0312  0.0302  0.2073
  710MOL0     C95738   9.553  10.082   0.749  0.3540  0.1119 -0.0546
  710MOL0     O95739   9.497  10.068   0.619 -0.2196  0.4753 -0.4213
  710MOL0     C95740   9.531   9.952   0.545  0.0596  0.0472  0.1059
  710MOL0     C95741   9.660   9.890   0.538  0.6432 -0.3207 -0.1325
  710MOL0     C95742   9.690   9.782   0.456  0.1400  0.7496 -0.4293
  710MOL0     C95743   9.824   9.720   0.486  0.1884 -0.4482  0.5575
  710MOL0     C95744   9.593   9.731   0.364  0.0417 -0.2038  0.7498
  710MOL0     C95745   9.632   9.632   0.261  0.8958 -0.1245  0.2282
  710MOL0     O95746   9.518   9.589   0.185 -0.2607  0.1812 -1.3631
  710MOL0     C95747   9.531   9.527   0.067 -0.8623  0.3459 -0.5822
  710MOL0     C95748   9.637   9.441   0.030 -1.7453  0.0279 -0.4119
  710MOL0     C95749   9.651   9.387  -0.098 -0.2134 -0.1166 -0.7906
  710MOL0     C95750   9.560   9.424  -0.201  0.4508  0.1815 -0.1485
  710MOL0     O95751   9.551   9.380  -0.339 -0.0679 -0.2941 -0.1077
  710MOL0     C95752   9.643   9.269  -0.365  0.1869 -0.3432 -0.7328
  710MOL0     C95753   9.633   9.213  -0.511  0.8676  0.6382  0.2142
  710MOL0     C95754   9.694   9.308  -0.613 -0.6232  1.6685  0.0129
  710MOL0     C95755   9.705   9.245  -0.747  0.2200  0.6103 -1.1443
  710MOL0     C95756   9.783   9.335  -0.835 -0.3123 -0.8755  0.2880
  710MOL0     C95757   9.740   9.326  -0.977  0.8157 -0.3527 -1.0090
  710MOL0     C95758   9.839   9.402  -1.068  0.0691  0.0850 -0.4486
  710MOL0     C95759   9.910   9.297  -1.148  0.2266  0.4621 -0.3851
  710MOL0    Cl95760  10.027   9.360  -1.271  0.3940 -0.4312 -0.2619
  710MOL0     C95761   9.456   9.515  -0.163 -0.2434  0.0225 -0.2314
  710MOL0     C95762   9.442   9.573  -0.031 -0.0269  0.9141  0.4759
  710MOL0     O95763   9.754   9.605   0.244  0.1029  0.2102 -0.1875
  710MOL0     C95764   9.461   9.787   0.372  0.4746  0.9891 -0.2215
  710MOL0     C95765   9.435   9.893   0.469 -0.5733  0.3943 -0.6168
  710MOL0     N95766   9.668  10.242   1.227 -0.5028  0.0563  0.4074
  710MOL0     N95767   9.754  10.248   1.333  0.0757 -0.4954  0.1273
  710MOL0     C95768  10.658  10.343   1.914  0.0712  0.0441  0.7765
  710MOL0     C95769  10.644  10.352   2.050 -0.3961  0.5836 -1.1270
  710MOL0     C95770  10.408  10.371   2.440  1.2248  0.6049 -0.5613
  710MOL0     C95771  10.521  10.372   2.514 -0.5001 -1.1638 -0.1691
  710MOL0     C95772  10.515  10.419   2.647  0.5162 -0.0714  0.2272
  710MOL0     C95773  10.394  10.447   2.713 -0.1993 -0.8039  0.0146
  710MOL0     O95774  10.405  10.474   2.848 -0.4870 -0.3066 -0.5792
  710MOL0     C95775  10.289  10.482   2.920  1.0691  0.3202  0.1353
  710MOL0     C95776  10.332  10.492   3.069 -0.2408 -0.4259 -0.0845
  710MOL0     C95777  10.229  10.556   3.165  0.6718 -1.1686 -0.3128
  710MOL0     C95778  10.295  10.671   3.241 -0.2527 -0.1617 -1.1152
  710MOL0     C95779  10.288  10.799   3.166  0.6608 -0.3712 -0.3521
  710MOL0     C95780  10.283  10.904   3.102  1.1850 -0.4829 -0.6973
  710MOL0     C95781  10.277  10.452   2.638 -0.1713  0.1545  0.8035
  710MOL0     C95782  10.285  10.407   2.509 -0.5346  0.0901  0.4506
  710MOL0     H95783  10.351  10.180   2.076  0.3928  0.2994  2.6039
  710MOL0     H95784  10.386  10.172   1.821  1.4209  2.3442 -3.4381
  710MOL0     H95785  10.747  10.337   1.663  1.2887 -0.9580 -1.1205
  710MOL0     H95786  10.667  10.282   1.518  1.9299 -2.9571  2.7476
  710MOL0     H95787  10.595  10.529   1.690  1.0606  1.5916 -0.3836
  710MOL0     H95788  10.706  10.534   1.554  0.7888 -0.4578  0.5808
  710MOL0     H95789  10.503  10.612   1.466 -0.5971  0.4026  0.2509
  710MOL0     H95790  10.515  10.444   1.404  1.1802  0.7773 -1.1087
  710MOL0     H95791  10.368  10.408   1.642  3.4049 -1.6843 -0.3811
  710MOL0     H95792  10.327  10.573   1.614 -0.2647 -2.2244  2.4217
  710MOL0     H95793  10.253  10.547   1.380  1.3104  0.5288  0.5788
  710MOL0     H95794  10.283  10.375   1.395 -1.1323 -1.7032  1.4242
  710MOL0     H95795  10.136  10.363   1.597  4.2496  0.6480  0.5456
  710MOL0     H95796  10.106  10.536   1.586  5.0494  1.1825  1.1132
  710MOL0     H95797   9.905  10.447   1.499 -1.0879 -1.5933 -0.1306
  710MOL0     H95798   9.992  10.488   1.350  0.1489 -0.3526 -0.0575
  710MOL0     H95799   9.966  10.225   1.461  0.3975  0.3669 -0.8324
  710MOL0     H95800  10.084  10.263   1.336  1.1112  2.8070 -1.6917
  710MOL0     H95801   9.947  10.330   1.077  0.5888  1.6508  0.1298
  710MOL0     H95802   9.682  10.354   0.931 -0.9868  0.5268 -0.9244
  710MOL0     H95803   9.754  10.194   0.919 -1.7544  0.3383 -1.8945
  710MOL0     H95804   9.477  10.267   1.024  1.3808  1.7487  1.1614
  710MOL0     H95805   9.542  10.103   1.015  0.8042  0.9710  0.1854
  710MOL0     H95806   9.502  10.288   0.778  0.7336  1.9207  4.0211
  710MOL0     H95807   9.379  10.168   0.827  0.2531 -2.2892 -2.8232
  710MOL0     H95808   9.554   9.995   0.816  3.6806  1.2727  1.6273
  710MOL0     H95809   9.660  10.097   0.733  0.3809 -0.1190 -0.1119
  710MOL0     H95810   9.727   9.941   0.606 -0.2647  2.7218 -1.3419
  710MOL0     H95811   9.890   9.752   0.405 -1.1805  3.4399  0.8043
  710MOL0     H95812   9.875   9.757   0.575  2.0431  0.5583 -0.8509
  710MOL0     H95813   9.812   9.611   0.482  2.1335 -0.8186  2.7350
  710MOL0     H95814   9.709   9.413   0.107 -2.2723  1.1592  0.5121
  710MOL0     H95815   9.736   9.323  -0.115 -0.5322 -0.7141 -0.1874
  710MOL0     H95816   9.746   9.302  -0.351  1.2124 -2.5465 -2.5900
  710MOL0     H95817   9.622   9.187  -0.296 -2.3031  0.0967 -0.8569
  710MOL0     H95818   9.681   9.115  -0.514 -2.1600 -1.0990  2.6602
  710MOL0     H95819   9.530   9.193  -0.544  0.9767 -0.2044  0.3543
  710MOL0     H95820   9.796   9.324  -0.576 -0.7240 -0.7103  1.5278
  710MOL0     H95821   9.633   9.399  -0.608  2.4010  3.8831  5.2899
  710MOL0     H95822   9.772   9.158  -0.737  1.1013  1.1401 -2.1653
  710MOL0     H95823   9.600   9.226  -0.772 -0.4263  3.2112 -0.6227
  710MOL0     H95824   9.884   9.294  -0.840  0.2311  0.2834  1.2627
  710MOL0     H95825   9.772   9.439  -0.802 -1.3387 -1.0249  0.4718
  710MOL0     H95826   9.735   9.218  -0.996  3.2177 -0.1873 -3.0840
  710MOL0     H95827   9.643   9.375  -0.987  1.0216  0.1458 -0.5960
  710MOL0     H95828   9.907   9.465  -1.009 -0.1926  1.9642 -2.0222
  710MOL0     H95829   9.794   9.468  -1.144  1.8024  0.3023 -1.3375
  710MOL0     H95830   9.837   9.237  -1.204  2.2414 -0.0161 -2.6897
  710MOL0     H95831   9.961   9.242  -1.068  0.1124  1.2180  0.2221
  710MOL0     H95832   9.381   9.545  -0.236  0.1141  2.0562  0.1827
  710MOL0     H95833   9.361   9.638  -0.001 -1.6058 -0.9195  0.3784
  710MOL0     H95834   9.378   9.754   0.311 -2.0544  2.4823  2.1642
  710MOL0     H95835   9.334   9.920   0.498  0.3373  1.5351  1.7534
  710MOL0     H95836  10.749  10.389   1.876 -0.3865  1.5063  1.3736
  710MOL0     H95837  10.706  10.405   2.123  2.4380 -1.5663 -1.7801
  710MOL0     H95838  10.615  10.341   2.471  1.4390  0.7808  2.3438
  710MOL0     H95839  10.603  10.418   2.710  0.1874 -0.4899  0.6921
  710MOL0     H95840  10.237  10.574   2.891  0.5809 -0.5400 -1.8394
  710MOL0     H95841  10.230  10.390   2.918  1.6769 -0.2271  2.8255
  710MOL0     H95842  10.430  10.541   3.069 -0.8983  0.9297 -0.0497
  710MOL0     H95843  10.346  10.386   3.092  1.6111 -0.4350 -1.0774
  710MOL0     H95844  10.182  10.475   3.222 -1.3649 -2.6889 -3.8136
  710MOL0     H95845  10.146  10.610   3.118  0.1613 -2.3233 -0.7818
  710MOL0     H95846  10.400  10.658   3.267  0.0847  2.4477 -0.8685
  710MOL0     H95847  10.237  10.675   3.334  0.1713  2.1639 -0.8906
  710MOL0     H95848  10.270  11.004   3.066 -2.0444 -0.1128  1.1511
  710MOL0     H95849  10.178  10.474   2.675 -0.8803 -2.1771  0.3980
  710MOL0     H95850  10.196  10.414   2.447  0.4196 -1.8485 -1.2845
  711MOL0     O95851   7.449   6.395   3.627  0.3124  0.6572  0.3943
  711MOL0     C95852   7.477   6.507   3.587  0.0563  0.2193  1.0385
  711MOL0     O95853   7.569   6.593   3.639 -0.9331  0.3101  0.1673
  711MOL0     C95854   7.663   6.535   3.729  0.3658  0.1090  0.9633
  711MOL0     C95855   7.653   6.567   3.868 -0.3052  0.7147 -0.3652
  711MOL0     C95856   7.751   6.507   3.952 -0.0156  0.3667 -0.1768
  711MOL0     C95857   7.856   6.422   3.907 -0.0946 -0.7433  1.2073
  711MOL0     O95858   7.924   6.347   3.994 -0.2945 -0.3725 -0.5102
  711MOL0     C95859   8.036   6.262   3.957  0.5582 -0.0829 -0.3099
  711MOL0     C95860   8.047   6.154   4.070  0.6011 -0.4656 -0.0359
  711MOL0     C95861   7.956   6.032   4.067  0.5960  0.8694  0.4906
  711MOL0     C95862   7.989   5.955   3.934  0.0972 -0.1063  0.5275
  711MOL0     C95863   7.911   5.823   3.924 -0.1939 -0.1717 -0.2343
  711MOL0     C95864   7.970   5.725   3.813 -0.2223 -0.4160  0.4146
  711MOL0     C95865   7.921   5.745   3.667  0.1859 -1.0328  0.8272
  711MOL0     C95866   7.780   5.722   3.623 -0.8246  0.1305 -0.0661
  711MOL0     N95867   7.774   5.726   3.474  0.6488  0.1895  0.7270
  711MOL0     C95868   7.817   5.627   3.392  0.8841  0.1975  0.6085
  711MOL0     C95869   7.786   5.664   3.263  0.1913 -0.3100  0.3474
  711MOL0     C95870   7.827   5.586   3.137 -0.5231 -0.4761  0.1037
  711MOL0     C95871   7.707   5.542   3.056  0.2084 -0.5746  0.5397
  711MOL0     C95872   7.613   5.654   3.003 -0.4602 -0.3223  0.3915
  711MOL0     C95873   7.685   5.748   2.886  0.3708  0.2154  0.4448
  711MOL0     O95874   7.713   5.668   2.769 -0.7249  0.6949 -1.0055
  711MOL0     C95875   7.689   5.710   2.638 -0.1290  0.6715 -0.0191
  711MOL0     C95876   7.574   5.790   2.613 -0.3903 -0.6767 -0.3694
  711MOL0     C95877   7.518   5.806   2.485 -0.4265  0.1957  0.0954
  711MOL0     C95878   7.412   5.902   2.495  0.8072 -0.3325 -0.0428
  711MOL0     C95879   7.587   5.758   2.369 -0.2476  0.8415  0.8241
  711MOL0     C95880   7.532   5.787   2.233 -0.4016 -0.9871 -1.0551
  711MOL0     O95881   7.623   5.755   2.140  0.1211  0.0342  0.4267
  711MOL0     C95882   7.581   5.748   2.009 -0.3822  0.2639  0.4775
  711MOL0     C95883   7.605   5.854   1.911  1.0866  0.2035 -0.8499
  711MOL0     C95884   7.545   5.840   1.785  0.0707 -1.0502  1.5751
  711MOL0     C95885   7.462   5.736   1.748  0.3834 -0.3245  0.7936
  711MOL0     O95886   7.409   5.750   1.620 -0.2955  0.4247  0.2807
  711MOL0     C95887   7.291   5.670   1.586 -0.7028  0.2951 -0.1735
  711MOL0     C95888   7.256   5.705   1.445 -1.0534  0.5038  0.1300
  711MOL0     C95889   7.369   5.677   1.346  0.3359  0.4955 -0.0568
  711MOL0     C95890   7.316   5.664   1.199  0.2300  0.4226 -0.2410
  711MOL0     C95891   7.429   5.639   1.099 -1.0844 -0.6751 -0.1622
  711MOL0     C95892   7.376   5.633   0.958  0.3966 -0.2348 -0.4093
  711MOL0     C95893   7.476   5.589   0.849 -0.1579 -1.1108  0.7623
  711MOL0     C95894   7.417   5.598   0.711  1.0533 -0.0218  0.6748
  711MOL0    Cl95895   7.390   5.760   0.656  0.0408  0.3782  0.2920
  711MOL0     C95896   7.437   5.631   1.842  0.9861  0.2741 -0.6771
  711MOL0     C95897   7.505   5.644   1.976  0.5983 -0.3682  0.3070
  711MOL0     O95898   7.412   5.800   2.216 -0.2422  0.0793  0.2760
  711MOL0     C95899   7.708   5.692   2.391  0.2158  0.5503  0.2525
  711MOL0     C95900   7.751   5.645   2.522  1.1273 -0.4941 -0.8304
  711MOL0     N95901   7.729   5.798   3.278  0.2204 -0.9139 -0.1414
  711MOL0     N95902   7.715   5.823   3.401  1.0531 -0.0263 -0.1641
  711MOL0     C95903   7.865   6.392   3.768 -0.1199 -0.2623  0.2890
  711MOL0     C95904   7.770   6.464   3.676 -0.9022  0.2914 -0.1130
  711MOL0     C95905   7.413   6.538   3.446 -0.7023  0.0851 -0.6270
  711MOL0     C95906   7.321   6.455   3.378 -1.2117  0.0973  1.2457
  711MOL0     C95907   7.272   6.490   3.250 -0.7996  0.7470 -0.0904
  711MOL0     C95908   7.304   6.617   3.195  0.5286  0.4434 -0.1245
  711MOL0     O95909   7.237   6.625   3.078 -0.3201 -0.4875  0.3930
  711MOL0     C95910   7.215   6.761   3.035 -0.1617  0.3867 -0.0054
  711MOL0     C95911   7.128   6.773   2.903  0.2375  0.8839 -0.7237
  711MOL0     C95912   7.127   6.918   2.853 -0.1527  0.2961  0.3212
  711MOL0     C95913   7.027   6.937   2.737 -0.1131  0.0386 -0.7784
  711MOL0     C95914   7.056   6.854   2.618  0.4732  0.4936 -0.4077
  711MOL0     C95915   7.079   6.809   2.509 -0.0090  1.2363  1.2973
  711MOL0     C95916   7.374   6.708   3.273 -0.0481 -0.7059 -0.6993
  711MOL0     C95917   7.427   6.667   3.397  0.1474 -0.4696  0.8610
  711MOL0     H95918   7.577   6.633   3.910  0.3501  1.1884  0.0915
  711MOL0     H95919   7.746   6.526   4.058  1.7296 -2.8196  0.6322
  711MOL0     H95920   8.034   6.213   3.859 -0.4327  2.6199 -1.7384
  711MOL0     H95921   8.129   6.320   3.950  1.2173 -1.3059 -2.7740
  711MOL0     H95922   8.151   6.122   4.061  0.1765 -2.9418  2.4610
  711MOL0     H95923   8.033   6.212   4.162  1.3734 -0.9188  0.3747
  711MOL0     H95924   7.986   5.978   4.158 -2.8143  0.9932  1.8634
  711MOL0     H95925   7.848   6.051   4.068  0.0106 -2.0203  1.2848
  711MOL0     H95926   7.960   6.009   3.844 -1.7420 -0.5810  0.8005
  711MOL0     H95927   8.098   5.942   3.931  0.1719 -0.8257  3.3678
  711MOL0     H95928   7.906   5.770   4.020 -5.8391  3.2142  1.8740
  711MOL0     H95929   7.812   5.867   3.906 -0.3559 -0.7678 -0.8263
  711MOL0     H95930   8.080   5.730   3.818 -0.2004 -0.6737  0.2539
  711MOL0     H95931   7.948   5.619   3.829  1.2206 -0.4680  2.3941
  711MOL0     H95932   7.950   5.847   3.641  0.7622 -0.6774  2.7424
  711MOL0     H95933   7.982   5.677   3.607 -2.2157 -0.8272 -2.0709
  711MOL0     H95934   7.720   5.802   3.668 -0.8104  0.5501 -0.7794
  711MOL0     H95935   7.751   5.624   3.664 -3.1858 -1.4702 -4.8169
  711MOL0     H95936   7.863   5.537   3.432  1.0133 -0.8128 -1.6881
  711MOL0     H95937   7.895   5.642   3.073 -1.3510 -2.2096 -2.4301
  711MOL0     H95938   7.885   5.500   3.171  0.8926  0.2714 -0.3002
  711MOL0     H95939   7.651   5.466   3.111 -1.7096 -4.5427 -5.8127
  711MOL0     H95940   7.748   5.489   2.970 -0.0176 -0.8667  0.6085
  711MOL0     H95941   7.591   5.718   3.089 -1.7265  0.1947 -0.2885
  711MOL0     H95942   7.520   5.620   2.957  0.6399 -3.6267  0.4071
  711MOL0     H95943   7.772   5.805   2.918  1.3250 -2.2350  2.5218
  711MOL0     H95944   7.611   5.827   2.870 -0.1751 -0.3084  0.3383
  711MOL0     H95945   7.509   5.823   2.693 -2.2765 -1.5211 -1.4599
  711MOL0     H95946   7.420   5.986   2.565  2.4875  0.1752 -0.7737
  711MOL0     H95947   7.393   5.955   2.401  1.2558 -1.8737 -1.0357
  711MOL0     H95948   7.320   5.845   2.513  1.4757 -1.3272  0.3185
  711MOL0     H95949   7.658   5.942   1.946  1.9123 -0.3076 -0.7742
  711MOL0     H95950   7.557   5.922   1.715 -1.3318 -0.4314  2.0226
  711MOL0     H95951   7.311   5.563   1.599  0.3902  0.6954  1.7431
  711MOL0     H95952   7.205   5.673   1.654 -2.4753  0.7679 -2.3122
  711MOL0     H95953   7.169   5.644   1.416 -0.5530  1.0867 -3.0518
  711MOL0     H95954   7.229   5.808   1.420  0.8822  0.6136 -1.8679
  711MOL0     H95955   7.422   5.587   1.379 -1.6660 -0.8298 -0.3468
  711MOL0     H95956   7.437   5.763   1.354 -1.6186  2.1073 -0.1488
  711MOL0     H95957   7.249   5.578   1.202  1.5988 -0.7588 -1.8013
  711MOL0     H95958   7.260   5.755   1.175  1.2556  0.8970 -0.9321
  711MOL0     H95959   7.471   5.545   1.137  0.4025  0.6962  1.8054
  711MOL0     H95960   7.507   5.715   1.109 -0.0383 -1.4255 -2.0720
  711MOL0     H95961   7.295   5.560   0.957  1.8016 -1.8639 -1.4847
  711MOL0     H95962   7.337   5.730   0.925  0.1138  0.8536  2.7458
  711MOL0     H95963   7.497   5.483   0.865 -0.8326 -1.1784  1.2271
  711MOL0     H95964   7.561   5.657   0.865 -1.7012  0.3729  3.3969
  711MOL0     H95965   7.321   5.547   0.720  1.5686 -1.8008 -2.6613
  711MOL0     H95966   7.470   5.550   0.629 -0.7148 -0.9521  0.0462
  711MOL0     H95967   7.371   5.549   1.816  1.1199  0.2148 -0.8298
  711MOL0     H95968   7.483   5.563   2.045 -0.3975  1.5589  2.3652
  711MOL0     H95969   7.764   5.643   2.312  0.8438 -1.7145  1.9817
  711MOL0     H95970   7.833   5.575   2.532  1.7963  0.5504  2.4912
  711MOL0     H95971   7.935   6.323   3.722 -0.4827 -0.0407 -0.6191
  711MOL0     H95972   7.774   6.454   3.568  2.1410  0.1623 -0.0888
  711MOL0     H95973   7.297   6.353   3.407  2.0442 -1.5082 -1.0088
  711MOL0     H95974   7.206   6.409   3.222  1.1239 -0.5261 -1.1148
  711MOL0     H95975   7.177   6.832   3.109  3.2232  2.6891 -0.2774
  711MOL0     H95976   7.311   6.802   3.004  1.4247 -0.0702  3.7804
  711MOL0     H95977   7.025   6.748   2.931  1.1150 -0.7210  1.3146
  711MOL0     H95978   7.154   6.709   2.818  0.3037  1.6998 -1.3336
  711MOL0     H95979   7.227   6.935   2.813 -0.2046 -0.7379 -0.2861
  711MOL0     H95980   7.110   6.999   2.924  1.7167  0.4685  0.6292
  711MOL0     H95981   7.014   7.043   2.713 -1.4234 -0.0448 -0.5118
  711MOL0     H95982   6.919   6.928   2.756 -0.0999  0.8944 -0.2126
  711MOL0     H95983   7.081   6.772   2.409  1.0440  2.6476  0.7667
  711MOL0     H95984   7.404   6.801   3.227 -1.5609  0.5555  0.7574
  711MOL0     H95985   7.482   6.740   3.456  0.5713 -2.1897  2.6788
  712MOL0     O95986   7.381  10.448   2.670  0.7421 -0.5780  0.6166
  712MOL0     C95987   7.425  10.336   2.689  0.2789  0.1187  0.3270
  712MOL0     O95988   7.354  10.228   2.732 -0.5097 -0.3365 -0.1058
  712MOL0     C95989   7.216  10.237   2.734  0.2320 -0.4636  0.5056
  712MOL0     C95990   7.141  10.243   2.619 -0.8281  0.6023  0.4823
  712MOL0     C95991   6.999  10.250   2.624  0.5998  0.6252  0.4770
  712MOL0     C95992   6.930  10.256   2.749  0.0504 -0.1869 -0.4126
  712MOL0     O95993   6.790  10.274   2.757  0.2856 -0.5089  0.7185
  712MOL0     C95994   6.712  10.324   2.641  0.4428 -0.7098  1.0376
  712MOL0     C95995   6.627  10.212   2.579 -0.6227 -0.3317 -0.3585
  712MOL0     C95996   6.483  10.204   2.626 -0.2188  0.5395  0.3326
  712MOL0     C95997   6.472  10.123   2.753 -0.4333  0.0081  0.3655
  712MOL0     C95998   6.326  10.094   2.799 -0.1885  0.5244 -0.0908
  712MOL0     C95999   6.232  10.039   2.705  0.4192 -0.2543 -0.2172
  712MOL0     C96000   6.096   9.986   2.747 -0.6605 -0.0817 -0.3701
  712MOL0     C96001   5.994  10.081   2.798 -0.8078  0.2428  0.7073
  712MOL0     N96002   5.875  10.007   2.842  0.2264  0.2245  0.6088
  712MOL0     C96003   5.805   9.909   2.777  0.0788  0.5152 -0.1299
  712MOL0     C96004   5.696   9.900   2.856  0.3823 -0.0751  1.3953
  712MOL0     C96005   5.578   9.815   2.815 -0.0363 -0.9134  0.1991
  712MOL0     C96006   5.553   9.680   2.876  0.0190 -1.0747  0.3361
  712MOL0     C96007   5.566   9.673   3.029  0.4869 -0.8956 -0.9721
  712MOL0     C96008   5.482   9.568   3.101  0.8042  0.9362 -0.7841
  712MOL0     O96009   5.518   9.437   3.052 -0.2349  0.7189  0.7786
  712MOL0     C96010   5.441   9.325   3.089  0.3592  0.1319 -0.2644
  712MOL0     C96011   5.390   9.318   3.221 -0.2578  0.1071 -0.0886
  712MOL0     C96012   5.305   9.206   3.267 -0.6913  0.0535  0.6796
  712MOL0     C96013   5.276   9.212   3.418  1.0225  1.1908 -0.0379
  712MOL0     C96014   5.278   9.096   3.183  0.0711 -0.0336  0.5386
  712MOL0     C96015   5.192   8.973   3.226 -1.6985  0.4223 -0.7976
  712MOL0     O96016   5.215   8.863   3.147  0.1185  0.1775 -0.1866
  712MOL0     C96017   5.166   8.738   3.176 -0.2917  0.4901 -0.0530
  712MOL0     C96018   5.163   8.684   3.305 -0.1016  0.9659  0.5274
  712MOL0     C96019   5.089   8.562   3.314 -0.1845  0.7836  0.3492
  712MOL0     C96020   5.019   8.505   3.207  0.7074 -0.5422 -0.0153
  712MOL0     O96021   4.947   8.383   3.207 -0.0338  0.1139 -0.5181
  712MOL0     C96022   4.861   8.361   3.324  0.1198 -0.4833 -0.2564
  712MOL0     C96023   4.934   8.266   3.426 -0.1115 -0.1833 -0.6823
  712MOL0     C96024   4.955   8.127   3.370  0.3234  0.2578  0.1247
  712MOL0     C96025   4.941   8.017   3.481 -0.4162 -1.0219  0.8272
  712MOL0     C96026   5.031   8.044   3.608  0.2241  0.2593  0.2683
  712MOL0     C96027   5.170   8.088   3.589  0.0219  0.7357  0.4789
  712MOL0     C96028   5.247   7.974   3.515 -0.1100 -0.5366 -0.1164
  712MOL0     C96029   5.394   7.999   3.506  0.4586 -0.0226  1.1254
  712MOL0    Cl96030   5.487   7.861   3.457  0.1325 -0.0486 -0.1995
  712MOL0     C96031   5.027   8.568   3.084  0.5926 -0.1934 -0.0111
  712MOL0     C96032   5.105   8.676   3.072  1.0426 -0.9511  0.3133
  712MOL0     O96033   5.107   8.984   3.310 -0.4418  0.5042 -0.1292
  712MOL0     C96034   5.324   9.110   3.052  0.3382 -0.5932  0.3361
  712MOL0     C96035   5.406   9.217   3.006 -0.7502  0.2407 -0.1867
  712MOL0     N96036   5.700   9.990   2.956 -0.2793 -0.2051  0.5009
  712MOL0     N96037   5.811  10.057   2.952 -0.0723 -0.1716  0.1063
  712MOL0     C96038   7.013  10.242   2.861  0.5410 -0.6418 -0.3202
  712MOL0     C96039   7.148  10.213   2.849  0.4385  2.0947  0.3987
  712MOL0     C96040   7.567  10.311   2.650  0.1114 -0.3323  1.2228
  712MOL0     C96041   7.628  10.179   2.662 -0.9403 -1.1021 -0.4559
  712MOL0     C96042   7.762  10.166   2.623 -0.2428  0.7254 -0.9363
  712MOL0     C96043   7.840  10.276   2.581 -0.1488 -0.0998  0.7594
  712MOL0     O96044   7.972  10.242   2.550  0.3021  0.2178 -0.1075
  712MOL0     C96045   8.071  10.334   2.519 -0.2533  0.4128  0.5131
  712MOL0     C96046   8.204  10.265   2.542 -0.9982  0.2204  0.4540
  712MOL0     C96047   8.312  10.366   2.516  1.5004  0.6539  0.7954
  712MOL0     C96048   8.446  10.314   2.573 -0.3636 -0.8409 -0.3116
  712MOL0     C96049   8.470  10.319   2.717 -0.1139 -0.3921  0.0626
  712MOL0     C96050   8.484  10.347   2.830  0.0508  0.6118  0.4944
  712MOL0     C96051   7.784  10.398   2.568  0.4129 -0.0897 -0.3171
  712MOL0     C96052   7.649  10.417   2.602  0.5678 -0.3249  0.5302
  712MOL0     H96053   7.191  10.242   2.523  0.6547  0.3235  1.2219
  712MOL0     H96054   6.956  10.260   2.525  0.1305  0.3647  0.6563
  712MOL0     H96055   6.649  10.409   2.670 -3.0551 -2.3912 -0.9214
  712MOL0     H96056   6.770  10.373   2.562 -2.0753  1.1747  0.2069
  712MOL0     H96057   6.615  10.226   2.472 -1.1251  0.4427 -0.2080
  712MOL0     H96058   6.684  10.120   2.593  0.3036  0.3711  0.7995
  712MOL0     H96059   6.421  10.292   2.644 -1.3848 -0.3011  0.5685
  712MOL0     H96060   6.429  10.155   2.544 -0.4744 -1.3226  1.5407
  712MOL0     H96061   6.518  10.024   2.744 -2.4416 -0.8054 -1.9740
  712MOL0     H96062   6.519  10.192   2.824 -1.8193  2.0648 -0.6171
  712MOL0     H96063   6.340  10.025   2.883 -0.3737  0.9779  0.3234
  712MOL0     H96064   6.287  10.193   2.827 -0.8248  0.2834 -0.1257
  712MOL0     H96065   6.204  10.096   2.616 -1.4726 -1.9199 -0.7773
  712MOL0     H96066   6.281   9.960   2.647  1.1568  0.4578 -0.5811
  712MOL0     H96067   6.054   9.937   2.659 -1.9556  0.3491 -0.0147
  712MOL0     H96068   6.114   9.913   2.827  5.0922 -0.8915 -1.9710
  712MOL0     H96069   5.967  10.147   2.715  0.4439 -1.1983 -0.9422
  712MOL0     H96070   6.031  10.146   2.877 -0.4299  1.3700 -0.3732
  712MOL0     H96071   5.826   9.853   2.686 -1.8649  0.8847 -0.8567
  712MOL0     H96072   5.490   9.880   2.809  0.7443  0.0517 -2.3970
  712MOL0     H96073   5.591   9.797   2.708  2.3584 -0.2279  0.3099
  712MOL0     H96074   5.629   9.617   2.829  0.0303  0.3555 -1.6788
  712MOL0     H96075   5.460   9.638   2.837 -0.4056  1.2130 -1.2782
  712MOL0     H96076   5.529   9.766   3.072 -0.9454 -1.6791 -0.4432
  712MOL0     H96077   5.669   9.665   3.065  0.1563 -3.5221 -0.3477
  712MOL0     H96078   5.375   9.579   3.078  0.9212  1.3667 -1.1259
  712MOL0     H96079   5.498   9.581   3.208  0.1804  1.3600 -0.7313
  712MOL0     H96080   5.412   9.394   3.295 -1.6512 -1.7556  2.3901
  712MOL0     H96081   5.359   9.265   3.467  0.9458  0.0889  1.3595
  712MOL0     H96082   5.181   9.265   3.429  1.4237  2.2243 -1.3901
  712MOL0     H96083   5.275   9.110   3.459  0.4748  0.8830 -0.8084
  712MOL0     H96084   5.220   8.725   3.388 -0.2898  0.8489  0.7151
  712MOL0     H96085   5.104   8.518   3.412 -1.2071  0.9524  0.5928
  712MOL0     H96086   4.839   8.461   3.364 -1.6148 -1.3981  1.2497
  712MOL0     H96087   4.756   8.341   3.300  0.1414  0.9459 -1.7190
  712MOL0     H96088   5.031   8.309   3.453  0.0185 -0.3292 -0.9178
  712MOL0     H96089   4.867   8.272   3.513 -0.9613  1.3532 -1.4105
  712MOL0     H96090   5.059   8.125   3.334  0.2692 -1.1988 -0.0100
  712MOL0     H96091   4.888   8.102   3.287  2.3786 -2.4862 -0.8925
  712MOL0     H96092   4.834   8.009   3.502 -0.8480 -0.6919 -1.0972
  712MOL0     H96093   4.974   7.922   3.439  0.4356 -0.4734  0.2311
  712MOL0     H96094   5.043   7.952   3.664  3.6826  0.7059  0.4476
  712MOL0     H96095   4.970   8.107   3.673  0.9226  1.1447  0.0858
  712MOL0     H96096   5.169   8.185   3.538  0.3756  1.1187  1.1918
  712MOL0     H96097   5.217   8.104   3.686 -2.6800 -0.2894  2.0657
  712MOL0     H96098   5.199   7.962   3.418  0.8932 -2.2719 -0.4381
  712MOL0     H96099   5.235   7.878   3.567  0.3346 -0.2618  0.5048
  712MOL0     H96100   5.424   8.042   3.602 -2.7154  1.9919  1.3647
  712MOL0     H96101   5.391   8.071   3.424 -4.6563 -1.8244 -0.6520
  712MOL0     H96102   4.970   8.520   3.005 -3.9033  2.9078  0.9381
  712MOL0     H96103   5.109   8.719   2.973 -1.0347 -2.2614 -0.3921
  712MOL0     H96104   5.279   9.049   2.975 -0.7955  0.5257  0.0796
  712MOL0     H96105   5.432   9.219   2.901 -1.5906 -0.8936 -0.4316
  712MOL0     H96106   6.962  10.240   2.957  1.8834 -3.5401  0.4498
  712MOL0     H96107   7.198  10.207   2.945 -1.6218  2.6888  1.5914
  712MOL0     H96108   7.558  10.101   2.691 -1.7412  0.5634  2.5872
  712MOL0     H96109   7.813  10.070   2.619  0.2512  0.9721 -0.6911
  712MOL0     H96110   8.065  10.340   2.410 -0.4702 -1.5104  0.3929
  712MOL0     H96111   8.059  10.433   2.563 -1.9706 -0.5369  2.3393
  712MOL0     H96112   8.219  10.179   2.475  0.3143 -1.2933  2.5389
  712MOL0     H96113   8.209  10.221   2.642  0.2098 -1.1963 -0.1799
  712MOL0     H96114   8.284  10.462   2.560 -4.3664  0.3035 -1.3012
  712MOL0     H96115   8.325  10.374   2.408  0.5279 -1.1665  0.5147
  712MOL0     H96116   8.518  10.378   2.522 -2.6635  0.9827 -1.4669
  712MOL0     H96117   8.474  10.215   2.537  1.8485 -0.5878  0.5946
  712MOL0     H96118   8.505  10.362   2.934 -0.4993 -2.8310  1.2092
  712MOL0     H96119   7.843  10.482   2.532 -2.4640  2.0797 -0.3541
  712MOL0     H96120   7.614  10.519   2.587  1.8672  0.0987  0.2220
  713MOL0     O96121   4.207   7.425   2.181 -0.2498  0.3740  0.2797
  713MOL0     C96122   4.128   7.463   2.262  0.1228  0.3670 -0.2381
  713MOL0     O96123   4.060   7.589   2.260 -0.3501 -0.6584  0.1680
  713MOL0     C96124   4.117   7.686   2.184  0.0146 -1.2079  0.1678
  713MOL0     C96125   4.042   7.770   2.109  1.1991  1.5136 -0.1227
  713MOL0     C96126   4.087   7.884   2.037  0.0634  0.5865  0.5540
  713MOL0     C96127   4.221   7.913   2.044 -0.4956  0.3871 -0.0984
  713MOL0     O96128   4.256   8.022   1.968  0.3572 -0.1744  0.1255
  713MOL0     C96129   4.383   8.078   1.989  0.0104 -0.9213  0.7176
  713MOL0     C96130   4.377   8.209   1.914  0.1254 -0.0675  0.4451
  713MOL0     C96131   4.505   8.288   1.932  0.1179 -0.6093 -0.1672
  713MOL0     C96132   4.632   8.235   1.857  0.9455 -0.0127  0.0792
  713MOL0     C96133   4.758   8.308   1.909  1.1934  0.3816  0.0758
  713MOL0     C96134   4.747   8.459   1.938  0.3028 -0.0095 -0.4983
  713MOL0     C96135   4.876   8.511   1.985  0.4193 -0.4790 -0.7382
  713MOL0     C96136   4.864   8.662   1.987 -0.1096  0.0402  0.3605
  713MOL0     N96137   4.906   8.730   1.858 -0.0273  0.0723  0.4124
  713MOL0     C96138   5.038   8.782   1.831 -0.3934 -0.1650 -0.0040
  713MOL0     C96139   5.036   8.817   1.696  0.1447  0.1932  1.6730
  713MOL0     C96140   5.139   8.891   1.616 -0.6053  1.2737 -0.7477
  713MOL0     C96141   5.261   8.786   1.619 -0.6180 -0.5070 -1.4576
  713MOL0     C96142   5.388   8.817   1.709  0.1029  0.4469  0.1768
  713MOL0     C96143   5.475   8.952   1.678  0.6182  0.2204  0.3654
  713MOL0     O96144   5.538   8.951   1.539 -0.1885 -0.4762 -0.3889
  713MOL0     C96145   5.672   8.980   1.520 -0.7290 -0.1551 -0.1876
  713MOL0     C96146   5.777   8.891   1.548  0.4221  0.4582  0.8389
  713MOL0     C96147   5.907   8.919   1.490  0.9246  1.0648 -1.0097
  713MOL0     C96148   6.008   8.808   1.520  0.9403 -0.0444  0.3827
  713MOL0     C96149   5.935   9.035   1.418 -0.3213  0.6740 -0.3132
  713MOL0     C96150   6.063   9.070   1.355 -0.5248  0.1724 -0.4847
  713MOL0     O96151   6.073   9.185   1.283  0.4914  0.2491  1.0682
  713MOL0     C96152   6.181   9.195   1.200 -0.1582  0.3654  0.4393
  713MOL0     C96153   6.155   9.232   1.062  0.0836 -0.0992 -0.2161
  713MOL0     C96154   6.255   9.264   0.973  0.6032 -0.0089  0.2599
  713MOL0     C96155   6.390   9.265   1.018  0.0396 -0.2479  0.2066
  713MOL0     O96156   6.479   9.277   0.919  0.0101 -0.5073  0.2878
  713MOL0     C96157   6.617   9.244   0.951 -0.2675  0.6502  1.1056
  713MOL0     C96158   6.683   9.193   0.826  0.0612 -0.6907  0.7693
  713MOL0     C96159   6.831   9.153   0.848 -0.5231 -0.1529  0.6039
  713MOL0     C96160   6.925   9.269   0.798  0.2235 -0.8427  0.1711
  713MOL0     C96161   7.074   9.214   0.819  0.3059  1.1128  0.2036
  713MOL0     C96162   7.183   9.322   0.815  0.2079  0.2294 -1.0134
  713MOL0     C96163   7.317   9.259   0.778 -0.3606  0.4120  0.2097
  713MOL0     C96164   7.369   9.163   0.883 -0.3038 -0.0019 -0.1652
  713MOL0    Cl96165   7.412   9.256   1.037  0.1414  0.0205  0.2304
  713MOL0     C96166   6.403   9.233   1.152  0.1318  1.2188  0.5822
  713MOL0     C96167   6.315   9.194   1.242  0.0916  0.2103 -0.7717
  713MOL0     O96168   6.160   9.004   1.392  0.3977  0.0200 -1.1195
  713MOL0     C96169   5.827   9.125   1.410  0.5608  0.1534  0.9231
  713MOL0     C96170   5.697   9.103   1.464  0.6621  0.0944 -0.5764
  713MOL0     N96171   4.922   8.762   1.638 -0.5813 -0.0458  0.2727
  713MOL0     N96172   4.848   8.713   1.734  0.0298  0.2952  0.5519
  713MOL0     C96173   4.304   7.827   2.120 -0.5783 -0.5146  0.0339
  713MOL0     C96174   4.253   7.723   2.192  0.5572  0.0983  0.0951
  713MOL0     C96175   4.089   7.374   2.369  0.2727 -0.1894  0.2253
  713MOL0     C96176   3.985   7.395   2.468 -0.2862  0.5638 -0.0310
  713MOL0     C96177   3.982   7.308   2.576 -0.4870 -0.5991  0.6667
  713MOL0     C96178   4.074   7.207   2.597 -0.4586 -0.6968  0.1592
  713MOL0     O96179   4.061   7.122   2.702  0.0943  1.0694  0.0421
  713MOL0     C96180   3.991   7.153   2.821  0.0382  0.1472 -0.2678
  713MOL0     C96181   4.015   7.023   2.900 -0.4187 -0.2520  0.5793
  713MOL0     C96182   3.971   7.031   3.045  0.6062  0.5115 -0.8243
  713MOL0     C96183   3.970   6.891   3.125  0.7124 -0.8418 -0.9690
  713MOL0     C96184   4.092   6.824   3.094  1.0786  0.4208  0.7604
  713MOL0     C96185   4.196   6.765   3.066  0.8255  1.6976 -0.1611
  713MOL0     C96186   4.172   7.180   2.503  0.0097 -0.6100  0.1564
  713MOL0     C96187   4.180   7.263   2.390  0.0396  0.6811 -0.4304
  713MOL0     H96188   3.937   7.746   2.124  1.3637  0.0625 -1.0910
  713MOL0     H96189   4.019   7.952   1.987  0.1604  0.1941 -0.1269
  713MOL0     H96190   4.387   8.110   2.093 -1.7506  1.4758  0.1434
  713MOL0     H96191   4.470   8.018   1.961  0.7695  0.5663 -0.2527
  713MOL0     H96192   4.347   8.198   1.809 -1.1609 -1.5303  0.9416
  713MOL0     H96193   4.291   8.268   1.946 -0.5636  1.1142 -3.1545
  713MOL0     H96194   4.476   8.382   1.885  0.5883 -0.1442  0.4598
  713MOL0     H96195   4.527   8.299   2.039  0.4635  2.3596 -0.4489
  713MOL0     H96196   4.645   8.132   1.890  0.1950 -0.0508  0.2670
  713MOL0     H96197   4.613   8.244   1.750 -2.3325  4.0027  0.7612
  713MOL0     H96198   4.795   8.257   1.999  3.4662  0.0886 -0.9660
  713MOL0     H96199   4.842   8.305   1.839  1.1724  2.9890 -0.1448
  713MOL0     H96200   4.718   8.516   1.849 -0.7968  2.0880  1.1219
  713MOL0     H96201   4.672   8.478   2.015 -0.6027  0.3183 -1.4341
  713MOL0     H96202   4.894   8.471   2.085 -0.1685 -3.6752 -1.8137
  713MOL0     H96203   4.949   8.493   1.906  3.3147  1.7703  1.2216
  713MOL0     H96204   4.927   8.711   2.062  0.4929  0.4018 -0.3691
  713MOL0     H96205   4.760   8.686   2.011  0.6722  1.3398  2.8453
  713MOL0     H96206   5.116   8.798   1.905 -0.1510 -1.8999  0.1513
  713MOL0     H96207   5.097   8.909   1.517 -0.1191  1.8078 -0.8573
  713MOL0     H96208   5.173   8.982   1.666  2.3387 -0.1906  0.1890
  713MOL0     H96209   5.291   8.779   1.514  2.4613 -2.1202 -0.5977
  713MOL0     H96210   5.212   8.690   1.639 -0.1377 -0.3799  0.5122
  713MOL0     H96211   5.466   8.741   1.703  0.3100  0.6479  0.2853
  713MOL0     H96212   5.355   8.815   1.813 -1.3345  1.1473 -0.2455
  713MOL0     H96213   5.564   8.967   1.740  1.3265  2.9170 -1.1394
  713MOL0     H96214   5.408   9.037   1.691  0.7154 -0.0706  3.5038
  713MOL0     H96215   5.746   8.800   1.597  0.1057 -0.7393 -1.4819
  713MOL0     H96216   6.056   8.772   1.428 -2.2946 -0.2560 -1.3840
  713MOL0     H96217   6.084   8.844   1.590  1.5250  2.3746 -1.3585
  713MOL0     H96218   5.964   8.721   1.570  3.1639 -2.0452 -0.9145
  713MOL0     H96219   6.054   9.230   1.022  0.5390 -0.5824 -1.3904
  713MOL0     H96220   6.241   9.305   0.874  0.7300  3.2591  1.4790
  713MOL0     H96221   6.664   9.336   0.987  0.8718 -0.0461  1.4527
  713MOL0     H96222   6.626   9.161   1.022 -0.6888  0.0797  0.4986
  713MOL0     H96223   6.627   9.104   0.796 -0.6198 -0.5915  1.6851
  713MOL0     H96224   6.674   9.254   0.736  1.3064 -0.3987  0.8185
  713MOL0     H96225   6.853   9.057   0.800 -1.9641  0.0063 -0.4489
  713MOL0     H96226   6.848   9.145   0.956 -0.9348  3.0359  0.9904
  713MOL0     H96227   6.913   9.297   0.693 -1.2550  0.5518  0.6879
  713MOL0     H96228   6.900   9.356   0.859 -1.6114 -1.1894 -0.0441
  713MOL0     H96229   7.089   9.134   0.746  0.1697 -1.4766  2.8259
  713MOL0     H96230   7.079   9.169   0.918 -1.9043 -0.8368 -0.4806
  713MOL0     H96231   7.151   9.387   0.733 -2.0780  0.6766  0.1503
  713MOL0     H96232   7.205   9.366   0.913  2.2104 -1.5094 -0.6039
  713MOL0     H96233   7.393   9.337   0.773 -1.1160  1.2165  0.9295
  713MOL0     H96234   7.304   9.221   0.677 -0.2970  3.0731 -0.8721
  713MOL0     H96235   7.461   9.115   0.848  0.6390 -1.2314  3.4853
  713MOL0     H96236   7.299   9.082   0.908 -0.2820 -0.0001 -0.1015
  713MOL0     H96237   6.503   9.255   1.187  0.8319 -0.6420 -0.1244
  713MOL0     H96238   6.336   9.179   1.347 -2.3889  1.8882  0.0573
  713MOL0     H96239   5.836   9.221   1.360 -3.2209  0.5996  0.8717
  713MOL0     H96240   5.623   9.180   1.446 -0.9535 -1.3270 -0.2113
  713MOL0     H96241   4.406   7.852   2.148 -1.2158 -0.0608  2.1407
  713MOL0     H96242   4.327   7.679   2.258 -1.5519 -1.6577  1.3902
  713MOL0     H96243   3.916   7.478   2.460  1.4206  2.0684 -0.0059
  713MOL0     H96244   3.907   7.336   2.650  0.6048  0.0772  1.5623
  713MOL0     H96245   4.045   7.232   2.874  0.2931 -1.7629  2.5227
  713MOL0     H96246   3.886   7.183   2.808  0.0440 -0.2799 -1.3810
  713MOL0     H96247   4.120   6.995   2.898 -0.5985 -0.9348 -1.0891
  713MOL0     H96248   3.953   6.949   2.849 -1.4243  2.3069 -2.1695
  713MOL0     H96249   3.871   7.075   3.039 -0.7919 -2.5571 -2.1437
  713MOL0     H96250   4.043   7.095   3.096  1.1885 -0.0341 -0.9568
  713MOL0     H96251   3.882   6.839   3.084 -0.6789  0.1841  0.5601
  713MOL0     H96252   3.973   6.891   3.235  0.7520  0.6760 -0.9493
  713MOL0     H96253   4.284   6.704   3.056  0.0660  0.3829  0.9206
  713MOL0     H96254   4.247   7.102   2.514  0.3267 -0.3298  0.0028
  713MOL0     H96255   4.261   7.251   2.319  2.1824 -0.2988  2.0047
  714MOL0     O96256   2.463   8.525   2.572 -0.6897 -0.1101  1.2060
  714MOL0     C96257   2.564   8.491   2.634  0.7492  0.1264 -0.4917
  714MOL0     O96258   2.595   8.360   2.677  0.6493 -0.4169 -0.2266
  714MOL0     C96259   2.500   8.264   2.654  0.7205  0.5413  0.8369
  714MOL0     C96260   2.518   8.180   2.543 -0.7996  0.1320 -0.9003
  714MOL0     C96261   2.426   8.079   2.515  0.2019 -0.4513 -0.0054
  714MOL0     C96262   2.314   8.062   2.593 -0.9626  1.2684  0.5256
  714MOL0     O96263   2.208   7.968   2.562 -0.0817  0.0965 -0.2558
  714MOL0     C96264   2.229   7.871   2.455  0.6480  0.2285 -0.6100
  714MOL0     C96265   2.107   7.778   2.454  0.2063  0.9321 -1.0494
  714MOL0     C96266   2.043   7.751   2.315  0.6277 -0.3558 -0.5303
  714MOL0     C96267   1.910   7.676   2.325  0.0225 -0.5982  0.6338
  714MOL0     C96268   1.848   7.679   2.188  0.0427 -0.3001  1.1787
  714MOL0     C96269   1.708   7.619   2.198 -0.2345 -0.1002 -1.1420
  714MOL0     C96270   1.653   7.615   2.061  0.2554 -0.5936  0.3871
  714MOL0     C96271   1.713   7.496   1.978  0.2951  0.1607 -0.3628
  714MOL0     N96272   1.767   7.535   1.850  0.3507 -0.9922 -0.3779
  714MOL0     C96273   1.847   7.636   1.826  0.3560 -0.1339  0.0778
  714MOL0     C96274   1.897   7.609   1.699  0.0826 -0.7651 -0.0302
  714MOL0     C96275   1.973   7.714   1.611  0.1663  0.7909  0.7116
  714MOL0     C96276   2.125   7.678   1.617 -0.7451  0.7117  0.1057
  714MOL0     C96277   2.149   7.577   1.501  0.5154  0.4845 -0.0391
  714MOL0     C96278   2.292   7.519   1.511  0.2131 -0.2453 -0.6932
  714MOL0     O96279   2.383   7.632   1.493 -0.4453 -0.7905 -0.1721
  714MOL0     C96280   2.515   7.603   1.458 -0.1397  0.4539  0.3660
  714MOL0     C96281   2.608   7.708   1.446  0.3068  0.2866 -0.2978
  714MOL0     C96282   2.744   7.692   1.423 -0.0787  0.3501 -1.0944
  714MOL0     C96283   2.830   7.817   1.432 -0.7405  0.9211 -0.1158
  714MOL0     C96284   2.787   7.561   1.402 -1.1488  0.4131 -0.4561
  714MOL0     C96285   2.921   7.521   1.362  0.3535  0.7249  0.0590
  714MOL0     O96286   2.931   7.495   1.229 -0.4569  0.1491 -0.3962
  714MOL0     C96287   3.053   7.458   1.163  0.7312  0.3916 -0.8143
  714MOL0     C96288   3.172   7.430   1.227  0.5877 -1.0679  0.0295
  714MOL0     C96289   3.291   7.404   1.162  1.1660 -0.9873  0.1379
  714MOL0     C96290   3.302   7.392   1.024  0.4982 -0.5742 -0.5298
  714MOL0     O96291   3.415   7.372   0.945 -0.3637  0.5036  0.3929
  714MOL0     C96292   3.545   7.413   0.997 -0.2105 -0.9254 -0.3638
  714MOL0     C96293   3.659   7.380   0.890  0.2874  0.5335 -0.3019
  714MOL0     C96294   3.796   7.360   0.955 -1.0270 -0.4615 -0.5258
  714MOL0     C96295   3.901   7.351   0.842  0.9383 -1.0046  0.1661
  714MOL0     C96296   4.041   7.362   0.880 -0.4790  0.7083 -0.2754
  714MOL0     C96297   4.148   7.325   0.770  0.2137  0.2809 -0.5007
  714MOL0     C96298   4.130   7.409   0.643 -1.1314 -0.2875  0.1080
  714MOL0     C96299   4.166   7.554   0.664  0.1661  0.1775 -0.2419
  714MOL0    Cl96300   4.333   7.583   0.632  0.0799 -0.1059  0.2031
  714MOL0     C96301   3.179   7.408   0.958 -1.4431  0.7896  0.1922
  714MOL0     C96302   3.060   7.451   1.023 -0.5983  0.0366 -0.2682
  714MOL0     O96303   3.005   7.521   1.450 -0.3373  0.2318  0.4548
  714MOL0     C96304   2.698   7.457   1.420 -0.1681 -0.7857 -0.0723
  714MOL0     C96305   2.562   7.470   1.447 -0.5835 -0.6021  0.6778
  714MOL0     N96306   1.848   7.484   1.659  0.0886  0.1999  0.4578
  714MOL0     N96307   1.766   7.448   1.748  0.8910  0.3570 -1.4039
  714MOL0     C96308   2.307   8.134   2.703 -0.4579  0.2847 -0.0165
  714MOL0     C96309   2.393   8.238   2.734  0.0611 -0.2294  0.0960
  714MOL0     C96310   2.664   8.595   2.654 -0.4074  0.1968  0.6624
  714MOL0     C96311   2.784   8.560   2.728 -1.6623 -0.1838  0.0159
  714MOL0     C96312   2.889   8.654   2.743 -0.0999 -0.2192  0.5876
  714MOL0     C96313   2.874   8.784   2.699  0.2962 -0.1992 -0.1916
  714MOL0     O96314   2.980   8.876   2.705 -0.6395  0.2712 -0.1377
  714MOL0     C96315   2.968   9.016   2.731 -0.5565 -0.3080  0.3245
  714MOL0     C96316   3.019   9.050   2.875  0.0742 -0.6502 -0.1598
  714MOL0     C96317   2.934   8.994   2.988  0.5516  0.4293 -1.3435
  714MOL0     C96318   2.777   9.028   2.976 -1.2247 -0.1807 -0.9736
  714MOL0     C96319   2.740   9.175   2.966  0.1626 -0.0442 -0.4559
  714MOL0     C96320   2.717   9.298   2.960 -0.0165  0.1194 -0.1631
  714MOL0     C96321   2.751   8.820   2.633 -0.9435  0.7188 -0.8336
  714MOL0     C96322   2.648   8.731   2.611 -0.2552 -0.8846  0.0076
  714MOL0     H96323   2.612   8.177   2.488 -0.5811 -1.9010 -0.5037
  714MOL0     H96324   2.448   8.020   2.426  1.6717 -3.6264  2.2940
  714MOL0     H96325   2.236   7.926   2.361 -0.7245  2.2484  0.3808
  714MOL0     H96326   2.318   7.809   2.466  2.3385  2.6757  0.3915
  714MOL0     H96327   2.135   7.680   2.493  4.1002  1.9499 -0.9356
  714MOL0     H96328   2.034   7.811   2.528  0.4295 -0.2768 -0.2668
  714MOL0     H96329   2.013   7.848   2.274  1.9449  2.7486  4.8548
  714MOL0     H96330   2.098   7.688   2.244 -1.2398  0.4873 -2.8861
  714MOL0     H96331   1.926   7.572   2.353  2.5802 -0.9295 -1.7168
  714MOL0     H96332   1.846   7.722   2.402  0.5809 -0.8736  1.2675
  714MOL0     H96333   1.830   7.780   2.151 -1.4011 -1.2532 -0.9337
  714MOL0     H96334   1.913   7.626   2.117  0.3513  0.4775  0.8686
  714MOL0     H96335   1.698   7.522   2.247 -2.2371  1.5475  2.0086
  714MOL0     H96336   1.642   7.684   2.256 -0.0858 -0.3925 -0.6384
  714MOL0     H96337   1.544   7.618   2.060  0.1936 -0.0940 -2.7176
  714MOL0     H96338   1.678   7.703   2.001 -3.8394  0.0447 -0.6822
  714MOL0     H96339   1.625   7.431   1.972  0.4544 -0.3494  1.9623
  714MOL0     H96340   1.781   7.437   2.040 -2.1923  1.3259  3.8455
  714MOL0     H96341   1.862   7.729   1.880 -0.9481  0.6076 -0.7765
  714MOL0     H96342   1.926   7.722   1.512  0.2297 -0.8696  0.5276
  714MOL0     H96343   1.960   7.813   1.656 -1.1566  1.6386 -1.3677
  714MOL0     H96344   2.149   7.636   1.715 -2.5290  2.3413  1.3195
  714MOL0     H96345   2.183   7.769   1.595  0.6645  0.2378  1.6444
  714MOL0     H96346   2.134   7.626   1.405 -1.3531 -0.7691 -0.4489
  714MOL0     H96347   2.079   7.494   1.511  1.0589 -0.0765 -0.7388
  714MOL0     H96348   2.313   7.440   1.438  0.3843  0.5105 -1.4834
  714MOL0     H96349   2.308   7.474   1.609 -0.3753 -3.7711 -2.0824
  714MOL0     H96350   2.568   7.805   1.471  2.4311  0.1015  5.1391
  714MOL0     H96351   2.933   7.783   1.440 -1.3990 -2.0401 -2.4143
  714MOL0     H96352   2.835   7.870   1.337 -0.5671  1.1374  0.0127
  714MOL0     H96353   2.811   7.885   1.516 -0.6251  2.2354 -1.1296
  714MOL0     H96354   3.180   7.438   1.335  1.1902 -0.8970 -0.0261
  714MOL0     H96355   3.376   7.398   1.230  0.4127 -3.3589  0.9633
  714MOL0     H96356   3.543   7.521   1.016  0.6510 -0.6779 -1.5445
  714MOL0     H96357   3.557   7.356   1.089 -0.0744 -0.7567 -0.2765
  714MOL0     H96358   3.637   7.287   0.837 -0.7421  0.9965 -0.7023
  714MOL0     H96359   3.667   7.455   0.811 -2.4158 -2.1549 -3.3894
  714MOL0     H96360   3.802   7.263   1.004 -0.6066 -0.4165 -0.4823
  714MOL0     H96361   3.810   7.443   1.025 -1.5151 -1.3538  0.6452
  714MOL0     H96362   3.882   7.258   0.789  1.5920 -1.3863  0.5760
  714MOL0     H96363   3.876   7.427   0.767 -1.0293 -1.1063  0.6742
  714MOL0     H96364   4.075   7.299   0.963  0.5970  1.6900  0.0552
  714MOL0     H96365   4.067   7.462   0.915  0.7971 -0.1019  1.2566
  714MOL0     H96366   4.251   7.340   0.803 -0.3820  1.4374  0.9847
  714MOL0     H96367   4.143   7.219   0.741  3.5724 -0.5674  1.5224
  714MOL0     H96368   4.030   7.394   0.601 -1.0497  1.5249 -0.8193
  714MOL0     H96369   4.194   7.368   0.565 -2.7620  2.0906 -2.6610
  714MOL0     H96370   4.142   7.593   0.763  1.7492  0.0865  0.2060
  714MOL0     H96371   4.104   7.609   0.592  2.2491 -0.1763 -2.4581
  714MOL0     H96372   3.171   7.393   0.851 -5.0427  2.7663  0.0480
  714MOL0     H96373   2.964   7.467   0.974 -2.0743 -2.1713  1.6901
  714MOL0     H96374   2.742   7.360   1.404 -0.5269 -0.6573 -2.1894
  714MOL0     H96375   2.500   7.381   1.457 -0.6407 -0.7394 -0.6974
  714MOL0     H96376   2.228   8.112   2.773 -1.0930  2.4130  0.0043
  714MOL0     H96377   2.384   8.300   2.822  1.3775  1.9123 -1.1859
  714MOL0     H96378   2.810   8.468   2.779  3.6659  2.0415  2.1223
  714MOL0     H96379   2.977   8.632   2.802 -1.2985  1.2613  3.1241
  714MOL0     H96380   3.028   9.077   2.663 -0.2828 -0.0487  0.7892
  714MOL0     H96381   2.868   9.055   2.713  0.2248  0.4721 -2.9759
  714MOL0     H96382   3.029   9.156   2.897 -1.1837 -0.7667  1.1358
  714MOL0     H96383   3.117   9.004   2.895  0.6947  1.1416  1.1366
  714MOL0     H96384   2.976   9.034   3.081  2.6901 -0.7184 -1.7802
  714MOL0     H96385   2.933   8.885   2.983 -0.6825  0.0540  2.9399
  714MOL0     H96386   2.720   8.996   3.064  0.0033 -2.7334 -1.0131
  714MOL0     H96387   2.734   8.970   2.893 -3.3698 -1.9780  1.2332
  714MOL0     H96388   2.716   9.402   2.934  1.9374 -0.3240 -2.4145
  714MOL0     H96389   2.740   8.922   2.598  0.4235  0.4015 -2.2995
  714MOL0     H96390   2.564   8.773   2.557  1.0535  1.7131 -0.1804
  715MOL0     O96391   7.903  11.469   7.079  0.8922  0.1184 -0.5704
  715MOL0     C96392   7.955  11.384   7.015  0.2914 -0.3274 -0.3361
  715MOL0     O96393   8.090  11.343   7.022  0.3538 -0.3207  0.2693
  715MOL0     C96394   8.169  11.422   7.103  0.1350 -0.1088 -0.0174
  715MOL0     C96395   8.175  11.416   7.248  0.3602 -0.6555  0.7271
  715MOL0     C96396   8.251  11.494   7.333 -0.3795  1.0937  0.2668
  715MOL0     C96397   8.329  11.593   7.270  0.0546 -0.2361  0.6478
  715MOL0     O96398   8.406  11.691   7.334  0.3805  0.1738  0.4642
  715MOL0     C96399   8.427  11.670   7.474 -0.4728  0.6644 -0.7033
  715MOL0     C96400   8.543  11.756   7.533  0.0740 -0.6993  0.4639
  715MOL0     C96401   8.671  11.711   7.461 -0.7600  0.0789  0.2688
  715MOL0     C96402   8.781  11.808   7.514  0.8261  0.1704  0.6350
  715MOL0     C96403   8.916  11.804   7.439  0.6469 -0.5186 -0.4165
  715MOL0     C96404   9.005  11.907   7.507  0.5710  0.2819 -0.4108
  715MOL0     C96405   9.072  11.859   7.633 -1.2899  0.3409 -0.0031
  715MOL0     C96406   9.218  11.906   7.657  0.3032 -0.4666 -0.1247
  715MOL0     N96407   9.285  11.844   7.775  0.5347 -0.2502 -0.3735
  715MOL0     C96408   9.416  11.849   7.808 -0.0765 -0.5001 -0.3832
  715MOL0     C96409   9.432  11.789   7.924 -0.0499  0.2396 -0.1871
  715MOL0     C96410   9.563  11.750   7.984 -0.1170  0.0809  0.4841
  715MOL0     C96411   9.564  11.773   8.131  0.4173 -0.2609  0.1435
  715MOL0     C96412   9.483  11.676   8.206  0.1616 -0.4442 -0.2721
  715MOL0     C96413   9.522  11.692   8.354  0.2717 -0.7692  0.0938
  715MOL0     O96414   9.427  11.631   8.424  1.2569  0.4373 -1.0548
  715MOL0     C96415   9.450  11.615   8.557 -0.4690  0.5089 -0.6841
  715MOL0     C96416   9.451  11.484   8.613  0.6870 -0.1293 -0.6123
  715MOL0     C96417   9.458  11.455   8.752 -0.5200 -0.9263  0.1731
  715MOL0     C96418   9.469  11.315   8.781  0.5159  0.2516  0.9009
  715MOL0     C96419   9.486  11.564   8.841  0.4232  0.4020 -0.5001
  715MOL0     C96420   9.492  11.548   8.987 -0.0411  0.0080  0.4939
  715MOL0     O96421   9.593  11.606   9.052 -0.3019 -0.0880 -1.1176
  715MOL0     C96422   9.580  11.605   9.185  0.0788 -0.5174  0.1388
  715MOL0     C96423   9.658  11.518   9.253  0.6977 -0.1862 -0.1795
  715MOL0     C96424   9.628  11.504   9.395  0.3805 -0.6185  0.6578
  715MOL0     C96425   9.538  11.593   9.461  0.3530  1.6258  0.8137
  715MOL0     O96426   9.518  11.601   9.595  0.3338  0.1924 -0.4230
  715MOL0     C96427   9.635  11.548   9.678  0.2708 -0.1440 -0.3954
  715MOL0     C96428   9.626  11.573   9.831 -0.5322 -0.1917 -0.4292
  715MOL0     C96429   9.606  11.725   9.840  0.0660 -0.1813 -0.5072
  715MOL0     C96430   9.660  11.779   9.971 -0.0062  1.1394 -0.5694
  715MOL0     C96431   9.642  11.935   9.988 -0.3641  1.3274 -0.2654
  715MOL0     C96432   9.676  11.976  10.137 -0.3962  0.6654 -0.5325
  715MOL0     C96433   9.634  12.114  10.176  0.3088  0.4842 -0.6562
  715MOL0     C96434   9.735  12.167  10.283 -0.1817 -0.3586 -0.5961
  715MOL0    Cl96435   9.865  12.254  10.193 -0.4396  0.0568 -0.6515
  715MOL0     C96436   9.472  11.688   9.381  0.7188  0.5578 -1.1484
  715MOL0     C96437   9.482  11.690   9.248 -0.2846 -0.9000 -0.3626
  715MOL0     O96438   9.399  11.480   9.037 -0.0362  0.4453  0.4612
  715MOL0     C96439   9.477  11.693   8.789 -0.3351  0.3188 -0.2690
  715MOL0     C96440   9.457  11.726   8.651  0.0854  0.7121 -0.1019
  715MOL0     N96441   9.306  11.753   7.965  0.3412  0.3573 -0.0101
  715MOL0     N96442   9.221  11.777   7.876  0.0598  0.0378  1.0281
  715MOL0     C96443   8.339  11.594   7.133  0.6776 -0.9627  0.6378
  715MOL0     C96444   8.255  11.511   7.053  1.2790 -0.5747  0.4451
  715MOL0     C96445   7.871  11.329   6.911 -0.1066 -0.0294  0.0480
  715MOL0     C96446   7.731  11.352   6.885 -0.7188  0.2842 -1.0456
  715MOL0     C96447   7.665  11.284   6.786  0.0770 -0.0512  0.0214
  715MOL0     C96448   7.735  11.189   6.704 -0.5577 -0.7809  0.3594
  715MOL0     O96449   7.680  11.124   6.606 -0.7483 -0.1671 -0.3455
  715MOL0     C96450   7.541  11.136   6.562 -0.2819  0.6496  0.4585
  715MOL0     C96451   7.535  11.224   6.445  0.2585 -0.8482  0.5507
  715MOL0     C96452   7.542  11.369   6.473  0.4570 -0.2013 -1.1638
  715MOL0     C96453   7.507  11.459   6.355  0.6533  0.1561 -0.8170
  715MOL0     C96454   7.519  11.596   6.406 -0.5291  0.5097 -0.0948
  715MOL0     C96455   7.511  11.706   6.444 -1.0088  0.3677 -0.1620
  715MOL0     C96456   7.865  11.157   6.731  0.6768  0.3812  0.4333
  715MOL0     C96457   7.933  11.225   6.834 -0.7534 -0.3680  0.7264
  715MOL0     H96458   8.103  11.345   7.288 -2.2121  1.4860  0.1898
  715MOL0     H96459   8.219  11.488   7.437 -1.1856 -2.7563 -0.0220
  715MOL0     H96460   8.340  11.699   7.535 -1.4234 -1.7193 -0.8007
  715MOL0     H96461   8.439  11.562   7.490 -1.9720  0.2282 -2.2495
  715MOL0     H96462   8.517  11.862   7.522 -1.2302 -1.2409 -3.7914
  715MOL0     H96463   8.558  11.734   7.638  0.0692  0.6171  0.7654
  715MOL0     H96464   8.698  11.607   7.485  0.4243  0.2355 -0.3099
  715MOL0     H96465   8.676  11.720   7.352  0.3723  0.0831  0.3030
  715MOL0     H96466   8.741  11.909   7.500 -0.1442 -0.0965  1.3656
  715MOL0     H96467   8.801  11.805   7.621  2.4373 -1.2180  0.3261
  715MOL0     H96468   8.958  11.703   7.436  1.0173 -0.3566 -0.9113
  715MOL0     H96469   8.887  11.830   7.337 -0.7644 -1.3753 -0.2618
  715MOL0     H96470   9.088  11.939   7.443  1.0119  1.2871  0.6245
  715MOL0     H96471   8.947  11.999   7.518 -1.6597 -0.6929 -2.9469
  715MOL0     H96472   9.009  11.881   7.720 -1.5795 -0.4275 -0.0148
  715MOL0     H96473   9.073  11.750   7.632  3.0711  0.1625  2.3283
  715MOL0     H96474   9.225  12.015   7.665  4.7344 -0.6521  2.2501
  715MOL0     H96475   9.283  11.876   7.574  1.3218  0.9576  0.1111
  715MOL0     H96476   9.500  11.882   7.748  0.1843  1.1401  0.8283
  715MOL0     H96477   9.592  11.645   7.969  1.3101  0.5964 -0.4338
  715MOL0     H96478   9.646  11.799   7.934 -0.7859 -1.1147 -1.9853
  715MOL0     H96479   9.537  11.877   8.154  2.1659  0.0322  1.0364
  715MOL0     H96480   9.666  11.750   8.163  1.3821 -1.7004 -3.4531
  715MOL0     H96481   9.507  11.577   8.167  0.4945 -0.6699  0.4676
  715MOL0     H96482   9.376  11.692   8.192 -0.0777 -1.9452 -0.3927
  715MOL0     H96483   9.529  11.799   8.373  0.4317 -0.4233 -1.7476
  715MOL0     H96484   9.626  11.663   8.377 -0.2419 -2.0616  0.9352
  715MOL0     H96485   9.451  11.402   8.542  0.8622 -0.5040 -0.1839
  715MOL0     H96486   9.377  11.283   8.831 -0.3325  2.3878  0.8461
  715MOL0     H96487   9.506  11.268   8.690  2.2352  4.0524 -0.5878
  715MOL0     H96488   9.544  11.287   8.855  1.1660 -0.2693  0.0667
  715MOL0     H96489   9.731  11.454   9.205 -0.2836 -1.5172  0.0211
  715MOL0     H96490   9.682  11.431   9.454  1.5371  0.7028  1.3084
  715MOL0     H96491   9.647  11.440   9.671  0.9938 -0.6238  4.6522
  715MOL0     H96492   9.723  11.604   9.644  0.0882  0.4160  0.0412
  715MOL0     H96493   9.559  11.512   9.892  0.5000 -0.1533  0.8032
  715MOL0     H96494   9.731  11.551   9.856  1.2327  5.3360 -1.5819
  715MOL0     H96495   9.499  11.746   9.833 -0.1304 -0.8197  0.4203
  715MOL0     H96496   9.656  11.780   9.760 -0.7972 -1.1192 -1.7307
  715MOL0     H96497   9.588  11.735  10.041 -0.1678  1.6410 -0.4155
  715MOL0     H96498   9.758  11.742  10.000 -1.5076 -1.1349  2.0224
  715MOL0     H96499   9.540  11.969   9.963 -0.0464  1.6425 -1.1647
  715MOL0     H96500   9.700  11.996   9.917 -0.0591  2.2055  0.7150
  715MOL0     H96501   9.616  11.904  10.195  0.5100 -0.9050 -1.4840
  715MOL0     H96502   9.781  11.951  10.153  0.7234  1.5123 -5.1377
  715MOL0     H96503   9.536  12.122  10.224  0.8149  2.7264  0.1322
  715MOL0     H96504   9.625  12.183  10.091  3.4054 -0.6357 -2.0498
  715MOL0     H96505   9.767  12.084  10.347 -1.9052  0.6168  1.6671
  715MOL0     H96506   9.689  12.240  10.350  1.2958  0.2874 -0.2496
  715MOL0     H96507   9.390  11.742   9.428  0.6158  0.2866 -1.0126
  715MOL0     H96508   9.434  11.769   9.191  1.8951  0.5285 -0.3310
  715MOL0     H96509   9.499  11.777   8.855 -1.4671 -1.4013  2.4680
  715MOL0     H96510   9.455  11.830   8.620  0.7072  1.1323  1.2077
  715MOL0     H96511   8.397  11.677   7.093  1.1559 -2.2948 -1.5961
  715MOL0     H96512   8.250  11.523   6.945 -6.0889  0.7754  0.3918
  715MOL0     H96513   7.682  11.424   6.949  0.4493  0.0176  0.2061
  715MOL0     H96514   7.559  11.296   6.767 -0.3812 -2.3876  0.7161
  715MOL0     H96515   7.507  11.043   6.516  2.0834 -0.6658  1.1739
  715MOL0     H96516   7.466  11.153   6.639 -1.3412 -1.9404  0.0841
  715MOL0     H96517   7.450  11.207   6.379 -1.2724  2.3874  1.4571
  715MOL0     H96518   7.626  11.210   6.386 -1.1616  0.3051 -2.0991
  715MOL0     H96519   7.644  11.396   6.503 -1.0616  0.9314  4.1928
  715MOL0     H96520   7.473  11.396   6.554  1.9653 -0.9436  0.4422
  715MOL0     H96521   7.410  11.427   6.314 -0.2152  1.1614  0.3690
  715MOL0     H96522   7.574  11.442   6.271 -0.4243  1.3148 -1.9593
  715MOL0     H96523   7.515  11.808   6.476 -1.7364 -0.2529  2.0761
  715MOL0     H96524   7.918  11.079   6.678  0.6281  0.4296  0.3132
  715MOL0     H96525   8.036  11.197   6.854 -1.0943 -1.1085  1.4990
  716MOL0     O96526  10.829   0.372   4.914 -0.0737  0.8706 -0.0200
  716MOL0     C96527  10.774   0.270   4.878 -0.3622  0.7499 -0.7603
  716MOL0     O96528  10.821   0.143   4.898 -0.0667 -0.5445 -0.0033
  716MOL0     C96529  10.952   0.113   4.926  0.4706 -0.0530  0.3606
  716MOL0     C96530  11.052   0.203   4.907  0.5420 -0.1135 -0.6063
  716MOL0     C96531  11.183   0.179   4.940  1.1381  0.2132 -0.1815
  716MOL0     C96532  11.226   0.053   4.994  0.2137 -0.2182  0.0992
  716MOL0     O96533  11.359   0.021   5.011 -0.0810 -0.3560  0.1180
  716MOL0     C96534  11.390  -0.116   5.010  0.1112  0.5989  0.9328
  716MOL0     C96535  11.534  -0.143   4.982  0.3426 -0.0581  0.3264
  716MOL0     C96536  11.565  -0.279   5.020 -0.3293  0.1170 -0.3963
  716MOL0     C96537  11.584  -0.291   5.172  0.0557 -0.7802 -0.6167
  716MOL0     C96538  11.607  -0.432   5.229 -0.3292 -0.9207  0.2521
  716MOL0     C96539  11.745  -0.483   5.189 -0.7579  0.1208 -0.0093
  716MOL0     C96540  11.776  -0.616   5.271  0.2042  0.0590 -0.7124
  716MOL0     C96541  11.708  -0.756   5.241  1.2047 -0.1888  0.8083
  716MOL0     N96542  11.570  -0.763   5.284  0.0355 -0.1848 -0.0661
  716MOL0     C96543  11.458  -0.760   5.214  0.5188  0.0367  1.0553
  716MOL0     C96544  11.357  -0.784   5.302  1.1276  0.3809  0.0125
  716MOL0     C96545  11.208  -0.799   5.262  0.1747  0.3565 -0.9751
  716MOL0     C96546  11.113  -0.703   5.340 -0.6393 -1.0583  0.0736
  716MOL0     C96547  11.143  -0.547   5.329 -1.1897 -0.8533  0.6988
  716MOL0     C96548  11.237  -0.491   5.445  0.0953  0.9083 -0.1334
  716MOL0     O96549  11.271  -0.353   5.435  0.4929 -0.7438 -0.2979
  716MOL0     C96550  11.184  -0.250   5.454  0.4938  0.0715  0.1547
  716MOL0     C96551  11.061  -0.249   5.534  0.2343 -0.2334  0.0084
  716MOL0     C96552  10.967  -0.150   5.539 -0.8445 -1.1469  1.5678
  716MOL0     C96553  10.842  -0.167   5.620  0.4752 -0.3139 -0.5842
  716MOL0     C96554  11.008  -0.030   5.459 -0.4154  1.0271  0.1123
  716MOL0     C96555  10.925   0.094   5.467 -0.6574  1.6717 -0.6967
  716MOL0     O96556  10.977   0.206   5.417  0.3023 -0.1016  0.3323
  716MOL0     C96557  10.905   0.319   5.435  0.1211 -0.5979 -0.1318
  716MOL0     C96558  10.963   0.425   5.506 -0.0747  0.4216 -0.3603
  716MOL0     C96559  10.889   0.550   5.527  0.8885  0.4274  0.1095
  716MOL0     C96560  10.763   0.561   5.466 -0.0073 -0.2640 -0.6694
  716MOL0     O96561  10.696   0.673   5.468  0.5716  0.1134 -0.0512
  716MOL0     C96562  10.765   0.796   5.485  0.7622  0.4706  0.4893
  716MOL0     C96563  10.653   0.907   5.458  0.0119  0.2133  0.9123
  716MOL0     C96564  10.515   0.888   5.537  0.2393 -0.4879 -0.3165
  716MOL0     C96565  10.560   0.892   5.689  0.0136  0.0836 -0.3857
  716MOL0     C96566  10.450   0.913   5.797 -0.0509  0.1183  0.7536
  716MOL0     C96567  10.349   0.799   5.774  0.7315 -0.8147 -0.5107
  716MOL0     C96568  10.258   0.786   5.896  0.7411  0.2559 -0.7030
  716MOL0     C96569  10.144   0.680   5.875 -0.6799  1.3869 -0.1337
  716MOL0    Cl96570  10.216   0.511   5.852 -0.4710  0.4255 -0.2398
  716MOL0     C96571  10.702   0.448   5.405  0.7245  0.1398  0.2398
  716MOL0     C96572  10.773   0.329   5.386  0.0740 -0.1518 -0.2024
  716MOL0     O96573  10.816   0.084   5.524  0.5188 -1.3404  0.2919
  716MOL0     C96574  11.132  -0.027   5.387  0.4829  0.2628  0.4231
  716MOL0     C96575  11.212  -0.136   5.386  0.4726  0.3353 -1.1279
  716MOL0     N96576  11.409  -0.796   5.429  1.1390  0.0598 -0.2917
  716MOL0     N96577  11.531  -0.783   5.417  0.3201  0.0983  0.6016
  716MOL0     C96578  11.118  -0.045   5.010 -0.1272  0.1240 -1.0999
  716MOL0     C96579  10.989  -0.012   4.976 -0.2213 -0.3419 -0.0243
  716MOL0     C96580  10.623   0.276   4.846 -1.7117 -0.7783  0.3224
  716MOL0     C96581  10.536   0.369   4.915 -1.1647  0.0811  0.2347
  716MOL0     C96582  10.398   0.375   4.874 -0.5638  0.1396 -0.2247
  716MOL0     C96583  10.338   0.292   4.783  0.6653  0.4095  0.6293
  716MOL0     O96584  10.198   0.308   4.767 -0.6119 -0.1642  0.3242
  716MOL0     C96585  10.137   0.214   4.687  0.8656  1.2487  0.3894
  716MOL0     C96586   9.981   0.235   4.682 -0.8273  0.5752 -0.0121
  716MOL0     C96587   9.938   0.360   4.599  1.2247  0.5129  0.7712
  716MOL0     C96588   9.899   0.323   4.449  0.1328  0.0423  0.8123
  716MOL0     C96589   9.865   0.441   4.370  0.8429  0.6321  0.5417
  716MOL0     C96590   9.838   0.527   4.285 -0.1867 -0.2190 -1.0000
  716MOL0     C96591  10.423   0.191   4.728 -0.0664  0.4239 -0.3591
  716MOL0     C96592  10.558   0.177   4.765 -1.3264 -0.2594 -0.1446
  716MOL0     H96593  11.026   0.303   4.874  1.1217  0.3155  0.2035
  716MOL0     H96594  11.266   0.247   4.923  1.3547  0.3312  1.1985
  716MOL0     H96595  11.341  -0.168   5.094 -1.3293 -3.3195 -1.9965
  716MOL0     H96596  11.340  -0.163   4.925 -1.4225 -1.0207  2.6358
  716MOL0     H96597  11.532  -0.134   4.873  1.9761  0.2249  0.2884
  716MOL0     H96598  11.602  -0.070   5.028 -1.7400  0.7068  2.3780
  716MOL0     H96599  11.482  -0.345   4.992 -1.8117  1.2593  1.1254
  716MOL0     H96600  11.661  -0.302   4.971  0.3380 -1.7460  1.6548
  716MOL0     H96601  11.666  -0.223   5.200 -0.1112 -0.7729 -0.1463
  716MOL0     H96602  11.503  -0.239   5.223  0.9626  2.0212 -1.8017
  716MOL0     H96603  11.602  -0.411   5.336  1.4575  3.4512 -0.3521
  716MOL0     H96604  11.526  -0.503   5.205 -1.9228  0.9434 -0.1085
  716MOL0     H96605  11.746  -0.518   5.085 -0.1834 -0.1880  0.1006
  716MOL0     H96606  11.817  -0.403   5.209 -0.4434  0.5605 -2.5581
  716MOL0     H96607  11.881  -0.632   5.243  0.0752  1.6844 -2.3030
  716MOL0     H96608  11.760  -0.604   5.379  0.7909  1.5674 -0.7563
  716MOL0     H96609  11.772  -0.840   5.269 -0.6405 -1.8635  0.2125
  716MOL0     H96610  11.704  -0.755   5.131  1.6589  1.1377  0.7855
  716MOL0     H96611  11.448  -0.750   5.106  1.3619 -1.6026  0.7844
  716MOL0     H96612  11.194  -0.789   5.154  0.2408  0.8426 -0.9407
  716MOL0     H96613  11.182  -0.904   5.277  0.8983  0.4610  1.4048
  716MOL0     H96614  11.112  -0.732   5.446 -0.1379  0.2777  0.4695
  716MOL0     H96615  11.010  -0.725   5.311  0.1274 -0.8990 -3.1480
  716MOL0     H96616  11.051  -0.489   5.321 -1.1314 -0.7393  0.8422
  716MOL0     H96617  11.192  -0.530   5.233 -2.1993 -0.0004  0.3214
  716MOL0     H96618  11.333  -0.544   5.442  2.1384  4.2119  1.0220
  716MOL0     H96619  11.199  -0.508   5.546  3.3718 -2.3392  0.7651
  716MOL0     H96620  11.032  -0.343   5.581 -0.9014  0.9951  1.8549
  716MOL0     H96621  10.839  -0.114   5.715  0.0932 -1.2900 -0.0306
  716MOL0     H96622  10.758  -0.137   5.556  2.1684  0.5820 -2.5027
  716MOL0     H96623  10.828  -0.274   5.639  2.6958 -0.3918  1.0341
  716MOL0     H96624  11.051   0.416   5.569 -1.2333 -3.0477  1.0046
  716MOL0     H96625  10.932   0.636   5.577  1.4159  0.9555 -1.1882
  716MOL0     H96626  10.801   0.812   5.587 -1.9685 -3.9580  2.4634
  716MOL0     H96627  10.847   0.808   5.414  0.6515 -0.7141  0.1345
  716MOL0     H96628  10.688   1.008   5.480  0.5558  0.0634  0.7578
  716MOL0     H96629  10.629   0.913   5.352 -1.3059  1.4001  1.2430
  716MOL0     H96630  10.475   0.793   5.502  1.7208 -0.5110 -2.1045
  716MOL0     H96631  10.448   0.970   5.510  0.8530 -0.0082 -0.4169
  716MOL0     H96632  10.618   0.805   5.721  1.2218  1.9782  3.1706
  716MOL0     H96633  10.642   0.964   5.696  0.3708 -0.4304  1.5080
  716MOL0     H96634  10.393   1.006   5.799 -1.2106 -0.4867 -1.3358
  716MOL0     H96635  10.495   0.921   5.897 -0.6233  2.0387  0.8912
  716MOL0     H96636  10.286   0.812   5.686 -0.3728 -1.5251  0.1389
  716MOL0     H96637  10.413   0.710   5.772  1.7761 -0.0816 -0.8667
  716MOL0     H96638  10.213   0.885   5.912 -1.6096 -0.9211  0.4636
  716MOL0     H96639  10.316   0.750   5.981 -1.5950 -2.3819 -0.0888
  716MOL0     H96640  10.071   0.705   5.797 -3.9159  0.2868  2.3339
  716MOL0     H96641  10.089   0.676   5.969 -1.2726  0.2979 -0.5098
  716MOL0     H96642  10.598   0.450   5.372  0.2265  0.5645  1.7501
  716MOL0     H96643  10.723   0.245   5.338 -1.3591  0.5866 -0.0535
  716MOL0     H96644  11.158   0.070   5.345 -0.3116 -0.4190 -1.7530
  716MOL0     H96645  11.306  -0.127   5.332  1.2070  0.1734  0.0885
  716MOL0     H96646  11.129  -0.143   5.055 -2.6831  1.0411  1.8367
  716MOL0     H96647  10.909  -0.081   4.999 -0.6151  0.6949  1.9754
  716MOL0     H96648  10.570   0.440   4.989 -0.8534 -0.5988  0.7538
  716MOL0     H96649  10.346   0.449   4.934  2.6264  1.7985  0.6857
  716MOL0     H96650  10.184   0.221   4.588  0.5048 -0.6535  0.0532
  716MOL0     H96651  10.160   0.110   4.709  2.2386  0.8720 -2.3954
  716MOL0     H96652   9.932   0.240   4.780 -2.1616  2.6177 -0.7058
  716MOL0     H96653   9.954   0.147   4.623 -0.6220  0.8610 -0.5364
  716MOL0     H96654  10.018   0.435   4.597 -0.2773  2.1932  0.5167
  716MOL0     H96655   9.855   0.398   4.658  0.1154  0.8286 -0.9155
  716MOL0     H96656   9.816   0.252   4.443  0.4889 -0.7205  3.4434
  716MOL0     H96657   9.977   0.277   4.387 -2.6975 -3.5261 -0.4654
  716MOL0     H96658   9.825   0.603   4.210 -2.2467  1.2539  0.7425
  716MOL0     H96659  10.390   0.117   4.656  2.2676 -0.9907 -0.1030
  716MOL0     H96660  10.617   0.090   4.737 -1.1167 -0.4111  0.7380
  717MOL0     O96661  11.258  10.397   4.243  0.3182  0.2509 -0.5716
  717MOL0     C96662  11.238  10.435   4.131 -0.5998 -0.3292  0.9939
  717MOL0     O96663  11.135  10.407   4.055 -0.3652 -0.0836  0.6746
  717MOL0     C96664  11.025  10.343   4.103  1.0804  0.0830 -0.6515
  717MOL0     C96665  11.013  10.204   4.130  0.6358 -0.0152 -0.7208
  717MOL0     C96666  10.891  10.151   4.175 -0.6004 -0.2274 -0.3231
  717MOL0     C96667  10.788  10.238   4.217  0.5201  1.3575  0.0987
  717MOL0     O96668  10.666  10.179   4.262  0.0006  0.5391  0.2723
  717MOL0     C96669  10.548  10.259   4.292 -0.4118 -0.3514 -0.2860
  717MOL0     C96670  10.540  10.335   4.431 -0.1569 -0.3116 -0.0360
  717MOL0     C96671  10.575  10.265   4.552 -0.0474 -0.1516  0.1991
  717MOL0     C96672  10.516  10.128   4.558 -0.2473 -0.1778 -0.2381
  717MOL0     C96673  10.503  10.076   4.706 -0.5085  0.0693  0.2135
  717MOL0     C96674  10.443   9.937   4.705  1.2885  0.2900 -0.6607
  717MOL0     C96675  10.389   9.921   4.855 -0.5556 -0.6369  0.7365
  717MOL0     C96676  10.408   9.776   4.905 -0.5077 -0.1030  0.6417
  717MOL0     N96677  10.351   9.668   4.820 -0.2707 -1.2146 -1.1037
  717MOL0     C96678  10.217   9.640   4.817 -0.4484 -0.4810 -0.2772
  717MOL0     C96679  10.206   9.530   4.742 -1.1475 -0.3663 -0.2676
  717MOL0     C96680  10.082   9.455   4.723 -0.7904  0.9432  0.0794
  717MOL0     C96681  10.095   9.361   4.605 -0.4331  0.3097  0.3772
  717MOL0     C96682   9.964   9.317   4.542  0.2217 -0.1686 -0.5625
  717MOL0     C96683   9.878   9.242   4.649  0.6977 -0.3202 -0.8290
  717MOL0     O96684   9.748   9.226   4.585 -0.2013  0.0099  0.0826
  717MOL0     C96685   9.717   9.089   4.552 -0.4636  0.1764  0.0204
  717MOL0     C96686   9.692   8.992   4.655 -1.2244 -0.1332 -0.2577
  717MOL0     C96687   9.628   8.871   4.632  0.3061 -0.7581  0.4460
  717MOL0     C96688   9.587   8.776   4.753 -0.0458 -0.1461 -0.5511
  717MOL0     C96689   9.603   8.836   4.496 -0.0722 -0.4165 -0.4612
  717MOL0     C96690   9.555   8.706   4.453 -0.0588 -0.1017 -0.1494
  717MOL0     O96691   9.483   8.711   4.331 -0.0539  0.0532 -0.4312
  717MOL0     C96692   9.429   8.583   4.304 -0.5892 -0.8807 -0.0059
  717MOL0     C96693   9.471   8.541   4.181 -0.3535 -0.9569 -0.3639
  717MOL0     C96694   9.416   8.431   4.116 -1.3346 -0.7527 -0.7015
  717MOL0     C96695   9.325   8.354   4.177 -0.0678 -0.6571  0.0060
  717MOL0     O96696   9.285   8.252   4.104  0.2226  0.5505 -0.3429
  717MOL0     C96697   9.166   8.183   4.148  0.9037  0.7077  0.3207
  717MOL0     C96698   9.104   8.091   4.039 -0.2418 -0.9842  0.4614
  717MOL0     C96699   8.954   8.051   4.065 -0.7280 -1.0761 -0.2379
  717MOL0     C96700   8.925   8.016   4.210 -0.8859 -1.0274 -0.5341
  717MOL0     C96701   8.795   7.942   4.217  0.6747  0.4456 -0.7462
  717MOL0     C96702   8.672   8.026   4.193 -0.1022  0.7274 -0.4186
  717MOL0     C96703   8.545   7.954   4.243  1.3320 -0.9057  0.4229
  717MOL0     C96704   8.459   8.040   4.335  0.5442 -0.0707 -0.4977
  717MOL0    Cl96705   8.411   8.194   4.248  0.3483 -0.3467 -0.6191
  717MOL0     C96706   9.285   8.387   4.316  0.7548 -1.1885 -0.6168
  717MOL0     C96707   9.327   8.509   4.370  0.0684 -0.2088  0.4217
  717MOL0     O96708   9.573   8.603   4.518 -0.1350  0.7904  0.5275
  717MOL0     C96709   9.641   8.930   4.395  0.3485  0.5987  0.3907
  717MOL0     C96710   9.692   9.059   4.422 -0.8737  0.1333  0.2442
  717MOL0     N96711  10.336   9.491   4.682  0.1256 -0.3936  0.5148
  717MOL0     N96712  10.413   9.581   4.729  0.3533 -0.4766  0.2663
  717MOL0     C96713  10.808  10.379   4.204  0.1562  0.5269 -0.6242
  717MOL0     C96714  10.920  10.428   4.142  0.3385 -0.0309  0.0230
  717MOL0     C96715  11.349  10.511   4.077  0.5258  0.0769  0.0183
  717MOL0     C96716  11.381  10.509   3.939 -0.3226 -0.7142  0.4343
  717MOL0     C96717  11.478  10.596   3.897 -0.5596  0.7329  1.0514
  717MOL0     C96718  11.565  10.663   3.984  0.0380 -0.0306  0.0121
  717MOL0     O96719  11.676  10.739   3.923 -0.0329  0.1167  0.7513
  717MOL0     C96720  11.766  10.801   4.007 -1.0607  0.8656  0.7342
  717MOL0     C96721  11.878  10.874   3.929 -0.3378  0.0343  0.9444
  717MOL0     C96722  11.829  10.995   3.841 -1.0878 -0.4553 -1.0931
  717MOL0     C96723  11.754  11.092   3.928 -0.0003  0.9476 -0.5083
  717MOL0     C96724  11.760  11.219   3.860 -0.0313 -0.8624 -0.1393
  717MOL0     C96725  11.748  11.326   3.806 -0.0472 -0.9832 -0.1789
  717MOL0     C96726  11.544  10.658   4.117 -0.2583  0.6121 -0.5001
  717MOL0     C96727  11.436  10.581   4.164 -0.5226  0.6267 -1.1617
  717MOL0     H96728  11.100  10.141   4.113  0.5325 -1.0256  1.9223
  717MOL0     H96729  10.885  10.042   4.180  2.0170 -0.4421 -0.6581
  717MOL0     H96730  10.508  10.326   4.216 -0.2883  1.7126  1.3820
  717MOL0     H96731  10.476  10.177   4.303  0.3217 -1.0562 -0.6958
  717MOL0     H96732  10.583  10.434   4.415  1.0873 -0.9773 -0.9700
  717MOL0     H96733  10.434  10.357   4.448 -0.3512 -1.4377  0.2718
  717MOL0     H96734  10.685  10.265   4.544  0.0162  4.4036 -3.2134
  717MOL0     H96735  10.555  10.310   4.649 -1.0848  2.4365 -1.1045
  717MOL0     H96736  10.412  10.139   4.529 -0.1368  1.1552 -0.1940
  717MOL0     H96737  10.567  10.053   4.496 -1.3547 -0.6649 -0.5765
  717MOL0     H96738  10.600  10.070   4.756 -0.0925  0.0140 -0.5914
  717MOL0     H96739  10.441  10.142   4.768 -1.7247 -0.7575 -0.0982
  717MOL0     H96740  10.366   9.913   4.631 -2.9418 -3.1471  4.0830
  717MOL0     H96741  10.523   9.864   4.691 -0.2485 -1.2069 -2.0682
  717MOL0     H96742  10.432   9.989   4.930  0.2749 -0.2226 -0.0914
  717MOL0     H96743  10.284   9.950   4.864 -0.1175  0.3332  4.0896
  717MOL0     H96744  10.364   9.766   5.005 -0.0715 -1.5923  0.7079
  717MOL0     H96745  10.515   9.763   4.923  0.0072  2.1959 -0.4972
  717MOL0     H96746  10.124   9.677   4.860 -0.0440 -0.1184  0.2939
  717MOL0     H96747  10.062   9.388   4.807 -1.4289  2.5816  1.2895
  717MOL0     H96748  10.002   9.529   4.715 -0.5612  1.1241 -0.5703
  717MOL0     H96749  10.148   9.270   4.635  0.2973  0.5956 -0.0195
  717MOL0     H96750  10.152   9.405   4.523  0.5158  0.0130  0.8658
  717MOL0     H96751   9.987   9.252   4.457  2.1011  0.9480 -0.9812
  717MOL0     H96752   9.918   9.412   4.511 -0.5208 -0.7151 -1.1583
  717MOL0     H96753   9.862   9.300   4.740  5.6630  2.3541 -1.2681
  717MOL0     H96754   9.928   9.147   4.671  0.1857 -0.5263 -0.5500
  717MOL0     H96755   9.708   9.029   4.755 -2.2755  3.3712 -1.2525
  717MOL0     H96756   9.612   8.816   4.852 -1.2481  0.9967 -0.6760
  717MOL0     H96757   9.479   8.758   4.748 -0.4967  2.1628 -0.3246
  717MOL0     H96758   9.635   8.679   4.737  0.2144  0.0154 -0.7507
  717MOL0     H96759   9.549   8.591   4.126  0.0821 -1.8021 -0.5230
  717MOL0     H96760   9.449   8.407   4.015 -2.2615 -1.2199 -0.9019
  717MOL0     H96761   9.183   8.123   4.238  0.6017  0.6172  0.3179
  717MOL0     H96762   9.086   8.253   4.174 -0.9631 -0.5831 -1.6050
  717MOL0     H96763   9.123   8.143   3.945  0.8470 -1.0309  0.6427
  717MOL0     H96764   9.164   8.000   4.044  3.4070  0.9980 -2.4480
  717MOL0     H96765   8.936   7.967   3.997 -3.9830 -1.6727  1.1538
  717MOL0     H96766   8.886   8.134   4.046 -1.6653 -1.3641  1.6195
  717MOL0     H96767   9.007   7.945   4.230  0.7319 -0.1619 -3.5021
  717MOL0     H96768   8.943   8.102   4.275  0.9604 -2.0209  0.3882
  717MOL0     H96769   8.786   7.899   4.317 -1.3634  2.4705  0.0393
  717MOL0     H96770   8.791   7.857   4.148 -3.0652 -1.7393  1.8314
  717MOL0     H96771   8.683   8.125   4.238  0.3374 -0.1178  1.3917
  717MOL0     H96772   8.668   8.043   4.085  6.7732  0.5418 -1.1148
  717MOL0     H96773   8.565   7.866   4.305 -0.6603 -3.7352 -2.5717
  717MOL0     H96774   8.481   7.926   4.159 -0.8282  3.5933  0.2590
  717MOL0     H96775   8.505   8.056   4.433  1.8018 -0.9652 -0.9084
  717MOL0     H96776   8.373   7.978   4.361  0.0541  0.1891 -1.4679
  717MOL0     H96777   9.221   8.326   4.378  2.6341 -0.4307  2.3225
  717MOL0     H96778   9.288   8.538   4.467 -0.4384 -2.5548  0.9634
  717MOL0     H96779   9.628   8.895   4.293 -1.0728 -0.5929  0.9498
  717MOL0     H96780   9.715   9.125   4.339 -0.1747  0.2236  0.4953
  717MOL0     H96781  10.725  10.446   4.221  0.7439  1.1030  0.0192
  717MOL0     H96782  10.940  10.534   4.135  0.5100 -0.0561  0.1236
  717MOL0     H96783  11.316  10.443   3.883  0.9665 -0.8808 -0.9365
  717MOL0     H96784  11.498  10.599   3.790  1.1989 -0.0359  1.3285
  717MOL0     H96785  11.718  10.867   4.080 -4.3416  1.1687 -1.4462
  717MOL0     H96786  11.821  10.724   4.061  1.3373 -0.4834 -3.2010
  717MOL0     H96787  11.946  10.814   3.868  0.4404  2.4345 -0.7440
  717MOL0     H96788  11.945  10.895   4.013 -1.3539 -2.3717  2.4577
  717MOL0     H96789  11.785  10.955   3.750  0.5866  0.0690 -2.1757
  717MOL0     H96790  11.920  11.043   3.805 -1.7863  0.4884 -1.6269
  717MOL0     H96791  11.798  11.094   4.028  1.4052  1.4380 -1.1086
  717MOL0     H96792  11.654  11.049   3.943  1.1674 -2.0510 -0.5329
  717MOL0     H96793  11.748  11.424   3.761 -0.3492 -1.1741 -0.6050
  717MOL0     H96794  11.605  10.709   4.191  1.5308  0.9757 -2.1523
  717MOL0     H96795  11.432  10.563   4.271 -0.2010 -1.6361 -1.4981
  718MOL0     O96796   7.648   2.822   1.892 -0.3860  0.2290  0.2774
  718MOL0     C96797   7.563   2.781   1.810  0.7421 -0.5017 -0.7679
  718MOL0     O96798   7.429   2.775   1.827 -0.7628  0.4945 -0.3465
  718MOL0     C96799   7.393   2.808   1.961  0.2102  0.6728  0.0332
  718MOL0     C96800   7.414   2.714   2.060  0.3525 -0.2872 -0.0725
  718MOL0     C96801   7.387   2.753   2.189  0.2235 -0.4830 -0.9996
  718MOL0     C96802   7.337   2.881   2.228  0.9803 -0.7897 -0.0936
  718MOL0     O96803   7.318   2.922   2.358  0.2450 -0.2158  0.8168
  718MOL0     C96804   7.435   2.924   2.446 -0.2964  1.1821 -0.2497
  718MOL0     C96805   7.402   2.924   2.598  0.1131 -0.7383 -0.0658
  718MOL0     C96806   7.365   2.787   2.658  0.5633  0.4076  0.3152
  718MOL0     C96807   7.311   2.810   2.789  0.4759  0.3680 -0.6358
  718MOL0     C96808   7.293   2.672   2.857  0.9669  0.0787 -0.7841
  718MOL0     C96809   7.214   2.690   2.986 -0.3113 -0.1206  0.0891
  718MOL0     C96810   7.152   2.555   3.041 -0.3163 -0.2267 -0.5266
  718MOL0     C96811   7.041   2.489   2.953  0.3124  1.2862  0.0401
  718MOL0     N96812   6.906   2.517   2.977  0.2581  0.3185  0.0959
  718MOL0     C96813   6.848   2.645   2.997 -1.1411  0.0509 -0.4788
  718MOL0     C96814   6.724   2.622   3.051 -0.1940  0.6241 -0.5593
  718MOL0     C96815   6.638   2.733   3.112 -0.2738  0.3828  0.0608
  718MOL0     C96816   6.512   2.703   3.194  1.0037 -0.5692 -0.3739
  718MOL0     C96817   6.439   2.835   3.233  0.0258 -1.0951 -0.6484
  718MOL0     C96818   6.369   2.917   3.116  0.4803 -0.2157 -0.5462
  718MOL0     O96819   6.274   2.847   3.038 -0.1354  0.2805 -0.2306
  718MOL0     C96820   6.150   2.817   3.092  0.1391  0.2034 -0.9105
  718MOL0     C96821   6.069   2.734   3.025  0.6339 -0.9470 -0.2837
  718MOL0     C96822   5.945   2.693   3.074  0.2830  0.1797 -0.6249
  718MOL0     C96823   5.868   2.600   2.976  0.2674 -0.6070  0.4248
  718MOL0     C96824   5.909   2.741   3.206  0.4134 -0.7316  0.8896
  718MOL0     C96825   5.787   2.688   3.276 -1.5328 -0.2548  0.3673
  718MOL0     O96826   5.724   2.779   3.364 -0.0769 -0.0223  1.0984
  718MOL0     C96827   5.599   2.735   3.407 -0.4221  0.2005 -0.4253
  718MOL0     C96828   5.484   2.752   3.328 -0.1296  0.7370  0.6900
  718MOL0     C96829   5.354   2.725   3.372  0.4012  0.1569  0.7058
  718MOL0     C96830   5.337   2.694   3.510 -0.8664 -0.0549  0.1989
  718MOL0     O96831   5.212   2.697   3.573  0.1659  0.2578  0.9432
  718MOL0     C96832   5.099   2.772   3.510 -0.3743  1.1332 -0.5449
  718MOL0     C96833   4.975   2.740   3.608 -0.8612  0.7786  0.6566
  718MOL0     C96834   4.974   2.829   3.738  0.1462  0.5944 -0.5556
  718MOL0     C96835   4.837   2.817   3.795  0.4635  0.5209  0.2545
  718MOL0     C96836   4.797   2.681   3.840 -0.1168 -0.1336  0.0081
  718MOL0     C96837   4.871   2.642   3.972 -0.2713 -0.2562  0.0393
  718MOL0     C96838   4.853   2.731   4.102 -0.3186 -0.2566 -0.2785
  718MOL0     C96839   4.978   2.823   4.128 -0.2689  0.2801 -0.1185
  718MOL0    Cl96840   5.123   2.743   4.168 -0.2872  0.3954 -0.1786
  718MOL0     C96841   5.457   2.681   3.595  0.4637 -0.3416 -1.0957
  718MOL0     C96842   5.585   2.702   3.540 -0.1148 -1.1664  0.3882
  718MOL0     O96843   5.748   2.575   3.250 -0.0565  0.8264 -0.4705
  718MOL0     C96844   5.987   2.833   3.278  0.2861 -0.2858 -1.4010
  718MOL0     C96845   6.106   2.864   3.223  0.5962  0.6544  0.0807
  718MOL0     N96846   6.715   2.482   3.061 -0.1908  0.0477  0.1860
  718MOL0     N96847   6.813   2.422   3.008 -0.9827  0.2941  0.2327
  718MOL0     C96848   7.312   2.967   2.127 -0.5048 -0.4852 -0.6506
  718MOL0     C96849   7.339   2.931   1.998  0.5890  0.4649  0.0153
  718MOL0     C96850   7.603   2.740   1.677  0.3539  0.3865  0.6081
  718MOL0     C96851   7.734   2.774   1.638 -0.5117 -0.4974 -0.2642
  718MOL0     C96852   7.769   2.745   1.504 -0.3887  1.1173 -0.4952
  718MOL0     C96853   7.691   2.679   1.416 -0.1888  0.4180  0.2168
  718MOL0     O96854   7.716   2.646   1.284  0.4835 -0.2363  0.0552
  718MOL0     C96855   7.813   2.721   1.212 -0.0575  0.5421  0.2283
  718MOL0     C96856   7.755   2.835   1.152 -0.3123 -0.6581 -0.6449
  718MOL0     C96857   7.668   2.800   1.041 -0.1001  0.0536  0.0889
  718MOL0     C96858   7.609   2.925   0.976  1.0510  0.0544 -0.9201
  718MOL0     C96859   7.555   2.911   0.839 -0.2883  0.6160  0.6439
  718MOL0     C96860   7.527   2.901   0.719  0.6303  0.3077  0.6804
  718MOL0     C96861   7.561   2.642   1.458 -0.8512  0.3236  0.1449
  718MOL0     C96862   7.512   2.670   1.588  0.0907  0.4097  0.6196
  718MOL0     H96863   7.443   2.615   2.026  1.1021 -0.6574  1.5779
  718MOL0     H96864   7.396   2.692   2.278  0.6443  1.3239  0.2576
  718MOL0     H96865   7.508   2.843   2.432 -0.0704  0.8866  2.2415
  718MOL0     H96866   7.478   3.022   2.426  1.4701  0.5783  0.4018
  718MOL0     H96867   7.497   2.953   2.644  0.2829 -1.1850 -0.1256
  718MOL0     H96868   7.331   3.005   2.616 -0.5616 -1.5565  1.0105
  718MOL0     H96869   7.290   2.732   2.600 -0.4147 -1.0299  2.7571
  718MOL0     H96870   7.450   2.719   2.668  0.7916  0.7360  0.6478
  718MOL0     H96871   7.376   2.876   2.847 -1.0802  1.1632  0.3016
  718MOL0     H96872   7.215   2.862   2.775  0.9585  1.3314 -0.4595
  718MOL0     H96873   7.238   2.612   2.784 -2.1586  0.6732  0.8832
  718MOL0     H96874   7.388   2.623   2.878  1.4728  0.2257 -2.5741
  718MOL0     H96875   7.274   2.750   3.055  0.0269  0.0123 -0.3147
  718MOL0     H96876   7.123   2.746   2.964 -1.3712 -1.7305  0.1928
  718MOL0     H96877   7.226   2.475   3.034 -1.7286 -1.6235 -0.1328
  718MOL0     H96878   7.115   2.578   3.142 -0.1107 -2.0959  0.0075
  718MOL0     H96879   7.037   2.379   2.955 -4.8620  1.1779 -0.9620
  718MOL0     H96880   7.062   2.512   2.849  1.0510 -2.3175 -0.7543
  718MOL0     H96881   6.897   2.740   2.978 -1.1243  0.3827  1.0762
  718MOL0     H96882   6.707   2.789   3.176 -2.3106  0.7494  2.0785
  718MOL0     H96883   6.599   2.794   3.030  2.5076  2.5757  0.2210
  718MOL0     H96884   6.530   2.644   3.284 -4.1151  1.2874  2.2656
  718MOL0     H96885   6.439   2.645   3.135  2.4258 -0.1343 -2.7130
  718MOL0     H96886   6.515   2.899   3.279 -0.7861 -0.5367 -0.0419
  718MOL0     H96887   6.370   2.810   3.314 -0.0819 -2.0477 -1.0284
  718MOL0     H96888   6.441   2.949   3.040  2.1708 -0.0822  1.0597
  718MOL0     H96889   6.335   3.015   3.150  0.0725  0.1914 -2.0491
  718MOL0     H96890   6.120   2.712   2.932 -0.0629 -0.7266 -0.7310
  718MOL0     H96891   5.768   2.635   2.951  0.8754  0.3865 -0.7477
  718MOL0     H96892   5.916   2.583   2.879 -0.2018 -0.5710  0.1820
  718MOL0     H96893   5.856   2.497   3.012 -0.1269 -0.4342  0.7879
  718MOL0     H96894   5.483   2.767   3.220 -2.0944 -0.0184  0.5687
  718MOL0     H96895   5.279   2.728   3.293 -2.0450  1.0949  2.9321
  718MOL0     H96896   5.128   2.878   3.507  1.5219  0.6945  0.5869
  718MOL0     H96897   5.060   2.722   3.421 -2.6382  0.2848  0.8270
  718MOL0     H96898   4.889   2.765   3.546 -1.1279  1.5472  1.3156
  718MOL0     H96899   4.977   2.633   3.628 -2.1314 -0.3271 -3.9123
  718MOL0     H96900   5.003   2.932   3.714  1.4887  0.4578  0.4067
  718MOL0     H96901   5.037   2.795   3.821 -2.1664  0.8877  1.4498
  718MOL0     H96902   4.846   2.887   3.878  1.0924  0.7461 -0.0035
  718MOL0     H96903   4.761   2.849   3.723  1.7601 -1.7968 -2.3286
  718MOL0     H96904   4.824   2.599   3.771 -0.5642 -0.3556  0.0934
  718MOL0     H96905   4.691   2.686   3.864 -0.0969 -2.4996  0.8695
  718MOL0     H96906   4.838   2.541   3.997 -0.2054  0.3417  2.9812
  718MOL0     H96907   4.976   2.635   3.943 -0.9077  0.6933 -2.7811
  718MOL0     H96908   4.821   2.682   4.194  2.1568 -0.9267  0.3081
  718MOL0     H96909   4.764   2.791   4.079 -1.3928 -2.3196 -1.8199
  718MOL0     H96910   4.949   2.902   4.199 -2.9699  0.5368 -1.3924
  718MOL0     H96911   4.994   2.873   4.032 -0.0499  1.2594  0.4097
  718MOL0     H96912   5.434   2.672   3.700  1.5943 -0.2502 -0.8348
  718MOL0     H96913   5.673   2.707   3.603 -0.2325 -2.4140  0.6821
  718MOL0     H96914   5.964   2.865   3.379  1.8223 -3.3180  0.0405
  718MOL0     H96915   6.169   2.935   3.277  0.7732 -0.4590  1.3827
  718MOL0     H96916   7.282   3.067   2.159 -0.0173  0.0224 -1.7159
  718MOL0     H96917   7.316   3.001   1.918  0.5656  0.0152 -0.3795
  718MOL0     H96918   7.800   2.811   1.715 -1.8722 -0.5989  0.9847
  718MOL0     H96919   7.873   2.765   1.479  0.0302  1.5865  1.4266
  718MOL0     H96920   7.898   2.747   1.277 -0.6489  3.7711 -0.1720
  718MOL0     H96921   7.849   2.653   1.134  1.8093  0.5937  0.9784
  718MOL0     H96922   7.835   2.894   1.105 -0.2321 -2.3718 -2.8380
  718MOL0     H96923   7.706   2.898   1.227  1.9086  1.4922 -0.8429
  718MOL0     H96924   7.587   2.737   1.078 -0.7981 -0.7383 -2.5642
  718MOL0     H96925   7.724   2.741   0.967  2.2025 -1.4704  2.8706
  718MOL0     H96926   7.681   3.007   0.973 -1.8947  2.8733 -0.2489
  718MOL0     H96927   7.526   2.960   1.039  0.5031 -0.6647 -1.2212
  718MOL0     H96928   7.498   2.898   0.615 -2.5293  4.5740  1.1539
  718MOL0     H96929   7.493   2.595   1.388  1.6451 -0.1873 -2.1175
  718MOL0     H96930   7.412   2.635   1.610 -0.3874  0.0470 -1.8756
  719MOL0     O96931   1.114   0.284   1.308 -0.5154 -0.0139  0.7924
  719MOL0     C96932   1.151   0.259   1.423  1.0709  0.2557  0.7828
  719MOL0     O96933   1.103   0.320   1.531 -0.2458  0.0436  0.1770
  719MOL0     C96934   1.013   0.421   1.511  0.0542  0.0447  0.8308
  719MOL0     C96935   0.879   0.391   1.482  0.3279 -0.1349 -0.6253
  719MOL0     C96936   0.788   0.495   1.465  0.2973 -0.8360  0.1110
  719MOL0     C96937   0.828   0.634   1.477  0.5093  0.3010 -0.8036
  719MOL0     O96938   0.744   0.746   1.472 -0.0752 -0.2993 -0.1392
  719MOL0     C96939   0.615   0.723   1.424  0.3827 -1.0611 -0.2734
  719MOL0     C96940   0.572   0.854   1.358 -0.1154 -0.5801 -0.4189
  719MOL0     C96941   0.426   0.873   1.318 -0.3053  0.1453 -0.9035
  719MOL0     C96942   0.342   0.883   1.447  0.5266  0.0530  0.0832
  719MOL0     C96943   0.193   0.912   1.415 -0.3245  0.3701  0.1093
  719MOL0     C96944   0.093   0.874   1.523  0.3361 -0.0758  0.2665
  719MOL0     C96945  -0.019   0.985   1.520 -0.5813  1.0770 -0.1580
  719MOL0     C96946   0.020   1.111   1.605  0.5982  0.5600  0.1629
  719MOL0     N96947  -0.102   1.187   1.623  0.5215  0.8005  0.1713
  719MOL0     C96948  -0.182   1.256   1.534 -0.3858 -0.2331  0.1922
  719MOL0     C96949  -0.267   1.327   1.610 -0.3918 -1.0973 -0.0520
  719MOL0     C96950  -0.381   1.424   1.571 -0.0130 -0.3012  0.2741
  719MOL0     C96951  -0.407   1.422   1.421  0.7424 -0.7689  0.8931
  719MOL0     C96952  -0.480   1.552   1.382  0.0495  0.8703 -0.8524
  719MOL0     C96953  -0.511   1.565   1.233 -0.2418  0.0956 -0.1691
  719MOL0     O96954  -0.620   1.469   1.202  0.2436  0.3652  0.5495
  719MOL0     C96955  -0.656   1.472   1.069 -0.4828 -0.0739  0.5817
  719MOL0     C96956  -0.704   1.346   1.027  0.6438 -0.0050 -1.2825
  719MOL0     C96957  -0.746   1.327   0.901  0.2307  0.1209  0.6464
  719MOL0     C96958  -0.786   1.182   0.855 -0.0711  0.0518  0.0896
  719MOL0     C96959  -0.737   1.438   0.807  0.9336 -0.1224  0.2295
  719MOL0     C96960  -0.771   1.427   0.662 -0.3932 -0.4785 -0.2751
  719MOL0     O96961  -0.716   1.514   0.580  0.7470 -0.6688  0.3983
  719MOL0     C96962  -0.759   1.514   0.450 -0.5917  0.2047 -0.2307
  719MOL0     C96963  -0.673   1.464   0.347  0.1095 -0.2120 -0.1156
  719MOL0     C96964  -0.716   1.480   0.213  0.0156  0.5494  0.2886
  719MOL0     C96965  -0.845   1.538   0.175  0.1844  0.8658 -0.3497
  719MOL0     O96966  -0.891   1.549   0.045  0.0252  0.1861 -0.0420
  719MOL0     C96967  -0.845   1.462  -0.063  0.8602  1.4081 -0.4034
  719MOL0     C96968  -0.912   1.500  -0.200 -0.4660  0.8182 -0.0423
  719MOL0     C96969  -0.901   1.377  -0.294  0.0596  0.4650 -0.0614
  719MOL0     C96970  -0.758   1.330  -0.348  0.4446 -0.2783  0.4167
  719MOL0     C96971  -0.690   1.449  -0.434 -0.3080  0.6678  1.0953
  719MOL0     C96972  -0.551   1.416  -0.500  0.0805  0.0836  0.5905
  719MOL0     C96973  -0.533   1.281  -0.548 -0.2979  0.4644  0.1967
  719MOL0     C96974  -0.622   1.242  -0.672 -0.2955  0.4688  0.2802
  719MOL0    Cl96975  -0.577   1.089  -0.751 -0.8259  0.5476  0.1269
  719MOL0     C96976  -0.928   1.588   0.280 -0.0126  0.2158  0.4827
  719MOL0     C96977  -0.876   1.579   0.413 -0.0825 -0.3402  0.1612
  719MOL0     O96978  -0.839   1.336   0.626  0.4112 -0.1531 -0.1319
  719MOL0     C96979  -0.706   1.566   0.856 -0.2235 -0.4214 -0.0494
  719MOL0     C96980  -0.673   1.580   0.987 -0.1079 -0.3891 -0.8258
  719MOL0     N96981  -0.251   1.279   1.740 -0.2089 -0.0279  0.0968
  719MOL0     N96982  -0.148   1.201   1.750  0.3092 -0.6346 -0.3336
  719MOL0     C96983   0.966   0.655   1.498  0.7941 -0.8779 -0.2386
  719MOL0     C96984   1.051   0.553   1.513  0.1394  0.1446  0.3657
  719MOL0     C96985   1.262   0.164   1.435  0.7669  0.0362 -0.4648
  719MOL0     C96986   1.321   0.102   1.321  0.1782  0.4227 -0.4141
  719MOL0     C96987   1.429   0.016   1.333 -0.4246  0.8778 -0.3338
  719MOL0     C96988   1.493  -0.003   1.456  0.1029 -0.8904 -0.5747
  719MOL0     O96989   1.617  -0.062   1.437  0.3395 -0.1525 -0.0084
  719MOL0     C96990   1.710  -0.079   1.553 -0.5732  0.3307 -0.1471
  719MOL0     C96991   1.685  -0.222   1.609  0.3967 -0.2358 -0.9580
  719MOL0     C96992   1.724  -0.241   1.754 -0.4349  0.1785  0.1900
  719MOL0     C96993   1.860  -0.296   1.780 -0.3235  0.4458 -0.6813
  719MOL0     C96994   1.957  -0.221   1.711 -1.4671 -0.5778 -0.4094
  719MOL0     C96995   2.056  -0.155   1.680 -0.3612 -0.0100  0.5485
  719MOL0     C96996   1.439   0.054   1.574  0.4421 -0.2986 -0.5183
  719MOL0     C96997   1.321   0.144   1.566 -0.0943  1.0764 -0.4007
  719MOL0     H96998   0.846   0.288   1.493 -0.7204  0.3321  0.9350
  719MOL0     H96999   0.683   0.473   1.447 -0.1406  2.1100 -1.5624
  719MOL0     H97000   0.611   0.641   1.352  3.1876 -1.1426 -0.4600
  719MOL0     H97001   0.553   0.700   1.511 -0.0657  5.9982  1.8656
  719MOL0     H97002   0.594   0.933   1.431 -0.2900 -0.1613 -0.8191
  719MOL0     H97003   0.639   0.874   1.274  0.3032 -1.9529 -0.4333
  719MOL0     H97004   0.431   0.974   1.277  1.7256  0.9189  1.0136
  719MOL0     H97005   0.376   0.803   1.250  0.1078 -3.2332  1.9596
  719MOL0     H97006   0.354   0.793   1.508  0.4041  0.2113  0.3425
  719MOL0     H97007   0.372   0.963   1.515 -1.0626 -0.9640  2.1086
  719MOL0     H97008   0.192   1.020   1.398 -0.7641  0.4399  0.5739
  719MOL0     H97009   0.169   0.868   1.318 -0.0599  2.8721 -1.1775
  719MOL0     H97010   0.045   0.776   1.510 -2.7120  1.2856  0.4887
  719MOL0     H97011   0.140   0.864   1.621  0.8107 -0.3317  0.0144
  719MOL0     H97012  -0.031   1.023   1.418  1.9376 -2.5123 -2.0197
  719MOL0     H97013  -0.113   0.945   1.558  0.6930 -1.8898  0.1876
  719MOL0     H97014   0.100   1.174   1.564  2.2713  0.4707  3.0345
  719MOL0     H97015   0.052   1.084   1.706 -2.9283 -2.7741  0.6202
  719MOL0     H97016  -0.172   1.265   1.426 -1.7199 -0.7071  0.0125
  719MOL0     H97017  -0.466   1.389   1.630  0.9776 -1.6125  0.9915
  719MOL0     H97018  -0.347   1.525   1.596 -1.4714 -0.0631  1.4613
  719MOL0     H97019  -0.464   1.340   1.377 -2.1430  1.8183 -0.5447
  719MOL0     H97020  -0.319   1.430   1.356  1.2067  1.9678  1.7098
  719MOL0     H97021  -0.425   1.637   1.424  1.6362 -1.3497  1.8845
  719MOL0     H97022  -0.575   1.536   1.433  0.1580 -2.6480 -1.5410
  719MOL0     H97023  -0.428   1.538   1.167  0.7847 -0.1792  1.2147
  719MOL0     H97024  -0.534   1.670   1.215  1.7354  0.8211  1.2688
  719MOL0     H97025  -0.695   1.261   1.094  1.1733  1.5586  0.7546
  719MOL0     H97026  -0.753   1.116   0.936 -3.6485 -0.3865  1.4236
  719MOL0     H97027  -0.895   1.183   0.846 -0.2475  2.0757  1.5636
  719MOL0     H97028  -0.739   1.158   0.760 -2.1624  2.2749 -1.6488
  719MOL0     H97029  -0.577   1.420   0.373 -0.1643  0.0336  1.4468
  719MOL0     H97030  -0.646   1.446   0.137  1.8194 -3.1860  3.3179
  719MOL0     H97031  -0.737   1.465  -0.076  0.8309 -2.1259 -2.8503
  719MOL0     H97032  -0.876   1.361  -0.034 -1.7441  2.6385  1.5371
  719MOL0     H97033  -1.013   1.536  -0.178 -0.9142 -0.9956  1.0725
  719MOL0     H97034  -0.862   1.589  -0.240  2.2687  1.3065  3.7874
  719MOL0     H97035  -0.963   1.385  -0.384 -1.4016 -1.6305  0.6905
  719MOL0     H97036  -0.945   1.287  -0.250  1.4223  0.9938  2.5540
  719MOL0     H97037  -0.698   1.309  -0.259  2.3084  1.8888 -0.2237
  719MOL0     H97038  -0.760   1.237  -0.406  1.4580 -1.3472  2.0236
  719MOL0     H97039  -0.681   1.534  -0.367 -2.7239  1.3573  0.6498
  719MOL0     H97040  -0.756   1.479  -0.516  0.1145  0.4186  0.6523
  719MOL0     H97041  -0.541   1.492  -0.579 -0.1167  0.2165  0.6935
  719MOL0     H97042  -0.483   1.435  -0.416  1.0255  0.3432 -0.2131
  719MOL0     H97043  -0.558   1.221  -0.460  0.3682  2.1156  1.5705
  719MOL0     H97044  -0.426   1.274  -0.573 -0.2560  2.3680 -0.2894
  719MOL0     H97045  -0.613   1.318  -0.750 -0.2215 -1.3693 -1.5824
  719MOL0     H97046  -0.730   1.232  -0.655 -0.1623 -3.8625 -0.2659
  719MOL0     H97047  -1.032   1.621   0.270  0.0346  1.4592  3.1861
  719MOL0     H97048  -0.921   1.625   0.500  2.4775  3.3002 -0.2323
  719MOL0     H97049  -0.708   1.656   0.796 -1.7697  1.1099  2.1562
  719MOL0     H97050  -0.654   1.682   1.018 -0.5630 -0.4611 -0.2836
  719MOL0     H97051   1.007   0.756   1.503 -1.6901  0.1634  3.3980
  719MOL0     H97052   1.154   0.573   1.540  0.7198 -1.9659 -0.1319
  719MOL0     H97053   1.267   0.105   1.226  1.1295 -0.2054 -0.9931
  719MOL0     H97054   1.469  -0.036   1.247  0.5015  2.0093 -0.6186
  719MOL0     H97055   1.814  -0.067   1.524 -0.9069 -0.3814 -1.7304
  719MOL0     H97056   1.691   0.005   1.621  0.4334  0.3543  0.1192
  719MOL0     H97057   1.745  -0.293   1.551  2.6953 -0.3177  1.3279
  719MOL0     H97058   1.583  -0.259   1.600  0.1761 -0.5427  1.9250
  719MOL0     H97059   1.646  -0.300   1.803 -1.7879  1.9544  0.2272
  719MOL0     H97060   1.722  -0.144   1.804 -0.6784  0.8990 -1.1848
  719MOL0     H97061   1.858  -0.397   1.740 -3.2071 -0.7612  2.1040
  719MOL0     H97062   1.888  -0.301   1.885 -0.0468  0.4173 -0.7567
  719MOL0     H97063   2.136  -0.089   1.653  0.4508 -1.4926 -0.8230
  719MOL0     H97064   1.486   0.046   1.671  1.3949  1.7816 -0.7473
  719MOL0     H97065   1.271   0.174   1.657 -1.5365 -0.1851 -0.7400
  720MOL0     O97066   9.152   2.033  10.738 -0.3418 -0.7706  0.6626
  720MOL0     C97067   9.148   1.920  10.787 -0.3185 -0.0575 -0.2107
  720MOL0     O97068   9.039   1.853  10.832  0.4053  0.1746 -0.2875
  720MOL0     C97069   8.918   1.927  10.842  0.2032 -0.6091 -0.4091
  720MOL0     C97070   8.823   1.927  10.740  0.5579  0.1674  0.0619
  720MOL0     C97071   8.695   1.982  10.750  0.5195  0.3703 -0.0213
  720MOL0     C97072   8.661   2.041  10.876 -0.4384  0.1939 -0.8324
  720MOL0     O97073   8.531   2.075  10.882 -1.0186 -0.7671 -0.5094
  720MOL0     C97074   8.495   2.148  10.999  0.4257 -0.5121  0.7033
  720MOL0     C97075   8.341   2.203  10.992 -0.7851  0.4315 -0.9596
  720MOL0     C97076   8.251   2.080  10.989  0.6165 -0.2802  0.6528
  720MOL0     C97077   8.120   2.086  11.070 -0.3355  0.7822  0.4190
  720MOL0     C97078   8.159   2.058  11.206 -0.2510  1.2466 -1.1767
  720MOL0     C97079   8.035   2.075  11.292  0.2920  0.6003 -0.0443
  720MOL0     C97080   8.070   2.046  11.453  0.0366  0.1405 -1.1127
  720MOL0     C97081   7.965   1.959  11.508 -0.5928 -0.1378 -0.0525
  720MOL0     N97082   7.977   1.936  11.659 -0.2445  0.5180 -0.3021
  720MOL0     C97083   8.002   1.809  11.710  0.1110 -0.2580  0.2923
  720MOL0     C97084   7.983   1.817  11.844  0.6592  0.1594 -0.1611
  720MOL0     C97085   7.984   1.697  11.935 -0.0716  0.4165  0.3235
  720MOL0     C97086   7.876   1.590  11.911 -0.9065 -0.6215  0.4141
  720MOL0     C97087   7.738   1.648  11.930  1.2055  0.0776 -0.3081
  720MOL0     C97088   7.621   1.552  11.865 -0.7623 -0.5685  0.9643
  720MOL0     O97089   7.661   1.499  11.731 -0.0957  0.0019  0.2917
  720MOL0     C97090   7.652   1.585  11.623  0.2232 -0.7038  0.2673
  720MOL0     C97091   7.616   1.725  11.625  0.3380  1.2761  0.0004
  720MOL0     C97092   7.605   1.802  11.510  0.1876  0.4935  0.4459
  720MOL0     C97093   7.564   1.947  11.531 -0.7847  0.1798 -0.9528
  720MOL0     C97094   7.638   1.743  11.385  0.7461  1.0460  0.4317
  720MOL0     C97095   7.633   1.804  11.254  0.2136 -0.4354 -1.0022
  720MOL0     O97096   7.714   1.923  11.249  0.0629 -0.2714 -0.1349
  720MOL0     C97097   7.720   2.009  11.139  0.2212  0.8119 -0.2431
  720MOL0     C97098   7.760   1.971  11.011 -0.6111  0.9749 -0.4029
  720MOL0     C97099   7.778   2.068  10.917 -0.1072 -0.6933  0.4613
  720MOL0     C97100   7.763   2.196  10.940 -0.1067 -1.7083  0.0043
  720MOL0     O97101   7.792   2.299  10.850 -0.3574 -0.8270  0.3416
  720MOL0     C97102   7.853   2.286  10.727 -0.2434  0.8438  0.1866
  720MOL0     C97103   8.006   2.261  10.742 -0.0245  0.2889 -0.2882
  720MOL0     C97104   8.077   2.272  10.605 -0.5765  0.4436 -0.2766
  720MOL0     C97105   8.229   2.285  10.621  0.4307 -0.2618 -0.5927
  720MOL0     C97106   8.319   2.260  10.499  0.4671  0.6816 -1.1288
  720MOL0     C97107   8.470   2.275  10.552  0.2999  0.2490  0.1717
  720MOL0     C97108   8.564   2.229  10.427  0.1211 -0.3074 -0.9619
  720MOL0     C97109   8.720   2.231  10.467 -0.7472 -0.2552 -0.2740
  720MOL0    Cl97110   8.820   2.141  10.350  0.0170 -0.3365 -0.4180
  720MOL0     C97111   7.726   2.237  11.068 -0.0126  0.3426 -0.6765
  720MOL0     C97112   7.697   2.147  11.169 -0.3553 -0.1740  0.8141
  720MOL0     O97113   7.578   1.748  11.156  0.2244 -0.0243  0.0317
  720MOL0     C97114   7.675   1.605  11.372 -0.6073  0.0800  1.2490
  720MOL0     C97115   7.684   1.527  11.495  0.0311 -0.6059  0.7009
  720MOL0     N97116   7.946   1.948  11.876  0.7708  0.2543  0.3160
  720MOL0     N97117   7.930   2.017  11.765 -0.7422  0.0354 -0.0939
  720MOL0     C97118   8.757   2.052  10.983  0.3473 -0.2475  0.1790
  720MOL0     C97119   8.890   1.998  10.961 -0.5995 -0.4036  0.2217
  720MOL0     C97120   9.278   1.850  10.775  0.4604 -0.7248  0.5108
  720MOL0     C97121   9.284   1.723  10.829 -0.9725  0.1924 -0.3156
  720MOL0     C97122   9.400   1.652  10.802  0.6091 -0.0060  0.2805
  720MOL0     C97123   9.508   1.695  10.728 -0.6551  0.4949 -1.2293
  720MOL0     O97124   9.612   1.623  10.683 -0.7495  0.6391  0.9814
  720MOL0     C97125   9.574   1.493  10.630 -0.3675 -0.9895 -0.5894
  720MOL0     C97126   9.548   1.500  10.484 -0.1096 -0.2689 -0.0996
  720MOL0     C97127   9.408   1.554  10.454 -1.0996 -0.0060  0.2788
  720MOL0     C97128   9.354   1.494  10.315  0.4479  0.5218  0.1034
  720MOL0     C97129   9.251   1.580  10.264 -0.5780  1.0189  0.5360
  720MOL0     C97130   9.184   1.666  10.205 -0.1166 -0.1885  0.2874
  720MOL0     C97131   9.504   1.829  10.688  0.4805 -0.7753  0.6353
  720MOL0     C97132   9.388   1.906  10.703  0.4213 -0.7251  0.3827
  720MOL0     H97133   8.859   1.877  10.651  2.7392  1.7072 -0.0260
  720MOL0     H97134   8.632   1.952  10.667  1.8366 -2.6329 -0.0597
  720MOL0     H97135   8.519   2.101  11.094 -0.4983 -0.3699  1.0126
  720MOL0     H97136   8.561   2.235  11.003  1.1188 -0.9922  0.0840
  720MOL0     H97137   8.330   2.261  11.084  4.1002  1.3427 -0.6658
  720MOL0     H97138   8.328   2.269  10.906 -2.0712  1.6049  0.0907
  720MOL0     H97139   8.226   2.061  10.884  2.2344 -0.7986  0.3317
  720MOL0     H97140   8.304   1.989  11.018  0.2992 -0.7277 -0.1495
  720MOL0     H97141   8.061   2.178  11.059 -0.9826  0.3704  0.3826
  720MOL0     H97142   8.053   2.011  11.027 -0.8551  0.8836  1.0334
  720MOL0     H97143   8.191   1.955  11.225 -2.1645  0.9095  0.4685
  720MOL0     H97144   8.247   2.116  11.237  0.6419 -0.5495 -0.2231
  720MOL0     H97145   7.997   2.177  11.288 -2.7635 -0.4489 -0.3879
  720MOL0     H97146   7.958   2.003  11.262  0.8356  0.0275 -0.0892
  720MOL0     H97147   8.163   1.993  11.471  0.8480  1.9621  0.3391
  720MOL0     H97148   8.083   2.134  11.516 -1.3735  0.2032 -0.8789
  720MOL0     H97149   7.970   1.865  11.452  0.5068 -0.4796  0.5998
  720MOL0     H97150   7.867   2.003  11.487 -0.1283  0.6278 -0.6910
  720MOL0     H97151   8.038   1.722  11.656 -0.8556  0.4791 -1.6556
  720MOL0     H97152   8.083   1.653  11.933  0.0602  0.7441 -0.5327
  720MOL0     H97153   7.967   1.737  12.036 -3.7567 -1.1264  0.4694
  720MOL0     H97154   7.895   1.506  11.978 -5.5571 -0.6436  2.1037
  720MOL0     H97155   7.887   1.545  11.812 -2.7263  0.1592 -0.1983
  720MOL0     H97156   7.732   1.751  11.893 -2.3721  0.3484  0.5899
  720MOL0     H97157   7.712   1.661  12.035 -0.7246 -2.5423 -0.3657
  720MOL0     H97158   7.525   1.605  11.863  0.1959  1.2833  1.4408
  720MOL0     H97159   7.601   1.469  11.933  1.4297 -1.0577  1.0860
  720MOL0     H97160   7.596   1.771  11.721  2.2165 -0.2478  1.1947
  720MOL0     H97161   7.610   1.983  11.623 -0.3558  0.6807 -1.3598
  720MOL0     H97162   7.608   2.013  11.456  0.0056  1.0873  0.2761
  720MOL0     H97163   7.457   1.967  11.545  0.2911  4.6874  4.2833
  720MOL0     H97164   7.765   1.863  11.000  1.3778  1.0693 -0.8199
  720MOL0     H97165   7.808   2.048  10.815  0.7531 -0.3811  0.6404
  720MOL0     H97166   7.812   2.206  10.664  1.8926  1.4224 -2.1013
  720MOL0     H97167   7.848   2.377  10.667 -0.7344  0.5694 -0.1929
  720MOL0     H97168   8.046   2.347  10.796  1.4496  0.2635 -1.2744
  720MOL0     H97169   8.020   2.164  10.791 -1.2053  0.0872 -0.3184
  720MOL0     H97170   8.054   2.356  10.539 -0.8292 -1.7364 -3.1715
  720MOL0     H97171   8.050   2.186  10.543 -1.1887  0.9502 -0.7230
  720MOL0     H97172   8.259   2.380  10.667 -1.9437 -0.2809  1.2205
  720MOL0     H97173   8.260   2.206  10.690  0.8990  0.0741 -0.4056
  720MOL0     H97174   8.304   2.331  10.417  2.0107  0.6355 -1.4728
  720MOL0     H97175   8.307   2.158  10.462  0.0590  0.3735 -0.2003
  720MOL0     H97176   8.501   2.377  10.578  1.9580 -0.0686 -0.4083
  720MOL0     H97177   8.479   2.218  10.645 -2.2435  1.5160  1.2724
  720MOL0     H97178   8.553   2.285  10.334 -0.7517  0.0019 -0.6773
  720MOL0     H97179   8.536   2.125  10.409 -1.8968 -0.2268  1.2404
  720MOL0     H97180   8.744   2.180  10.561  4.1175 -0.9845 -1.6703
  720MOL0     H97181   8.758   2.333  10.476  4.3583 -2.0229  2.0938
  720MOL0     H97182   7.711   2.343  11.086 -0.9292  0.3028 -1.1489
  720MOL0     H97183   7.648   2.182  11.259 -3.1396 -1.8984  0.0625
  720MOL0     H97184   7.718   1.560  11.283  0.6849  1.0201  1.3639
  720MOL0     H97185   7.726   1.428  11.483  0.8878 -0.6028  3.1335
  720MOL0     H97186   8.733   2.075  11.087 -2.0865 -2.3118  0.1423
  720MOL0     H97187   8.953   2.006  11.049 -0.2146  3.1403 -0.2308
  720MOL0     H97188   9.197   1.691  10.885 -1.1625 -2.7355 -2.0981
  720MOL0     H97189   9.410   1.554  10.849  3.0010  0.6020  1.1794
  720MOL0     H97190   9.669   1.439  10.630  0.1730 -0.1011  1.2811
  720MOL0     H97191   9.505   1.439  10.696  0.1172 -0.7799  0.1072
  720MOL0     H97192   9.560   1.402  10.435  1.6685 -1.1295  1.8727
  720MOL0     H97193   9.608   1.569  10.424 -0.7775  0.2724 -0.1556
  720MOL0     H97194   9.414   1.663  10.451  0.5128 -0.0306  1.4468
  720MOL0     H97195   9.350   1.538  10.545  1.5814  0.4858  2.1902
  720MOL0     H97196   9.320   1.393  10.336  0.2816  0.5535 -0.0045
  720MOL0     H97197   9.438   1.489  10.245  0.6388  1.5125  0.2352
  720MOL0     H97198   9.118   1.732  10.152 -1.7261 -0.0750  2.2715
  720MOL0     H97199   9.577   1.859  10.614 -4.1787  0.7738 -4.0229
  720MOL0     H97200   9.384   1.994  10.639  3.0193 -0.1734  0.8818
  721MOL0     O97201   0.823   7.020   6.651 -0.3435  0.1921  0.0653
  721MOL0     C97202   0.925   7.012   6.714 -0.4647  0.5582  0.0247
  721MOL0     O97203   0.940   7.063   6.838 -0.2411 -0.5098  0.0929
  721MOL0     C97204   0.845   7.100   6.927  0.3249 -0.2922  0.5553
  721MOL0     C97205   0.774   7.019   7.020  0.2767 -0.0312 -0.0584
  721MOL0     C97206   0.672   7.079   7.101  0.2678 -0.4997  0.2068
  721MOL0     C97207   0.639   7.215   7.078 -0.4867  0.2420 -0.0040
  721MOL0     O97208   0.538   7.268   7.165  0.0837 -0.0288  0.6137
  721MOL0     C97209   0.568   7.396   7.219 -0.3564  0.1923 -1.3051
  721MOL0     C97210   0.460   7.436   7.316  0.0345  0.3368 -0.8320
  721MOL0     C97211   0.488   7.587   7.359  0.2801  0.5478  0.0910
  721MOL0     C97212   0.373   7.631   7.445  0.9517  0.0775  0.7419
  721MOL0     C97213   0.262   7.685   7.363 -0.8117  0.8181  0.3681
  721MOL0     C97214   0.118   7.683   7.430 -0.3519  0.7419  0.3351
  721MOL0     C97215   0.069   7.528   7.424  0.2091 -0.8836  0.7411
  721MOL0     C97216  -0.077   7.521   7.453 -0.7334 -1.7462 -0.3774
  721MOL0     N97217  -0.161   7.566   7.339 -0.0749  0.2389 -0.5498
  721MOL0     C97218  -0.294   7.548   7.325  0.2396 -0.5549  0.2307
  721MOL0     C97219  -0.318   7.613   7.203 -0.2634  1.3964 -0.0205
  721MOL0     C97220  -0.454   7.632   7.142  0.6686  0.4453  0.5726
  721MOL0     C97221  -0.483   7.786   7.130 -0.5873  0.5489 -0.4118
  721MOL0     C97222  -0.622   7.850   7.138 -0.1179 -0.1899 -0.2085
  721MOL0     C97223  -0.714   7.824   7.259  0.0158 -0.4715 -0.3265
  721MOL0     O97224  -0.749   7.690   7.268  0.0436  0.3685  0.6377
  721MOL0     C97225  -0.871   7.655   7.315 -0.7960 -0.7271 -0.4191
  721MOL0     C97226  -0.927   7.550   7.247 -0.2062 -0.3188  0.4293
  721MOL0     C97227  -1.055   7.496   7.278 -0.6239  0.5027 -1.1364
  721MOL0     C97228  -1.109   7.399   7.174 -0.7446  0.7603 -0.6235
  721MOL0     C97229  -1.118   7.540   7.400  1.6423 -0.0361 -0.6063
  721MOL0     C97230  -1.244   7.488   7.455 -0.5674 -0.3369  0.1847
  721MOL0     O97231  -1.324   7.588   7.506  0.0134 -0.7808  0.8038
  721MOL0     C97232  -1.453   7.542   7.537  0.6688 -0.4788  0.0669
  721MOL0     C97233  -1.553   7.573   7.448  0.1980 -1.0311  0.0586
  721MOL0     C97234  -1.685   7.548   7.490  0.1464 -0.3307 -0.1988
  721MOL0     C97235  -1.723   7.500   7.612 -0.3347  0.4098 -0.8091
  721MOL0     O97236  -1.855   7.483   7.630 -0.0783 -0.4972 -0.1805
  721MOL0     C97237  -1.894   7.453   7.765  0.8535 -0.2265 -0.7322
  721MOL0     C97238  -2.046   7.443   7.778  0.3539 -0.4750  0.3275
  721MOL0     C97239  -2.121   7.351   7.681 -1.8014 -0.0259  0.1915
  721MOL0     C97240  -2.270   7.336   7.726 -0.5919 -0.1271 -0.1811
  721MOL0     C97241  -2.356   7.243   7.648 -0.5765  0.4033 -0.2841
  721MOL0     C97242  -2.501   7.263   7.694  0.0275 -0.1597 -0.4792
  721MOL0     C97243  -2.602   7.186   7.622  0.0412 -0.1213 -0.1584
  721MOL0     C97244  -2.594   7.038   7.641  0.2706  0.3234 -0.5679
  721MOL0    Cl97245  -2.609   6.990   7.819 -0.5672  0.0110 -0.1831
  721MOL0     C97246  -1.620   7.467   7.700  0.8200 -0.4096 -1.1316
  721MOL0     C97247  -1.488   7.487   7.666  0.7618 -0.0890 -0.4764
  721MOL0     O97248  -1.272   7.372   7.436 -0.1633  0.1716  0.6917
  721MOL0     C97249  -1.057   7.649   7.465  0.0332  0.9094  0.2487
  721MOL0     C97250  -0.931   7.702   7.426  0.0361  0.1726 -0.8309
  721MOL0     N97251  -0.201   7.654   7.150  0.1285 -1.1288  0.3044
  721MOL0     N97252  -0.105   7.629   7.230  0.1205  0.1807  0.4514
  721MOL0     C97253   0.701   7.291   6.985 -0.8132 -0.3523 -0.1537
  721MOL0     C97254   0.802   7.235   6.911 -0.0573 -0.0174  0.9240
  721MOL0     C97255   1.043   6.946   6.649  0.8113  0.4700 -1.4594
  721MOL0     C97256   1.163   6.924   6.725  0.1618 -0.1740 -0.2475
  721MOL0     C97257   1.253   6.823   6.689  1.3586 -0.0020 -0.0436
  721MOL0     C97258   1.229   6.746   6.577  0.3319 -0.5507  0.4865
  721MOL0     O97259   1.319   6.645   6.548 -0.5329  0.3996 -0.8991
  721MOL0     C97260   1.355   6.603   6.418  0.0526  0.0019 -0.3448
  721MOL0     C97261   1.260   6.485   6.373 -0.0837  0.1477 -0.6798
  721MOL0     C97262   1.282   6.431   6.223 -0.1566 -0.3795 -0.9662
  721MOL0     C97263   1.425   6.398   6.188 -0.0176  0.6524 -0.1634
  721MOL0     C97264   1.498   6.309   6.292 -0.0755 -0.4108 -0.2615
  721MOL0     C97265   1.558   6.239   6.370  0.2687  0.4149 -0.3965
  721MOL0     C97266   1.119   6.772   6.495  0.3076  0.3173 -0.8236
  721MOL0     C97267   1.028   6.865   6.534  0.5396  0.1039 -0.1078
  721MOL0     H97268   0.787   6.912   7.019 -1.8389 -0.3405 -2.2225
  721MOL0     H97269   0.610   7.019   7.167 -0.2960 -2.2983 -1.8135
  721MOL0     H97270   0.660   7.393   7.278 -1.1633 -1.6109 -0.0496
  721MOL0     H97271   0.556   7.472   7.141  0.1169  2.4049  0.6650
  721MOL0     H97272   0.356   7.421   7.286  0.3801 -2.8463 -0.7235
  721MOL0     H97273   0.480   7.377   7.406  3.0484  1.2670 -0.7640
  721MOL0     H97274   0.578   7.597   7.420  0.1910  0.2550  0.2706
  721MOL0     H97275   0.489   7.658   7.275  0.4390  3.8917  2.7006
  721MOL0     H97276   0.343   7.543   7.503  0.1476 -0.0636  0.1223
  721MOL0     H97277   0.409   7.692   7.529  2.1024 -0.0025  0.3271
  721MOL0     H97278   0.272   7.790   7.333 -4.2573  0.6839 -1.7329
  721MOL0     H97279   0.250   7.635   7.267 -3.6737  1.9041  0.0674
  721MOL0     H97280   0.120   7.716   7.534  2.0796  0.4928  0.4377
  721MOL0     H97281   0.053   7.753   7.376 -1.0706 -0.5593 -0.5623
  721MOL0     H97282   0.089   7.478   7.328  0.5047  0.5273  0.0461
  721MOL0     H97283   0.115   7.473   7.507 -1.3223 -0.6860  1.7678
  721MOL0     H97284  -0.104   7.586   7.537 -0.4221 -0.6895 -1.0674
  721MOL0     H97285  -0.103   7.417   7.473 -0.3916 -1.4013  2.2107
  721MOL0     H97286  -0.373   7.499   7.380 -0.7032  0.8967  0.2216
  721MOL0     H97287  -0.467   7.592   7.041  1.7233  3.0563 -0.6904
  721MOL0     H97288  -0.529   7.582   7.204 -0.3790  1.6160  0.3053
  721MOL0     H97289  -0.448   7.813   7.030  0.8704  2.0845  0.4533
  721MOL0     H97290  -0.418   7.836   7.203  1.4700 -2.0244 -0.3665
  721MOL0     H97291  -0.670   7.817   7.046 -1.2460  1.0203 -0.0734
  721MOL0     H97292  -0.607   7.958   7.134  1.1619 -0.3537 -0.2263
  721MOL0     H97293  -0.805   7.883   7.247  0.7916  0.5707 -1.3131
  721MOL0     H97294  -0.663   7.855   7.350  3.5835  1.4308 -2.7218
  721MOL0     H97295  -0.867   7.507   7.167 -1.7781 -3.2375  0.6836
  721MOL0     H97296  -1.197   7.454   7.141 -2.0788  3.8816  6.3430
  721MOL0     H97297  -1.036   7.377   7.095 -2.6986  0.2136 -2.3567
  721MOL0     H97298  -1.144   7.305   7.217  0.1047  1.6229  2.1274
  721MOL0     H97299  -1.539   7.627   7.354 -1.2514 -0.6503  0.0388
  721MOL0     H97300  -1.764   7.577   7.422 -0.8679 -1.4903  0.4416
  721MOL0     H97301  -1.849   7.361   7.804  1.5059  0.7904  1.0244
  721MOL0     H97302  -1.865   7.530   7.836 -0.7687 -0.1218 -0.1396
  721MOL0     H97303  -2.067   7.414   7.881 -0.0872 -0.1184  0.3405
  721MOL0     H97304  -2.087   7.541   7.755 -3.0726 -1.5916  1.0641
  721MOL0     H97305  -2.070   7.254   7.690 -0.8664 -0.1251 -4.0016
  721MOL0     H97306  -2.126   7.395   7.580 -1.7760 -2.1142 -0.7774
  721MOL0     H97307  -2.278   7.301   7.829 -0.3794 -0.2365 -0.2004
  721MOL0     H97308  -2.311   7.434   7.701  2.2557  0.2936 -4.1924
  721MOL0     H97309  -2.318   7.142   7.664  1.5269  1.4445  2.0438
  721MOL0     H97310  -2.359   7.260   7.540 -1.0333  0.6549 -0.2336
  721MOL0     H97311  -2.506   7.240   7.801 -2.7587 -0.3219 -0.5920
  721MOL0     H97312  -2.527   7.369   7.690 -1.9277 -0.4242  2.1381
  721MOL0     H97313  -2.594   7.223   7.519  1.5354  1.0485  0.3361
  721MOL0     H97314  -2.699   7.212   7.663  0.4908 -0.5829  1.2427
  721MOL0     H97315  -2.502   6.993   7.602  2.1703  1.9043  1.8128
  721MOL0     H97316  -2.670   6.988   7.580  0.3351 -1.3897  0.6613
  721MOL0     H97317  -1.627   7.432   7.802  3.8796 -1.5365 -1.2222
  721MOL0     H97318  -1.406   7.455   7.729  0.8662  1.4283  0.1815
  721MOL0     H97319  -1.092   7.704   7.552  1.9957  2.7700 -0.0515
  721MOL0     H97320  -0.884   7.788   7.474 -0.2743  0.0551 -0.3087
  721MOL0     H97321   0.666   7.386   6.946  0.9492  0.0557 -0.8383
  721MOL0     H97322   0.845   7.306   6.842 -3.1463 -0.7527 -2.0288
  721MOL0     H97323   1.173   6.977   6.819 -2.7612 -1.7071  1.0485
  721MOL0     H97324   1.344   6.797   6.743  1.0518 -1.6434 -0.2715
  721MOL0     H97325   1.345   6.688   6.349  0.7283 -1.0439 -1.7988
  721MOL0     H97326   1.459   6.571   6.407 -0.3553 -1.7484  0.5644
  721MOL0     H97327   1.153   6.506   6.386  0.1717  1.3573 -0.3633
  721MOL0     H97328   1.286   6.399   6.435  0.6459 -1.0913 -2.6303
  721MOL0     H97329   1.239   6.508   6.158 -0.4828  1.8150  1.6906
  721MOL0     H97330   1.225   6.337   6.224 -0.1654 -0.3776  0.4051
  721MOL0     H97331   1.468   6.496   6.164 -1.3956  0.5997 -3.3091
  721MOL0     H97332   1.427   6.356   6.087  2.8821  0.6592 -0.1996
  721MOL0     H97333   1.603   6.187   6.452 -0.9494 -0.9863 -0.5708
  721MOL0     H97334   1.115   6.718   6.401  2.4484 -0.8203 -0.3142
  721MOL0     H97335   0.939   6.873   6.472 -0.3529 -2.6876  0.6728
  722MOL0     O97336  10.109   1.320   2.301  0.0297 -0.9183  0.6143
  722MOL0     C97337  10.038   1.407   2.352 -0.7994 -0.5119  0.7385
  722MOL0     O97338  10.060   1.461   2.477  0.7945  0.6943 -1.0331
  722MOL0     C97339  10.140   1.410   2.576  0.1591 -0.1020  0.1579
  722MOL0     C97340  10.205   1.283   2.574 -0.5860  0.2671  0.1993
  722MOL0     C97341  10.281   1.239   2.689 -0.4824  0.5751  0.9939
  722MOL0     C97342  10.285   1.315   2.799 -0.6987 -0.8700 -0.4970
  722MOL0     O97343  10.368   1.268   2.896 -0.4291  0.3169 -0.6129
  722MOL0     C97344  10.501   1.243   2.855 -0.2551  0.2474 -0.5469
  722MOL0     C97345  10.599   1.326   2.932 -0.1620 -0.4496  0.0072
  722MOL0     C97346  10.586   1.304   3.079  0.7084 -0.1648 -0.6016
  722MOL0     C97347  10.715   1.319   3.157  0.0371 -0.3605 -0.7142
  722MOL0     C97348  10.754   1.464   3.168  0.2590 -0.4096 -0.3193
  722MOL0     C97349  10.880   1.477   3.250  0.7006 -0.4259 -0.2970
  722MOL0     C97350  10.935   1.619   3.233 -0.4109 -0.7530  0.1868
  722MOL0     C97351  11.063   1.650   3.314 -0.8227 -0.2842  0.8844
  722MOL0     N97352  11.047   1.646   3.460  0.0007  0.2491 -0.3695
  722MOL0     C97353  11.058   1.527   3.531  0.1625 -1.5949 -0.1060
  722MOL0     C97354  11.029   1.566   3.654  0.9232  0.4631  0.6525
  722MOL0     C97355  11.017   1.479   3.777  0.9682  0.2675 -0.5707
  722MOL0     C97356  10.895   1.376   3.763 -0.4332 -0.5029  0.2445
  722MOL0     C97357  10.758   1.443   3.793  0.3397 -0.4015  0.3718
  722MOL0     C97358  10.753   1.545   3.914 -0.1318 -0.1807  0.8633
  722MOL0     O97359  10.811   1.472   4.029 -0.0220  0.2350  0.4018
  722MOL0     C97360  10.845   1.539   4.145  0.5975  0.7884  0.3395
  722MOL0     C97361  10.824   1.674   4.177 -0.1091  0.7113  1.0229
  722MOL0     C97362  10.848   1.730   4.301 -1.2314 -0.2346  0.5336
  722MOL0     C97363  10.837   1.879   4.300  0.2018  0.1158 -0.3730
  722MOL0     C97364  10.886   1.643   4.405 -0.6764 -0.0858 -0.5326
  722MOL0     C97365  10.931   1.688   4.538  0.1314  0.2143 -0.4406
  722MOL0     O97366  10.926   1.588   4.629 -0.1107  0.4785 -0.6651
  722MOL0     C97367  10.969   1.601   4.761 -0.5017 -0.6756 -0.3990
  722MOL0     C97368  11.000   1.480   4.831  1.1277  0.1122 -0.5696
  722MOL0     C97369  11.038   1.492   4.969 -0.0649 -0.3849  0.6505
  722MOL0     C97370  11.049   1.612   5.032  1.1572 -0.4655  0.2809
  722MOL0     O97371  11.106   1.605   5.160 -0.0932 -0.2980  0.7762
  722MOL0     C97372  11.082   1.713   5.259 -0.0838  0.5967  0.2855
  722MOL0     C97373  11.110   1.657   5.400  0.0330 -0.3678  0.1063
  722MOL0     C97374  11.084   1.780   5.496  0.2493  0.2519  0.1161
  722MOL0     C97375  11.218   1.846   5.525  1.2084 -0.9166  0.0382
  722MOL0     C97376  11.192   1.974   5.601 -0.9414  0.4588 -0.2172
  722MOL0     C97377  11.324   1.987   5.682 -1.2348 -0.2269  0.6540
  722MOL0     C97378  11.331   2.104   5.774  0.5727  0.6268  0.4783
  722MOL0     C97379  11.462   2.108   5.848  1.0109  0.0533  0.2756
  722MOL0    Cl97380  11.452   2.001   5.997 -0.2502  0.2271 -0.3244
  722MOL0     C97381  11.007   1.724   4.963  0.0910 -0.0504 -1.3758
  722MOL0     C97382  10.962   1.724   4.836 -0.4521  0.1160  0.3828
  722MOL0     O97383  10.974   1.800   4.555 -0.9941  0.1677  0.4300
  722MOL0     C97384  10.895   1.506   4.383  0.8444  0.7202  0.3756
  722MOL0     C97385  10.877   1.452   4.254  0.8740 -0.1857  0.2001
  722MOL0     N97386  10.991   1.703   3.657 -0.7342  0.7347 -0.0520
  722MOL0     N97387  11.010   1.749   3.544  0.9233  0.4558  0.2539
  722MOL0     C97388  10.215   1.434   2.806  0.2430  0.3134  0.2531
  722MOL0     C97389  10.133   1.470   2.697  0.1048 -0.2291 -0.8283
  722MOL0     C97390   9.937   1.472   2.278 -0.0253  1.0300  0.1380
  722MOL0     C97391   9.810   1.505   2.327  0.6768 -0.4361 -0.7141
  722MOL0     C97392   9.717   1.561   2.240  0.0610 -0.1404 -0.4274
  722MOL0     C97393   9.743   1.581   2.101  0.1099 -0.3848 -0.7615
  722MOL0     O97394   9.645   1.630   2.016 -0.9363  0.1721 -0.7326
  722MOL0     C97395   9.511   1.648   2.057 -0.1024  0.1606 -0.5430
  722MOL0     C97396   9.427   1.685   1.937  0.8359 -1.0080 -0.6944
  722MOL0     C97397   9.508   1.785   1.854  0.2301  0.4913 -0.9921
  722MOL0     C97398   9.416   1.857   1.756  0.4036  0.0157  0.4106
  722MOL0     C97399   9.486   1.985   1.716 -0.6578 -0.4339  0.6450
  722MOL0     C97400   9.536   2.083   1.670  0.2422 -0.5509 -0.6420
  722MOL0     C97401   9.868   1.551   2.057  1.2038 -0.9029  0.9516
  722MOL0     C97402   9.968   1.508   2.144 -0.0244  0.3820 -0.2344
  722MOL0     H97403  10.215   1.227   2.482  1.6827  0.0288  0.5294
  722MOL0     H97404  10.335   1.145   2.684  0.3750  0.9959  1.9123
  722MOL0     H97405  10.528   1.141   2.883 -1.5402  0.2227  0.6799
  722MOL0     H97406  10.518   1.250   2.747 -2.0083 -3.1412 -1.1842
  722MOL0     H97407  10.702   1.299   2.906 -0.4882 -0.7889 -0.9877
  722MOL0     H97408  10.582   1.431   2.908 -1.0597 -0.8554 -1.2289
  722MOL0     H97409  10.510   1.376   3.113  0.7662  0.3694 -1.5688
  722MOL0     H97410  10.542   1.208   3.106  1.6515 -0.0841  1.4292
  722MOL0     H97411  10.686   1.282   3.256  0.9601  1.1954  0.1726
  722MOL0     H97412  10.795   1.256   3.117 -0.3085 -0.2256 -1.6276
  722MOL0     H97413  10.767   1.512   3.070  0.7385 -1.0497 -0.5841
  722MOL0     H97414  10.677   1.516   3.224  0.2765 -0.9654  0.2317
  722MOL0     H97415  10.857   1.456   3.355 -1.4215 -1.2922 -0.8797
  722MOL0     H97416  10.958   1.413   3.209 -0.1452 -0.3358 -2.1380
  722MOL0     H97417  10.959   1.641   3.128 -0.7816  4.2312  0.8730
  722MOL0     H97418  10.856   1.692   3.254 -0.9047 -0.8562 -1.1823
  722MOL0     H97419  11.098   1.751   3.290  0.6885 -0.7557  1.0049
  722MOL0     H97420  11.131   1.574   3.275 -0.3068  0.8038 -0.4036
  722MOL0     H97421  11.096   1.430   3.499 -0.4176 -1.7318 -0.3852
  722MOL0     H97422  11.102   1.410   3.785  1.4855  0.9795  0.3152
  722MOL0     H97423  11.009   1.545   3.863 -0.8599  0.7016 -1.0420
  722MOL0     H97424  10.906   1.287   3.826 -5.3177 -0.8666  1.0271
  722MOL0     H97425  10.888   1.343   3.659 -3.2678  1.1751 -0.1994
  722MOL0     H97426  10.682   1.366   3.809 -1.0284  0.9177  0.5173
  722MOL0     H97427  10.726   1.511   3.713  0.6070 -0.3014  0.3505
  722MOL0     H97428  10.650   1.572   3.937 -0.0337  0.4576  0.5935
  722MOL0     H97429  10.800   1.639   3.883 -0.9480 -0.8881 -3.0592
  722MOL0     H97430  10.796   1.734   4.091 -1.3998  0.1295  1.0115
  722MOL0     H97431  10.924   1.904   4.362 -1.8819  1.3824  2.2480
  722MOL0     H97432  10.850   1.925   4.202  2.4918  1.2333  0.3749
  722MOL0     H97433  10.740   1.905   4.343 -0.7877 -0.9769 -1.8594
  722MOL0     H97434  10.996   1.382   4.785  0.3473  0.6336 -1.6603
  722MOL0     H97435  11.081   1.405   5.018 -0.5602 -0.8388  0.2915
  722MOL0     H97436  11.150   1.795   5.235 -1.0395  1.7112  1.2799
  722MOL0     H97437  10.979   1.746   5.247 -0.3552 -0.6643 -1.2046
  722MOL0     H97438  11.056   1.566   5.429 -0.8416  0.7423  2.1738
  722MOL0     H97439  11.210   1.612   5.405 -1.1570 -3.1493  1.0025
  722MOL0     H97440  11.038   1.725   5.578 -1.6187  0.4444 -0.7515
  722MOL0     H97441  11.014   1.848   5.448  0.8481  0.2770 -0.7499
  722MOL0     H97442  11.276   1.769   5.577 -0.7905 -4.2872 -2.3521
  722MOL0     H97443  11.274   1.868   5.433  1.8379 -1.0543  0.3832
  722MOL0     H97444  11.105   1.972   5.668 -2.6493  0.8654 -2.3251
  722MOL0     H97445  11.175   2.061   5.537 -2.7947 -1.0265 -1.8778
  722MOL0     H97446  11.332   1.898   5.746  3.2519 -1.9558 -1.7742
  722MOL0     H97447  11.413   1.994   5.617 -2.8947  1.6213 -1.6060
  722MOL0     H97448  11.246   2.108   5.843 -0.5131 -2.0482 -0.5604
  722MOL0     H97449  11.328   2.196   5.714  1.1982  1.4594  1.6807
  722MOL0     H97450  11.485   2.212   5.873 -1.8782  0.6668  0.7762
  722MOL0     H97451  11.545   2.068   5.788  1.5177  0.2521  0.8360
  722MOL0     H97452  11.007   1.825   5.003 -3.3443 -0.8921  1.1781
  722MOL0     H97453  10.913   1.812   4.795 -0.6460  0.7848  1.9666
  722MOL0     H97454  10.928   1.442   4.464  2.0059  1.8315  0.8220
  722MOL0     H97455  10.882   1.345   4.242 -1.9304 -0.4773  1.0084
  722MOL0     H97456  10.212   1.495   2.895 -0.3417  2.3706 -1.1089
  722MOL0     H97457  10.060   1.551   2.697  0.7960  0.4362  0.5390
  722MOL0     H97458   9.789   1.475   2.429  2.1403  4.6969  1.4491
  722MOL0     H97459   9.616   1.578   2.275 -0.4636 -1.6037 -1.1724
  722MOL0     H97460   9.466   1.564   2.111  1.7293  0.4032  1.5154
  722MOL0     H97461   9.507   1.741   2.116  1.0045  2.1334 -3.3454
  722MOL0     H97462   9.335   1.730   1.974  0.8988  0.5373 -2.2904
  722MOL0     H97463   9.412   1.597   1.873  2.6332 -0.8330 -1.4262
  722MOL0     H97464   9.585   1.741   1.791  0.8751 -0.7703  0.5942
  722MOL0     H97465   9.548   1.855   1.927  2.2340 -1.5521  0.0079
  722MOL0     H97466   9.330   1.902   1.807 -0.5549 -0.2102 -0.9762
  722MOL0     H97467   9.405   1.790   1.670  2.1342 -1.1849  1.0465
  722MOL0     H97468   9.573   2.170   1.619  1.8177 -0.7907  0.0595
  722MOL0     H97469   9.890   1.560   1.951  0.6090  0.1799  0.9018
  722MOL0     H97470  10.069   1.511   2.105 -0.1209 -1.3585 -0.6835
  723MOL0     O97471   0.861   3.810  10.776 -0.6529  0.9620 -0.2000
  723MOL0     C97472   0.836   3.689  10.780 -0.0466 -0.8413  0.3430
  723MOL0     O97473   0.710   3.634  10.768 -0.1842 -0.4519  0.4659
  723MOL0     C97474   0.590   3.692  10.772 -0.8656 -0.4865  0.7060
  723MOL0     C97475   0.564   3.827  10.825  0.5325  0.3387  0.0061
  723MOL0     C97476   0.439   3.886  10.805 -0.4463  0.3663 -1.1183
  723MOL0     C97477   0.333   3.808  10.754  0.6068 -0.0478 -0.5778
  723MOL0     O97478   0.215   3.875  10.752 -0.1308  0.7456 -0.0560
  723MOL0     C97479   0.094   3.800  10.784  0.2776  1.0706  0.4033
  723MOL0     C97480  -0.029   3.876  10.836 -0.3050  0.2404  0.0877
  723MOL0     C97481  -0.014   3.930  10.984  0.2941  0.0291  0.8200
  723MOL0     C97482  -0.130   4.024  11.011  0.9394  0.6338 -0.7821
  723MOL0     C97483  -0.262   3.943  11.035  0.0919  0.3747  0.7461
  723MOL0     C97484  -0.367   4.034  11.101  0.0398  0.1848  0.1645
  723MOL0     C97485  -0.502   3.957  11.116  0.3837 -0.7614 -0.4284
  723MOL0     C97486  -0.496   3.855  11.227  0.6591 -0.1101  1.1459
  723MOL0     N97487  -0.580   3.737  11.202 -0.8270  0.2361 -0.0170
  723MOL0     C97488  -0.719   3.737  11.215 -0.2869 -0.3115 -0.0793
  723MOL0     C97489  -0.752   3.617  11.166  0.0373 -0.3893 -0.2719
  723MOL0     C97490  -0.894   3.576  11.141 -0.6535  0.2244  1.2568
  723MOL0     C97491  -0.969   3.545  11.273  0.3372 -0.0015  0.5517
  723MOL0     C97492  -1.106   3.498  11.239 -0.1195 -0.8702 -0.2653
  723MOL0     C97493  -1.161   3.472  11.382 -0.2608  0.9300  0.4824
  723MOL0     O97494  -1.302   3.459  11.352 -0.4885 -0.3289 -1.1181
  723MOL0     C97495  -1.387   3.419  11.447  0.6273  0.3574  0.2804
  723MOL0     C97496  -1.357   3.384  11.578  0.6277  0.6726 -1.1894
  723MOL0     C97497  -1.453   3.387  11.679  0.7726  0.4506 -1.0295
  723MOL0     C97498  -1.413   3.366  11.827 -0.1264 -0.6056  0.9969
  723MOL0     C97499  -1.595   3.398  11.641 -0.4517  0.4396 -0.6656
  723MOL0     C97500  -1.720   3.387  11.718  0.4637 -1.0479 -0.7235
  723MOL0     O97501  -1.844   3.386  11.648 -0.2635 -0.1199  0.6623
  723MOL0     C97502  -1.943   3.331  11.711 -0.3185 -0.2721  0.2298
  723MOL0     C97503  -2.062   3.407  11.728  1.1894  1.0560  0.5902
  723MOL0     C97504  -2.166   3.347  11.799 -0.4739 -0.3830 -1.1313
  723MOL0     C97505  -2.153   3.213  11.843 -0.1473 -0.5460 -0.3886
  723MOL0     O97506  -2.261   3.162  11.907  0.4107  0.4288 -0.3648
  723MOL0     C97507  -2.274   3.025  11.943 -0.2260 -0.2618 -1.5048
  723MOL0     C97508  -2.414   2.994  11.986 -0.3733 -0.4359  1.0117
  723MOL0     C97509  -2.444   3.031  12.127 -0.0943  0.3565  0.2317
  723MOL0     C97510  -2.428   3.181  12.173 -0.6303  0.4019 -0.7473
  723MOL0     C97511  -2.508   3.208  12.298 -0.9334  0.0885 -0.1712
  723MOL0     C97512  -2.502   3.363  12.322 -0.4469  0.2067  0.2893
  723MOL0     C97513  -2.593   3.420  12.430  0.2048  0.2321 -0.2194
  723MOL0     C97514  -2.558   3.343  12.558  0.4168 -0.7584  0.1941
  723MOL0    Cl97515  -2.603   3.437  12.703  0.2760 -0.0065  0.4488
  723MOL0     C97516  -2.038   3.128  11.818 -0.3568 -0.3400  0.0651
  723MOL0     C97517  -1.930   3.194  11.759  0.3539  0.1313 -0.6939
  723MOL0     O97518  -1.712   3.389  11.842 -0.0454 -0.4685  0.3987
  723MOL0     C97519  -1.612   3.410  11.505 -0.2301 -0.7626 -0.9033
  723MOL0     C97520  -1.515   3.430  11.413 -0.5767  0.1942  0.1408
  723MOL0     N97521  -0.641   3.540  11.147  0.5145 -0.2154  0.3089
  723MOL0     N97522  -0.532   3.613  11.173  0.2194 -0.3361  0.3977
  723MOL0     C97523   0.353   3.678  10.704 -0.2839 -0.6503  0.3755
  723MOL0     C97524   0.481   3.616  10.713  0.5272 -0.5544 -0.1364
  723MOL0     C97525   0.953   3.598  10.789  0.5086 -0.2459  1.2665
  723MOL0     C97526   0.933   3.459  10.810  0.4675 -0.3544 -0.2438
  723MOL0     C97527   1.040   3.376  10.835 -0.0987 -0.5469  0.3383
  723MOL0     C97528   1.168   3.425  10.835  0.7324  0.1010  0.2096
  723MOL0     O97529   1.270   3.333  10.852  0.0864  0.4500 -0.1153
  723MOL0     C97530   1.247   3.194  10.830 -0.0694 -0.9989  0.8204
  723MOL0     C97531   1.385   3.117  10.816 -0.4628 -0.8143 -0.3205
  723MOL0     C97532   1.360   2.978  10.770  0.4724 -0.4478 -0.4237
  723MOL0     C97533   1.477   2.873  10.778 -0.2678 -0.1246 -0.0028
  723MOL0     C97534   1.589   2.874  10.680 -0.1971 -0.9603 -0.2011
  723MOL0     C97535   1.680   2.874  10.602  0.2039 -0.1870  0.0068
  723MOL0     C97536   1.193   3.558  10.800 -0.5065 -0.1943  0.7673
  723MOL0     C97537   1.089   3.642  10.787  0.7333  0.2360 -0.1947
  723MOL0     H97538   0.647   3.879  10.872 -0.9880  2.4127  0.5313
  723MOL0     H97539   0.442   3.992  10.827  2.0124 -0.1827  1.9039
  723MOL0     H97540   0.066   3.749  10.692 -1.3388  1.6144  0.5627
  723MOL0     H97541   0.124   3.730  10.863 -1.7576 -0.7632 -0.3516
  723MOL0     H97542  -0.059   3.958  10.770  0.9629  0.7728  0.1480
  723MOL0     H97543  -0.097   3.790  10.837  1.1934 -1.0331 -1.5354
  723MOL0     H97544  -0.009   3.844  11.051 -0.4886  1.9449  3.5220
  723MOL0     H97545   0.088   3.966  10.999  0.3978  0.3546 -0.5636
  723MOL0     H97546  -0.107   4.078  11.103 -0.2387  0.5797 -0.4411
  723MOL0     H97547  -0.144   4.095  10.929 -0.2319 -0.2117 -1.3471
  723MOL0     H97548  -0.302   3.917  10.936  2.3425 -0.8920  0.0970
  723MOL0     H97549  -0.232   3.855  11.092 -0.2360 -0.6977 -0.6783
  723MOL0     H97550  -0.319   4.071  11.192  2.7839 -0.1977 -1.0278
  723MOL0     H97551  -0.392   4.117  11.036  2.8633 -0.0275 -1.3473
  723MOL0     H97552  -0.591   4.020  11.131  0.8537 -0.3246  0.6521
  723MOL0     H97553  -0.526   3.892  11.032 -3.8349 -0.3650  0.2120
  723MOL0     H97554  -0.523   3.908  11.319  0.0406  0.2594  0.7557
  723MOL0     H97555  -0.397   3.807  11.225 -0.8640 -3.5552 -1.5375
  723MOL0     H97556  -0.793   3.811  11.242 -3.7351 -3.2031 -0.7711
  723MOL0     H97557  -0.956   3.642  11.080 -0.5146 -1.1735 -0.4429
  723MOL0     H97558  -0.891   3.487  11.078 -3.7258  2.8574 -3.1121
  723MOL0     H97559  -0.975   3.638  11.331 -1.7706  0.2236  0.0420
  723MOL0     H97560  -0.915   3.475  11.338  2.0333  1.0104  0.3036
  723MOL0     H97561  -1.107   3.414  11.168 -3.4034 -2.6432  1.6220
  723MOL0     H97562  -1.165   3.573  11.187 -3.2442 -2.6815  0.3778
  723MOL0     H97563  -1.148   3.551  11.457 -0.3091  1.3108  0.0927
  723MOL0     H97564  -1.116   3.379  11.416 -0.2641 -0.1351 -2.2298
  723MOL0     H97565  -1.253   3.371  11.608 -0.4018 -0.7855  2.2723
  723MOL0     H97566  -1.307   3.388  11.841  0.1662 -0.2948 -1.3669
  723MOL0     H97567  -1.466   3.430  11.899  0.5437  0.9465  0.1507
  723MOL0     H97568  -1.430   3.258  11.835  4.4183 -1.8973 -2.6876
  723MOL0     H97569  -2.082   3.505  11.686 -0.5371 -0.0694 -1.4099
  723MOL0     H97570  -2.262   3.397  11.806  0.4070  1.1196  1.4393
  723MOL0     H97571  -2.231   2.965  11.861 -1.9121  0.3244 -2.8774
  723MOL0     H97572  -2.210   3.015  12.031 -4.8724 -0.0512  2.2461
  723MOL0     H97573  -2.473   3.043  11.908  2.2516  6.0625  2.4996
  723MOL0     H97574  -2.427   2.885  11.981 -2.0225 -0.2929  1.7510
  723MOL0     H97575  -2.378   2.980  12.198  1.6428 -0.7959 -2.1010
  723MOL0     H97576  -2.547   2.996  12.140  0.3037 -1.5806 -1.3746
  723MOL0     H97577  -2.321   3.199  12.188  0.4001 -4.3566 -0.7415
  723MOL0     H97578  -2.458   3.246  12.091 -0.3424  4.0021  1.7551
  723MOL0     H97579  -2.465   3.151  12.381  1.2967  2.0618  0.1472
  723MOL0     H97580  -2.616   3.193  12.289 -0.8514 -0.1105 -0.9259
  723MOL0     H97581  -2.402   3.402  12.344 -1.7063  3.3411  0.9755
  723MOL0     H97582  -2.541   3.419  12.236 -1.3393  0.2302  0.7068
  723MOL0     H97583  -2.693   3.401  12.391 -0.3168 -2.0406  1.9486
  723MOL0     H97584  -2.582   3.529  12.434  2.7937 -0.0040  1.5162
  723MOL0     H97585  -2.449   3.330  12.553  0.4501 -0.1822 -1.2117
  723MOL0     H97586  -2.610   3.248  12.550  2.4099 -1.7772 -2.0025
  723MOL0     H97587  -2.020   3.024  11.845  2.1739  0.4133  1.6699
  723MOL0     H97588  -1.835   3.143  11.751  1.1823  1.8010 -2.5006
  723MOL0     H97589  -1.708   3.436  11.463 -0.1580  1.7924  0.3614
  723MOL0     H97590  -1.542   3.444  11.308 -1.7968 -4.7065 -0.4597
  723MOL0     H97591   0.275   3.632  10.644  0.9190 -3.4551  0.7869
  723MOL0     H97592   0.495   3.527  10.653 -2.0123 -0.4681 -0.9486
  723MOL0     H97593   0.832   3.421  10.794  0.5620 -0.2487 -1.1263
  723MOL0     H97594   1.023   3.270  10.846  1.0285 -0.8393 -0.5443
  723MOL0     H97595   1.181   3.158  10.909 -0.9557  2.0789  1.6389
  723MOL0     H97596   1.200   3.188  10.731 -0.7334 -0.2901  1.0796
  723MOL0     H97597   1.442   3.124  10.909  0.5475  1.8344 -1.0493
  723MOL0     H97598   1.446   3.164  10.738  0.8428 -2.0639 -0.0963
  723MOL0     H97599   1.322   2.974  10.667  0.7754 -0.0187 -0.5560
  723MOL0     H97600   1.283   2.937  10.836 -1.8042 -1.4915 -3.4363
  723MOL0     H97601   1.431   2.774  10.772 -1.2027  0.1075  2.3539
  723MOL0     H97602   1.527   2.879  10.875 -1.2942 -3.3132  0.8418
  723MOL0     H97603   1.780   2.883  10.564  0.8332 -1.8414  1.1515
  723MOL0     H97604   1.296   3.590  10.807 -0.0966 -1.7286  2.2528
  723MOL0     H97605   1.124   3.743  10.766 -0.8750  0.9671  0.4548
  724MOL0     O97606   3.914   5.287   2.031 -0.1778  0.0914  0.1461
  724MOL0     C97607   3.985   5.380   1.999 -0.0284 -0.3876  0.2410
  724MOL0     O97608   3.983   5.430   1.872 -0.0096  0.0398  0.7142
  724MOL0     C97609   3.898   5.386   1.767 -0.4898  0.6639 -1.0000
  724MOL0     C97610   3.866   5.253   1.740 -0.6234 -0.0989 -0.4952
  724MOL0     C97611   3.777   5.225   1.641 -0.1241  0.5889  0.5556
  724MOL0     C97612   3.718   5.325   1.562 -0.1064  0.1131  0.8271
  724MOL0     O97613   3.637   5.296   1.454 -0.9814  0.7745  0.0601
  724MOL0     C97614   3.699   5.212   1.352 -0.3290 -0.8983 -0.1299
  724MOL0     C97615   3.648   5.267   1.215 -0.3099 -0.7069 -0.2225
  724MOL0     C97616   3.664   5.421   1.204  0.1454  1.0313 -1.2420
  724MOL0     C97617   3.596   5.477   1.084 -0.5810 -0.5190  0.2248
  724MOL0     C97618   3.637   5.614   1.046 -0.1510 -0.0269 -0.7315
  724MOL0     C97619   3.560   5.653   0.917 -0.6141  0.1021  0.0755
  724MOL0     C97620   3.610   5.784   0.865  0.7096  0.5926 -0.3053
  724MOL0     C97621   3.523   5.855   0.765 -0.2725  0.4545  0.4614
  724MOL0     N97622   3.520   5.788   0.631 -0.0605  1.4093  1.0383
  724MOL0     C97623   3.403   5.741   0.570 -0.9261 -0.2592  0.3009
  724MOL0     C97624   3.445   5.684   0.452  0.9703 -0.7027 -0.0667
  724MOL0     C97625   3.360   5.631   0.338  0.2052 -0.7712 -0.1332
  724MOL0     C97626   3.336   5.734   0.226 -0.1144 -0.5195 -0.0233
  724MOL0     C97627   3.404   5.724   0.088 -0.0114  0.7470 -0.1656
  724MOL0     C97628   3.545   5.768   0.096  0.2668  0.0091 -0.3631
  724MOL0     O97629   3.610   5.738  -0.033  0.1833  0.0051  0.0588
  724MOL0     C97630   3.728   5.801  -0.061 -0.6077 -0.3476  0.1844
  724MOL0     C97631   3.783   5.761  -0.184  1.0095  0.0730 -0.3485
  724MOL0     C97632   3.915   5.799  -0.230  0.5159 -0.5056 -0.2689
  724MOL0     C97633   3.946   5.779  -0.372  0.6183  0.0846  0.0559
  724MOL0     C97634   3.991   5.882  -0.141 -0.0655  0.2819 -0.5222
  724MOL0     C97635   4.119   5.937  -0.177  0.7112 -0.5858 -0.3117
  724MOL0     O97636   4.167   6.058  -0.114 -1.1245  0.0242  0.2654
  724MOL0     C97637   4.287   6.117  -0.154 -0.1130  0.1552 -0.3424
  724MOL0     C97638   4.416   6.048  -0.150 -0.2795  0.3040 -0.5106
  724MOL0     C97639   4.535   6.121  -0.172  0.4420  0.3697 -0.8641
  724MOL0     C97640   4.530   6.257  -0.190 -0.3512 -0.1381  0.6219
  724MOL0     O97641   4.652   6.321  -0.179 -0.0400  0.3312  0.2115
  724MOL0     C97642   4.714   6.342  -0.307  0.4160 -0.2113  0.7687
  724MOL0     C97643   4.709   6.490  -0.344 -0.5411 -0.8070 -0.0127
  724MOL0     C97644   4.777   6.580  -0.242  0.0381  0.4015 -0.1864
  724MOL0     C97645   4.688   6.632  -0.128 -0.8450 -0.7801 -0.0866
  724MOL0     C97646   4.767   6.706  -0.015 -0.1989  0.7950  0.2557
  724MOL0     C97647   4.850   6.831  -0.039  0.0435  0.5530 -0.2601
  724MOL0     C97648   4.765   6.939  -0.108  1.0082 -0.3316 -0.1169
  724MOL0     C97649   4.685   7.024  -0.007  0.1353  0.2644  1.0214
  724MOL0    Cl97650   4.596   7.165  -0.069 -0.3143 -0.4958  0.6083
  724MOL0     C97651   4.405   6.329  -0.204 -0.5807 -0.5101  0.2176
  724MOL0     C97652   4.277   6.261  -0.185 -0.1164 -0.0062  0.2699
  724MOL0     O97653   4.166   5.887  -0.272 -0.1154 -0.0400  0.8422
  724MOL0     C97654   3.934   5.912  -0.011  0.1186  0.4171 -0.3665
  724MOL0     C97655   3.810   5.875   0.019  0.2341 -0.6055  0.0268
  724MOL0     N97656   3.583   5.700   0.435  0.3378  0.1119 -0.7701
  724MOL0     N97657   3.627   5.759   0.543 -0.4935 -0.3015  0.3639
  724MOL0     C97658   3.747   5.453   1.583  0.4892 -0.7459 -0.2378
  724MOL0     C97659   3.829   5.486   1.692  0.2234 -0.9514 -0.5461
  724MOL0     C97660   4.092   5.440   2.090 -0.4086 -0.5123  0.3160
  724MOL0     C97661   4.181   5.540   2.043  0.0743 -0.3465  0.3671
  724MOL0     C97662   4.269   5.610   2.130  0.0851  1.0853  0.2469
  724MOL0     C97663   4.274   5.574   2.264  0.0567 -0.3622  0.1104
  724MOL0     O97664   4.363   5.633   2.345  0.1979  0.5023  1.0640
  724MOL0     C97665   4.437   5.756   2.305  0.4637  1.4182  0.0080
  724MOL0     C97666   4.514   5.820   2.417  0.1604  0.4747 -0.2358
  724MOL0     C97667   4.432   5.880   2.527  0.5429 -0.0138  0.6079
  724MOL0     C97668   4.369   5.791   2.632  0.6295  0.7510 -0.2663
  724MOL0     C97669   4.225   5.742   2.613 -0.0819 -0.4560  0.4137
  724MOL0     C97670   4.118   5.693   2.602  0.2262  0.1289  0.5164
  724MOL0     C97671   4.192   5.473   2.319 -0.1473  0.7698  0.1830
  724MOL0     C97672   4.106   5.400   2.225  0.7423  0.7103 -1.3756
  724MOL0     H97673   3.911   5.186   1.812 -0.7025 -0.1947 -0.5336
  724MOL0     H97674   3.757   5.122   1.614 -2.0721  0.6550  1.5181
  724MOL0     H97675   3.808   5.211   1.360 -0.2224 -3.5946 -0.7926
  724MOL0     H97676   3.670   5.107   1.360  2.7652 -1.7703  0.8662
  724MOL0     H97677   3.707   5.229   1.130  2.0783 -4.5113  2.7917
  724MOL0     H97678   3.542   5.257   1.192 -1.0711  0.2606  2.5059
  724MOL0     H97679   3.611   5.471   1.285  0.9130  1.1698 -0.8159
  724MOL0     H97680   3.770   5.450   1.205  0.2929  0.5742  0.8123
  724MOL0     H97681   3.623   5.413   0.999 -1.5652  0.3290 -0.7528
  724MOL0     H97682   3.487   5.478   1.078 -0.5760 -0.6532  0.1176
  724MOL0     H97683   3.612   5.675   1.133 -2.0379  0.4194 -1.5354
  724MOL0     H97684   3.740   5.640   1.020 -0.7655  2.6487 -0.7240
  724MOL0     H97685   3.579   5.576   0.842  2.4973 -1.5547  2.3581
  724MOL0     H97686   3.455   5.669   0.945  0.2421  1.1209  3.0668
  724MOL0     H97687   3.628   5.842   0.956 -0.5858  0.4127  0.0826
  724MOL0     H97688   3.704   5.758   0.814 -0.0071  1.2800 -2.0611
  724MOL0     H97689   3.569   5.954   0.752 -3.4861  1.6770 -3.4470
  724MOL0     H97690   3.418   5.856   0.795 -0.8147 -1.3479 -1.1678
  724MOL0     H97691   3.299   5.753   0.599 -0.9752 -0.5551  0.2496
  724MOL0     H97692   3.398   5.537   0.298 -1.0109 -1.4206  0.1893
  724MOL0     H97693   3.259   5.596   0.360 -1.4909  2.0303 -2.6526
  724MOL0     H97694   3.355   5.836   0.263 -1.0049 -1.0586  2.0889
  724MOL0     H97695   3.229   5.724   0.205  0.3270 -0.7978 -2.4897
  724MOL0     H97696   3.358   5.800   0.023  0.8192  0.1154 -1.5346
  724MOL0     H97697   3.391   5.631   0.033  0.8915  0.2550  0.4487
  724MOL0     H97698   3.595   5.705   0.170 -0.7471  0.8054  1.0506
  724MOL0     H97699   3.551   5.870   0.135 -0.8317 -0.6516  1.7297
  724MOL0     H97700   3.732   5.702  -0.258  6.8564 -0.5991 -4.5167
  724MOL0     H97701   3.956   5.878  -0.418 -2.6970  0.4286 -0.1335
  724MOL0     H97702   4.039   5.724  -0.389 -0.7242 -2.3411  0.2620
  724MOL0     H97703   3.871   5.738  -0.440  0.1935  2.5478 -1.1146
  724MOL0     H97704   4.418   5.941  -0.133 -2.3735  0.4871  1.4761
  724MOL0     H97705   4.634   6.079  -0.154  0.0239  0.4244  1.9645
  724MOL0     H97706   4.818   6.306  -0.307 -0.0018 -1.4866  1.1154
  724MOL0     H97707   4.657   6.291  -0.385 -1.1508  0.7328  1.2646
  724MOL0     H97708   4.757   6.495  -0.443  1.0276 -0.9002  0.7039
  724MOL0     H97709   4.606   6.518  -0.366 -0.4722 -2.7019 -3.4117
  724MOL0     H97710   4.827   6.661  -0.295  2.1982 -1.1687 -0.6644
  724MOL0     H97711   4.858   6.518  -0.204  0.9154  0.9993 -1.0472
  724MOL0     H97712   4.630   6.719  -0.160  2.3737  1.9333  0.8880
  724MOL0     H97713   4.623   6.554  -0.086  0.2168 -2.0207 -0.6973
  724MOL0     H97714   4.837   6.633   0.027 -1.9515 -1.8669 -1.1727
  724MOL0     H97715   4.682   6.735   0.047 -1.1250  0.1880 -0.6942
  724MOL0     H97716   4.877   6.868   0.061 -1.1846  3.6832 -0.9953
  724MOL0     H97717   4.937   6.816  -0.102  2.5480  1.3266  2.7437
  724MOL0     H97718   4.707   6.895  -0.189 -0.3991  1.6431 -0.2366
  724MOL0     H97719   4.835   7.009  -0.155  0.7687 -1.4144 -2.1620
  724MOL0     H97720   4.756   7.073   0.059 -0.6212  0.8018  1.4576
  724MOL0     H97721   4.618   6.963   0.055 -1.7082  1.6546  0.4975
  724MOL0     H97722   4.407   6.436  -0.223 -1.7944 -0.5573 -0.2950
  724MOL0     H97723   4.175   6.294  -0.202 -0.7849 -2.6843 -1.5357
  724MOL0     H97724   3.997   5.960   0.063  0.2531  0.4676 -0.5139
  724MOL0     H97725   3.769   5.912   0.113 -0.6101 -0.1515 -0.5117
  724MOL0     H97726   3.719   5.539   1.522  3.7206 -0.0405 -0.9182
  724MOL0     H97727   3.844   5.592   1.707  2.0387 -1.1063 -1.0433
  724MOL0     H97728   4.186   5.566   1.937  1.6780  1.8041  0.8938
  724MOL0     H97729   4.336   5.682   2.083  0.2351 -0.8674 -2.7892
  724MOL0     H97730   4.505   5.735   2.222  0.4626 -0.4584  0.4367
  724MOL0     H97731   4.362   5.830   2.273  0.1461  0.9944 -0.2301
  724MOL0     H97732   4.566   5.904   2.370 -2.5440  1.0098 -2.4862
  724MOL0     H97733   4.581   5.744   2.458 -0.9773 -1.4941 -1.8770
  724MOL0     H97734   4.359   5.943   2.475 -2.1403 -2.4870  1.0781
  724MOL0     H97735   4.504   5.939   2.584  1.0450 -0.2840  0.2633
  724MOL0     H97736   4.382   5.847   2.725 -0.0384 -1.2415  1.1101
  724MOL0     H97737   4.429   5.701   2.649  1.3123  1.5827  2.0854
  724MOL0     H97738   4.020   5.662   2.569  0.0121  1.5602 -0.2446
  724MOL0     H97739   4.203   5.449   2.424  1.1053  0.8258  0.0790
  724MOL0     H97740   4.038   5.320   2.252  1.3174 -0.2482 -2.6565
  725MOL0     O97741   4.212   9.392   6.909 -0.2951 -0.2972  0.2773
  725MOL0     C97742   4.319   9.436   6.867 -0.3951  0.0098 -0.0072
  725MOL0     O97743   4.348   9.484   6.746  0.6119  0.1554 -0.1053
  725MOL0     C97744   4.245   9.518   6.661 -0.1959  0.3350  0.2312
  725MOL0     C97745   4.286   9.552   6.530  0.5606 -0.5607  0.5575
  725MOL0     C97746   4.194   9.600   6.431 -0.1744 -0.5586  0.2426
  725MOL0     C97747   4.062   9.606   6.460  0.6902  0.1039 -0.4005
  725MOL0     O97748   3.969   9.661   6.369  0.0060 -0.1423 -0.2117
  725MOL0     C97749   3.830   9.632   6.362  0.4539 -0.3050  0.4469
  725MOL0     C97750   3.766   9.683   6.228  0.0414  0.3153 -0.5539
  725MOL0     C97751   3.801   9.608   6.095 -0.9494  0.3060  1.1000
  725MOL0     C97752   3.688   9.662   5.994 -0.7994  0.1957  0.9064
  725MOL0     C97753   3.719   9.615   5.853 -0.5694 -0.1213 -0.3799
  725MOL0     C97754   3.808   9.720   5.781 -0.7097 -0.7365  0.2619
  725MOL0     C97755   3.830   9.695   5.626  1.2661 -0.1202  0.1045
  725MOL0     C97756   3.899   9.807   5.541  0.2969 -0.5258  0.3449
  725MOL0     N97757   3.820   9.931   5.520 -0.1318  0.5663  0.2155
  725MOL0     C97758   3.867  10.037   5.588 -0.7971 -0.0343 -0.4586
  725MOL0     C97759   3.817  10.145   5.522  0.3908  0.5095 -0.0542
  725MOL0     C97760   3.846  10.288   5.564  0.8736  0.9369  0.1993
  725MOL0     C97761   3.735  10.395   5.559  0.9846 -0.3992  0.1445
  725MOL0     C97762   3.651  10.407   5.697  0.0488  0.2592  1.3761
  725MOL0     C97763   3.582  10.285   5.731 -0.1007 -0.5721  0.1921
  725MOL0     O97764   3.447  10.308   5.788  0.1674  0.2203 -0.5861
  725MOL0     C97765   3.347  10.210   5.789  0.3353  0.3991 -1.4980
  725MOL0     C97766   3.378  10.073   5.792 -0.5003 -0.6942  0.7099
  725MOL0     C97767   3.289   9.979   5.829  0.9707 -0.7156 -0.6366
  725MOL0     C97768   3.312   9.825   5.813 -0.3703  1.0218  0.8537
  725MOL0     C97769   3.160  10.022   5.869  0.2926 -0.6118 -0.1373
  725MOL0     C97770   3.043   9.939   5.907 -1.1502 -0.0882  0.3768
  725MOL0     O97771   2.936   9.955   5.826  0.0039  1.2988  0.5556
  725MOL0     C97772   2.844   9.855   5.826 -0.1278  0.5313  1.2670
  725MOL0     C97773   2.855   9.757   5.728  0.1574 -0.2922 -0.0265
  725MOL0     C97774   2.753   9.661   5.713  0.3079  0.5161 -0.7190
  725MOL0     C97775   2.646   9.664   5.808 -0.4944 -0.9213  0.1937
  725MOL0     O97776   2.536   9.579   5.815 -0.8926  0.7439 -0.4477
  725MOL0     C97777   2.560   9.442   5.777 -0.7196  0.2545  0.2003
  725MOL0     C97778   2.425   9.364   5.795 -0.4838 -0.0988  0.0785
  725MOL0     C97779   2.361   9.364   5.929  0.3656  0.3380 -0.0833
  725MOL0     C97780   2.446   9.291   6.038  0.2359  1.0272  0.1928
  725MOL0     C97781   2.415   9.333   6.183  0.9132 -0.5276  0.0402
  725MOL0     C97782   2.264   9.290   6.219 -0.2410 -0.5890  0.1898
  725MOL0     C97783   2.191   9.392   6.315 -0.3992  0.3690  0.2032
  725MOL0     C97784   2.061   9.340   6.367  0.9030 -0.0119 -0.1855
  725MOL0    Cl97785   2.005   9.437   6.507  0.3106  0.3632  0.4934
  725MOL0     C97786   2.632   9.771   5.897  0.0873  0.2003  0.3729
  725MOL0     C97787   2.744   9.861   5.912 -0.4220  0.0463  0.4470
  725MOL0     O97788   3.058   9.849   5.992 -0.7870  0.4034 -0.1170
  725MOL0     C97789   3.119  10.159   5.867  0.5068 -0.1271 -0.5222
  725MOL0     C97790   3.214  10.247   5.818  0.3041 -0.1475 -0.9920
  725MOL0     N97791   3.743  10.094   5.413 -0.4186 -0.3013 -0.4496
  725MOL0     N97792   3.735   9.967   5.426  0.2019  0.2083  0.8127
  725MOL0     C97793   4.015   9.571   6.586 -0.5826  0.9549 -0.4856
  725MOL0     C97794   4.101   9.525   6.683  0.6345  0.9594  0.4581
  725MOL0     C97795   4.424   9.462   6.976 -0.2024 -0.2108  0.6831
  725MOL0     C97796   4.404   9.426   7.112 -0.0362  1.8041  0.4919
  725MOL0     C97797   4.508   9.447   7.203  0.5168  0.3050 -1.1253
  725MOL0     C97798   4.630   9.507   7.163 -0.9137 -0.8561  0.5842
  725MOL0     O97799   4.728   9.517   7.251 -0.2951  0.3049  0.9060
  725MOL0     C97800   4.723   9.644   7.299 -0.4352 -0.2077 -0.3105
  725MOL0     C97801   4.642   9.661   7.428  0.3165 -0.4272 -0.6772
  725MOL0     C97802   4.691   9.578   7.544 -0.4790 -0.1976 -0.8041
  725MOL0     C97803   4.587   9.585   7.660 -0.7950  0.4350  0.9758
  725MOL0     C97804   4.611   9.495   7.773  0.4942 -0.5059  0.0986
  725MOL0     C97805   4.642   9.422   7.867 -0.1187 -0.1319 -0.9701
  725MOL0     C97806   4.660   9.534   7.027  0.3780  0.4176 -0.0533
  725MOL0     C97807   4.553   9.499   6.940 -0.3062 -0.7479  0.2454
  725MOL0     H97808   4.392   9.548   6.507  0.0896 -1.2707 -1.7095
  725MOL0     H97809   4.222   9.634   6.332 -0.4819  0.3313  0.4534
  725MOL0     H97810   3.831   9.523   6.366 -0.3910 -0.4395 -1.7561
  725MOL0     H97811   3.777   9.672   6.449  0.6873 -1.7319  1.2693
  725MOL0     H97812   3.657   9.679   6.238  0.1445  1.2556  1.3641
  725MOL0     H97813   3.796   9.787   6.210 -2.6808  1.4144  0.6508
  725MOL0     H97814   3.904   9.633   6.066 -1.6463 -1.3842 -3.5758
  725MOL0     H97815   3.796   9.500   6.112 -1.1903  0.2516  0.6929
  725MOL0     H97816   3.601   9.606   6.029  0.9283 -3.1199  0.3560
  725MOL0     H97817   3.671   9.769   6.004  1.4612  0.4839  2.3070
  725MOL0     H97818   3.756   9.513   5.837 -4.3359 -1.7977  0.4420
  725MOL0     H97819   3.627   9.627   5.796 -0.5401  0.7111 -0.2601
  725MOL0     H97820   3.752   9.813   5.782 -1.2486 -1.0446 -0.2325
  725MOL0     H97821   3.907   9.734   5.826 -0.3132  4.3983 -1.5748
  725MOL0     H97822   3.888   9.603   5.610  2.6020  0.0778  3.0072
  725MOL0     H97823   3.731   9.665   5.591  0.9120 -0.9235  1.6674
  725MOL0     H97824   3.915   9.774   5.438 -0.7651  1.2010 -0.4157
  725MOL0     H97825   3.991   9.827   5.598 -2.2415  2.4545  3.8689
  725MOL0     H97826   3.934  10.029   5.673 -1.7129 -2.2048  0.1501
  725MOL0     H97827   3.905  10.287   5.656  0.6321 -3.0505  0.4623
  725MOL0     H97828   3.912  10.328   5.486 -0.0958  0.1756 -1.0482
  725MOL0     H97829   3.662  10.369   5.482 -1.5590  0.5960  2.0811
  725MOL0     H97830   3.786  10.490   5.539  0.5207  0.2912  2.0047
  725MOL0     H97831   3.581  10.491   5.686  0.8127  1.1198  2.7126
  725MOL0     H97832   3.723  10.438   5.774 -0.0188  4.0364  0.1275
  725MOL0     H97833   3.652  10.210   5.768  2.0898  0.8288 -0.8767
  725MOL0     H97834   3.551  10.242   5.635 -0.8423 -0.9307  0.5842
  725MOL0     H97835   3.476  10.037   5.763 -1.0582 -0.9658 -0.9458
  725MOL0     H97836   3.340   9.775   5.907 -0.3476 -1.5498 -0.4204
  725MOL0     H97837   3.222   9.769   5.786 -1.1602  2.9653 -0.7460
  725MOL0     H97838   3.392   9.800   5.743  2.5881  1.3362  3.8437
  725MOL0     H97839   2.952   9.740   5.683  0.1663 -2.8463  0.7804
  725MOL0     H97840   2.753   9.589   5.631 -3.3360  1.3861 -1.6463
  725MOL0     H97841   2.582   9.443   5.670  2.6215  0.9740  0.7794
  725MOL0     H97842   2.650   9.402   5.826  0.2068 -0.1348 -1.6930
  725MOL0     H97843   2.359   9.418   5.726 -1.7299 -0.4505  0.9644
  725MOL0     H97844   2.450   9.266   5.752 -1.0992  0.3787 -1.4423
  725MOL0     H97845   2.264   9.313   5.917  0.2571  0.4764  0.1998
  725MOL0     H97846   2.347   9.467   5.962  0.0825  0.0912  0.5803
  725MOL0     H97847   2.436   9.183   6.026 -1.4175  1.0649  0.8591
  725MOL0     H97848   2.551   9.319   6.025 -0.3004  1.9116 -3.2871
  725MOL0     H97849   2.423   9.442   6.192 -1.1996 -0.1819 -1.5477
  725MOL0     H97850   2.479   9.281   6.255  2.6241 -0.2631 -1.2334
  725MOL0     H97851   2.203   9.269   6.130  0.5297 -1.3400 -0.1797
  725MOL0     H97852   2.283   9.190   6.260  1.9180 -0.8854 -1.3637
  725MOL0     H97853   2.174   9.485   6.261 -0.5046  1.5641  2.1945
  725MOL0     H97854   2.261   9.416   6.396 -2.4340  0.5571  1.9869
  725MOL0     H97855   2.086   9.236   6.387  1.7348  0.1418 -0.3736
  725MOL0     H97856   1.993   9.343   6.281 -0.3719  0.9346  0.8211
  725MOL0     H97857   2.538   9.764   5.951  0.1996 -0.0871  0.5369
  725MOL0     H97858   2.743   9.932   5.994  0.7895 -0.8621  1.2783
  725MOL0     H97859   3.016  10.190   5.882 -0.5829 -2.2139 -2.9002
  725MOL0     H97860   3.195  10.353   5.812  1.1021  0.0987  0.3243
  725MOL0     H97861   3.908   9.566   6.603 -0.5915  0.3074 -0.7105
  725MOL0     H97862   4.055   9.488   6.773 -0.4887 -0.4169 -0.6465
  725MOL0     H97863   4.305   9.393   7.142  0.3906  0.4944  0.4878
  725MOL0     H97864   4.489   9.421   7.306  1.5108  0.4985 -0.8827
  725MOL0     H97865   4.826   9.674   7.322 -0.3271 -0.6014 -0.2739
  725MOL0     H97866   4.694   9.720   7.225  0.4365 -0.5102 -0.9805
  725MOL0     H97867   4.540   9.635   7.398 -1.1801  3.4046  0.4795
  725MOL0     H97868   4.649   9.767   7.454 -4.7606  1.1587 -4.2364
  725MOL0     H97869   4.787   9.613   7.582 -0.6530 -1.0794  0.5438
  725MOL0     H97870   4.708   9.471   7.527  1.4865  0.0388 -0.4757
  725MOL0     H97871   4.492   9.557   7.614 -1.0514  0.7395  1.3160
  725MOL0     H97872   4.587   9.688   7.695  2.1757  0.6002  0.7438
  725MOL0     H97873   4.679   9.349   7.936 -0.1624  1.7553  1.1965
  725MOL0     H97874   4.759   9.565   6.996 -0.1775  0.1434 -2.2442
  725MOL0     H97875   4.567   9.512   6.833 -0.0035  3.6550  0.6617
  726MOL0     O97876   4.355   3.121   5.861 -0.4985  0.0018 -0.4047
  726MOL0     C97877   4.317   3.236   5.860  0.4943  0.7288  0.1827
  726MOL0     O97878   4.280   3.313   5.751  1.4715 -0.0860  0.2960
  726MOL0     C97879   4.256   3.259   5.628  0.4842  0.0347  0.7867
  726MOL0     C97880   4.355   3.182   5.562 -0.4057  0.1812 -0.9663
  726MOL0     C97881   4.325   3.115   5.445 -0.8833 -0.6047  0.0400
  726MOL0     C97882   4.199   3.137   5.377 -0.3741 -0.7702  0.0947
  726MOL0     O97883   4.163   3.082   5.258 -0.3072 -0.4423 -0.2001
  726MOL0     C97884   4.265   3.091   5.153 -0.1183 -0.2206 -1.4807
  726MOL0     C97885   4.232   2.993   5.045 -0.1363 -0.5861  0.0568
  726MOL0     C97886   4.197   2.853   5.086  1.0529 -0.2662  0.3434
  726MOL0     C97887   4.299   2.794   5.179 -0.3533 -0.6132  0.6373
  726MOL0     C97888   4.267   2.644   5.206  0.1509  0.7825 -0.1468
  726MOL0     C97889   4.387   2.575   5.269 -0.0991  0.0870 -0.3893
  726MOL0     C97890   4.393   2.613   5.410 -0.0913 -0.2955 -0.5072
  726MOL0     C97891   4.496   2.544   5.487 -0.2649  1.2085  0.3541
  726MOL0     N97892   4.523   2.598   5.617 -0.9347 -0.0228 -0.8229
  726MOL0     C97893   4.560   2.727   5.641 -0.0467 -0.3672  0.0150
  726MOL0     C97894   4.611   2.714   5.765  0.3366 -0.1207 -0.4713
  726MOL0     C97895   4.710   2.804   5.826  0.1495 -0.0354  0.5991
  726MOL0     C97896   4.668   2.822   5.977  0.2902  0.6889 -0.4172
  726MOL0     C97897   4.557   2.925   5.974  0.4927  0.0056 -0.5989
  726MOL0     C97898   4.528   2.962   6.117  0.0360 -0.5540 -0.6389
  726MOL0     O97899   4.456   2.869   6.195  0.1226  0.3210  1.3376
  726MOL0     C97900   4.473   2.875   6.329 -0.1709 -0.0369 -0.5130
  726MOL0     C97901   4.434   2.986   6.398  0.8287 -0.3248  0.5614
  726MOL0     C97902   4.466   3.012   6.530  1.1508 -0.0060 -0.4652
  726MOL0     C97903   4.409   3.140   6.598  0.7459  0.5279 -0.4194
  726MOL0     C97904   4.533   2.913   6.606  0.4336  1.2443 -0.0636
  726MOL0     C97905   4.563   2.924   6.750  0.0175  0.0404  0.2733
  726MOL0     O97906   4.572   3.048   6.812  0.3276  0.0037 -1.1499
  726MOL0     C97907   4.640   3.071   6.931 -0.1776  0.3893 -0.1919
  726MOL0     C97908   4.633   3.187   7.002 -0.0536  0.2856  0.4693
  726MOL0     C97909   4.693   3.210   7.127 -0.3194 -0.1111  0.4981
  726MOL0     C97910   4.789   3.117   7.174  0.1483  0.1208  0.4082
  726MOL0     O97911   4.840   3.159   7.289  0.2589 -0.4428  0.4961
  726MOL0     C97912   4.890   3.060   7.382 -0.4345 -0.1115 -0.8333
  726MOL0     C97913   4.936   3.128   7.515  0.4898 -0.0720 -0.7732
  726MOL0     C97914   4.832   3.243   7.552  0.7209  0.0957 -0.0244
  726MOL0     C97915   4.720   3.174   7.626  0.7042 -0.3112  1.0926
  726MOL0     C97916   4.595   3.258   7.631  0.1394  0.0544  0.0489
  726MOL0     C97917   4.610   3.410   7.675  1.1425 -0.0004  0.0299
  726MOL0     C97918   4.705   3.444   7.786 -0.0548 -0.5554  0.3158
  726MOL0     C97919   4.660   3.570   7.852 -0.1693 -0.4785 -0.6884
  726MOL0    Cl97920   4.645   3.693   7.719 -0.0386 -0.1070  0.3683
  726MOL0     C97921   4.814   3.002   7.097  0.2160  0.3330  0.4681
  726MOL0     C97922   4.733   2.980   6.980 -0.1233  0.4210 -1.6336
  726MOL0     O97923   4.556   2.815   6.803 -0.2787  0.4526  0.6468
  726MOL0     C97924   4.568   2.797   6.536  0.2638  0.6868  0.1713
  726MOL0     C97925   4.545   2.776   6.402 -0.3438 -0.0231  0.6795
  726MOL0     N97926   4.575   2.596   5.820  0.1043  1.2997 -0.0826
  726MOL0     N97927   4.533   2.522   5.726  0.2678 -0.3443  0.7084
  726MOL0     C97928   4.106   3.216   5.445  0.1021 -0.0292  0.0353
  726MOL0     C97929   4.134   3.280   5.566 -0.1108 -0.7666  0.0367
  726MOL0     C97930   4.282   3.283   5.993  0.3928  0.7170 -0.2786
  726MOL0     C97931   4.243   3.192   6.103  1.0612 -0.7168 -0.5353
  726MOL0     C97932   4.210   3.249   6.226 -0.5524  0.5244 -0.6018
  726MOL0     C97933   4.220   3.392   6.258  1.0317 -0.5629  0.6215
  726MOL0     O97934   4.203   3.430   6.387  0.5178  0.3233 -0.0756
  726MOL0     C97935   4.205   3.570   6.425  0.2109 -0.8491  0.1806
  726MOL0     C97936   4.347   3.613   6.430  0.3144  0.3182  1.2843
  726MOL0     C97937   4.365   3.742   6.503 -0.2544  0.6515 -0.6890
  726MOL0     C97938   4.432   3.729   6.647  0.0228 -0.2726 -0.7877
  726MOL0     C97939   4.407   3.854   6.721  0.5224  0.0235  0.9558
  726MOL0     C97940   4.394   3.950   6.786  0.4166  0.4945  0.3536
  726MOL0     C97941   4.241   3.468   6.143  0.1001  1.1779  0.0972
  726MOL0     C97942   4.267   3.416   6.016  0.1450 -0.3548  0.3591
  726MOL0     H97943   4.453   3.159   5.602 -1.9354 -2.1230  1.8190
  726MOL0     H97944   4.403   3.055   5.400  0.9124  1.2499  0.5594
  726MOL0     H97945   4.273   3.195   5.120 -1.4779  0.3338 -0.1494
  726MOL0     H97946   4.353   3.049   5.202 -2.6523 -1.3326  2.6400
  726MOL0     H97947   4.134   3.019   5.004 -1.2560 -0.7552  2.4497
  726MOL0     H97948   4.310   3.006   4.970 -0.9348  2.2300 -0.4025
  726MOL0     H97949   4.096   2.851   5.127 -0.0760 -0.1347 -2.2973
  726MOL0     H97950   4.189   2.783   5.003  3.2179 -2.4324  1.7952
  726MOL0     H97951   4.398   2.805   5.133 -0.3246  2.2435  1.1806
  726MOL0     H97952   4.298   2.851   5.272 -1.5812 -2.8838  2.1003
  726MOL0     H97953   4.174   2.642   5.264 -1.2046 -0.0746 -2.2173
  726MOL0     H97954   4.246   2.605   5.106 -0.8489 -0.1344  0.3934
  726MOL0     H97955   4.366   2.468   5.262  2.8927 -0.6525  0.2165
  726MOL0     H97956   4.482   2.596   5.218  2.1449  0.9954  3.7275
  726MOL0     H97957   4.398   2.721   5.425  2.7991 -0.0347 -2.5387
  726MOL0     H97958   4.293   2.586   5.447 -1.4352  3.1127 -1.2287
  726MOL0     H97959   4.588   2.550   5.427 -0.3560  1.1619  0.2089
  726MOL0     H97960   4.470   2.438   5.486 -1.8645  1.5731 -1.2270
  726MOL0     H97961   4.599   2.811   5.585  0.5956 -1.6457 -1.5020
  726MOL0     H97962   4.812   2.766   5.831  0.5988  1.2671  2.7413
  726MOL0     H97963   4.707   2.905   5.784 -1.5952 -0.4100 -0.2821
  726MOL0     H97964   4.753   2.854   6.037  1.4792 -2.4328 -0.2512
  726MOL0     H97965   4.629   2.726   6.013  0.0645  1.2056  0.7359
  726MOL0     H97966   4.468   2.867   5.946  3.2170 -7.2519  3.1215
  726MOL0     H97967   4.599   3.006   5.914  6.9068 -2.2452 -0.0079
  726MOL0     H97968   4.470   3.054   6.124 -1.4423 -1.5266  0.6623
  726MOL0     H97969   4.624   2.986   6.165  0.7951 -1.1472 -1.8041
  726MOL0     H97970   4.391   3.067   6.340  4.4595  1.7152  0.3921
  726MOL0     H97971   4.342   3.109   6.679  0.6318 -0.6281 -0.9328
  726MOL0     H97972   4.492   3.197   6.640 -0.4252 -0.0813  3.0438
  726MOL0     H97973   4.350   3.200   6.528  0.2248 -2.8358 -3.1515
  726MOL0     H97974   4.569   3.262   6.958  0.2165  0.5209  0.4733
  726MOL0     H97975   4.680   3.292   7.197  1.8731  1.2010 -0.5141
  726MOL0     H97976   4.804   2.997   7.406 -0.5148 -0.8559 -2.9296
  726MOL0     H97977   4.971   2.992   7.354  0.6393  1.2999 -1.2414
  726MOL0     H97978   4.940   3.047   7.588 -1.8348  0.5853  0.1515
  726MOL0     H97979   5.039   3.163   7.506  1.1426 -1.8809 -0.9340
  726MOL0     H97980   4.783   3.291   7.467 -1.3564 -2.5975 -0.5025
  726MOL0     H97981   4.883   3.318   7.613  0.9470 -0.5122  0.5485
  726MOL0     H97982   4.687   3.084   7.572 -4.5177  2.9117 -1.9087
  726MOL0     H97983   4.765   3.160   7.725  3.8024  3.5117  0.4634
  726MOL0     H97984   4.532   3.215   7.709 -0.0376  0.9546  0.4077
  726MOL0     H97985   4.545   3.255   7.533  3.6032  0.1368 -1.8965
  726MOL0     H97986   4.644   3.467   7.588  2.4553 -1.2992 -0.3610
  726MOL0     H97987   4.508   3.435   7.705  0.5506 -0.8638 -1.1664
  726MOL0     H97988   4.804   3.463   7.745 -2.0851  1.4405 -4.3299
  726MOL0     H97989   4.716   3.359   7.854 -0.2448  0.2780  1.4160
  726MOL0     H97990   4.729   3.602   7.931 -1.1090  0.2103 -0.1388
  726MOL0     H97991   4.560   3.568   7.897  1.2039  1.1400  2.8818
  726MOL0     H97992   4.884   2.924   7.125 -1.3758 -0.2738  3.0817
  726MOL0     H97993   4.749   2.882   6.936  1.3203  0.1768 -0.6485
  726MOL0     H97994   4.618   2.722   6.596 -1.5430 -0.0928  0.7724
  726MOL0     H97995   4.569   2.681   6.355 -0.2572  1.3441 -2.2596
  726MOL0     H97996   4.008   3.229   5.402  1.1242  2.5463 -1.7549
  726MOL0     H97997   4.049   3.331   5.610  1.9366  0.4645  2.9475
  726MOL0     H97998   4.241   3.085   6.088 -0.3815 -1.2920  2.8459
  726MOL0     H97999   4.172   3.194   6.311 -0.3005  0.3449 -0.6041
  726MOL0     H98000   4.140   3.622   6.354 -2.1598  0.3305  3.0085
  726MOL0     H98001   4.160   3.595   6.521 -0.3051  3.6247 -0.9868
  726MOL0     H98002   4.385   3.630   6.329 -0.2457 -0.3376  0.9545
  726MOL0     H98003   4.406   3.538   6.483 -0.6983 -1.8618 -0.4728
  726MOL0     H98004   4.269   3.792   6.515  0.3600  1.8695 -0.7302
  726MOL0     H98005   4.431   3.814   6.454  2.0133  0.6304  2.1326
  726MOL0     H98006   4.540   3.720   6.637  0.4918  2.7778  0.4950
  726MOL0     H98007   4.393   3.647   6.709 -1.5966 -0.5295 -2.0721
  726MOL0     H98008   4.388   4.036   6.849 -0.7052 -1.9119  3.8259
  726MOL0     H98009   4.239   3.576   6.145 -1.7105  1.1727 -0.1078
  726MOL0     H98010   4.280   3.488   5.936 -0.2491  0.6981  1.2093
  727MOL0     O98011   2.913   4.192   5.445 -0.3145  0.1712  0.7152
  727MOL0     C98012   2.936   4.137   5.557  0.7374 -0.3887 -0.9587
  727MOL0     O98013   2.867   4.155   5.673  0.3606 -0.9346  0.2820
  727MOL0     C98014   2.734   4.200   5.661 -0.5301  0.1404  0.3004
  727MOL0     C98015   2.640   4.140   5.575  0.2136 -0.5555 -0.3464
  727MOL0     C98016   2.513   4.202   5.563 -0.0684  0.1476  0.8817
  727MOL0     C98017   2.486   4.323   5.635 -0.5643  0.9941  0.0397
  727MOL0     O98018   2.357   4.373   5.617 -0.1291 -0.5413 -0.1534
  727MOL0     C98019   2.359   4.518   5.608  0.4040 -0.4776 -0.9349
  727MOL0     C98020   2.272   4.601   5.699  0.0887 -0.4867  0.0878
  727MOL0     C98021   2.122   4.580   5.667 -0.5690  0.9819 -0.0001
  727MOL0     C98022   2.029   4.661   5.752  0.2771 -0.5657 -0.2088
  727MOL0     C98023   2.026   4.622   5.897  0.0097  0.0420  0.4896
  727MOL0     C98024   1.900   4.674   5.958 -0.8136  1.0414 -0.1871
  727MOL0     C98025   1.911   4.827   5.973 -0.6299  0.5218  0.2782
  727MOL0     C98026   1.984   4.871   6.102  0.1628 -0.0398 -0.3926
  727MOL0     N98027   1.885   4.937   6.191 -1.1371 -1.7005  0.5584
  727MOL0     C98028   1.807   4.871   6.282  0.4566  0.4746  0.4807
  727MOL0     C98029   1.713   4.960   6.313  0.3536  0.3361 -0.3429
  727MOL0     C98030   1.611   4.937   6.418  0.1980  0.9229  0.0287
  727MOL0     C98031   1.666   4.962   6.564  0.0496  0.6510 -0.0373
  727MOL0     C98032   1.703   5.115   6.574 -0.4721  0.6482 -0.6795
  727MOL0     C98033   1.729   5.158   6.722 -0.2373  0.0808  0.5481
  727MOL0     O98034   1.848   5.102   6.787  0.5520  0.7159  0.4776
  727MOL0     C98035   1.927   5.176   6.880 -0.1627  0.3175  0.2993
  727MOL0     C98036   1.879   5.254   6.983 -0.3686  0.4134 -0.3984
  727MOL0     C98037   1.963   5.317   7.082  0.4459 -0.2728  0.3381
  727MOL0     C98038   1.885   5.393   7.193  0.3185  0.1631  0.1478
  727MOL0     C98039   2.102   5.325   7.057  0.0882  0.8825 -0.4856
  727MOL0     C98040   2.185   5.420   7.135 -0.0107  0.1597 -0.5363
  727MOL0     O98041   2.318   5.383   7.169  0.4510  0.2136 -0.4963
  727MOL0     C98042   2.393   5.485   7.225 -0.3674 -0.1585  0.5235
  727MOL0     C98043   2.445   5.474   7.359 -0.6119  0.8667  0.4037
  727MOL0     C98044   2.530   5.572   7.413  0.1518  0.4794 -0.2050
  727MOL0     C98045   2.563   5.689   7.343  0.3249  1.0027 -0.8208
  727MOL0     O98046   2.636   5.783   7.403 -0.4129  0.0474  0.0229
  727MOL0     C98047   2.667   5.912   7.341 -0.4150 -0.2272 -0.6502
  727MOL0     C98048   2.761   6.003   7.432  0.1381  0.3928  1.5074
  727MOL0     C98049   2.842   6.104   7.340  0.1668 -0.0995 -0.0747
  727MOL0     C98050   2.919   6.205   7.418 -0.2783  0.1127 -0.1458
  727MOL0     C98051   3.037   6.146   7.491 -1.1841  0.4283 -0.6555
  727MOL0     C98052   3.100   6.262   7.564  0.2884  0.2176 -0.3298
  727MOL0     C98053   3.249   6.227   7.602 -0.9001  0.0690  0.2287
  727MOL0     C98054   3.343   6.349   7.618  0.2012  0.1122  0.0773
  727MOL0    Cl98055   3.294   6.451   7.750 -0.0926 -0.1940  0.3261
  727MOL0     C98056   2.520   5.700   7.210 -0.2405  0.4108 -0.2401
  727MOL0     C98057   2.446   5.601   7.145 -0.1736 -0.8804 -0.6248
  727MOL0     O98058   2.133   5.531   7.162  0.3685  0.4161 -0.3087
  727MOL0     C98059   2.152   5.236   6.959 -0.2877 -0.5302 -0.0501
  727MOL0     C98060   2.065   5.164   6.874 -0.1120  0.1725  0.6603
  727MOL0     N98061   1.735   5.084   6.242  0.1988  0.7481  1.1118
  727MOL0     N98062   1.838   5.067   6.167 -0.4782  0.0130  0.2901
  727MOL0     C98063   2.584   4.376   5.721 -0.1657  0.3322  0.6207
  727MOL0     C98064   2.699   4.314   5.743 -0.0720  0.6912  0.4129
  727MOL0     C98065   3.060   4.059   5.568  0.2944  0.0495  0.1429
  727MOL0     C98066   3.072   3.943   5.644 -0.2309 -1.0318 -0.6135
  727MOL0     C98067   3.197   3.889   5.669  0.5417  0.3618  0.0232
  727MOL0     C98068   3.313   3.939   5.605 -0.1338  0.1466 -0.4932
  727MOL0     O98069   3.438   3.886   5.615 -0.1149 -0.5250 -0.0817
  727MOL0     C98070   3.460   3.782   5.711  0.1632 -0.7609 -0.1508
  727MOL0     C98071   3.618   3.755   5.732  0.4430  0.7445 -0.8597
  727MOL0     C98072   3.631   3.602   5.780  0.0683 -0.3124 -0.5246
  727MOL0     C98073   3.773   3.548   5.790  0.0740 -0.0505 -1.4922
  727MOL0     C98074   3.819   3.520   5.656 -0.1896 -0.0206  0.0672
  727MOL0     C98075   3.837   3.501   5.541  0.7431  0.2544  0.5075
  727MOL0     C98076   3.299   4.048   5.512  0.4810 -0.8527  0.1061
  727MOL0     C98077   3.172   4.108   5.504 -0.7510  1.1379  0.5114
  727MOL0     H98078   2.661   4.048   5.522 -1.6982 -2.5374  2.1010
  727MOL0     H98079   2.441   4.150   5.501 -0.4714  1.2838  0.3730
  727MOL0     H98080   2.457   4.564   5.598  0.2608  0.1097  0.2254
  727MOL0     H98081   2.315   4.545   5.511  0.7188  1.4616 -0.5714
  727MOL0     H98082   2.288   4.563   5.800  0.2364 -0.0707  0.2223
  727MOL0     H98083   2.296   4.708   5.691 -1.1788 -0.1479  0.5357
  727MOL0     H98084   2.104   4.622   5.567  1.0266  1.6528 -0.0266
  727MOL0     H98085   2.097   4.474   5.670  4.1491 -0.3293  1.3797
  727MOL0     H98086   2.070   4.761   5.740  2.8744 -1.6326 -0.8431
  727MOL0     H98087   1.930   4.675   5.708 -0.4873  2.5114  2.1374
  727MOL0     H98088   2.028   4.513   5.908 -1.7014  0.0555  1.2466
  727MOL0     H98089   2.112   4.660   5.953 -0.6539  1.8270  0.3745
  727MOL0     H98090   1.821   4.652   5.886  1.1885 -2.7307 -1.4837
  727MOL0     H98091   1.887   4.626   6.056  1.8952  0.4359 -0.0516
  727MOL0     H98092   1.972   4.871   5.893  2.4334  1.1808  2.7316
  727MOL0     H98093   1.807   4.858   5.968 -0.6921  0.1416 -0.9610
  727MOL0     H98094   2.052   4.952   6.074 -0.1535  2.6782  5.1838
  727MOL0     H98095   2.033   4.788   6.155 -0.4772 -0.1374  0.0601
  727MOL0     H98096   1.821   4.767   6.310 -0.1329 -0.6932 -3.1053
  727MOL0     H98097   1.524   4.999   6.395 -0.4339 -0.0604 -0.2825
  727MOL0     H98098   1.590   4.830   6.417  1.1756  0.7076 -1.7190
  727MOL0     H98099   1.753   4.899   6.584 -0.9535 -0.6302  0.3670
  727MOL0     H98100   1.592   4.938   6.641 -0.2918  3.1631  0.5165
  727MOL0     H98101   1.622   5.175   6.531  2.0182  3.0225 -2.3078
  727MOL0     H98102   1.795   5.130   6.517  0.9523 -0.0818  1.3049
  727MOL0     H98103   1.650   5.120   6.788  1.3628 -2.3428  1.2268
  727MOL0     H98104   1.725   5.267   6.714 -1.3917 -0.0710 -1.5107
  727MOL0     H98105   1.771   5.261   6.988 -0.3872 -0.3014  0.7228
  727MOL0     H98106   1.786   5.347   7.205 -0.9523  2.7674  0.4164
  727MOL0     H98107   1.931   5.378   7.291 -1.3881 -1.0474  0.8299
  727MOL0     H98108   1.860   5.494   7.159  0.8368  0.4270  0.5490
  727MOL0     H98109   2.416   5.389   7.420  2.0409 -0.6764 -0.3306
  727MOL0     H98110   2.554   5.565   7.519  1.5696 -1.5983 -0.5796
  727MOL0     H98111   2.709   5.888   7.243 -1.0866  0.6129 -1.1536
  727MOL0     H98112   2.575   5.971   7.344 -0.0397  0.3779  2.1855
  727MOL0     H98113   2.689   6.050   7.499 -0.7787  1.4417 -0.1232
  727MOL0     H98114   2.845   5.948   7.475  1.6678  1.0299 -0.4731
  727MOL0     H98115   2.768   6.139   7.267  1.3458 -0.6785 -1.5971
  727MOL0     H98116   2.909   6.055   7.269  0.8979  1.2161 -0.3209
  727MOL0     H98117   2.956   6.288   7.356  1.4088  0.1271  0.8197
  727MOL0     H98118   2.852   6.255   7.488 -1.7019  0.2079 -1.5122
  727MOL0     H98119   3.108   6.087   7.433 -0.3126  0.8326 -0.0154
  727MOL0     H98120   2.999   6.077   7.568 -0.5411 -1.9384 -2.3543
  727MOL0     H98121   3.116   6.344   7.494  1.4613  0.9012  0.7089
  727MOL0     H98122   3.042   6.296   7.650 -2.5257 -3.0383 -0.6978
  727MOL0     H98123   3.279   6.154   7.526  0.0025 -1.1442  1.6878
  727MOL0     H98124   3.248   6.167   7.694 -0.5157 -1.0517 -0.4758
  727MOL0     H98125   3.349   6.408   7.525 -1.8542  0.5172  0.1496
  727MOL0     H98126   3.445   6.315   7.637 -0.0135  0.3815  1.8261
  727MOL0     H98127   2.542   5.781   7.142 -2.1035 -0.2333 -1.7269
  727MOL0     H98128   2.414   5.614   7.043  0.5437  1.3655 -0.6199
  727MOL0     H98129   2.260   5.233   6.949 -0.0481  1.0258  1.5225
  727MOL0     H98130   2.117   5.113   6.794  1.8837 -2.2838  3.3263
  727MOL0     H98131   2.552   4.465   5.775 -1.0133  1.1274 -1.0964
  727MOL0     H98132   2.780   4.355   5.803  0.7570  2.5029 -1.8130
  727MOL0     H98133   2.987   3.908   5.701 -0.2335  0.6905  0.4936
  727MOL0     H98134   3.202   3.806   5.739  0.6859 -0.0011 -0.4098
  727MOL0     H98135   3.412   3.813   5.804  0.7581  1.3476 -0.4784
  727MOL0     H98136   3.418   3.688   5.674  2.1610 -0.8103 -2.5714
  727MOL0     H98137   3.674   3.818   5.802  1.6095 -0.1415 -0.9661
  727MOL0     H98138   3.665   3.770   5.635  0.3005  1.8223 -0.7754
  727MOL0     H98139   3.582   3.542   5.703  1.1580  1.1307 -2.4068
  727MOL0     H98140   3.571   3.591   5.871 -0.2455  0.2367 -0.6659
  727MOL0     H98141   3.765   3.458   5.851  2.0989 -0.0689 -1.1900
  727MOL0     H98142   3.834   3.616   5.849 -1.6992  0.4674 -0.1724
  727MOL0     H98143   3.864   3.485   5.438  1.6322  3.2933  0.1762
  727MOL0     H98144   3.372   4.100   5.451  0.8447  1.1768  2.1412
  727MOL0     H98145   3.167   4.191   5.435 -1.2777 -0.2383 -1.1800
  728MOL0     O98146   7.201   1.521   1.912  0.1110 -0.6935 -0.6510
  728MOL0     C98147   7.212   1.399   1.892 -0.1616 -0.9132 -0.6906
  728MOL0     O98148   7.109   1.312   1.860 -0.0738  0.3898 -0.2839
  728MOL0     C98149   6.993   1.367   1.818  0.0371 -0.5732  0.4294
  728MOL0     C98150   6.893   1.413   1.904 -0.9323  0.4055  0.1065
  728MOL0     C98151   6.783   1.476   1.866  0.6830 -0.2492 -0.3106
  728MOL0     C98152   6.770   1.522   1.738 -0.1475  0.8159  0.2732
  728MOL0     O98153   6.665   1.599   1.687  0.2975  0.3034  0.3945
  728MOL0     C98154   6.549   1.631   1.765  0.1438  0.4709 -1.1068
  728MOL0     C98155   6.448   1.699   1.676 -0.1412 -0.1452  0.1778
  728MOL0     C98156   6.497   1.843   1.647 -1.0488  0.2495  0.0205
  728MOL0     C98157   6.498   1.932   1.771 -0.9683  0.9016 -0.0521
  728MOL0     C98158   6.534   2.081   1.735  0.0067  0.4772  0.5059
  728MOL0     C98159   6.431   2.162   1.661 -0.1185  0.9391  0.0900
  728MOL0     C98160   6.286   2.117   1.695 -0.4027 -0.3966 -0.7811
  728MOL0     C98161   6.177   2.182   1.615  0.0886 -0.7376 -0.4672
  728MOL0     N98162   6.157   2.323   1.653  0.2798 -0.0636  0.1799
  728MOL0     C98163   6.093   2.371   1.770  0.2425  1.0479  0.3497
  728MOL0     C98164   6.099   2.509   1.763  0.7905 -0.1839 -0.0966
  728MOL0     C98165   6.027   2.606   1.861 -1.0369  1.0743 -0.9312
  728MOL0     C98166   5.880   2.610   1.837 -0.5055 -0.6960 -0.0656
  728MOL0     C98167   5.805   2.703   1.940 -0.5406  1.0071  0.5950
  728MOL0     C98168   5.858   2.851   1.936 -0.2772 -0.2890 -0.3072
  728MOL0     O98169   5.858   2.906   1.796  0.0105  0.4103  0.0043
  728MOL0     C98170   5.905   3.029   1.763  0.5871 -0.7237  0.0835
  728MOL0     C98171   5.907   3.058   1.626 -0.1049  0.3618  0.3327
  728MOL0     C98172   5.956   3.177   1.578  0.3306 -0.1865 -0.5296
  728MOL0     C98173   5.973   3.184   1.428 -0.2883  0.1224 -0.1448
  728MOL0     C98174   5.999   3.284   1.661  0.1611 -0.5085  0.2383
  728MOL0     C98175   6.053   3.413   1.615  0.1387  0.6731 -0.4124
  728MOL0     O98176   6.041   3.508   1.704 -0.2297  0.4390 -0.4487
  728MOL0     C98177   6.134   3.617   1.696 -0.0656 -0.4926  1.4689
  728MOL0     C98178   6.098   3.714   1.601  0.1943  0.7323 -0.3814
  728MOL0     C98179   6.176   3.824   1.599 -0.2865  0.1643  1.1034
  728MOL0     C98180   6.283   3.844   1.682 -0.2255  0.1143  0.9559
  728MOL0     O98181   6.353   3.961   1.648  0.1070 -0.6290 -0.1079
  728MOL0     C98182   6.499   3.965   1.654  0.2735 -0.3172  0.7313
  728MOL0     C98183   6.520   4.106   1.716 -0.8586  0.6310  0.1056
  728MOL0     C98184   6.655   4.164   1.700  0.3954  0.6575  0.0487
  728MOL0     C98185   6.703   4.203   1.557 -0.3248 -0.2594  0.6517
  728MOL0     C98186   6.856   4.250   1.552  0.2130  0.6411 -0.8198
  728MOL0     C98187   6.866   4.389   1.619  0.5930 -0.1861  0.1774
  728MOL0     C98188   6.998   4.454   1.604  0.1085  0.4560  0.1861
  728MOL0     C98189   7.120   4.366   1.610  0.1568  0.2167 -0.6605
  728MOL0    Cl98190   7.120   4.280   1.762 -0.4606 -0.1750  0.0460
  728MOL0     C98191   6.325   3.739   1.763 -0.4311 -0.4003  0.1562
  728MOL0     C98192   6.246   3.626   1.775 -0.6572 -0.6308 -1.0259
  728MOL0     O98193   6.103   3.420   1.505  0.2592  0.6847 -0.2172
  728MOL0     C98194   5.984   3.256   1.799 -0.1923  0.1331  0.5064
  728MOL0     C98195   5.939   3.132   1.854  0.5077 -0.7040 -0.2728
  728MOL0     N98196   6.160   2.532   1.642  0.1345 -0.5454 -0.3261
  728MOL0     N98197   6.196   2.427   1.584  0.1203 -0.3014 -0.1502
  728MOL0     C98198   6.868   1.480   1.643 -0.0868  0.2340  0.0824
  728MOL0     C98199   6.974   1.402   1.682 -0.0631 -1.2819  1.1943
  728MOL0     C98200   7.346   1.349   1.891 -0.7482 -0.5500 -0.6443
  728MOL0     C98201   7.370   1.212   1.910 -0.2572  0.8509 -0.5453
  728MOL0     C98202   7.496   1.161   1.914 -1.0327 -0.0064  0.2883
  728MOL0     C98203   7.609   1.248   1.910 -0.3324  0.2710  0.3665
  728MOL0     O98204   7.736   1.184   1.925  0.7707 -0.1726  0.2317
  728MOL0     C98205   7.785   1.201   2.061 -0.2076  0.3090 -0.1124
  728MOL0     C98206   7.750   1.074   2.141  0.2369 -0.0089  0.3133
  728MOL0     C98207   7.829   0.949   2.090 -0.2225  0.4407  0.2464
  728MOL0     C98208   7.743   0.845   2.019 -0.2919 -1.3935  0.9069
  728MOL0     C98209   7.820   0.724   1.985  0.3874 -0.2777 -0.3259
  728MOL0     C98210   7.877   0.622   1.953 -0.5521  0.5834  0.3504
  728MOL0     C98211   7.592   1.384   1.880 -0.2805  0.1098 -0.6653
  728MOL0     C98212   7.461   1.427   1.877  0.7533  0.0555  0.1271
  728MOL0     H98213   6.885   1.384   2.008 -3.4489  0.7738  0.0800
  728MOL0     H98214   6.714   1.492   1.949  2.3821 -2.6606  1.7034
  728MOL0     H98215   6.512   1.542   1.816 -2.0896  2.2251  0.5329
  728MOL0     H98216   6.574   1.685   1.857 -0.3933 -1.5315  0.2745
  728MOL0     H98217   6.415   1.642   1.589  1.8058 -2.5648  0.9289
  728MOL0     H98218   6.355   1.711   1.733 -0.4566 -2.8416  0.3367
  728MOL0     H98219   6.595   1.839   1.600  0.0702 -2.9959  2.2752
  728MOL0     H98220   6.418   1.877   1.580 -1.3273  0.3826  0.4104
  728MOL0     H98221   6.402   1.917   1.821 -1.8429 -1.3823 -2.1412
  728MOL0     H98222   6.567   1.883   1.840 -3.4737 -1.2349  1.1209
  728MOL0     H98223   6.557   2.126   1.832 -1.1384 -2.2068  2.1414
  728MOL0     H98224   6.630   2.077   1.683  0.0534 -0.8995  0.6511
  728MOL0     H98225   6.438   2.268   1.689 -0.8706  0.9284  0.3346
  728MOL0     H98226   6.464   2.164   1.556 -1.1131  0.0692 -0.2481
  728MOL0     H98227   6.269   2.012   1.673 -1.2222 -0.0586 -1.8659
  728MOL0     H98228   6.265   2.135   1.801  0.5648 -2.0950 -0.2775
  728MOL0     H98229   6.079   2.135   1.624 -0.8439  1.2400  0.4708
  728MOL0     H98230   6.198   2.183   1.508 -1.2242 -2.7321 -0.8026
  728MOL0     H98231   6.039   2.311   1.842 -0.1206 -1.5210 -1.8952
  728MOL0     H98232   6.052   2.577   1.964 -0.0007 -2.4151 -2.0557
  728MOL0     H98233   6.076   2.702   1.842  1.5760 -0.2321 -1.2815
  728MOL0     H98234   5.834   2.511   1.841 -0.1848 -0.8120  2.4833
  728MOL0     H98235   5.863   2.658   1.740  0.5192 -0.1974 -0.0163
  728MOL0     H98236   5.812   2.660   2.040  1.8044  2.8438  1.3052
  728MOL0     H98237   5.700   2.698   1.910 -0.1848 -2.6389 -0.4854
  728MOL0     H98238   5.966   2.856   1.957 -0.6378  0.5137  1.5065
  728MOL0     H98239   5.800   2.910   2.008  0.6113 -2.6891  2.5775
  728MOL0     H98240   5.890   2.979   1.555 -1.3140  0.2589  0.6995
  728MOL0     H98241   6.078   3.164   1.406 -0.3307  0.8619 -1.0623
  728MOL0     H98242   5.908   3.114   1.376  1.2874 -1.2919 -0.3056
  728MOL0     H98243   5.939   3.279   1.387 -2.3981 -0.4044  0.2740
  728MOL0     H98244   6.004   3.716   1.547  0.2151 -0.8169 -0.5153
  728MOL0     H98245   6.142   3.898   1.527 -2.3054 -0.0772  1.7403
  728MOL0     H98246   6.536   3.878   1.710  1.9974 -1.2123 -1.6485
  728MOL0     H98247   6.545   3.968   1.555  1.5805 -1.5975  1.2670
  728MOL0     H98248   6.453   4.179   1.670  0.4541  2.6568  1.2481
  728MOL0     H98249   6.509   4.096   1.824  0.9560 -1.7127  0.1449
  728MOL0     H98250   6.735   4.104   1.745 -0.0856  1.1247  1.5712
  728MOL0     H98251   6.647   4.256   1.759  1.4759  0.3815  0.6592
  728MOL0     H98252   6.703   4.119   1.487 -1.5960  1.6777 -1.8637
  728MOL0     H98253   6.648   4.288   1.516  0.7456  0.8146  1.3899
  728MOL0     H98254   6.897   4.255   1.451  2.3326  1.9129  0.0340
  728MOL0     H98255   6.924   4.179   1.600 -0.5796  0.3906 -0.0451
  728MOL0     H98256   6.792   4.458   1.578  0.1722 -0.2624  0.7890
  728MOL0     H98257   6.832   4.375   1.722 -1.6220  0.5264 -0.3906
  728MOL0     H98258   7.005   4.530   1.682 -3.8412  1.9735 -0.7189
  728MOL0     H98259   6.993   4.513   1.512 -1.3778 -1.7295 -1.2462
  728MOL0     H98260   7.202   4.436   1.591 -1.1810  2.8440  2.4710
  728MOL0     H98261   7.123   4.292   1.529 -1.0043  1.3841 -1.8212
  728MOL0     H98262   6.406   3.748   1.834 -1.4927 -1.7731  1.5932
  728MOL0     H98263   6.273   3.552   1.849 -0.7355  0.2826 -0.0744
  728MOL0     H98264   6.027   3.329   1.866  2.4295  1.3887 -2.2847
  728MOL0     H98265   5.943   3.105   1.959  2.8713  1.0150  0.1564
  728MOL0     H98266   6.853   1.505   1.538  0.9069  1.6806  0.2554
  728MOL0     H98267   7.054   1.382   1.612 -1.2765 -5.0839  0.6198
  728MOL0     H98268   7.281   1.153   1.930  0.9727 -0.7997  0.3082
  728MOL0     H98269   7.518   1.058   1.942 -2.0985 -0.0349  1.1050
  728MOL0     H98270   7.893   1.221   2.058 -0.1242  0.1696  1.3427
  728MOL0     H98271   7.732   1.285   2.107 -2.3170 -1.9168  1.8075
  728MOL0     H98272   7.642   1.063   2.134  0.1172  0.7203  0.9201
  728MOL0     H98273   7.780   1.100   2.243 -2.2900 -0.9410  1.3559
  728MOL0     H98274   7.871   0.896   2.176  1.5093 -0.8291 -1.3140
  728MOL0     H98275   7.905   0.978   2.017 -1.7763 -1.5737 -2.3514
  728MOL0     H98276   7.707   0.890   1.926  1.3112  0.9546  1.3242
  728MOL0     H98277   7.663   0.807   2.084  0.6572 -3.6438  0.8633
  728MOL0     H98278   7.918   0.536   1.905  0.3520  1.3185 -0.2340
  728MOL0     H98279   7.674   1.453   1.862 -0.7765  1.5324  2.0145
  728MOL0     H98280   7.454   1.535   1.874  0.9839  0.0933  0.8893
  729MOL0     O98281   7.039   1.978   8.029 -0.9791 -0.0076  0.2410
  729MOL0     C98282   7.100   1.897   8.099 -1.0735 -0.2240  0.9160
  729MOL0     O98283   7.037   1.796   8.174 -0.1195  0.8108  1.1706
  729MOL0     C98284   6.906   1.821   8.198 -0.4754 -0.3486 -0.0536
  729MOL0     C98285   6.860   1.937   8.262 -0.1099  0.1820  0.7800
  729MOL0     C98286   6.722   1.958   8.276  0.0330  0.0351  0.2507
  729MOL0     C98287   6.630   1.852   8.241  0.3364  0.6619 -1.0375
  729MOL0     O98288   6.491   1.859   8.259  0.4333 -0.2780 -0.0898
  729MOL0     C98289   6.431   1.961   8.339 -0.3449 -0.2442  0.3744
  729MOL0     C98290   6.398   2.087   8.257 -0.2405 -0.0901  0.3398
  729MOL0     C98291   6.335   2.193   8.347 -0.0292 -0.2802 -1.0930
  729MOL0     C98292   6.280   2.320   8.274  0.0176 -0.2867 -0.2083
  729MOL0     C98293   6.205   2.418   8.366 -0.4221  0.0510  0.0326
  729MOL0     C98294   6.302   2.511   8.435 -0.1562  0.5959  0.0956
  729MOL0     C98295   6.250   2.617   8.530  0.3407 -0.6540  1.0281
  729MOL0     C98296   6.185   2.572   8.668  0.1835 -1.1033 -0.1968
  729MOL0     N98297   6.164   2.665   8.778  0.2961  0.2375 -1.0251
  729MOL0     C98298   6.155   2.633   8.911 -0.2978 -0.0987  0.2584
  729MOL0     C98299   6.179   2.750   8.974  0.1290  0.5078 -0.0382
  729MOL0     C98300   6.185   2.769   9.126 -0.5458 -0.7501  0.5525
  729MOL0     C98301   6.046   2.776   9.203 -0.2178 -0.2623 -0.5235
  729MOL0     C98302   6.081   2.807   9.343  1.0916 -0.2233 -0.4186
  729MOL0     C98303   5.950   2.812   9.420 -0.5711 -0.7403  0.1654
  729MOL0     O98304   5.896   2.680   9.444 -0.0084  0.1124 -0.3930
  729MOL0     C98305   5.774   2.682   9.501 -0.1926  0.1882  0.7769
  729MOL0     C98306   5.735   2.756   9.617 -0.2549 -0.0039  0.1453
  729MOL0     C98307   5.603   2.737   9.665  0.8686  0.0238  0.7168
  729MOL0     C98308   5.586   2.795   9.801 -0.6788 -0.3791  0.0219
  729MOL0     C98309   5.504   2.678   9.575  0.2806 -0.2104  0.4986
  729MOL0     C98310   5.360   2.682   9.616 -0.0651 -0.3416 -0.5967
  729MOL0     O98311   5.334   2.687   9.749  0.7178 -0.4000  0.1031
  729MOL0     C98312   5.206   2.719   9.794  0.2284 -0.2344 -0.1674
  729MOL0     C98313   5.171   2.853   9.804  0.2176 -0.5355 -0.6299
  729MOL0     C98314   5.047   2.885   9.847 -0.0357 -0.4274 -0.3846
  729MOL0     C98315   4.958   2.795   9.894  0.1603  0.3119 -1.0953
  729MOL0     O98316   4.844   2.848   9.939 -0.1145 -0.4916 -0.2944
  729MOL0     C98317   4.762   2.764  10.032  0.0887 -0.0971 -0.3036
  729MOL0     C98318   4.659   2.853  10.101 -0.7387  0.1928  0.4521
  729MOL0     C98319   4.724   2.939  10.207  0.0299 -0.0815  0.0137
  729MOL0     C98320   4.639   3.061  10.232 -0.5038  0.3350 -0.2463
  729MOL0     C98321   4.695   3.175  10.323 -1.1016  0.3174  0.4302
  729MOL0     C98322   4.610   3.290  10.313 -0.0361  0.0775  0.0916
  729MOL0     C98323   4.653   3.403  10.409  0.6280 -0.0238 -0.5944
  729MOL0     C98324   4.785   3.466  10.384  0.4421 -0.2303 -0.7304
  729MOL0    Cl98325   4.780   3.541  10.215 -0.6570 -0.1033 -0.2605
  729MOL0     C98326   4.988   2.654   9.877 -0.6753  0.0382  0.7893
  729MOL0     C98327   5.112   2.624   9.825 -0.0167  0.0748 -0.3105
  729MOL0     O98328   5.281   2.654   9.524 -0.1505  0.4373  0.8748
  729MOL0     C98329   5.549   2.608   9.465 -1.2235  0.4529  0.9295
  729MOL0     C98330   5.687   2.602   9.436  0.4587 -0.2352  0.1106
  729MOL0     N98331   6.192   2.847   8.884  0.3434 -1.1664  0.1463
  729MOL0     N98332   6.176   2.801   8.764 -0.0329  0.0887 -0.0148
  729MOL0     C98333   6.681   1.737   8.189 -0.7661  0.4500 -0.0580
  729MOL0     C98334   6.816   1.725   8.159  0.5685 -0.2070  0.0279
  729MOL0     C98335   7.244   1.900   8.102  0.1598  0.0401  1.2328
  729MOL0     C98336   7.310   1.794   8.171 -0.2268 -0.1160 -0.0113
  729MOL0     C98337   7.446   1.785   8.168  0.0349  0.3790  0.1433
  729MOL0     C98338   7.532   1.886   8.110  0.2305  1.5498  0.1269
  729MOL0     O98339   7.667   1.871   8.100 -0.2211  0.6103  0.7028
  729MOL0     C98340   7.724   1.737   8.094 -0.1452 -0.3979 -0.9082
  729MOL0     C98341   7.871   1.740   8.041  0.6745  0.7285 -0.1331
  729MOL0     C98342   7.925   1.597   8.028  0.0133  0.3269  0.0497
  729MOL0     C98343   8.069   1.609   7.969 -0.9476 -0.1992 -0.7801
  729MOL0     C98344   8.145   1.659   8.076 -0.6538 -0.4987  0.0155
  729MOL0     C98345   8.203   1.693   8.174 -0.4337  0.0875  0.3685
  729MOL0     C98346   7.463   1.986   8.041 -0.2289 -0.1718  1.0637
  729MOL0     C98347   7.319   2.003   8.035 -1.0401 -0.0963 -0.5301
  729MOL0     H98348   6.923   2.020   8.292 -2.4829  1.9805  1.0996
  729MOL0     H98349   6.698   2.034   8.350 -1.0355 -0.9142  0.9262
  729MOL0     H98350   6.339   1.912   8.372  1.4321 -1.9424  3.2761
  729MOL0     H98351   6.493   1.985   8.426 -1.0644  1.5703  0.4260
  729MOL0     H98352   6.491   2.126   8.216 -2.2662  2.5187 -2.2186
  729MOL0     H98353   6.340   2.068   8.166  1.5585  1.4061 -1.1891
  729MOL0     H98354   6.247   2.150   8.395 -0.9094  2.1491 -0.3366
  729MOL0     H98355   6.410   2.228   8.419  0.2922 -1.9818 -0.5675
  729MOL0     H98356   6.365   2.358   8.217  2.7944 -0.6185  3.3414
  729MOL0     H98357   6.196   2.293   8.210  0.5574 -2.2631 -0.1451
  729MOL0     H98358   6.128   2.477   8.316 -1.3359 -0.6240  0.6064
  729MOL0     H98359   6.148   2.348   8.427 -0.6544 -1.9941 -2.3718
  729MOL0     H98360   6.383   2.451   8.478  0.0989 -0.5744 -1.8924
  729MOL0     H98361   6.346   2.574   8.356 -2.2054  0.4590 -1.2109
  729MOL0     H98362   6.325   2.687   8.567 -1.5386  2.2902 -0.3382
  729MOL0     H98363   6.172   2.663   8.468  1.6761  0.0948 -0.1584
  729MOL0     H98364   6.267   2.504   8.697  2.0962  0.2732 -2.0672
  729MOL0     H98365   6.105   2.504   8.640  2.1808 -2.8027 -2.2406
  729MOL0     H98366   6.134   2.539   8.961  0.8016  0.5756  2.0638
  729MOL0     H98367   6.245   2.688   9.168  0.9860  0.8411  1.6215
  729MOL0     H98368   6.240   2.862   9.145  0.1001 -0.4744 -2.3021
  729MOL0     H98369   5.996   2.679   9.204  1.5372 -1.2551  2.3227
  729MOL0     H98370   5.994   2.849   9.141  1.2119  0.9290 -0.3858
  729MOL0     H98371   6.143   2.897   9.349 -0.3784  1.0292 -2.6855
  729MOL0     H98372   6.135   2.731   9.400  1.8554 -1.2201 -2.3961
  729MOL0     H98373   5.875   2.873   9.369 -0.5923 -0.5297  0.4427
  729MOL0     H98374   5.974   2.865   9.512  0.4423  0.6288 -0.8397
  729MOL0     H98375   5.816   2.808   9.667 -0.7800 -0.8070  1.9296
  729MOL0     H98376   5.522   2.731   9.862 -3.1923  0.3423 -1.7148
  729MOL0     H98377   5.679   2.810   9.857 -0.6633  0.6460 -0.2549
  729MOL0     H98378   5.534   2.891   9.801  3.8220  2.3932  2.3389
  729MOL0     H98379   5.239   2.935   9.786 -1.2177  0.7369 -0.5279
  729MOL0     H98380   5.023   2.990   9.857 -4.9275 -1.3426  0.0980
  729MOL0     H98381   4.721   2.679   9.978 -0.3928 -0.2980  0.3577
  729MOL0     H98382   4.838   2.728  10.102  1.0899  2.5701  0.0986
  729MOL0     H98383   4.609   2.908  10.020  2.9575  1.7216 -1.0080
  729MOL0     H98384   4.583   2.794  10.152 -1.7638  1.8443  0.9000
  729MOL0     H98385   4.821   2.971  10.169 -0.0720 -0.0638 -0.2365
  729MOL0     H98386   4.737   2.886  10.302  0.0151  1.4642  0.9141
  729MOL0     H98387   4.618   3.108  10.135  4.0969  0.2471 -1.5612
  729MOL0     H98388   4.553   3.015  10.279 -0.4037 -0.2086 -0.5885
  729MOL0     H98389   4.795   3.204  10.292 -0.7667  0.3970  1.5811
  729MOL0     H98390   4.703   3.143  10.427 -1.8651 -0.3235  0.3069
  729MOL0     H98391   4.600   3.342  10.217  0.8629  4.1044  1.9619
  729MOL0     H98392   4.507   3.263  10.336 -1.5822  2.0745 -3.6062
  729MOL0     H98393   4.666   3.349  10.503 -1.0983  0.9533  0.2662
  729MOL0     H98394   4.571   3.469  10.440  0.3486 -1.1586  1.2733
  729MOL0     H98395   4.855   3.383  10.394  2.0994  0.9028 -2.3516
  729MOL0     H98396   4.812   3.543  10.458  3.5621 -0.0383 -1.9167
  729MOL0     H98397   4.920   2.571   9.892  0.2860 -1.0658 -0.7580
  729MOL0     H98398   5.118   2.516   9.812  0.6091  0.3918 -3.4766
  729MOL0     H98399   5.483   2.547   9.404 -0.0420 -2.6207  2.5275
  729MOL0     H98400   5.710   2.550   9.344 -3.8179 -0.3170 -1.1272
  729MOL0     H98401   6.614   1.655   8.166 -2.1903  1.4521  0.3553
  729MOL0     H98402   6.840   1.629   8.115  0.0017 -0.6723  0.7150
  729MOL0     H98403   7.254   1.714   8.218 -0.6892  0.5540  0.5993
  729MOL0     H98404   7.501   1.708   8.220  2.3068 -0.0656 -2.6517
  729MOL0     H98405   7.723   1.686   8.191  2.1457  0.1394 -0.5407
  729MOL0     H98406   7.662   1.678   8.026 -3.4044  0.4689  1.0862
  729MOL0     H98407   7.930   1.801   8.110  2.3660  0.6889 -1.4767
  729MOL0     H98408   7.872   1.784   7.941  1.7183 -1.0188 -0.9539
  729MOL0     H98409   7.862   1.535   7.963 -0.9762 -1.2530  2.3691
  729MOL0     H98410   7.921   1.551   8.127  3.1816  2.4729  1.3364
  729MOL0     H98411   8.073   1.679   7.885 -0.4440 -0.4775 -0.9899
  729MOL0     H98412   8.112   1.515   7.934  0.4600  0.6024 -1.2671
  729MOL0     H98413   8.253   1.736   8.259 -1.4160  0.3750  0.8122
  729MOL0     H98414   7.523   2.056   7.983  1.0152 -1.9938  0.0678
  729MOL0     H98415   7.296   2.085   7.968  1.1734 -0.9608 -2.5305
  730MOL0     O98416   8.157   4.613   2.461  0.0458 -0.2156 -0.0519
  730MOL0     C98417   8.078   4.522   2.447  0.2073  0.2123  0.0733
  730MOL0     O98418   8.055   4.417   2.533  0.1294 -0.6027 -0.3763
  730MOL0     C98419   8.150   4.375   2.618  1.3142  0.0662  0.8584
  730MOL0     C98420   8.136   4.373   2.758  0.1178 -0.0699 -0.4297
  730MOL0     C98421   8.232   4.325   2.840 -0.3619  0.0117 -0.0331
  730MOL0     C98422   8.356   4.275   2.796  0.4084  0.3884  1.4366
  730MOL0     O98423   8.449   4.215   2.869  0.2855  0.6427 -1.3776
  730MOL0     C98424   8.427   4.176   3.006  0.2676  0.0532  0.8017
  730MOL0     C98425   8.500   4.041   3.033  0.0125 -0.4057 -0.3066
  730MOL0     C98426   8.573   4.044   3.176  0.3052 -0.5742  0.3996
  730MOL0     C98427   8.468   4.071   3.289  0.1686 -0.1949  0.2569
  730MOL0     C98428   8.544   4.097   3.422  0.2946  0.4272  0.2501
  730MOL0     C98429   8.455   4.098   3.540 -0.1657 -1.6857 -0.5785
  730MOL0     C98430   8.511   4.189   3.648  0.4428 -0.1237  0.1370
  730MOL0     C98431   8.408   4.240   3.751 -0.0106  0.1820 -0.1384
  730MOL0     N98432   8.472   4.310   3.869  0.0382  0.2028  0.3877
  730MOL0     C98433   8.512   4.253   3.979 -0.7724  0.9144 -0.4070
  730MOL0     C98434   8.563   4.351   4.061  0.5920 -0.0788 -0.4710
  730MOL0     C98435   8.610   4.335   4.198 -0.1109  0.0036  0.2707
  730MOL0     C98436   8.711   4.444   4.241 -0.5796 -0.1390  0.0659
  730MOL0     C98437   8.792   4.413   4.376 -1.1190 -0.1579  0.7150
  730MOL0     C98438   8.900   4.306   4.360  0.2065 -0.6087 -0.7469
  730MOL0     O98439   8.963   4.280   4.484  0.7687 -0.0079 -0.6721
  730MOL0     C98440   9.042   4.368   4.544  0.6585 -0.1516  0.2867
  730MOL0     C98441   9.111   4.473   4.481  0.2759  0.6990  0.3405
  730MOL0     C98442   9.188   4.564   4.552 -0.0310  1.1101  0.6372
  730MOL0     C98443   9.273   4.660   4.466  0.7753 -0.4523 -0.0562
  730MOL0     C98444   9.179   4.569   4.695 -0.2971 -0.2975 -1.1347
  730MOL0     C98445   9.248   4.665   4.785 -0.4672 -0.4156  1.0104
  730MOL0     O98446   9.239   4.664   4.921  0.1161  0.3210  0.1723
  730MOL0     C98447   9.267   4.778   4.993  0.7304  0.4127  0.3909
  730MOL0     C98448   9.252   4.909   4.950  0.1193 -0.2214  0.2657
  730MOL0     C98449   9.275   5.020   5.036 -0.2564  1.1827  0.2446
  730MOL0     C98450   9.318   5.001   5.170 -0.3773 -0.0497 -0.7171
  730MOL0     O98451   9.327   5.117   5.250 -0.3011  0.6876  0.2285
  730MOL0     C98452   9.362   5.100   5.383 -0.1418  0.0129 -0.0201
  730MOL0     C98453   9.518   5.103   5.391 -0.2428 -0.6825 -0.8078
  730MOL0     C98454   9.584   5.225   5.317 -0.0631  0.0203 -1.1444
  730MOL0     C98455   9.730   5.259   5.366  0.3304  0.3465 -0.2234
  730MOL0     C98456   9.747   5.274   5.517  0.2590 -0.0157 -0.4647
  730MOL0     C98457   9.679   5.399   5.572  1.2650  0.1763  0.7042
  730MOL0     C98458   9.707   5.417   5.725 -0.0229 -0.7837 -0.5217
  730MOL0     C98459   9.700   5.565   5.778 -0.1753 -0.2880 -0.0316
  730MOL0    Cl98460   9.749   5.549   5.942  0.1125  0.2887 -0.3911
  730MOL0     C98461   9.330   4.864   5.215 -0.1257 -0.0724 -0.5495
  730MOL0     C98462   9.302   4.757   5.133  0.7845 -0.0073  0.3215
  730MOL0     O98463   9.313   4.746   4.725 -0.0802 -0.0519 -0.0804
  730MOL0     C98464   9.111   4.467   4.753  0.3042  0.2231  1.0540
  730MOL0     C98465   9.046   4.360   4.684  0.8355 -0.9781  1.0727
  730MOL0     N98466   8.545   4.471   3.993 -0.6885  0.0880  0.1925
  730MOL0     N98467   8.498   4.450   3.877  0.3358  0.2008  0.3835
  730MOL0     C98468   8.374   4.273   2.650 -0.7743  0.1967 -0.4229
  730MOL0     C98469   8.269   4.318   2.564  0.2491 -0.3269 -0.6445
  730MOL0     C98470   8.008   4.523   2.317  0.4841 -0.1822  0.1280
  730MOL0     C98471   7.966   4.643   2.261  0.4515 -0.3346  0.0775
  730MOL0     C98472   7.904   4.647   2.141 -0.2700  0.2931  0.6229
  730MOL0     C98473   7.872   4.530   2.066  0.2898 -0.8136 -1.2019
  730MOL0     O98474   7.804   4.555   1.949 -0.2006 -0.1030  0.1210
  730MOL0     C98475   7.676   4.494   1.938 -0.6982  0.4664 -0.2427
  730MOL0     C98476   7.555   4.571   1.992  0.5580 -0.1382  0.7383
  730MOL0     C98477   7.421   4.531   1.923  0.7262  0.1158  0.2081
  730MOL0     C98478   7.305   4.603   1.990 -1.1471  0.6298  0.2392
  730MOL0     C98479   7.279   4.740   1.941  0.0380 -0.3806  0.3865
  730MOL0     C98480   7.258   4.837   1.878 -0.6796 -0.5011  0.8641
  730MOL0     C98481   7.923   4.406   2.117  0.5463 -0.6646 -0.1912
  730MOL0     C98482   7.990   4.407   2.242  0.0725  0.2943 -0.1319
  730MOL0     H98483   8.043   4.403   2.805  0.1084 -1.6784  0.6562
  730MOL0     H98484   8.196   4.313   2.942 -0.4056 -3.0050 -0.3047
  730MOL0     H98485   8.475   4.248   3.072  2.6609  0.7529 -1.5279
  730MOL0     H98486   8.321   4.174   3.034 -0.3121  4.9426 -0.2415
  730MOL0     H98487   8.416   3.971   3.029 -0.0707 -0.5495  2.1038
  730MOL0     H98488   8.572   4.023   2.954 -0.8221  1.2227 -1.4887
  730MOL0     H98489   8.629   3.951   3.189  2.0380  0.0904 -1.6713
  730MOL0     H98490   8.649   4.122   3.167  0.7767 -1.2376 -2.1123
  730MOL0     H98491   8.404   4.157   3.264 -2.0075 -1.5213  0.9284
  730MOL0     H98492   8.401   3.984   3.284 -1.5096  0.7463  3.4071
  730MOL0     H98493   8.601   4.004   3.428 -2.6974 -2.3589 -5.6852
  730MOL0     H98494   8.607   4.183   3.398 -0.4790  0.2805 -2.6003
  730MOL0     H98495   8.354   4.134   3.516 -1.0442  0.9705  5.2788
  730MOL0     H98496   8.443   3.999   3.584  4.2005 -1.8339  0.7780
  730MOL0     H98497   8.586   4.132   3.703  1.7178  0.5754 -0.8313
  730MOL0     H98498   8.559   4.279   3.609 -2.3472  1.4030 -0.0138
  730MOL0     H98499   8.338   4.167   3.794 -0.9398  1.8016  1.2068
  730MOL0     H98500   8.347   4.309   3.693  1.5099  1.3370 -0.4186
  730MOL0     H98501   8.515   4.147   4.003 -1.9391  0.9554 -0.0542
  730MOL0     H98502   8.526   4.340   4.268 -0.5036 -1.7220 -0.0449
  730MOL0     H98503   8.643   4.232   4.209 -2.6745 -0.9187 -0.0454
  730MOL0     H98504   8.657   4.538   4.256  2.3719  2.5174 -4.0051
  730MOL0     H98505   8.775   4.480   4.160  1.5002  1.4478  2.2783
  730MOL0     H98506   8.720   4.374   4.448  0.6171 -0.9614  2.0903
  730MOL0     H98507   8.837   4.509   4.403 -0.1226 -0.9266  1.8953
  730MOL0     H98508   8.972   4.331   4.282  2.8833 -3.9082  0.4161
  730MOL0     H98509   8.845   4.218   4.325 -0.7920 -0.1669 -0.3406
  730MOL0     H98510   9.100   4.489   4.374 -0.3514  4.8834  0.8586
  730MOL0     H98511   9.270   4.631   4.360 -3.7226  0.5166 -0.3640
  730MOL0     H98512   9.230   4.760   4.461  4.1807  1.2198  1.0452
  730MOL0     H98513   9.376   4.661   4.503  0.5540 -2.1280  0.6814
  730MOL0     H98514   9.226   4.923   4.846  5.4657 -2.3504 -1.7162
  730MOL0     H98515   9.293   5.116   4.989 -2.4436  2.3663  1.6670
  730MOL0     H98516   9.334   5.190   5.438 -0.1637 -0.8484  1.4423
  730MOL0     H98517   9.317   5.020   5.443 -0.9115 -0.1416 -0.7756
  730MOL0     H98518   9.554   5.090   5.494 -0.2861  0.1817 -0.6819
  730MOL0     H98519   9.558   5.016   5.339  2.2772  0.5778 -1.0879
  730MOL0     H98520   9.522   5.315   5.328 -1.9530 -1.3626  0.1292
  730MOL0     H98521   9.591   5.194   5.212 -0.0627  0.3513 -1.2431
  730MOL0     H98522   9.800   5.182   5.335  0.4159  0.1332  0.4778
  730MOL0     H98523   9.758   5.352   5.315 -2.5284 -0.7880 -4.3526
  730MOL0     H98524   9.852   5.286   5.545 -0.1200 -0.7814  1.4336
  730MOL0     H98525   9.710   5.187   5.573 -0.6145  0.5273 -0.1830
  730MOL0     H98526   9.699   5.492   5.516 -5.4103  1.9078  0.2574
  730MOL0     H98527   9.571   5.383   5.562  1.1206  1.4755 -0.0922
  730MOL0     H98528   9.813   5.397   5.743  0.0675  1.6736  2.3911
  730MOL0     H98529   9.655   5.341   5.783 -0.9399 -2.2370 -3.0509
  730MOL0     H98530   9.596   5.599   5.786  0.7472  2.6157  0.8993
  730MOL0     H98531   9.751   5.642   5.720  0.0748 -1.0621 -0.8527
  730MOL0     H98532   9.352   4.838   5.318 -1.4132 -0.0298 -0.2444
  730MOL0     H98533   9.308   4.653   5.163  1.5061 -0.0692 -0.0253
  730MOL0     H98534   9.099   4.471   4.861  0.1814  3.3546  1.0415
  730MOL0     H98535   8.997   4.277   4.734  1.0859  0.4310  3.8078
  730MOL0     H98536   8.470   4.240   2.613 -0.6404 -1.6513  1.3738
  730MOL0     H98537   8.293   4.310   2.458 -0.7464  0.5495 -0.9599
  730MOL0     H98538   7.974   4.734   2.318  0.7644 -0.6062  0.4707
  730MOL0     H98539   7.875   4.750   2.122 -0.6421  0.0077 -0.3926
  730MOL0     H98540   7.658   4.483   1.831 -0.9392 -0.4431 -0.1175
  730MOL0     H98541   7.676   4.391   1.975  0.9403  0.8513  0.9744
  730MOL0     H98542   7.571   4.679   1.981 -0.7465  0.2287  2.0975
  730MOL0     H98543   7.543   4.551   2.099 -1.0367  3.7271  1.4567
  730MOL0     H98544   7.405   4.423   1.925  0.1609  0.0541 -2.7618
  730MOL0     H98545   7.424   4.551   1.815 -0.5089 -0.0127  0.1353
  730MOL0     H98546   7.319   4.595   2.098 -0.0483 -0.5366  0.0416
  730MOL0     H98547   7.215   4.542   1.973 -0.6160  0.2309 -1.3786
  730MOL0     H98548   7.244   4.927   1.820 -0.4317 -1.2781 -0.4558
  730MOL0     H98549   7.895   4.315   2.064  2.9436 -2.2881  1.1159
  730MOL0     H98550   8.015   4.309   2.281 -1.9706 -0.5939 -0.9016
  731MOL0     O98551   0.485   0.506   2.054 -0.0829  0.8406  0.9378
  731MOL0     C98552   0.547   0.543   1.955 -0.4164  0.2640  0.8741
  731MOL0     O98553   0.518   0.651   1.876  0.1987 -0.1564 -1.0471
  731MOL0     C98554   0.398   0.723   1.899 -0.2469  0.0767 -0.0544
  731MOL0     C98555   0.383   0.853   1.953  0.1290  0.5441  0.3413
  731MOL0     C98556   0.251   0.908   1.972 -0.8577  0.5000  0.2482
  731MOL0     C98557   0.138   0.842   1.929 -0.4894 -0.6245  0.4080
  731MOL0     O98558   0.020   0.915   1.947  0.1923 -0.1614 -1.0993
  731MOL0     C98559  -0.085   0.844   2.014 -1.1031 -0.2724  0.6028
  731MOL0     C98560  -0.148   0.936   2.113 -0.2038 -0.7387 -0.1053
  731MOL0     C98561  -0.282   0.903   2.168 -0.3551  0.3096 -0.4088
  731MOL0     C98562  -0.325   0.991   2.289  0.7697 -0.1926  0.0180
  731MOL0     C98563  -0.480   0.989   2.324 -0.2363 -0.3172 -0.2593
  731MOL0     C98564  -0.571   1.028   2.207  0.2666 -0.4629 -0.7360
  731MOL0     C98565  -0.523   1.164   2.146  1.5970  0.1419  0.2347
  731MOL0     C98566  -0.519   1.277   2.250 -0.0502 -0.4759  0.4106
  731MOL0     N98567  -0.488   1.409   2.182 -0.0390 -0.1723  0.3650
  731MOL0     C98568  -0.375   1.441   2.110 -0.0398  0.5209 -0.1257
  731MOL0     C98569  -0.394   1.574   2.075  0.1505  0.5415  0.3153
  731MOL0     C98570  -0.322   1.664   1.986  0.5936 -0.2703  0.0463
  731MOL0     C98571  -0.192   1.603   1.939 -0.2371 -0.0186  0.5674
  731MOL0     C98572  -0.149   1.663   1.804  0.3230  0.3330 -0.2933
  731MOL0     C98573   0.004   1.624   1.779  0.5351  0.7772 -0.1359
  731MOL0     O98574   0.043   1.666   1.653 -0.7009 -0.3117  0.0103
  731MOL0     C98575   0.102   1.568   1.580  0.5503 -0.9225 -0.2452
  731MOL0     C98576   0.045   1.532   1.462 -0.5256  0.3888  0.3880
  731MOL0     C98577   0.104   1.441   1.375 -0.4884 -0.5128  0.3769
  731MOL0     C98578   0.026   1.417   1.252  0.5025  0.6523  1.1757
  731MOL0     C98579   0.235   1.384   1.400 -0.3791 -0.1990 -0.5874
  731MOL0     C98580   0.319   1.297   1.313  0.6065 -0.3910  0.1823
  731MOL0     O98581   0.450   1.294   1.336 -0.4620 -0.7374  0.2594
  731MOL0     C98582   0.534   1.224   1.250  0.8414 -0.6128 -0.8316
  731MOL0     C98583   0.525   1.219   1.100  0.3609  0.6464  0.2894
  731MOL0     C98584   0.615   1.136   1.036 -0.6261 -0.2363  0.0208
  731MOL0     C98585   0.727   1.076   1.098 -0.6400 -0.1857 -0.2121
  731MOL0     O98586   0.830   1.013   1.025  0.0272 -0.1993 -1.0492
  731MOL0     C98587   0.848   1.035   0.882 -0.0623  0.1094 -0.2563
  731MOL0     C98588   0.917   1.167   0.847 -0.4137  0.2144 -0.0089
  731MOL0     C98589   1.061   1.144   0.791  0.0303 -0.5056 -0.8716
  731MOL0     C98590   1.160   1.108   0.910 -0.1162  0.4415  0.4473
  731MOL0     C98591   1.162   0.964   0.947 -0.0801 -0.4875  0.0103
  731MOL0     C98592   1.240   0.881   0.853 -0.4176  0.2144 -0.2061
  731MOL0     C98593   1.241   0.729   0.858  0.3125 -0.7387 -0.6308
  731MOL0     C98594   1.357   0.672   0.794  0.4334  0.4577 -1.2501
  731MOL0    Cl98595   1.386   0.719   0.623  0.0995  0.1440  0.0846
  731MOL0     C98596   0.748   1.097   1.237 -0.0769  0.2939 -0.2470
  731MOL0     C98597   0.650   1.162   1.310  0.0353 -0.6042 -0.8535
  731MOL0     O98598   0.256   1.242   1.223  0.4176  0.2489 -0.3078
  731MOL0     C98599   0.290   1.420   1.526 -0.3872  0.0482 -0.0179
  731MOL0     C98600   0.230   1.521   1.606  0.0907  0.7832  0.6475
  731MOL0     N98601  -0.509   1.614   2.132  0.8468  0.1430 -0.7747
  731MOL0     N98602  -0.564   1.513   2.196  0.7154 -0.3581 -0.7705
  731MOL0     C98603   0.154   0.716   1.871  0.3953  0.2582  0.0323
  731MOL0     C98604   0.282   0.649   1.860 -0.0207 -0.1115  0.6238
  731MOL0     C98605   0.676   0.465   1.933 -0.3213  0.2033 -0.1228
  731MOL0     C98606   0.773   0.516   1.847  0.2177 -0.6000  0.1486
  731MOL0     C98607   0.895   0.455   1.836 -0.8986  0.1491  0.9868
  731MOL0     C98608   0.933   0.336   1.915  0.2036 -0.3433 -0.4531
  731MOL0     O98609   1.074   0.310   1.916  0.2903  0.3429 -0.7417
  731MOL0     C98610   1.125   0.243   2.038  0.5166  0.2637  0.1617
  731MOL0     C98611   1.247   0.323   2.090  0.4589  0.5038  0.9002
  731MOL0     C98612   1.374   0.290   2.017 -0.3103 -0.1868 -0.5285
  731MOL0     C98613   1.497   0.370   2.066 -0.1946 -0.4438 -0.4583
  731MOL0     C98614   1.605   0.333   1.976  0.6099  0.0919  1.2437
  731MOL0     C98615   1.707   0.303   1.917 -0.5337 -0.2950  0.1903
  731MOL0     C98616   0.838   0.283   2.005  0.6849 -0.6559 -0.3196
  731MOL0     C98617   0.711   0.345   2.009 -0.5060  0.0546 -0.2357
  731MOL0     H98618   0.465   0.924   1.957  0.6534  0.1680 -2.3170
  731MOL0     H98619   0.235   1.005   2.019 -1.1304  2.5110 -3.5592
  731MOL0     H98620  -0.161   0.823   1.938 -0.8408  0.2067  0.1995
  731MOL0     H98621  -0.048   0.749   2.054 -2.6557 -1.5355 -0.7828
  731MOL0     H98622  -0.080   0.959   2.195  2.7064 -0.7026 -2.3855
  731MOL0     H98623  -0.157   1.034   2.066  1.4759  0.3609  1.7230
  731MOL0     H98624  -0.356   0.908   2.088 -1.0057 -0.8560  0.0953
  731MOL0     H98625  -0.280   0.803   2.212 -1.4575  0.9428  1.1531
  731MOL0     H98626  -0.280   0.943   2.377 -1.7563 -0.8044  1.0748
  731MOL0     H98627  -0.305   1.096   2.266  1.1922 -0.0718  0.9174
  731MOL0     H98628  -0.504   0.887   2.358  1.0795 -1.1713 -1.7267
  731MOL0     H98629  -0.481   1.055   2.411  1.5830  0.8706 -1.0791
  731MOL0     H98630  -0.568   0.942   2.139 -0.6105 -0.8804 -0.2648
  731MOL0     H98631  -0.671   1.048   2.246  0.9243  1.0503  0.2500
  731MOL0     H98632  -0.420   1.154   2.111  1.3488  1.4706 -0.9645
  731MOL0     H98633  -0.570   1.204   2.056  1.1794  4.1841  2.0578
  731MOL0     H98634  -0.436   1.273   2.321  3.7944  4.6052 -2.9882
  731MOL0     H98635  -0.620   1.278   2.292 -1.0292  1.9062 -1.6912
  731MOL0     H98636  -0.297   1.374   2.077 -1.3496 -1.9060  1.3884
  731MOL0     H98637  -0.371   1.681   1.890 -1.6190  1.5232  1.4109
  731MOL0     H98638  -0.315   1.757   2.042  0.5767 -1.8610  2.8550
  731MOL0     H98639  -0.201   1.494   1.927  0.8906 -0.1049  0.3508
  731MOL0     H98640  -0.124   1.627   2.021  0.1534  2.2646 -0.3616
  731MOL0     H98641  -0.157   1.772   1.805 -0.8240  0.2839 -1.6841
  731MOL0     H98642  -0.216   1.634   1.723 -0.4473 -0.7389  0.6769
  731MOL0     H98643   0.018   1.516   1.791  0.0847  0.6561 -0.6801
  731MOL0     H98644   0.079   1.669   1.845  0.1811  3.1439 -1.2424
  731MOL0     H98645  -0.058   1.559   1.441 -1.1197 -0.9498  1.4059
  731MOL0     H98646  -0.082   1.422   1.268 -0.2501 -1.1072 -2.4027
  731MOL0     H98647   0.052   1.485   1.171 -0.4715 -0.0743  0.2309
  731MOL0     H98648   0.040   1.315   1.216  1.2700  0.7070  1.3070
  731MOL0     H98649   0.442   1.260   1.042  1.2960 -0.7497 -2.1789
  731MOL0     H98650   0.597   1.145   0.930 -1.7233  3.1521  0.3533
  731MOL0     H98651   0.895   0.947   0.837  0.0947  0.0275  0.0634
  731MOL0     H98652   0.754   1.038   0.827  2.5590  0.7536 -5.2217
  731MOL0     H98653   0.854   1.207   0.767 -1.6257  0.4625  1.0446
  731MOL0     H98654   0.904   1.245   0.923 -1.2826  1.8206 -1.7317
  731MOL0     H98655   1.097   1.246   0.770 -0.8044  0.0913  0.4976
  731MOL0     H98656   1.079   1.085   0.700  2.0233 -0.9288 -0.2712
  731MOL0     H98657   1.261   1.135   0.875 -0.0264  0.2851  0.5879
  731MOL0     H98658   1.138   1.155   1.006  2.4333 -0.5962  1.6354
  731MOL0     H98659   1.061   0.924   0.961 -1.3106  2.1094 -0.8576
  731MOL0     H98660   1.215   0.959   1.042  1.5264  1.3173 -0.7340
  731MOL0     H98661   1.214   0.922   0.755  0.8441  5.1620  1.1979
  731MOL0     H98662   1.344   0.913   0.865 -0.2260 -0.8710  1.2324
  731MOL0     H98663   1.146   0.686   0.824 -0.1471 -0.4367  0.2374
  731MOL0     H98664   1.245   0.703   0.964 -0.5842 -1.7917 -0.8378
  731MOL0     H98665   1.356   0.563   0.803 -0.5177  0.5361 -0.2160
  731MOL0     H98666   1.441   0.696   0.860 -0.9141  0.0629  0.6907
  731MOL0     H98667   0.844   1.059   1.272  0.0179 -0.8873 -1.6594
  731MOL0     H98668   0.660   1.187   1.415 -0.7930 -3.3981 -0.0261
  731MOL0     H98669   0.381   1.379   1.568 -0.2500  1.5082  1.2066
  731MOL0     H98670   0.269   1.561   1.700  0.6538  0.7620  0.4285
  731MOL0     H98671   0.064   0.677   1.825 -0.5081  0.9494  1.1475
  731MOL0     H98672   0.284   0.554   1.808  1.4306  1.7467 -3.1356
  731MOL0     H98673   0.771   0.615   1.802  2.7798  1.6209  4.2201
  731MOL0     H98674   0.963   0.501   1.766  0.5254 -1.6404  1.1228
  731MOL0     H98675   1.048   0.247   2.116  0.4668 -0.2946  0.1464
  731MOL0     H98676   1.149   0.136   2.033 -0.6361 -0.0769  1.2507
  731MOL0     H98677   1.265   0.296   2.194 -0.8774 -0.9832  0.7735
  731MOL0     H98678   1.216   0.426   2.070  3.3242  0.7185 -4.1632
  731MOL0     H98679   1.367   0.305   1.909  1.7229 -0.4837 -0.7351
  731MOL0     H98680   1.395   0.183   2.020 -0.1378 -0.2986 -3.2990
  731MOL0     H98681   1.504   0.346   2.172 -4.7561 -0.9781 -0.0710
  731MOL0     H98682   1.482   0.479   2.060 -5.0206 -0.2629  5.5288
  731MOL0     H98683   1.798   0.300   1.861  0.6877  4.2917  1.4919
  731MOL0     H98684   0.858   0.206   2.079 -2.6816  0.2997  1.7832
  731MOL0     H98685   0.642   0.305   2.082 -0.5995  1.2203  0.3428
  732MOL0     O98686   6.970   5.946  10.676 -0.6091 -0.7509  0.2378
  732MOL0     C98687   7.063   5.954  10.758 -0.0853  0.5763 -1.4972
  732MOL0     O98688   7.050   5.968  10.894  0.4064  0.1047 -0.3616
  732MOL0     C98689   6.926   5.972  10.951  0.3587  1.0641  0.3225
  732MOL0     C98690   6.870   5.848  10.994  1.1597 -0.6842 -0.3032
  732MOL0     C98691   6.741   5.834  11.048  0.5662 -0.4654  0.2063
  732MOL0     C98692   6.666   5.945  11.050  0.4732  0.5584  1.0178
  732MOL0     O98693   6.532   5.941  11.080 -0.2722  0.0815 -0.3715
  732MOL0     C98694   6.486   5.883  11.203  0.0329 -0.1402 -0.6534
  732MOL0     C98695   6.525   5.969  11.320 -0.1421  0.2285 -0.8082
  732MOL0     C98696   6.464   5.905  11.437  0.7703 -0.3228 -0.4893
  732MOL0     C98697   6.309   5.914  11.456  1.2190  0.6707  0.2544
  732MOL0     C98698   6.276   5.882  11.604 -0.0701  0.3642  0.1642
  732MOL0     C98699   6.316   5.740  11.655 -0.1971 -0.0411  0.2649
  732MOL0     C98700   6.299   5.717  11.806 -0.0377 -0.6427 -0.7446
  732MOL0     C98701   6.153   5.704  11.842  0.4843  0.0054 -0.1936
  732MOL0     N98702   6.084   5.586  11.773 -0.9445 -0.5095 -0.2943
  732MOL0     C98703   5.956   5.594  11.719  0.5702 -0.4450 -0.9134
  732MOL0     C98704   5.925   5.465  11.690  1.2646 -0.2750 -0.0236
  732MOL0     C98705   5.792   5.430  11.609 -0.3367 -0.1341 -0.9996
  732MOL0     C98706   5.795   5.279  11.583  0.5130 -0.7962  0.4489
  732MOL0     C98707   5.690   5.237  11.473 -0.2876 -0.7630  0.7238
  732MOL0     C98708   5.557   5.205  11.546 -0.7400 -0.5445  0.4054
  732MOL0     O98709   5.467   5.180  11.432 -0.6554 -0.0021 -0.7025
  732MOL0     C98710   5.334   5.178  11.459  0.8083 -0.2221  0.1255
  732MOL0     C98711   5.273   5.217  11.575 -0.9783 -0.5864 -0.2988
  732MOL0     C98712   5.135   5.237  11.575  0.9891 -0.0698 -0.7618
  732MOL0     C98713   5.077   5.289  11.706 -0.2098 -0.8417  1.0540
  732MOL0     C98714   5.049   5.178  11.472  1.0726 -0.5326  0.1178
  732MOL0     C98715   4.895   5.186  11.459 -0.5325 -0.6739  0.6107
  732MOL0     O98716   4.836   5.108  11.365  0.0967  0.4562 -0.9986
  732MOL0     C98717   4.708   5.101  11.339  0.2757 -0.7970 -0.5515
  732MOL0     C98718   4.683   5.020  11.232 -0.0482  0.6035  0.1535
  732MOL0     C98719   4.548   5.002  11.192  0.3914 -0.1382  0.3270
  732MOL0     C98720   4.437   5.068  11.249 -0.3919 -0.2023  0.5657
  732MOL0     O98721   4.306   5.029  11.229 -0.8342 -0.0752 -0.1610
  732MOL0     C98722   4.270   5.025  11.083 -0.7090 -0.8917  0.4242
  732MOL0     C98723   4.131   4.976  11.071  0.6814 -0.1583  0.7994
  732MOL0     C98724   4.097   4.942  10.928 -0.1728 -0.0538 -0.0870
  732MOL0     C98725   3.957   4.883  10.914 -0.2228  0.1438  1.0962
  732MOL0     C98726   3.926   4.885  10.767  0.4959 -0.0132  0.0939
  732MOL0     C98727   3.784   4.842  10.737  0.4828  0.1318  0.8828
  732MOL0     C98728   3.765   4.838  10.584 -1.0402 -0.4066  0.6020
  732MOL0     C98729   3.616   4.818  10.545 -0.2686  0.8086 -0.3400
  732MOL0    Cl98730   3.598   4.697  10.412 -0.1776 -0.5777  0.1170
  732MOL0     C98731   4.466   5.158  11.351 -0.4834  0.6482  0.8464
  732MOL0     C98732   4.601   5.169  11.395  0.6272 -0.2019  0.5559
  732MOL0     O98733   4.837   5.282  11.520 -0.0775  0.1196  0.8522
  732MOL0     C98734   5.120   5.130  11.363  0.5256 -0.6350  0.1300
  732MOL0     C98735   5.259   5.122  11.357 -0.6374 -0.5161 -0.0401
  732MOL0     N98736   6.038   5.388  11.705 -0.4735 -0.3625  0.3540
  732MOL0     N98737   6.137   5.461  11.746 -0.0855 -0.0052 -0.2232
  732MOL0     C98738   6.722   6.069  11.011  0.2259 -0.0215  0.9912
  732MOL0     C98739   6.858   6.087  10.966  0.8177 -0.1034 -0.1104
  732MOL0     C98740   7.198   5.963  10.709 -0.7543 -0.7025 -0.4833
  732MOL0     C98741   7.311   5.973  10.794  0.0657 -0.6516 -0.5006
  732MOL0     C98742   7.443   5.976  10.743 -0.4022 -0.4422  0.5595
  732MOL0     C98743   7.464   5.973  10.605 -0.5337 -0.7504 -0.4456
  732MOL0     O98744   7.585   5.971  10.543 -0.9140  0.0321 -0.1465
  732MOL0     C98745   7.690   6.051  10.599  0.3418  1.1193  0.0864
  732MOL0     C98746   7.810   6.050  10.505  0.1336  0.6251 -0.1229
  732MOL0     C98747   7.904   6.182  10.524 -0.1389  0.7498  0.1556
  732MOL0     C98748   7.832   6.307  10.475 -0.3489  0.2863 -0.8046
  732MOL0     C98749   7.871   6.431  10.541  0.3895  0.1684 -0.4459
  732MOL0     C98750   7.912   6.527  10.601  0.1496 -0.4902 -0.1991
  732MOL0     C98751   7.353   5.984  10.523  0.3125  0.4819 -0.1393
  732MOL0     C98752   7.228   5.986  10.575  0.4188 -0.1256 -0.8146
  732MOL0     H98753   6.923   5.753  10.987 -1.4138 -2.1203 -2.8081
  732MOL0     H98754   6.702   5.738  11.081  3.2010 -0.9576  2.2814
  732MOL0     H98755   6.379   5.860  11.198 -0.0946  0.6550 -3.1929
  732MOL0     H98756   6.539   5.788  11.215  1.4993  0.6749 -0.5629
  732MOL0     H98757   6.632   5.986  11.336 -0.5486  0.9205  1.6079
  732MOL0     H98758   6.490   6.073  11.319 -1.8390 -0.0894  3.5532
  732MOL0     H98759   6.499   5.801  11.442 -2.4681 -1.5868 -1.1012
  732MOL0     H98760   6.513   5.951  11.523 -2.1687 -0.3034  1.3159
  732MOL0     H98761   6.261   6.009  11.432  0.0999  0.2512  0.7853
  732MOL0     H98762   6.278   5.839  11.383  0.2065 -0.4747  1.7912
  732MOL0     H98763   6.319   5.963  11.664 -0.3422  1.9056 -1.6330
  732MOL0     H98764   6.167   5.878  11.608 -0.0475 -1.4007  0.0279
  732MOL0     H98765   6.285   5.663  11.584  1.1867 -1.6957  1.3845
  732MOL0     H98766   6.423   5.731  11.635 -0.2441  1.4945 -0.8770
  732MOL0     H98767   6.344   5.622  11.835 -1.2048 -0.8656  0.4401
  732MOL0     H98768   6.335   5.806  11.859  0.3612 -0.2732 -1.6203
  732MOL0     H98769   6.100   5.792  11.805  1.5819  0.9770  0.4631
  732MOL0     H98770   6.138   5.702  11.950  0.8298 -2.0783 -0.1506
  732MOL0     H98771   5.884   5.675  11.718 -1.8837 -2.3192  2.6859
  732MOL0     H98772   5.715   5.451  11.684  0.3611  1.8662 -0.7782
  732MOL0     H98773   5.767   5.504  11.531 -1.2697  0.5103 -0.1267
  732MOL0     H98774   5.787   5.228  11.680 -2.3563  0.0178  0.7392
  732MOL0     H98775   5.896   5.259  11.548  1.2228  1.6623  0.9136
  732MOL0     H98776   5.724   5.152  11.413  1.3544  0.9827 -0.9811
  732MOL0     H98777   5.687   5.318  11.399  0.6398  0.5379  2.0609
  732MOL0     H98778   5.526   5.295  11.599 -1.4425  0.3590 -1.4653
  732MOL0     H98779   5.567   5.121  11.616 -1.5699 -2.1077 -1.2515
  732MOL0     H98780   5.331   5.232  11.665  1.5305 -1.4861 -1.6401
  732MOL0     H98781   5.134   5.246  11.789  0.8891 -1.8211 -0.1656
  732MOL0     H98782   5.084   5.397  11.721 -2.0869 -0.9024  2.7923
  732MOL0     H98783   4.974   5.253  11.714  0.0282 -1.5661  0.9566
  732MOL0     H98784   4.760   4.975  11.170 -0.5268 -1.5122  1.0311
  732MOL0     H98785   4.536   4.928  11.113 -2.4114  1.6035 -1.0343
  732MOL0     H98786   4.273   5.131  11.054  5.1541 -1.0677 -0.9271
  732MOL0     H98787   4.344   4.971  11.023  1.2215 -1.3949  3.0929
  732MOL0     H98788   4.109   4.889  11.134 -0.2907 -0.5978 -0.1115
  732MOL0     H98789   4.070   5.046  11.130 -0.2512 -0.8297  0.6455
  732MOL0     H98790   4.168   4.870  10.887  0.6419  0.2645  0.7316
  732MOL0     H98791   4.116   5.027  10.862  3.1619 -3.2331 -3.7171
  732MOL0     H98792   3.956   4.778  10.946 -0.6723  0.1937  1.2520
  732MOL0     H98793   3.888   4.930  10.984  0.7398 -1.2575  3.0979
  732MOL0     H98794   3.999   4.816  10.724 -2.1037 -3.6025  0.9504
  732MOL0     H98795   3.940   4.989  10.739 -0.4751 -0.2693 -1.4713
  732MOL0     H98796   3.764   4.747  10.787  2.5508  1.7348  5.2565
  732MOL0     H98797   3.708   4.905  10.785 -1.6297 -1.2401 -0.4603
  732MOL0     H98798   3.815   4.746  10.551  1.1396  1.2274 -0.8847
  732MOL0     H98799   3.820   4.916  10.532 -1.9889 -1.2180 -1.7329
  732MOL0     H98800   3.568   4.909  10.507 -1.4173 -0.7220 -2.7963
  732MOL0     H98801   3.566   4.766  10.627  0.2656 -0.9269 -1.0792
  732MOL0     H98802   4.389   5.216  11.400 -0.4733 -0.0659  1.7415
  732MOL0     H98803   4.620   5.233  11.480  1.7005 -1.1182  1.0213
  732MOL0     H98804   5.058   5.087  11.284  0.1661  2.5279 -1.4818
  732MOL0     H98805   5.326   5.084  11.281  2.0254 -0.7194  2.2276
  732MOL0     H98806   6.664   6.159  11.030 -0.3806 -0.2010  0.0314
  732MOL0     H98807   6.872   6.186  10.922 -2.5852  1.1396  1.2235
  732MOL0     H98808   7.293   5.979  10.901 -1.0703 -2.1759 -0.5834
  732MOL0     H98809   7.533   5.981  10.803 -0.3569  0.8793  0.4104
  732MOL0     H98810   7.652   6.152  10.617 -0.7794  0.7034  0.1959
  732MOL0     H98811   7.727   6.016  10.696 -0.0872  0.9201  0.1823
  732MOL0     H98812   7.768   6.037  10.405  0.1405  0.3741 -0.0937
  732MOL0     H98813   7.875   5.964  10.526 -0.6518  0.0516  0.0103
  732MOL0     H98814   8.005   6.166  10.487 -0.9759 -0.4870 -1.7658
  732MOL0     H98815   7.909   6.191  10.633 -1.1824  0.0438  0.2747
  732MOL0     H98816   7.723   6.302  10.486 -0.5160 -0.1588 -2.3498
  732MOL0     H98817   7.846   6.312  10.367  0.7651 -0.5960 -0.7164
  732MOL0     H98818   7.936   6.602  10.674 -0.6403 -1.9112  1.5942
  732MOL0     H98819   7.364   5.994  10.415 -1.8330 -0.4312 -0.4866
  732MOL0     H98820   7.144   6.006  10.509 -1.3328 -0.0090  1.3610
  733MOL0     O98821   1.719   7.453   0.344 -0.4800 -0.9002  0.1395
  733MOL0     C98822   1.692   7.336   0.335  0.0176  0.3197 -0.6846
  733MOL0     O98823   1.567   7.294   0.341  0.1380 -0.4747 -0.0266
  733MOL0     C98824   1.467   7.381   0.392 -1.2092 -0.3463 -0.5238
  733MOL0     C98825   1.500   7.461   0.510  0.5552 -0.2292  0.2144
  733MOL0     C98826   1.407   7.554   0.558  0.0402  0.9216  0.9543
  733MOL0     C98827   1.280   7.554   0.501  0.1360  0.6523 -0.8835
  733MOL0     O98828   1.178   7.634   0.548  0.4848  1.0942 -0.3090
  733MOL0     C98829   1.137   7.582   0.680 -0.0224  0.2222  0.1656
  733MOL0     C98830   1.044   7.677   0.761 -0.1034  0.2743 -0.1568
  733MOL0     C98831   0.910   7.694   0.689  0.0607 -1.2046 -0.3886
  733MOL0     C98832   0.825   7.783   0.783 -0.0517 -0.8159 -0.0240
  733MOL0     C98833   0.718   7.850   0.712 -0.9867  0.0371 -0.2972
  733MOL0     C98834   0.619   7.754   0.648  1.2689 -0.4527 -0.3630
  733MOL0     C98835   0.511   7.833   0.586  0.8033 -0.1987  0.1228
  733MOL0     C98836   0.396   7.737   0.550  0.6677  0.1128  0.5280
  733MOL0     N98837   0.281   7.807   0.492  0.2235  0.2464 -0.7621
  733MOL0     C98838   0.253   7.815   0.358  0.3313  0.0309  0.4583
  733MOL0     C98839   0.122   7.842   0.364 -0.1719  0.1680  0.0926
  733MOL0     C98840   0.048   7.849   0.220 -0.1407 -0.2272 -0.6086
  733MOL0     C98841   0.037   7.988   0.168  0.1654  0.5895  0.8503
  733MOL0     C98842   0.165   8.075   0.136 -0.3288 -0.5600 -0.3194
  733MOL0     C98843   0.136   8.221   0.106 -0.1868 -0.4745 -0.6743
  733MOL0     O98844   0.099   8.305   0.214 -0.4861  0.5219  0.1400
  733MOL0     C98845   0.098   8.445   0.190  0.7285  0.3167 -0.3494
  733MOL0     C98846   0.060   8.526   0.295  1.0238  0.6583 -0.3005
  733MOL0     C98847   0.054   8.660   0.294  0.2231 -0.5113 -0.0041
  733MOL0     C98848   0.021   8.732   0.419 -0.9642 -0.2675  0.0359
  733MOL0     C98849   0.078   8.726   0.170 -0.4768  0.4978  0.1784
  733MOL0     C98850   0.079   8.876   0.143 -0.5268  0.7248  0.1438
  733MOL0     O98851   0.042   8.960   0.248 -0.2599  0.0326  0.2593
  733MOL0     C98852   0.015   9.089   0.210  0.5213 -0.0957 -0.4193
  733MOL0     C98853   0.035   9.182   0.315 -0.4846 -0.5671  0.2980
  733MOL0     C98854  -0.007   9.309   0.300  1.0327 -0.3824 -0.2050
  733MOL0     C98855  -0.069   9.353   0.181 -0.2622  0.0561 -0.4107
  733MOL0     O98856  -0.102   9.488   0.169 -0.1577  0.0736  0.0637
  733MOL0     C98857  -0.237   9.523   0.144 -0.5884 -0.5427 -0.0544
  733MOL0     C98858  -0.238   9.683   0.107  0.0193 -0.4618 -0.6798
  733MOL0     C98859  -0.377   9.737   0.109 -0.3519 -0.1520  0.7979
  733MOL0     C98860  -0.384   9.889   0.086 -0.0476 -0.0815  0.3765
  733MOL0     C98861  -0.522   9.955   0.101 -0.1149 -0.1837  0.3764
  733MOL0     C98862  -0.638   9.879   0.035  1.1624 -0.2399 -0.0581
  733MOL0     C98863  -0.771   9.963   0.043 -1.0144  0.5769 -0.9651
  733MOL0     C98864  -0.896   9.874   0.057 -0.5304 -0.1517  0.3004
  733MOL0    Cl98865  -0.883   9.793   0.223  0.3723 -0.3569  0.0566
  733MOL0     C98866  -0.105   9.258   0.084  0.0153 -0.3839 -0.4263
  733MOL0     C98867  -0.059   9.132   0.101 -0.0793  0.2973 -0.6342
  733MOL0     O98868   0.123   8.918   0.037  0.2561 -0.4309 -0.4913
  733MOL0     C98869   0.116   8.641   0.062 -0.2467  0.0910 -0.3432
  733MOL0     C98870   0.118   8.508   0.068 -0.4320  1.0637 -0.3679
  733MOL0     N98871   0.071   7.866   0.492  0.2324  0.4368  0.6074
  733MOL0     N98872   0.175   7.852   0.563  0.2754 -0.4637 -0.1938
  733MOL0     C98873   1.249   7.477   0.386 -0.4609  0.8766  0.3616
  733MOL0     C98874   1.347   7.396   0.331  1.0046 -0.8367  0.6640
  733MOL0     C98875   1.795   7.233   0.324 -0.5411 -0.4541  0.7208
  733MOL0     C98876   1.753   7.106   0.344 -0.2014 -0.2256  0.8371
  733MOL0     C98877   1.843   7.000   0.325  0.6606  0.4860  0.0447
  733MOL0     C98878   1.981   7.020   0.284  0.1018  0.3209 -0.0341
  733MOL0     O98879   2.059   6.906   0.275  0.5906  0.0279 -0.1874
  733MOL0     C98880   2.187   6.940   0.234 -0.1517 -0.2826 -0.8122
  733MOL0     C98881   2.266   6.809   0.207  0.8498  0.4484 -0.6234
  733MOL0     C98882   2.208   6.693   0.109 -0.2037 -0.4446  0.3414
  733MOL0     C98883   2.303   6.578   0.074 -0.4391  0.1319  0.1034
  733MOL0     C98884   2.329   6.485   0.188 -0.5619  0.1518  0.8769
  733MOL0     C98885   2.340   6.416   0.290  0.2179  0.4760  0.0756
  733MOL0     C98886   2.021   7.151   0.264  0.3672 -0.1438 -0.8999
  733MOL0     C98887   1.928   7.256   0.284 -0.5150  0.0552 -0.1167
  733MOL0     H98888   1.599   7.455   0.555  0.4741 -0.6752  0.3376
  733MOL0     H98889   1.422   7.612   0.648 -2.9956 -1.8399  3.4675
  733MOL0     H98890   1.093   7.482   0.682  1.4174 -0.4147  0.9998
  733MOL0     H98891   1.222   7.560   0.744 -0.9441 -0.5457  1.1687
  733MOL0     H98892   1.018   7.634   0.858 -0.3391  4.1665  1.7164
  733MOL0     H98893   1.099   7.770   0.774 -0.4586  0.2130  2.1519
  733MOL0     H98894   0.935   7.753   0.600  0.2301  3.0583  2.1913
  733MOL0     H98895   0.863   7.601   0.655 -0.9825 -0.2776 -1.5889
  733MOL0     H98896   0.778   7.711   0.851 -2.0383 -1.8743 -2.3642
  733MOL0     H98897   0.888   7.855   0.837 -1.5157 -0.3025  1.0852
  733MOL0     H98898   0.668   7.912   0.786  0.8731 -0.4786  1.4972
  733MOL0     H98899   0.771   7.920   0.647  1.4506  0.4517  1.9561
  733MOL0     H98900   0.657   7.687   0.570 -0.3324  1.6291 -3.1196
  733MOL0     H98901   0.579   7.691   0.728  2.1772 -2.3381 -1.3268
  733MOL0     H98902   0.473   7.919   0.641 -0.1846 -1.9857  2.4047
  733MOL0     H98903   0.561   7.872   0.496 -0.4036  0.4307 -0.3048
  733MOL0     H98904   0.352   7.700   0.643 -2.0686  1.2998 -0.2014
  733MOL0     H98905   0.435   7.659   0.484  2.2306  0.1434  1.3431
  733MOL0     H98906   0.303   7.785   0.266 -0.1950 -0.5332  0.3559
  733MOL0     H98907   0.108   7.797   0.144  3.6730  1.2342  1.1273
  733MOL0     H98908  -0.047   7.797   0.233  0.3454 -0.4478  2.7729
  733MOL0     H98909  -0.027   8.041   0.239 -1.4596  1.9854 -1.5365
  733MOL0     H98910  -0.021   7.980   0.076  0.7147 -2.4162  0.6419
  733MOL0     H98911   0.206   8.023   0.050 -1.1028 -1.2286 -0.2957
  733MOL0     H98912   0.238   8.064   0.217  1.1377 -0.3507 -1.5794
  733MOL0     H98913   0.070   8.226   0.019  1.8994 -1.4443 -2.4234
  733MOL0     H98914   0.225   8.268   0.064 -3.6216  2.9452 -5.0991
  733MOL0     H98915   0.040   8.468   0.384  1.8974  0.9443  0.0981
  733MOL0     H98916   0.042   8.674   0.509 -0.0652  1.1278  0.7638
  733MOL0     H98917   0.081   8.824   0.427  0.2305 -0.8766 -1.3929
  733MOL0     H98918  -0.084   8.763   0.415 -0.8985 -0.0809 -0.2775
  733MOL0     H98919   0.087   9.162   0.407 -0.8865  3.3342  1.5361
  733MOL0     H98920  -0.017   9.386   0.376 -0.2445 -2.0772  1.4285
  733MOL0     H98921  -0.281   9.472   0.058 -0.6576 -0.0388 -0.3218
  733MOL0     H98922  -0.296   9.496   0.232  1.2969 -2.0305  0.8211
  733MOL0     H98923  -0.181   9.737   0.183 -2.4592  0.6910  0.4702
  733MOL0     H98924  -0.184   9.685   0.011  1.8809 -1.3049  0.2865
  733MOL0     H98925  -0.422   9.705   0.203  1.1038 -1.1888  1.1820
  733MOL0     H98926  -0.428   9.693   0.023  0.5481 -0.1099  0.2284
  733MOL0     H98927  -0.316   9.940   0.155  1.7449 -0.2681 -1.1445
  733MOL0     H98928  -0.345   9.913  -0.014  2.0888 -2.8959  0.4168
  733MOL0     H98929  -0.512  10.052   0.050  0.5267 -1.3802 -1.8956
  733MOL0     H98930  -0.538   9.966   0.209 -1.8913  1.6943 -0.0137
  733MOL0     H98931  -0.618   9.859  -0.070  1.8377  1.1767 -0.2224
  733MOL0     H98932  -0.654   9.779   0.077 -1.1192 -0.1351 -0.5253
  733MOL0     H98933  -0.768  10.026  -0.046 -0.8468  1.2700 -0.4843
  733MOL0     H98934  -0.769  10.041   0.120 -0.7913  1.5795 -1.9710
  733MOL0     H98935  -0.889   9.797  -0.020  0.2827 -3.7845  3.6761
  733MOL0     H98936  -0.989   9.931   0.052  0.7182  1.8761 -3.2220
  733MOL0     H98937  -0.170   9.269  -0.002 -1.3869 -1.7101  0.4103
  733MOL0     H98938  -0.084   9.064   0.020  1.5210 -0.0778 -0.8496
  733MOL0     H98939   0.137   8.687  -0.035 -0.3511  1.8544  0.4244
  733MOL0     H98940   0.132   8.461  -0.029  0.2891 -1.3293  0.8182
  733MOL0     H98941   1.155   7.485   0.333  0.5421  1.3935 -1.4368
  733MOL0     H98942   1.332   7.325   0.251  1.6260  1.9003 -2.0470
  733MOL0     H98943   1.653   7.084   0.382 -1.5850  0.9995 -1.8375
  733MOL0     H98944   1.809   6.899   0.344  1.2881  0.3157  0.2643
  733MOL0     H98945   2.194   6.991   0.138 -0.0407  0.1652 -0.5739
  733MOL0     H98946   2.238   7.006   0.306  0.4627 -0.5391 -1.0082
  733MOL0     H98947   2.289   6.763   0.304  0.1610  0.0874 -0.6243
  733MOL0     H98948   2.361   6.846   0.168 -0.1772  0.4206 -3.3542
  733MOL0     H98949   2.176   6.749   0.020  0.3762 -0.7513 -0.0665
  733MOL0     H98950   2.123   6.645   0.158  0.3034 -3.7521 -1.7232
  733MOL0     H98951   2.398   6.618   0.038 -1.1860  1.1231 -0.8479
  733MOL0     H98952   2.258   6.524  -0.010  0.2265 -0.7909  0.3278
  733MOL0     H98953   2.350   6.371   0.387  3.3252 -0.1946 -0.4342
  733MOL0     H98954   2.120   7.183   0.235 -0.2837  1.7892 -1.1309
  733MOL0     H98955   1.968   7.356   0.266  2.2622 -0.5822  1.8027
  734MOL0     O98956   1.510   5.746   5.293  0.3406  0.2953 -0.5225
  734MOL0     C98957   1.572   5.835   5.355  0.7574  0.0159  0.4766
  734MOL0     O98958   1.642   5.820   5.470  0.7602  0.5825 -0.3938
  734MOL0     C98959   1.622   5.704   5.538 -0.7562  0.6031 -0.5366
  734MOL0     C98960   1.496   5.678   5.598  0.5025 -0.5549 -0.9779
  734MOL0     C98961   1.472   5.549   5.649  0.3069  0.2817  0.4764
  734MOL0     C98962   1.570   5.453   5.647 -0.6073  0.2389  0.9757
  734MOL0     O98963   1.549   5.337   5.716 -0.1649 -0.3973  0.2622
  734MOL0     C98964   1.525   5.359   5.852  0.1780 -0.4646 -0.7431
  734MOL0     C98965   1.545   5.235   5.943 -0.3474  1.5568 -0.2317
  734MOL0     C98966   1.458   5.119   5.887  0.0510 -0.0618 -0.3335
  734MOL0     C98967   1.471   4.990   5.980 -0.3906  0.6431  0.8777
  734MOL0     C98968   1.360   4.887   5.958 -0.8568 -0.8724  0.0895
  734MOL0     C98969   1.363   4.775   6.055 -0.0858  0.3657 -1.1961
  734MOL0     C98970   1.460   4.669   6.012  0.3022  0.0058  0.7294
  734MOL0     C98971   1.482   4.553   6.108  1.0091  0.7480 -0.8102
  734MOL0     N98972   1.385   4.543   6.218  0.3006  0.3724 -0.3829
  734MOL0     C98973   1.293   4.440   6.244  0.1420  0.2917 -0.5084
  734MOL0     C98974   1.229   4.479   6.356  0.0860 -0.3289  0.4570
  734MOL0     C98975   1.125   4.409   6.443 -0.4029 -0.4205 -0.2275
  734MOL0     C98976   0.984   4.409   6.398  0.2511 -0.3117  0.2068
  734MOL0     C98977   0.939   4.551   6.352 -0.2385 -0.2767 -0.5030
  734MOL0     C98978   0.801   4.552   6.287  0.6070 -0.1309 -0.2697
  734MOL0     O98979   0.722   4.526   6.408 -0.2285  0.5529  0.1009
  734MOL0     C98980   0.597   4.463   6.392  0.4478  0.0099 -0.0749
  734MOL0     C98981   0.521   4.426   6.282  0.7050 -0.7276  0.3497
  734MOL0     C98982   0.413   4.346   6.275  0.4505 -0.2212 -0.6713
  734MOL0     C98983   0.334   4.346   6.143 -0.6332 -0.2568  0.3373
  734MOL0     C98984   0.362   4.288   6.393  0.0824  0.1442  0.4660
  734MOL0     C98985   0.244   4.201   6.401  0.9009  0.3919 -0.2648
  734MOL0     O98986   0.196   4.182   6.520  0.6863  0.4391 -0.0065
  734MOL0     C98987   0.103   4.081   6.541  0.5308 -0.4263  0.8975
  734MOL0     C98988   0.121   3.968   6.626  0.4717  0.3016  0.0607
  734MOL0     C98989   0.023   3.863   6.649 -0.6701 -0.0746 -1.1613
  734MOL0     C98990  -0.103   3.883   6.607 -0.4310  0.2518 -0.5657
  734MOL0     O98991  -0.196   3.782   6.643  0.1036 -0.7483 -0.5748
  734MOL0     C98992  -0.323   3.837   6.676  0.0937  0.4105  0.1899
  734MOL0     C98993  -0.372   3.762   6.803 -0.3530 -0.9073 -0.5871
  734MOL0     C98994  -0.496   3.832   6.850 -0.1650 -0.0231 -0.1261
  734MOL0     C98995  -0.534   3.785   6.987 -0.5989  0.8835 -0.6713
  734MOL0     C98996  -0.621   3.898   7.043 -0.6238 -0.6536 -0.1405
  734MOL0     C98997  -0.674   3.867   7.186  0.9376 -0.9644 -0.6105
  734MOL0     C98998  -0.780   3.969   7.221  0.0026 -0.0369  0.5044
  734MOL0     C98999  -0.721   4.097   7.285 -0.5537 -0.1012  1.5187
  734MOL0    Cl99000  -0.558   4.101   7.354 -0.5958 -0.0733 -0.2177
  734MOL0     C99001  -0.132   3.997   6.529 -0.1694  0.7502  0.1277
  734MOL0     C99002  -0.034   4.096   6.497  0.9287 -1.0784  0.0462
  734MOL0     O99003   0.206   4.136   6.302  0.4981 -0.1786 -0.1320
  734MOL0     C99004   0.423   4.326   6.515 -0.1588  0.0430 -0.4255
  734MOL0     C99005   0.537   4.411   6.512  0.2463 -0.1453 -0.1345
  734MOL0     N99006   1.291   4.600   6.397 -1.0247 -0.9574 -0.7379
  734MOL0     N99007   1.394   4.626   6.327 -0.3968 -0.0261  0.1801
  734MOL0     C99008   1.698   5.487   5.589 -1.1539 -0.2870 -0.7544
  734MOL0     C99009   1.725   5.606   5.535 -0.4474  0.0301  0.3773
  734MOL0     C99010   1.553   5.974   5.319 -1.3452 -1.3599 -0.0048
  734MOL0     C99011   1.505   6.021   5.195  1.1271  0.4378 -0.8488
  734MOL0     C99012   1.501   6.155   5.159 -0.4899 -0.2857 -0.3278
  734MOL0     C99013   1.553   6.249   5.252  0.5881  0.3492  0.2935
  734MOL0     O99014   1.541   6.384   5.214  0.8940 -0.0616 -0.1067
  734MOL0     C99015   1.495   6.476   5.313  0.1781 -0.0396 -0.3193
  734MOL0     C99016   1.434   6.595   5.241 -0.2354 -0.1518  0.1410
  734MOL0     C99017   1.408   6.720   5.322  0.7666  0.4166  0.3309
  734MOL0     C99018   1.334   6.696   5.452  0.8081  1.2825 -0.3253
  734MOL0     C99019   1.190   6.639   5.444 -0.3424 -0.8113  0.8592
  734MOL0     C99020   1.074   6.607   5.428  0.7476  0.7180  0.4995
  734MOL0     C99021   1.604   6.211   5.378  0.6420  0.3174 -0.1098
  734MOL0     C99022   1.603   6.077   5.414  0.5134 -0.3718  0.4528
  734MOL0     H99023   1.413   5.747   5.587  0.0348 -0.7330  1.0725
  734MOL0     H99024   1.373   5.544   5.693 -1.6142  2.5971 -3.0797
  734MOL0     H99025   1.602   5.424   5.894 -0.7017 -0.7817  1.5094
  734MOL0     H99026   1.423   5.398   5.859  1.0195  2.0043 -1.3954
  734MOL0     H99027   1.652   5.212   5.948 -0.9077 -1.1761  1.5298
  734MOL0     H99028   1.510   5.245   6.047 -0.1719 -3.9257  0.6131
  734MOL0     H99029   1.352   5.144   5.878  0.1841  0.0862 -1.7269
  734MOL0     H99030   1.486   5.088   5.786 -4.0362 -1.2183 -1.2791
  734MOL0     H99031   1.572   4.952   5.966 -1.0117 -0.8935  0.3568
  734MOL0     H99032   1.477   5.017   6.086 -0.5969  3.1245  0.3379
  734MOL0     H99033   1.266   4.943   5.970  0.2733  1.8953 -2.6532
  734MOL0     H99034   1.343   4.844   5.859  1.1131 -2.0342  0.2138
  734MOL0     H99035   1.380   4.808   6.158 -2.7526 -0.4494 -0.4389
  734MOL0     H99036   1.265   4.729   6.045 -0.7325  1.5860 -0.7837
  734MOL0     H99037   1.420   4.628   5.918 -2.1214  2.1386  0.6988
  734MOL0     H99038   1.554   4.723   5.995  0.4906 -0.8819 -1.3720
  734MOL0     H99039   1.576   4.574   6.160 -0.7106  2.0082  2.0608
  734MOL0     H99040   1.490   4.460   6.051 -0.3301 -1.2664  1.9853
  734MOL0     H99041   1.281   4.347   6.190  2.2548 -0.8811  0.9459
  734MOL0     H99042   1.164   4.309   6.464  0.3625 -0.6261 -2.3391
  734MOL0     H99043   1.126   4.466   6.536  1.5127 -1.5421  0.5016
  734MOL0     H99044   0.913   4.364   6.467  0.1031  3.5070  2.8720
  734MOL0     H99045   0.973   4.336   6.318  0.0985 -1.6858  1.4532
  734MOL0     H99046   1.002   4.587   6.269 -3.2093  0.3563 -2.6781
  734MOL0     H99047   0.950   4.628   6.429 -0.3453 -2.5700  1.9031
  734MOL0     H99048   0.793   4.484   6.201  0.9013 -1.0276  0.3964
  734MOL0     H99049   0.782   4.649   6.241  1.0813 -0.6435 -1.5954
  734MOL0     H99050   0.551   4.466   6.186 -0.6617  3.5226  1.4576
  734MOL0     H99051   0.325   4.244   6.107 -1.2779  0.5083 -1.8276
  734MOL0     H99052   0.231   4.384   6.151 -2.0147 -3.6967  0.5801
  734MOL0     H99053   0.375   4.401   6.058 -2.5938 -0.3133 -0.7014
  734MOL0     H99054   0.217   3.951   6.672  0.2024 -1.7443 -0.0163
  734MOL0     H99055   0.050   3.774   6.705 -0.0870  0.6725 -0.2223
  734MOL0     H99056  -0.333   3.945   6.691  0.1099  0.0984  3.1701
  734MOL0     H99057  -0.390   3.798   6.599  0.4646  0.8355 -0.3523
  734MOL0     H99058  -0.390   3.659   6.771 -0.0612 -1.1529  0.0219
  734MOL0     H99059  -0.295   3.758   6.881 -0.4193 -1.1889 -0.5349
  734MOL0     H99060  -0.575   3.815   6.776 -0.8781 -0.6310  0.7576
  734MOL0     H99061  -0.468   3.938   6.843  5.0479 -1.0691  0.9948
  734MOL0     H99062  -0.585   3.689   6.969  1.3040 -0.1670 -0.6877
  734MOL0     H99063  -0.453   3.768   7.058  0.7360 -1.4104 -2.5781
  734MOL0     H99064  -0.701   3.926   6.974  1.2153  0.8395 -1.7834
  734MOL0     H99065  -0.563   3.991   7.039  1.8019 -2.1005 -0.3838
  734MOL0     H99066  -0.732   3.775   7.176  1.1039 -0.9766 -1.4948
  734MOL0     H99067  -0.606   3.846   7.269 -0.6200  2.2860  1.6866
  734MOL0     H99068  -0.840   3.912   7.292 -1.6684 -0.8468 -1.4384
  734MOL0     H99069  -0.849   3.999   7.141 -1.0635 -0.7789  1.1306
  734MOL0     H99070  -0.792   4.141   7.355 -1.8296 -0.5175  0.5278
  734MOL0     H99071  -0.723   4.175   7.208 -1.2012 -2.4040 -0.9626
  734MOL0     H99072  -0.235   4.007   6.495  0.2200 -2.5250 -2.5130
  734MOL0     H99073  -0.053   4.181   6.433 -0.5559 -2.4267 -1.3873
  734MOL0     H99074   0.407   4.276   6.610 -1.8622 -1.1499 -1.2833
  734MOL0     H99075   0.589   4.447   6.600  0.1116  1.0972 -0.5429
  734MOL0     H99076   1.768   5.404   5.581 -1.6339 -1.1813  2.5445
  734MOL0     H99077   1.814   5.632   5.480 -1.3636 -2.0810 -2.3306
  734MOL0     H99078   1.467   5.943   5.131 -2.5121  0.9576  0.4423
  734MOL0     H99079   1.462   6.203   5.069 -2.4190  0.1099  0.6731
  734MOL0     H99080   1.412   6.424   5.361  0.0873  0.4139  0.0126
  734MOL0     H99081   1.572   6.505   5.385  1.0672  0.6526 -1.5188
  734MOL0     H99082   1.337   6.561   5.204 -1.5087 -2.7902  5.0125
  734MOL0     H99083   1.482   6.629   5.148 -3.5601  0.1568 -1.6176
  734MOL0     H99084   1.334   6.763   5.254  1.2747  2.2135  0.8675
  734MOL0     H99085   1.501   6.776   5.338  3.5894 -3.7040  0.0192
  734MOL0     H99086   1.331   6.790   5.509  1.3528  0.6049  0.8430
  734MOL0     H99087   1.370   6.613   5.512  1.3408 -0.0315 -2.3545
  734MOL0     H99088   0.971   6.585   5.407  0.2272  1.2498  2.2865
  734MOL0     H99089   1.634   6.290   5.447  0.2992 -1.7580  2.5565
  734MOL0     H99090   1.644   6.043   5.509 -2.4176 -0.6508  1.7165
  735MOL0     O99091   5.811   4.417   7.203 -0.2024 -0.0978  0.3738
  735MOL0     C99092   5.782   4.322   7.282  1.0670 -0.4885  0.7895
  735MOL0     O99093   5.706   4.204   7.252  0.0209  0.0914 -0.1208
  735MOL0     C99094   5.705   4.162   7.124  1.1367  0.3379  1.7836
  735MOL0     C99095   5.694   4.021   7.116 -0.4786  0.5149 -0.0217
  735MOL0     C99096   5.701   3.957   6.992 -0.2257  0.4731  0.9147
  735MOL0     C99097   5.682   4.028   6.865 -0.3026  0.4325 -0.2490
  735MOL0     O99098   5.691   3.958   6.747 -0.0967 -0.4230 -0.0642
  735MOL0     C99099   5.668   4.026   6.618 -0.5513  0.0354  0.0208
  735MOL0     C99100   5.687   3.917   6.505 -0.1741 -0.1571 -0.7561
  735MOL0     C99101   5.644   3.947   6.360 -0.5804 -0.7811  1.1273
  735MOL0     C99102   5.696   4.083   6.311  0.7283 -0.1841  0.4696
  735MOL0     C99103   5.659   4.104   6.171 -1.3858 -0.7625  0.0113
  735MOL0     C99104   5.715   4.239   6.118  0.2184  0.4103 -0.2659
  735MOL0     C99105   5.670   4.277   5.974  0.0225 -0.1606  0.0658
  735MOL0     C99106   5.519   4.288   5.956  0.7494 -0.3818  0.2653
  735MOL0     N99107   5.459   4.340   6.074 -0.0328  0.4577 -0.7187
  735MOL0     C99108   5.482   4.465   6.128  0.3152 -0.3842 -0.7430
  735MOL0     C99109   5.387   4.482   6.223  0.0028  0.3349  0.5222
  735MOL0     C99110   5.365   4.615   6.286 -0.1157  0.8675  0.1519
  735MOL0     C99111   5.313   4.610   6.429  0.1172  0.1287  0.4018
  735MOL0     C99112   5.435   4.587   6.522  0.4798 -0.1927 -0.3516
  735MOL0     C99113   5.388   4.577   6.672  0.2217 -1.6831 -0.4621
  735MOL0     O99114   5.505   4.583   6.755 -0.2283  0.1768 -0.3111
  735MOL0     C99115   5.486   4.584   6.895  0.7278  1.0574 -0.0755
  735MOL0     C99116   5.592   4.631   6.972  0.2772  0.8697 -1.3288
  735MOL0     C99117   5.582   4.659   7.108  0.4076 -0.4409 -0.0082
  735MOL0     C99118   5.703   4.728   7.178  0.2108  0.5366  0.2021
  735MOL0     C99119   5.481   4.601   7.183 -0.2093 -0.3788  0.0567
  735MOL0     C99120   5.458   4.614   7.336 -0.2069  0.5541 -0.1328
  735MOL0     O99121   5.372   4.529   7.396 -0.8492  0.0198  0.0289
  735MOL0     C99122   5.356   4.524   7.534 -0.0562  0.8889  0.1084
  735MOL0     C99123   5.467   4.532   7.622  0.3833 -0.3358 -0.8610
  735MOL0     C99124   5.451   4.515   7.757 -0.9607 -0.1297  0.1659
  735MOL0     C99125   5.327   4.481   7.811  0.3818 -0.4742 -0.7326
  735MOL0     O99126   5.304   4.452   7.949  0.0760  0.2932 -0.2368
  735MOL0     C99127   5.417   4.454   8.024 -1.1264  1.0120 -0.4203
  735MOL0     C99128   5.383   4.445   8.171  0.0994 -0.4317  0.8496
  735MOL0     C99129   5.510   4.445   8.264 -0.3974  0.5363 -1.0037
  735MOL0     C99130   5.465   4.448   8.411 -0.1742  0.0548 -0.3993
  735MOL0     C99131   5.580   4.482   8.508 -0.9195  0.4264 -0.9757
  735MOL0     C99132   5.673   4.364   8.507 -1.5617 -0.5430 -0.1025
  735MOL0     C99133   5.818   4.388   8.577 -0.9043 -0.1861  0.1139
  735MOL0     C99134   5.875   4.254   8.630 -0.2222 -0.7578  0.1883
  735MOL0    Cl99135   5.747   4.138   8.708 -0.3762  0.0218 -0.4397
  735MOL0     C99136   5.217   4.481   7.723 -0.1752 -0.1517  0.1628
  735MOL0     C99137   5.227   4.506   7.592 -0.0167 -0.7424  0.2636
  735MOL0     O99138   5.537   4.697   7.394 -0.3961  0.6454  0.1974
  735MOL0     C99139   5.387   4.529   7.118  0.4036  0.1851  0.6091
  735MOL0     C99140   5.386   4.525   6.977  0.0848  0.4641 -0.0584
  735MOL0     N99141   5.302   4.374   6.225 -0.0455  0.0002  0.4295
  735MOL0     N99142   5.348   4.287   6.135  0.1329 -0.8753  0.5527
  735MOL0     C99143   5.668   4.172   6.876 -0.1881  0.2909 -0.1831
  735MOL0     C99144   5.679   4.233   7.006 -0.2931 -0.1360 -0.9131
  735MOL0     C99145   5.789   4.351   7.429  0.3729 -0.0644  0.0463
  735MOL0     C99146   5.838   4.478   7.473  0.1962 -0.1610  0.7026
  735MOL0     C99147   5.848   4.498   7.610  0.9623  0.2795 -0.0463
  735MOL0     C99148   5.799   4.409   7.712 -0.5193  0.0571  0.2791
  735MOL0     O99149   5.803   4.429   7.842 -0.2284 -0.0587 -0.1458
  735MOL0     C99150   5.852   4.555   7.884  0.1733 -0.4457 -0.1786
  735MOL0     C99151   5.845   4.545   8.031 -0.6315 -0.2218 -0.5374
  735MOL0     C99152   5.918   4.670   8.099  0.9440 -0.9728 -0.1079
  735MOL0     C99153   5.860   4.807   8.075 -0.0080  0.3686 -1.0286
  735MOL0     C99154   5.712   4.820   8.107 -0.5450  0.3685 -0.3692
  735MOL0     C99155   5.590   4.814   8.117 -0.5843 -0.0907  0.1568
  735MOL0     C99156   5.735   4.289   7.668 -0.1726  0.0318  0.6385
  735MOL0     C99157   5.727   4.264   7.529  0.0573 -0.6922  0.4197
  735MOL0     H99158   5.716   3.967   7.208  0.5185  1.4417  0.3036
  735MOL0     H99159   5.708   3.849   6.991  3.7989  0.5818  0.0875
  735MOL0     H99160   5.570   4.074   6.614 -1.2865 -1.5183 -1.3015
  735MOL0     H99161   5.740   4.105   6.593  1.2734 -1.9125 -1.1725
  735MOL0     H99162   5.795   3.905   6.507 -0.0141  0.9411  2.2311
  735MOL0     H99163   5.648   3.824   6.548  2.0057 -0.7950 -0.0559
  735MOL0     H99164   5.665   3.869   6.286  0.0158 -0.2767  0.7509
  735MOL0     H99165   5.535   3.955   6.369 -0.4696  2.7645  0.5604
  735MOL0     H99166   5.650   4.164   6.369 -0.2657  1.6088 -2.6200
  735MOL0     H99167   5.803   4.106   6.303  0.5063  2.5425  3.3403
  735MOL0     H99168   5.700   4.019   6.116 -1.1635 -0.3767 -0.4252
  735MOL0     H99169   5.552   4.114   6.150 -0.8523  2.9186 -1.7427
  735MOL0     H99170   5.698   4.314   6.195  2.8294 -0.8614  1.7149
  735MOL0     H99171   5.825   4.235   6.113  0.2585 -1.1981  0.9624
  735MOL0     H99172   5.721   4.367   5.937 -1.5099  0.8046  0.1903
  735MOL0     H99173   5.700   4.190   5.915  4.7073  0.8603  0.5428
  735MOL0     H99174   5.473   4.192   5.931  0.6407  0.0207 -1.1923
  735MOL0     H99175   5.488   4.363   5.883 -0.2589 -0.1892  0.8611
  735MOL0     H99176   5.548   4.541   6.089  1.5310 -1.8527 -1.6739
  735MOL0     H99177   5.449   4.684   6.287 -0.4237  1.2506  1.1899
  735MOL0     H99178   5.291   4.664   6.221  0.6522  2.3642  0.3633
  735MOL0     H99179   5.248   4.526   6.454 -0.6896  0.8826  0.8611
  735MOL0     H99180   5.268   4.706   6.456  1.5041  1.1149 -0.6607
  735MOL0     H99181   5.497   4.673   6.497 -1.2144  1.5853  1.2380
  735MOL0     H99182   5.482   4.494   6.488  0.6836  0.5648 -2.2492
  735MOL0     H99183   5.332   4.484   6.685 -0.5684 -1.3868 -1.5616
  735MOL0     H99184   5.324   4.664   6.687 -0.1914 -1.4826 -2.9632
  735MOL0     H99185   5.684   4.653   6.920 -0.1184  1.3313 -1.8401
  735MOL0     H99186   5.675   4.830   7.207  2.0251  1.3462 -0.7516
  735MOL0     H99187   5.727   4.660   7.260 -3.0172 -1.2146 -0.1438
  735MOL0     H99188   5.790   4.739   7.114  1.8341 -1.8240  1.8544
  735MOL0     H99189   5.570   4.542   7.587  1.0296  2.2061  1.4401
  735MOL0     H99190   5.548   4.531   7.803  0.7965  1.1428 -3.5929
  735MOL0     H99191   5.489   4.374   8.006 -2.5613 -0.6541  0.8284
  735MOL0     H99192   5.463   4.550   7.999  0.2887 -0.0252 -1.9710
  735MOL0     H99193   5.321   4.527   8.207 -0.2957 -0.5798  0.5240
  735MOL0     H99194   5.331   4.350   8.188 -1.9692  0.1299 -1.6411
  735MOL0     H99195   5.573   4.531   8.238  1.9469 -0.9277 -0.4907
  735MOL0     H99196   5.571   4.354   8.258 -0.6522  0.0337  2.0675
  735MOL0     H99197   5.382   4.519   8.417  0.5754  0.9504 -0.4638
  735MOL0     H99198   5.427   4.349   8.440  0.2717  0.3126  1.1383
  735MOL0     H99199   5.532   4.511   8.602 -1.1805  1.7934 -1.4938
  735MOL0     H99200   5.632   4.576   8.487 -0.9284  0.6736  0.0669
  735MOL0     H99201   5.617   4.293   8.569  0.1740 -1.2899  0.6708
  735MOL0     H99202   5.688   4.320   8.408 -0.1049 -1.1070  0.3509
  735MOL0     H99203   5.801   4.458   8.659 -0.8038  0.7642 -0.6576
  735MOL0     H99204   5.885   4.428   8.501 -0.4490 -1.9112 -0.4243
  735MOL0     H99205   5.954   4.258   8.706 -0.3298 -3.2261  0.4934
  735MOL0     H99206   5.916   4.214   8.537  0.2162 -1.0066  0.4884
  735MOL0     H99207   5.122   4.445   7.761  0.1037  1.2607  2.4166
  735MOL0     H99208   5.142   4.496   7.527 -0.0397 -5.0965  0.6906
  735MOL0     H99209   5.308   4.486   7.178 -3.2792  1.8629 -2.5329
  735MOL0     H99210   5.298   4.477   6.936 -0.8472  1.9479  0.1296
  735MOL0     H99211   5.657   4.239   6.791  5.5846 -0.0347 -1.5872
  735MOL0     H99212   5.679   4.340   7.020 -0.3778 -0.3995  1.6073
  735MOL0     H99213   5.869   4.558   7.406  2.1094 -0.1402  1.5450
  735MOL0     H99214   5.886   4.600   7.617 -0.0995  1.0982 -3.6622
  735MOL0     H99215   5.955   4.576   7.853  0.0093  0.9928  0.1647
  735MOL0     H99216   5.790   4.639   7.851 -1.5468 -1.4593  0.3899
  735MOL0     H99217   5.920   4.468   8.052 -0.3999 -0.1895 -1.1886
  735MOL0     H99218   5.752   4.508   8.074 -0.0196  0.1714  1.1768
  735MOL0     H99219   6.017   4.679   8.053  1.9769  3.3366  2.3521
  735MOL0     H99220   5.916   4.657   8.208 -3.1037  0.6628  0.1931
  735MOL0     H99221   5.866   4.838   7.971 -0.7226 -0.2231 -1.2560
  735MOL0     H99222   5.933   4.878   8.116 -1.8523  0.8333  1.7818
  735MOL0     H99223   5.492   4.787   8.151 -0.0636 -0.7819  1.1886
  735MOL0     H99224   5.699   4.211   7.735  0.3512 -1.4323 -0.7340
  735MOL0     H99225   5.676   4.182   7.480  1.0030 -0.6578 -0.6567
  736MOL0     O99226   2.627   5.813   6.925 -0.5510 -0.7440 -0.0069
  736MOL0     C99227   2.657   5.916   6.870  0.2130  0.5092  0.7877
  736MOL0     O99228   2.783   5.944   6.815  0.4255  0.3019 -0.2702
  736MOL0     C99229   2.901   5.881   6.849  0.2650 -0.6235  0.5998
  736MOL0     C99230   3.015   5.944   6.797 -0.0477 -0.1165  0.5247
  736MOL0     C99231   3.142   5.890   6.808 -0.4408 -0.2088 -0.6927
  736MOL0     C99232   3.155   5.769   6.882  0.2549 -0.0000  1.9810
  736MOL0     O99233   3.273   5.707   6.881 -0.7451 -0.5099  0.1646
  736MOL0     C99234   3.370   5.802   6.929 -0.4012  0.7114 -0.9712
  736MOL0     C99235   3.487   5.749   7.007 -0.3160  0.8099 -0.2535
  736MOL0     C99236   3.588   5.674   6.910 -0.0765 -0.0053  0.1156
  736MOL0     C99237   3.732   5.669   6.970  0.0568  0.6184 -0.2620
  736MOL0     C99238   3.815   5.565   6.888 -0.0133 -0.3940  0.4329
  736MOL0     C99239   3.937   5.516   6.971  0.1760 -0.0238  0.0800
  736MOL0     C99240   4.030   5.630   7.026 -0.2415 -0.4913 -0.0999
  736MOL0     C99241   4.164   5.560   7.067 -1.6060  0.4043 -0.6112
  736MOL0     N99242   4.253   5.526   6.945 -0.0440 -0.1667 -0.6299
  736MOL0     C99243   4.282   5.613   6.849 -0.0417 -0.4839  0.7103
  736MOL0     C99244   4.318   5.535   6.744  0.1124 -1.2804  0.6180
  736MOL0     C99245   4.378   5.594   6.613 -0.4250  0.8963 -1.3772
  736MOL0     C99246   4.492   5.688   6.630  0.4433 -0.2358  0.5259
  736MOL0     C99247   4.544   5.745   6.485 -0.5546 -0.7224 -0.8205
  736MOL0     C99248   4.688   5.727   6.480 -0.5118 -0.1499 -0.1045
  736MOL0     O99249   4.750   5.833   6.550  0.2548  0.2879  0.8113
  736MOL0     C99250   4.877   5.813   6.592  0.0007 -0.0676  0.1181
  736MOL0     C99251   4.914   5.704   6.663  0.5105  0.1096 -0.4849
  736MOL0     C99252   5.039   5.676   6.701 -0.2118  0.4286 -0.6640
  736MOL0     C99253   5.049   5.555   6.789 -0.0148  0.6385 -1.1932
  736MOL0     C99254   5.147   5.771   6.674 -0.3917  0.3478 -0.2107
  736MOL0     C99255   5.287   5.758   6.731  0.6286 -0.3130  0.0696
  736MOL0     O99256   5.319   5.640   6.802  0.5234  0.5264 -0.4423
  736MOL0     C99257   5.447   5.598   6.831  0.5508 -0.9335  0.1810
  736MOL0     C99258   5.473   5.573   6.970  0.6156  0.1472 -0.3513
  736MOL0     C99259   5.600   5.518   7.006 -0.5285  0.2953  0.4033
  736MOL0     C99260   5.689   5.477   6.902  0.2959  0.1882  0.1449
  736MOL0     O99261   5.797   5.398   6.943  0.0060  0.2037 -0.3207
  736MOL0     C99262   5.918   5.408   6.865 -1.5869  0.1471  0.4747
  736MOL0     C99263   6.024   5.361   6.956  0.1064  1.3379 -0.9231
  736MOL0     C99264   6.164   5.325   6.893  0.3559 -0.3145 -1.0615
  736MOL0     C99265   6.174   5.205   6.789 -0.9917  0.6506 -1.1011
  736MOL0     C99266   6.171   5.078   6.856 -0.0043  0.6294  0.5301
  736MOL0     C99267   6.191   4.975   6.757 -0.4809  0.0935 -0.2932
  736MOL0     C99268   6.064   4.931   6.678 -0.1594  0.1300 -1.4167
  736MOL0     C99269   5.969   4.833   6.752 -0.5065  0.2036  0.6830
  736MOL0    Cl99270   5.845   4.800   6.632 -0.5964  0.1090 -0.0347
  736MOL0     C99271   5.666   5.526   6.767  0.4906 -0.4593 -0.8101
  736MOL0     C99272   5.547   5.581   6.731  0.4885  0.2017  0.1702
  736MOL0     O99273   5.366   5.847   6.706 -0.6702  0.2842  0.1290
  736MOL0     C99274   5.106   5.888   6.613  0.1103  0.3829 -0.1767
  736MOL0     C99275   4.981   5.904   6.563 -1.1728 -0.5740  0.9610
  736MOL0     N99276   4.318   5.403   6.778  0.1016 -0.6130  0.1191
  736MOL0     N99277   4.269   5.392   6.893  0.4320 -1.2749  0.1013
  736MOL0     C99278   3.043   5.705   6.926  0.0000 -0.0802 -0.0345
  736MOL0     C99279   2.912   5.758   6.916 -0.4323  0.9579  0.2796
  736MOL0     C99280   2.542   6.000   6.826 -0.0954  1.3063 -0.0519
  736MOL0     C99281   2.412   5.979   6.873  0.5535  0.4018 -0.1752
  736MOL0     C99282   2.297   6.032   6.813  0.9142 -0.3453 -0.9462
  736MOL0     C99283   2.313   6.124   6.712 -0.1989 -0.4478  0.3815
  736MOL0     O99284   2.211   6.178   6.635  0.2727 -0.5980  0.0684
  736MOL0     C99285   2.071   6.145   6.676 -1.0146 -0.1601  0.3148
  736MOL0     C99286   1.990   6.207   6.564  0.2780 -0.6138  0.1790
  736MOL0     C99287   1.958   6.115   6.448  0.1772 -0.3450  0.1489
  736MOL0     C99288   1.901   5.987   6.492 -0.6589 -0.5280 -0.5821
  736MOL0     C99289   1.791   5.987   6.591 -0.0797  0.5370  0.2158
  736MOL0     C99290   1.704   5.969   6.670  0.0862  0.4474 -0.1528
  736MOL0     C99291   2.438   6.154   6.671  0.2185  1.0409  0.1380
  736MOL0     C99292   2.560   6.093   6.730 -0.0498  0.1678  0.5897
  736MOL0     H99293   3.012   6.042   6.749  2.3910  1.4532  3.2340
  736MOL0     H99294   3.227   5.932   6.755 -0.7589 -0.9462 -1.8291
  736MOL0     H99295   3.410   5.856   6.842  1.7057  0.3696 -0.2647
  736MOL0     H99296   3.326   5.881   6.990  0.3835  2.8204 -2.9539
  736MOL0     H99297   3.539   5.828   7.061  0.2749 -0.5757  1.3067
  736MOL0     H99298   3.449   5.680   7.083 -1.6614  1.3229 -0.4364
  736MOL0     H99299   3.556   5.573   6.882  0.7977 -0.7530  1.6890
  736MOL0     H99300   3.590   5.741   6.823 -1.7422  1.8088  1.3943
  736MOL0     H99301   3.753   5.776   6.972 -2.9683  1.3193 -0.0007
  736MOL0     H99302   3.725   5.635   7.074  2.6948 -0.3828 -0.3402
  736MOL0     H99303   3.750   5.482   6.859 -2.6972  1.2333  1.4690
  736MOL0     H99304   3.849   5.616   6.798 -0.7400  1.0115  0.9371
  736MOL0     H99305   3.893   5.460   7.054 -0.6068  3.7988  2.5429
  736MOL0     H99306   3.988   5.441   6.911 -2.3076 -4.7028  3.2319
  736MOL0     H99307   4.050   5.700   6.945  1.5158 -0.7738  0.0542
  736MOL0     H99308   3.990   5.689   7.109 -0.8013 -2.5284  1.1352
  736MOL0     H99309   4.143   5.460   7.106  0.5670  0.5510  1.1338
  736MOL0     H99310   4.227   5.615   7.139  0.2720 -1.2272 -0.9450
  736MOL0     H99311   4.265   5.718   6.871  1.0576 -0.5309  1.8667
  736MOL0     H99312   4.413   5.516   6.545  2.7020  1.6160 -0.7598
  736MOL0     H99313   4.300   5.656   6.568 -1.5106  1.0421  0.5736
  736MOL0     H99314   4.567   5.628   6.683 -1.0115 -2.0219  0.6475
  736MOL0     H99315   4.461   5.773   6.691 -0.3092  1.3640 -1.9265
  736MOL0     H99316   4.531   5.853   6.469  3.0147  0.1179  0.9851
  736MOL0     H99317   4.489   5.694   6.406 -1.2548 -2.3487  0.6548
  736MOL0     H99318   4.729   5.731   6.379  0.4038  0.5325  0.2759
  736MOL0     H99319   4.713   5.627   6.518  1.0188  0.6216  1.0154
  736MOL0     H99320   4.828   5.642   6.686  1.3195 -0.9335 -0.1967
  736MOL0     H99321   5.077   5.589   6.889  2.8756  2.5599 -2.4965
  736MOL0     H99322   4.957   5.496   6.784  1.1551 -1.3139 -0.9143
  736MOL0     H99323   5.132   5.490   6.761  1.1419  0.0743  2.9065
  736MOL0     H99324   5.391   5.598   7.038 -1.4941 -1.9859 -1.9235
  736MOL0     H99325   5.625   5.505   7.111 -0.0989 -0.2877  0.2385
  736MOL0     H99326   5.922   5.344   6.776  0.4428  0.4603  0.2761
  736MOL0     H99327   5.936   5.511   6.832  2.0083 -0.1367  1.1137
  736MOL0     H99328   6.033   5.443   7.029 -0.5229  1.2245 -0.7109
  736MOL0     H99329   5.991   5.273   7.012  1.5245 -0.1405 -2.3164
  736MOL0     H99330   6.232   5.308   6.976  5.0553  0.6646 -4.3206
  736MOL0     H99331   6.210   5.413   6.849  2.2797 -1.6861 -1.9200
  736MOL0     H99332   6.101   5.210   6.708 -0.4581  3.3933 -1.5086
  736MOL0     H99333   6.270   5.212   6.737  0.2178 -3.6905  0.1443
  736MOL0     H99334   6.077   5.068   6.911 -1.2291  0.0350 -1.5747
  736MOL0     H99335   6.259   5.081   6.922 -0.9390 -1.4097  1.9617
  736MOL0     H99336   6.271   4.993   6.683 -0.1125 -2.9163 -0.7523
  736MOL0     H99337   6.225   4.897   6.826 -3.2155 -0.5201  0.4590
  736MOL0     H99338   6.103   4.892   6.583 -0.7439  1.9342 -2.4626
  736MOL0     H99339   6.009   5.021   6.647  1.6063  1.8547  0.1723
  736MOL0     H99340   5.917   4.888   6.831  0.9165  0.5690  1.4044
  736MOL0     H99341   6.014   4.737   6.779  0.0217  0.2387 -0.0502
  736MOL0     H99342   5.748   5.504   6.699  0.6244 -0.1889 -0.7411
  736MOL0     H99343   5.525   5.609   6.628 -0.1903 -1.9401 -0.3074
  736MOL0     H99344   5.178   5.969   6.605  2.1331 -0.7433  3.7773
  736MOL0     H99345   4.958   5.992   6.504  0.4613  1.0991  2.7034
  736MOL0     H99346   3.042   5.608   6.976 -1.3927  0.5691  1.2940
  736MOL0     H99347   2.836   5.697   6.964  1.2597  0.0962  1.9966
  736MOL0     H99348   2.397   5.909   6.954  0.8673  0.1095 -0.3697
  736MOL0     H99349   2.204   6.001   6.858  2.1822 -1.4278  1.0642
  736MOL0     H99350   2.045   6.039   6.684 -2.4334 -0.0120 -1.6013
  736MOL0     H99351   2.069   6.206   6.767  0.0725 -1.3200  1.1328
  736MOL0     H99352   2.047   6.291   6.524  1.4730 -1.3769  0.2341
  736MOL0     H99353   1.894   6.238   6.608 -0.0231 -3.1532  1.5262
  736MOL0     H99354   2.051   6.080   6.402 -1.0957 -2.9281 -0.6681
  736MOL0     H99355   1.889   6.163   6.378  1.1252 -1.5281 -1.6888
  736MOL0     H99356   1.979   5.921   6.533 -2.4224 -0.9490  2.3755
  736MOL0     H99357   1.851   5.932   6.412 -0.3712  1.1155 -1.9346
  736MOL0     H99358   1.629   5.969   6.747 -1.1561  0.5946 -1.3172
  736MOL0     H99359   2.445   6.219   6.584  2.3785 -1.5442 -1.8257
  736MOL0     H99360   2.656   6.120   6.687 -0.0637  0.5632  0.8064
  737MOL0     O99361   1.756  10.111   7.474 -0.7197 -0.0009  0.0308
  737MOL0     C99362   1.812  10.092   7.364  0.4810  0.8138 -0.2022
  737MOL0     O99363   1.821  10.183   7.266  0.0916  0.1901  0.2865
  737MOL0     C99364   1.745  10.295   7.275 -0.0067 -0.0569  0.2019
  737MOL0     C99365   1.781  10.418   7.349 -0.2034  0.7371  0.2819
  737MOL0     C99366   1.702  10.528   7.341 -0.3344 -0.5755  0.0735
  737MOL0     C99367   1.584  10.523   7.274 -0.1258 -1.5540 -0.8762
  737MOL0     O99368   1.517  10.647   7.282  0.3311 -0.2371 -0.1649
  737MOL0     C99369   1.376  10.644   7.239 -0.5256 -0.0682  0.8273
  737MOL0     C99370   1.361  10.664   7.082  0.1199  0.1098  0.1482
  737MOL0     C99371   1.447  10.747   6.993  0.3633  0.7133  0.0940
  737MOL0     C99372   1.503  10.675   6.867 -0.1065  0.2779 -0.3957
  737MOL0     C99373   1.403  10.632   6.757 -0.0752  0.1121 -0.6227
  737MOL0     C99374   1.471  10.590   6.621  0.2226 -0.7416  0.2124
  737MOL0     C99375   1.376  10.554   6.518 -0.1965 -0.4962 -0.9043
  737MOL0     C99376   1.434  10.541   6.375 -0.4349  0.2453  0.1537
  737MOL0     N99377   1.323  10.533   6.280  0.6784  0.4950  0.2027
  737MOL0     C99378   1.209  10.452   6.287  0.2437  0.1289  0.8861
  737MOL0     C99379   1.145  10.464   6.166  0.3023 -0.6035 -0.1429
  737MOL0     C99380   1.012  10.402   6.116 -0.6101  0.2529  0.9214
  737MOL0     C99381   0.904  10.473   6.188  0.1484  0.4724 -0.9749
  737MOL0     C99382   0.770  10.405   6.157  0.3125 -0.2481 -0.5735
  737MOL0     C99383   0.661  10.433   6.271  0.2416  0.6004  0.2731
  737MOL0     O99384   0.703  10.371   6.394  0.0078 -0.7679  0.3717
  737MOL0     C99385   0.600  10.336   6.482  0.6277  0.3284  0.9813
  737MOL0     C99386   0.494  10.420   6.512  0.9401  0.0176  0.4915
  737MOL0     C99387   0.407  10.386   6.617 -0.0546 -1.2016 -0.5071
  737MOL0     C99388   0.296  10.489   6.646  0.2234  0.5496 -0.2954
  737MOL0     C99389   0.417  10.263   6.691 -0.8247  0.3792 -0.4008
  737MOL0     C99390   0.320  10.216   6.800  0.4154  0.6742 -0.2356
  737MOL0     O99391   0.317  10.080   6.810 -0.6555 -0.6815 -0.5738
  737MOL0     C99392   0.246  10.022   6.911 -0.2406 -0.2534 -0.7359
  737MOL0     C99393   0.315   9.920   6.985  0.3117 -0.5507  0.1079
  737MOL0     C99394   0.258   9.863   7.093  0.1929 -1.3963 -0.1423
  737MOL0     C99395   0.139   9.910   7.144  0.3153 -0.5335 -0.9387
  737MOL0     O99396   0.076   9.864   7.267  0.1610  0.7978  0.4651
  737MOL0     C99397   0.163   9.806   7.362 -0.2061 -0.3090  0.2326
  737MOL0     C99398   0.088   9.795   7.500 -0.0298 -0.3413  0.5139
  737MOL0     C99399  -0.026   9.692   7.486 -0.9252  0.1820  0.3788
  737MOL0     C99400  -0.109   9.667   7.612 -0.7131 -0.2669 -0.9202
  737MOL0     C99401  -0.027   9.603   7.733  0.1387  0.3288  0.3359
  737MOL0     C99402  -0.120   9.575   7.860  0.4388  0.2517  0.0189
  737MOL0     C99403  -0.242   9.477   7.855  0.1049  0.4680  0.0211
  737MOL0     C99404  -0.224   9.341   7.784 -0.1393 -0.9642  0.0314
  737MOL0    Cl99405  -0.096   9.259   7.871  0.3026  0.1485  0.1966
  737MOL0     C99406   0.057   9.997   7.072 -0.2802  0.2011  0.6149
  737MOL0     C99407   0.112  10.043   6.949  0.1386 -0.0841 -1.1168
  737MOL0     O99408   0.266  10.298   6.870 -0.7491 -0.3875  0.1171
  737MOL0     C99409   0.532  10.187   6.663 -0.2229 -0.5825  0.3275
  737MOL0     C99410   0.618  10.222   6.558  0.7437 -0.2912 -0.1756
  737MOL0     N99411   1.216  10.554   6.086  0.2878  0.5958 -0.2338
  737MOL0     N99412   1.317  10.601   6.153  0.6871 -0.6236 -0.6516
  737MOL0     C99413   1.535  10.407   7.216  0.6042 -0.0321 -0.3035
  737MOL0     C99414   1.623  10.298   7.203  0.4560  0.6722  0.7048
  737MOL0     C99415   1.898   9.977   7.356  0.1227 -0.5318 -0.6455
  737MOL0     C99416   1.968   9.950   7.236 -0.2722  0.2072 -1.3491
  737MOL0     C99417   2.055   9.837   7.240  0.9856  0.8597  0.3235
  737MOL0     C99418   2.052   9.739   7.337 -0.6251 -0.3430  0.2359
  737MOL0     O99419   2.135   9.637   7.314 -0.0208 -0.5600 -0.7819
  737MOL0     C99420   2.141   9.532   7.415  0.0184  0.4327  0.4611
  737MOL0     C99421   2.201   9.423   7.340 -0.2011  0.1723  0.1945
  737MOL0     C99422   2.101   9.342   7.249 -0.7012  0.4727 -0.2919
  737MOL0     C99423   2.013   9.245   7.328  0.2105  0.7929 -1.1913
  737MOL0     C99424   2.056   9.180   7.456  0.3184  0.6232  0.6087
  737MOL0     C99425   2.101   9.105   7.540 -0.5843  0.9953 -0.0263
  737MOL0     C99426   1.965   9.762   7.451  0.0240 -0.7370  0.0386
  737MOL0     C99427   1.915   9.890   7.469  0.1741 -0.2087 -0.1206
  737MOL0     H99428   1.879  10.418   7.397  0.7449 -1.6577 -1.4406
  737MOL0     H99429   1.725  10.619   7.394  0.0431 -0.9111  0.4965
  737MOL0     H99430   1.326  10.551   7.268  2.5151 -2.0112  0.3445
  737MOL0     H99431   1.330  10.730   7.286  0.0594  0.4094  0.5424
  737MOL0     H99432   1.366  10.565   7.036  0.2086  0.2346 -0.1096
  737MOL0     H99433   1.255  10.691   7.069  0.5083  1.7778  0.1698
  737MOL0     H99434   1.374  10.822   6.960  2.5344  1.8651 -2.4440
  737MOL0     H99435   1.534  10.770   7.054  2.0452 -2.1226 -1.0284
  737MOL0     H99436   1.574  10.746   6.823  1.4850  0.3800  2.1524
  737MOL0     H99437   1.558  10.586   6.898  1.9517  0.8378 -2.1646
  737MOL0     H99438   1.358  10.544   6.803 -0.6956  1.3298  1.2410
  737MOL0     H99439   1.328  10.710   6.739 -0.8897 -0.4469  0.2665
  737MOL0     H99440   1.530  10.676   6.586  0.2761 -0.9659 -0.2515
  737MOL0     H99441   1.540  10.507   6.637  3.5095  1.9897  1.3743
  737MOL0     H99442   1.321  10.465   6.551 -3.5256  2.0014  0.9656
  737MOL0     H99443   1.299  10.632   6.508  1.7131  1.9028  1.4848
  737MOL0     H99444   1.484  10.444   6.364 -0.4214  0.3006 -0.2655
  737MOL0     H99445   1.504  10.622   6.354 -3.1124  3.7931  3.6058
  737MOL0     H99446   1.171  10.394   6.371  2.7501  0.5407  2.4299
  737MOL0     H99447   0.992  10.419   6.010  0.3757  0.7824  0.8051
  737MOL0     H99448   1.012  10.295   6.138 -0.8951  0.1921  0.6319
  737MOL0     H99449   0.913  10.580   6.168  3.7229  1.0431  2.4635
  737MOL0     H99450   0.918  10.452   6.295 -0.1637 -1.3450 -1.2578
  737MOL0     H99451   0.798  10.300   6.144  1.5687 -0.6368  3.7079
  737MOL0     H99452   0.732  10.450   6.065 -2.4908  1.5239  1.3121
  737MOL0     H99453   0.574  10.377   6.237 -0.5661  1.3618  1.0574
  737MOL0     H99454   0.641  10.540   6.279  2.9832  1.0632  2.7712
  737MOL0     H99455   0.490  10.509   6.450  1.9595  0.8810  1.5995
  737MOL0     H99456   0.321  10.535   6.742  2.7654 -3.0301  0.9904
  737MOL0     H99457   0.300  10.570   6.573  1.9582  2.9957  2.3132
  737MOL0     H99458   0.198  10.440   6.655  1.0218 -1.3538 -1.3229
  737MOL0     H99459   0.409   9.891   6.939 -1.0386 -1.3169 -2.3469
  737MOL0     H99460   0.325   9.794   7.143  2.0752  0.7946  0.5694
  737MOL0     H99461   0.190   9.705   7.331 -2.4163 -0.7658 -0.3287
  737MOL0     H99462   0.259   9.859   7.359 -1.0034  1.1323 -0.6745
  737MOL0     H99463   0.151   9.779   7.588 -0.9830 -3.2658  0.7774
  737MOL0     H99464   0.052   9.896   7.526 -1.2601 -0.5087 -0.4785
  737MOL0     H99465   0.005   9.591   7.458 -1.5655 -0.0908  0.6482
  737MOL0     H99466  -0.090   9.730   7.406  1.6130  2.0839 -0.8910
  737MOL0     H99467  -0.158   9.756   7.652  0.0326 -1.1733  2.2188
  737MOL0     H99468  -0.190   9.597   7.586 -2.8390  1.7043  0.0257
  737MOL0     H99469   0.051   9.675   7.761  0.6434  0.0685 -0.3946
  737MOL0     H99470   0.020   9.513   7.694  1.2040  0.8900  0.2889
  737MOL0     H99471  -0.043   9.544   7.932 -0.6195  1.8091  1.9395
  737MOL0     H99472  -0.158   9.671   7.897  0.4989 -1.0684  4.0830
  737MOL0     H99473  -0.318   9.527   7.796 -0.9969 -1.1891 -0.0390
  737MOL0     H99474  -0.272   9.449   7.957  2.1333 -1.3873  0.2076
  737MOL0     H99475  -0.175   9.358   7.688  1.6849  0.2451  1.1151
  737MOL0     H99476  -0.314   9.280   7.767 -1.2615  1.0498 -1.6433
  737MOL0     H99477  -0.049  10.006   7.095 -0.8157  0.0872 -1.6126
  737MOL0     H99478   0.046  10.103   6.887  1.1630  2.1385 -0.1525
  737MOL0     H99479   0.571  10.099   6.712 -1.0579 -0.0466  2.0454
  737MOL0     H99480   0.705  10.160   6.538  1.5461  0.4572  0.9017
  737MOL0     H99481   1.433  10.392   7.181  1.8033 -2.0951 -3.3112
  737MOL0     H99482   1.598  10.208   7.147  2.1685  0.7251 -0.2191
  737MOL0     H99483   1.947  10.014   7.151 -0.6439  1.0338 -0.6485
  737MOL0     H99484   2.107   9.808   7.150  0.8900 -3.0665  1.3541
  737MOL0     H99485   2.209   9.559   7.496  0.9587  0.3033 -0.2710
  737MOL0     H99486   2.045   9.505   7.461  0.4550  0.2368  1.2635
  737MOL0     H99487   2.231   9.356   7.421  0.2669  0.0167 -0.1024
  737MOL0     H99488   2.293   9.456   7.290  0.1254 -0.1260  0.5906
  737MOL0     H99489   2.154   9.282   7.174 -0.0394  1.6770 -0.8227
  737MOL0     H99490   2.046   9.412   7.185  1.3011  0.5001 -2.1062
  737MOL0     H99491   1.977   9.162   7.265 -1.7265 -0.7376  1.6877
  737MOL0     H99492   1.915   9.290   7.350  0.8570  0.8611  1.9263
  737MOL0     H99493   2.149   9.049   7.618  1.7784  1.3698 -1.1122
  737MOL0     H99494   1.952   9.686   7.526  0.4895 -1.7624 -0.8895
  737MOL0     H99495   1.856   9.910   7.558 -0.0913 -1.2748 -0.0451
  738MOL0     O99496   3.194   3.028   4.167  0.4550  0.0728 -0.6283
  738MOL0     C99497   3.181   3.155   4.187  0.0428  0.5803  0.3905
  738MOL0     O99498   3.122   3.240   4.109 -0.2435 -0.4080  0.4414
  738MOL0     C99499   3.027   3.204   4.010  0.3609 -0.1911 -0.0217
  738MOL0     C99500   2.900   3.265   4.001 -0.9342 -0.2046 -0.2285
  738MOL0     C99501   2.814   3.228   3.903 -0.0769  0.5121  0.3286
  738MOL0     C99502   2.852   3.149   3.795 -0.2490 -0.0559 -0.5750
  738MOL0     O99503   2.764   3.112   3.696  0.2995 -0.3260 -0.1389
  738MOL0     C99504   2.619   3.126   3.728 -1.4877 -0.5241 -0.0917
  738MOL0     C99505   2.527   3.040   3.650  0.8095  0.7038 -0.1047
  738MOL0     C99506   2.524   3.093   3.503 -0.2473  0.0551 -0.5181
  738MOL0     C99507   2.419   3.037   3.407  0.6403  0.3686 -0.2039
  738MOL0     C99508   2.459   2.895   3.358  0.1653 -0.7230  0.2647
  738MOL0     C99509   2.417   2.784   3.448 -0.5219  0.3233  0.4260
  738MOL0     C99510   2.433   2.663   3.359  0.5005 -0.0778 -0.5675
  738MOL0     C99511   2.432   2.536   3.439  0.0910  0.5277  0.5811
  738MOL0     N99512   2.312   2.502   3.506 -0.2003 -0.1770 -0.5533
  738MOL0     C99513   2.190   2.484   3.448  0.3261  1.3120  0.6907
  738MOL0     C99514   2.097   2.449   3.539 -0.7128  0.2886 -1.0575
  738MOL0     C99515   1.953   2.397   3.510 -0.0024  1.0131 -0.6455
  738MOL0     C99516   1.856   2.456   3.617 -0.1306 -0.0289  0.1186
  738MOL0     C99517   1.819   2.603   3.616  0.6851  0.2050 -0.6214
  738MOL0     C99518   1.700   2.636   3.714  0.0116 -0.6003 -0.0080
  738MOL0     O99519   1.746   2.593   3.841 -0.4406 -0.0071 -0.3987
  738MOL0     C99520   1.683   2.636   3.958  1.0459  0.7627 -0.5683
  738MOL0     C99521   1.558   2.697   3.958  0.4917  0.9014 -0.8580
  738MOL0     C99522   1.490   2.734   4.072 -0.0640  0.3810 -0.6691
  738MOL0     C99523   1.366   2.811   4.045 -0.6612  0.3376 -0.1811
  738MOL0     C99524   1.544   2.702   4.196 -0.1322 -0.2412  0.0841
  738MOL0     C99525   1.485   2.737   4.333  0.1583 -0.3836  0.3349
  738MOL0     O99526   1.524   2.661   4.441  0.4506  0.4703  0.7464
  738MOL0     C99527   1.478   2.678   4.567  0.0219  0.5165 -0.0528
  738MOL0     C99528   1.351   2.631   4.611  0.6575  0.5857 -0.7380
  738MOL0     C99529   1.310   2.658   4.744  0.0115  0.1822 -0.7410
  738MOL0     C99530   1.390   2.720   4.827 -0.3538 -0.7111 -0.7060
  738MOL0     O99531   1.348   2.759   4.954  0.2006 -0.4110  0.9724
  738MOL0     C99532   1.249   2.863   4.947  0.0783 -0.8271 -0.7022
  738MOL0     C99533   1.129   2.833   5.040  1.0136 -0.1572 -0.1785
  738MOL0     C99534   1.029   2.933   5.031  0.6474 -0.1075 -0.0639
  738MOL0     C99535   0.979   2.970   4.889 -0.5309 -0.0715  0.4100
  738MOL0     C99536   0.827   3.016   4.871 -0.3506 -0.5771 -1.1157
  738MOL0     C99537   0.781   3.060   4.731  0.7860 -0.9608  0.3928
  738MOL0     C99538   0.639   3.118   4.745 -0.1100  0.0968  0.5812
  738MOL0     C99539   0.614   3.204   4.619 -0.1728  0.1264 -0.1391
  738MOL0    Cl99540   0.626   3.103   4.467  0.1309  0.2091 -0.5705
  738MOL0     C99541   1.522   2.753   4.788  0.6558 -1.1913 -0.2472
  738MOL0     C99542   1.567   2.743   4.653 -0.4949  0.0195 -0.0001
  738MOL0     O99543   1.393   2.821   4.345 -0.3002  0.2700  0.2702
  738MOL0     C99544   1.667   2.637   4.191  0.6288  0.4601 -1.1437
  738MOL0     C99545   1.740   2.614   4.078 -0.4772  0.2201 -0.1903
  738MOL0     N99546   2.168   2.439   3.662 -0.2079  0.5029  0.1757
  738MOL0     N99547   2.299   2.470   3.634  0.3595 -0.7358 -0.6146
  738MOL0     C99548   2.983   3.107   3.786 -0.0039 -0.4337 -0.5040
  738MOL0     C99549   3.069   3.127   3.894 -0.2796 -0.1194  0.4998
  738MOL0     C99550   3.238   3.206   4.318 -0.1754  0.7734 -0.8654
  738MOL0     C99551   3.311   3.110   4.405  0.2124  0.2521  0.7648
  738MOL0     C99552   3.357   3.149   4.534  0.0528  0.4684 -0.3804
  738MOL0     C99553   3.355   3.284   4.566  0.0132  0.2614  0.5163
  738MOL0     O99554   3.425   3.325   4.675  0.0519 -0.1787 -0.2539
  738MOL0     C99555   3.565   3.352   4.647 -0.4653  0.0408  0.0267
  738MOL0     C99556   3.651   3.248   4.719 -0.3998  0.1875 -0.9985
  738MOL0     C99557   3.797   3.289   4.738  0.9433 -0.0582 -1.0084
  738MOL0     C99558   3.868   3.172   4.802 -0.0954 -0.0677 -0.0240
  738MOL0     C99559   4.006   3.188   4.786  0.5096  0.7527 -0.4013
  738MOL0     C99560   4.121   3.208   4.772  0.6018 -0.5978  0.8620
  738MOL0     C99561   3.300   3.379   4.473 -0.0122 -1.1790 -0.7011
  738MOL0     C99562   3.235   3.341   4.356 -1.1983 -0.3759  0.1740
  738MOL0     H99563   2.871   3.335   4.078 -2.2572 -3.3463  2.3445
  738MOL0     H99564   2.724   3.289   3.913 -1.1823 -1.1611  1.1654
  738MOL0     H99565   2.614   3.099   3.834  0.8134  0.7598  0.4104
  738MOL0     H99566   2.592   3.232   3.720 -1.6859 -0.4020  1.7416
  738MOL0     H99567   2.561   2.938   3.667  0.9017  0.5850 -0.9524
  738MOL0     H99568   2.427   3.052   3.691  1.0212 -0.4399  0.7856
  738MOL0     H99569   2.506   3.201   3.507  0.1806  0.1269 -0.4680
  738MOL0     H99570   2.618   3.069   3.453  0.8717 -1.3892  2.1138
  738MOL0     H99571   2.326   3.039   3.464  1.3576 -2.2806  1.2402
  738MOL0     H99572   2.406   3.108   3.324  0.6815 -2.0765 -2.4384
  738MOL0     H99573   2.404   2.884   3.264  2.1314  0.3995 -1.0957
  738MOL0     H99574   2.563   2.881   3.329  0.4487  1.9594 -0.2363
  738MOL0     H99575   2.474   2.782   3.541 -1.6971 -0.4908  1.1658
  738MOL0     H99576   2.312   2.796   3.477 -0.8014 -0.5876 -0.1446
  738MOL0     H99577   2.365   2.662   3.273  0.7149  1.7717 -0.7867
  738MOL0     H99578   2.524   2.670   3.298  0.1802 -1.4514 -1.2580
  738MOL0     H99579   2.520   2.528   3.503 -0.1369 -0.6880  0.7691
  738MOL0     H99580   2.448   2.457   3.364  1.4682  1.2201  0.1059
  738MOL0     H99581   2.171   2.482   3.341 -0.9801 -0.8755  0.9072
  738MOL0     H99582   1.916   2.415   3.409 -1.7192 -2.6030 -0.8493
  738MOL0     H99583   1.946   2.290   3.534  2.8067  0.7727 -0.6718
  738MOL0     H99584   1.898   2.427   3.714 -0.5273 -0.1428  0.2597
  738MOL0     H99585   1.770   2.388   3.617  0.6793 -1.1010 -1.4531
  738MOL0     H99586   1.794   2.623   3.512 -0.5589  0.6073 -0.2689
  738MOL0     H99587   1.911   2.650   3.650 -0.1801  3.4046 -2.3402
  738MOL0     H99588   1.610   2.581   3.684 -0.5577  1.9936 -3.6887
  738MOL0     H99589   1.681   2.743   3.701  3.1445  0.6894  3.9426
  738MOL0     H99590   1.503   2.711   3.865 -2.8405  1.2332  1.0269
  738MOL0     H99591   1.363   2.890   4.121  0.9664  1.1540 -0.9134
  738MOL0     H99592   1.346   2.848   3.944 -0.2185  3.2449  0.6930
  738MOL0     H99593   1.287   2.738   4.064  0.7617 -1.4662 -0.8586
  738MOL0     H99594   1.274   2.600   4.541  0.3590  2.7296 -1.4183
  738MOL0     H99595   1.207   2.632   4.766 -0.8140  2.8267 -1.1832
  738MOL0     H99596   1.293   2.952   4.994  0.9782 -1.7612  0.2689
  738MOL0     H99597   1.211   2.887   4.847  0.6289 -1.3667 -1.0524
  738MOL0     H99598   1.075   2.741   5.016 -1.6775  1.4647 -0.7776
  738MOL0     H99599   1.160   2.836   5.145 -3.6586  2.8385  1.4261
  738MOL0     H99600   1.064   3.023   5.082 -0.4498 -0.1605  0.8211
  738MOL0     H99601   0.946   2.901   5.095 -0.1367 -4.2910 -2.7593
  738MOL0     H99602   1.039   3.053   4.849 -1.6926  1.8714  2.4556
  738MOL0     H99603   0.985   2.874   4.837  1.3444  0.2725 -0.1165
  738MOL0     H99604   0.816   3.104   4.935  0.0637 -0.4789 -1.1772
  738MOL0     H99605   0.758   2.944   4.916  1.2528 -1.1126  0.6049
  738MOL0     H99606   0.847   3.144   4.708  3.5433 -3.2399 -0.6355
  738MOL0     H99607   0.787   2.983   4.653  2.4266  0.4457 -0.9351
  738MOL0     H99608   0.614   3.179   4.832 -2.4533  2.4634 -1.5460
  738MOL0     H99609   0.560   3.043   4.736 -1.5633  1.2486  2.9069
  738MOL0     H99610   0.696   3.276   4.619 -1.7891  2.0659 -0.4411
  738MOL0     H99611   0.519   3.258   4.621 -1.6744 -2.1132 -2.6073
  738MOL0     H99612   1.579   2.808   4.862  4.1048 -2.3348 -1.8510
  738MOL0     H99613   1.665   2.784   4.634 -0.8426  1.0228  0.3086
  738MOL0     H99614   1.710   2.609   4.287  1.1968  1.7546 -0.9984
  738MOL0     H99615   1.840   2.573   4.085 -0.8271 -0.4390  1.2364
  738MOL0     H99616   3.011   3.055   3.695  0.8317 -0.9563  0.0370
  738MOL0     H99617   3.170   3.086   3.898 -0.4166 -0.4273  0.9462
  738MOL0     H99618   3.319   3.009   4.367 -2.7921  1.7120 -4.7476
  738MOL0     H99619   3.385   3.079   4.612 -3.0368  0.3015  0.7026
  738MOL0     H99620   3.585   3.368   4.541  1.3848  0.8588  0.4506
  738MOL0     H99621   3.590   3.447   4.694  0.2767 -0.8368  1.4942
  738MOL0     H99622   3.646   3.152   4.667  0.8235  0.7133 -2.1346
  738MOL0     H99623   3.612   3.234   4.821  3.1169  0.6626  0.5585
  738MOL0     H99624   3.795   3.364   4.818  1.1688 -1.6289  0.5458
  738MOL0     H99625   3.841   3.319   4.643 -1.5629  0.6757 -2.0341
  738MOL0     H99626   3.838   3.080   4.751 -1.2930  1.3770 -2.1178
  738MOL0     H99627   3.840   3.165   4.907  0.7755  0.4869  0.2611
  738MOL0     H99628   4.228   3.212   4.763  0.4375 -1.2212 -3.0102
  738MOL0     H99629   3.309   3.483   4.503 -0.3130 -0.8774 -1.6344
  738MOL0     H99630   3.167   3.403   4.297 -0.6642 -1.8595 -2.1262
  739MOL0     O99631   6.598   6.641   6.860  0.2223  0.2221 -0.2664
  739MOL0     C99632   6.486   6.682   6.890  0.9749 -0.5438  0.7847
  739MOL0     O99633   6.451   6.750   7.004  0.0383  0.0729  0.0597
  739MOL0     C99634   6.532   6.756   7.108 -0.9991 -0.1773 -0.5363
  739MOL0     C99635   6.625   6.652   7.146 -0.3106 -0.5882 -0.1935
  739MOL0     C99636   6.708   6.661   7.266  0.6900  0.4703  0.5323
  739MOL0     C99637   6.680   6.776   7.350  0.4957 -0.7824  0.1351
  739MOL0     O99638   6.735   6.805   7.472  0.3714  0.5416  0.0723
  739MOL0     C99639   6.805   6.703   7.543 -0.5352  0.1294  0.4254
  739MOL0     C99640   6.713   6.612   7.617  0.1835 -0.6883  1.0943
  739MOL0     C99641   6.769   6.475   7.669  0.7593 -0.5942 -0.2944
  739MOL0     C99642   6.666   6.361   7.668 -0.7913 -0.9070  0.4352
  739MOL0     C99643   6.728   6.224   7.691 -0.5247 -0.6419 -0.0614
  739MOL0     C99644   6.622   6.119   7.700  0.3210 -0.3575  0.4046
  739MOL0     C99645   6.691   5.983   7.672 -0.0906  0.0223 -0.1174
  739MOL0     C99646   6.610   5.862   7.718 -0.0733 -0.6265 -0.8323
  739MOL0     N99647   6.475   5.855   7.644 -0.6927 -0.1152  0.6255
  739MOL0     C99648   6.451   5.845   7.507 -0.4976 -0.1488  0.3521
  739MOL0     C99649   6.331   5.891   7.482  0.3304 -0.2273 -1.3927
  739MOL0     C99650   6.283   5.908   7.341 -1.0983 -0.3309 -0.4305
  739MOL0     C99651   6.286   5.776   7.265 -0.0488  0.4256  0.5451
  739MOL0     C99652   6.234   5.801   7.117 -0.5098 -0.3831  0.3346
  739MOL0     C99653   6.084   5.804   7.104 -0.5045 -0.2885  0.3503
  739MOL0     O99654   6.024   5.923   7.156 -0.0514 -0.0009  0.4764
  739MOL0     C99655   5.902   5.969   7.122  0.5059  0.1993  0.1913
  739MOL0     C99656   5.814   5.907   7.038  0.9892  0.1028 -0.5453
  739MOL0     C99657   5.685   5.960   7.016  0.2523  0.5989 -0.0430
  739MOL0     C99658   5.605   5.917   6.893 -0.1024  0.6146  0.4682
  739MOL0     C99659   5.642   6.075   7.088 -0.6331  0.2393 -0.4998
  739MOL0     C99660   5.505   6.139   7.071 -0.4544 -0.9598  0.0169
  739MOL0     O99661   5.497   6.266   7.130  0.5010 -0.3786  0.2332
  739MOL0     C99662   5.389   6.352   7.119 -0.6187 -0.1688 -0.1060
  739MOL0     C99663   5.389   6.465   7.203  0.1035 -0.0293 -0.5306
  739MOL0     C99664   5.280   6.553   7.205 -0.4266 -1.5036 -0.7329
  739MOL0     C99665   5.174   6.515   7.124 -0.3796 -0.6818 -0.1829
  739MOL0     O99666   5.051   6.581   7.139 -0.4625  0.6412 -0.6539
  739MOL0     C99667   5.056   6.724   7.156  0.3273 -0.5700 -0.0328
  739MOL0     C99668   4.942   6.784   7.070  0.5130  0.4347 -0.1250
  739MOL0     C99669   4.795   6.750   7.116  0.6052 -1.3015  0.0575
  739MOL0     C99670   4.777   6.715   7.266  0.5544 -1.0845  0.5159
  739MOL0     C99671   4.632   6.718   7.309  0.3926  0.3240  1.0035
  739MOL0     C99672   4.621   6.715   7.464 -0.3441  0.6402  0.5423
  739MOL0     C99673   4.477   6.740   7.494 -0.3802 -0.5436  0.6916
  739MOL0     C99674   4.443   6.715   7.635  1.2911 -0.0874  0.3358
  739MOL0    Cl99675   4.311   6.593   7.663  0.5671  0.1722  0.4673
  739MOL0     C99676   5.175   6.415   7.030  0.9505 -0.0456  0.1952
  739MOL0     C99677   5.292   6.342   7.024 -0.3817  0.4361  0.5415
  739MOL0     O99678   5.414   6.072   7.023 -0.5323  0.4857  0.1408
  739MOL0     C99679   5.741   6.137   7.169  0.4091  0.2712 -0.2669
  739MOL0     C99680   5.866   6.089   7.182 -0.3986  0.4575  0.1316
  739MOL0     N99681   6.268   5.908   7.603  0.6429 -0.0020 -0.5599
  739MOL0     N99682   6.351   5.888   7.699 -0.0486 -0.2511 -0.2812
  739MOL0     C99683   6.592   6.874   7.308 -0.4511 -1.0587 -0.2593
  739MOL0     C99684   6.517   6.868   7.191 -0.2056 -0.4422 -0.6521
  739MOL0     C99685   6.376   6.667   6.785  0.1438 -0.1141 -0.0478
  739MOL0     C99686   6.393   6.631   6.651  0.0403  0.8627 -0.1707
  739MOL0     C99687   6.284   6.622   6.564 -0.2032  0.6916 -0.3197
  739MOL0     C99688   6.161   6.681   6.602 -1.7322  0.0798 -0.2291
  739MOL0     O99689   6.063   6.681   6.502  0.1761 -0.2158 -0.2866
  739MOL0     C99690   5.934   6.744   6.531  0.0552  0.3156 -0.2702
  739MOL0     C99691   5.854   6.726   6.410  0.0000  0.5954 -0.2834
  739MOL0     C99692   5.704   6.753   6.436  0.0714 -0.0938  0.7242
  739MOL0     C99693   5.621   6.728   6.312  0.3484  0.4122  0.9903
  739MOL0     C99694   5.475   6.737   6.326  0.8112  0.9588 -0.3201
  739MOL0     C99695   5.358   6.728   6.353 -0.1803 -0.5112 -0.0317
  739MOL0     C99696   6.148   6.733   6.723 -0.4793  0.0354 -0.0680
  739MOL0     C99697   6.249   6.719   6.813 -0.3011  0.1329  0.1707
  739MOL0     H99698   6.619   6.556   7.095 -5.0585 -0.9474  0.5742
  739MOL0     H99699   6.776   6.585   7.303 -3.2857 -1.6876  4.2688
  739MOL0     H99700   6.880   6.654   7.481 -1.4570 -0.4596 -0.2671
  739MOL0     H99701   6.867   6.766   7.606  1.3694  0.9040 -2.0800
  739MOL0     H99702   6.676   6.668   7.703  3.1758  1.3012  1.2349
  739MOL0     H99703   6.629   6.590   7.551  1.5785 -0.4981 -0.8278
  739MOL0     H99704   6.860   6.443   7.617  0.9480 -0.6537  0.0709
  739MOL0     H99705   6.798   6.500   7.771 -0.9656  0.8141 -0.0998
  739MOL0     H99706   6.596   6.385   7.749  3.7063  2.0431  4.0104
  739MOL0     H99707   6.613   6.364   7.573  2.2305 -2.6724 -1.4952
  739MOL0     H99708   6.807   6.213   7.615 -1.6993  1.2451 -1.6404
  739MOL0     H99709   6.789   6.220   7.782 -2.7478 -2.1825  1.4653
  739MOL0     H99710   6.546   6.114   7.779  1.1207  0.0692  1.2269
  739MOL0     H99711   6.563   6.130   7.609  3.3499  2.4686 -1.4076
  739MOL0     H99712   6.709   5.973   7.565 -2.5444  0.6763 -0.6402
  739MOL0     H99713   6.791   5.975   7.716 -1.0680 -0.5943  2.1493
  739MOL0     H99714   6.600   5.867   7.827  3.4221 -2.2456 -0.2722
  739MOL0     H99715   6.653   5.762   7.706  1.2979 -0.0109 -1.2913
  739MOL0     H99716   6.522   5.827   7.427  2.0930 -1.6569  2.7714
  739MOL0     H99717   6.192   5.969   7.329  0.5873  2.0835 -1.7623
  739MOL0     H99718   6.342   5.984   7.289  0.2080 -2.1663 -1.7239
  739MOL0     H99719   6.224   5.699   7.312 -1.3737  2.2476  1.8970
  739MOL0     H99720   6.385   5.730   7.256  1.1513  2.5835  1.8569
  739MOL0     H99721   6.271   5.710   7.069  1.6385  0.1844  0.7922
  739MOL0     H99722   6.275   5.887   7.062  0.0781  0.7978  2.5188
  739MOL0     H99723   6.048   5.713   7.152  2.2903 -0.8097  1.6617
  739MOL0     H99724   6.061   5.793   6.997  0.1931 -1.3761  0.2968
  739MOL0     H99725   5.843   5.821   6.977  0.9467  0.8155 -1.5966
  739MOL0     H99726   5.510   5.875   6.926 -0.1045 -0.9135 -1.2947
  739MOL0     H99727   5.592   6.001   6.825 -4.8305  1.0885  1.6464
  739MOL0     H99728   5.668   5.843   6.843  1.1493  1.7239  0.3313
  739MOL0     H99729   5.478   6.472   7.265 -1.2252 -1.0775  1.6466
  739MOL0     H99730   5.275   6.648   7.258 -3.2224 -0.9689 -1.7555
  739MOL0     H99731   5.057   6.762   7.259  2.3611  3.5080 -1.3620
  739MOL0     H99732   5.145   6.765   7.107 -0.4303 -0.5024 -1.4042
  739MOL0     H99733   4.951   6.893   7.081 -3.8842  1.0982 -1.3971
  739MOL0     H99734   4.958   6.765   6.964 -1.8790  3.5039 -1.1903
  739MOL0     H99735   4.768   6.652   7.076  0.1307 -0.9112 -0.5958
  739MOL0     H99736   4.725   6.829   7.086  2.3261 -0.3742 -1.7159
  739MOL0     H99737   4.829   6.625   7.299  0.7560 -1.0793  0.2155
  739MOL0     H99738   4.821   6.805   7.309 -1.9963  0.3017  0.3853
  739MOL0     H99739   4.572   6.636   7.268  0.2438  1.8226 -2.0153
  739MOL0     H99740   4.602   6.818   7.276  3.0267  1.1259  0.8047
  739MOL0     H99741   4.654   6.616   7.494 -0.8835  0.2961  0.0204
  739MOL0     H99742   4.686   6.792   7.507  2.4011 -1.5236  0.5515
  739MOL0     H99743   4.422   6.664   7.438  2.2376 -2.4298  0.5342
  739MOL0     H99744   4.446   6.837   7.453  1.1086 -0.4820 -0.3659
  739MOL0     H99745   4.424   6.809   7.688  0.8538  0.6580 -1.1041
  739MOL0     H99746   4.529   6.670   7.685  1.7983  1.6136  1.0996
  739MOL0     H99747   5.095   6.395   6.959 -0.5559  1.1385  1.4788
  739MOL0     H99748   5.294   6.255   6.959  3.2007 -0.5047  1.6916
  739MOL0     H99749   5.711   6.225   7.223 -0.0140  0.1515 -0.3031
  739MOL0     H99750   5.920   6.149   7.255 -0.1924 -0.4987  0.7828
  739MOL0     H99751   6.573   6.967   7.362 -0.8597 -1.3267  0.0674
  739MOL0     H99752   6.454   6.955   7.176 -1.3549 -0.2178  3.8973
  739MOL0     H99753   6.492   6.598   6.619  1.4532  1.1961  3.3276
  739MOL0     H99754   6.289   6.569   6.470  0.7929 -0.0685  0.1414
  739MOL0     H99755   5.871   6.686   6.598  2.1540 -0.6959  0.9429
  739MOL0     H99756   5.936   6.852   6.548  0.3869  0.2713 -0.0159
  739MOL0     H99757   5.875   6.623   6.381  1.9540  0.2002  2.2201
  739MOL0     H99758   5.893   6.801   6.340  0.5848 -0.0736 -0.6872
  739MOL0     H99759   5.681   6.851   6.477 -1.7712 -0.3084  0.2693
  739MOL0     H99760   5.668   6.671   6.499  0.8633 -1.9640 -1.1424
  739MOL0     H99761   5.640   6.627   6.274  0.3512  1.4822 -2.1244
  739MOL0     H99762   5.655   6.795   6.232  3.2735 -1.6402  0.3363
  739MOL0     H99763   5.254   6.730   6.379  0.1214  1.0132  1.1712
  739MOL0     H99764   6.055   6.783   6.750  0.0323  0.8143  0.2798
  739MOL0     H99765   6.229   6.767   6.909 -1.1671 -2.4195  1.3684
  740MOL0     O99766   9.970   3.869  11.463  0.0461  0.0405  0.4626
  740MOL0     C99767   9.971   3.823  11.347 -0.6860 -0.5045 -0.7015
  740MOL0     O99768   9.866   3.804  11.269 -0.9122  0.6161 -0.5838
  740MOL0     C99769   9.739   3.822  11.333  0.4389  0.5022  0.7226
  740MOL0     C99770   9.662   3.934  11.293 -0.6851 -0.4947  0.2757
  740MOL0     C99771   9.541   3.971  11.339 -0.0213 -0.6212  0.1658
  740MOL0     C99772   9.480   3.891  11.433  0.4545  0.4751 -0.9516
  740MOL0     O99773   9.353   3.919  11.478  0.2904 -0.3094 -0.2895
  740MOL0     C99774   9.254   3.857  11.396  0.0016 -0.5787 -0.2857
  740MOL0     C99775   9.121   3.935  11.413  0.2385 -0.5790  0.1978
  740MOL0     C99776   8.994   3.878  11.344 -0.1236  0.0335 -0.3686
  740MOL0     C99777   9.020   3.811  11.204 -0.5744 -0.3839  0.8196
  740MOL0     C99778   8.890   3.764  11.131  0.9192  0.1760 -0.2074
  740MOL0     C99779   8.913   3.732  10.988 -0.4365  0.7581  0.2518
  740MOL0     C99780   8.788   3.650  10.928 -1.2397  1.1466 -0.3461
  740MOL0     C99781   8.841   3.593  10.794 -0.2414 -0.0848  0.4386
  740MOL0     N99782   8.874   3.698  10.697 -0.1359 -0.8383 -0.0289
  740MOL0     C99783   8.786   3.780  10.625  0.7345 -0.1609 -0.7512
  740MOL0     C99784   8.878   3.878  10.586  1.2675  0.7374  0.7041
  740MOL0     C99785   8.841   4.004  10.504  0.5050  0.2561  0.3484
  740MOL0     C99786   8.962   4.055  10.415 -1.1151 -0.0377  0.3393
  740MOL0     C99787   8.925   4.178  10.332 -0.3732  0.0731  0.3908
  740MOL0     C99788   9.034   4.229  10.233  0.3830 -0.1533  0.7360
  740MOL0     O99789   8.992   4.343  10.155 -0.1007 -0.6184 -0.3854
  740MOL0     C99790   9.083   4.430  10.106 -1.1997  1.0227 -0.0222
  740MOL0     C99791   9.191   4.476  10.191 -0.4527 -0.2081  0.4611
  740MOL0     C99792   9.291   4.559  10.143 -0.3953 -0.7553 -0.5586
  740MOL0     C99793   9.417   4.593  10.218  0.6273 -0.3440 -0.1977
  740MOL0     C99794   9.279   4.607  10.011 -0.4677  0.2309  0.2004
  740MOL0     C99795   9.385   4.703   9.961  0.4131  0.0195 -0.0067
  740MOL0     O99796   9.389   4.830  10.001 -0.3029  0.0783 -0.7901
  740MOL0     C99797   9.499   4.906   9.968  0.1058 -0.5611  0.9626
  740MOL0     C99798   9.632   4.885  10.008  1.1424  0.8149 -0.3919
  740MOL0     C99799   9.743   4.953   9.971 -0.2463  0.5331  0.0056
  740MOL0     C99800   9.724   5.058   9.886 -0.3486  1.0233 -0.9311
  740MOL0     O99801   9.819   5.127   9.824 -0.2849 -0.8043 -0.5248
  740MOL0     C99802   9.930   5.159   9.906 -0.1497  0.1510  0.5055
  740MOL0     C99803  10.009   5.263   9.831 -0.2058  0.0747 -0.3205
  740MOL0     C99804  10.069   5.205   9.702 -0.1792 -0.5650  0.2883
  740MOL0     C99805  10.118   5.319   9.622 -0.7334 -0.2460 -0.1443
  740MOL0     C99806  10.220   5.292   9.507 -0.6076 -0.0003  0.2883
  740MOL0     C99807  10.234   5.396   9.393  0.4727  0.5516  1.1262
  740MOL0     C99808  10.229   5.547   9.431  0.3638 -0.2665  0.0477
  740MOL0     C99809  10.273   5.651   9.328  0.5066 -0.0184  0.1181
  740MOL0    Cl99810  10.158   5.653   9.195  0.1718  0.1812 -0.4402
  740MOL0     C99811   9.591   5.093   9.842 -0.9895  0.4677  0.1316
  740MOL0     C99812   9.479   5.020   9.900 -1.0519 -0.1268  0.1170
  740MOL0     O99813   9.454   4.659   9.871  0.0308 -0.1983 -0.9292
  740MOL0     C99814   9.174   4.558   9.928 -0.2941  1.0654 -0.0104
  740MOL0     C99815   9.073   4.476   9.977 -0.6293  0.1696  0.8860
  740MOL0     N99816   9.002   3.847  10.634  0.3095 -0.0040 -1.4673
  740MOL0     N99817   9.000   3.736  10.690  0.0108  0.5737 -0.6713
  740MOL0     C99818   9.551   3.769  11.478 -0.3206 -0.4670  0.1599
  740MOL0     C99819   9.682   3.741  11.434 -0.1427  0.3518 -0.9278
  740MOL0     C99820  10.109   3.827  11.283 -0.8388  0.0343  0.2885
  740MOL0     C99821  10.122   3.798  11.153 -0.4135  0.6800  0.3755
  740MOL0     C99822  10.244   3.828  11.088 -0.0574 -0.0758  0.2277
  740MOL0     C99823  10.357   3.885  11.147  0.2855 -0.5180 -0.1757
  740MOL0     O99824  10.471   3.923  11.084  0.0785  0.7613 -0.6769
  740MOL0     C99825  10.435   4.020  10.988 -0.2164  0.0080  0.8495
  740MOL0     C99826  10.560   4.074  10.938  0.1660  1.4272 -0.2782
  740MOL0     C99827  10.528   4.201  10.852 -1.0809  0.5069 -0.3369
  740MOL0     C99828  10.649   4.270  10.786 -0.1469 -0.0790 -0.3800
  740MOL0     C99829  10.729   4.179  10.699  0.8552 -0.5042 -0.1320
  740MOL0     C99830  10.809   4.112  10.634 -0.8116 -0.1923  0.1438
  740MOL0     C99831  10.346   3.900  11.281 -0.2524  0.0629 -0.6520
  740MOL0     C99832  10.222   3.879  11.351 -0.7275 -0.8102  0.1534
  740MOL0     H99833   9.713   4.011  11.235  1.6552  0.3746  3.2018
  740MOL0     H99834   9.506   4.067  11.300  0.5621 -0.2077  0.6429
  740MOL0     H99835   9.265   3.870  11.288 -4.5673  2.6915 -0.6473
  740MOL0     H99836   9.231   3.757  11.432 -1.8862  0.0524  0.4023
  740MOL0     H99837   9.098   3.964  11.516 -2.7438  1.0139 -0.8006
  740MOL0     H99838   9.138   4.031  11.364 -2.6804 -0.0487  0.0612
  740MOL0     H99839   8.964   3.798  11.413  3.0809  1.0298  2.4523
  740MOL0     H99840   8.908   3.945  11.338  0.1371  0.2734 -1.9508
  740MOL0     H99841   9.071   3.882  11.139  2.0593 -1.7677  1.2092
  740MOL0     H99842   9.100   3.736  11.203  0.1806  0.3523 -2.1291
  740MOL0     H99843   8.855   3.679  11.190  1.4531 -1.2568 -1.8861
  740MOL0     H99844   8.811   3.839  11.146  2.9148  2.4287 -0.3449
  740MOL0     H99845   8.937   3.826  10.937 -0.3704  1.4455  1.5280
  740MOL0     H99846   9.004   3.674  10.976 -1.5183 -0.6828 -1.6037
  740MOL0     H99847   8.763   3.559  10.984  2.0967  0.2900 -0.0100
  740MOL0     H99848   8.695   3.707  10.920 -1.1530  1.3554  0.0677
  740MOL0     H99849   8.766   3.534  10.742 -0.7820 -1.0486  2.2601
  740MOL0     H99850   8.935   3.537  10.798  0.9282  1.2941 -3.2791
  740MOL0     H99851   8.679   3.770  10.618  0.6056  1.6139 -2.0783
  740MOL0     H99852   8.758   3.993  10.434  2.5824  1.1493 -2.4309
  740MOL0     H99853   8.811   4.075  10.581 -3.9480  0.0637 -0.8869
  740MOL0     H99854   9.000   3.975  10.351 -2.3793 -0.8907  0.6104
  740MOL0     H99855   9.034   4.065  10.497 -3.4048  0.2267  2.4676
  740MOL0     H99856   8.895   4.262  10.396 -0.2531  1.2304 -1.0090
  740MOL0     H99857   8.834   4.158  10.274  0.1865 -0.5871 -0.2867
  740MOL0     H99858   9.060   4.159  10.154 -0.7279  3.1375 -2.8515
  740MOL0     H99859   9.123   4.251  10.294  0.5876  2.1370 -0.2843
  740MOL0     H99860   9.176   4.446  10.294 -3.7881 -1.3350 -0.2065
  740MOL0     H99861   9.415   4.542  10.315 -3.3645 -1.3442 -0.6039
  740MOL0     H99862   9.496   4.560  10.150 -1.3384 -0.4421 -2.5847
  740MOL0     H99863   9.422   4.701  10.235 -2.7324  0.2649 -2.0352
  740MOL0     H99864   9.650   4.798  10.071  0.7903  1.0457  0.0357
  740MOL0     H99865   9.844   4.920   9.996  0.8746  2.7757 -1.2375
  740MOL0     H99866   9.897   5.209   9.998  0.3008 -0.6115  1.0902
  740MOL0     H99867   9.995   5.076   9.934 -2.1255 -1.2506  1.1695
  740MOL0     H99868   9.952   5.353   9.808  2.5334  1.8549 -0.5473
  740MOL0     H99869  10.088   5.297   9.899  0.6435 -1.0961 -0.6802
  740MOL0     H99870   9.991   5.158   9.642 -0.8422  3.0295 -2.0087
  740MOL0     H99871  10.152   5.139   9.728 -0.3856 -1.0393 -0.2398
  740MOL0     H99872  10.038   5.375   9.573  1.6377  2.4221 -1.2732
  740MOL0     H99873  10.173   5.391   9.684 -0.1232  0.7782 -1.8072
  740MOL0     H99874  10.192   5.200   9.454 -2.0858 -0.2142  1.3927
  740MOL0     H99875  10.308   5.286   9.571 -0.7438  3.5155  1.0247
  740MOL0     H99876  10.332   5.370   9.351 -1.3056 -1.9200 -1.9787
  740MOL0     H99877  10.155   5.377   9.320 -0.0052  1.7505  1.3176
  740MOL0     H99878  10.302   5.569   9.510  1.5610  2.7030 -1.7424
  740MOL0     H99879  10.125   5.567   9.459 -0.0600  0.1575 -1.7393
  740MOL0     H99880  10.372   5.621   9.293  0.4481 -0.4191  0.2819
  740MOL0     H99881  10.286   5.746   9.380  3.8295 -0.9704  1.3013
  740MOL0     H99882   9.561   5.177   9.780 -0.2398  1.7597  1.4711
  740MOL0     H99883   9.382   5.049   9.863 -2.1460 -0.2989  2.6343
  740MOL0     H99884   9.164   4.577   9.821 -2.0869 -0.0724 -0.0898
  740MOL0     H99885   8.988   4.439   9.921  0.7474 -0.3142 -0.9824
  740MOL0     H99886   9.500   3.718  11.559 -1.1043  2.5623  1.7231
  740MOL0     H99887   9.737   3.655  11.470  0.1611  0.7514 -0.4332
  740MOL0     H99888  10.049   3.741  11.097  0.8440 -1.5094  0.8397
  740MOL0     H99889  10.269   3.809  10.984  1.7593 -0.9836  0.7901
  740MOL0     H99890  10.390   3.968  10.902  1.8470 -1.9215  0.8466
  740MOL0     H99891  10.371   4.097  11.032 -1.9935 -1.0627  0.2570
  740MOL0     H99892  10.615   3.992  10.890  2.8574  2.1678  1.3187
  740MOL0     H99893  10.621   4.109  11.021 -1.9564 -0.5814  2.3212
  740MOL0     H99894  10.463   4.262  10.916 -3.0955 -1.0912 -0.7342
  740MOL0     H99895  10.466   4.166  10.769 -1.7091 -1.5444  0.9186
  740MOL0     H99896  10.710   4.316  10.864 -2.1201  3.1111 -0.5443
  740MOL0     H99897  10.623   4.351  10.717 -1.9744 -1.0659 -0.8879
  740MOL0     H99898  10.872   4.053  10.571  2.3904  0.9862  1.9499
  740MOL0     H99899  10.441   3.921  11.328  0.1638 -2.1791 -0.3813
  740MOL0     H99900  10.211   3.907  11.456 -2.1636 -1.1083  0.1008
  741MOL0     O99901   5.417   0.631   0.527  0.2236 -0.0624 -0.2333
  741MOL0     C99902   5.317   0.667   0.586  0.5471 -0.0722  0.1794
  741MOL0     O99903   5.223   0.586   0.645 -0.0771  0.1800 -0.0202
  741MOL0     C99904   5.192   0.458   0.606  0.2397  0.1373  0.7272
  741MOL0     C99905   5.119   0.381   0.699  0.9990 -0.1479 -0.4703
  741MOL0     C99906   5.082   0.247   0.682  0.2273  0.2898  0.2381
  741MOL0     C99907   5.126   0.181   0.562  0.8313 -0.3123 -0.7423
  741MOL0     O99908   5.095   0.053   0.529  0.3647  1.1574  0.1333
  741MOL0     C99909   4.985   0.001   0.609  0.0635  1.7075  1.0610
  741MOL0     C99910   4.926  -0.126   0.533  0.3240 -0.7347 -0.4286
  741MOL0     C99911   4.780  -0.128   0.537  0.6943  0.1188 -0.5227
  741MOL0     C99912   4.721  -0.254   0.490  0.0743  0.8139  0.2765
  741MOL0     C99913   4.567  -0.264   0.509 -0.2388 -0.1852 -0.4537
  741MOL0     C99914   4.489  -0.135   0.489  0.4745  0.0515  0.6675
  741MOL0     C99915   4.505  -0.101   0.334  0.9374 -0.6803  0.6727
  741MOL0     C99916   4.434   0.034   0.313 -0.4552  0.3932 -0.1614
  741MOL0     N99917   4.295   0.024   0.272  0.5150  0.5918  0.2663
  741MOL0     C99918   4.184   0.010   0.350  0.3870  0.6361 -0.5231
  741MOL0     C99919   4.074   0.022   0.269  0.4522 -0.0251 -0.2605
  741MOL0     C99920   3.929  -0.002   0.294 -0.4835 -0.7084 -0.4556
  741MOL0     C99921   3.866  -0.112   0.199  0.5797 -0.0461 -0.0039
  741MOL0     C99922   3.714  -0.118   0.230  0.1468 -0.9225 -0.7631
  741MOL0     C99923   3.656  -0.246   0.160  0.0786 -0.0246  0.3116
  741MOL0     O99924   3.511  -0.252   0.165 -0.3287 -0.2019 -0.0315
  741MOL0     C99925   3.452  -0.315   0.272  0.2037  0.4945  0.5784
  741MOL0     C99926   3.497  -0.437   0.334  0.4669 -0.7071 -0.7202
  741MOL0     C99927   3.435  -0.488   0.443 -0.4205 -0.3825 -0.8757
  741MOL0     C99928   3.486  -0.631   0.486  0.1946 -0.3818 -0.9464
  741MOL0     C99929   3.322  -0.417   0.494  0.4235 -0.2137  0.5601
  741MOL0     C99930   3.245  -0.461   0.621 -0.1970  0.1303  0.4730
  741MOL0     O99931   3.113  -0.459   0.621  0.8921 -0.5064  0.4003
  741MOL0     C99932   3.036  -0.465   0.738  0.1222  0.1573  0.9043
  741MOL0     C99933   2.949  -0.576   0.763  0.8940 -0.2201 -0.7135
  741MOL0     C99934   2.870  -0.588   0.877 -0.0951 -0.6804 -0.1689
  741MOL0     C99935   2.870  -0.482   0.967  0.7679  0.1581  0.9977
  741MOL0     O99936   2.786  -0.500   1.076  0.6014 -0.2917 -0.4426
  741MOL0     C99937   2.751  -0.385   1.146  0.8801 -0.2108 -0.4881
  741MOL0     C99938   2.631  -0.413   1.229  0.4208  0.6467 -0.0734
  741MOL0     C99939   2.638  -0.526   1.327 -0.5295  0.0858 -0.1550
  741MOL0     C99940   2.495  -0.557   1.382 -0.8737 -0.3286  0.1873
  741MOL0     C99941   2.417  -0.440   1.456 -0.0844 -0.9262 -0.3955
  741MOL0     C99942   2.457  -0.419   1.597 -0.0298 -0.0698  0.5664
  741MOL0     C99943   2.469  -0.547   1.682  0.0283  0.1823  0.6117
  741MOL0     C99944   2.346  -0.639   1.687 -0.1255 -1.5313  0.3874
  741MOL0    Cl99945   2.190  -0.549   1.718 -0.4609 -0.0697 -0.4967
  741MOL0     C99946   2.957  -0.364   0.943  0.2490 -0.9800 -0.8158
  741MOL0     C99947   3.043  -0.358   0.830 -0.3097 -0.9744 -0.0427
  741MOL0     O99948   3.327  -0.499   0.711  0.6213  0.8694  0.9062
  741MOL0     C99949   3.274  -0.299   0.432  0.7777 -0.1766  0.7003
  741MOL0     C99950   3.336  -0.253   0.314  0.1847  0.4020 -0.5526
  741MOL0     N99951   4.124   0.057   0.146 -0.3718 -0.3771  0.3878
  741MOL0     N99952   4.249   0.051   0.147  0.3067  0.2241  0.1016
  741MOL0     C99953   5.196   0.248   0.466  0.1938 -0.0865  0.0890
  741MOL0     C99954   5.222   0.386   0.486 -0.1101  0.8659  0.9612
  741MOL0     C99955   5.304   0.812   0.597 -0.0888 -0.4185  0.8532
  741MOL0     C99956   5.400   0.905   0.552 -0.3724 -0.5507 -0.3257
  741MOL0     C99957   5.387   1.047   0.583  0.0042  0.0871 -0.0494
  741MOL0     C99958   5.269   1.092   0.643 -0.0319 -0.8113 -0.4803
  741MOL0     O99959   5.231   1.228   0.678 -0.0926  0.0313  0.4700
  741MOL0     C99960   5.310   1.333   0.622  0.3917 -0.1547  0.2191
  741MOL0     C99961   5.284   1.351   0.466  0.2139 -0.4307  0.2475
  741MOL0     C99962   5.282   1.491   0.405 -0.1586 -0.1240 -0.1436
  741MOL0     C99963   5.282   1.497   0.255  0.9329 -0.7928  0.6954
  741MOL0     C99964   5.333   1.630   0.210 -0.0830 -0.0966 -1.0457
  741MOL0     C99965   5.357   1.745   0.191 -0.2450  0.3171  0.1208
  741MOL0     C99966   5.174   1.000   0.664 -0.3580 -0.9808  0.3307
  741MOL0     C99967   5.189   0.866   0.651 -0.1583 -0.1558 -0.6562
  741MOL0     H99968   5.086   0.435   0.788  0.6417 -0.7471 -0.2317
  741MOL0     H99969   5.038   0.185   0.759  1.4455 -2.8663 -1.4134
  741MOL0     H99970   5.002  -0.023   0.714 -2.3031  2.5092  1.6988
  741MOL0     H99971   4.897   0.066   0.613 -1.0221  0.3499  0.6247
  741MOL0     H99972   4.966  -0.143   0.433  0.7888  0.9733 -0.5574
  741MOL0     H99973   4.956  -0.208   0.599  0.9847 -0.6574 -0.6312
  741MOL0     H99974   4.741  -0.110   0.638 -0.8525 -0.9996 -0.8858
  741MOL0     H99975   4.752  -0.042   0.475  2.2950  2.7737  2.1769
  741MOL0     H99976   4.744  -0.270   0.384 -3.7070  0.1091 -0.5914
  741MOL0     H99977   4.770  -0.339   0.539  0.5580  0.7568 -0.2959
  741MOL0     H99978   4.526  -0.338   0.439 -2.1858  1.0980 -0.7309
  741MOL0     H99979   4.544  -0.284   0.614  1.4620 -3.0673 -0.5151
  741MOL0     H99980   4.384  -0.160   0.502  0.6995 -0.1740  2.2017
  741MOL0     H99981   4.521  -0.053   0.554  1.2551  2.3877 -2.4230
  741MOL0     H99982   4.608  -0.107   0.297  0.4107 -1.7792 -0.7007
  741MOL0     H99983   4.452  -0.177   0.277  2.3851 -1.2834  0.0623
  741MOL0     H99984   4.485   0.086   0.232  0.3609 -1.3151 -0.7902
  741MOL0     H99985   4.431   0.101   0.400  0.8313  1.5405 -0.9655
  741MOL0     H99986   4.187   0.004   0.458 -1.4998 -1.3754 -0.5045
  741MOL0     H99987   3.911  -0.030   0.399 -0.1506 -0.2626 -0.2804
  741MOL0     H99988   3.886   0.097   0.279 -0.8697 -0.9110 -0.7074
  741MOL0     H99989   3.919  -0.204   0.224 -0.0669  0.0316  1.7714
  741MOL0     H99990   3.882  -0.095   0.092 -0.1659  3.1620  0.2862
  741MOL0     H99991   3.657  -0.029   0.203  1.4881  0.7077  1.4132
  741MOL0     H99992   3.706  -0.138   0.337  3.7129 -3.4926 -0.7769
  741MOL0     H99993   3.702  -0.338   0.198  0.4806  0.0686  0.0584
  741MOL0     H99994   3.694  -0.246   0.057 -2.3060  1.5818 -0.6632
  741MOL0     H99995   3.585  -0.484   0.292  1.9124  2.4049 -1.5113
  741MOL0     H99996   3.592  -0.627   0.512 -0.4677 -0.3682  2.1737
  741MOL0     H99997   3.430  -0.660   0.575 -1.3390  1.3297 -1.2980
  741MOL0     H99998   3.461  -0.697   0.403 -2.4493  0.7844 -1.1906
  741MOL0     H99999   2.944  -0.648   0.682 -1.3628 -1.1967  0.2030
  741MOL0     H    0   2.805  -0.673   0.896 -1.8728  0.6516  0.0586
  741MOL0     H    1   2.832  -0.344   1.209  1.8724 -2.1433 -0.4351
  741MOL0     H    2   2.725  -0.309   1.072 -2.8582 -2.3166 -1.5983
  741MOL0     H    3   2.634  -0.321   1.289  1.3406  0.8687 -0.4491
  741MOL0     H    4   2.546  -0.431   1.163  3.8272  0.4638 -4.8967
  741MOL0     H    5   2.690  -0.505   1.421 -1.7192 -2.1880  1.0961
  741MOL0     H    6   2.687  -0.614   1.284 -1.1724  0.2774 -1.3399
  741MOL0     H    7   2.437  -0.582   1.293 -1.1843  0.2805  0.2107
  741MOL0     H    8   2.505  -0.649   1.440  1.9401 -1.2540 -1.5495
  741MOL0     H    9   2.310  -0.460   1.455 -1.2375  3.8283  0.5554
  741MOL0     H   10   2.409  -0.344   1.404 -0.4713 -0.5426  0.3485
  741MOL0     H   11   2.554  -0.372   1.579 -0.1974 -0.2179 -0.8328
  741MOL0     H   12   2.391  -0.349   1.649 -1.9776 -0.8563 -0.7226
  741MOL0     H   13   2.482  -0.533   1.789 -2.5178 -0.2481  1.0499
  741MOL0     H   14   2.553  -0.614   1.661 -2.6193 -3.5284  0.7758
  741MOL0     H   15   2.354  -0.708   1.772 -1.7733  2.0090  3.6880
  741MOL0     H   16   2.349  -0.688   1.589  0.3618  1.1253 -1.0273
  741MOL0     H   17   2.956  -0.287   1.019  0.0389 -1.2780 -0.5140
  741MOL0     H   18   3.108  -0.277   0.800  1.4209 -0.2510  4.8828
  741MOL0     H   19   3.189  -0.236   0.457  0.7436  0.7763 -1.5830
  741MOL0     H   20   3.316  -0.154   0.274  1.9235  0.9224 -0.2615
  741MOL0     H   21   5.241   0.203   0.378  3.7209  1.9440  0.6324
  741MOL0     H   22   5.285   0.440   0.416 -3.2615 -0.1456 -3.0082
  741MOL0     H   23   5.489   0.871   0.499  0.3254 -0.7863  0.9653
  741MOL0     H   24   5.450   1.122   0.535 -3.4146  1.7321 -2.3733
  741MOL0     H   25   5.288   1.428   0.673  1.7689  0.9783 -1.1892
  741MOL0     H   26   5.413   1.317   0.655 -0.2928  1.8972  3.9419
  741MOL0     H   27   5.189   1.307   0.435  0.4529 -0.0629 -1.0997
  741MOL0     H   28   5.357   1.289   0.412 -1.1562 -0.7445 -1.3327
  741MOL0     H   29   5.376   1.542   0.431 -0.7358  0.8401  0.0763
  741MOL0     H   30   5.205   1.550   0.455  0.5606  1.0008 -0.3118
  741MOL0     H   31   5.185   1.478   0.208  1.2637  3.3756 -2.2270
  741MOL0     H   32   5.358   1.430   0.213  0.4395 -1.0183  0.1596
  741MOL0     H   33   5.370   1.850   0.178  3.2907  0.0040  0.0498
  741MOL0     H   34   5.078   1.038   0.698  0.3423  1.5180 -0.2372
  741MOL0     H   35   5.101   0.812   0.686 -0.8625  2.3117  1.7537
  742MOL0     O   36  10.152   9.770   1.153  0.0789  0.3106  0.6780
  742MOL0     C   37  10.136   9.818   1.038 -0.5003 -0.0285  0.7532
  742MOL0     O   38  10.019   9.867   0.986 -0.1174 -0.6670 -0.7027
  742MOL0     C   39   9.891   9.872   1.051 -0.7473  0.1506  0.7182
  742MOL0     C   40   9.883   9.913   1.190  0.7600  0.5322  0.5412
  742MOL0     C   41   9.749   9.915   1.251  0.2308  1.2444  0.2825
  742MOL0     C   42   9.646   9.856   1.186  0.3690 -0.2624 -0.9693
  742MOL0     O   43   9.524   9.843   1.241 -0.1410 -0.0305 -0.9543
  742MOL0     C   44   9.445   9.959   1.277 -0.1758  0.5011 -0.6578
  742MOL0     C   45   9.299   9.917   1.248  0.4797 -0.0614 -0.4575
  742MOL0     C   46   9.283   9.887   1.096 -0.4915 -0.0493 -0.1348
  742MOL0     C   47   9.143   9.838   1.071  0.6071  1.1495 -0.3145
  742MOL0     C   48   9.106   9.832   0.916 -0.0051 -0.9594 -0.3149
  742MOL0     C   49   9.191   9.731   0.839 -0.7827 -0.5868  0.0475
  742MOL0     C   50   9.183   9.586   0.887 -0.5152 -0.1122  0.1903
  742MOL0     C   51   9.280   9.483   0.822  0.7182 -0.8360  0.8039
  742MOL0     N   52   9.428   9.510   0.824  0.0588  0.1733  0.1468
  742MOL0     C   53   9.521   9.463   0.917  0.3948 -0.4462 -0.3931
  742MOL0     C   54   9.642   9.500   0.874 -0.9148 -0.7030 -0.3114
  742MOL0     C   55   9.775   9.474   0.940  0.4445 -0.0082 -0.5077
  742MOL0     C   56   9.896   9.450   0.850 -0.1792  1.7674 -0.4682
  742MOL0     C   57  10.032   9.463   0.915  0.5880 -0.2643 -0.3974
  742MOL0     C   58  10.147   9.433   0.821  0.3363  0.6807  0.8364
  742MOL0     O   59  10.271   9.465   0.888  0.7381 -0.0797  0.9561
  742MOL0     C   60  10.298   9.407   1.004 -0.3733 -1.2826  0.0391
  742MOL0     C   61  10.257   9.276   1.035 -0.2718 -0.2216  0.2774
  742MOL0     C   62  10.285   9.218   1.156  0.1956  0.7924  0.5955
  742MOL0     C   63  10.214   9.098   1.204 -0.6471 -0.1062 -0.4515
  742MOL0     C   64  10.367   9.288   1.240 -0.1041 -1.1161 -0.7466
  742MOL0     C   65  10.421   9.233   1.364 -0.3740 -0.0608  0.5000
  742MOL0     O   66  10.498   9.118   1.357 -0.3196  0.9369 -0.2228
  742MOL0     C   67  10.525   9.043   1.465 -0.3718  0.2508  0.1752
  742MOL0     C   68  10.470   9.051   1.600  0.7226 -0.0604 -0.5747
  742MOL0     C   69  10.492   8.947   1.696  0.1735 -0.8325  0.5673
  742MOL0     C   70  10.596   8.851   1.672 -0.7495  0.0756  0.2956
  742MOL0     O   71  10.620   8.765   1.783 -0.1679 -0.7568  0.0379
  742MOL0     C   72  10.755   8.708   1.794  0.2817 -0.5861 -0.0777
  742MOL0     C   73  10.751   8.618   1.919 -0.0171 -0.2630 -0.7119
  742MOL0     C   74  10.677   8.486   1.900 -0.4437  0.0833 -0.0732
  742MOL0     C   75  10.738   8.403   1.785  1.2244 -0.1566  0.8210
  742MOL0     C   76  10.674   8.266   1.783  0.1849  0.8205  0.8418
  742MOL0     C   77  10.724   8.183   1.671 -0.8186 -0.4268 -0.1363
  742MOL0     C   78  10.664   8.042   1.651  0.0617  0.0038 -0.1509
  742MOL0     C   79  10.697   7.975   1.524  0.0927  0.2588  1.1099
  742MOL0    Cl   80  10.879   7.955   1.513 -0.0826  0.4062  0.1842
  742MOL0     C   81  10.666   8.854   1.548  0.0885 -0.0101 -0.3277
  742MOL0     C   82  10.623   8.949   1.451 -0.1445  0.1387  0.8520
  742MOL0     O   83  10.383   9.286   1.464  0.3531  0.3667  0.5839
  742MOL0     C   84  10.399   9.413   1.217  0.8881 -1.3142  0.4119
  742MOL0     C   85  10.367   9.475   1.093  0.6264  0.6157  0.3011
  742MOL0     N   86   9.628   9.577   0.764  0.4308 -0.7253  0.3570
  742MOL0     N   87   9.496   9.587   0.733  0.8038 -0.2624  0.3137
  742MOL0     C   88   9.660   9.809   1.053  0.2485 -0.6625 -0.9219
  742MOL0     C   89   9.779   9.817   0.988 -0.3365 -0.0938 -0.7651
  742MOL0     C   90  10.265   9.820   0.951 -0.3950 -0.1848  0.3982
  742MOL0     C   91  10.269   9.817   0.810 -0.1178  0.0322  0.4673
  742MOL0     C   92  10.389   9.823   0.735 -0.9481  1.0026  0.3613
  742MOL0     C   93  10.517   9.819   0.802  0.0094 -0.1844  0.4219
  742MOL0     O   94  10.639   9.800   0.735  0.2809  0.6978 -0.1560
  742MOL0     C   95  10.627   9.765   0.597 -0.7969  0.2070 -0.2734
  742MOL0     C   96  10.763   9.768   0.522 -0.3866 -0.1665 -0.3741
  742MOL0     C   97  10.887   9.717   0.595 -0.3511 -0.2411 -0.0255
  742MOL0     C   98  11.009   9.805   0.556 -0.1783  0.5571 -0.0324
  742MOL0     C   99  11.142   9.729   0.552  0.1583  0.4936  0.3866
  742MOL0     C  100  11.223   9.646   0.531  0.3183  0.2809 -0.6166
  742MOL0     C  101  10.510   9.817   0.943 -0.2058  0.4306  0.6487
  742MOL0     C  102  10.392   9.827   1.011  0.7109 -0.2086  0.5118
  742MOL0     H  103   9.970   9.959   1.235  1.5279 -1.2674  1.0080
  742MOL0     H  104   9.731   9.964   1.346  0.9893 -1.2183  1.8115
  742MOL0     H  105   9.449   9.987   1.383 -0.4349  0.8334 -0.7348
  742MOL0     H  106   9.468  10.053   1.226 -0.2048  1.6495  1.3369
  742MOL0     H  107   9.267   9.833   1.310 -3.8490  1.2760 -0.5653
  742MOL0     H  108   9.240  10.004   1.278 -0.3574 -0.1292 -1.8150
  742MOL0     H  109   9.305   9.977   1.036 -2.1337  1.6466  1.6515
  742MOL0     H  110   9.354   9.809   1.066 -3.0984 -1.7690 -2.3185
  742MOL0     H  111   9.115   9.745   1.121  1.3647  2.0304  1.8935
  742MOL0     H  112   9.069   9.911   1.105 -1.0032 -0.8018  0.5941
  742MOL0     H  113   8.999   9.806   0.911  0.0523 -1.8554  2.1371
  742MOL0     H  114   9.103   9.934   0.877 -1.0898  0.4114  3.0010
  742MOL0     H  115   9.149   9.750   0.740 -1.9275  1.8390  0.9326
  742MOL0     H  116   9.294   9.768   0.836  0.5696 -3.5147  3.2047
  742MOL0     H  117   9.208   9.577   0.993  0.8993 -0.0129 -0.1247
  742MOL0     H  118   9.087   9.536   0.867 -0.5952 -0.7906  2.0555
  742MOL0     H  119   9.257   9.475   0.716  2.1097  1.3793  0.2730
  742MOL0     H  120   9.267   9.386   0.873  2.0836 -2.4201 -1.6904
  742MOL0     H  121   9.492   9.397   0.998 -3.1168 -0.1352 -1.2396
  742MOL0     H  122   9.802   9.558   1.005 -1.0967  0.0085  0.1351
  742MOL0     H  123   9.762   9.385   1.003 -4.3700  1.0800  0.3654
  742MOL0     H  124   9.898   9.536   0.783 -2.3986  2.5228  0.3655
  742MOL0     H  125   9.893   9.356   0.793 -1.3059  1.0769  0.6750
  742MOL0     H  126  10.037   9.407   1.009 -1.1430  1.7997  1.0149
  742MOL0     H  127  10.036   9.562   0.960 -1.6135  0.0791 -0.8493
  742MOL0     H  128  10.128   9.500   0.737  2.5390  0.5674  0.1837
  742MOL0     H  129  10.140   9.327   0.796  1.8274  0.5828  0.7520
  742MOL0     H  130  10.201   9.214   0.966  1.5144  0.9521 -2.3725
  742MOL0     H  131  10.198   9.125   1.308 -1.1257  0.6161 -0.7008
  742MOL0     H  132  10.114   9.071   1.167 -0.7780 -1.8775  1.0638
  742MOL0     H  133  10.275   9.007   1.194 -0.3161  0.0954 -0.2748
  742MOL0     H  134  10.388   9.120   1.615  0.0738 -0.5665 -1.6947
  742MOL0     H  135  10.442   8.945   1.792 -3.6583 -2.7842 -1.2764
  742MOL0     H  136  10.764   8.657   1.698 -1.1072 -3.1474  1.0293
  742MOL0     H  137  10.838   8.779   1.788  0.8228 -1.2545 -0.6728
  742MOL0     H  138  10.851   8.581   1.943  0.1900  2.3098  3.3114
  742MOL0     H  139  10.718   8.680   2.003 -0.7052  0.5743 -1.5699
  742MOL0     H  140  10.569   8.501   1.891 -0.1999  2.1323 -0.1543
  742MOL0     H  141  10.685   8.430   1.994  0.1292 -0.5917 -0.5210
  742MOL0     H  142  10.705   8.453   1.693 -0.4009 -2.0202  0.3167
  742MOL0     H  143  10.847   8.414   1.783  1.2295  0.0032 -1.5569
  742MOL0     H  144  10.568   8.283   1.760 -1.1576 -2.7930  3.3232
  742MOL0     H  145  10.678   8.214   1.879  2.3710  0.1525  0.4417
  742MOL0     H  146  10.706   8.236   1.577  0.8446 -0.4699 -0.5060
  742MOL0     H  147  10.832   8.171   1.685 -1.0172 -0.6511  1.3962
  742MOL0     H  148  10.555   8.052   1.660  0.1407  2.3048 -1.0253
  742MOL0     H  149  10.694   7.972   1.729 -2.3165 -0.7502  0.1679
  742MOL0     H  150  10.667   8.029   1.433  1.4545  0.2823  0.6474
  742MOL0     H  151  10.643   7.880   1.527 -2.3553  1.5711  1.8310
  742MOL0     H  152  10.746   8.785   1.524  0.0759  0.9157 -3.4900
  742MOL0     H  153  10.667   8.939   1.352 -2.5521  0.5060 -0.3437
  742MOL0     H  154  10.472   9.470   1.272  1.6620 -0.1966 -1.6634
  742MOL0     H  155  10.406   9.574   1.073  2.7464  0.1020  1.4899
  742MOL0     H  156   9.570   9.772   1.005 -0.4209 -0.2568 -0.0217
  742MOL0     H  157   9.778   9.777   0.887 -1.0204 -3.3627  0.3991
  742MOL0     H  158  10.181   9.826   0.746 -1.2978  0.1595  2.0607
  742MOL0     H  159  10.361   9.820   0.630 -0.7813 -0.5654  0.3278
  742MOL0     H  160  10.583   9.665   0.587 -0.9726  0.2312  0.2136
  742MOL0     H  161  10.560   9.826   0.537 -0.8757 -1.0521 -1.5341
  742MOL0     H  162  10.774   9.876   0.511 -0.6591 -0.1059 -0.0805
  742MOL0     H  163  10.758   9.718   0.425 -2.0368 -2.9167  1.0135
  742MOL0     H  164  10.890   9.614   0.559 -0.9054 -0.3156  0.1414
  742MOL0     H  165  10.872   9.729   0.702 -1.4623 -0.4502 -0.1457
  742MOL0     H  166  11.039   9.895   0.610 -1.1306 -0.5272  2.4916
  742MOL0     H  167  10.990   9.836   0.453 -0.9483  0.5016  0.0847
  742MOL0     H  168  11.301   9.573   0.533  2.3870  2.3624 -0.6153
  742MOL0     H  169  10.602   9.801   0.999 -0.5480  2.2294  1.8254
  742MOL0     H  170  10.404   9.813   1.118  0.1621  3.3033  1.1680
  743MOL0     O  171   0.482   6.566   1.967 -0.7287  0.7033 -0.2389
  743MOL0     C  172   0.546   6.554   2.074  0.1439 -0.7225  0.1090
  743MOL0     O  173   0.528   6.632   2.176 -0.5475 -0.5661 -0.8564
  743MOL0     C  174   0.426   6.715   2.166 -0.0547 -0.7845 -0.2467
  743MOL0     C  175   0.314   6.686   2.242  0.9084  0.2905 -0.0261
  743MOL0     C  176   0.198   6.770   2.239  0.2762 -0.0033  0.2584
  743MOL0     C  177   0.200   6.880   2.155 -0.4787 -0.5195 -0.2122
  743MOL0     O  178   0.097   6.965   2.137  0.3757 -0.0890  0.5914
  743MOL0     C  179   0.068   7.034   2.255 -1.1222 -0.6813 -0.7736
  743MOL0     C  180  -0.055   7.129   2.218  0.7367 -0.1881  0.6536
  743MOL0     C  181  -0.075   7.254   2.302 -0.4580  0.9859 -0.2152
  743MOL0     C  182  -0.166   7.356   2.236  0.9418  0.7094  0.5384
  743MOL0     C  183  -0.163   7.493   2.314 -1.0255  0.4632  0.5550
  743MOL0     C  184  -0.289   7.568   2.309  0.5332 -1.1108  0.0760
  743MOL0     C  185  -0.324   7.609   2.164  0.2662  0.1603  0.5729
  743MOL0     C  186  -0.465   7.670   2.162 -0.2144  0.8373 -0.1621
  743MOL0     N  187  -0.562   7.568   2.192 -0.0557  0.1990  0.4914
  743MOL0     C  188  -0.611   7.472   2.102 -0.1898 -0.9423 -0.4558
  743MOL0     C  189  -0.685   7.387   2.175  0.4165 -0.0915 -0.7338
  743MOL0     C  190  -0.744   7.256   2.115 -0.0816 -0.3731 -0.0175
  743MOL0     C  191  -0.900   7.270   2.127  0.0624  1.4322 -0.4166
  743MOL0     C  192  -0.964   7.158   2.034  0.1844  0.3618  0.2648
  743MOL0     C  193  -1.099   7.169   1.981 -0.3992  0.6389 -0.4463
  743MOL0     O  194  -1.113   7.044   1.907  0.0022 -0.3893  0.0038
  743MOL0     C  195  -1.228   7.031   1.848  0.2630  0.3074  0.3366
  743MOL0     C  196  -1.333   7.117   1.825 -0.1503 -0.0223  0.7368
  743MOL0     C  197  -1.452   7.082   1.752  0.1753  0.4320  0.4865
  743MOL0     C  198  -1.561   7.186   1.738 -0.6301  0.5280 -0.5322
  743MOL0     C  199  -1.458   6.955   1.689 -1.4176  0.0688  0.1485
  743MOL0     C  200  -1.564   6.903   1.606 -0.7386 -0.1336  0.7951
  743MOL0     O  201  -1.578   6.767   1.604  0.2073  0.4924  0.2762
  743MOL0     C  202  -1.632   6.704   1.495  0.2596 -0.3744  0.2281
  743MOL0     C  203  -1.562   6.706   1.373  0.4055 -0.1168  0.2930
  743MOL0     C  204  -1.595   6.619   1.271 -0.7086 -0.5224  0.3612
  743MOL0     C  205  -1.710   6.536   1.280 -0.0477  0.0339  0.5090
  743MOL0     O  206  -1.728   6.447   1.182  0.1368 -0.2672  0.3304
  743MOL0     C  207  -1.856   6.377   1.177 -0.4879  0.8529 -0.2702
  743MOL0     C  208  -1.867   6.285   1.059 -0.1198 -0.0624  0.0293
  743MOL0     C  209  -2.018   6.245   1.040  0.3285 -0.3181  0.4352
  743MOL0     C  210  -2.039   6.135   0.931  0.6784 -0.0577 -0.5801
  743MOL0     C  211  -2.186   6.106   0.895 -0.8197 -0.0076  0.4313
  743MOL0     C  212  -2.187   6.033   0.758 -0.3676  0.0486 -0.4613
  743MOL0     C  213  -2.338   5.994   0.719 -0.8023 -0.0165  0.3527
  743MOL0     C  214  -2.334   5.888   0.609  0.2430  0.2249 -0.0226
  743MOL0    Cl  215  -2.482   5.789   0.579  0.5314 -0.4071  0.1132
  743MOL0     C  216  -1.796   6.565   1.387  0.1044  0.0565 -0.0247
  743MOL0     C  217  -1.753   6.639   1.499 -0.4943  1.3350 -0.0600
  743MOL0     O  218  -1.617   6.985   1.530 -0.4272  0.1261  0.0828
  743MOL0     C  219  -1.340   6.867   1.704 -0.2848  0.8323 -1.0472
  743MOL0     C  220  -1.239   6.904   1.792 -0.0534  0.4437  0.3197
  743MOL0     N  221  -0.687   7.440   2.303 -0.6041  0.8904  0.1131
  743MOL0     N  222  -0.619   7.547   2.312  0.2605  0.6697 -0.3105
  743MOL0     C  223   0.319   6.912   2.079  0.4243 -0.2640  0.0962
  743MOL0     C  224   0.434   6.837   2.092  0.2313 -0.3058  0.7068
  743MOL0     C  225   0.610   6.423   2.097  0.8731 -0.3492 -0.5880
  743MOL0     C  226   0.603   6.317   2.004 -0.3978  0.4311 -0.3727
  743MOL0     C  227   0.662   6.199   2.041  0.3759  0.3539  0.2173
  743MOL0     C  228   0.718   6.169   2.164  0.0419 -0.1628 -0.1794
  743MOL0     O  229   0.762   6.039   2.179 -0.6170 -0.0673 -0.1019
  743MOL0     C  230   0.836   6.021   2.298 -0.2349 -0.2011 -0.4007
  743MOL0     C  231   0.916   5.895   2.299 -0.5201  0.8032  0.7101
  743MOL0     C  232   0.832   5.769   2.325  0.0749 -0.0562  0.4603
  743MOL0     C  233   0.845   5.700   2.458  0.2707 -0.0333  0.1409
  743MOL0     C  234   0.768   5.760   2.568 -0.2257 -0.1537 -0.0048
  743MOL0     C  235   0.696   5.808   2.651  0.8938  0.0050 -0.2579
  743MOL0     C  236   0.735   6.279   2.254 -0.1421  0.5986  0.1113
  743MOL0     C  237   0.680   6.404   2.213  0.2772  0.1151  0.0095
  743MOL0     H  238   0.314   6.599   2.306  1.8052  2.4117  3.0823
  743MOL0     H  239   0.111   6.754   2.301 -0.6855 -1.1131 -1.2936
  743MOL0     H  240   0.041   6.966   2.337  0.8516 -1.8210 -1.0149
  743MOL0     H  241   0.152   7.100   2.280 -4.4429  3.5395  0.4463
  743MOL0     H  242  -0.023   7.165   2.120 -2.1895  0.7610 -0.0587
  743MOL0     H  243  -0.145   7.069   2.201  0.3283  0.1024  1.7279
  743MOL0     H  244  -0.096   7.234   2.407  0.8446 -1.4528 -0.3408
  743MOL0     H  245   0.024   7.300   2.311 -0.1093  0.1473  0.3354
  743MOL0     H  246  -0.129   7.366   2.133  1.7374  0.1824  0.7711
  743MOL0     H  247  -0.268   7.320   2.218  0.4438  3.0848 -2.2712
  743MOL0     H  248  -0.143   7.467   2.418  0.9540 -1.6625 -0.2551
  743MOL0     H  249  -0.074   7.548   2.282 -0.5395  0.2610  1.5312
  743MOL0     H  250  -0.362   7.498   2.349 -0.8441 -0.1748 -0.6994
  743MOL0     H  251  -0.295   7.661   2.366 -0.7315 -0.6994 -0.6669
  743MOL0     H  252  -0.244   7.676   2.128  1.4936 -1.5821 -0.1102
  743MOL0     H  253  -0.333   7.525   2.095 -2.4045 -1.3458  2.6140
  743MOL0     H  254  -0.484   7.714   2.063  0.5543  3.8178  0.9218
  743MOL0     H  255  -0.475   7.759   2.224  1.1462  1.3568 -0.6700
  743MOL0     H  256  -0.571   7.467   2.001  0.3607  1.0179 -0.3796
  743MOL0     H  257  -0.723   7.251   2.007 -0.2847 -0.5582 -0.0489
  743MOL0     H  258  -0.705   7.162   2.153  2.0257  0.3235 -0.3477
  743MOL0     H  259  -0.930   7.363   2.078  0.1200  0.0065 -3.3494
  743MOL0     H  260  -0.935   7.265   2.231  3.4258  1.3434  0.8486
  743MOL0     H  261  -0.954   7.059   2.081  0.5927 -0.6754 -1.8843
  743MOL0     H  262  -0.902   7.124   1.951  0.5226  2.4711 -0.3972
  743MOL0     H  263  -1.106   7.256   1.915  1.7332 -0.2298 -1.9108
  743MOL0     H  264  -1.163   7.180   2.069 -0.7218 -2.7517 -0.1241
  743MOL0     H  265  -1.326   7.213   1.875  0.4484 -0.3436  1.2844
  743MOL0     H  266  -1.595   7.190   1.634 -3.0019  1.1876  0.2078
  743MOL0     H  267  -1.653   7.171   1.796 -0.6349 -1.0412 -0.8950
  743MOL0     H  268  -1.526   7.282   1.777 -2.1901  0.5241  1.0280
  743MOL0     H  269  -1.473   6.766   1.357  1.0563 -1.4644 -1.7043
  743MOL0     H  270  -1.540   6.618   1.178  1.3874  0.6866  1.5267
  743MOL0     H  271  -1.875   6.324   1.271  0.9218  2.7400  1.1297
  743MOL0     H  272  -1.942   6.443   1.164 -0.1935  1.2753 -0.0774
  743MOL0     H  273  -1.827   6.332   0.969 -0.6617 -1.7290 -1.1403
  743MOL0     H  274  -1.812   6.191   1.069  0.4806 -0.0962 -2.7508
  743MOL0     H  275  -2.074   6.334   1.010  0.8437 -0.5909 -1.4828
  743MOL0     H  276  -2.070   6.226   1.134  1.1790 -0.7342  0.8307
  743MOL0     H  277  -1.994   6.163   0.835  1.0481  0.5695 -0.2339
  743MOL0     H  278  -1.995   6.040   0.965  2.5934 -0.4375 -3.6420
  743MOL0     H  279  -2.245   6.197   0.883 -0.7125  0.1547  1.1226
  743MOL0     H  280  -2.225   6.048   0.979  0.8164 -2.2593 -0.2466
  743MOL0     H  281  -2.142   6.093   0.679  4.2989 -2.4208  0.0153
  743MOL0     H  282  -2.130   5.940   0.756 -1.3696 -0.5779 -0.6925
  743MOL0     H  283  -2.386   6.086   0.685 -0.5014 -0.2289 -0.6818
  743MOL0     H  284  -2.366   5.953   0.816  5.1395 -0.7118  2.2139
  743MOL0     H  285  -2.280   5.803   0.653 -1.1673 -0.9289 -0.4190
  743MOL0     H  286  -2.301   5.912   0.508 -1.5107 -1.5274 -1.0823
  743MOL0     H  287  -1.891   6.513   1.390 -0.2598  0.7288  0.2318
  743MOL0     H  288  -1.821   6.644   1.584 -0.0261  3.1454  0.2644
  743MOL0     H  289  -1.329   6.773   1.650  2.7026  0.7190 -0.4155
  743MOL0     H  290  -1.156   6.835   1.792 -0.4157  0.0013  0.3073
  743MOL0     H  291   0.319   7.004   2.022 -0.1528 -0.2175  0.1653
  743MOL0     H  292   0.515   6.873   2.030 -0.4413 -0.5704 -0.3672
  743MOL0     H  293   0.560   6.332   1.905 -3.1679 -2.4485  0.2209
  743MOL0     H  294   0.682   6.126   1.963  0.5873  0.8315 -0.1832
  743MOL0     H  295   0.912   6.100   2.299  1.4934 -1.7336 -1.8552
  743MOL0     H  296   0.776   6.038   2.388  1.7739  6.3591  0.2367
  743MOL0     H  297   0.993   5.895   2.376 -0.6956  2.7402  0.9238
  743MOL0     H  298   0.985   5.876   2.216  1.4136  0.0454  2.4285
  743MOL0     H  299   0.879   5.710   2.246  2.6566  0.2755  1.6419
  743MOL0     H  300   0.729   5.797   2.304 -1.1054 -2.0166  3.0856
  743MOL0     H  301   0.955   5.700   2.461  0.3638 -0.9355 -1.8894
  743MOL0     H  302   0.798   5.601   2.457 -1.2759  0.5373  3.1650
  743MOL0     H  303   0.620   5.842   2.718  0.2608 -1.4307 -0.2123
  743MOL0     H  304   0.776   6.272   2.354  1.9453 -0.7283 -0.7692
  743MOL0     H  305   0.702   6.474   2.293  0.5043  1.6842 -1.3830
  744MOL0     O  306   8.115   7.035  11.412 -0.2337 -0.0545  0.7229
  744MOL0     C  307   8.016   7.046  11.341 -0.8813  1.0915  0.3036
  744MOL0     O  308   7.924   6.949  11.306  0.1256  0.8688 -0.3163
  744MOL0     C  309   7.922   6.816  11.344 -0.3518 -0.5664 -0.2063
  744MOL0     C  310   8.036   6.746  11.409  0.9261 -0.8763 -0.9027
  744MOL0     C  311   8.025   6.612  11.452 -0.4716 -0.4455 -0.3382
  744MOL0     C  312   7.911   6.536  11.413  0.3303 -0.3168 -1.5680
  744MOL0     O  313   7.894   6.399  11.452 -0.0747  0.0611  0.1040
  744MOL0     C  314   7.951   6.357  11.576  0.3974 -0.1503  0.3289
  744MOL0     C  315   7.838   6.276  11.635  0.1019 -0.0167  1.2364
  744MOL0     C  316   7.871   6.134  11.686 -0.0960 -0.2732 -0.3657
  744MOL0     C  317   7.739   6.051  11.724 -0.2365  0.5790  0.4487
  744MOL0     C  318   7.777   5.916  11.790 -0.6418 -0.6038 -0.2840
  744MOL0     C  319   7.666   5.819  11.808  0.4127 -0.9724 -0.2082
  744MOL0     C  320   7.717   5.692  11.866 -0.0266 -0.8107 -0.8999
  744MOL0     C  321   7.772   5.694  12.008  0.2016 -1.2541 -1.1892
  744MOL0     N  322   7.812   5.568  12.074  0.2031  0.0806  0.1516
  744MOL0     C  323   7.841   5.448  12.006 -0.2926  0.8832  0.2163
  744MOL0     C  324   7.851   5.364  12.114  0.5139  0.5268  0.3623
  744MOL0     C  325   7.834   5.216  12.085  0.6493  0.8525 -0.2512
  744MOL0     C  326   7.685   5.182  12.053  1.5941 -0.9740  0.1707
  744MOL0     C  327   7.666   5.042  11.977  0.2944 -0.2792 -0.4046
  744MOL0     C  328   7.524   5.008  11.910 -0.1323 -0.3011  0.7175
  744MOL0     O  329   7.491   5.123  11.837 -1.0189 -0.6845 -0.7495
  744MOL0     C  330   7.370   5.122  11.768 -0.8984  0.0793 -0.2365
  744MOL0     C  331   7.369   5.107  11.631  0.6992 -0.7836 -0.3800
  744MOL0     C  332   7.254   5.125  11.550 -0.2196 -0.3520  0.9097
  744MOL0     C  333   7.277   5.112  11.402 -1.1201 -0.2030  0.1943
  744MOL0     C  334   7.137   5.154  11.613  0.2942 -0.3271  0.2748
  744MOL0     C  335   7.002   5.153  11.541  0.1817  0.2231 -0.1133
  744MOL0     O  336   6.978   5.093  11.415  0.2318  1.0138 -0.7736
  744MOL0     C  337   6.859   5.090  11.350 -0.4803 -0.3450  0.1298
  744MOL0     C  338   6.780   5.208  11.339  0.6984 -0.1649 -0.7855
  744MOL0     C  339   6.656   5.212  11.267 -0.3401  0.8237  0.2232
  744MOL0     C  340   6.627   5.088  11.197  0.5459  0.6703  0.2584
  744MOL0     O  341   6.498   5.060  11.140  1.0165  0.1178 -0.1389
  744MOL0     C  342   6.384   5.100  11.214  0.0510  0.4335  0.0074
  744MOL0     C  343   6.260   5.046  11.150  0.8777  0.1800  0.7327
  744MOL0     C  344   6.116   5.065  11.221 -0.2830 -0.9491 -0.8014
  744MOL0     C  345   6.076   4.958  11.322 -0.6836  0.2933  0.1916
  744MOL0     C  346   5.998   5.017  11.436 -0.1773  0.9845 -0.0014
  744MOL0     C  347   5.951   4.885  11.517  0.7495 -0.1881  0.2536
  744MOL0     C  348   5.823   4.929  11.590 -0.8330  0.5385  1.1853
  744MOL0     C  349   5.784   4.811  11.675 -0.3477  0.9190 -0.8927
  744MOL0    Cl  350   5.889   4.779  11.814 -0.0935 -0.2987  0.1661
  744MOL0     C  351   6.704   4.975  11.202 -0.0714 -0.2889 -0.2303
  744MOL0     C  352   6.823   4.975  11.271 -0.1756 -0.7856  0.2981
  744MOL0     O  353   6.910   5.221  11.599  0.0851  0.6389  0.5850
  744MOL0     C  354   7.135   5.181  11.750 -0.6225  0.3080 -0.1254
  744MOL0     C  355   7.248   5.152  11.827  0.4590  1.0971  0.4053
  744MOL0     N  356   7.831   5.426  12.240 -0.6484  0.0291  0.3846
  744MOL0     N  357   7.806   5.550  12.209 -1.2512  0.0816  0.7577
  744MOL0     C  358   7.807   6.600  11.338 -0.1070  0.5493  0.2262
  744MOL0     C  359   7.813   6.742  11.305 -0.2912  0.3486 -0.3848
  744MOL0     C  360   7.991   7.174  11.278  0.0687 -0.2321  0.4773
  744MOL0     C  361   8.059   7.287  11.331 -0.5426 -0.4036 -0.5130
  744MOL0     C  362   8.028   7.410  11.287 -0.4592  0.5578  0.3151
  744MOL0     C  363   7.936   7.434  11.184  0.2480  0.5409 -1.0408
  744MOL0     O  364   7.899   7.558  11.143 -0.3922  0.3788 -0.2756
  744MOL0     C  365   8.011   7.649  11.091  0.6450  0.9843  0.1470
  744MOL0     C  366   8.095   7.606  10.968 -0.4957  1.0802 -0.3273
  744MOL0     C  367   8.240   7.554  10.995  0.6672 -0.4714 -0.2629
  744MOL0     C  368   8.345   7.654  11.061 -0.2735 -0.2806  0.4001
  744MOL0     C  369   8.331   7.681  11.201 -0.1325  0.1783  0.5586
  744MOL0     C  370   8.314   7.690  11.314  0.8095  0.4651 -0.0381
  744MOL0     C  371   7.892   7.322  11.115 -0.1873  0.1336 -0.2379
  744MOL0     C  372   7.911   7.190  11.166  0.1057 -1.7637  0.2300
  744MOL0     H  373   8.121   6.801  11.447  1.6903 -1.3318 -1.9295
  744MOL0     H  374   8.108   6.574  11.511 -1.4012 -0.6431  0.8744
  744MOL0     H  375   8.036   6.292  11.552 -0.8402 -1.7761  0.1484
  744MOL0     H  376   7.980   6.443  11.637  0.1812  2.0667 -2.4990
  744MOL0     H  377   7.787   6.339  11.709 -3.2516 -1.5330  0.4150
  744MOL0     H  378   7.755   6.273  11.564 -0.5189 -0.3507  1.9547
  744MOL0     H  379   7.930   6.081  11.611  1.9297  1.8056 -0.3602
  744MOL0     H  380   7.940   6.135  11.771 -3.3033 -0.7127  2.4869
  744MOL0     H  381   7.673   6.113  11.785 -1.5415 -0.4598  0.1258
  744MOL0     H  382   7.692   6.030  11.628 -1.5125  0.5520  1.0652
  744MOL0     H  383   7.864   5.868  11.746  1.7861  1.5058  1.9007
  744MOL0     H  384   7.809   5.940  11.892  0.3576  0.7914 -0.9008
  744MOL0     H  385   7.589   5.859  11.876  0.1539  2.0399 -2.0852
  744MOL0     H  386   7.631   5.801  11.707 -0.6339  2.6403 -0.6309
  744MOL0     H  387   7.631   5.626  11.880 -0.6981  0.2127 -0.1286
  744MOL0     H  388   7.790   5.647  11.798  0.2713 -4.1302  1.3719
  744MOL0     H  389   7.703   5.741  12.078 -1.4158  1.2052 -4.1503
  744MOL0     H  390   7.863   5.756  12.010 -0.6592  0.0353  0.4515
  744MOL0     H  391   7.846   5.427  11.899 -0.0296  2.0203 -0.0099
  744MOL0     H  392   7.889   5.181  11.997 -0.5421 -1.7533 -0.0357
  744MOL0     H  393   7.864   5.164  12.176  1.7739 -1.7226 -1.9746
  744MOL0     H  394   7.652   5.263  11.987  2.7456  0.6264  1.4529
  744MOL0     H  395   7.612   5.181  12.134  0.9687 -0.2409 -0.3718
  744MOL0     H  396   7.699   4.972  12.054  0.0181  0.9622  0.8692
  744MOL0     H  397   7.741   5.044  11.897  0.7793 -1.4716 -0.0097
  744MOL0     H  398   7.451   4.984  11.988  0.6479 -3.4136  0.6346
  744MOL0     H  399   7.536   4.927  11.837 -0.1870  1.5601 -1.4576
  744MOL0     H  400   7.460   5.088  11.576  1.7610 -2.2281  1.7501
  744MOL0     H  401   7.189   5.116  11.338 -0.7731  0.1999 -0.2673
  744MOL0     H  402   7.347   5.192  11.373 -0.0962 -1.0942  0.1506
  744MOL0     H  403   7.319   5.014  11.379 -0.1377  0.5729 -1.5209
  744MOL0     H  404   6.805   5.306  11.379 -0.6621  0.4902 -1.4584
  744MOL0     H  405   6.584   5.292  11.275 -4.0808 -2.3481  1.0718
  744MOL0     H  406   6.393   5.051  11.311  1.5023  0.1848 -0.2427
  744MOL0     H  407   6.377   5.208  11.230  3.7249  0.7737 -0.0102
  744MOL0     H  408   6.244   5.099  11.055  0.1018 -1.6983 -0.2234
  744MOL0     H  409   6.267   4.939  11.129 -0.6192  0.3150 -0.6553
  744MOL0     H  410   6.042   5.074  11.140 -1.3093  2.6417  0.3474
  744MOL0     H  411   6.130   5.153  11.284 -1.2423 -2.4352  1.6595
  744MOL0     H  412   6.018   4.886  11.264  1.2530 -1.0692 -0.1318
  744MOL0     H  413   6.169   4.917  11.362 -0.7513  2.0335  2.3642
  744MOL0     H  414   5.917   5.078  11.394 -1.4347 -0.6230 -0.0109
  744MOL0     H  415   6.068   5.073  11.498 -2.2031 -0.1781  3.6587
  744MOL0     H  416   5.932   4.800  11.451  5.4548 -0.5888 -0.8968
  744MOL0     H  417   6.037   4.858  11.578  1.5748 -0.0308 -0.8127
  744MOL0     H  418   5.741   4.951  11.522 -2.3428 -3.1768  1.5711
  744MOL0     H  419   5.841   5.013  11.659  2.5099 -0.5607  1.8356
  744MOL0     H  420   5.773   4.728  11.605  1.2814 -0.6977  0.6418
  744MOL0     H  421   5.683   4.815  11.716 -0.2293 -3.0590  0.2487
  744MOL0     H  422   6.668   4.897  11.135  0.6472  0.4275 -1.5009
  744MOL0     H  423   6.870   4.877  11.260  0.3211 -0.3029 -2.9487
  744MOL0     H  424   7.045   5.209  11.804 -2.2550  3.1342 -3.8607
  744MOL0     H  425   7.247   5.156  11.935  1.4291 -3.1111  0.7490
  744MOL0     H  426   7.722   6.546  11.297  0.4241  0.6121 -1.0087
  744MOL0     H  427   7.729   6.788  11.254  0.9642  2.3227 -0.7982
  744MOL0     H  428   8.124   7.270  11.416  2.2423 -0.0032 -2.3974
  744MOL0     H  429   8.073   7.500  11.328  0.6663 -1.1219  2.9619
  744MOL0     H  430   7.964   7.746  11.075 -0.1891  0.9352  2.0759
  744MOL0     H  431   8.080   7.662  11.175 -2.7725  1.2351  3.1288
  744MOL0     H  432   8.122   7.697  10.914  0.4572  0.9524 -0.0860
  744MOL0     H  433   8.041   7.533  10.908 -0.7187  0.8054  0.2046
  744MOL0     H  434   8.284   7.517  10.902  0.4764  0.2757 -0.6605
  744MOL0     H  435   8.227   7.467  11.060  0.9461 -0.7956 -0.6361
  744MOL0     H  436   8.337   7.746  11.004 -0.5708  0.1424  1.1017
  744MOL0     H  437   8.444   7.613  11.039 -1.5216 -2.8083 -0.9753
  744MOL0     H  438   8.307   7.700  11.421  3.4298  1.5822  0.1032
  744MOL0     H  439   7.825   7.344  11.033  3.0616  0.4389 -3.0179
  744MOL0     H  440   7.863   7.111  11.109 -0.0240 -1.4738 -0.0680
  745MOL0     O  441   6.347   6.413   5.878  0.5603  0.2123  0.0934
  745MOL0     C  442   6.315   6.526   5.916  1.6665  0.1650 -0.8008
  745MOL0     O  443   6.232   6.618   5.859 -0.1601  0.3846  0.7571
  745MOL0     C  444   6.136   6.586   5.771  1.0975  0.4128  0.6752
  745MOL0     C  445   6.093   6.686   5.686 -0.8762  0.3036  0.1326
  745MOL0     C  446   5.991   6.668   5.591  0.3548  0.7276  0.2703
  745MOL0     C  447   5.928   6.549   5.570  0.6697  1.0440 -0.1642
  745MOL0     O  448   5.826   6.549   5.476  0.3129  0.5236 -0.0722
  745MOL0     C  449   5.751   6.425   5.474 -0.0204  0.0288 -0.4390
  745MOL0     C  450   5.635   6.447   5.382  0.3994  0.0415  0.1498
  745MOL0     C  451   5.542   6.336   5.341  0.0574 -0.6911 -0.0918
  745MOL0     C  452   5.422   6.388   5.251 -0.4511 -0.1454  0.2992
  745MOL0     C  453   5.465   6.441   5.107 -1.0133 -0.0392 -0.4032
  745MOL0     C  454   5.339   6.444   5.013 -0.8851  1.0999  0.4193
  745MOL0     C  455   5.377   6.526   4.886 -0.4802  0.4887  0.4669
  745MOL0     C  456   5.294   6.484   4.760 -0.2760  0.4457  0.5881
  745MOL0     N  457   5.338   6.551   4.635  0.3212 -0.3531  0.2339
  745MOL0     C  458   5.339   6.690   4.628  0.1774 -0.1506  0.8433
  745MOL0     C  459   5.403   6.721   4.519 -0.9733 -0.4956  0.3345
  745MOL0     C  460   5.449   6.854   4.472 -0.9520 -0.1883  0.1461
  745MOL0     C  461   5.511   6.928   4.591  0.3593  0.1726 -0.3141
  745MOL0     C  462   5.593   7.039   4.538 -0.3211 -0.4364  0.0475
  745MOL0     C  463   5.707   7.090   4.631 -0.3163  1.1104 -0.2440
  745MOL0     O  464   5.649   7.165   4.736 -0.2000 -0.3148 -0.6275
  745MOL0     C  465   5.716   7.227   4.831 -0.2042  1.2176  0.5054
  745MOL0     C  466   5.646   7.269   4.935 -0.1294  1.2211  0.6549
  745MOL0     C  467   5.710   7.307   5.060  0.0659 -0.4275 -0.0289
  745MOL0     C  468   5.625   7.346   5.175  0.1621 -0.3186 -0.0813
  745MOL0     C  469   5.849   7.315   5.065 -0.1812  0.5273  0.3341
  745MOL0     C  470   5.925   7.393   5.168  0.8323  0.6933 -0.0271
  745MOL0     O  471   6.043   7.335   5.202  0.4525 -0.0010 -0.9127
  745MOL0     C  472   6.097   7.382   5.319  0.0015  0.1793 -0.0674
  745MOL0     C  473   6.036   7.357   5.440 -0.5015 -0.0327 -0.0528
  745MOL0     C  474   6.106   7.361   5.568 -0.6764 -0.1716  1.1585
  745MOL0     C  475   6.226   7.425   5.563 -0.6940 -0.0421  0.5918
  745MOL0     O  476   6.295   7.428   5.681 -0.8260 -1.1166 -0.2640
  745MOL0     C  477   6.388   7.536   5.684  0.2617  0.2353  1.3044
  745MOL0     C  478   6.419   7.564   5.832 -0.8769  0.4589 -0.4314
  745MOL0     C  479   6.493   7.704   5.832  1.3631 -0.8366 -0.0080
  745MOL0     C  480   6.573   7.745   5.956 -0.4656  0.5044 -1.2196
  745MOL0     C  481   6.626   7.889   5.959  0.3501  0.7065 -0.1606
  745MOL0     C  482   6.613   7.969   6.097 -0.1375  0.0510 -0.3512
  745MOL0     C  483   6.703   7.917   6.203  0.7998  0.2720 -0.3503
  745MOL0     C  484   6.857   7.932   6.179  0.3036  0.0491 -0.1464
  745MOL0    Cl  485   6.896   8.108   6.212 -0.2207 -0.0674 -0.0124
  745MOL0     C  486   6.285   7.462   5.439  0.4705 -0.9544  0.0222
  745MOL0     C  487   6.226   7.434   5.315  0.0918 -0.5579 -0.6708
  745MOL0     O  488   5.882   7.495   5.210 -0.5818 -0.6773 -0.2983
  745MOL0     C  489   5.920   7.261   4.953 -0.8990 -0.5309 -0.9273
  745MOL0     C  490   5.854   7.222   4.836 -0.5970  1.2517 -0.3900
  745MOL0     N  491   5.432   6.605   4.460  0.6079  0.3565  0.3329
  745MOL0     N  492   5.405   6.505   4.532  0.2852  0.6641  0.2282
  745MOL0     C  493   5.979   6.441   5.647  0.4475  0.2354 -0.5715
  745MOL0     C  494   6.071   6.461   5.756 -0.6130 -0.7968  1.5245
  745MOL0     C  495   6.377   6.557   6.046  0.4616 -0.0113  0.5356
  745MOL0     C  496   6.418   6.463   6.149  0.6213  1.1402  0.6282
  745MOL0     C  497   6.482   6.495   6.265 -0.1048  0.8111 -0.5680
  745MOL0     C  498   6.505   6.628   6.294  0.6383  0.2419 -0.2246
  745MOL0     O  499   6.583   6.659   6.402 -1.3849  0.2421  1.1531
  745MOL0     C  500   6.721   6.632   6.379  0.9898  0.6094  0.1379
  745MOL0     C  501   6.789   6.615   6.513  0.0597 -0.5220  0.4049
  745MOL0     C  502   6.937   6.594   6.498 -0.2632 -0.0172 -1.2147
  745MOL0     C  503   7.030   6.699   6.448 -0.9968 -0.7451  0.6741
  745MOL0     C  504   7.164   6.656   6.464  0.1629 -0.5132  1.0783
  745MOL0     C  505   7.268   6.596   6.449 -1.3469 -0.5294  0.5280
  745MOL0     C  506   6.480   6.721   6.197 -0.4439  1.0332  0.4237
  745MOL0     C  507   6.406   6.685   6.077 -0.8567  0.0242  0.1175
  745MOL0     H  508   6.124   6.783   5.722 -4.7427  1.9740 -0.5546
  745MOL0     H  509   5.940   6.753   5.545 -3.9795 -1.5559  0.3209
  745MOL0     H  510   5.811   6.353   5.418  0.8261  1.2767 -1.1934
  745MOL0     H  511   5.715   6.389   5.571 -1.2386  0.9230 -0.5341
  745MOL0     H  512   5.572   6.529   5.417  2.7173  0.9927  2.3576
  745MOL0     H  513   5.679   6.490   5.291 -0.9245 -0.3721 -0.7322
  745MOL0     H  514   5.608   6.260   5.297  1.3775  0.5649 -0.3738
  745MOL0     H  515   5.497   6.279   5.423 -2.1677  0.4510 -0.4454
  745MOL0     H  516   5.352   6.303   5.250 -3.2306  1.9719  1.2015
  745MOL0     H  517   5.355   6.458   5.302 -0.8789 -1.5979  1.8160
  745MOL0     H  518   5.511   6.538   5.127 -2.4261  0.8064 -1.1141
  745MOL0     H  519   5.540   6.375   5.062 -0.7063 -0.9128  1.3293
  745MOL0     H  520   5.315   6.338   4.997  0.7333  1.0042 -1.7353
  745MOL0     H  521   5.248   6.480   5.063 -2.3041 -1.9336  0.3229
  745MOL0     H  522   5.366   6.632   4.910 -2.7956  0.9372 -2.0006
  745MOL0     H  523   5.483   6.512   4.865 -0.0587  3.1309  0.5347
  745MOL0     H  524   5.190   6.515   4.769 -0.8053  1.7546 -5.5477
  745MOL0     H  525   5.285   6.376   4.748 -1.5415  0.7150 -1.2036
  745MOL0     H  526   5.301   6.765   4.697  1.2822  0.2026  1.0892
  745MOL0     H  527   5.521   6.833   4.393  0.2922 -1.7528  1.6429
  745MOL0     H  528   5.370   6.914   4.425 -0.0793  1.7398  1.0252
  745MOL0     H  529   5.571   6.852   4.642  1.0560 -1.6951 -3.6310
  745MOL0     H  530   5.436   6.979   4.651  1.0704  2.4309 -1.2571
  745MOL0     H  531   5.529   7.124   4.514  2.3847  1.4949 -0.8829
  745MOL0     H  532   5.648   7.005   4.450  1.5263  0.9190  0.6156
  745MOL0     H  533   5.785   7.149   4.582  1.1354  0.7172  1.4527
  745MOL0     H  534   5.759   7.003   4.672 -0.5878  1.5311  1.0391
  745MOL0     H  535   5.538   7.264   4.928 -0.1747  0.1424  1.6361
  745MOL0     H  536   5.630   7.455   5.167  2.8719 -0.3542 -0.0147
  745MOL0     H  537   5.522   7.310   5.171  0.5914 -1.8767  1.4330
  745MOL0     H  538   5.668   7.324   5.273  1.8160  0.3048 -0.6324
  745MOL0     H  539   5.932   7.327   5.444 -0.6898  0.0351 -2.7718
  745MOL0     H  540   6.056   7.348   5.663  1.5936 -3.6238  2.0692
  745MOL0     H  541   6.483   7.521   5.632 -0.1648  0.0594  0.5609
  745MOL0     H  542   6.346   7.625   5.638  3.0613  0.0386 -2.0478
  745MOL0     H  543   6.332   7.572   5.898 -0.5740  1.8882 -0.1758
  745MOL0     H  544   6.479   7.477   5.861 -0.0642 -0.0947 -3.3733
  745MOL0     H  545   6.420   7.784   5.817 -0.3041 -1.9456  1.8237
  745MOL0     H  546   6.572   7.712   5.757  1.0101  0.0126 -0.2928
  745MOL0     H  547   6.507   7.734   6.043  1.5228 -0.7702  0.1927
  745MOL0     H  548   6.650   7.669   5.973  0.1730  1.4877  0.5729
  745MOL0     H  549   6.578   7.945   5.878  3.4827  0.7393 -2.1456
  745MOL0     H  550   6.731   7.886   5.928  0.0027  1.7122 -1.5365
  745MOL0     H  551   6.636   8.074   6.079  2.3931 -0.1870  1.0553
  745MOL0     H  552   6.509   7.955   6.129 -0.2537 -0.5736 -0.9704
  745MOL0     H  553   6.681   7.811   6.215 -0.8676  0.8195  2.2102
  745MOL0     H  554   6.684   7.950   6.305  0.5071 -1.5918  0.2264
  745MOL0     H  555   6.900   7.912   6.080  2.4015 -0.3912  0.8120
  745MOL0     H  556   6.906   7.865   6.250 -1.6504 -1.1080  0.1983
  745MOL0     H  557   6.384   7.504   5.431  0.3092 -0.9008 -1.9594
  745MOL0     H  558   6.279   7.461   5.224 -0.5100  1.2140 -0.5281
  745MOL0     H  559   6.028   7.261   4.945 -0.8083 -3.1622 -0.5379
  745MOL0     H  560   5.923   7.182   4.762 -0.5881 -2.7872  1.5687
  745MOL0     H  561   5.950   6.336   5.639 -0.8892  0.6787 -1.9319
  745MOL0     H  562   6.106   6.375   5.814  2.1025 -0.5322  0.4235
  745MOL0     H  563   6.402   6.356   6.135 -1.7509  1.4293  0.7925
  745MOL0     H  564   6.506   6.421   6.341 -2.0952  1.9699  1.3082
  745MOL0     H  565   6.728   6.541   6.318 -1.0489  2.9361 -4.0904
  745MOL0     H  566   6.776   6.706   6.319  1.6353  0.8840  1.0533
  745MOL0     H  567   6.741   6.534   6.569  0.3580 -1.3630 -0.5453
  745MOL0     H  568   6.769   6.709   6.566  0.0755 -0.0888 -0.3501
  745MOL0     H  569   6.950   6.501   6.442 -0.2268 -0.5689 -0.3274
  745MOL0     H  570   6.970   6.577   6.601 -0.6146  0.5836 -1.0015
  745MOL0     H  571   7.008   6.790   6.505 -1.3389 -0.3585 -0.0663
  745MOL0     H  572   7.009   6.728   6.345 -0.2531 -2.4946 -0.0144
  745MOL0     H  573   7.366   6.567   6.419 -2.9152 -3.6385 -2.3349
  745MOL0     H  574   6.499   6.826   6.214  2.6852  0.8844 -1.3661
  745MOL0     H  575   6.387   6.765   6.006  1.1158  0.7072  0.3069
  746MOL0     O  576   3.030   8.402   8.942 -0.2677 -0.8941 -0.4374
  746MOL0     C  577   3.050   8.334   8.841 -0.3382  0.3312  0.1855
  746MOL0     O  578   3.018   8.370   8.712  1.0870  0.0717 -0.4292
  746MOL0     C  579   2.931   8.476   8.677 -0.0531 -0.2526  0.5560
  746MOL0     C  580   2.802   8.507   8.739 -0.6946  0.2144  0.4825
  746MOL0     C  581   2.738   8.620   8.695  0.2875  0.0461  1.1553
  746MOL0     C  582   2.794   8.725   8.617 -0.8607  0.4945  0.8003
  746MOL0     O  583   2.750   8.848   8.587  0.8207 -0.4696 -0.4825
  746MOL0     C  584   2.667   8.913   8.688 -0.6846 -0.3991  0.1469
  746MOL0     C  585   2.733   8.925   8.827  0.2840  0.2488  0.1535
  746MOL0     C  586   2.647   8.939   8.947  0.0228 -0.0560  0.4577
  746MOL0     C  587   2.679   9.083   9.007 -0.4208  0.3664 -0.1582
  746MOL0     C  588   2.603   9.196   8.931 -0.2439  0.1384 -0.5535
  746MOL0     C  589   2.677   9.321   8.921  0.3543 -1.1847 -0.7905
  746MOL0     C  590   2.797   9.323   8.827 -0.6143  0.3106  0.7554
  746MOL0     C  591   2.774   9.305   8.682 -0.1099  0.0901  0.0210
  746MOL0     N  592   2.665   9.388   8.636  0.3590  0.7071  0.1781
  746MOL0     C  593   2.691   9.519   8.614 -0.0584  0.1820 -0.4074
  746MOL0     C  594   2.576   9.576   8.630 -0.4543 -0.1659  0.5619
  746MOL0     C  595   2.554   9.725   8.622  0.1505  0.0956 -0.1506
  746MOL0     C  596   2.641   9.792   8.738  0.7978  0.2120  1.2227
  746MOL0     C  597   2.610   9.948   8.746  0.6072  0.6761 -0.6018
  746MOL0     C  598   2.707  10.012   8.839 -0.5707  0.2332 -0.4773
  746MOL0     O  599   2.693  10.158   8.819 -0.1370  0.7626 -0.0436
  746MOL0     C  600   2.781  10.250   8.868 -0.0450  0.3967  0.3829
  746MOL0     C  601   2.748  10.387   8.853  0.2123  0.1155 -0.6303
  746MOL0     C  602   2.819  10.493   8.904 -0.5475  0.1007 -0.2944
  746MOL0     C  603   2.766  10.635   8.902  0.3432 -0.4957 -0.0880
  746MOL0     C  604   2.948  10.454   8.972  0.2268 -0.0548  0.1188
  746MOL0     C  605   3.056  10.551   9.009 -0.4499 -0.0135 -0.5923
  746MOL0     O  606   3.165  10.491   9.082  1.2717  0.0585 -0.6640
  746MOL0     C  607   3.257  10.578   9.143  0.7707 -0.8909 -0.9176
  746MOL0     C  608   3.218  10.694   9.212  0.1286 -0.4611 -0.2475
  746MOL0     C  609   3.318  10.782   9.277  0.1152  0.4799  0.1251
  746MOL0     C  610   3.450  10.751   9.262  0.1935  0.1982  0.7160
  746MOL0     O  611   3.539  10.819   9.330  0.6019  0.0803 -0.3585
  746MOL0     C  612   3.618  10.901   9.243  0.3122  0.6220 -0.6235
  746MOL0     C  613   3.761  10.923   9.291 -0.1307 -0.5400 -0.7668
  746MOL0     C  614   3.754  11.020   9.404  0.1016  0.4709  0.7092
  746MOL0     C  615   3.895  11.027   9.468  0.2892 -0.5890 -1.2354
  746MOL0     C  616   3.903  11.110   9.594 -0.0192 -0.7434 -0.3578
  746MOL0     C  617   4.035  11.095   9.670  0.4263  0.4083 -0.8937
  746MOL0     C  618   4.057  11.209   9.783 -0.1388  0.7870  0.2033
  746MOL0     C  619   4.082  11.352   9.731 -0.7608 -0.3435 -0.1268
  746MOL0    Cl  620   4.187  11.422   9.866  0.2297 -0.3665  0.1460
  746MOL0     C  621   3.492  10.637   9.187 -0.2099 -0.1934 -0.0238
  746MOL0     C  622   3.395  10.550   9.122 -0.9516  0.0903 -0.0189
  746MOL0     O  623   3.050  10.667   8.976 -0.2749  0.0166  0.2986
  746MOL0     C  624   2.988  10.320   8.974  1.1098 -0.2625 -1.7721
  746MOL0     C  625   2.905  10.221   8.922  0.6072  0.4705 -0.6087
  746MOL0     N  626   2.473   9.483   8.632  1.4578  0.0174 -0.4300
  746MOL0     N  627   2.528   9.369   8.651 -0.2132  0.1905  0.9763
  746MOL0     C  628   2.921   8.691   8.560 -0.7459  0.0763 -0.7350
  746MOL0     C  629   2.984   8.574   8.581 -0.2707  0.6411  0.2489
  746MOL0     C  630   3.108   8.200   8.865 -0.4555  0.3236  0.0797
  746MOL0     C  631   3.071   8.125   8.980 -0.2636  0.5036 -0.1031
  746MOL0     C  632   3.141   8.001   9.008  0.3175  0.1573 -0.2073
  746MOL0     C  633   3.259   7.961   8.927  0.0963 -0.7544  0.3948
  746MOL0     O  634   3.333   7.855   8.943 -0.4577  0.1288  0.4294
  746MOL0     C  635   3.356   7.802   9.079  0.0202 -1.0746 -0.2474
  746MOL0     C  636   3.443   7.891   9.166 -0.5453 -0.5830  0.3477
  746MOL0     C  637   3.444   7.844   9.310 -0.2312  0.1585 -0.3007
  746MOL0     C  638   3.479   7.956   9.412 -0.6159 -0.0867  0.6817
  746MOL0     C  639   3.615   8.016   9.404 -0.1044  0.6607 -0.2119
  746MOL0     C  640   3.728   8.055   9.396 -0.6909  0.6000 -0.4550
  746MOL0     C  641   3.274   8.036   8.805 -0.1343  0.5494  0.3933
  746MOL0     C  642   3.194   8.150   8.777  0.6159  0.5151 -0.1111
  746MOL0     H  643   2.767   8.430   8.807 -0.1232  0.2901  0.8729
  746MOL0     H  644   2.638   8.637   8.734 -0.3965 -1.6920  0.2506
  746MOL0     H  645   2.621   9.009   8.662 -0.8696 -0.2324  1.0714
  746MOL0     H  646   2.576   8.855   8.705 -2.0457  1.5288 -0.1856
  746MOL0     H  647   2.795   8.836   8.845 -0.5343 -0.5855 -1.0596
  746MOL0     H  648   2.794   9.016   8.820 -0.3717  0.8226  1.4342
  746MOL0     H  649   2.543   8.922   8.918  0.5500 -2.1105 -0.3981
  746MOL0     H  650   2.679   8.856   9.011  3.1091  0.6135 -0.0509
  746MOL0     H  651   2.639   9.090   9.109  1.7924  5.6916  0.6734
  746MOL0     H  652   2.787   9.102   9.005  0.1996 -2.6841 -0.0294
  746MOL0     H  653   2.560   9.163   8.836 -1.0716  0.6842 -0.3841
  746MOL0     H  654   2.509   9.210   8.985 -0.5328 -1.9462 -0.4450
  746MOL0     H  655   2.612   9.398   8.879  0.3407 -1.1991 -0.7947
  746MOL0     H  656   2.695   9.355   9.024 -0.7608  1.8090 -1.4803
  746MOL0     H  657   2.851   9.418   8.837  1.5377 -0.6538 -0.8424
  746MOL0     H  658   2.871   9.246   8.851 -0.6264  0.2372  0.5661
  746MOL0     H  659   2.769   9.198   8.660 -2.3388  0.0864  0.3003
  746MOL0     H  660   2.865   9.341   8.634 -1.7322  1.6824 -2.0490
  746MOL0     H  661   2.787   9.568   8.605  0.3100 -0.0849  1.5795
  746MOL0     H  662   2.604   9.765   8.533  0.2162  0.7017  0.1570
  746MOL0     H  663   2.446   9.739   8.634 -0.1613 -2.2259  0.2391
  746MOL0     H  664   2.745   9.777   8.708  0.2730 -0.2863 -0.4322
  746MOL0     H  665   2.623   9.740   8.833 -1.5635 -0.4101  0.4876
  746MOL0     H  666   2.509   9.964   8.785  0.3130 -0.4473 -0.8769
  746MOL0     H  667   2.611   9.982   8.642 -0.8723 -1.8476 -1.5246
  746MOL0     H  668   2.808   9.975   8.819 -0.1824 -0.7052  2.6571
  746MOL0     H  669   2.685   9.987   8.943 -1.6898 -0.0087 -0.7588
  746MOL0     H  670   2.645  10.416   8.833 -0.2141  2.4234  3.7212
  746MOL0     H  671   2.794  10.690   8.992 -1.3232  0.7865 -0.3163
  746MOL0     H  672   2.784  10.698   8.815 -1.6510 -1.9296 -1.6290
  746MOL0     H  673   2.658  10.625   8.917  0.3466 -1.4868 -0.6067
  746MOL0     H  674   3.115  10.726   9.220  0.2428 -0.1436 -0.0412
  746MOL0     H  675   3.289  10.879   9.318 -0.0429  0.5826 -0.2315
  746MOL0     H  676   3.637  10.846   9.150  2.0435  0.2920 -0.0960
  746MOL0     H  677   3.578  10.998   9.213 -0.6101 -0.2933 -2.5603
  746MOL0     H  678   3.800  10.825   9.321 -0.7258 -1.3090 -2.3906
  746MOL0     H  679   3.812  10.970   9.206  1.0763  0.2208  0.3379
  746MOL0     H  680   3.677  10.986   9.474 -1.6693 -0.2557 -1.4765
  746MOL0     H  681   3.729  11.118   9.362 -1.0022 -1.3502 -3.2887
  746MOL0     H  682   3.935  10.927   9.488 -0.8500 -0.7857  0.2307
  746MOL0     H  683   3.971  11.067   9.399 -0.0539  3.1635  0.2834
  746MOL0     H  684   3.823  11.083   9.663 -0.4071  1.6332  0.1867
  746MOL0     H  685   3.879  11.212   9.563  0.0114 -0.5094  0.3698
  746MOL0     H  686   4.055  10.999   9.721  1.8521  2.0535  1.8968
  746MOL0     H  687   4.116  11.102   9.597  0.5678 -2.5396 -1.1579
  746MOL0     H  688   4.140  11.179   9.847 -0.3254  2.2979  1.1909
  746MOL0     H  689   3.963  11.210   9.839  0.5111  0.9268  1.3246
  746MOL0     H  690   3.995  11.417   9.725 -0.8520 -0.5713 -2.1205
  746MOL0     H  691   4.135  11.348   9.635 -0.0112  0.3151  0.2598
  746MOL0     H  692   3.597  10.610   9.174 -0.3577  0.3555 -3.4524
  746MOL0     H  693   3.423  10.456   9.075  0.5974  0.3416  0.3362
  746MOL0     H  694   3.080  10.294   9.025 -0.3889 -0.1634  1.1779
  746MOL0     H  695   2.929  10.116   8.939 -1.1863 -0.0077 -0.8033
  746MOL0     H  696   2.967   8.759   8.489  1.3862 -1.6155 -1.0532
  746MOL0     H  697   3.084   8.557   8.544  0.5355  3.6448  0.7861
  746MOL0     H  698   2.986   8.154   9.041 -1.8057  0.3396 -2.0752
  746MOL0     H  699   3.112   7.945   9.096 -2.2400  2.4554  0.5379
  746MOL0     H  700   3.263   7.793   9.135  0.6523  2.7236  1.7421
  746MOL0     H  701   3.416   7.710   9.074  0.8190 -0.4902 -2.4409
  746MOL0     H  702   3.404   7.993   9.164 -0.5129 -0.5707  0.3534
  746MOL0     H  703   3.542   7.891   9.118 -0.8155  1.4323 -0.2780
  746MOL0     H  704   3.508   7.757   9.330  1.2423  1.6509  1.9943
  746MOL0     H  705   3.342   7.817   9.336 -0.3965 -1.2228 -2.1737
  746MOL0     H  706   3.468   7.919   9.515 -0.2002 -0.7819  0.4857
  746MOL0     H  707   3.409   8.038   9.394  0.9352  1.3118  0.8500
  746MOL0     H  708   3.831   8.083   9.379  0.0326 -0.0420  2.4267
  746MOL0     H  709   3.351   8.013   8.732 -0.6501  1.1889 -0.3787
  746MOL0     H  710   3.218   8.196   8.682 -2.1503  0.5160 -0.8657
  747MOL0     O  711   2.576  11.428   9.576  0.0010  0.2906  0.6662
  747MOL0     C  712   2.478  11.389   9.512 -0.1964  0.6332 -0.1333
  747MOL0     O  713   2.398  11.276   9.551 -0.2589 -0.6989  0.3273
  747MOL0     C  714   2.408  11.223   9.673  0.0592 -0.0748  0.4664
  747MOL0     C  715   2.394  11.089   9.690  0.8567  0.3661 -0.4009
  747MOL0     C  716   2.389  11.026   9.818  0.0367 -0.3192 -0.4243
  747MOL0     C  717   2.382  11.108   9.930  0.0550  0.7860 -0.3399
  747MOL0     O  718   2.356  11.060  10.061 -0.0037 -0.1200  0.3904
  747MOL0     C  719   2.370  10.920  10.083  0.5602  1.6136 -0.2104
  747MOL0     C  720   2.235  10.851  10.071  0.1854  0.1359  0.5481
  747MOL0     C  721   2.129  10.922  10.162  0.0243 -0.1008  0.5100
  747MOL0     C  722   1.983  10.879  10.114  0.1840 -0.3460  0.0075
  747MOL0     C  723   1.873  10.956  10.194 -0.0692 -1.4396 -0.5554
  747MOL0     C  724   1.857  11.095  10.151  0.2899 -0.9221 -0.7711
  747MOL0     C  725   1.798  11.185  10.257  0.6487 -0.1034 -0.5727
  747MOL0     C  726   1.642  11.176  10.246  0.5508 -0.4478 -0.5268
  747MOL0     N  727   1.595  11.268  10.353 -0.2566  0.1434 -0.5596
  747MOL0     C  728   1.632  11.403  10.375  0.1071  0.0868 -0.1738
  747MOL0     C  729   1.566  11.449  10.479  0.2168 -0.0169 -0.0434
  747MOL0     C  730   1.574  11.581  10.542  0.0669 -0.1598  0.4592
  747MOL0     C  731   1.727  11.601  10.579 -0.3792 -0.1144  0.8761
  747MOL0     C  732   1.770  11.747  10.629  0.1228 -0.0712 -0.6153
  747MOL0     C  733   1.730  11.865  10.538  0.7064  1.7848  0.1665
  747MOL0     O  734   1.750  11.990  10.599 -0.5294  0.0131 -0.5718
  747MOL0     C  735   1.650  12.040  10.677  0.5345  0.0795 -0.3130
  747MOL0     C  736   1.527  11.977  10.712  0.0815  0.1616 -1.3335
  747MOL0     C  737   1.422  12.039  10.792 -0.0860  0.3184 -0.9254
  747MOL0     C  738   1.284  11.969  10.817 -0.4396 -0.9911 -0.3938
  747MOL0     C  739   1.447  12.171  10.839  0.0207 -1.2897  0.8688
  747MOL0     C  740   1.346  12.253  10.919 -0.3788  0.3820  0.4629
  747MOL0     O  741   1.325  12.383  10.873  0.1084 -0.2266  0.3238
  747MOL0     C  742   1.219  12.453  10.922 -0.7784 -0.5214 -0.6691
  747MOL0     C  743   1.176  12.558  10.837 -0.1136 -0.1203 -0.3697
  747MOL0     C  744   1.073  12.644  10.874 -0.2821 -0.0664 -0.3144
  747MOL0     C  745   1.015  12.633  10.995  1.0093  0.7692 -0.1388
  747MOL0     O  746   0.904  12.712  11.023  0.4206  0.4016 -0.6121
  747MOL0     C  747   0.839  12.701  11.150  0.0906 -0.0378 -0.0192
  747MOL0     C  748   0.737  12.805  11.183 -0.1987  0.3386  0.7531
  747MOL0     C  749   0.596  12.773  11.162 -0.5639 -0.4918 -0.0700
  747MOL0     C  750   0.550  12.653  11.249  1.0330 -0.1811  0.3037
  747MOL0     C  751   0.397  12.651  11.271  0.2148  0.1508  0.1974
  747MOL0     C  752   0.353  12.539  11.369  0.2020  1.3182 -0.0864
  747MOL0     C  753   0.384  12.395  11.312 -0.0455  0.2492  0.1200
  747MOL0     C  754   0.338  12.277  11.397  0.0897  0.7387 -0.1837
  747MOL0    Cl  755   0.170  12.244  11.399  0.0347  0.1171  0.2831
  747MOL0     C  756   1.056  12.536  11.085  0.4795  0.6231 -0.5197
  747MOL0     C  757   1.164  12.449  11.047 -0.2205  0.2735 -0.2301
  747MOL0     O  758   1.289  12.193  11.003  0.0109 -0.0378 -1.1308
  747MOL0     C  759   1.566  12.237  10.804  0.3944  0.2105  0.2386
  747MOL0     C  760   1.669  12.175  10.727  0.4741  0.2190  0.5547
  747MOL0     N  761   1.501  11.341  10.527  0.2867  0.3138 -1.2764
  747MOL0     N  762   1.517  11.230  10.457  0.4055  0.2464 -0.9585
  747MOL0     C  763   2.408  11.243   9.923 -0.0289 -0.1352  0.3222
  747MOL0     C  764   2.415  11.300   9.796  0.2302 -0.3388  0.1771
  747MOL0     C  765   2.444  11.450   9.381  0.0790 -0.7593 -0.0646
  747MOL0     C  766   2.491  11.574   9.342  0.2315 -0.2193 -0.2748
  747MOL0     C  767   2.451  11.638   9.224  0.2818  0.5159 -0.3946
  747MOL0     C  768   2.359  11.577   9.137  1.4342 -0.7040 -0.3170
  747MOL0     O  769   2.305  11.641   9.031  0.2405 -0.1771 -0.2506
  747MOL0     C  770   2.197  11.590   8.958  0.3543 -0.5639 -0.1852
  747MOL0     C  771   2.065  11.603   9.041 -0.1496 -0.2210  0.8097
  747MOL0     C  772   2.055  11.747   9.102  0.3760  0.1570 -0.8545
  747MOL0     C  773   1.912  11.791   9.131  1.2053 -0.6739 -0.3706
  747MOL0     C  774   1.829  11.784   9.004  0.8485  0.1560  0.4387
  747MOL0     C  775   1.767  11.785   8.898 -0.1590  0.0639  0.9686
  747MOL0     C  776   2.309  11.454   9.179  0.4417  0.0346  0.5577
  747MOL0     C  777   2.351  11.386   9.296 -0.0109 -0.4977  0.2627
  747MOL0     H  778   2.388  11.033   9.598  1.1798  3.2880 -2.3431
  747MOL0     H  779   2.383  10.917   9.815  2.5929 -0.6093  1.4488
  747MOL0     H  780   2.459  10.883  10.031  2.7735  3.3107  2.0698
  747MOL0     H  781   2.394  10.913  10.190 -0.1584  1.9752 -0.0165
  747MOL0     H  782   2.202  10.858   9.968 -2.0500 -3.3329  0.8716
  747MOL0     H  783   2.235  10.742  10.083 -0.4305  0.2064  1.2556
  747MOL0     H  784   2.137  10.890  10.266  1.0810 -1.4940  0.0358
  747MOL0     H  785   2.142  11.029  10.144 -2.0977  0.1473  0.1939
  747MOL0     H  786   1.974  10.877  10.004  1.4579 -5.7242 -0.2611
  747MOL0     H  787   1.973  10.774  10.143 -0.1442 -0.5498 -0.7925
  747MOL0     H  788   1.775  10.908  10.194 -0.3395 -0.8978 -0.0753
  747MOL0     H  789   1.909  10.964  10.297 -1.9316 -1.0809  0.1069
  747MOL0     H  790   1.959  11.125  10.126  0.3408  0.5714  1.0111
  747MOL0     H  791   1.785  11.098  10.069  0.7495  2.1457 -1.1639
  747MOL0     H  792   1.841  11.162  10.355  0.5032  1.0948 -0.2176
  747MOL0     H  793   1.823  11.288  10.233 -0.6300 -0.6814 -5.5317
  747MOL0     H  794   1.592  11.079  10.255 -4.2620  1.7258 -0.6396
  747MOL0     H  795   1.612  11.213  10.148  1.9483 -2.3524 -1.7507
  747MOL0     H  796   1.704  11.459  10.316  0.2362 -2.5104 -2.7375
  747MOL0     H  797   1.543  11.653  10.466 -0.9216  2.3732  3.0791
  747MOL0     H  798   1.499  11.594  10.620 -0.2014 -0.9688  0.3470
  747MOL0     H  799   1.791  11.578  10.493  2.0573 -1.1520  2.8144
  747MOL0     H  800   1.756  11.530  10.656 -2.1949 -2.1301 -0.2053
  747MOL0     H  801   1.877  11.754  10.653 -0.2964 -1.1671  1.7484
  747MOL0     H  802   1.724  11.756  10.727 -0.5475 -0.7640 -0.8664
  747MOL0     H  803   1.627  11.855  10.501  1.0408 -2.0312 -0.1601
  747MOL0     H  804   1.786  11.857  10.445 -2.6027  0.6659 -1.9261
  747MOL0     H  805   1.518  11.871  10.694  0.1052 -0.7690  3.0216
  747MOL0     H  806   1.202  12.040  10.807  0.9289  1.6127  4.0349
  747MOL0     H  807   1.267  11.878  10.759 -1.7534 -0.0526 -1.5523
  747MOL0     H  808   1.290  11.937  10.922  2.3936  2.7494  0.7889
  747MOL0     H  809   1.219  12.575  10.739  0.0295  3.4258  0.1752
  747MOL0     H  810   1.044  12.722  10.804  1.0318 -0.6295 -1.5463
  747MOL0     H  811   0.768  12.619  11.144  1.1954 -0.9846 -0.5065
  747MOL0     H  812   0.906  12.692  11.236  3.1079 -1.0757 -2.2750
  747MOL0     H  813   0.755  12.825  11.288  2.3225 -0.5394  0.5531
  747MOL0     H  814   0.765  12.893  11.124  1.2152  0.3238  1.3789
  747MOL0     H  815   0.577  12.732  11.062 -3.8948  1.7897 -0.5731
  747MOL0     H  816   0.535  12.863  11.180  0.4064  0.1388  0.1221
  747MOL0     H  817   0.585  12.568  11.191  2.8895  0.6290  0.1363
  747MOL0     H  818   0.599  12.655  11.347 -0.4015  1.7675  1.0527
  747MOL0     H  819   0.360  12.633  11.170  1.4667 -2.3053  0.1101
  747MOL0     H  820   0.359  12.749  11.300  0.0233  0.8852 -2.3402
  747MOL0     H  821   0.406  12.542  11.465 -0.1366  0.2952  0.1462
  747MOL0     H  822   0.244  12.544  11.383  0.5311  1.5115  3.0916
  747MOL0     H  823   0.492  12.381  11.312  0.1734  1.5617  1.6186
  747MOL0     H  824   0.347  12.388  11.209 -1.0580  6.2408 -0.3074
  747MOL0     H  825   0.377  12.286  11.499  3.8423  1.6064 -1.5566
  747MOL0     H  826   0.388  12.185  11.367 -1.9107 -1.6164  3.0610
  747MOL0     H  827   1.009  12.512  11.180  3.0888 -1.3163  0.4110
  747MOL0     H  828   1.197  12.384  11.127  0.5841  0.7561 -0.1547
  747MOL0     H  829   1.578  12.340  10.839  0.4839  0.7448 -1.2837
  747MOL0     H  830   1.758  12.214  10.679  1.3034 -0.8903  1.1218
  747MOL0     H  831   2.412  11.285  10.023  3.6653  0.7384 -0.0570
  747MOL0     H  832   2.402  11.407   9.795 -2.2036 -0.5763 -0.3066
  747MOL0     H  833   2.556  11.636   9.403  0.3328  0.5562 -1.1510
  747MOL0     H  834   2.493  11.738   9.217 -2.2503  2.0402  3.2101
  747MOL0     H  835   2.192  11.652   8.868  0.2966 -0.1811  0.0812
  747MOL0     H  836   2.220  11.486   8.935  0.2255 -0.6810  0.2068
  747MOL0     H  837   2.040  11.525   9.114 -2.8784 -0.7095 -0.5582
  747MOL0     H  838   1.988  11.586   8.966  1.0472 -0.8170 -0.3350
  747MOL0     H  839   2.097  11.824   9.037  0.3823  1.3499  0.5117
  747MOL0     H  840   2.108  11.745   9.198  0.5831  1.9298 -0.9074
  747MOL0     H  841   1.912  11.893   9.171  1.0506 -1.3536  1.4417
  747MOL0     H  842   1.871  11.723   9.205 -1.1900  1.5598  0.4995
  747MOL0     H  843   1.709  11.786   8.808  0.4456  1.2174  0.5619
  747MOL0     H  844   2.246  11.390   9.118  3.6184 -2.4194 -0.4548
  747MOL0     H  845   2.317  11.288   9.329  0.7577 -0.4384  1.2654
  748MOL0     O  846   6.584   0.405   8.065  0.3759 -0.5436 -0.3131
  748MOL0     C  847   6.671   0.354   8.132 -0.3227  0.0486  0.8513
  748MOL0     O  848   6.666   0.327   8.261 -1.1453 -0.1753  0.0823
  748MOL0     C  849   6.560   0.348   8.347  0.5223  0.5984 -1.1803
  748MOL0     C  850   6.448   0.271   8.331  0.3066 -1.0200  0.7520
  748MOL0     C  851   6.341   0.288   8.411  1.0663 -0.9921  0.4929
  748MOL0     C  852   6.344   0.362   8.530 -0.0000 -0.3107  0.6235
  748MOL0     O  853   6.227   0.407   8.595  0.4458 -0.3630 -0.5440
  748MOL0     C  854   6.121   0.312   8.594  0.7843  0.2519 -0.4390
  748MOL0     C  855   6.023   0.361   8.704  0.7763  0.1172 -0.5577
  748MOL0     C  856   5.977   0.507   8.679 -0.1985 -0.2734 -0.2685
  748MOL0     C  857   5.830   0.528   8.693 -0.2532 -0.5650 -0.4557
  748MOL0     C  858   5.780   0.527   8.841  0.2118 -0.0515 -0.5742
  748MOL0     C  859   5.637   0.590   8.872  0.6513 -0.4773 -0.2529
  748MOL0     C  860   5.608   0.576   9.023  0.1727  0.0418  0.7922
  748MOL0     C  861   5.485   0.655   9.052  0.5758  0.3877  0.0828
  748MOL0     N  862   5.411   0.615   9.175  0.7614 -0.4417  0.0769
  748MOL0     C  863   5.304   0.692   9.231 -0.0065  0.2868 -0.5602
  748MOL0     C  864   5.257   0.607   9.329  1.1376 -1.1997 -0.1797
  748MOL0     C  865   5.130   0.622   9.401 -0.8156  0.1483 -0.8583
  748MOL0     C  866   5.109   0.509   9.501 -0.7869  0.2108 -0.6460
  748MOL0     C  867   4.969   0.486   9.555  0.4742 -1.1048 -0.0832
  748MOL0     C  868   4.968   0.424   9.691 -0.4223 -0.2197 -0.3745
  748MOL0     O  869   5.016   0.298   9.685  0.0843 -0.2608 -0.0589
  748MOL0     C  870   5.053   0.235   9.808 -1.1615 -0.4240 -0.3839
  748MOL0     C  871   4.980   0.242   9.929 -0.6441  1.2141  0.2955
  748MOL0     C  872   5.032   0.184  10.045  0.3256 -0.4234  0.6481
  748MOL0     C  873   4.963   0.212  10.182 -0.8715  0.6062 -0.3376
  748MOL0     C  874   5.148   0.099  10.032 -0.3271  0.1648  0.6949
  748MOL0     C  875   5.202   0.009  10.141 -0.5724  0.3889 -0.1674
  748MOL0     O  876   5.340  -0.005  10.154  0.0349  0.2944 -0.5062
  748MOL0     C  877   5.371  -0.097  10.246  0.1880 -0.2239 -0.0676
  748MOL0     C  878   5.473  -0.067  10.327 -0.3706  1.0221  1.0429
  748MOL0     C  879   5.543  -0.149  10.411  0.5480  0.0330 -0.2555
  748MOL0     C  880   5.489  -0.276  10.435  0.5772  0.3476 -0.3645
  748MOL0     O  881   5.545  -0.358  10.525 -0.2840 -0.3017  0.2646
  748MOL0     C  882   5.563  -0.308  10.658  0.4265 -0.2763  0.6029
  748MOL0     C  883   5.618  -0.428  10.738 -0.0780  0.2560  0.3582
  748MOL0     C  884   5.659  -0.382  10.871  0.4975  0.1222 -0.4487
  748MOL0     C  885   5.808  -0.339  10.887  0.1097  1.2924  0.1470
  748MOL0     C  886   5.843  -0.310  11.032  0.0409  0.0144 -0.5971
  748MOL0     C  887   5.853  -0.447  11.095 -0.2435 -0.3953 -0.2299
  748MOL0     C  888   5.904  -0.433  11.237 -0.6870 -0.9093 -0.3150
  748MOL0     C  889   5.812  -0.488  11.337  1.2837  0.1591  0.7979
  748MOL0    Cl  890   5.799  -0.658  11.298 -0.3078 -0.2907 -0.3890
  748MOL0     C  891   5.380  -0.320  10.349 -0.5362 -1.2460 -0.3446
  748MOL0     C  892   5.319  -0.230  10.256 -0.6041  0.6732  0.4018
  748MOL0     O  893   5.120  -0.032  10.219 -0.3633  0.4106  0.3013
  748MOL0     C  894   5.210   0.078   9.903 -0.5671 -0.3140  0.1001
  748MOL0     C  895   5.161   0.148   9.788 -0.6910  0.3614 -0.0443
  748MOL0     N  896   5.331   0.493   9.325 -0.1560  0.6435  0.7670
  748MOL0     N  897   5.421   0.488   9.233  0.6976 -0.1905 -0.0534
  748MOL0     C  898   6.467   0.431   8.552  0.0179  0.0384 -0.3297
  748MOL0     C  899   6.575   0.421   8.467 -0.4976 -0.3100  0.2763
  748MOL0     C  900   6.809   0.335   8.077 -0.1011 -0.4075 -0.7106
  748MOL0     C  901   6.909   0.265   8.145 -0.5261 -0.1783  0.3774
  748MOL0     C  902   7.038   0.248   8.096  0.1836  0.3627 -0.0775
  748MOL0     C  903   7.082   0.306   7.974  0.0233 -0.4533  0.3291
  748MOL0     O  904   7.213   0.296   7.919  0.2504 -0.1754 -0.4042
  748MOL0     C  905   7.302   0.215   8.004 -0.1572 -0.1894  0.4734
  748MOL0     C  906   7.448   0.244   7.951  0.0905 -0.4420  0.7304
  748MOL0     C  907   7.550   0.153   8.002  0.3152 -0.7245  0.2466
  748MOL0     C  908   7.686   0.155   7.918  0.4977 -0.2303  0.1288
  748MOL0     C  909   7.771   0.038   7.968  0.5274  0.3844  0.0876
  748MOL0     C  910   7.815  -0.063   8.023 -0.3945 -0.4648  0.3139
  748MOL0     C  911   6.981   0.370   7.900 -0.7959 -0.9471 -0.5584
  748MOL0     C  912   6.852   0.385   7.944  0.1627 -0.3481 -0.7705
  748MOL0     H  913   6.450   0.208   8.243  2.3160 -0.5524  0.4114
  748MOL0     H  914   6.264   0.223   8.372  1.6375 -2.3950  1.5862
  748MOL0     H  915   6.072   0.314   8.497  1.0369 -0.8504 -0.6019
  748MOL0     H  916   6.155   0.211   8.618 -1.0672 -0.5916 -1.1389
  748MOL0     H  917   5.928   0.308   8.699 -1.2806  3.3901  0.7013
  748MOL0     H  918   6.071   0.360   8.802  1.3043  1.0745 -0.7966
  748MOL0     H  919   6.040   0.574   8.739 -0.3439 -0.2899 -0.0973
  748MOL0     H  920   6.008   0.541   8.580  5.3607  1.3224  1.6034
  748MOL0     H  921   5.802   0.628   8.661  1.4597  0.3155  0.6189
  748MOL0     H  922   5.769   0.458   8.635 -1.8083 -0.6110  1.1694
  748MOL0     H  923   5.767   0.423   8.870 -1.0549 -0.3019 -1.8933
  748MOL0     H  924   5.852   0.581   8.903  2.1648  0.2957 -2.9928
  748MOL0     H  925   5.624   0.697   8.854  0.6591 -0.9134 -3.4624
  748MOL0     H  926   5.557   0.545   8.813 -0.3821 -0.4723  1.0997
  748MOL0     H  927   5.595   0.472   9.053 -2.9883  0.2419  0.4458
  748MOL0     H  928   5.691   0.609   9.087 -0.5453 -0.0608  1.7963
  748MOL0     H  929   5.416   0.636   8.970 -2.1980  1.4514  2.0073
  748MOL0     H  930   5.494   0.764   9.043 -3.0717  0.6067 -4.1449
  748MOL0     H  931   5.274   0.793   9.205 -0.6913  0.7665  1.8508
  748MOL0     H  932   5.136   0.719   9.452 -0.5696 -0.5907  0.5757
  748MOL0     H  933   5.047   0.632   9.331  0.3284  0.1685 -2.2484
  748MOL0     H  934   5.168   0.516   9.593 -1.4459 -3.1423  0.1711
  748MOL0     H  935   5.130   0.414   9.452 -2.7521  1.5116 -4.4421
  748MOL0     H  936   4.906   0.431   9.484 -0.7900  3.0475 -2.6003
  748MOL0     H  937   4.915   0.581   9.548  0.4005 -1.1301  0.1393
  748MOL0     H  938   4.870   0.436   9.739  1.0200  0.1979  2.7081
  748MOL0     H  939   5.042   0.475   9.752 -0.7417  0.0121 -0.1769
  748MOL0     H  940   4.887   0.296   9.942 -0.8067  0.5770  1.9373
  748MOL0     H  941   4.903   0.301  10.161 -1.7178 -0.6570 -3.8879
  748MOL0     H  942   4.887   0.140  10.213  1.6544 -1.0420  2.6307
  748MOL0     H  943   5.035   0.219  10.265  0.5814  2.6343 -1.6727
  748MOL0     H  944   5.507   0.036  10.331  2.0777  0.2716  1.1502
  748MOL0     H  945   5.630  -0.112  10.463  0.2346 -0.0883  0.3651
  748MOL0     H  946   5.638  -0.228  10.663  0.1170  1.3091 -7.5889
  748MOL0     H  947   5.475  -0.266  10.707  0.7695  2.2337 -0.7926
  748MOL0     H  948   5.538  -0.503  10.738  0.3623 -0.2247 -0.0255
  748MOL0     H  949   5.704  -0.482  10.696 -0.1963  2.1323 -2.6142
  748MOL0     H  950   5.642  -0.473  10.930 -0.3782  0.5037 -0.0964
  748MOL0     H  951   5.604  -0.294  10.905  0.0660  0.6464 -2.4076
  748MOL0     H  952   5.877  -0.412  10.845  1.4953  1.1611  2.5128
  748MOL0     H  953   5.824  -0.247  10.830 -0.5253  0.4714 -1.4219
  748MOL0     H  954   5.755  -0.253  11.063 -0.8873  0.1178 -3.1778
  748MOL0     H  955   5.928  -0.248  11.062  0.3525 -1.3994  1.6377
  748MOL0     H  956   5.755  -0.496  11.089 -0.5084 -0.4306  2.7845
  748MOL0     H  957   5.931  -0.506  11.047  2.0556  2.1192  0.1976
  748MOL0     H  958   5.917  -0.325  11.253  2.7683 -0.7529 -2.9466
  748MOL0     H  959   5.998  -0.485  11.256 -1.3895 -1.6608  1.2263
  748MOL0     H  960   5.716  -0.436  11.342 -0.5125 -3.0027  1.6895
  748MOL0     H  961   5.858  -0.485  11.436 -0.8696  0.8549  1.8401
  748MOL0     H  962   5.320  -0.410  10.358  1.2150 -2.1991  4.3941
  748MOL0     H  963   5.240  -0.270  10.193  1.7135 -0.3376 -2.0703
  748MOL0     H  964   5.290   0.006   9.889  0.1103  0.4233  0.0839
  748MOL0     H  965   5.207   0.140   9.690 -1.9773  3.7514 -1.1091
  748MOL0     H  966   6.475   0.498   8.637  1.0676  0.9830 -1.1361
  748MOL0     H  967   6.661   0.479   8.498  1.2515 -2.2162 -0.7637
  748MOL0     H  968   6.896   0.229   8.247 -0.0212 -1.4372  0.0197
  748MOL0     H  969   7.089   0.183   8.167 -0.9661  1.1053  1.5079
  748MOL0     H  970   7.306   0.247   8.108  1.8812 -4.4275  1.9242
  748MOL0     H  971   7.280   0.109   7.989  0.0324 -0.0118 -1.2820
  748MOL0     H  972   7.472   0.347   7.978 -0.3232  0.1685 -1.0982
  748MOL0     H  973   7.436   0.234   7.843 -1.9701 -1.2830  0.9880
  748MOL0     H  974   7.509   0.053   8.019  0.9331 -1.0260 -0.0045
  748MOL0     H  975   7.583   0.188   8.100  2.3340  3.2923 -1.6519
  748MOL0     H  976   7.743   0.245   7.943  0.4680 -0.5486  1.4105
  748MOL0     H  977   7.669   0.144   7.810 -3.4000 -1.7256  0.7210
  748MOL0     H  978   7.865  -0.156   8.043 -0.6906 -1.2540 -2.2317
  748MOL0     H  979   7.009   0.422   7.809  1.5363  0.3929  0.8257
  748MOL0     H  980   6.786   0.434   7.873  0.7009  1.0337 -0.3417
  749MOL0     O  981   8.740   9.201   0.746  0.1506  0.3830 -1.1088
  749MOL0     C  982   8.754   9.107   0.676  0.0920  0.5382  0.3823
  749MOL0     O  983   8.652   9.046   0.614  0.4180  0.7375 -0.1560
  749MOL0     C  984   8.523   9.095   0.608 -0.5196 -0.5153  0.0092
  749MOL0     C  985   8.482   9.225   0.633 -0.5630  0.8400  0.2249
  749MOL0     C  986   8.353   9.269   0.632 -0.4823  0.1707  0.4801
  749MOL0     C  987   8.249   9.183   0.586 -0.4331 -0.0746 -0.1368
  749MOL0     O  988   8.120   9.232   0.583  0.1152 -0.2722 -0.5925
  749MOL0     C  989   8.016   9.132   0.586  1.1165 -0.6402  0.1054
  749MOL0     C  990   7.876   9.196   0.614 -0.5998  0.1573 -1.0923
  749MOL0     C  991   7.864   9.254   0.761 -0.6150  0.6228  1.0063
  749MOL0     C  992   7.872   9.407   0.764  0.1078  0.5553 -0.3066
  749MOL0     C  993   7.814   9.459   0.889 -0.0007  0.3457 -0.5950
  749MOL0     C  994   7.902   9.430   1.005 -0.6737 -0.4108 -0.2785
  749MOL0     C  995   7.850   9.492   1.133 -0.2042  0.3353  0.1881
  749MOL0     C  996   7.946   9.491   1.252 -0.1461 -0.2100  0.1456
  749MOL0     N  997   8.019   9.373   1.267  0.1402  0.4447 -0.6637
  749MOL0     C  998   8.120   9.324   1.185  0.8600 -0.1388 -0.0743
  749MOL0     C  999   8.152   9.208   1.226 -0.2664 -0.3805 -0.2774
  749MOL0     C 1000   8.262   9.120   1.179 -0.1437 -0.6569  0.6457
  749MOL0     C 1001   8.396   9.134   1.251  0.0536  0.2814  0.5926
  749MOL0     C 1002   8.499   9.019   1.209  0.1353  0.7771 -0.3388
  749MOL0     C 1003   8.556   9.047   1.068 -0.1326  0.1759 -0.3373
  749MOL0     O 1004   8.637   9.161   1.083  0.1465  0.0910  0.6757
  749MOL0     C 1005   8.773   9.156   1.069  0.4780 -0.3657 -0.4926
  749MOL0     C 1006   8.856   9.046   1.066  0.1611  0.7824  0.4744
  749MOL0     C 1007   8.998   9.053   1.074  0.0516 -0.6366 -0.5848
  749MOL0     C 1008   9.076   8.931   1.094  0.1858 -0.2145 -0.1856
  749MOL0     C 1009   9.054   9.187   1.061 -0.0151 -0.2302  0.5213
  749MOL0     C 1010   9.203   9.216   1.077 -0.1847 -0.2607  0.5136
  749MOL0     O 1011   9.242   9.318   1.160 -0.7812 -0.5883  0.2361
  749MOL0     C 1012   9.365   9.320   1.218  0.9892 -0.0157  0.0856
  749MOL0     C 1013   9.421   9.447   1.245 -0.3020 -0.1965  0.3947
  749MOL0     C 1014   9.553   9.457   1.297 -0.0647  0.5542  0.0130
  749MOL0     C 1015   9.634   9.345   1.318  0.6519 -0.1550 -0.5762
  749MOL0     O 1016   9.766   9.340   1.365  0.0127 -0.8291  0.2631
  749MOL0     C 1017   9.826   9.466   1.368  0.2775  0.0635 -0.3931
  749MOL0     C 1018   9.975   9.461   1.421  0.1959 -0.2015 -0.8863
  749MOL0     C 1019   9.991   9.430   1.570 -1.0804  0.6255  0.1525
  749MOL0     C 1020   9.997   9.556   1.654 -0.0750 -1.3167 -0.8065
  749MOL0     C 1021  10.139   9.608   1.664  0.2162 -0.0920  0.4458
  749MOL0     C 1022  10.155   9.761   1.689 -0.2889 -0.1395  0.1155
  749MOL0     C 1023  10.108   9.810   1.823 -0.0759  0.3191  0.0768
  749MOL0     C 1024  10.169   9.938   1.852  0.7053 -0.0652 -0.5576
  749MOL0    Cl 1025  10.127  10.066   1.740 -0.6810 -0.2849 -0.5462
  749MOL0     C 1026   9.581   9.220   1.290 -0.1498  0.3893 -0.4568
  749MOL0     C 1027   9.445   9.209   1.244 -2.0228  0.5025 -0.6339
  749MOL0     O 1028   9.286   9.158   1.009 -0.1127 -0.5203  0.5165
  749MOL0     C 1029   8.971   9.296   1.061 -0.5770 -0.3566 -0.5298
  749MOL0     C 1030   8.842   9.277   1.056  0.5567 -0.7120  0.1049
  749MOL0     N 1031   8.072   9.178   1.337 -0.6607  0.3023  0.0593
  749MOL0     N 1032   7.991   9.273   1.359 -0.0749  0.1193  0.2295
  749MOL0     C 1033   8.282   9.049   0.564 -0.6090 -0.5887 -0.0211
  749MOL0     C 1034   8.422   9.005   0.576  0.2230 -0.0037 -0.1086
  749MOL0     C 1035   8.886   9.050   0.658 -0.0669 -0.0109 -0.0867
  749MOL0     C 1036   8.984   9.075   0.750 -1.3068 -0.0794  0.4432
  749MOL0     C 1037   9.107   9.001   0.747  0.5530  0.3689  0.4630
  749MOL0     C 1038   9.136   8.911   0.637  0.2603  0.2356  0.7547
  749MOL0     O 1039   9.254   8.836   0.616 -0.0948  0.1333  0.5575
  749MOL0     C 1040   9.356   8.812   0.719  0.0097  0.3679  0.2713
  749MOL0     C 1041   9.454   8.935   0.729 -0.5630  1.4016 -0.8414
  749MOL0     C 1042   9.530   8.927   0.861 -0.5960 -0.2046  0.8972
  749MOL0     C 1043   9.597   9.066   0.885  0.2305 -0.2335  0.2392
  749MOL0     C 1044   9.698   9.045   0.997 -0.0572  0.2049 -0.3295
  749MOL0     C 1045   9.775   9.027   1.091  0.3154 -1.0101 -0.1360
  749MOL0     C 1046   9.029   8.908   0.542  0.6321  0.5863 -0.5152
  749MOL0     C 1047   8.905   8.966   0.561  0.0999  0.1442 -0.1885
  749MOL0     H 1048   8.559   9.294   0.666  1.4080 -1.5330  0.8826
  749MOL0     H 1049   8.336   9.364   0.681 -1.9017  0.4247 -0.4309
  749MOL0     H 1050   8.016   9.080   0.489 -0.2507  2.7219 -1.8606
  749MOL0     H 1051   8.032   9.068   0.673  3.2584  1.9499  1.7783
  749MOL0     H 1052   7.855   9.274   0.540 -1.2461 -0.3246 -1.4156
  749MOL0     H 1053   7.799   9.121   0.596 -1.8130  1.0168  0.2832
  749MOL0     H 1054   7.772   9.216   0.805 -0.7593  0.3736  0.5004
  749MOL0     H 1055   7.941   9.213   0.828 -0.2087  0.6912  0.5901
  749MOL0     H 1056   7.971   9.454   0.756  0.6669 -0.5430 -0.0527
  749MOL0     H 1057   7.818   9.445   0.677 -2.2875  2.0607  1.7277
  749MOL0     H 1058   7.794   9.567   0.891  0.2761  0.6708  5.9214
  749MOL0     H 1059   7.716   9.412   0.905 -1.4879  3.1557 -0.8146
  749MOL0     H 1060   7.901   9.323   1.027 -0.3886 -0.4941 -0.6730
  749MOL0     H 1061   8.005   9.464   0.993  0.4541 -3.9086 -1.6000
  749MOL0     H 1062   7.795   9.586   1.132 -2.3968 -0.8420  1.5200
  749MOL0     H 1063   7.772   9.423   1.167 -0.0153 -0.4039 -0.8324
  749MOL0     H 1064   7.888   9.519   1.341 -1.5404  0.0287 -0.8057
  749MOL0     H 1065   8.017   9.574   1.251 -0.1810 -0.0713  2.4973
  749MOL0     H 1066   8.169   9.374   1.102 -0.3481 -1.1602 -1.4497
  749MOL0     H 1067   8.233   9.015   1.190  1.4996 -1.1816  0.2856
  749MOL0     H 1068   8.283   9.145   1.074 -1.2324  2.1562  1.0182
  749MOL0     H 1069   8.367   9.121   1.356 -2.2356 -1.0569 -0.1368
  749MOL0     H 1070   8.441   9.232   1.237  2.2832 -0.8790 -1.0541
  749MOL0     H 1071   8.459   8.917   1.215  3.1613 -0.4858  0.1735
  749MOL0     H 1072   8.575   9.014   1.287 -0.6668  2.2753  0.5841
  749MOL0     H 1073   8.480   9.058   0.991 -1.3549  1.1684  0.9748
  749MOL0     H 1074   8.614   8.956   1.046  1.4339  1.4422 -1.6491
  749MOL0     H 1075   8.803   8.951   1.077 -0.4557  1.0380 -0.2180
  749MOL0     H 1076   9.175   8.951   1.136  0.4475 -0.6891 -0.5574
  749MOL0     H 1077   9.019   8.861   1.156 -1.2400  0.3202 -0.8575
  749MOL0     H 1078   9.088   8.866   1.007  0.7356 -1.3986  0.7369
  749MOL0     H 1079   9.364   9.538   1.234 -0.9989 -0.3956  2.0905
  749MOL0     H 1080   9.580   9.561   1.313  1.3503  0.4920 -1.6881
  749MOL0     H 1081   9.823   9.514   1.270 -1.8588  1.7709  0.4225
  749MOL0     H 1082   9.781   9.528   1.446 -0.3941 -1.1453  0.2199
  749MOL0     H 1083  10.014   9.378   1.362  0.1111 -0.4119 -0.6440
  749MOL0     H 1084  10.016   9.559   1.393  1.2529 -0.2236  0.4740
  749MOL0     H 1085  10.089   9.380   1.569 -1.8970 -1.0350  0.2954
  749MOL0     H 1086   9.919   9.354   1.602  0.5434 -0.6458  0.9670
  749MOL0     H 1087   9.934   9.630   1.605 -0.2748 -0.6848  0.3730
  749MOL0     H 1088   9.966   9.545   1.758 -2.2463 -1.1781 -1.3893
  749MOL0     H 1089  10.194   9.589   1.571  0.9801  0.4425  0.7777
  749MOL0     H 1090  10.192   9.557   1.745  0.9564  0.1036  0.0898
  749MOL0     H 1091  10.256   9.791   1.659 -0.7359 -0.4862 -1.9017
  749MOL0     H 1092  10.087   9.801   1.613  0.0436 -2.5077 -1.5298
  749MOL0     H 1093  10.146   9.738   1.896 -2.1821 -1.1811 -0.2152
  749MOL0     H 1094  10.001   9.798   1.845 -0.0253  0.0489  0.1748
  749MOL0     H 1095  10.276   9.916   1.850  0.9913  1.0459  0.7703
  749MOL0     H 1096  10.146   9.979   1.951 -1.1493 -0.5117 -0.7724
  749MOL0     H 1097   9.643   9.134   1.312  1.2305  2.1610  3.3026
  749MOL0     H 1098   9.404   9.110   1.229 -0.5620 -0.2722  0.2525
  749MOL0     H 1099   9.009   9.398   1.066  1.6826 -0.9877 -2.8448
  749MOL0     H 1100   8.784   9.368   1.065  0.4481 -0.7139 -0.5290
  749MOL0     H 1101   8.220   8.970   0.522 -0.4442  0.1413 -1.7523
  749MOL0     H 1102   8.462   8.904   0.574 -0.5319 -0.3197 -2.6074
  749MOL0     H 1103   8.968   9.158   0.818  0.0642  1.0865 -0.5932
  749MOL0     H 1104   9.182   9.007   0.824 -1.0938 -2.3438  2.4554
  749MOL0     H 1105   9.306   8.778   0.810 -1.0471 -1.6143 -0.9748
  749MOL0     H 1106   9.409   8.723   0.684 -3.0457 -3.2040  3.8499
  749MOL0     H 1107   9.399   9.029   0.735 -0.6205  1.3504 -0.5962
  749MOL0     H 1108   9.515   8.933   0.638 -0.1374  2.8836 -0.6127
  749MOL0     H 1109   9.600   8.843   0.856  0.5089  0.7912 -1.8363
  749MOL0     H 1110   9.457   8.900   0.938  0.4467  1.5852  2.6044
  749MOL0     H 1111   9.527   9.145   0.914 -0.1109 -0.3068 -0.3761
  749MOL0     H 1112   9.643   9.098   0.791 -1.3609  0.6658 -0.2743
  749MOL0     H 1113   9.850   9.010   1.165  0.9710  3.0517  0.3941
  749MOL0     H 1114   9.046   8.853   0.450  0.0865 -0.6926  0.1227
  749MOL0     H 1115   8.822   8.939   0.496  0.5692 -0.2760 -0.6198
  750MOL0     O 1116   5.698   9.825   9.228 -0.0835 -0.2921  0.4222
  750MOL0     C 1117   5.746   9.895   9.320  1.0296 -0.6000  0.1213
  750MOL0     O 1118   5.677   9.995   9.393 -0.2524 -0.3646  0.2991
  750MOL0     C 1119   5.542  10.000   9.367 -0.1231 -0.3569 -0.2136
  750MOL0     C 1120   5.475  10.022   9.245  0.4006  0.5132  0.0542
  750MOL0     C 1121   5.329  10.018   9.237  1.3222  0.3397  0.2844
  750MOL0     C 1122   5.253   9.988   9.349 -0.2057  0.2074  0.4444
  750MOL0     O 1123   5.116   9.977   9.322  0.4560 -0.4537 -0.2035
  750MOL0     C 1124   5.022  10.006   9.428  0.3480 -0.1306  0.3095
  750MOL0     C 1125   4.913  10.085   9.360  0.4673  1.5178  0.2130
  750MOL0     C 1126   4.817   9.972   9.305 -0.2976  0.6028 -0.0344
  750MOL0     C 1127   4.676   9.983   9.366  0.1905  1.0015 -0.6092
  750MOL0     C 1128   4.577   9.881   9.305  0.6483  0.1551  0.2420
  750MOL0     C 1129   4.441   9.905   9.370 -0.1152 -0.6004 -0.0084
  750MOL0     C 1130   4.324   9.843   9.295 -1.1492  0.9793  0.3394
  750MOL0     C 1131   4.190   9.905   9.346  0.2871  0.7099 -0.5427
  750MOL0     N 1132   4.166  10.041   9.287  0.0503  0.9332 -0.9019
  750MOL0     C 1133   4.145  10.068   9.151 -1.4514 -0.2636 -0.8940
  750MOL0     C 1134   4.146  10.202   9.147 -0.3573 -1.2037 -0.5811
  750MOL0     C 1135   4.121  10.287   9.022  0.1208 -0.8021  0.7036
  750MOL0     C 1136   4.191  10.234   8.894  0.3171  0.8198  0.2069
  750MOL0     C 1137   4.189  10.337   8.778  0.0462  0.4762 -0.1572
  750MOL0     C 1138   4.054  10.315   8.706  0.2932  0.4939  0.5682
  750MOL0     O 1139   4.034  10.417   8.617  0.4880  0.5541 -0.2077
  750MOL0     C 1140   3.913  10.427   8.559  0.8106  0.0317  0.4730
  750MOL0     C 1141   3.880  10.541   8.502  0.1142  0.4131  0.5982
  750MOL0     C 1142   3.763  10.566   8.434  0.4189 -0.4723  0.2713
  750MOL0     C 1143   3.756  10.701   8.365 -0.0246  0.4515 -0.1328
  750MOL0     C 1144   3.671  10.460   8.413  0.4286  0.1522  0.0675
  750MOL0     C 1145   3.541  10.473   8.336 -0.7078  0.3996  0.2004
  750MOL0     O 1146   3.476  10.357   8.318  0.7477 -0.3606 -0.1638
  750MOL0     C 1147   3.386  10.342   8.222  0.1276 -0.0056 -0.5000
  750MOL0     C 1148   3.389  10.413   8.102  0.7138 -0.3644 -0.2837
  750MOL0     C 1149   3.297  10.381   7.998  0.2648 -0.4972 -0.7634
  750MOL0     C 1150   3.201  10.288   8.013  0.7107 -0.6408  0.0151
  750MOL0     O 1151   3.108  10.262   7.916  0.2245 -0.7546 -0.5429
  750MOL0     C 1152   3.147  10.270   7.777  0.0441  0.4734 -0.4233
  750MOL0     C 1153   3.056  10.195   7.680 -0.4568  0.6162  0.0600
  750MOL0     C 1154   3.076  10.221   7.531 -0.0411 -0.0970 -0.1543
  750MOL0     C 1155   3.218  10.241   7.485  0.3309  0.5312 -0.1950
  750MOL0     C 1156   3.287  10.107   7.474 -0.7540  0.4754 -0.2467
  750MOL0     C 1157   3.435  10.135   7.430 -0.2722 -0.8817  0.2819
  750MOL0     C 1158   3.510  10.005   7.398  0.1205 -0.9049  0.4451
  750MOL0     C 1159   3.657  10.039   7.358 -0.2740  0.3880 -0.5398
  750MOL0    Cl 1160   3.743  10.083   7.504 -0.1781 -0.2807 -0.5128
  750MOL0     C 1161   3.189  10.225   8.137  0.1880 -0.7989  1.5264
  750MOL0     C 1162   3.284  10.245   8.237 -1.0807 -0.0678  0.6255
  750MOL0     O 1163   3.486  10.584   8.326  0.8787  0.0162  0.2470
  750MOL0     C 1164   3.706  10.335   8.473  0.4793  0.9089 -0.4156
  750MOL0     C 1165   3.815  10.321   8.554  0.3886  0.2075  0.4834
  750MOL0     N 1166   4.186  10.253   9.273 -0.8793 -0.0185  0.6378
  750MOL0     N 1167   4.192  10.153   9.356 -0.1930  0.6348  0.5634
  750MOL0     C 1168   5.315   9.960   9.469 -0.9393  0.4168  0.1219
  750MOL0     C 1169   5.457   9.960   9.479  0.6238  0.3211  0.1482
  750MOL0     C 1170   5.882   9.869   9.373 -0.5560 -0.0533 -0.8152
  750MOL0     C 1171   5.933   9.928   9.488  0.0339 -0.1096 -0.1441
  750MOL0     C 1172   6.073   9.908   9.526 -0.2298 -0.2514 -0.4587
  750MOL0     C 1173   6.158   9.812   9.471  0.6636 -0.2055 -0.6132
  750MOL0     O 1174   6.287   9.792   9.521  0.2911 -0.1329 -0.6602
  750MOL0     C 1175   6.302   9.685   9.617  0.1451  0.1787 -0.1015
  750MOL0     C 1176   6.335   9.561   9.556  0.4671  0.6218  0.3321
  750MOL0     C 1177   6.432   9.574   9.431  0.1408 -0.4149  0.3478
  750MOL0     C 1178   6.484   9.430   9.388 -0.2924  0.2691 -0.1287
  750MOL0     C 1179   6.384   9.329   9.395  0.5620  0.1177 -0.3276
  750MOL0     C 1180   6.297   9.245   9.417  0.1124 -1.1498 -1.3283
  750MOL0     C 1181   6.101   9.747   9.362  0.2069  0.4046  0.2258
  750MOL0     C 1182   5.973   9.780   9.312  0.9280 -0.2241 -0.9588
  750MOL0     H 1183   5.529  10.021   9.151 -0.9200 -0.3493 -0.7292
  750MOL0     H 1184   5.268  10.027   9.149  0.4441  1.5617  0.9893
  750MOL0     H 1185   4.988   9.915   9.477  2.3252 -0.0866  1.9166
  750MOL0     H 1186   5.064  10.062   9.512 -2.8086 -2.3511  3.6156
  750MOL0     H 1187   4.863  10.152   9.430 -2.1190 -0.8782  0.8056
  750MOL0     H 1188   4.951  10.138   9.271 -2.7518  0.1069 -2.2128
  750MOL0     H 1189   4.808   9.978   9.196 -1.7972 -3.9934 -0.3700
  750MOL0     H 1190   4.858   9.872   9.320 -0.3922  0.4232 -0.8881
  750MOL0     H 1191   4.674   9.971   9.474 -1.4877  0.4201 -0.6754
  750MOL0     H 1192   4.633  10.082   9.349  2.0433  2.4984  2.4915
  750MOL0     H 1193   4.578   9.898   9.197 -1.1821  0.3724  0.2299
  750MOL0     H 1194   4.610   9.780   9.330 -1.0174 -0.6336 -0.5664
  750MOL0     H 1195   4.459   9.858   9.467  0.8610  0.3728  0.2849
  750MOL0     H 1196   4.428  10.012   9.386  1.6486 -0.7840  3.4939
  750MOL0     H 1197   4.341   9.865   9.189 -2.3575 -1.5774 -0.4505
  750MOL0     H 1198   4.331   9.734   9.303  2.3959  1.0818  0.2814
  750MOL0     H 1199   4.196   9.914   9.455 -4.7420 -2.4338  0.3469
  750MOL0     H 1200   4.105   9.842   9.320  0.7606  0.5978 -1.8967
  750MOL0     H 1201   4.140   9.998   9.069  1.4351  0.5551 -1.8971
  750MOL0     H 1202   4.013  10.292   9.006  0.3350  2.8214 -0.5487
  750MOL0     H 1203   4.152  10.390   9.041 -0.1745 -0.5393 -0.2234
  750MOL0     H 1204   4.151  10.134   8.874  2.0065  0.0478  0.5517
  750MOL0     H 1205   4.297  10.212   8.907 -0.3313 -2.1675  1.3544
  750MOL0     H 1206   4.260  10.300   8.703 -1.6377 -1.9902 -0.6505
  750MOL0     H 1207   4.195  10.436   8.823 -3.5000  1.1137 -0.8314
  750MOL0     H 1208   3.977  10.314   8.784 -0.9200  1.5108 -0.5552
  750MOL0     H 1209   4.053  10.220   8.652 -1.4710  0.8992 -0.2144
  750MOL0     H 1210   3.946  10.626   8.521  1.5896 -0.5156 -0.1771
  750MOL0     H 1211   3.655  10.720   8.330 -0.2802 -1.3709 -0.4935
  750MOL0     H 1212   3.789  10.779   8.434 -0.3767  0.9159 -0.4842
  750MOL0     H 1213   3.821  10.709   8.277  1.8926  2.6889  1.3443
  750MOL0     H 1214   3.468  10.483   8.080  0.2055  1.0012  1.9549
  750MOL0     H 1215   3.319  10.423   7.900  2.4673  0.6548  0.1369
  750MOL0     H 1216   3.158  10.374   7.747  1.1771 -0.9009 -5.8405
  750MOL0     H 1217   3.248  10.227   7.770 -0.3457 -0.7955  1.1099
  750MOL0     H 1218   3.062  10.092   7.715 -0.0504  0.5765 -0.1246
  750MOL0     H 1219   2.952  10.226   7.698 -1.4407 -2.5359  0.3527
  750MOL0     H 1220   3.025  10.315   7.508  0.2895 -0.3359 -2.0885
  750MOL0     H 1221   3.018  10.150   7.470  0.0158 -0.4926  0.2502
  750MOL0     H 1222   3.224  10.289   7.387 -0.6971  0.2728 -0.4003
  750MOL0     H 1223   3.277  10.307   7.549  1.2376 -0.8232  0.4221
  750MOL0     H 1224   3.233  10.042   7.405  0.3371 -0.5855 -0.1451
  750MOL0     H 1225   3.276  10.069   7.575 -0.2775  1.4053  0.1731
  750MOL0     H 1226   3.435  10.211   7.351 -0.7669  0.9121  1.9284
  750MOL0     H 1227   3.484  10.194   7.508  0.4295 -0.4018 -0.4997
  750MOL0     H 1228   3.455   9.944   7.326 -2.3094 -0.4265  1.7916
  750MOL0     H 1229   3.502   9.954   7.494  0.2904  1.7121  1.9504
  750MOL0     H 1230   3.661  10.122   7.287  0.4854  1.6961  0.9738
  750MOL0     H 1231   3.697   9.952   7.305 -0.1451  1.3769 -2.1184
  750MOL0     H 1232   3.105  10.157   8.142 -0.4442 -0.0995  0.7733
  750MOL0     H 1233   3.287  10.185   8.327  0.7436  0.5724  1.0171
  750MOL0     H 1234   3.647  10.244   8.475  2.8077 -0.7368  2.9000
  750MOL0     H 1235   3.805  10.235   8.619 -1.7452 -1.3522 -1.7317
  750MOL0     H 1236   5.260   9.931   9.558 -3.7518  1.2281 -1.2347
  750MOL0     H 1237   5.515   9.933   9.567 -1.2467 -1.3228  0.9613
  750MOL0     H 1238   5.876   9.998   9.548 -1.1749 -1.3899  0.2434
  750MOL0     H 1239   6.110   9.956   9.616 -2.3056 -1.0607  0.9011
  750MOL0     H 1240   6.374   9.716   9.693  1.2004 -0.3834 -0.8464
  750MOL0     H 1241   6.212   9.672   9.679  0.8576 -1.2676  0.6997
  750MOL0     H 1242   6.235   9.526   9.527  0.2100  1.7803 -0.2166
  750MOL0     H 1243   6.385   9.489   9.621  1.2159 -1.5681 -2.4539
  750MOL0     H 1244   6.521   9.632   9.458 -0.4201  0.4038  0.4869
  750MOL0     H 1245   6.370   9.616   9.350  1.4207  1.0484  0.0835
  750MOL0     H 1246   6.564   9.404   9.459 -2.1026 -0.5113  1.7132
  750MOL0     H 1247   6.524   9.430   9.286  0.2052 -3.1274 -0.0492
  750MOL0     H 1248   6.235   9.170   9.462  0.3165 -1.3795 -1.4258
  750MOL0     H 1249   6.150   9.665   9.311 -2.2480 -0.8216 -0.2934
  750MOL0     H 1250   5.932   9.721   9.231  1.3666 -2.6709  0.5074
  751MOL0     O 1251   8.503   2.977   5.465  0.0338 -0.3960  0.5613
  751MOL0     C 1252   8.382   2.969   5.492 -0.6492 -1.0873  0.2996
  751MOL0     O 1253   8.291   3.070   5.480 -0.1532  0.1037 -0.0470
  751MOL0     C 1254   8.317   3.205   5.443  0.2486 -0.3206 -0.1696
  751MOL0     C 1255   8.442   3.268   5.429 -1.1530  1.1925  0.5537
  751MOL0     C 1256   8.449   3.398   5.383  0.4554 -1.0333  0.2810
  751MOL0     C 1257   8.335   3.463   5.362 -0.5953 -0.3554 -0.0314
  751MOL0     O 1258   8.346   3.597   5.322  0.2516 -0.2635  0.2095
  751MOL0     C 1259   8.255   3.684   5.387  0.7452  0.4279 -0.0797
  751MOL0     C 1260   8.302   3.824   5.360  0.0234 -0.4447 -0.2722
  751MOL0     C 1261   8.224   3.939   5.434 -0.5798  0.0257  0.4949
  751MOL0     C 1262   8.078   3.926   5.410 -0.1877  0.2573  0.5646
  751MOL0     C 1263   7.994   4.035   5.481  0.5247 -0.2831 -0.1950
  751MOL0     C 1264   7.933   3.976   5.603 -0.2485  0.6729  0.1462
  751MOL0     C 1265   7.872   4.085   5.702  0.9491 -0.5651  0.9149
  751MOL0     C 1266   7.966   4.190   5.761 -0.1579  0.3490  0.3026
  751MOL0     N 1267   7.881   4.271   5.854 -0.0622  0.0160  0.3117
  751MOL0     C 1268   7.875   4.241   5.981  0.0263  0.4375 -0.6664
  751MOL0     C 1269   7.778   4.324   6.031  0.0859  0.7970 -0.0894
  751MOL0     C 1270   7.751   4.324   6.176 -0.4046 -0.2428 -0.0052
  751MOL0     C 1271   7.868   4.380   6.253 -0.1963  0.4972 -0.4918
  751MOL0     C 1272   7.909   4.513   6.195 -0.4226 -0.6867  1.2784
  751MOL0     C 1273   7.982   4.601   6.299  0.4627  0.2141  0.3012
  751MOL0     O 1274   8.117   4.540   6.316  0.2739  0.3214  0.5755
  751MOL0     C 1275   8.160   4.517   6.443 -0.1828 -0.3986  0.0385
  751MOL0     C 1276   8.266   4.429   6.468 -0.9814  0.8641 -0.7778
  751MOL0     C 1277   8.328   4.402   6.591  0.9375 -0.2831 -0.4662
  751MOL0     C 1278   8.444   4.311   6.595  0.5336 -0.1546  0.3686
  751MOL0     C 1279   8.274   4.477   6.698 -0.8342 -0.4254 -0.6956
  751MOL0     C 1280   8.336   4.485   6.834 -0.1722  0.3040  0.0400
  751MOL0     O 1281   8.469   4.475   6.847  0.4304  0.5323  0.1246
  751MOL0     C 1282   8.526   4.446   6.972  0.0801 -0.2847  0.6832
  751MOL0     C 1283   8.484   4.332   7.042 -0.2041 -0.8911  0.8732
  751MOL0     C 1284   8.562   4.288   7.152 -0.0682  0.6573  0.4877
  751MOL0     C 1285   8.670   4.364   7.210  0.7673 -0.5530  0.7970
  751MOL0     O 1286   8.748   4.349   7.327 -0.1951 -0.1803  0.7298
  751MOL0     C 1287   8.742   4.241   7.418 -0.1925 -0.7503  1.1041
  751MOL0     C 1288   8.805   4.273   7.553 -0.0172  0.5971  0.5723
  751MOL0     C 1289   8.845   4.146   7.624 -0.0848 -1.0525  0.0316
  751MOL0     C 1290   8.728   4.084   7.695  0.0857  0.2438 -0.3402
  751MOL0     C 1291   8.771   3.956   7.772 -0.4355  1.1158  0.5025
  751MOL0     C 1292   8.665   3.887   7.858 -0.4641 -0.6174 -0.0085
  751MOL0     C 1293   8.733   3.790   7.957  1.7677  0.8959 -0.1030
  751MOL0     C 1294   8.850   3.835   8.044  1.0240 -0.3383 -0.1513
  751MOL0    Cl 1295   8.834   4.013   8.095 -0.0862  0.2969  0.1886
  751MOL0     C 1296   8.704   4.479   7.134  0.4196 -0.5575  0.0950
  751MOL0     C 1297   8.636   4.517   7.011 -0.0871  0.6010 -0.2885
  751MOL0     O 1298   8.255   4.496   6.926  0.5565 -0.4225  0.2407
  751MOL0     C 1299   8.178   4.571   6.677  1.4880 -0.0872  1.1942
  751MOL0     C 1300   8.120   4.593   6.548 -0.6711  0.3375 -0.1893
  751MOL0     N 1301   7.736   4.413   5.930 -0.8425  0.4288 -0.5558
  751MOL0     N 1302   7.794   4.369   5.822  0.7079  0.1890 -0.8747
  751MOL0     C 1303   8.216   3.406   5.394 -0.8804 -0.6828 -0.4185
  751MOL0     C 1304   8.202   3.281   5.432  0.4438  0.0662 -0.4674
  751MOL0     C 1305   8.329   2.840   5.545  0.1770  0.3221  0.3470
  751MOL0     C 1306   8.402   2.763   5.631 -0.2017 -0.1796 -1.1449
  751MOL0     C 1307   8.352   2.644   5.686  0.7970  0.6995  0.2611
  751MOL0     C 1308   8.228   2.597   5.642  0.3126  0.3005  0.2222
  751MOL0     O 1309   8.172   2.482   5.686 -0.4561  0.2988 -0.3642
  751MOL0     C 1310   8.029   2.491   5.719  0.4159  0.5157 -0.2271
  751MOL0     C 1311   7.996   2.374   5.807  0.5061  0.2139  0.2214
  751MOL0     C 1312   8.060   2.348   5.943  0.2589  0.2844  0.3290
  751MOL0     C 1313   8.023   2.205   5.996 -0.1284  0.8074 -0.1089
  751MOL0     C 1314   8.035   2.219   6.141  0.2219 -0.4392  0.0348
  751MOL0     C 1315   8.059   2.212   6.268  0.5183 -0.2454  0.1706
  751MOL0     C 1316   8.159   2.672   5.547  0.4798 -0.1629  0.0018
  751MOL0     C 1317   8.208   2.797   5.505  0.5271 -0.3795 -0.2609
  751MOL0     H 1318   8.537   3.222   5.456 -0.6201  2.8011  1.5511
  751MOL0     H 1319   8.541   3.453   5.367 -0.6941  0.5147 -1.4222
  751MOL0     H 1320   8.151   3.673   5.354  0.4052  2.0576  0.3263
  751MOL0     H 1321   8.253   3.675   5.496  1.4406  1.1274  0.0003
  751MOL0     H 1322   8.405   3.821   5.396  0.7449 -2.8874 -2.2510
  751MOL0     H 1323   8.302   3.854   5.255  2.2318  0.3350 -0.0947
  751MOL0     H 1324   8.248   3.936   5.540 -0.3539 -1.9180  0.4145
  751MOL0     H 1325   8.252   4.039   5.397  1.9118 -1.0014 -0.6590
  751MOL0     H 1326   8.065   3.937   5.302  2.0025  1.2875  0.3268
  751MOL0     H 1327   8.044   3.833   5.456  1.7755 -0.3493  0.8926
  751MOL0     H 1328   8.057   4.121   5.506  0.6806 -0.8652  1.5519
  751MOL0     H 1329   7.910   4.086   5.433 -1.3509 -2.9991 -0.0362
  751MOL0     H 1330   7.858   3.903   5.569  1.0050 -0.6467  0.0984
  751MOL0     H 1331   8.011   3.917   5.652 -1.4557 -0.2660  1.0120
  751MOL0     H 1332   7.782   4.125   5.655  2.1845  2.1229  0.6896
  751MOL0     H 1333   7.834   4.027   5.787 -3.5211 -2.0304 -1.7772
  751MOL0     H 1334   8.008   4.253   5.682 -0.3429 -0.2740 -0.2960
  751MOL0     H 1335   8.046   4.136   5.813 -1.3241 -1.8228 -0.0484
  751MOL0     H 1336   7.931   4.165   6.035 -0.8071 -0.1995 -0.6800
  751MOL0     H 1337   7.658   4.381   6.186  0.2754  1.0533 -0.6630
  751MOL0     H 1338   7.728   4.222   6.207  1.3309 -0.6031  0.1857
  751MOL0     H 1339   7.962   4.324   6.245  1.7814  3.8072 -3.3458
  751MOL0     H 1340   7.831   4.400   6.354  0.0037 -0.3340 -0.2454
  751MOL0     H 1341   7.815   4.564   6.171  0.2320 -1.3591 -3.8758
  751MOL0     H 1342   7.961   4.504   6.099 -2.8095  1.3965 -0.3458
  751MOL0     H 1343   7.922   4.612   6.390 -0.2492  1.9438 -0.3523
  751MOL0     H 1344   7.992   4.704   6.265  0.6634  0.1816  0.2598
  751MOL0     H 1345   8.296   4.379   6.376 -2.3515 -2.7067  0.5634
  751MOL0     H 1346   8.407   4.226   6.653 -2.8661 -0.3228 -1.7632
  751MOL0     H 1347   8.467   4.274   6.495  1.6182  1.2439  0.0833
  751MOL0     H 1348   8.530   4.352   6.648 -0.9627 -0.3110  3.1124
  751MOL0     H 1349   8.407   4.266   7.004 -0.5981 -1.2350  2.2501
  751MOL0     H 1350   8.539   4.197   7.206  1.7195 -0.1520 -0.0425
  751MOL0     H 1351   8.642   4.198   7.430  0.1702 -2.1227 -0.4389
  751MOL0     H 1352   8.798   4.172   7.355 -1.1220  0.1510 -0.7708
  751MOL0     H 1353   8.898   4.326   7.531  2.6544 -2.4221  3.5294
  751MOL0     H 1354   8.735   4.327   7.617 -0.0466 -1.6807  2.6052
  751MOL0     H 1355   8.928   4.180   7.685 -0.0576  0.7372 -0.9235
  751MOL0     H 1356   8.887   4.077   7.550  2.6445  1.5964 -1.1188
  751MOL0     H 1357   8.680   4.157   7.761 -1.6425 -1.1554  0.0384
  751MOL0     H 1358   8.652   4.051   7.623 -0.9685  1.4354  0.1867
  751MOL0     H 1359   8.868   3.981   7.817  0.8125  0.7856 -1.8332
  751MOL0     H 1360   8.815   3.883   7.703  0.7246  1.7579  0.5412
  751MOL0     H 1361   8.613   3.964   7.916  5.8141  2.4865  2.5404
  751MOL0     H 1362   8.590   3.833   7.800  1.0544 -0.4179 -2.3116
  751MOL0     H 1363   8.750   3.701   7.896  1.2148 -2.7388  4.4886
  751MOL0     H 1364   8.652   3.752   8.020  1.8264  0.4541 -0.2914
  751MOL0     H 1365   8.942   3.820   7.986  2.0934 -0.4003  1.4906
  751MOL0     H 1366   8.856   3.767   8.130 -0.5654  2.0194  1.9712
  751MOL0     H 1367   8.792   4.536   7.165 -1.0443  2.3093 -0.6040
  751MOL0     H 1368   8.677   4.590   6.941 -0.1074 -0.7507 -1.7552
  751MOL0     H 1369   8.130   4.639   6.747 -2.6096 -0.0084 -1.3084
  751MOL0     H 1370   8.051   4.676   6.539 -0.6912  0.2461 -0.9590
  751MOL0     H 1371   8.122   3.462   5.395 -2.6526 -3.4764 -0.4781
  751MOL0     H 1372   8.105   3.234   5.446  1.5948 -1.8972  1.8227
  751MOL0     H 1373   8.499   2.800   5.665 -0.5686  0.9827 -1.3178
  751MOL0     H 1374   8.396   2.574   5.757 -1.0646 -1.6198 -0.7247
  751MOL0     H 1375   8.018   2.588   5.768  0.2527  0.8726 -0.9607
  751MOL0     H 1376   7.963   2.486   5.632 -0.3703 -1.3213  0.4086
  751MOL0     H 1377   8.032   2.287   5.751 -3.1098 -0.4532 -1.3839
  751MOL0     H 1378   7.892   2.339   5.811  1.3452 -4.0260 -4.1925
  751MOL0     H 1379   8.031   2.431   6.008 -0.1384  0.1335  0.3472
  751MOL0     H 1380   8.168   2.352   5.927 -0.1350  1.8373 -2.6558
  751MOL0     H 1381   8.081   2.125   5.950  2.1943  2.3505 -0.0489
  751MOL0     H 1382   7.916   2.197   5.975  0.0956  0.7319 -1.3150
  751MOL0     H 1383   8.071   2.215   6.374  0.1660 -0.5508  0.2222
  751MOL0     H 1384   8.057   2.643   5.523  0.8389 -1.1086 -0.4222
  751MOL0     H 1385   8.140   2.854   5.442  0.0462 -0.4028  0.2340
  752MOL0     O 1386   8.143   0.206   2.699  1.0022 -0.3072 -0.0219
  752MOL0     C 1387   8.209   0.208   2.802  0.0060  0.4179  0.2580
  752MOL0     O 1388   8.157   0.247   2.915 -0.2055 -0.0012  0.0819
  752MOL0     C 1389   8.025   0.288   2.934  0.4214 -0.2873  0.0055
  752MOL0     C 1390   7.999   0.406   3.009 -1.1908 -0.3173  0.5988
  752MOL0     C 1391   7.865   0.445   3.042 -0.0583  0.5591  0.0498
  752MOL0     C 1392   7.757   0.365   3.002 -0.3187  0.6001 -0.1523
  752MOL0     O 1393   7.641   0.409   3.048 -0.3837 -0.0759 -0.2644
  752MOL0     C 1394   7.519   0.335   3.035 -0.5799  0.3871  0.7079
  752MOL0     C 1395   7.419   0.428   3.110 -0.1794  0.4810  0.8429
  752MOL0     C 1396   7.296   0.344   3.171  0.0574 -0.4046 -0.3157
  752MOL0     C 1397   7.216   0.426   3.270 -0.1265 -0.2569 -0.5178
  752MOL0     C 1398   7.138   0.343   3.373  0.6417  0.2660  0.7052
  752MOL0     C 1399   7.079   0.435   3.470 -0.0681  1.0508  1.0664
  752MOL0     C 1400   6.978   0.367   3.565 -0.1377 -0.6151  0.9219
  752MOL0     C 1401   6.850   0.326   3.496 -0.0505 -0.0669 -1.4136
  752MOL0     N 1402   6.736   0.307   3.579 -0.4063 -0.4079  0.1473
  752MOL0     C 1403   6.709   0.361   3.699  0.4342 -0.2041  0.7943
  752MOL0     C 1404   6.587   0.326   3.733  0.9270 -0.0406 -0.1187
  752MOL0     C 1405   6.509   0.376   3.841 -0.2576 -0.7514 -0.5522
  752MOL0     C 1406   6.394   0.460   3.783  0.4344 -0.0694  0.5056
  752MOL0     C 1407   6.301   0.538   3.875  0.2326 -0.1255 -0.7501
  752MOL0     C 1408   6.233   0.434   3.970 -0.3820 -0.9262 -0.3125
  752MOL0     O 1409   6.146   0.503   4.071  0.7956 -0.6408  0.0031
  752MOL0     C 1410   6.022   0.536   4.021 -0.5320  0.2082 -0.1072
  752MOL0     C 1411   5.938   0.583   4.125 -0.1349  1.0003 -0.0470
  752MOL0     C 1412   5.803   0.613   4.102 -0.3706 -0.2011 -0.0806
  752MOL0     C 1413   5.721   0.672   4.216 -0.0890  0.4192  0.5235
  752MOL0     C 1414   5.744   0.604   3.978 -0.3474  0.6894 -0.0973
  752MOL0     C 1415   5.605   0.613   3.940 -1.0258 -0.7864  0.0677
  752MOL0     O 1416   5.574   0.602   3.807 -0.5560 -0.3493 -0.3866
  752MOL0     C 1417   5.458   0.662   3.754  0.1650  0.5888 -0.9831
  752MOL0     C 1418   5.379   0.756   3.817 -0.4233  1.0264 -0.2755
  752MOL0     C 1419   5.271   0.817   3.755 -0.7765 -0.0479 -0.0834
  752MOL0     C 1420   5.238   0.788   3.625 -0.6581  0.4221  0.7644
  752MOL0     O 1421   5.128   0.843   3.574  0.7030  0.2927 -0.6078
  752MOL0     C 1422   5.056   0.774   3.464  0.5615  0.2573  0.7623
  752MOL0     C 1423   4.922   0.834   3.420 -0.2526 -0.4356  0.8006
  752MOL0     C 1424   4.811   0.828   3.531  0.0263  0.1957 -0.0279
  752MOL0     C 1425   4.679   0.883   3.471  0.3899  0.0531  0.6607
  752MOL0     C 1426   4.562   0.920   3.558  0.2810  0.6597 -0.2082
  752MOL0     C 1427   4.464   1.001   3.473  0.8222 -0.8306 -1.4125
  752MOL0     C 1428   4.371   1.074   3.590 -0.2008 -0.6264 -0.0089
  752MOL0     C 1429   4.252   1.150   3.524 -0.4844  0.3136  0.7137
  752MOL0    Cl 1430   4.124   1.057   3.450  0.2724 -0.0940 -0.6185
  752MOL0     C 1431   5.315   0.686   3.561  0.1769 -0.3299  0.2220
  752MOL0     C 1432   5.426   0.624   3.622 -0.0183  0.2955 -0.6645
  752MOL0     O 1433   5.530   0.609   4.031 -0.0667 -0.0393 -0.6132
  752MOL0     C 1434   5.838   0.553   3.874  0.7567  0.4686  0.4388
  752MOL0     C 1435   5.972   0.519   3.898  0.3003 -0.2716  0.2242
  752MOL0     N 1436   6.541   0.248   3.637 -0.1405  0.6182 -0.0896
  752MOL0     N 1437   6.625   0.239   3.535  0.8810 -0.8277 -0.6195
  752MOL0     C 1438   7.782   0.248   2.918 -1.2635  0.1549 -0.6504
  752MOL0     C 1439   7.916   0.217   2.881  0.6177  0.0648  1.4834
  752MOL0     C 1440   8.356   0.177   2.800 -1.0690  0.0560 -0.6379
  752MOL0     C 1441   8.445   0.193   2.913  0.7922  0.1711 -0.1818
  752MOL0     C 1442   8.581   0.165   2.899 -0.2586 -0.7918  0.5001
  752MOL0     C 1443   8.638   0.110   2.793  0.5797  0.3733  1.1076
  752MOL0     O 1444   8.763   0.073   2.785  0.0197  0.2471 -0.1347
  752MOL0     C 1445   8.841   0.166   2.720  0.3964  0.2527  0.4142
  752MOL0     C 1446   8.958   0.213   2.807  0.0489  0.2219  0.4020
  752MOL0     C 1447   9.055   0.305   2.736 -0.2770  0.2275  0.0213
  752MOL0     C 1448   9.178   0.337   2.824  0.4464 -0.6287  0.3384
  752MOL0     C 1449   9.268   0.217   2.824  1.0388  0.2019  0.2064
  752MOL0     C 1450   9.346   0.130   2.834 -0.2987  0.0503  0.6591
  752MOL0     C 1451   8.550   0.085   2.686 -0.1768 -0.6380  0.8125
  752MOL0     C 1452   8.416   0.120   2.686  0.1172 -0.0307  1.0496
  752MOL0     H 1453   8.092   0.449   3.044 -0.5794 -0.7866 -0.4050
  752MOL0     H 1454   7.853   0.531   3.107 -0.1917 -0.0956  0.9006
  752MOL0     H 1455   7.508   0.320   2.928  2.3543  2.2058  0.0536
  752MOL0     H 1456   7.520   0.242   3.094 -1.1375 -0.7401 -0.9946
  752MOL0     H 1457   7.471   0.467   3.198  2.5576 -0.6912 -0.1439
  752MOL0     H 1458   7.370   0.506   3.051 -2.7556 -2.5207 -1.3001
  752MOL0     H 1459   7.241   0.307   3.084 -1.6983 -2.2474  1.4881
  752MOL0     H 1460   7.337   0.259   3.226 -0.5704  0.6869  1.9529
  752MOL0     H 1461   7.290   0.482   3.327 -1.0810  0.5976 -0.0988
  752MOL0     H 1462   7.142   0.487   3.217  0.8042 -0.6032 -2.3246
  752MOL0     H 1463   7.068   0.278   3.319  0.5505 -0.4732  1.6765
  752MOL0     H 1464   7.213   0.276   3.418 -0.0220 -1.9253 -1.2501
  752MOL0     H 1465   7.158   0.487   3.525 -1.0929  3.3289  0.4932
  752MOL0     H 1466   7.032   0.517   3.416 -0.0972  0.5874  0.3740
  752MOL0     H 1467   7.035   0.283   3.606  0.9561  0.3375  1.3660
  752MOL0     H 1468   6.950   0.445   3.636 -1.0886 -0.7653  0.7252
  752MOL0     H 1469   6.874   0.238   3.436  2.5955 -0.2641 -0.2086
  752MOL0     H 1470   6.823   0.412   3.434 -1.0232  1.4753  0.9608
  752MOL0     H 1471   6.772   0.435   3.747  0.3028  3.0388 -3.5077
  752MOL0     H 1472   6.471   0.294   3.902  1.4433 -2.4308 -1.6158
  752MOL0     H 1473   6.584   0.426   3.903 -0.6619  0.0408 -0.6974
  752MOL0     H 1474   6.334   0.392   3.722  0.8280 -0.3444  0.4180
  752MOL0     H 1475   6.444   0.538   3.724 -2.5731  1.8188  0.2612
  752MOL0     H 1476   6.234   0.594   3.809 -1.2338 -3.8031 -2.6790
  752MOL0     H 1477   6.362   0.600   3.941  1.1228 -1.6254 -0.1148
  752MOL0     H 1478   6.313   0.385   4.025  0.7862  0.5964 -0.6112
  752MOL0     H 1479   6.184   0.351   3.919 -3.2951  0.6903 -0.3711
  752MOL0     H 1480   5.961   0.580   4.231  2.5901 -2.2572 -0.5761
  752MOL0     H 1481   5.661   0.756   4.181  0.4293  0.8680  0.7028
  752MOL0     H 1482   5.643   0.600   4.242  0.3561  0.0977  1.0033
  752MOL0     H 1483   5.777   0.689   4.309 -2.3589  1.0100  1.8499
  752MOL0     H 1484   5.401   0.797   3.915 -0.5454  0.4289  0.0055
  752MOL0     H 1485   5.205   0.876   3.818 -2.4313 -2.5538  0.6509
  752MOL0     H 1486   5.124   0.752   3.382 -0.7661  0.1329 -0.3385
  752MOL0     H 1487   5.029   0.674   3.499 -0.3233 -0.2633 -1.2753
  752MOL0     H 1488   4.934   0.936   3.382 -1.5205 -0.8914 -0.9604
  752MOL0     H 1489   4.896   0.787   3.325  2.3065  1.5535 -1.0180
  752MOL0     H 1490   4.849   0.881   3.619 -1.0874 -0.6307  0.9972
  752MOL0     H 1491   4.803   0.726   3.569 -3.6563  1.4618  3.3594
  752MOL0     H 1492   4.699   0.973   3.412 -0.3591  0.9840  1.7891
  752MOL0     H 1493   4.634   0.816   3.397  0.0669 -1.5476  2.2427
  752MOL0     H 1494   4.607   0.983   3.635  3.9064 -0.3758 -1.2884
  752MOL0     H 1495   4.515   0.829   3.599  0.2851  0.2928 -1.0058
  752MOL0     H 1496   4.507   1.074   3.404  1.8704  0.8921  0.9133
  752MOL0     H 1497   4.396   0.941   3.412 -1.8832 -0.0919  0.6895
  752MOL0     H 1498   4.428   1.150   3.643  0.9745  0.2625 -2.3766
  752MOL0     H 1499   4.335   0.998   3.659  1.1783 -2.5303 -1.2844
  752MOL0     H 1500   4.283   1.223   3.448 -1.3651  2.6310  2.4457
  752MOL0     H 1501   4.188   1.202   3.596 -2.8371 -1.4524  0.0060
  752MOL0     H 1502   5.308   0.680   3.453 -0.1816  0.7135  0.1777
  752MOL0     H 1503   5.474   0.554   3.554 -2.0037 -0.6681 -1.1503
  752MOL0     H 1504   5.793   0.540   3.776  2.4110 -2.7141 -0.0035
  752MOL0     H 1505   6.026   0.485   3.810  3.1872 -2.1779  2.5563
  752MOL0     H 1506   7.700   0.186   2.884 -2.9937  2.9611 -2.0073
  752MOL0     H 1507   7.931   0.120   2.834 -0.5614 -1.2446  3.6511
  752MOL0     H 1508   8.411   0.244   3.003  0.5734  0.4731 -0.4328
  752MOL0     H 1509   8.632   0.196   2.989  0.7172 -0.5893 -0.1117
  752MOL0     H 1510   8.884   0.131   2.626 -2.1338 -0.2280 -0.6612
  752MOL0     H 1511   8.786   0.257   2.693 -1.9243 -1.1512  0.0760
  752MOL0     H 1512   9.015   0.124   2.834 -1.0144 -0.5179  0.2493
  752MOL0     H 1513   8.920   0.257   2.900  1.1226 -3.4315  2.7920
  752MOL0     H 1514   9.000   0.395   2.708  2.0495  1.4644 -0.8295
  752MOL0     H 1515   9.092   0.267   2.640 -1.5003 -0.6187 -0.1486
  752MOL0     H 1516   9.141   0.364   2.923  0.2381  0.1927  0.0434
  752MOL0     H 1517   9.225   0.424   2.777 -3.1110  1.8738  1.0177
  752MOL0     H 1518   9.428   0.067   2.861  0.7237  1.1530  0.2097
  752MOL0     H 1519   8.602   0.043   2.601 -0.1432  0.1610  0.4306
  752MOL0     H 1520   8.354   0.099   2.600 -0.9280 -4.0357  2.5648
  753MOL0     O 1521   4.291   8.703   8.959  0.6403 -0.3255 -0.2120
  753MOL0     C 1522   4.218   8.667   8.869 -0.2944 -0.5509  0.0053
  753MOL0     O 1523   4.145   8.552   8.858 -0.6825  0.1118  0.5552
  753MOL0     C 1524   4.144   8.456   8.959  0.1133 -1.2353 -0.5595
  753MOL0     C 1525   4.263   8.398   9.000  0.6333  0.8119  0.0505
  753MOL0     C 1526   4.258   8.287   9.092 -0.7309 -0.2252  0.5826
  753MOL0     C 1527   4.140   8.246   9.150 -0.7224 -0.4267  0.8117
  753MOL0     O 1528   4.128   8.152   9.238  0.2147 -0.2385 -0.6618
  753MOL0     C 1529   4.243   8.053   9.270 -0.2408 -0.7988  0.5761
  753MOL0     C 1530   4.205   7.945   9.366 -0.0855  0.3827 -0.3388
  753MOL0     C 1531   4.311   7.848   9.387 -0.7135 -0.0775  0.5680
  753MOL0     C 1532   4.285   7.750   9.512  0.0217 -0.2756  0.2462
  753MOL0     C 1533   4.409   7.669   9.567  0.5750 -0.3540 -0.0269
  753MOL0     C 1534   4.516   7.764   9.634 -0.3582  0.5826  0.8990
  753MOL0     C 1535   4.626   7.681   9.689 -0.8552  0.3034 -0.3136
  753MOL0     C 1536   4.732   7.776   9.750 -0.0677  0.8591  0.2886
  753MOL0     N 1537   4.833   7.684   9.804  0.5944  0.5528 -0.4100
  753MOL0     C 1538   4.857   7.659   9.932 -0.6726  0.4533 -1.1045
  753MOL0     C 1539   4.946   7.561   9.935 -1.0004  0.4511 -0.6622
  753MOL0     C 1540   5.006   7.508  10.058  0.3882  0.9409 -0.3707
  753MOL0     C 1541   4.895   7.492  10.157  0.0997  0.9529 -0.2632
  753MOL0     C 1542   4.948   7.458  10.292 -0.9451  0.2426 -0.2014
  753MOL0     C 1543   5.014   7.325  10.299  0.0518 -0.1769 -0.5385
  753MOL0     O 1544   5.149   7.350  10.336 -0.1632 -0.5286 -1.0008
  753MOL0     C 1545   5.216   7.258  10.410 -0.6227  0.3292 -0.0405
  753MOL0     C 1546   5.169   7.130  10.444  0.2156 -0.9929  0.4311
  753MOL0     C 1547   5.243   7.032  10.521  0.5732  0.2554 -0.5444
  753MOL0     C 1548   5.181   6.895  10.551  0.6962 -0.2356 -0.6122
  753MOL0     C 1549   5.379   7.064  10.552  0.1810 -0.2240 -1.0189
  753MOL0     C 1550   5.464   6.978  10.632  0.3216  0.4587 -0.2925
  753MOL0     O 1551   5.598   7.010  10.627 -0.0250 -0.7054 -0.6272
  753MOL0     C 1552   5.681   6.958  10.725 -0.0867 -0.9609  0.6901
  753MOL0     C 1553   5.679   7.021  10.849 -0.6413 -0.2777  0.7944
  753MOL0     C 1554   5.752   6.968  10.952  0.2576  0.4478 -0.1728
  753MOL0     C 1555   5.849   6.869  10.932 -0.4665  0.2015 -0.1101
  753MOL0     O 1556   5.931   6.833  11.037 -0.6858  0.1833 -0.2530
  753MOL0     C 1557   6.058   6.763  10.992 -0.3265 -0.2469  0.0618
  753MOL0     C 1558   6.163   6.750  11.106  0.3746 -0.3813 -0.3009
  753MOL0     C 1559   6.268   6.642  11.086  0.1730 -0.5403 -0.4192
  753MOL0     C 1560   6.396   6.694  11.158  0.0996  0.4014  0.4594
  753MOL0     C 1561   6.518   6.604  11.156 -0.3238  0.8085 -0.1498
  753MOL0     C 1562   6.510   6.481  11.059  0.2140  0.3013 -0.0415
  753MOL0     C 1563   6.534   6.526  10.913  0.2430 -0.4555 -1.1977
  753MOL0     C 1564   6.661   6.464  10.845  0.3822 -0.0763  0.2306
  753MOL0    Cl 1565   6.807   6.463  10.958  0.5190  0.0278 -0.3708
  753MOL0     C 1566   5.851   6.799  10.809  0.6462  0.8935  0.5397
  753MOL0     C 1567   5.761   6.842  10.713  0.1182  0.3612 -0.4137
  753MOL0     O 1568   5.416   6.883  10.695 -0.3152  0.6861  0.2269
  753MOL0     C 1569   5.427   7.190  10.510 -0.4733 -0.3898  0.8953
  753MOL0     C 1570   5.353   7.282  10.446 -0.7300  0.0480 -0.1902
  753MOL0     N 1571   4.978   7.522   9.807  0.8168 -0.0553  0.2913
  753MOL0     N 1572   4.909   7.600   9.730  0.3394  0.1913  0.9082
  753MOL0     C 1573   4.018   8.311   9.105  0.0855  0.4410  0.1597
  753MOL0     C 1574   4.024   8.408   9.011 -0.4058 -0.2298 -0.3226
  753MOL0     C 1575   4.223   8.758   8.747  0.2146 -0.1669  0.5248
  753MOL0     C 1576   4.260   8.896   8.759 -1.0329  0.1308 -0.6932
  753MOL0     C 1577   4.281   8.971   8.643 -0.2493  0.1959 -0.9763
  753MOL0     C 1578   4.290   8.913   8.518 -0.0505  0.0391  0.7233
  753MOL0     O 1579   4.299   8.993   8.398  0.4513  0.1281  0.9369
  753MOL0     C 1580   4.297   9.139   8.419 -0.2067  0.6367  0.5076
  753MOL0     C 1581   4.309   9.199   8.286 -0.2243  0.3691  0.8275
  753MOL0     C 1582   4.178   9.201   8.204 -0.3301  0.0517  0.8279
  753MOL0     C 1583   4.209   9.274   8.065  0.1251 -0.9636 -0.0104
  753MOL0     C 1584   4.319   9.219   7.982  0.1109 -0.3888  0.3711
  753MOL0     C 1585   4.409   9.171   7.921 -0.6626 -0.1701 -0.4457
  753MOL0     C 1586   4.246   8.784   8.506  0.2079  0.9709  0.3820
  753MOL0     C 1587   4.201   8.709   8.618 -0.7816  0.7775 -0.1549
  753MOL0     H 1588   4.359   8.435   8.963  0.6002  0.2947 -0.5640
  753MOL0     H 1589   4.346   8.228   9.119 -1.8239 -2.1088  0.2024
  753MOL0     H 1590   4.270   8.002   9.177 -2.5579 -0.4273 -0.3742
  753MOL0     H 1591   4.335   8.090   9.316  0.8117  1.3895 -2.8779
  753MOL0     H 1592   4.148   7.977   9.453  0.7299  1.6290 -0.2293
  753MOL0     H 1593   4.135   7.890   9.303  1.5683 -1.5099 -0.6121
  753MOL0     H 1594   4.318   7.791   9.294  1.0199  0.5564  0.2812
  753MOL0     H 1595   4.404   7.903   9.406 -0.7494  0.3776 -0.5055
  753MOL0     H 1596   4.240   7.800   9.598 -1.8192 -0.1878 -0.7160
  753MOL0     H 1597   4.215   7.680   9.465 -1.8413  1.5272  0.1998
  753MOL0     H 1598   4.377   7.591   9.636  0.2079  1.1679  1.6206
  753MOL0     H 1599   4.453   7.619   9.481 -1.6209 -2.2358 -0.1375
  753MOL0     H 1600   4.546   7.830   9.552 -1.5145  1.0185  0.8016
  753MOL0     H 1601   4.474   7.824   9.715  0.5607  1.9682  0.3857
  753MOL0     H 1602   4.598   7.616   9.773  1.7777 -1.9473 -1.0318
  753MOL0     H 1603   4.674   7.621   9.611  1.0830  0.2837  0.8117
  753MOL0     H 1604   4.685   7.841   9.824 -0.8339  1.9270 -1.0728
  753MOL0     H 1605   4.786   7.827   9.670  3.3196 -2.3807  0.2466
  753MOL0     H 1606   4.815   7.705  10.022  2.7717  0.5988  0.5968
  753MOL0     H 1607   5.041   7.405  10.043  1.1182  0.4491  3.5374
  753MOL0     H 1608   5.090   7.567  10.095  2.9721 -1.8863 -1.2624
  753MOL0     H 1609   4.819   7.429  10.110 -1.0244  2.1223 -0.0831
  753MOL0     H 1610   4.847   7.590  10.172  2.3248  2.1326 -0.4732
  753MOL0     H 1611   4.869   7.478  10.364  0.4311  0.8749  1.1745
  753MOL0     H 1612   5.028   7.526  10.322 -0.3112 -0.1277 -1.0037
  753MOL0     H 1613   5.000   7.269  10.206  1.0856 -4.5522  1.6532
  753MOL0     H 1614   4.958   7.268  10.373  0.7169  1.4283  1.2757
  753MOL0     H 1615   5.075   7.097  10.402  1.4568 -1.6362 -2.0379
  753MOL0     H 1616   5.087   6.891  10.495  1.0914 -1.2647 -1.2226
  753MOL0     H 1617   5.246   6.811  10.528  0.5219  0.3112 -3.4807
  753MOL0     H 1618   5.150   6.895  10.656  3.2058  1.3783  0.2209
  753MOL0     H 1619   5.620   7.112  10.855 -0.0363  0.2075 -0.2921
  753MOL0     H 1620   5.758   7.031  11.040  1.9141 -1.5550  1.2418
  753MOL0     H 1621   6.033   6.665  10.951 -0.1761 -0.3536  0.2244
  753MOL0     H 1622   6.099   6.824  10.911 -1.3001  1.0240  0.5021
  753MOL0     H 1623   6.219   6.844  11.103 -1.2020  0.5819 -0.3834
  753MOL0     H 1624   6.112   6.753  11.202  1.7000  0.5360  0.4175
  753MOL0     H 1625   6.278   6.636  10.977 -1.6681  0.1135 -0.6722
  753MOL0     H 1626   6.228   6.545  11.115  1.8586 -1.0624  0.2683
  753MOL0     H 1627   6.424   6.795  11.127 -1.4989  0.8323  0.3143
  753MOL0     H 1628   6.370   6.720  11.261  0.7008  0.7433  0.5289
  753MOL0     H 1629   6.533   6.577  11.261 -4.4233  2.0074  0.9278
  753MOL0     H 1630   6.604   6.666  11.127  1.5853  0.2053  3.6029
  753MOL0     H 1631   6.585   6.404  11.082  3.1639  2.8040 -0.5653
  753MOL0     H 1632   6.412   6.436  11.074  0.1655  0.4478  0.0876
  753MOL0     H 1633   6.547   6.634  10.906 -2.8810  0.1589  0.5312
  753MOL0     H 1634   6.445   6.489  10.860 -0.7540 -0.4171  0.3667
  753MOL0     H 1635   6.680   6.512  10.748 -1.2390 -1.4193 -0.8027
  753MOL0     H 1636   6.629   6.363  10.819  0.2141  0.4425 -1.7172
  753MOL0     H 1637   5.915   6.717  10.779 -0.5639  0.1584 -0.1198
  753MOL0     H 1638   5.775   6.799  10.614  0.7471  1.0369 -0.6303
  753MOL0     H 1639   5.531   7.214  10.530  0.4804 -2.6814 -0.7850
  753MOL0     H 1640   5.396   7.381  10.439  0.2302  0.0251  3.5221
  753MOL0     H 1641   3.915   8.290   9.133 -1.0308  0.3691 -3.5373
  753MOL0     H 1642   3.930   8.440   8.968  0.1890  0.8573 -0.8454
  753MOL0     H 1643   4.282   8.937   8.857  2.7254  0.4050 -1.4759
  753MOL0     H 1644   4.330   9.065   8.667  2.4109 -1.5866  1.1689
  753MOL0     H 1645   4.202   9.179   8.456 -1.4581  0.9739 -2.6845
  753MOL0     H 1646   4.379   9.167   8.485  2.1097 -3.0075 -0.5527
  753MOL0     H 1647   4.387   9.141   8.237 -0.3983  0.3981  0.5099
  753MOL0     H 1648   4.353   9.297   8.306 -1.1147  0.3029  3.5630
  753MOL0     H 1649   4.104   9.266   8.253 -0.2327 -1.8133  3.6804
  753MOL0     H 1650   4.145   9.099   8.185 -4.3649  1.5912 -1.8491
  753MOL0     H 1651   4.220   9.383   8.066 -2.3036 -0.5860 -2.3858
  753MOL0     H 1652   4.121   9.255   8.004  1.1491  3.0114 -3.1146
  753MOL0     H 1653   4.489   9.113   7.881 -1.0874 -1.6525  0.7606
  753MOL0     H 1654   4.217   8.757   8.405 -0.6139  0.4275  0.7615
  753MOL0     H 1655   4.166   8.607   8.618 -1.5585  1.0189 -1.9488
  754MOL0     O 1656   7.454   8.431   1.955  0.2147  0.4470  0.4824
  754MOL0     C 1657   7.529   8.522   1.927 -0.3402 -0.2848 -0.6793
  754MOL0     O 1658   7.581   8.545   1.811 -0.5354 -0.0816  0.4194
  754MOL0     C 1659   7.603   8.438   1.722  0.6357  1.0386 -0.6529
  754MOL0     C 1660   7.501   8.363   1.657  0.6887  0.0693 -0.2133
  754MOL0     C 1661   7.534   8.273   1.557  0.8703 -0.3673  0.0677
  754MOL0     C 1662   7.672   8.247   1.526 -0.6720  0.1600  0.0538
  754MOL0     O 1663   7.722   8.153   1.435 -0.1949 -0.6851  0.4464
  754MOL0     C 1664   7.623   8.100   1.342  0.5088  0.6561  0.2694
  754MOL0     C 1665   7.694   7.989   1.266  1.2124  0.4211  0.1697
  754MOL0     C 1666   7.739   7.876   1.359  0.2352 -0.2682 -0.4233
  754MOL0     C 1667   7.795   7.767   1.281 -0.2842  0.5001  0.1557
  754MOL0     C 1668   7.870   7.668   1.361 -0.3291 -0.7407 -0.0866
  754MOL0     C 1669   7.931   7.559   1.278 -0.4271 -0.1201  0.1268
  754MOL0     C 1670   7.966   7.425   1.361 -0.0711  0.7047  0.4261
  754MOL0     C 1671   8.059   7.457   1.483  0.3810 -0.5361  1.6409
  754MOL0     N 1672   8.062   7.347   1.575 -0.4737 -0.0067 -0.3512
  754MOL0     C 1673   8.109   7.226   1.543  0.2952 -0.2330  0.3307
  754MOL0     C 1674   8.070   7.140   1.644 -0.0455 -0.4243 -0.5956
  754MOL0     C 1675   8.076   6.989   1.629  0.6263 -0.3410 -0.8310
  754MOL0     C 1676   7.941   6.930   1.592 -0.1868  0.1792 -0.4197
  754MOL0     C 1677   7.966   6.787   1.549  0.4288  0.3521 -0.2149
  754MOL0     C 1678   7.980   6.690   1.664 -0.0748  0.1332  0.1936
  754MOL0     O 1679   8.108   6.701   1.716 -0.7869  0.4768  0.4293
  754MOL0     C 1680   8.131   6.689   1.847 -0.2957  0.2520  0.2683
  754MOL0     C 1681   8.221   6.776   1.906 -0.2999  0.1314 -0.1893
  754MOL0     C 1682   8.232   6.787   2.044 -0.4551 -0.4693  0.9672
  754MOL0     C 1683   8.337   6.882   2.110  0.7584  0.1441  0.5538
  754MOL0     C 1684   8.146   6.711   2.123  0.9772 -0.0696 -0.2576
  754MOL0     C 1685   8.136   6.715   2.274 -0.1893  0.4684  0.2915
  754MOL0     O 1686   8.020   6.654   2.323 -1.4020 -0.1398 -0.4814
  754MOL0     C 1687   8.026   6.624   2.457 -0.6300 -0.1172 -0.0106
  754MOL0     C 1688   7.970   6.707   2.557 -0.5948 -1.1439  0.4770
  754MOL0     C 1689   7.969   6.678   2.694 -0.0027  0.4836  0.1806
  754MOL0     C 1690   8.031   6.556   2.728  0.5169  0.1952 -0.3896
  754MOL0     O 1691   8.035   6.518   2.867  0.2737 -0.5447 -0.4802
  754MOL0     C 1692   8.099   6.398   2.902 -0.3271  0.0761 -0.7141
  754MOL0     C 1693   8.247   6.429   2.937 -0.7705  0.6313 -0.8261
  754MOL0     C 1694   8.333   6.318   2.880 -0.5742  0.5354 -0.3907
  754MOL0     C 1695   8.481   6.321   2.925  0.3734 -0.0147 -0.7414
  754MOL0     C 1696   8.569   6.228   2.842 -0.5494  0.2639  0.7890
  754MOL0     C 1697   8.704   6.206   2.916  0.1324 -0.7329  0.7617
  754MOL0     C 1698   8.802   6.121   2.836  0.5650 -0.0655  0.0458
  754MOL0     C 1699   8.925   6.090   2.908 -0.5325 -0.5049 -0.4722
  754MOL0    Cl 1700   9.025   5.976   2.810 -0.0074  0.2274 -0.2411
  754MOL0     C 1701   8.094   6.477   2.627  0.2021  0.7250 -0.3473
  754MOL0     C 1702   8.087   6.512   2.494 -0.2925  1.0247 -0.9225
  754MOL0     O 1703   8.222   6.763   2.342 -0.2462 -1.0217  0.3581
  754MOL0     C 1704   8.074   6.616   2.065 -0.4320  0.2458  0.9033
  754MOL0     C 1705   8.062   6.595   1.932 -0.9051  0.6804 -0.2239
  754MOL0     N 1706   8.038   7.218   1.758 -0.6311  0.0658 -0.4627
  754MOL0     N 1707   8.038   7.340   1.709 -0.6230  0.0441 -0.4292
  754MOL0     C 1708   7.768   8.316   1.604  0.2822  0.6333  0.3282
  754MOL0     C 1709   7.733   8.420   1.688  0.6708 -0.5471  0.6849
  754MOL0     C 1710   7.574   8.602   2.036 -0.4517  0.6036 -0.4509
  754MOL0     C 1711   7.656   8.718   2.008 -0.4457  0.0429  0.1108
  754MOL0     C 1712   7.703   8.801   2.116 -0.0230 -0.0080 -0.3671
  754MOL0     C 1713   7.668   8.770   2.243  1.3662 -0.2606 -0.4042
  754MOL0     O 1714   7.706   8.847   2.350  0.6042  0.7397 -0.5187
  754MOL0     C 1715   7.794   8.958   2.338  0.6475 -0.5429 -0.7002
  754MOL0     C 1716   7.840   9.008   2.482  0.3633  0.8198 -0.1093
  754MOL0     C 1717   7.724   9.066   2.562  0.5963  0.3170  0.3818
  754MOL0     C 1718   7.751   9.180   2.658 -0.4181 -0.0728  0.5812
  754MOL0     C 1719   7.787   9.315   2.601 -0.2704  0.1376  0.6305
  754MOL0     C 1720   7.834   9.416   2.555 -0.2113 -0.0374  0.2409
  754MOL0     C 1721   7.590   8.656   2.269  0.0961  0.2917  0.2682
  754MOL0     C 1722   7.546   8.570   2.171  0.7223 -0.0695  0.4490
  754MOL0     H 1723   7.396   8.373   1.683  0.8567 -0.5625  0.7775
  754MOL0     H 1724   7.466   8.213   1.499 -0.7320 -1.3930  2.8043
  754MOL0     H 1725   7.534   8.063   1.394  0.1421 -0.6894 -1.2322
  754MOL0     H 1726   7.585   8.171   1.269 -0.5676 -0.3197 -0.1382
  754MOL0     H 1727   7.629   7.941   1.192  2.9985  1.1671 -2.0103
  754MOL0     H 1728   7.789   8.026   1.227  2.1176  1.7944  3.4121
  754MOL0     H 1729   7.815   7.911   1.429 -1.4533  1.2876  0.7520
  754MOL0     H 1730   7.654   7.843   1.419 -1.0290 -0.6289 -2.3122
  754MOL0     H 1731   7.706   7.710   1.251 -0.2261  0.2134  0.5307
  754MOL0     H 1732   7.844   7.794   1.186 -1.3165  0.5318 -0.3859
  754MOL0     H 1733   7.960   7.701   1.413 -0.9352 -1.8142  1.7590
  754MOL0     H 1734   7.805   7.633   1.442 -0.4966  1.2933  0.7245
  754MOL0     H 1735   7.855   7.538   1.202 -3.3152  1.6045  2.3180
  754MOL0     H 1736   8.027   7.587   1.234  1.5098 -4.0840  1.3993
  754MOL0     H 1737   7.868   7.383   1.385 -0.7619  0.0013 -3.0072
  754MOL0     H 1738   8.002   7.338   1.305  1.7671  0.6147  1.6605
  754MOL0     H 1739   8.009   7.538   1.537 -0.8665 -0.9701  1.1801
  754MOL0     H 1740   8.151   7.512   1.463 -1.4201  2.1819  0.1479
  754MOL0     H 1741   8.140   7.196   1.443  2.0636  0.6989  0.5636
  754MOL0     H 1742   8.152   6.968   1.553  1.9766  3.5663 -0.7880
  754MOL0     H 1743   8.114   6.955   1.725  1.1770  2.2615 -0.0320
  754MOL0     H 1744   7.906   6.988   1.506  0.2063  0.7194 -0.2231
  754MOL0     H 1745   7.884   6.943   1.684  1.3326 -2.4699  1.0294
  754MOL0     H 1746   8.043   6.781   1.471 -1.4279 -0.7647 -2.0533
  754MOL0     H 1747   7.875   6.747   1.504  0.1537  1.2803 -0.5044
  754MOL0     H 1748   7.980   6.590   1.619 -0.8488  0.3280 -0.2613
  754MOL0     H 1749   7.902   6.701   1.739  0.0475 -0.8683  0.4809
  754MOL0     H 1750   8.278   6.851   1.851 -3.0795  1.1447 -1.9325
  754MOL0     H 1751   8.408   6.826   2.171 -0.1184 -0.7836  0.7745
  754MOL0     H 1752   8.387   6.942   2.034 -0.4097  1.6301  0.9123
  754MOL0     H 1753   8.282   6.957   2.168 -1.1794 -1.4928  0.9638
  754MOL0     H 1754   7.929   6.796   2.510  0.0445 -0.7057  0.7339
  754MOL0     H 1755   7.924   6.738   2.773 -0.9318  1.8106 -1.2932
  754MOL0     H 1756   8.041   6.372   2.991 -0.3270 -1.3566 -1.0957
  754MOL0     H 1757   8.079   6.308   2.842 -3.0051  0.3866 -0.4334
  754MOL0     H 1758   8.281   6.525   2.896  0.6658  1.3506  1.8091
  754MOL0     H 1759   8.252   6.433   3.046 -2.6562 -2.6311 -0.4969
  754MOL0     H 1760   8.319   6.333   2.773  0.4781  1.5271 -0.4098
  754MOL0     H 1761   8.296   6.216   2.889 -2.7375  1.0184 -2.7399
  754MOL0     H 1762   8.519   6.422   2.907 -0.7470  0.7968  1.1100
  754MOL0     H 1763   8.489   6.304   3.033 -0.6631 -2.6201 -1.0003
  754MOL0     H 1764   8.595   6.278   2.748  1.7279 -2.1551  0.0258
  754MOL0     H 1765   8.517   6.135   2.817 -1.3903  1.1646 -1.0298
  754MOL0     H 1766   8.743   6.308   2.923 -1.3010 -0.2103  1.5090
  754MOL0     H 1767   8.680   6.157   3.011  0.0225 -1.6845  0.2531
  754MOL0     H 1768   8.823   6.166   2.739  0.0391 -3.7669 -1.9568
  754MOL0     H 1769   8.758   6.025   2.808 -0.9838  0.7031 -0.2590
  754MOL0     H 1770   8.892   6.054   3.006 -2.8376  2.7553  0.1337
  754MOL0     H 1771   8.983   6.179   2.932  0.7678 -1.6463  0.8177
  754MOL0     H 1772   8.145   6.387   2.658 -1.9803 -1.0312 -1.5975
  754MOL0     H 1773   8.139   6.438   2.433 -0.9946 -0.0355 -0.2648
  754MOL0     H 1774   8.021   6.541   2.123  0.1277 -0.6764  0.2551
  754MOL0     H 1775   8.005   6.523   1.875  0.3907  0.5216 -1.3894
  754MOL0     H 1776   7.873   8.302   1.582  0.2902  0.0179  0.7524
  754MOL0     H 1777   7.807   8.480   1.740 -0.0803 -1.0839  2.4694
  754MOL0     H 1778   7.689   8.724   1.905 -0.7880 -2.8210 -0.2587
  754MOL0     H 1779   7.768   8.882   2.084 -0.7153  0.3343 -0.9437
  754MOL0     H 1780   7.887   8.949   2.283 -0.2619  1.1826 -2.6692
  754MOL0     H 1781   7.745   9.040   2.284  1.5971 -1.6523 -3.3707
  754MOL0     H 1782   7.921   9.080   2.468  1.1713 -0.4107 -2.3337
  754MOL0     H 1783   7.871   8.923   2.544 -3.1166 -2.3992 -2.3404
  754MOL0     H 1784   7.671   8.987   2.615 -2.2778  1.2822 -0.8611
  754MOL0     H 1785   7.651   9.104   2.490 -1.1695 -2.6478  0.4635
  754MOL0     H 1786   7.838   9.154   2.720  1.6551  2.1294 -1.1629
  754MOL0     H 1787   7.663   9.197   2.720 -0.3375  0.6124  0.5173
  754MOL0     H 1788   7.870   9.498   2.495 -1.6885  0.4791 -0.0017
  754MOL0     H 1789   7.571   8.647   2.376 -1.1800  1.5397  0.1912
  754MOL0     H 1790   7.477   8.490   2.196 -0.3307  0.9284  0.8479
  755MOL0     O 1791   6.981  10.747   5.001  0.5630 -0.8831  0.0898
  755MOL0     C 1792   7.091  10.800   5.027  0.7638 -0.3569 -0.6391
  755MOL0     O 1793   7.110  10.877   5.139 -0.7949 -0.1741  0.0920
  755MOL0     C 1794   7.019  10.915   5.234 -0.4314  0.5026 -0.2838
  755MOL0     C 1795   7.053  10.895   5.372 -0.9458  0.2880  0.5953
  755MOL0     C 1796   6.965  10.954   5.463 -0.9316  0.2259 -0.5170
  755MOL0     C 1797   6.869  11.049   5.435 -0.5626 -0.0353 -0.5208
  755MOL0     O 1798   6.801  11.110   5.533 -0.0851 -0.9157 -0.2210
  755MOL0     C 1799   6.789  11.248   5.543  0.0709 -0.8103 -0.2034
  755MOL0     C 1800   6.747  11.291   5.686 -0.1593 -0.6225 -0.9710
  755MOL0     C 1801   6.599  11.270   5.715 -0.1805 -0.3384  0.4918
  755MOL0     C 1802   6.572  11.185   5.850  0.0939 -0.4161 -0.4754
  755MOL0     C 1803   6.433  11.174   5.893 -0.0954  0.2429  0.2108
  755MOL0     C 1804   6.348  11.085   5.797  0.1498  0.1767  0.5220
  755MOL0     C 1805   6.210  11.075   5.854  0.5533 -1.2582 -0.7966
  755MOL0     C 1806   6.110  10.994   5.768  0.0352  0.1616  0.4960
  755MOL0     N 1807   5.989  10.976   5.834  0.5031  0.0268 -0.1970
  755MOL0     C 1808   5.863  10.968   5.766 -0.6249 -0.2533  0.7709
  755MOL0     C 1809   5.777  10.967   5.871  0.3078  0.6438 -0.4369
  755MOL0     C 1810   5.627  10.988   5.872  0.8934  0.2409 -0.6500
  755MOL0     C 1811   5.545  10.888   5.785 -0.3900  0.1410  0.8487
  755MOL0     C 1812   5.394  10.905   5.808 -0.1995  0.3564 -0.4858
  755MOL0     C 1813   5.313  10.862   5.682  0.4540  0.5190  0.3856
  755MOL0     O 1814   5.336  10.728   5.641  0.5403 -0.3955  0.2733
  755MOL0     C 1815   5.286  10.622   5.712 -0.0316  1.0072  0.0208
  755MOL0     C 1816   5.155  10.609   5.769 -0.3339 -0.3451 -0.1731
  755MOL0     C 1817   5.121  10.489   5.828  0.4036 -0.3443 -0.4340
  755MOL0     C 1818   4.974  10.485   5.864 -0.4190 -0.0589  0.1466
  755MOL0     C 1819   5.209  10.377   5.835 -0.5321  0.4972 -0.7225
  755MOL0     C 1820   5.192  10.249   5.910 -0.2639 -0.2986 -0.6551
  755MOL0     O 1821   5.299  10.163   5.913 -0.1266 -0.3878 -0.0750
  755MOL0     C 1822   5.266  10.030   5.923 -0.4449  0.3490 -0.2830
  755MOL0     C 1823   5.268   9.953   6.036  0.5557  0.3288  0.2799
  755MOL0     C 1824   5.228   9.821   6.040 -0.0153  0.2885  0.2286
  755MOL0     C 1825   5.193   9.756   5.921 -0.2464 -1.0975  0.6109
  755MOL0     O 1826   5.168   9.617   5.937 -0.7165 -0.5099 -0.5690
  755MOL0     C 1827   5.133   9.543   5.825  0.4894 -0.5186  0.2042
  755MOL0     C 1828   5.080   9.413   5.879 -0.0758 -0.2403 -0.7424
  755MOL0     C 1829   5.002   9.321   5.771  0.0803  0.2700  0.6386
  755MOL0     C 1830   4.980   9.181   5.825 -0.2461  1.2269  0.4831
  755MOL0     C 1831   4.879   9.175   5.932  0.0529 -0.0646 -0.8558
  755MOL0     C 1832   4.882   9.029   5.991  0.3161 -0.2383 -0.3336
  755MOL0     C 1833   4.767   8.989   6.086  0.1118  0.2314  0.4577
  755MOL0     C 1834   4.731   9.089   6.190 -0.3150  0.2087  0.3462
  755MOL0    Cl 1835   4.623   9.021   6.311  0.1526 -0.2339 -0.1678
  755MOL0     C 1836   5.202   9.829   5.804  1.1273 -0.0305  0.0632
  755MOL0     C 1837   5.232   9.969   5.803 -0.1058  0.3765  0.0078
  755MOL0     O 1838   5.082  10.222   5.969  0.3137 -0.1337  0.6071
  755MOL0     C 1839   5.330  10.399   5.767 -0.5692 -0.0855 -0.1878
  755MOL0     C 1840   5.367  10.512   5.703 -0.3131  0.0510 -1.1534
  755MOL0     N 1841   5.841  10.932   5.985 -0.1209 -0.0441 -0.1762
  755MOL0     N 1842   5.964  10.938   5.958 -0.6640 -0.9654 -1.3107
  755MOL0     C 1843   6.857  11.081   5.297  0.0993 -0.4348 -1.1719
  755MOL0     C 1844   6.925  11.014   5.201 -0.1376  1.3589  0.2643
  755MOL0     C 1845   7.204  10.750   4.944 -0.9557 -0.8886  0.0393
  755MOL0     C 1846   7.178  10.637   4.860 -0.3631  0.5054  0.5184
  755MOL0     C 1847   7.282  10.586   4.781  1.3467  1.1534  0.3454
  755MOL0     C 1848   7.405  10.644   4.778 -0.7498  0.3649  0.0811
  755MOL0     O 1849   7.512  10.600   4.707 -0.7396 -0.5276 -0.4167
  755MOL0     C 1850   7.494  10.622   4.566 -0.0772  0.5850  0.0352
  755MOL0     C 1851   7.590  10.724   4.513 -0.1265 -0.2470 -0.4398
  755MOL0     C 1852   7.742  10.678   4.491  0.7857 -0.3965  0.0953
  755MOL0     C 1853   7.840  10.675   4.606 -0.0797 -0.3584  0.1158
  755MOL0     C 1854   7.858  10.805   4.673  0.0011 -0.6041 -0.4813
  755MOL0     C 1855   7.883  10.897   4.737 -0.5290 -0.6581  0.4551
  755MOL0     C 1856   7.430  10.767   4.858 -0.1028  0.6943  0.5992
  755MOL0     C 1857   7.328  10.816   4.938  0.0314 -0.3774 -0.6714
  755MOL0     H 1858   7.137  10.838   5.411  0.9788  2.6260  0.0329
  755MOL0     H 1859   6.970  10.930   5.569 -1.3495 -2.7203 -1.0864
  755MOL0     H 1860   6.879  11.306   5.518 -0.6047 -0.4734 -1.9700
  755MOL0     H 1861   6.713  11.287   5.475  0.6074 -0.0151 -0.3739
  755MOL0     H 1862   6.804  11.234   5.759 -0.5703  1.4746  1.1160
  755MOL0     H 1863   6.771  11.396   5.707  1.0722 -1.2483  1.0316
  755MOL0     H 1864   6.553  11.368   5.731  0.0437  0.0261 -0.9699
  755MOL0     H 1865   6.539  11.225   5.636  1.0429 -0.7076 -0.2480
  755MOL0     H 1866   6.622  11.088   5.840  1.4073  0.4002 -2.5429
  755MOL0     H 1867   6.620  11.224   5.940  0.3831 -2.8907  0.5146
  755MOL0     H 1868   6.434  11.145   5.998 -3.9839  1.1037  0.6274
  755MOL0     H 1869   6.395  11.277   5.894  0.3482  0.4115  0.1951
  755MOL0     H 1870   6.340  11.133   5.700 -1.5434 -1.8832 -0.4590
  755MOL0     H 1871   6.385  10.984   5.775  0.6240  0.8145 -1.8040
  755MOL0     H 1872   6.203  11.040   5.957 -4.1940 -0.9534 -0.7980
  755MOL0     H 1873   6.177  11.179   5.854 -0.3001 -1.5259 -0.5103
  755MOL0     H 1874   6.146  10.891   5.762  0.6885  0.3235  1.5099
  755MOL0     H 1875   6.094  11.040   5.669  1.7916  0.3416  0.2520
  755MOL0     H 1876   5.855  10.987   5.660  1.3191 -0.4674  0.5382
  755MOL0     H 1877   5.592  10.984   5.976  3.7014 -1.5709  0.3362
  755MOL0     H 1878   5.595  11.079   5.821 -2.3358 -1.2738 -1.5535
  755MOL0     H 1879   5.571  10.782   5.788 -4.3949 -1.1778 -2.6032
  755MOL0     H 1880   5.565  10.910   5.680 -1.6617  0.9869  0.7586
  755MOL0     H 1881   5.365  11.004   5.845 -1.7322 -1.4052  3.7952
  755MOL0     H 1882   5.367  10.835   5.888  1.8178  1.5572  1.3354
  755MOL0     H 1883   5.335  10.939   5.607 -2.1489  2.0571  1.0860
  755MOL0     H 1884   5.206  10.868   5.701  0.5433  1.6368  0.6045
  755MOL0     H 1885   5.083  10.690   5.760  1.3750  1.0296 -4.2995
  755MOL0     H 1886   4.936  10.389   5.831 -1.6847  0.2214  0.7412
  755MOL0     H 1887   4.966  10.498   5.973  1.3828 -0.1327  0.3243
  755MOL0     H 1888   4.915  10.564   5.816  0.7994  0.6864 -0.1840
  755MOL0     H 1889   5.292  10.016   6.122 -0.6958  3.3468 -1.4163
  755MOL0     H 1890   5.221   9.760   6.129 -4.0211  1.3768  0.8241
  755MOL0     H 1891   5.060   9.594   5.761 -1.0868  1.9352  3.6419
  755MOL0     H 1892   5.223   9.528   5.765  0.5882 -1.8365  0.6495
  755MOL0     H 1893   5.165   9.358   5.920  0.8479  2.6863  1.6091
  755MOL0     H 1894   5.014   9.439   5.962 -0.0457 -1.9615 -0.1413
  755MOL0     H 1895   5.057   9.321   5.676  0.4123  1.3517  0.8202
  755MOL0     H 1896   4.903   9.363   5.750 -0.1182  0.3111  1.6098
  755MOL0     H 1897   4.980   9.105   5.746  1.3683  2.9666 -1.3188
  755MOL0     H 1898   5.073   9.156   5.876 -1.4786 -2.3791  1.2664
  755MOL0     H 1899   4.774   9.183   5.903 -1.8126 -0.7772  4.5722
  755MOL0     H 1900   4.892   9.251   6.009 -0.7122  0.7105 -1.4728
  755MOL0     H 1901   4.879   8.963   5.904  1.3642  0.2063 -0.7261
  755MOL0     H 1902   4.975   9.004   6.042 -1.9081 -2.0921  3.2283
  755MOL0     H 1903   4.795   8.893   6.131  3.4570  1.8964  2.4035
  755MOL0     H 1904   4.672   8.976   6.034 -2.0431 -1.0584  4.3105
  755MOL0     H 1905   4.682   9.179   6.150  1.6350  0.9540 -0.4963
  755MOL0     H 1906   4.822   9.116   6.244  1.7915 -0.6370 -2.5167
  755MOL0     H 1907   5.175   9.777   5.713 -2.4950 -1.7130  1.8856
  755MOL0     H 1908   5.243  10.019   5.708  0.7970 -0.1289 -0.1711
  755MOL0     H 1909   5.409  10.325   5.761 -1.2366 -0.8521  0.3046
  755MOL0     H 1910   5.464  10.517   5.656  1.3413 -1.6461  1.7893
  755MOL0     H 1911   6.783  11.157   5.278 -1.3141 -1.6347 -0.6729
  755MOL0     H 1912   6.912  11.037   5.096  0.7363  1.8131  0.2477
  755MOL0     H 1913   7.088  10.577   4.853 -1.3351  1.8503  1.0850
  755MOL0     H 1914   7.260  10.492   4.732  2.1560  0.5181  1.1547
  755MOL0     H 1915   7.515  10.525   4.520 -2.0159 -1.4629  3.0933
  755MOL0     H 1916   7.389  10.645   4.544 -0.4842  1.1761  2.3650
  755MOL0     H 1917   7.584  10.811   4.580 -3.1916 -0.1672 -0.6746
  755MOL0     H 1918   7.550  10.747   4.414  0.1744 -1.0188 -0.7456
  755MOL0     H 1919   7.786  10.740   4.412 -1.9624  2.2273  0.4461
  755MOL0     H 1920   7.750  10.579   4.446  1.7253 -0.5916  0.6735
  755MOL0     H 1921   7.936  10.651   4.560  1.0715  1.6467  1.3480
  755MOL0     H 1922   7.821  10.591   4.673  2.1266 -3.5837 -2.9242
  755MOL0     H 1923   7.910  10.987   4.789 -0.4709  0.3329 -1.2252
  755MOL0     H 1924   7.526  10.817   4.865 -0.3376  1.2565 -0.0416
  755MOL0     H 1925   7.350  10.906   4.996  0.3118 -1.8217  1.5723
  756MOL0     O 1926   9.389   2.236   3.033 -0.1824 -0.0645  0.2702
  756MOL0     C 1927   9.470   2.324   2.997 -0.6060  0.2216 -0.3000
  756MOL0     O 1928   9.482   2.442   3.058  0.0153  0.1747 -0.5084
  756MOL0     C 1929   9.412   2.462   3.176  0.3780  0.3953  0.3548
  756MOL0     C 1930   9.406   2.355   3.273  0.2589 -0.3363 -0.0718
  756MOL0     C 1931   9.329   2.356   3.377  0.0999 -0.0999 -0.3512
  756MOL0     C 1932   9.247   2.472   3.405 -0.4060  0.2113 -0.0624
  756MOL0     O 1933   9.185   2.482   3.525 -0.2200  0.3325  0.9336
  756MOL0     C 1934   9.056   2.525   3.523 -0.5086  0.5011 -0.3169
  756MOL0     C 1935   9.031   2.610   3.649  0.4637  1.5612  0.3006
  756MOL0     C 1936   8.885   2.651   3.661  0.2539  0.2774 -0.0840
  756MOL0     C 1937   8.781   2.557   3.733  0.1851 -0.5876  1.6685
  756MOL0     C 1938   8.776   2.558   3.886  0.2412 -0.6300 -0.0169
  756MOL0     C 1939   8.651   2.483   3.943  0.6444  0.4986 -0.6839
  756MOL0     C 1940   8.640   2.513   4.094 -0.1185 -0.0006  0.1773
  756MOL0     C 1941   8.502   2.460   4.146 -0.6234  0.0816  0.1612
  756MOL0     N 1942   8.494   2.463   4.293 -0.3813  0.2369  0.4408
  756MOL0     C 1943   8.501   2.577   4.369 -0.2661 -0.5624 -0.1213
  756MOL0     C 1944   8.505   2.532   4.498 -0.7121  0.1442 -0.1044
  756MOL0     C 1945   8.507   2.625   4.613  1.1144 -0.5563  0.6116
  756MOL0     C 1946   8.369   2.616   4.675 -1.1736  0.7431 -0.5082
  756MOL0     C 1947   8.340   2.721   4.785  0.5564 -0.1332  0.1167
  756MOL0     C 1948   8.411   2.681   4.920  0.4175 -0.7423  0.2733
  756MOL0     O 1949   8.372   2.560   4.978 -0.3861  0.3150 -0.2482
  756MOL0     C 1950   8.409   2.516   5.103 -0.1539 -0.5911 -0.1191
  756MOL0     C 1951   8.519   2.578   5.166 -0.4204  1.0416  0.7705
  756MOL0     C 1952   8.575   2.527   5.284 -0.0314  0.3008 -0.1918
  756MOL0     C 1953   8.702   2.606   5.335  0.6335 -0.6771 -0.0771
  756MOL0     C 1954   8.533   2.401   5.329  1.2176  0.0323  0.0276
  756MOL0     C 1955   8.569   2.342   5.464 -0.2426  0.3618  1.5229
  756MOL0     O 1956   8.520   2.216   5.476  0.2861 -0.0505  0.0245
  756MOL0     C 1957   8.498   2.166   5.601  0.2797 -0.1640 -0.1942
  756MOL0     C 1958   8.435   2.244   5.695 -0.7255  0.1468 -0.1009
  756MOL0     C 1959   8.411   2.192   5.825 -0.9871  0.9598 -0.1525
  756MOL0     C 1960   8.435   2.065   5.855 -0.0158  0.3121  0.3589
  756MOL0     O 1961   8.387   2.020   5.980 -0.3770  0.4110 -0.1337
  756MOL0     C 1962   8.455   1.906   6.036 -0.1199  0.7686  0.4037
  756MOL0     C 1963   8.598   1.944   6.088 -0.3934 -0.1105 -0.2364
  756MOL0     C 1964   8.680   1.829   6.135  0.5829 -0.7201  0.0128
  756MOL0     C 1965   8.790   1.875   6.218 -0.8167 -0.0740  0.2266
  756MOL0     C 1966   8.875   1.749   6.280  0.4945  0.7186 -0.8716
  756MOL0     C 1967   8.935   1.656   6.171 -0.9067  0.0058  0.5265
  756MOL0     C 1968   9.016   1.538   6.212  0.2361 -0.4069  0.9079
  756MOL0     C 1969   9.106   1.478   6.106 -0.3600 -0.6935  0.6341
  756MOL0    Cl 1970   9.153   1.312   6.134 -0.4772  0.2821  0.1038
  756MOL0     C 1971   8.506   1.982   5.760 -0.2821 -0.0792 -0.3647
  756MOL0     C 1972   8.530   2.034   5.633 -0.0360 -0.2610  0.4322
  756MOL0     O 1973   8.628   2.397   5.553 -0.5774  1.3384 -0.3230
  756MOL0     C 1974   8.423   2.338   5.265 -0.3150 -0.0979  0.4458
  756MOL0     C 1975   8.361   2.401   5.155 -0.5151  0.7312 -0.5287
  756MOL0     N 1976   8.510   2.394   4.495  0.1267 -0.6717  0.0872
  756MOL0     N 1977   8.496   2.355   4.370  0.1842 -0.3633 -0.0095
  756MOL0     C 1978   9.256   2.579   3.318 -0.5021 -0.5538 -0.1726
  756MOL0     C 1979   9.339   2.576   3.207  0.5499  0.2643 -0.4177
  756MOL0     C 1980   9.558   2.301   2.884 -0.2512 -0.3527  0.0883
  756MOL0     C 1981   9.552   2.178   2.813  0.1296 -0.2523  0.0250
  756MOL0     C 1982   9.621   2.151   2.693  0.4190  0.3726 -0.6973
  756MOL0     C 1983   9.712   2.243   2.649  1.1806 -1.6874 -0.5397
  756MOL0     O 1984   9.790   2.208   2.538  0.0776 -0.3284  0.1122
  756MOL0     C 1985   9.922   2.263   2.535  0.1384  0.2133 -0.0683
  756MOL0     C 1986   9.939   2.369   2.427 -0.3429 -0.3377  0.8144
  756MOL0     C 1987  10.097   2.394   2.404  0.3622  0.0236 -0.0601
  756MOL0     C 1988  10.126   2.524   2.338 -0.2606 -0.8781 -0.1939
  756MOL0     C 1989  10.074   2.543   2.209  0.5908 -0.1559  0.4873
  756MOL0     C 1990  10.016   2.543   2.101  0.1959 -0.0392 -0.5950
  756MOL0     C 1991   9.713   2.367   2.711  0.2460 -0.3001  0.3365
  756MOL0     C 1992   9.640   2.399   2.825  0.0252  0.1699 -1.3382
  756MOL0     H 1993   9.469   2.267   3.275  0.3735 -0.2661 -0.4462
  756MOL0     H 1994   9.333   2.286   3.460  2.6507  2.5230  1.9252
  756MOL0     H 1995   9.031   2.583   3.434 -3.2295 -1.8293 -1.2196
  756MOL0     H 1996   8.984   2.442   3.517  0.0330  0.0904 -1.4151
  756MOL0     H 1997   9.060   2.545   3.733  0.5814  2.8585  1.2950
  756MOL0     H 1998   9.098   2.695   3.639 -0.7042  2.4576 -0.1673
  756MOL0     H 1999   8.890   2.751   3.703  0.3755  0.9300 -1.5868
  756MOL0     H 2000   8.836   2.653   3.563 -0.7321 -1.5329  0.3106
  756MOL0     H 2001   8.683   2.597   3.705  0.2195 -0.9122  1.0713
  756MOL0     H 2002   8.794   2.455   3.697 -3.8126 -0.0689 -2.1620
  756MOL0     H 2003   8.866   2.508   3.922 -0.4942 -1.0729  1.2691
  756MOL0     H 2004   8.762   2.663   3.912 -2.6726 -1.0431  0.4061
  756MOL0     H 2005   8.561   2.501   3.882  0.7685  0.1724 -0.9630
  756MOL0     H 2006   8.663   2.375   3.936 -2.0589  0.0965 -0.2451
  756MOL0     H 2007   8.720   2.463   4.149 -1.9213  0.8268  3.8720
  756MOL0     H 2008   8.653   2.621   4.104  1.4528 -0.1691  0.1131
  756MOL0     H 2009   8.487   2.358   4.110  0.9960  0.2925 -1.2483
  756MOL0     H 2010   8.425   2.528   4.107  0.9394  2.5177  1.0562
  756MOL0     H 2011   8.483   2.674   4.323 -0.3035 -1.2040 -1.4744
  756MOL0     H 2012   8.598   2.615   4.673  1.4991 -0.1924  0.0959
  756MOL0     H 2013   8.514   2.726   4.573 -0.4732 -0.1777  1.2443
  756MOL0     H 2014   8.346   2.516   4.712  1.0249  0.3554 -0.0177
  756MOL0     H 2015   8.293   2.634   4.599 -0.3201  1.5522 -1.1961
  756MOL0     H 2016   8.232   2.729   4.800  0.6822  2.5075  0.0766
  756MOL0     H 2017   8.377   2.817   4.747  3.7799 -1.7136 -1.1592
  756MOL0     H 2018   8.391   2.764   4.988  3.0753  0.1221  0.1022
  756MOL0     H 2019   8.518   2.683   4.894  0.2455 -3.7782 -1.1385
  756MOL0     H 2020   8.552   2.671   5.122 -0.1823  1.1535  1.1831
  756MOL0     H 2021   8.662   2.688   5.395 -2.1757 -1.7151 -0.3750
  756MOL0     H 2022   8.760   2.542   5.402  1.0782 -0.4763 -0.2708
  756MOL0     H 2023   8.761   2.636   5.248  0.2850  0.9143  0.2067
  756MOL0     H 2024   8.410   2.346   5.669  0.4073  0.3205 -0.5689
  756MOL0     H 2025   8.378   2.248   5.912  0.1325 -2.5131  2.7608
  756MOL0     H 2026   8.390   1.867   6.115 -2.5864 -0.2943 -1.9890
  756MOL0     H 2027   8.470   1.826   5.963 -0.5627  1.0539 -0.0057
  756MOL0     H 2028   8.653   1.989   6.006 -1.0197  0.5671 -0.3012
  756MOL0     H 2029   8.582   2.019   6.167  0.3446 -0.3308  0.1209
  756MOL0     H 2030   8.713   1.783   6.042 -1.1988 -4.1483  0.8949
  756MOL0     H 2031   8.625   1.750   6.188  1.4440 -1.4306 -0.1341
  756MOL0     H 2032   8.864   1.932   6.160  1.7982 -1.1377  2.2875
  756MOL0     H 2033   8.742   1.925   6.302  0.0835  0.8052  0.2338
  756MOL0     H 2034   8.801   1.694   6.340  1.5894  2.7691  2.6782
  756MOL0     H 2035   8.957   1.787   6.342  0.1347 -0.9024  0.7095
  756MOL0     H 2036   8.851   1.619   6.112 -0.2143  0.6151 -0.8800
  756MOL0     H 2037   8.994   1.727   6.113 -2.4095 -1.1805 -2.6776
  756MOL0     H 2038   8.943   1.457   6.223 -1.7388  0.9952 -0.9104
  756MOL0     H 2039   9.070   1.555   6.305 -1.3426 -0.5804  1.8987
  756MOL0     H 2040   9.191   1.545   6.089 -0.3422 -1.1167 -1.1354
  756MOL0     H 2041   9.047   1.481   6.014  2.8271  2.7669 -1.5803
  756MOL0     H 2042   8.532   1.882   5.792 -2.2321 -0.5134 -0.0493
  756MOL0     H 2043   8.566   1.965   5.557 -0.4880 -1.3820  1.2008
  756MOL0     H 2044   8.376   2.248   5.303 -2.4600 -0.7699 -3.3370
  756MOL0     H 2045   8.278   2.361   5.097 -1.8893  2.3735  0.2330
  756MOL0     H 2046   9.190   2.664   3.331  1.0421  0.5037  1.1578
  756MOL0     H 2047   9.359   2.660   3.142  2.9639  1.9880  2.2985
  756MOL0     H 2048   9.480   2.107   2.853  1.4528 -0.5657  1.9669
  756MOL0     H 2049   9.608   2.050   2.654 -0.7123  0.4000 -0.4400
  756MOL0     H 2050   9.940   2.304   2.635 -3.0540  1.9606 -0.0655
  756MOL0     H 2051  10.001   2.189   2.518 -0.0873 -0.7976  2.7488
  756MOL0     H 2052   9.883   2.460   2.453 -0.6928 -0.2473 -0.2079
  756MOL0     H 2053   9.894   2.327   2.336  1.2618 -2.8631  1.0835
  756MOL0     H 2054  10.146   2.308   2.357  2.2967 -0.3954  2.4954
  756MOL0     H 2055  10.146   2.394   2.502 -0.2652 -3.1672  0.3577
  756MOL0     H 2056  10.233   2.542   2.324 -0.9197  1.8845 -2.5542
  756MOL0     H 2057  10.088   2.603   2.404  0.1553  0.2767 -1.3059
  756MOL0     H 2058   9.955   2.545   2.013 -3.5656 -2.1901  1.6821
  756MOL0     H 2059   9.771   2.451   2.673 -0.6589  0.9085  1.5118
  756MOL0     H 2060   9.670   2.486   2.882 -0.2689 -0.9648  0.6142
  757MOL0     O 2061   3.583   3.933   9.432  0.0187 -0.7387 -0.2025
  757MOL0     C 2062   3.584   3.805   9.425  0.3304  0.0841 -0.1312
  757MOL0     O 2063   3.519   3.728   9.331  0.1443 -0.2020 -0.0516
  757MOL0     C 2064   3.451   3.799   9.233  0.1539  0.4759  0.2392
  757MOL0     C 2065   3.493   3.792   9.103  0.1627 -0.4159  0.4434
  757MOL0     C 2066   3.412   3.832   8.994 -1.1201 -0.7463 -0.5310
  757MOL0     C 2067   3.296   3.914   9.017 -1.1401  0.1499 -0.3604
  757MOL0     O 2068   3.231   3.967   8.909 -0.6594  0.3145 -0.4352
  757MOL0     C 2069   3.296   4.088   8.858  0.1322  0.1566  0.3547
  757MOL0     C 2070   3.195   4.161   8.763 -0.3661  0.3152 -0.2823
  757MOL0     C 2071   3.054   4.153   8.798  0.3526 -0.3916 -0.4549
  757MOL0     C 2072   3.024   4.221   8.925 -0.6059 -0.3211 -0.6082
  757MOL0     C 2073   2.864   4.231   8.937 -0.4888 -0.2635 -0.5677
  757MOL0     C 2074   2.788   4.103   8.941 -0.1772  0.5156  0.2317
  757MOL0     C 2075   2.815   4.027   9.068 -0.2739  0.1363  1.0440
  757MOL0     C 2076   2.863   3.889   9.032 -0.2946  0.0890  0.1283
  757MOL0     N 2077   2.870   3.807   9.151  1.2148  0.6404 -0.3544
  757MOL0     C 2078   2.929   3.833   9.268  0.4701  0.3221 -0.0587
  757MOL0     C 2079   2.882   3.739   9.358 -0.0571 -0.9315 -0.5939
  757MOL0     C 2080   2.915   3.736   9.508  0.4939  0.6496  0.2280
  757MOL0     C 2081   2.790   3.726   9.597  0.7979  0.2809  0.4244
  757MOL0     C 2082   2.830   3.740   9.738 -0.6930  0.1888 -0.1061
  757MOL0     C 2083   2.707   3.743   9.836 -0.1344 -0.4478 -0.2340
  757MOL0     O 2084   2.750   3.814   9.952 -0.1938  0.0153 -0.0338
  757MOL0     C 2085   2.856   3.780  10.035  0.1924  0.2868  0.6316
  757MOL0     C 2086   2.916   3.653  10.040  0.5053  0.1552 -0.1121
  757MOL0     C 2087   3.041   3.631  10.109  0.3062  0.5625 -1.1162
  757MOL0     C 2088   3.111   3.502  10.096 -1.0823  0.0752 -0.4070
  757MOL0     C 2089   3.089   3.741  10.199 -0.5345 -0.5347  0.3427
  757MOL0     C 2090   3.214   3.734  10.283 -0.1694 -1.1684  0.0776
  757MOL0     O 2091   3.260   3.851  10.334 -0.2021 -0.4199 -0.7645
  757MOL0     C 2092   3.351   3.844  10.437 -0.3634  0.1369  0.2310
  757MOL0     C 2093   3.322   3.766  10.559  0.0041 -0.1420  0.5459
  757MOL0     C 2094   3.409   3.773  10.664  0.7338 -0.4731  0.0059
  757MOL0     C 2095   3.534   3.841  10.649  0.2218 -0.0600  0.7765
  757MOL0     O 2096   3.624   3.841  10.751 -0.2897  0.4457  0.4147
  757MOL0     C 2097   3.653   3.704  10.798  0.9448 -0.0800 -0.3384
  757MOL0     C 2098   3.804   3.700  10.823 -0.5057  0.1600 -0.1122
  757MOL0     C 2099   3.854   3.569  10.901 -0.3577 -0.5055  0.0121
  757MOL0     C 2100   4.001   3.529  10.861 -0.3231 -0.1924  0.1736
  757MOL0     C 2101   4.014   3.377  10.880 -0.3283  0.1920  0.5800
  757MOL0     C 2102   4.160   3.321  10.849  0.1245 -0.2605 -1.2271
  757MOL0     C 2103   4.269   3.394  10.926 -0.7726 -0.0016  0.1605
  757MOL0     C 2104   4.406   3.323  10.929 -0.1166  0.6056 -0.0981
  757MOL0    Cl 2105   4.525   3.458  10.931 -0.6086  0.1032  0.2026
  757MOL0     C 2106   3.552   3.927  10.548 -0.1170  0.0910  1.0943
  757MOL0     C 2107   3.460   3.924  10.436 -0.0218  1.2626 -0.1649
  757MOL0     O 2108   3.262   3.625  10.307  0.4447 -1.2137  0.0662
  757MOL0     C 2109   3.022   3.863  10.181 -0.2947 -0.6344 -0.7878
  757MOL0     C 2110   2.910   3.883  10.105 -0.3911  0.1605  0.3885
  757MOL0     N 2111   2.802   3.655   9.287 -0.3299  0.4026 -0.1684
  757MOL0     N 2112   2.794   3.697   9.165  0.3313  0.3235  1.3000
  757MOL0     C 2113   3.256   3.932   9.154 -0.2677 -0.6373 -0.8306
  757MOL0     C 2114   3.326   3.869   9.258  0.5239  0.3948 -0.1260
  757MOL0     C 2115   3.652   3.728   9.530 -1.5696 -0.1091  0.3037
  757MOL0     C 2116   3.646   3.761   9.668  0.4425  0.3289 -0.1509
  757MOL0     C 2117   3.732   3.709   9.765  0.1952  0.2883 -0.7144
  757MOL0     C 2118   3.812   3.604   9.725 -0.7927  0.0423 -0.2681
  757MOL0     O 2119   3.900   3.536   9.810  0.0684  0.4216  0.5642
  757MOL0     C 2120   3.932   3.600   9.937  1.3313 -0.4185  0.3219
  757MOL0     C 2121   4.041   3.508  10.002 -0.7741 -0.3217 -0.5075
  757MOL0     C 2122   4.155   3.469   9.897 -0.7323  1.3172 -0.2967
  757MOL0     C 2123   4.190   3.312   9.895 -0.4529  0.1091  0.0190
  757MOL0     C 2124   4.259   3.249  10.017 -0.2319 -0.3490  1.6515
  757MOL0     C 2125   4.311   3.187  10.109 -0.5610 -0.2084 -0.4474
  757MOL0     C 2126   3.824   3.565   9.591  0.1907  0.0869 -0.0060
  757MOL0     C 2127   3.746   3.627   9.494 -0.2741 -0.5176 -0.4194
  757MOL0     H 2128   3.585   3.735   9.092  0.9158  1.0681 -1.5510
  757MOL0     H 2129   3.449   3.817   8.893  1.0145  2.6886 -0.4223
  757MOL0     H 2130   3.313   4.165   8.933  0.1412 -1.1695  1.7716
  757MOL0     H 2131   3.387   4.060   8.804 -1.8264 -0.8260 -2.7007
  757MOL0     H 2132   3.222   4.267   8.761  1.7218 -0.1571 -2.7852
  757MOL0     H 2133   3.200   4.107   8.668  0.6075  0.2039 -0.1763
  757MOL0     H 2134   2.990   4.194   8.719 -3.7071 -1.6621  1.8645
  757MOL0     H 2135   3.021   4.048   8.802 -0.8125 -0.1345 -2.2075
  757MOL0     H 2136   3.063   4.159   9.006  0.9816 -1.3125 -2.0671
  757MOL0     H 2137   3.060   4.323   8.935  0.6073 -0.6548 -1.4236
  757MOL0     H 2138   2.836   4.284   9.029 -3.5384  0.3178 -1.6932
  757MOL0     H 2139   2.821   4.285   8.852 -2.3101 -0.3393  0.2458
  757MOL0     H 2140   2.683   4.133   8.938  0.3036  2.8564  2.6907
  757MOL0     H 2141   2.807   4.037   8.856 -0.8511  1.0588 -0.3541
  757MOL0     H 2142   2.895   4.079   9.121  0.1776  2.6047 -1.7880
  757MOL0     H 2143   2.725   4.010   9.128 -2.2768  1.1232 -1.4860
  757MOL0     H 2144   2.966   3.893   8.996 -0.2897  0.1620  0.1503
  757MOL0     H 2145   2.800   3.839   8.958 -3.5914  0.6126  2.3890
  757MOL0     H 2146   2.996   3.915   9.292  0.5700  1.0942 -2.6645
  757MOL0     H 2147   2.982   3.650   9.513  1.8904  1.7236  0.8488
  757MOL0     H 2148   2.968   3.830   9.529  1.3496  1.0861 -3.3041
  757MOL0     H 2149   2.731   3.640   9.565  0.9649  1.4631 -3.6588
  757MOL0     H 2150   2.729   3.811   9.565 -0.6560 -1.7322 -2.5900
  757MOL0     H 2151   2.888   3.831   9.754  2.8356 -1.3018 -3.0092
  757MOL0     H 2152   2.903   3.660   9.753 -0.2965  0.8485  1.8593
  757MOL0     H 2153   2.683   3.643   9.874  1.0664 -0.6702 -0.0177
  757MOL0     H 2154   2.620   3.794   9.793 -2.2462 -0.9957  3.0398
  757MOL0     H 2155   2.870   3.568   9.991 -1.1889  0.6836  0.4886
  757MOL0     H 2156   3.219   3.505  10.115 -1.5836  0.1435  3.0579
  757MOL0     H 2157   3.080   3.426  10.169  0.5213 -0.8458 -0.6373
  757MOL0     H 2158   3.109   3.462   9.995  0.5289 -3.2541  0.7364
  757MOL0     H 2159   3.232   3.706  10.564 -1.1446  1.2940 -1.3768
  757MOL0     H 2160   3.392   3.718  10.756  2.0980 -1.5724 -0.3624
  757MOL0     H 2161   3.591   3.679  10.885 -3.9213 -0.1268 -3.4280
  757MOL0     H 2162   3.627   3.630  10.722 -2.1525  1.4227 -0.8895
  757MOL0     H 2163   3.866   3.701  10.732 -0.7920 -3.8055 -0.5316
  757MOL0     H 2164   3.817   3.782  10.894 -2.9364  1.2757 -0.8654
  757MOL0     H 2165   3.787   3.486  10.875 -0.4010 -1.2712  2.3774
  757MOL0     H 2166   3.860   3.582  11.009  1.4103  0.9056 -0.2101
  757MOL0     H 2167   4.033   3.549  10.758  2.7246  0.0819  1.0683
  757MOL0     H 2168   4.067   3.599  10.913 -0.1099  1.0279 -1.6442
  757MOL0     H 2169   3.938   3.320  10.825 -0.5117 -0.9478  1.9632
  757MOL0     H 2170   3.992   3.353  10.984  0.1155  1.4042  0.9718
  757MOL0     H 2171   4.175   3.214  10.862  1.2538 -0.2722 -2.4027
  757MOL0     H 2172   4.179   3.344  10.743 -1.7048  2.4837 -1.0676
  757MOL0     H 2173   4.231   3.411  11.027  2.3646 -1.2218  1.6807
  757MOL0     H 2174   4.287   3.493  10.883 -2.4550  0.9835  1.5993
  757MOL0     H 2175   4.417   3.272  10.833 -0.5563  3.2665 -1.6800
  757MOL0     H 2176   4.404   3.257  11.016 -0.3972 -1.1340 -1.3688
  757MOL0     H 2177   3.641   3.989  10.546  0.3858 -0.6298  0.7392
  757MOL0     H 2178   3.466   3.980  10.343  1.5801 -0.8989 -1.4533
  757MOL0     H 2179   3.066   3.951  10.226  2.5268 -1.5994 -1.4450
  757MOL0     H 2180   2.860   3.978  10.089  1.4497  1.3738  1.4286
  757MOL0     H 2181   3.186   4.012   9.175  1.7803  0.8119  1.0212
  757MOL0     H 2182   3.293   3.881   9.361  1.2364  2.1662 -0.0746
  757MOL0     H 2183   3.575   3.833   9.707 -1.2760 -1.6021  0.5142
  757MOL0     H 2184   3.727   3.731   9.871 -0.6737  4.0615 -1.3928
  757MOL0     H 2185   3.979   3.698   9.930  1.2961 -0.4617 -0.5806
  757MOL0     H 2186   3.840   3.602   9.996  0.6103 -2.0912 -0.6733
  757MOL0     H 2187   3.994   3.416  10.037  1.5097 -0.4070  2.6842
  757MOL0     H 2188   4.077   3.571  10.083 -1.5673  1.6779 -1.6500
  757MOL0     H 2189   4.243   3.530   9.920 -1.3263  1.3625  2.1237
  757MOL0     H 2190   4.135   3.493   9.792 -0.3499  0.2673 -0.6279
  757MOL0     H 2191   4.262   3.291   9.815  0.5555 -0.2408  0.9880
  757MOL0     H 2192   4.099   3.258   9.867  1.2892 -1.5857 -2.8785
  757MOL0     H 2193   4.338   3.124  10.191 -1.5660 -3.0605 -2.1480
  757MOL0     H 2194   3.895   3.487   9.566 -0.8278  0.0318 -3.0830
  757MOL0     H 2195   3.756   3.577   9.398 -1.6376 -0.8522 -0.4107
  758MOL0     O 2196   3.990   8.678   7.243 -0.3505 -0.0570 -0.2134
  758MOL0     C 2197   4.042   8.708   7.351 -0.2387 -0.5129 -0.1752
  758MOL0     O 2198   3.975   8.740   7.471 -0.3761  0.1316  0.7466
  758MOL0     C 2199   3.847   8.706   7.491  0.0802  0.0333 -0.9473
  758MOL0     C 2200   3.821   8.630   7.603 -0.3523 -0.1293 -1.0146
  758MOL0     C 2201   3.694   8.583   7.628 -0.0450 -0.0772  0.4322
  758MOL0     C 2202   3.586   8.607   7.535  0.9602 -0.0568  0.0617
  758MOL0     O 2203   3.466   8.552   7.568  0.3465  0.4207 -0.5583
  758MOL0     C 2204   3.420   8.466   7.467 -0.4875 -0.4651 -0.0916
  758MOL0     C 2205   3.311   8.385   7.526 -0.0506 -0.2743  0.0132
  758MOL0     C 2206   3.287   8.248   7.451  0.0516 -0.3407  0.1462
  758MOL0     C 2207   3.147   8.197   7.489  0.3753  0.0435  0.1488
  758MOL0     C 2208   3.040   8.239   7.401  0.7860  0.2979  0.1219
  758MOL0     C 2209   2.900   8.189   7.440 -0.8792 -0.4019  0.5013
  758MOL0     C 2210   2.860   8.224   7.583  0.8801 -0.7736 -1.2110
  758MOL0     C 2211   2.714   8.202   7.629  0.4047 -0.6506  0.8169
  758MOL0     N 2212   2.616   8.306   7.577 -0.1991  0.8110 -0.6129
  758MOL0     C 2213   2.574   8.316   7.452 -0.2193  0.1567 -0.2003
  758MOL0     C 2214   2.513   8.436   7.447  0.3791 -0.3424  0.8511
  758MOL0     C 2215   2.458   8.500   7.321 -0.8684  0.4261 -0.3099
  758MOL0     C 2216   2.570   8.535   7.219 -0.3806  0.0582 -1.1516
  758MOL0     C 2217   2.507   8.623   7.101 -0.4943  1.3299  0.5497
  758MOL0     C 2218   2.411   8.548   7.010  0.4319  0.7526 -0.2177
  758MOL0     O 2219   2.496   8.439   6.969 -1.0232 -0.9008  0.1663
  758MOL0     C 2220   2.539   8.430   6.840 -0.8547 -0.3674  0.0693
  758MOL0     C 2221   2.581   8.545   6.768 -0.3614  0.3617  0.3957
  758MOL0     C 2222   2.604   8.534   6.631  0.1089 -0.3414  0.7194
  758MOL0     C 2223   2.652   8.651   6.558  0.4371  0.2459  0.4030
  758MOL0     C 2224   2.606   8.407   6.569  0.1519 -0.1003 -1.2712
  758MOL0     C 2225   2.629   8.376   6.427  0.1065  0.0043  0.1510
  758MOL0     O 2226   2.679   8.255   6.396  0.6580  0.1769 -0.1193
  758MOL0     C 2227   2.666   8.214   6.275 -1.3314  1.5149  0.0361
  758MOL0     C 2228   2.793   8.164   6.221  0.6192 -0.0967 -0.1384
  758MOL0     C 2229   2.807   8.137   6.088  0.5913  0.5932 -0.2632
  758MOL0     C 2230   2.694   8.123   6.006  0.4072  0.1671 -0.3267
  758MOL0     O 2231   2.723   8.076   5.878 -0.9870  0.5128 -0.2848
  758MOL0     C 2232   2.624   8.047   5.776  0.6674 -0.4662 -1.1745
  758MOL0     C 2233   2.703   7.998   5.664  0.6267  0.4393 -1.0568
  758MOL0     C 2234   2.611   7.896   5.569 -0.5712 -0.4829 -0.7583
  758MOL0     C 2235   2.691   7.851   5.450  0.0968 -1.0652 -0.5819
  758MOL0     C 2236   2.643   7.712   5.396 -1.0807  0.1347  0.0545
  758MOL0     C 2237   2.638   7.699   5.247 -0.6623  0.8551 -0.2273
  758MOL0     C 2238   2.502   7.755   5.185  0.8890  0.0359  0.3921
  758MOL0     C 2239   2.505   7.721   5.030  0.2119  0.7978  0.5129
  758MOL0    Cl 2240   2.362   7.805   4.961  0.1179 -0.1120  0.3403
  758MOL0     C 2241   2.564   8.151   6.058  1.2858  0.0447  0.3192
  758MOL0     C 2242   2.550   8.204   6.192 -0.1398  0.7360 -0.2585
  758MOL0     O 2243   2.609   8.458   6.343 -0.0441  0.3869  0.9913
  758MOL0     C 2244   2.581   8.285   6.648  0.6485  0.1753  0.7699
  758MOL0     C 2245   2.538   8.301   6.779 -0.5113  0.7906  0.0424
  758MOL0     N 2246   2.526   8.503   7.567  0.4371 -0.3805  0.4866
  758MOL0     N 2247   2.585   8.419   7.651 -0.7327  0.0525  0.0164
  758MOL0     C 2248   3.619   8.676   7.417 -0.0115  0.0998  0.7923
  758MOL0     C 2249   3.745   8.722   7.399  0.1476  0.5414 -0.7983
  758MOL0     C 2250   4.191   8.704   7.361  0.3536  1.3119  1.6207
  758MOL0     C 2251   4.257   8.762   7.461 -0.8784 -0.2563 -0.5506
  758MOL0     C 2252   4.399   8.776   7.466 -0.1216  0.3410  0.0960
  758MOL0     C 2253   4.478   8.705   7.370 -0.0699  0.1135  0.3209
  758MOL0     O 2254   4.621   8.712   7.387 -0.3296 -0.4967  0.3491
  758MOL0     C 2255   4.698   8.655   7.280 -0.0723 -0.7842  0.4475
  758MOL0     C 2256   4.841   8.673   7.327  0.1203 -1.5048 -0.6412
  758MOL0     C 2257   4.919   8.584   7.236  0.5318 -0.8152 -0.1840
  758MOL0     C 2258   5.057   8.563   7.290 -0.3763 -0.9544  0.3331
  758MOL0     C 2259   5.137   8.687   7.244  0.6374 -0.5479 -0.3187
  758MOL0     C 2260   5.180   8.799   7.238  0.7805 -0.6999 -1.4984
  758MOL0     C 2261   4.415   8.622   7.277  0.0398  0.1407 -0.3266
  758MOL0     C 2262   4.271   8.623   7.275  0.8380  0.2903  0.2563
  758MOL0     H 2263   3.907   8.595   7.659 -0.8597 -1.0118 -0.7718
  758MOL0     H 2264   3.681   8.517   7.713 -0.0720 -2.2292 -1.1530
  758MOL0     H 2265   3.392   8.503   7.368 -0.8647  0.4450  0.3415
  758MOL0     H 2266   3.501   8.401   7.435 -1.9705 -1.2541 -2.5267
  758MOL0     H 2267   3.321   8.374   7.635 -2.1018  3.4886  0.7432
  758MOL0     H 2268   3.222   8.447   7.521 -2.3850 -3.4901 -1.8342
  758MOL0     H 2269   3.300   8.263   7.343  1.0298 -0.9468  0.1691
  758MOL0     H 2270   3.353   8.167   7.479 -1.5014 -1.7830 -0.1877
  758MOL0     H 2271   3.152   8.087   7.485  1.1068  0.1067 -2.3936
  758MOL0     H 2272   3.130   8.217   7.595 -2.0037  1.0086 -0.3563
  758MOL0     H 2273   3.033   8.348   7.407 -1.0480  0.1724  5.1391
  758MOL0     H 2274   3.070   8.200   7.303  0.2359 -1.3719  0.5791
  758MOL0     H 2275   2.841   8.244   7.367 -0.4678 -0.7785 -0.1285
  758MOL0     H 2276   2.894   8.080   7.425 -1.9382 -0.3935  0.8348
  758MOL0     H 2277   2.925   8.166   7.649  0.0556 -0.3296  0.0297
  758MOL0     H 2278   2.879   8.331   7.587 -2.8716  0.0070 -0.0496
  758MOL0     H 2279   2.701   8.200   7.737 -0.4504 -0.8396  0.7216
  758MOL0     H 2280   2.668   8.107   7.601  0.0520 -1.0090  2.5161
  758MOL0     H 2281   2.611   8.257   7.369  0.1288  0.9933 -0.6482
  758MOL0     H 2282   2.375   8.441   7.282  0.4560 -1.1516 -0.8539
  758MOL0     H 2283   2.421   8.601   7.340 -3.5549  0.3946 -4.3055
  758MOL0     H 2284   2.629   8.450   7.182  0.7836  1.2283 -2.0979
  758MOL0     H 2285   2.642   8.599   7.271  1.0198 -1.0620 -1.6473
  758MOL0     H 2286   2.589   8.661   7.040 -0.7715 -1.9339 -2.1510
  758MOL0     H 2287   2.457   8.715   7.132  0.4386  1.1477  2.7860
  758MOL0     H 2288   2.395   8.611   6.922 -0.7106 -0.7716 -1.1371
  758MOL0     H 2289   2.314   8.525   7.055  0.7111  2.0090  1.0930
  758MOL0     H 2290   2.586   8.634   6.829 -1.7803  1.9458 -1.6388
  758MOL0     H 2291   2.728   8.615   6.488 -0.0813  0.6077 -0.3712
  758MOL0     H 2292   2.566   8.700   6.510  0.1597  3.2752  3.6105
  758MOL0     H 2293   2.708   8.721   6.621  1.9247 -1.6925  1.3115
  758MOL0     H 2294   2.886   8.190   6.271  0.4183  2.4596 -0.9747
  758MOL0     H 2295   2.903   8.095   6.059  2.5739  2.9595  2.3550
  758MOL0     H 2296   2.545   7.987   5.821  1.5715  0.3526  1.7695
  758MOL0     H 2297   2.584   8.136   5.726 -0.1878 -1.5384 -2.4386
  758MOL0     H 2298   2.747   8.083   5.610 -1.1943  2.5779  0.6153
  758MOL0     H 2299   2.773   7.930   5.712  0.1981  1.5004  1.1952
  758MOL0     H 2300   2.512   7.938   5.553 -1.8319 -0.8720  4.4486
  758MOL0     H 2301   2.586   7.808   5.630 -1.8379  1.0068  0.9709
  758MOL0     H 2302   2.684   7.920   5.365 -2.9328 -1.0850 -0.4553
  758MOL0     H 2303   2.795   7.837   5.481  0.1139 -0.4706 -0.3685
  758MOL0     H 2304   2.541   7.703   5.434 -1.4358  2.6639 -0.0760
  758MOL0     H 2305   2.712   7.632   5.425 -0.9511 -0.2775 -1.3125
  758MOL0     H 2306   2.720   7.737   5.185 -0.0184 -3.1335 -2.1711
  758MOL0     H 2307   2.641   7.590   5.231 -1.4739  0.3076  2.7554
  758MOL0     H 2308   2.491   7.864   5.191  1.1026 -0.0276  3.2812
  758MOL0     H 2309   2.414   7.711   5.234  0.7793  1.8184  1.9220
  758MOL0     H 2310   2.498   7.612   5.018 -0.0120  0.4785  3.0803
  758MOL0     H 2311   2.598   7.752   4.980  0.0662  0.0605 -0.2387
  758MOL0     H 2312   2.480   8.137   5.991  1.1602 -2.3366  0.8631
  758MOL0     H 2313   2.458   8.220   6.247 -0.4923  1.8613 -1.1330
  758MOL0     H 2314   2.595   8.185   6.608 -0.2701 -0.7243  2.5905
  758MOL0     H 2315   2.499   8.217   6.836 -1.6946  1.8350  0.8254
  758MOL0     H 2316   3.543   8.698   7.342 -0.6141  1.3069  1.7173
  758MOL0     H 2317   3.768   8.781   7.311 -2.9250 -0.8021 -2.6585
  758MOL0     H 2318   4.206   8.829   7.530  2.6916  0.9359  1.1841
  758MOL0     H 2319   4.446   8.831   7.547  2.5813  1.0192 -1.8352
  758MOL0     H 2320   4.667   8.551   7.268  2.7432 -1.7652  0.9662
  758MOL0     H 2321   4.689   8.696   7.179 -0.7235 -4.1483 -0.9678
  758MOL0     H 2322   4.851   8.649   7.434  0.8464  0.6794 -0.1685
  758MOL0     H 2323   4.865   8.778   7.307  0.9081 -1.8436 -1.5292
  758MOL0     H 2324   4.929   8.615   7.131  3.1055 -0.5238  0.0709
  758MOL0     H 2325   4.866   8.490   7.218 -3.1147  0.7738  1.3058
  758MOL0     H 2326   5.102   8.470   7.254  2.4303  0.3024  0.3031
  758MOL0     H 2327   5.053   8.550   7.399 -0.6444  0.8137  0.5654
  758MOL0     H 2328   5.221   8.898   7.232  2.5844 -1.3087 -0.2294
  758MOL0     H 2329   4.469   8.557   7.209  1.2072  0.5268  0.2048
  758MOL0     H 2330   4.219   8.571   7.196 -2.3782  2.6866  0.6004
  759MOL0     O 2331   5.050   2.830   8.004  0.0236  0.4405 -0.4919
  759MOL0     C 2332   5.056   2.920   7.922 -0.2203  0.3907 -0.1614
  759MOL0     O 2333   4.997   2.919   7.789 -0.4368 -0.5627 -0.7300
  759MOL0     C 2334   4.930   2.804   7.766 -0.2216  0.8816 -0.2682
  759MOL0     C 2335   5.003   2.705   7.693  0.2067 -0.1655 -0.7163
  759MOL0     C 2336   4.944   2.587   7.654  0.5370  0.2871 -0.0725
  759MOL0     C 2337   4.810   2.558   7.689 -0.0157 -0.2886 -0.2913
  759MOL0     O 2338   4.762   2.443   7.628  0.9035  0.0545 -0.8184
  759MOL0     C 2339   4.615   2.431   7.605  0.3895 -0.7305 -0.3281
  759MOL0     C 2340   4.581   2.293   7.552  0.0006 -0.2340 -0.2919
  759MOL0     C 2341   4.443   2.294   7.514  0.3723 -0.2794  0.2845
  759MOL0     C 2342   4.404   2.173   7.423 -0.5678 -0.7966 -0.9403
  759MOL0     C 2343   4.258   2.180   7.373  0.0954  0.7441 -1.4864
  759MOL0     C 2344   4.234   2.298   7.279 -0.3247  0.0855 -0.6024
  759MOL0     C 2345   4.335   2.299   7.163 -1.0582  1.1218 -0.7677
  759MOL0     C 2346   4.274   2.373   7.044  0.4163  0.0950  0.2077
  759MOL0     N 2347   4.267   2.515   7.079  0.0869 -0.2895  0.3672
  759MOL0     C 2348   4.380   2.592   7.042  0.7984 -0.1575 -0.3316
  759MOL0     C 2349   4.336   2.708   7.097 -0.8381  0.1298  1.2518
  759MOL0     C 2350   4.416   2.831   7.088  0.5588 -0.0646 -1.5252
  759MOL0     C 2351   4.453   2.875   7.233 -0.3977  0.4604  0.4665
  759MOL0     C 2352   4.341   2.945   7.302 -0.1501 -0.3054  0.1458
  759MOL0     C 2353   4.386   2.949   7.447 -0.5824 -0.0259 -0.2200
  759MOL0     O 2354   4.302   3.044   7.512  0.2706 -0.6288 -0.4475
  759MOL0     C 2355   4.312   3.043   7.648  0.7499 -0.3068 -0.2074
  759MOL0     C 2356   4.220   3.139   7.704 -0.0770 -0.2292 -0.5035
  759MOL0     C 2357   4.233   3.181   7.841 -0.8475 -0.0956 -0.1177
  759MOL0     C 2358   4.123   3.268   7.894 -0.2996 -1.4450  0.3099
  759MOL0     C 2359   4.352   3.133   7.906 -0.2377  0.3885 -0.5793
  759MOL0     C 2360   4.405   3.197   8.031  0.0244  0.4425  0.3333
  759MOL0     O 2361   4.535   3.157   8.066  0.3528 -0.2392  0.4435
  759MOL0     C 2362   4.616   3.209   8.160 -0.3065  0.8254  0.3925
  759MOL0     C 2363   4.579   3.225   8.290  1.0197 -0.4873  0.3267
  759MOL0     C 2364   4.672   3.273   8.379 -0.4660  0.2904 -0.3341
  759MOL0     C 2365   4.802   3.307   8.353  1.2478  1.0303  0.1951
  759MOL0     O 2366   4.877   3.355   8.460  0.0255  0.5106 -0.0200
  759MOL0     C 2367   5.004   3.399   8.419  0.0842  0.4220 -0.5441
  759MOL0     C 2368   5.068   3.476   8.525 -0.4559  0.1027  1.2742
  759MOL0     C 2369   5.207   3.520   8.472  0.4499 -0.2932 -0.0243
  759MOL0     C 2370   5.270   3.619   8.571  0.0187 -1.1380 -0.0019
  759MOL0     C 2371   5.413   3.672   8.522  0.1998 -0.1729 -0.5467
  759MOL0     C 2372   5.504   3.547   8.507 -0.0177 -0.3605  1.3097
  759MOL0     C 2373   5.647   3.586   8.465  0.1489 -0.1402  0.0682
  759MOL0     C 2374   5.752   3.485   8.466  1.1742  0.1764 -0.3646
  759MOL0    Cl 2375   5.712   3.348   8.366  0.3637 -0.1852  0.6445
  759MOL0     C 2376   4.834   3.302   8.219  0.2213  0.2936  0.3953
  759MOL0     C 2377   4.751   3.240   8.127  0.4804 -0.6784  0.3259
  759MOL0     O 2378   4.346   3.295   8.079  0.4211 -0.3336  0.5748
  759MOL0     C 2379   4.430   3.021   7.854  0.0889 -0.0920 -0.2433
  759MOL0     C 2380   4.406   2.983   7.726 -0.0272  0.4583 -0.5138
  759MOL0     N 2381   4.209   2.701   7.154 -0.7304 -0.0450 -0.1463
  759MOL0     N 2382   4.171   2.581   7.140 -0.6329  0.1110  0.2026
  759MOL0     C 2383   4.743   2.658   7.764 -0.6652 -0.4870  0.6162
  759MOL0     C 2384   4.803   2.775   7.803 -0.1083  0.0633 -0.0554
  759MOL0     C 2385   5.104   3.057   7.966  1.1204  0.1680 -0.5669
  759MOL0     C 2386   5.091   3.168   7.887 -0.1569 -0.5906 -0.6145
  759MOL0     C 2387   5.127   3.299   7.938 -0.1613 -0.3940 -0.3264
  759MOL0     C 2388   5.166   3.318   8.071  0.8337  0.3965  0.0334
  759MOL0     O 2389   5.182   3.436   8.140  0.3852  0.3780 -0.2532
  759MOL0     C 2390   5.171   3.565   8.073 -0.9344  0.5690 -0.3816
  759MOL0     C 2391   5.291   3.603   7.986 -0.1182 -0.8421  0.7034
  759MOL0     C 2392   5.429   3.592   8.048 -0.2499 -0.2952  0.3333
  759MOL0     C 2393   5.489   3.455   8.058  0.0220  0.3135  0.4030
  759MOL0     C 2394   5.516   3.411   7.924  0.3888 -0.5033 -0.2286
  759MOL0     C 2395   5.555   3.376   7.814  0.7770 -0.3649 -0.1732
  759MOL0     C 2396   5.177   3.200   8.146  0.5456 -1.2692 -0.8442
  759MOL0     C 2397   5.140   3.070   8.102  0.7937 -0.2756  0.0006
  759MOL0     H 2398   5.101   2.727   7.651 -0.6833  0.4495 -2.5540
  759MOL0     H 2399   5.003   2.520   7.592  1.1535  1.5305 -0.8837
  759MOL0     H 2400   4.561   2.436   7.700 -0.5478  2.1381 -0.9336
  759MOL0     H 2401   4.575   2.510   7.541  0.8367 -1.9448 -2.2010
  759MOL0     H 2402   4.643   2.267   7.467  2.2359 -0.6985  1.3890
  759MOL0     H 2403   4.593   2.226   7.638  3.9580 -1.0566 -1.2927
  759MOL0     H 2404   4.388   2.294   7.608 -2.8091  3.1676 -1.3513
  759MOL0     H 2405   4.417   2.384   7.459  1.1965 -2.6862 -4.6272
  759MOL0     H 2406   4.467   2.186   7.334  0.7515  0.4715  0.1355
  759MOL0     H 2407   4.428   2.079   7.474  0.3820 -0.4103 -0.6470
  759MOL0     H 2408   4.240   2.083   7.328  1.7766 -2.0737  3.1696
  759MOL0     H 2409   4.191   2.186   7.459  0.6587 -3.0932 -0.6154
  759MOL0     H 2410   4.127   2.310   7.259 -1.3399 -2.2209  2.7915
  759MOL0     H 2411   4.252   2.393   7.329  1.4102  0.3836 -1.7113
  759MOL0     H 2412   4.428   2.351   7.189  0.9026 -2.6095  0.5073
  759MOL0     H 2413   4.353   2.199   7.122  0.0536  0.4085  1.3139
  759MOL0     H 2414   4.174   2.339   7.018  1.2084 -1.8794 -0.3905
  759MOL0     H 2415   4.327   2.363   6.949 -1.9538  1.8160 -1.4132
  759MOL0     H 2416   4.467   2.574   6.981  0.2364 -2.6370 -0.5151
  759MOL0     H 2417   4.511   2.822   7.035  2.3562 -0.9294  1.5717
  759MOL0     H 2418   4.344   2.898   7.041  2.1968  1.8960 -1.3633
  759MOL0     H 2419   4.550   2.925   7.236  0.8327 -1.8402  1.2236
  759MOL0     H 2420   4.472   2.791   7.300 -0.4741  0.6177  0.6879
  759MOL0     H 2421   4.250   2.883   7.305  0.0824 -0.6912 -0.6752
  759MOL0     H 2422   4.329   3.044   7.258  1.6481  1.2166  2.7727
  759MOL0     H 2423   4.484   2.997   7.458 -0.8095  0.3040  0.3739
  759MOL0     H 2424   4.399   2.848   7.485 -0.9655 -0.8768 -2.2313
  759MOL0     H 2425   4.133   3.166   7.645 -0.0949 -1.0338 -0.8575
  759MOL0     H 2426   4.159   3.371   7.884 -1.2649 -1.3067 -2.6882
  759MOL0     H 2427   4.034   3.252   7.832  1.7968 -0.5900 -3.2661
  759MOL0     H 2428   4.098   3.248   7.998 -1.1179 -0.4287  0.3216
  759MOL0     H 2429   4.482   3.191   8.324  0.7582  0.5564  0.6604
  759MOL0     H 2430   4.636   3.283   8.481 -0.4291  3.5630 -0.5473
  759MOL0     H 2431   5.055   3.304   8.399  2.6222  1.8579 -1.4152
  759MOL0     H 2432   5.003   3.455   8.325  1.8173 -0.0687 -0.8983
  759MOL0     H 2433   5.015   3.571   8.536 -0.8223  0.2570 -1.2379
  759MOL0     H 2434   5.072   3.411   8.613 -2.2053 -1.1046  0.5134
  759MOL0     H 2435   5.182   3.567   8.377 -1.0235 -0.8174  0.0742
  759MOL0     H 2436   5.269   3.433   8.450 -0.5065 -0.6412 -1.5298
  759MOL0     H 2437   5.214   3.710   8.593  0.5341 -0.9828  0.7207
  759MOL0     H 2438   5.290   3.567   8.665  0.0341 -4.2895 -1.5955
  759MOL0     H 2439   5.448   3.737   8.603 -0.9808 -0.2130  0.0057
  759MOL0     H 2440   5.395   3.719   8.424  2.2484 -0.6130 -1.1902
  759MOL0     H 2441   5.512   3.499   8.605 -0.5883 -1.4451  0.8418
  759MOL0     H 2442   5.463   3.477   8.433 -1.3913  1.7172 -0.0063
  759MOL0     H 2443   5.676   3.669   8.531 -0.5393  1.9762 -2.1244
  759MOL0     H 2444   5.658   3.624   8.363  2.1487  0.4688  0.4558
  759MOL0     H 2445   5.758   3.445   8.567 -0.3033 -0.1704 -0.3931
  759MOL0     H 2446   5.848   3.527   8.433  0.7195  3.3485  1.8889
  759MOL0     H 2447   4.925   3.347   8.183  0.4037 -2.0261 -2.4143
  759MOL0     H 2448   4.783   3.234   8.023 -2.8120 -1.4578 -0.7805
  759MOL0     H 2449   4.517   2.986   7.909 -0.0015  1.9424  1.2876
  759MOL0     H 2450   4.480   2.915   7.688  0.4266  1.2500 -1.0663
  759MOL0     H 2451   4.642   2.639   7.800 -0.6789  2.4449  2.4785
  759MOL0     H 2452   4.749   2.844   7.868 -0.2817 -1.4460  1.4972
  759MOL0     H 2453   5.054   3.161   7.785  2.9531  0.9856 -1.9794
  759MOL0     H 2454   5.103   3.381   7.872 -3.0626 -0.0310  1.0265
  759MOL0     H 2455   5.077   3.571   8.018 -1.9550 -0.6719  1.1396
  759MOL0     H 2456   5.170   3.640   8.153  1.1045  1.6065 -1.2420
  759MOL0     H 2457   5.276   3.706   7.952  0.4865  0.0156  2.8926
  759MOL0     H 2458   5.288   3.539   7.898 -0.6298 -0.1112  0.1785
  759MOL0     H 2459   5.421   3.628   8.151  1.7305  1.3199 -0.0343
  759MOL0     H 2460   5.486   3.658   7.983 -2.1804  2.3664  1.1907
  759MOL0     H 2461   5.420   3.386   8.107  0.1892  0.0971  0.3309
  759MOL0     H 2462   5.579   3.454   8.119 -0.7206  0.5578  1.5290
  759MOL0     H 2463   5.594   3.334   7.723 -0.1949  0.0818 -0.8197
  759MOL0     H 2464   5.201   3.208   8.251 -4.6795  4.2644  0.4824
  759MOL0     H 2465   5.135   3.004   8.188 -4.4037  0.6844  0.7564
  760MOL0     O 2466   2.671   4.471   0.330 -0.2750  0.0662 -0.2158
  760MOL0     C 2467   2.788   4.429   0.361  0.4044  1.3215 -0.1819
  760MOL0     O 2468   2.856   4.327   0.285  0.8001  0.0794 -0.0356
  760MOL0     C 2469   2.816   4.284   0.161 -0.7048  0.6342 -1.3754
  760MOL0     C 2470   2.860   4.158   0.127 -1.0225 -0.2002 -0.8349
  760MOL0     C 2471   2.815   4.093   0.015 -0.0170  0.2491  1.0218
  760MOL0     C 2472   2.729   4.156  -0.080 -0.2752 -0.7252 -0.8031
  760MOL0     O 2473   2.671   4.100  -0.189  0.4300  0.1606 -0.0458
  760MOL0     C 2474   2.760   4.014  -0.264  0.3908 -0.4429 -0.7439
  760MOL0     C 2475   2.723   3.993  -0.414 -0.0414 -0.0243 -0.1914
  760MOL0     C 2476   2.605   3.893  -0.439 -0.2475  0.1552 -0.0342
  760MOL0     C 2477   2.472   3.951  -0.411  0.6771  0.3427 -0.4164
  760MOL0     C 2478   2.348   3.862  -0.455 -0.5185 -0.6026 -0.7483
  760MOL0     C 2479   2.213   3.924  -0.431  0.0415 -0.3826  0.2369
  760MOL0     C 2480   2.182   4.070  -0.484  0.8964  1.0572 -0.2758
  760MOL0     C 2481   2.153   4.064  -0.631  0.4313 -0.1984 -0.0290
  760MOL0     N 2482   2.167   4.200  -0.671 -0.2889 -0.8657  0.5020
  760MOL0     C 2483   2.060   4.288  -0.714 -0.7524  0.0380 -0.2966
  760MOL0     C 2484   2.126   4.399  -0.730 -0.2292 -0.0814 -0.9365
  760MOL0     C 2485   2.071   4.534  -0.782 -0.0684  0.4285 -0.2826
  760MOL0     C 2486   2.057   4.539  -0.931 -0.6175 -0.1593  0.7062
  760MOL0     C 2487   2.036   4.687  -0.968  0.6071 -0.7988  0.2351
  760MOL0     C 2488   1.987   4.692  -1.109 -0.1562  0.3278 -0.5749
  760MOL0     O 2489   1.912   4.812  -1.125 -0.5153 -0.6768  0.1826
  760MOL0     C 2490   1.845   4.847  -1.235  0.0576 -1.1356 -0.3849
  760MOL0     C 2491   1.798   4.764  -1.338  0.2301  0.3281 -0.2912
  760MOL0     C 2492   1.725   4.811  -1.446  0.6778  0.3849 -0.3026
  760MOL0     C 2493   1.650   4.704  -1.529  0.3259 -0.6503  0.5823
  760MOL0     C 2494   1.722   4.954  -1.468  0.7530  0.1469 -0.5186
  760MOL0     C 2495   1.661   5.020  -1.587 -0.0300 -0.4715  0.7476
  760MOL0     O 2496   1.676   5.153  -1.604 -0.7671  0.7273  0.5307
  760MOL0     C 2497   1.621   5.220  -1.703  0.0273 -0.0608  0.2599
  760MOL0     C 2498   1.695   5.228  -1.819  0.7011  0.5356 -0.9184
  760MOL0     C 2499   1.660   5.309  -1.922  0.3429 -0.1307  1.4945
  760MOL0     C 2500   1.539   5.375  -1.921  1.1283  0.0335 -0.4667
  760MOL0     O 2501   1.503   5.433  -2.041 -0.7282  0.1667 -0.1344
  760MOL0     C 2502   1.377   5.483  -2.069 -0.6051 -0.4704 -0.2267
  760MOL0     C 2503   1.321   5.403  -2.187 -0.0309 -0.5258  0.4962
  760MOL0     C 2504   1.177   5.435  -2.205  0.3921  0.0226  0.1909
  760MOL0     C 2505   1.113   5.360  -2.324  0.0020  1.0099  0.8889
  760MOL0     C 2506   0.961   5.378  -2.336 -0.2208 -1.2932 -0.0160
  760MOL0     C 2507   0.911   5.317  -2.466  0.0805 -0.3166 -0.4437
  760MOL0     C 2508   0.895   5.432  -2.570  0.9817  0.7619  0.1519
  760MOL0     C 2509   1.020   5.514  -2.608 -0.5258 -0.2636  0.1280
  760MOL0    Cl 2510   0.987   5.627  -2.738 -0.5503  0.0041 -0.0239
  760MOL0     C 2511   1.454   5.357  -1.803 -0.1535 -1.1865 -0.0584
  760MOL0     C 2512   1.501   5.288  -1.694  0.0672 -0.2324  1.0686
  760MOL0     O 2513   1.611   4.937  -1.665  0.1907  0.1744  0.9287
  760MOL0     C 2514   1.789   5.038  -1.377  0.1439  0.5372 -0.1558
  760MOL0     C 2515   1.851   4.985  -1.261  0.3486 -0.3287 -0.1597
  760MOL0     N 2516   2.267   4.386  -0.702 -0.3601  0.1952  0.0087
  760MOL0     N 2517   2.294   4.263  -0.670  0.4333 -0.4443 -0.2439
  760MOL0     C 2518   2.690   4.289  -0.051  0.0028  0.2074  0.7243
  760MOL0     C 2519   2.744   4.355   0.067 -0.8275 -0.5255  0.7069
  760MOL0     C 2520   2.860   4.492   0.469  0.4194  0.4485 -0.2870
  760MOL0     C 2521   2.996   4.458   0.499  0.0518  0.7681  0.2587
  760MOL0     C 2522   3.060   4.507   0.615  0.0290  0.6552  0.0133
  760MOL0     C 2523   3.002   4.605   0.696  0.8838  0.4764 -0.7612
  760MOL0     O 2524   3.074   4.649   0.802 -0.3110  0.1648 -0.1246
  760MOL0     C 2525   3.027   4.764   0.873 -0.6394 -0.2420 -0.4232
  760MOL0     C 2526   3.144   4.802   0.963  0.0855  1.2198 -0.1767
  760MOL0     C 2527   3.175   4.698   1.076 -0.0509  0.4228  0.5274
  760MOL0     C 2528   3.281   4.740   1.182  0.1876  1.0164  0.3928
  760MOL0     C 2529   3.417   4.727   1.118  0.7886  0.3648 -0.3486
  760MOL0     C 2530   3.529   4.710   1.080 -0.7013 -1.1969 -0.2104
  760MOL0     C 2531   2.867   4.646   0.664 -0.3099  0.1655  0.6038
  760MOL0     C 2532   2.800   4.584   0.565  0.9560 -0.1034  0.4114
  760MOL0     H 2533   2.908   4.108   0.210 -1.4098  1.0103  0.1418
  760MOL0     H 2534   2.841   3.989  -0.002 -1.1392  0.4023 -2.4011
  760MOL0     H 2535   2.861   4.057  -0.256 -0.1440  0.7400 -0.0320
  760MOL0     H 2536   2.762   3.917  -0.214 -2.4561  0.1119  0.6619
  760MOL0     H 2537   2.700   4.094  -0.450 -0.4455  0.6464  1.8162
  760MOL0     H 2538   2.815   3.959  -0.463 -0.7014 -0.5089 -1.1013
  760MOL0     H 2539   2.596   3.859  -0.543 -0.0382 -1.0544  0.3323
  760MOL0     H 2540   2.626   3.801  -0.384 -0.1553  0.2358  0.0672
  760MOL0     H 2541   2.473   3.967  -0.303  3.4342 -1.1558 -0.1426
  760MOL0     H 2542   2.464   4.048  -0.462 -2.8025 -0.2160 -1.1834
  760MOL0     H 2543   2.351   3.846  -0.563  1.3513  1.3029 -1.0567
  760MOL0     H 2544   2.347   3.760  -0.415 -1.3539 -0.3782 -0.1637
  760MOL0     H 2545   2.131   3.861  -0.469 -0.3232 -0.0712  0.4959
  760MOL0     H 2546   2.197   3.929  -0.323 -1.8814  0.1055 -0.0250
  760MOL0     H 2547   2.102   4.106  -0.417 -0.6074  0.1781 -1.5480
  760MOL0     H 2548   2.269   4.133  -0.465  0.0696  1.6819  1.8386
  760MOL0     H 2549   2.053   4.026  -0.651  0.9289 -1.2516 -0.6201
  760MOL0     H 2550   2.234   4.011  -0.683  1.0437 -2.4281  2.8712
  760MOL0     H 2551   1.957   4.267  -0.739 -1.1331  1.3749  0.0698
  760MOL0     H 2552   1.975   4.549  -0.731  0.2430 -0.2520  0.5266
  760MOL0     H 2553   2.152   4.596  -0.745  0.0422  0.1313 -0.0207
  760MOL0     H 2554   1.982   4.468  -0.968 -1.6625  0.5820  1.3485
  760MOL0     H 2555   2.150   4.508  -0.981 -0.7362 -1.9586  1.5077
  760MOL0     H 2556   2.122   4.749  -0.940 -0.8722  1.4526  0.0249
  760MOL0     H 2557   1.953   4.718  -0.904 -2.0496  1.1013 -3.7403
  760MOL0     H 2558   1.933   4.602  -1.136 -2.4922  1.6072 -0.3788
  760MOL0     H 2559   2.075   4.709  -1.173  0.5896  1.5103  0.7041
  760MOL0     H 2560   1.802   4.656  -1.330  0.4192  0.0103 -3.3970
  760MOL0     H 2561   1.677   4.695  -1.635 -3.4239  5.7388 -1.4966
  760MOL0     H 2562   1.648   4.605  -1.483  1.4565 -1.6064 -1.2991
  760MOL0     H 2563   1.547   4.740  -1.523 -0.4472 -2.3101 -1.4147
  760MOL0     H 2564   1.778   5.157  -1.822  0.0028 -0.2892 -1.4511
  760MOL0     H 2565   1.729   5.313  -2.006 -0.7316 -1.4467  0.5060
  760MOL0     H 2566   1.303   5.475  -1.989  0.2960 -0.2539  0.6558
  760MOL0     H 2567   1.377   5.590  -2.093 -0.8079 -0.9438 -2.5387
  760MOL0     H 2568   1.380   5.433  -2.274  1.1380  1.7310  1.9548
  760MOL0     H 2569   1.336   5.297  -2.163  1.3480 -0.2230  1.0695
  760MOL0     H 2570   1.160   5.541  -2.224 -1.5875 -0.2751  0.1551
  760MOL0     H 2571   1.132   5.403  -2.111 -0.3764  0.7882  0.0905
  760MOL0     H 2572   1.156   5.385  -2.421 -0.2847 -0.5973  0.3136
  760MOL0     H 2573   1.131   5.252  -2.319  1.6757  1.2138 -0.0785
  760MOL0     H 2574   0.945   5.486  -2.332  1.0043 -1.1004  0.1478
  760MOL0     H 2575   0.912   5.326  -2.253 -1.3804 -0.4693 -0.1662
  760MOL0     H 2576   0.983   5.239  -2.492  0.9324  0.7750 -1.5016
  760MOL0     H 2577   0.817   5.262  -2.452  1.1067 -1.4716  2.9615
  760MOL0     H 2578   0.812   5.498  -2.542  0.6617 -0.3021  1.8040
  760MOL0     H 2579   0.850   5.387  -2.659 -1.4003 -1.4322  2.3032
  760MOL0     H 2580   1.109   5.455  -2.634 -0.0408  1.1354 -1.6066
  760MOL0     H 2581   1.049   5.584  -2.529 -1.6324  0.3856 -0.0176
  760MOL0     H 2582   1.365   5.414  -1.779 -0.1133 -1.0147 -0.3080
  760MOL0     H 2583   1.452   5.292  -1.597 -0.1825  1.5635  0.8958
  760MOL0     H 2584   1.776   5.145  -1.382 -2.9485  0.5166  3.3246
  760MOL0     H 2585   1.903   5.050  -1.191 -0.9246  0.1137  0.4096
  760MOL0     H 2586   2.611   4.330  -0.114 -1.9076 -2.4873  1.1858
  760MOL0     H 2587   2.711   4.457   0.084 -1.1595 -0.9890  3.1107
  760MOL0     H 2588   3.055   4.394   0.434  0.2806  1.4647 -0.2248
  760MOL0     H 2589   3.157   4.469   0.645 -0.1683  0.7321  0.7663
  760MOL0     H 2590   3.013   4.856   0.815  1.9942  2.9253  3.3853
  760MOL0     H 2591   2.940   4.727   0.929  0.1550  0.5623  1.4089
  760MOL0     H 2592   3.136   4.899   1.013 -0.0988  1.1500 -0.0685
  760MOL0     H 2593   3.221   4.803   0.885  1.6655 -2.1454  1.1582
  760MOL0     H 2594   3.200   4.602   1.029  3.3698  1.1143  0.7435
  760MOL0     H 2595   3.078   4.692   1.127 -1.1214  3.9849 -0.7609
  760MOL0     H 2596   3.263   4.660   1.254 -0.8363  2.5060  1.8450
  760MOL0     H 2597   3.264   4.839   1.224 -1.8791  0.8564  0.0411
  760MOL0     H 2598   3.607   4.694   1.008 -1.8578 -3.0420 -1.1167
  760MOL0     H 2599   2.811   4.716   0.725  2.7749  2.4796  1.0311
  760MOL0     H 2600   2.696   4.616   0.559  0.9696  1.4791  4.9314
  761MOL0     O 2601   6.045   3.997   6.083 -0.6653 -0.1977  0.0749
  761MOL0     C 2602   6.030   3.886   6.125  0.3282 -0.7505  0.7249
  761MOL0     O 2603   5.987   3.778   6.047  0.0117  0.6925  0.0280
  761MOL0     C 2604   5.954   3.814   5.912 -0.7902 -0.0967  0.2997
  761MOL0     C 2605   5.830   3.875   5.883 -0.7104  0.2272  0.4532
  761MOL0     C 2606   5.783   3.895   5.759  0.1093 -0.2264 -0.1819
  761MOL0     C 2607   5.867   3.866   5.652 -0.3009  0.8381 -0.0199
  761MOL0     O 2608   5.826   3.887   5.517 -0.5592 -0.1017  0.4926
  761MOL0     C 2609   5.817   4.029   5.487 -0.1312 -0.1125 -0.7542
  761MOL0     C 2610   5.729   4.045   5.357 -0.4269 -0.3384  0.4120
  761MOL0     C 2611   5.797   3.980   5.240 -0.4975  0.1036 -0.4010
  761MOL0     C 2612   5.693   3.942   5.130  0.6833  0.8998  0.4984
  761MOL0     C 2613   5.757   3.853   5.023 -0.2170 -0.2128 -0.0415
  761MOL0     C 2614   5.676   3.857   4.890 -0.9704 -0.6034 -0.4974
  761MOL0     C 2615   5.744   3.783   4.772 -1.0192 -0.4051 -0.7233
  761MOL0     C 2616   5.656   3.808   4.649 -0.2100 -0.2485  0.4507
  761MOL0     N 2617   5.711   3.773   4.509  0.0147  0.7720 -0.9609
  761MOL0     C 2618   5.830   3.715   4.485 -0.4271 -0.1135  0.9491
  761MOL0     C 2619   5.847   3.699   4.351  0.3514 -1.1613  0.4749
  761MOL0     C 2620   5.958   3.620   4.288 -0.2008 -0.6862 -0.3950
  761MOL0     C 2621   5.999   3.693   4.156 -0.2853 -0.7087  1.4563
  761MOL0     C 2622   6.061   3.836   4.184  0.4481  0.0555 -0.0349
  761MOL0     C 2623   6.205   3.826   4.240  0.1024  0.1189  0.3783
  761MOL0     O 2624   6.215   3.823   4.382 -0.8370  0.2007  0.6354
  761MOL0     C 2625   6.342   3.804   4.432  0.9878  0.0343 -0.4604
  761MOL0     C 2626   6.466   3.818   4.359  0.2633 -0.2575  0.4101
  761MOL0     C 2627   6.591   3.830   4.423 -0.1816 -0.5366 -0.7067
  761MOL0     C 2628   6.716   3.829   4.340  0.9285  0.9085 -0.6535
  761MOL0     C 2629   6.601   3.834   4.565 -0.6005  0.1810 -0.8654
  761MOL0     C 2630   6.731   3.844   4.648  0.2775 -0.0943 -0.2045
  761MOL0     O 2631   6.852   3.822   4.595  0.0633  0.4159 -0.3483
  761MOL0     C 2632   6.945   3.843   4.690 -0.1670 -0.6558  0.3117
  761MOL0     C 2633   7.005   3.973   4.716 -0.3400  0.0188 -0.1697
  761MOL0     C 2634   7.110   3.996   4.804  0.7470 -0.5945 -0.1628
  761MOL0     C 2635   7.177   3.891   4.862 -1.0131 -0.6728  0.5155
  761MOL0     O 2636   7.286   3.902   4.948  0.1153 -0.9158 -0.3349
  761MOL0     C 2637   7.361   4.025   4.940 -0.0752  0.2818  0.1561
  761MOL0     C 2638   7.474   4.020   5.038  0.1570  0.6396  0.4490
  761MOL0     C 2639   7.596   3.944   4.993  1.2706  0.1973  0.4682
  761MOL0     C 2640   7.718   3.978   5.073 -0.1569  0.1048  0.7002
  761MOL0     C 2641   7.825   3.869   5.060 -1.2267 -0.0082 -0.6915
  761MOL0     C 2642   7.811   3.776   5.176  0.0783 -1.2128 -0.5230
  761MOL0     C 2643   7.898   3.648   5.149 -0.1164 -0.1397 -0.0377
  761MOL0     C 2644   7.853   3.523   5.226 -0.1277  0.7341 -0.1860
  761MOL0    Cl 2645   7.794   3.585   5.383 -0.0219  0.4550  0.6511
  761MOL0     C 2646   7.129   3.763   4.840  0.3445  0.2747 -0.4344
  761MOL0     C 2647   7.003   3.741   4.758 -0.7323 -1.1804 -0.8508
  761MOL0     O 2648   6.698   3.866   4.763 -0.4647 -0.9849  0.5363
  761MOL0     C 2649   6.470   3.833   4.639 -0.9034 -0.5053 -0.0609
  761MOL0     C 2650   6.348   3.826   4.572 -0.1809 -0.3084  0.2588
  761MOL0     N 2651   5.727   3.750   4.301 -0.3764  0.3032 -0.0648
  761MOL0     N 2652   5.651   3.797   4.391 -0.5470  0.1080 -0.2741
  761MOL0     C 2653   5.996   3.811   5.681 -0.1979 -0.4222 -0.1336
  761MOL0     C 2654   6.041   3.789   5.807  0.1451 -1.2874 -0.2330
  761MOL0     C 2655   6.052   3.848   6.265 -0.4388 -0.5969  0.4978
  761MOL0     C 2656   6.127   3.932   6.346 -0.7190  0.1245 -1.2262
  761MOL0     C 2657   6.166   3.901   6.479 -0.4359 -0.1409  0.1606
  761MOL0     C 2658   6.117   3.782   6.529  1.8231 -0.0532 -1.1816
  761MOL0     O 2659   6.147   3.742   6.659 -0.1162  0.4929  0.4206
  761MOL0     C 2660   6.110   3.824   6.769 -0.6408  0.0180  0.3753
  761MOL0     C 2661   5.983   3.771   6.828 -0.0688  0.1053  0.2008
  761MOL0     C 2662   5.997   3.629   6.886  0.3353 -0.2504 -0.7250
  761MOL0     C 2663   5.859   3.589   6.943 -0.7964  0.7083  1.1248
  761MOL0     C 2664   5.862   3.620   7.083  0.0609  0.1164  0.2629
  761MOL0     C 2665   5.845   3.641   7.200 -0.9866 -0.7413  0.1770
  761MOL0     C 2666   6.031   3.698   6.456  0.4035  0.8971  0.5607
  761MOL0     C 2667   6.004   3.730   6.322 -0.6695  0.0914 -0.7134
  761MOL0     H 2668   5.772   3.909   5.968  1.0731  1.4695  1.2375
  761MOL0     H 2669   5.682   3.934   5.747  1.0543  2.1791 -0.9998
  761MOL0     H 2670   5.773   4.097   5.561 -3.2513  0.1038 -2.6080
  761MOL0     H 2671   5.921   4.055   5.469 -0.3172  1.2273 -0.0111
  761MOL0     H 2672   5.636   3.994   5.383  0.4405 -2.5631 -0.6351
  761MOL0     H 2673   5.727   4.153   5.336  2.4137 -0.4112 -0.7055
  761MOL0     H 2674   5.879   4.041   5.201 -1.6437  2.0525  0.0901
  761MOL0     H 2675   5.841   3.882   5.259  1.6361  0.9815 -0.5350
  761MOL0     H 2676   5.610   3.901   5.188  0.9414  0.2454  0.4096
  761MOL0     H 2677   5.658   4.036   5.086 -1.9806 -1.2608 -2.4309
  761MOL0     H 2678   5.865   3.872   5.022  0.3704 -2.0317  4.4365
  761MOL0     H 2679   5.757   3.751   5.063 -1.1291  0.9991  3.4269
  761MOL0     H 2680   5.571   3.826   4.900 -0.9461 -0.6365 -0.3463
  761MOL0     H 2681   5.671   3.964   4.868  1.2628 -0.7042 -1.7625
  761MOL0     H 2682   5.849   3.804   4.751 -1.0518  1.9695  1.0766
  761MOL0     H 2683   5.732   3.682   4.811  0.3292  0.2859  1.6575
  761MOL0     H 2684   5.629   3.913   4.653 -1.5404 -0.5446 -0.3207
  761MOL0     H 2685   5.559   3.757   4.653 -0.4809 -0.1041 -2.4998
  761MOL0     H 2686   5.890   3.684   4.570 -3.1310 -1.8186  2.3862
  761MOL0     H 2687   6.038   3.614   4.363 -0.7556  1.9572  0.5385
  761MOL0     H 2688   5.918   3.520   4.273  1.2999 -1.4705  0.5315
  761MOL0     H 2689   5.916   3.720   4.091  0.1863  0.7859  1.4394
  761MOL0     H 2690   6.069   3.634   4.096 -1.5955 -0.6492 -0.1734
  761MOL0     H 2691   5.995   3.896   4.247  0.1767  0.3136 -0.5577
  761MOL0     H 2692   6.063   3.894   4.091 -1.4629 -0.9344 -0.7545
  761MOL0     H 2693   6.249   3.922   4.210 -3.4622  2.4456  1.9129
  761MOL0     H 2694   6.267   3.747   4.199  1.1583 -0.9552  3.7162
  761MOL0     H 2695   6.461   3.815   4.251  1.7545 -0.7034  0.3278
  761MOL0     H 2696   6.763   3.732   4.359 -0.2432  0.0230 -2.0639
  761MOL0     H 2697   6.689   3.839   4.235 -2.0793  0.8987  0.0212
  761MOL0     H 2698   6.788   3.908   4.364 -0.2220  1.4407  1.2797
  761MOL0     H 2699   6.962   4.061   4.669 -5.1530 -0.6435  2.3555
  761MOL0     H 2700   7.137   4.101   4.805  1.6689 -0.8315 -0.0504
  761MOL0     H 2701   7.391   4.044   4.836 -4.4971  1.5465 -1.1296
  761MOL0     H 2702   7.286   4.105   4.954  2.5302  3.0217 -0.4705
  761MOL0     H 2703   7.508   4.121   5.064  0.0496  0.7912 -0.0022
  761MOL0     H 2704   7.431   3.986   5.133  0.6498 -2.8840 -0.4401
  761MOL0     H 2705   7.615   3.960   4.886  2.6742  1.3767  0.8627
  761MOL0     H 2706   7.569   3.839   5.004 -0.0970  0.0191 -3.2597
  761MOL0     H 2707   7.761   4.063   5.020 -2.0978  0.5052 -0.2982
  761MOL0     H 2708   7.707   4.005   5.179 -3.0544  0.0164  0.5082
  761MOL0     H 2709   7.927   3.905   5.075 -1.3183 -0.8710  3.0927
  761MOL0     H 2710   7.802   3.810   4.971 -1.1952  2.7164 -2.6199
  761MOL0     H 2711   7.826   3.825   5.273  1.0425  0.8339 -1.6359
  761MOL0     H 2712   7.705   3.755   5.167 -0.4604  1.4160 -1.2991
  761MOL0     H 2713   8.000   3.666   5.186  0.3987 -2.2390 -0.2822
  761MOL0     H 2714   7.915   3.620   5.045  1.1680  2.0666 -0.4791
  761MOL0     H 2715   7.931   3.447   5.235  1.6461  2.4274 -0.6900
  761MOL0     H 2716   7.771   3.481   5.167 -2.0615  2.2118  1.3219
  761MOL0     H 2717   7.197   3.686   4.876  0.4848  0.6472  0.1126
  761MOL0     H 2718   6.959   3.643   4.742 -4.5578  0.2872 -0.2845
  761MOL0     H 2719   6.454   3.850   4.745  1.1542  3.4396 -0.1867
  761MOL0     H 2720   6.256   3.844   4.627  1.0261 -0.9911  2.6078
  761MOL0     H 2721   6.062   3.782   5.600  1.0908  1.2989  0.2232
  761MOL0     H 2722   6.140   3.749   5.823 -1.2056 -5.2471 -0.6253
  761MOL0     H 2723   6.172   4.020   6.303  3.6644 -1.2226  0.0398
  761MOL0     H 2724   6.251   3.942   6.533 -0.4002 -0.3593  0.2696
  761MOL0     H 2725   6.190   3.828   6.844  0.6235  0.4039 -0.9446
  761MOL0     H 2726   6.087   3.922   6.727 -2.2722 -0.4980  0.0155
  761MOL0     H 2727   5.918   3.752   6.742 -1.1209 -0.0182  0.9993
  761MOL0     H 2728   5.941   3.849   6.893  0.0300  2.2051 -2.1235
  761MOL0     H 2729   6.072   3.633   6.966 -0.6986 -1.0575  0.3051
  761MOL0     H 2730   6.037   3.560   6.811 -0.1112  0.4910 -1.6638
  761MOL0     H 2731   5.839   3.482   6.932  1.4577  0.1822  1.6595
  761MOL0     H 2732   5.782   3.643   6.886  2.7217  0.6305 -4.5548
  761MOL0     H 2733   5.833   3.667   7.303  1.2340 -0.3987  0.4074
  761MOL0     H 2734   6.001   3.609   6.511  2.5575 -1.8334 -2.2713
  761MOL0     H 2735   5.947   3.661   6.260 -0.9538  0.0516 -0.4163
  762MOL0     O 2736   5.563   2.866   5.783  0.3193 -0.1547 -0.7248
  762MOL0     C 2737   5.655   2.783   5.778  0.2991  0.2044 -0.0967
  762MOL0     O 2738   5.781   2.793   5.830  0.1915 -1.0062  0.5363
  762MOL0     C 2739   5.818   2.918   5.876 -0.3171 -0.6481  0.3331
  762MOL0     C 2740   5.874   2.946   6.001  0.4405  0.2438 -0.2268
  762MOL0     C 2741   5.904   3.077   6.038 -0.1043  0.2560  0.0333
  762MOL0     C 2742   5.900   3.181   5.953  0.2562  0.1582 -0.2431
  762MOL0     O 2743   5.954   3.299   5.992 -0.4442 -0.5454  0.2403
  762MOL0     C 2744   6.012   3.377   5.888  0.3222  0.1786 -0.0403
  762MOL0     C 2745   6.134   3.454   5.939  0.2902 -0.0714  0.7686
  762MOL0     C 2746   6.257   3.372   5.957  0.3058 -0.0230  0.5007
  762MOL0     C 2747   6.382   3.470   5.973  0.4392  0.2259  0.5761
  762MOL0     C 2748   6.490   3.383   6.019 -0.5748 -0.5192  0.3302
  762MOL0     C 2749   6.610   3.479   6.043 -0.9103 -0.5777  0.4343
  762MOL0     C 2750   6.700   3.430   6.150 -0.8109 -0.2186  0.5062
  762MOL0     C 2751   6.811   3.526   6.192  0.1557 -0.8250 -0.0024
  762MOL0     N 2752   6.902   3.459   6.290  0.8109 -0.2704  0.1934
  762MOL0     C 2753   6.876   3.443   6.425 -0.6862 -0.2269 -0.3212
  762MOL0     C 2754   6.968   3.351   6.474 -0.7719  0.3671 -0.2172
  762MOL0     C 2755   6.984   3.307   6.615  0.0478  0.6059 -0.0970
  762MOL0     C 2756   7.128   3.304   6.665 -0.7839 -0.5036 -0.6727
  762MOL0     C 2757   7.129   3.280   6.815 -0.4283  0.2536  0.1052
  762MOL0     C 2758   7.130   3.126   6.847 -0.1676 -0.3288 -0.3424
  762MOL0     O 2759   7.150   3.113   6.992 -0.6796 -0.3967  0.0928
  762MOL0     C 2760   7.280   3.131   7.040  0.1582 -0.1953  0.0013
  762MOL0     C 2761   7.393   3.165   6.959 -0.0155  0.9318 -0.1329
  762MOL0     C 2762   7.512   3.211   7.017 -0.0491 -0.8299  0.5412
  762MOL0     C 2763   7.617   3.278   6.930  0.5225 -0.0160  0.7437
  762MOL0     C 2764   7.530   3.197   7.156  0.9409 -0.2459 -0.0516
  762MOL0     C 2765   7.660   3.208   7.231 -0.1859 -0.6578 -0.2950
  762MOL0     O 2766   7.651   3.185   7.367 -0.4157 -0.5922 -0.5458
  762MOL0     C 2767   7.761   3.228   7.438  0.0594  0.2604 -0.1273
  762MOL0     C 2768   7.875   3.148   7.465 -0.4477 -0.7026 -0.3567
  762MOL0     C 2769   7.982   3.189   7.548 -0.3183 -0.3332  0.1945
  762MOL0     C 2770   7.989   3.322   7.587  0.0186 -0.6774 -0.6021
  762MOL0     O 2771   8.085   3.383   7.664  0.1366  0.4769 -0.4938
  762MOL0     C 2772   8.189   3.308   7.727 -0.2830  1.2173 -0.0906
  762MOL0     C 2773   8.150   3.231   7.853  0.3946  0.1624  0.5002
  762MOL0     C 2774   8.113   3.339   7.963  0.4318 -0.5837  0.9244
  762MOL0     C 2775   8.125   3.298   8.112 -0.1317 -0.2775 -0.7135
  762MOL0     C 2776   8.081   3.414   8.206  0.1270  1.1406 -0.7466
  762MOL0     C 2777   8.065   3.359   8.350  0.7285 -0.4290 -0.1964
  762MOL0     C 2778   8.014   3.466   8.453 -0.9976  0.2244  0.3307
  762MOL0     C 2779   7.856   3.480   8.458 -0.1918 -0.5267  0.1730
  762MOL0    Cl 2780   7.794   3.321   8.505  0.1748 -0.0915  0.0690
  762MOL0     C 2781   7.884   3.408   7.555 -0.5907  0.5008  0.5228
  762MOL0     C 2782   7.768   3.361   7.483 -0.6061  0.3158  0.3334
  762MOL0     O 2783   7.764   3.225   7.171 -0.2061 -0.5320  0.4553
  762MOL0     C 2784   7.424   3.145   7.233 -0.1279 -0.5169 -0.2376
  762MOL0     C 2785   7.301   3.120   7.176 -0.0923 -0.0037  0.1328
  762MOL0     N 2786   7.026   3.300   6.357  0.5980 -0.1198 -0.5632
  762MOL0     N 2787   6.987   3.361   6.252 -0.4966 -0.1277  0.2487
  762MOL0     C 2788   5.854   3.155   5.825  0.1075  0.0063  0.5834
  762MOL0     C 2789   5.821   3.023   5.783  0.5117 -0.5175 -0.2750
  762MOL0     C 2790   5.646   2.673   5.672  0.4339 -1.4102  0.3230
  762MOL0     C 2791   5.750   2.584   5.634 -1.4584 -0.1249 -0.1619
  762MOL0     C 2792   5.742   2.502   5.521 -0.0097  0.6401  1.0258
  762MOL0     C 2793   5.615   2.499   5.448 -0.1087 -0.6792 -1.1364
  762MOL0     O 2794   5.590   2.420   5.340 -0.0348 -0.2357  0.0334
  762MOL0     C 2795   5.647   2.295   5.335 -0.3598 -0.3551 -0.9397
  762MOL0     C 2796   5.548   2.214   5.271  0.1327  0.1995 -1.1179
  762MOL0     C 2797   5.579   2.065   5.286 -0.4928  0.1456  0.2327
  762MOL0     C 2798   5.474   1.962   5.244  0.2651  0.3008 -0.5018
  762MOL0     C 2799   5.350   1.985   5.327  0.3543 -0.0722  0.0961
  762MOL0     C 2800   5.255   2.026   5.389  0.3508 -0.0350 -0.0857
  762MOL0     C 2801   5.521   2.594   5.480  0.1774  1.1043 -0.1556
  762MOL0     C 2802   5.530   2.671   5.593 -0.2316  0.2625 -0.5309
  762MOL0     H 2803   5.868   2.868   6.076 -1.0535 -2.7873 -3.1832
  762MOL0     H 2804   5.928   3.103   6.140 -1.7706  0.6896  0.3583
  762MOL0     H 2805   6.040   3.318   5.800 -1.8811  0.0714 -0.7260
  762MOL0     H 2806   5.938   3.445   5.844  3.0817  3.3199 -0.1993
  762MOL0     H 2807   6.154   3.537   5.871  0.4457 -0.6429  0.1067
  762MOL0     H 2808   6.100   3.511   6.027 -0.4106  2.1734 -0.8578
  762MOL0     H 2809   6.252   3.294   6.033 -1.6978 -1.5837 -1.1143
  762MOL0     H 2810   6.278   3.326   5.860 -4.2313 -1.1928 -0.1639
  762MOL0     H 2811   6.410   3.516   5.878 -0.2955  1.0743  0.7643
  762MOL0     H 2812   6.355   3.543   6.050  0.7650 -0.4929  1.3892
  762MOL0     H 2813   6.472   3.330   6.113 -1.7555 -1.1648 -0.2479
  762MOL0     H 2814   6.520   3.309   5.945 -0.9785 -0.3936  0.0421
  762MOL0     H 2815   6.669   3.489   5.952  0.0644 -2.3594  0.8093
  762MOL0     H 2816   6.584   3.580   6.076 -1.0900 -1.1397  2.1556
  762MOL0     H 2817   6.639   3.406   6.237 -0.8100  0.2155  0.6301
  762MOL0     H 2818   6.744   3.335   6.119 -1.0877  0.2165 -1.3601
  762MOL0     H 2819   6.759   3.612   6.234 -0.9088 -0.9760 -0.9606
  762MOL0     H 2820   6.864   3.558   6.102 -1.2005 -1.8880 -1.2217
  762MOL0     H 2821   6.793   3.488   6.479 -0.3127  0.5799 -0.3935
  762MOL0     H 2822   6.922   3.371   6.679 -0.3232 -1.8496  2.1779
  762MOL0     H 2823   6.943   3.206   6.624 -0.9974  1.0771  0.6125
  762MOL0     H 2824   7.167   3.406   6.671  0.7187 -1.0259  5.5617
  762MOL0     H 2825   7.197   3.240   6.610  1.4237 -0.3443  1.7340
  762MOL0     H 2826   7.045   3.330   6.864 -1.0090  0.4871 -1.0960
  762MOL0     H 2827   7.220   3.323   6.859 -2.1846  2.2240  2.1035
  762MOL0     H 2828   7.205   3.070   6.790 -0.5486 -1.2925  0.0971
  762MOL0     H 2829   7.043   3.069   6.812 -1.4884  0.1165  1.9839
  762MOL0     H 2830   7.387   3.179   6.852 -0.3345 -0.1975 -0.2792
  762MOL0     H 2831   7.692   3.208   6.892 -1.5021 -2.5558  1.1639
  762MOL0     H 2832   7.559   3.309   6.842 -0.7127 -3.7483  0.0611
  762MOL0     H 2833   7.669   3.358   6.984  2.5567 -2.1334  2.1384
  762MOL0     H 2834   7.887   3.048   7.426  4.0727 -0.4291 -0.1603
  762MOL0     H 2835   8.055   3.112   7.574  2.0451  1.3409 -1.1036
  762MOL0     H 2836   8.232   3.244   7.648 -1.0963  0.1146  0.3311
  762MOL0     H 2837   8.264   3.381   7.759  1.6386 -0.1760 -1.1169
  762MOL0     H 2838   8.066   3.161   7.846 -0.0826  0.8335 -0.7285
  762MOL0     H 2839   8.238   3.172   7.883 -1.7459 -3.2442  0.6439
  762MOL0     H 2840   8.010   3.374   7.949  1.7587  2.4012 -3.2564
  762MOL0     H 2841   8.186   3.420   7.959  0.4995 -0.6502  0.8175
  762MOL0     H 2842   8.050   3.223   8.135  0.0440 -0.2480 -0.0157
  762MOL0     H 2843   8.226   3.263   8.137 -1.0935 -1.7433  1.4384
  762MOL0     H 2844   7.981   3.441   8.171  0.7096  2.4305 -1.4858
  762MOL0     H 2845   8.146   3.501   8.189  0.1642  0.9885 -1.3727
  762MOL0     H 2846   7.986   3.283   8.348 -0.5423  0.8281 -2.5247
  762MOL0     H 2847   8.157   3.306   8.379  1.7287  0.9503 -0.7580
  762MOL0     H 2848   8.067   3.558   8.427  0.1599 -0.6448 -0.4851
  762MOL0     H 2849   8.050   3.442   8.554 -0.9208  0.0567  0.2638
  762MOL0     H 2850   7.830   3.489   8.352  3.6862 -0.0865 -0.8820
  762MOL0     H 2851   7.809   3.554   8.523  1.5443 -0.4445  1.4057
  762MOL0     H 2852   7.891   3.513   7.579  5.1590  0.2243  1.5584
  762MOL0     H 2853   7.693   3.429   7.442  0.9604 -0.6005 -4.8568
  762MOL0     H 2854   7.427   3.131   7.340 -0.0234  1.0740 -0.0014
  762MOL0     H 2855   7.210   3.100   7.231  1.5295  2.4154  4.2565
  762MOL0     H 2856   5.847   3.234   5.750  0.9958  0.7629  1.2789
  762MOL0     H 2857   5.779   3.003   5.685 -0.5494  0.9228 -0.1494
  762MOL0     H 2858   5.848   2.581   5.680 -2.0943  0.0890  1.2638
  762MOL0     H 2859   5.826   2.446   5.482 -1.3396 -2.5106  2.3472
  762MOL0     H 2860   5.736   2.299   5.271 -0.3667 -2.0295 -1.0930
  762MOL0     H 2861   5.667   2.253   5.434 -1.4096 -1.6066 -1.2300
  762MOL0     H 2862   5.541   2.242   5.165 -0.1925  0.9965 -0.8922
  762MOL0     H 2863   5.448   2.239   5.308  0.8307 -0.0300  1.0129
  762MOL0     H 2864   5.602   2.057   5.392 -1.4180 -1.7365  0.3307
  762MOL0     H 2865   5.672   2.039   5.234  0.9455  3.5083  0.8588
  762MOL0     H 2866   5.508   1.861   5.267 -2.3936 -0.5251  0.1942
  762MOL0     H 2867   5.451   1.968   5.137  0.8212 -1.6818 -0.7588
  762MOL0     H 2868   5.173   2.065   5.445 -3.9322 -0.8749 -5.0045
  762MOL0     H 2869   5.434   2.607   5.417 -0.1870  1.9419  0.4921
  762MOL0     H 2870   5.447   2.736   5.619  1.7762  2.1743  1.5505
  763MOL0     O 2871   0.405   5.904   9.032 -0.3512  0.3331  0.5547
  763MOL0     C 2872   0.494   5.841   8.978 -0.6172 -0.7588  0.5011
  763MOL0     O 2873   0.481   5.766   8.871  0.3411  0.2166 -0.0332
  763MOL0     C 2874   0.361   5.738   8.808 -0.2281  0.6443 -0.4363
  763MOL0     C 2875   0.355   5.621   8.735  0.7496 -0.3608 -0.2187
  763MOL0     C 2876   0.244   5.574   8.663  0.7131 -1.1538 -0.4333
  763MOL0     C 2877   0.130   5.658   8.656  0.4644  0.0483  0.4486
  763MOL0     O 2878   0.011   5.640   8.583  0.1248  0.2520 -0.3578
  763MOL0     C 2879   0.034   5.700   8.452  0.2384  0.7405 -0.7770
  763MOL0     C 2880  -0.106   5.721   8.394 -0.0179 -0.4333 -0.1946
  763MOL0     C 2881  -0.164   5.852   8.447 -0.3533 -0.4974  2.0843
  763MOL0     C 2882  -0.264   5.817   8.565 -0.5187  0.3650  0.2107
  763MOL0     C 2883  -0.329   5.935   8.642 -0.3800 -1.1912 -0.3294
  763MOL0     C 2884  -0.405   6.027   8.540 -1.0115 -0.0830 -0.0282
  763MOL0     C 2885  -0.509   6.126   8.603  0.0080 -0.2384 -0.4008
  763MOL0     C 2886  -0.433   6.215   8.701  0.3624 -0.0915  0.5824
  763MOL0     N 2887  -0.332   6.313   8.637  0.6804 -0.5626 -0.5464
  763MOL0     C 2888  -0.203   6.346   8.679  0.1508  0.7641  0.1987
  763MOL0     C 2889  -0.153   6.429   8.583 -0.7549  0.2765  0.1272
  763MOL0     C 2890  -0.010   6.481   8.589 -0.0562 -0.8314 -0.0590
  763MOL0     C 2891   0.006   6.630   8.615  0.7987  0.2705  0.2720
  763MOL0     C 2892  -0.081   6.716   8.525 -1.2907 -0.3919  0.0685
  763MOL0     C 2893  -0.057   6.875   8.548  1.1086 -0.3534 -0.2135
  763MOL0     O 2894   0.055   6.908   8.456  0.4802  0.1482  0.0243
  763MOL0     C 2895   0.135   7.012   8.483 -0.1657 -0.4897 -0.3357
  763MOL0     C 2896   0.204   7.015   8.609 -0.0883 -0.3624  0.3771
  763MOL0     C 2897   0.289   7.116   8.640 -0.2065 -0.1158  0.4241
  763MOL0     C 2898   0.356   7.089   8.773 -0.1730  0.0878 -0.5528
  763MOL0     C 2899   0.294   7.240   8.564  0.2353  0.2427 -0.6287
  763MOL0     C 2900   0.374   7.365   8.612  0.1710  0.6160 -0.2990
  763MOL0     O 2901   0.385   7.466   8.527 -0.2014  0.3064 -0.1426
  763MOL0     C 2902   0.480   7.563   8.527  0.0872  0.1333 -0.0280
  763MOL0     C 2903   0.571   7.590   8.628  0.3029 -0.2907 -0.1154
  763MOL0     C 2904   0.637   7.715   8.617 -0.2770  0.4112 -0.2078
  763MOL0     C 2905   0.620   7.802   8.504 -0.7805  0.5428 -0.5836
  763MOL0     O 2906   0.669   7.928   8.510 -0.7948 -1.0981 -0.2447
  763MOL0     C 2907   0.668   8.012   8.390  1.5491  0.4785  0.5909
  763MOL0     C 2908   0.741   8.144   8.403 -0.6093 -0.4657 -0.0716
  763MOL0     C 2909   0.756   8.224   8.274  0.3429 -0.8336  0.3766
  763MOL0     C 2910   0.897   8.258   8.237  0.3533  0.7020 -0.2712
  763MOL0     C 2911   0.977   8.354   8.326 -0.7041  0.0422  0.1100
  763MOL0     C 2912   1.128   8.320   8.317  1.4024  0.3009 -0.3140
  763MOL0     C 2913   1.175   8.189   8.391  0.4824  0.2717  0.6352
  763MOL0     C 2914   1.322   8.175   8.415  1.1589  0.1058 -0.1485
  763MOL0    Cl 2915   1.423   8.189   8.274  0.1709  0.2596 -0.1554
  763MOL0     C 2916   0.523   7.760   8.408  1.0644  0.0698  0.5254
  763MOL0     C 2917   0.458   7.637   8.419  0.2270  0.1530  0.0715
  763MOL0     O 2918   0.414   7.367   8.728 -0.4759  0.1400 -0.0089
  763MOL0     C 2919   0.220   7.233   8.448 -0.2394  0.5259  0.9922
  763MOL0     C 2920   0.136   7.129   8.404 -0.4138  0.0370 -0.6534
  763MOL0     N 2921  -0.254   6.453   8.487  0.6633  0.5442  0.8205
  763MOL0     N 2922  -0.354   6.382   8.521 -0.2503 -1.0172  0.9384
  763MOL0     C 2923   0.134   5.778   8.726 -0.3676  0.3655  0.0919
  763MOL0     C 2924   0.241   5.821   8.792 -0.1903  0.7876  0.2953
  763MOL0     C 2925   0.629   5.863   9.017 -0.2743  0.9924 -0.0700
  763MOL0     C 2926   0.663   5.958   9.110 -0.7156  0.2144 -0.6088
  763MOL0     C 2927   0.789   5.982   9.152  0.1055  0.4603 -0.3290
  763MOL0     C 2928   0.895   5.924   9.092  0.0611  0.9057 -0.1690
  763MOL0     O 2929   1.029   5.941   9.115 -0.3036 -0.3281  0.0426
  763MOL0     C 2930   1.060   6.082   9.148 -1.1455  0.9632  0.4053
  763MOL0     C 2931   1.147   6.107   9.270 -0.2654 -0.0227  0.1440
  763MOL0     C 2932   1.104   6.036   9.390  0.0065 -0.9321 -0.4113
  763MOL0     C 2933   1.209   6.059   9.505  1.1101 -0.2940  0.0875
  763MOL0     C 2934   1.335   5.996   9.494 -1.7603  0.0893 -0.0127
  763MOL0     C 2935   1.432   5.919   9.465 -0.3625 -1.0461 -0.4457
  763MOL0     C 2936   0.869   5.828   8.995  0.2239 -0.2159  0.1714
  763MOL0     C 2937   0.738   5.794   8.954  0.0885 -0.8082 -1.3221
  763MOL0     H 2938   0.444   5.563   8.758 -0.1307 -0.4261  3.7787
  763MOL0     H 2939   0.255   5.480   8.610 -0.0604 -0.3198 -2.1316
  763MOL0     H 2940   0.086   5.794   8.470 -1.9309  1.4905  2.3839
  763MOL0     H 2941   0.091   5.640   8.380  2.5920  2.4525 -0.4471
  763MOL0     H 2942  -0.107   5.731   8.285 -0.1546  0.6276 -0.1055
  763MOL0     H 2943  -0.172   5.637   8.418 -0.4401 -0.5455 -1.6921
  763MOL0     H 2944  -0.081   5.910   8.488 -0.3267  1.3680 -0.3762
  763MOL0     H 2945  -0.217   5.902   8.366 -0.6753 -2.6262  0.8916
  763MOL0     H 2946  -0.354   5.779   8.517 -0.7024  0.6611  0.3121
  763MOL0     H 2947  -0.211   5.748   8.632  2.1184  0.6712 -1.4535
  763MOL0     H 2948  -0.381   5.901   8.732  1.2690 -3.3969 -0.0949
  763MOL0     H 2949  -0.251   5.995   8.690 -1.5208 -2.7280  3.9928
  763MOL0     H 2950  -0.339   6.081   8.472 -0.4142  0.3364  0.8690
  763MOL0     H 2951  -0.463   5.967   8.469 -1.0049  1.5277 -1.4537
  763MOL0     H 2952  -0.555   6.193   8.530  0.1184  3.1547  2.3859
  763MOL0     H 2953  -0.595   6.076   8.648 -0.3976  1.5383  0.8959
  763MOL0     H 2954  -0.379   6.148   8.769  1.2548  0.7993  0.7953
  763MOL0     H 2955  -0.502   6.281   8.754 -0.3947  1.1940 -1.8820
  763MOL0     H 2956  -0.156   6.330   8.776  2.0175 -0.0070 -0.7811
  763MOL0     H 2957   0.052   6.435   8.666 -1.1328 -3.7137 -0.8122
  763MOL0     H 2958   0.026   6.464   8.487  2.0131  1.0661  0.2883
  763MOL0     H 2959   0.113   6.654   8.605  1.3960 -1.7225  1.3409
  763MOL0     H 2960  -0.023   6.634   8.721  0.4731 -3.7551  0.4721
  763MOL0     H 2961  -0.188   6.697   8.537 -1.8756  2.3521 -0.1486
  763MOL0     H 2962  -0.053   6.685   8.424  0.7059  1.9304 -0.1673
  763MOL0     H 2963  -0.026   6.892   8.652 -0.8245  0.1789  0.3218
  763MOL0     H 2964  -0.150   6.922   8.514 -0.1119 -1.7491  1.0439
  763MOL0     H 2965   0.187   6.924   8.666  2.2648 -0.4296  1.0766
  763MOL0     H 2966   0.350   7.175   8.840  0.4888  1.0052 -1.6405
  763MOL0     H 2967   0.324   6.997   8.822 -0.0344 -1.0346 -2.4902
  763MOL0     H 2968   0.463   7.070   8.756  0.2718  1.8584  0.0300
  763MOL0     H 2969   0.577   7.538   8.723 -0.2172  0.7006  0.4814
  763MOL0     H 2970   0.703   7.745   8.699 -0.8874  3.1168 -0.6227
  763MOL0     H 2971   0.715   7.951   8.313 -1.1049 -0.3565 -0.4727
  763MOL0     H 2972   0.567   8.038   8.356  2.2860  0.3579 -1.8219
  763MOL0     H 2973   0.687   8.206   8.475  0.8320  3.2281 -1.9305
  763MOL0     H 2974   0.842   8.116   8.436  1.1364  1.1201 -3.5867
  763MOL0     H 2975   0.695   8.314   8.289 -1.2578 -1.4606 -1.8624
  763MOL0     H 2976   0.711   8.170   8.190  1.9948 -1.1160 -0.3774
  763MOL0     H 2977   0.952   8.164   8.248  0.9644  1.0761 -0.0707
  763MOL0     H 2978   0.899   8.294   8.134  0.4462  4.6025  0.9493
  763MOL0     H 2979   0.952   8.321   8.427  0.6273  2.0059  1.1452
  763MOL0     H 2980   0.969   8.464   8.324  3.5626  0.5933  1.9678
  763MOL0     H 2981   1.158   8.317   8.212  2.7125  1.3516 -0.0081
  763MOL0     H 2982   1.168   8.407   8.370 -0.9046  1.9248 -1.1088
  763MOL0     H 2983   1.143   8.101   8.334  3.8778  1.3302 -3.4497
  763MOL0     H 2984   1.128   8.190   8.490 -2.1475 -1.4510 -0.4680
  763MOL0     H 2985   1.335   8.076   8.461  1.3688  1.3203  2.6137
  763MOL0     H 2986   1.354   8.244   8.493 -1.2952 -1.3842  2.3962
  763MOL0     H 2987   0.513   7.811   8.313  3.7176 -1.6744 -0.8181
  763MOL0     H 2988   0.383   7.621   8.341 -2.0978  0.6004  2.0994
  763MOL0     H 2989   0.228   7.303   8.365  1.4688 -0.8867 -0.1167
  763MOL0     H 2990   0.073   7.138   8.316 -0.7787 -1.9236 -0.6275
  763MOL0     H 2991   0.038   5.827   8.740 -0.7283 -0.4604  0.6477
  763MOL0     H 2992   0.243   5.916   8.845  0.4531  0.8259  0.2081
  763MOL0     H 2993   0.586   6.008   9.168  1.6802  1.9913  1.2887
  763MOL0     H 2994   0.811   6.047   9.237 -0.9603  0.1318  0.2132
  763MOL0     H 2995   1.106   6.117   9.055  2.0773 -0.5395  1.2840
  763MOL0     H 2996   0.965   6.135   9.158 -1.4209  0.3295  1.3018
  763MOL0     H 2997   1.146   6.216   9.280  2.7537  0.0933  0.1186
  763MOL0     H 2998   1.254   6.082   9.264  0.7825  3.1547  2.7313
  763MOL0     H 2999   1.092   5.929   9.369 -1.5349 -0.6544 -1.0311
  763MOL0     H 3000   1.011   6.080   9.426 -0.7078 -1.4596 -1.5751
  763MOL0     H 3001   1.174   6.018   9.600  2.0882 -3.0289 -0.6411
  763MOL0     H 3002   1.221   6.168   9.506 -1.4840  0.0720  1.5736
  763MOL0     H 3003   1.516   5.856   9.449  1.3090  0.9049  0.2318
  763MOL0     H 3004   0.959   5.777   8.963  1.0285  2.1669 -1.6445
  763MOL0     H 3005   0.725   5.714   8.883 -1.0773 -2.8716  1.0458
  764MOL0     O 3006   1.555   7.010   2.646  0.1239 -0.2849  0.4845
  764MOL0     C 3007   1.609   6.926   2.718 -0.3169 -0.3217 -0.6911
  764MOL0     O 3008   1.613   6.793   2.692 -1.0987 -0.0703 -0.0964
  764MOL0     C 3009   1.543   6.732   2.596  0.4610  0.6475  0.0167
  764MOL0     C 3010   1.412   6.770   2.558 -0.0467 -0.4766 -0.2110
  764MOL0     C 3011   1.339   6.697   2.471  0.3515  0.4096 -0.5186
  764MOL0     C 3012   1.385   6.571   2.426  0.6887 -0.0222  0.1231
  764MOL0     O 3013   1.310   6.494   2.336  0.9351 -0.4372 -0.5557
  764MOL0     C 3014   1.168   6.474   2.371  0.8418  0.1099 -0.6462
  764MOL0     C 3015   1.120   6.350   2.296  0.4813 -0.1779 -0.4139
  764MOL0     C 3016   1.146   6.357   2.147 -0.1230 -0.5039 -0.5011
  764MOL0     C 3017   1.092   6.237   2.069 -0.2059 -0.3694 -1.0386
  764MOL0     C 3018   1.151   6.227   1.931  0.1585  0.3613 -0.3476
  764MOL0     C 3019   1.046   6.155   1.839 -0.2119 -0.4925 -0.3345
  764MOL0     C 3020   1.097   6.135   1.691  0.0005  0.4392  0.5125
  764MOL0     C 3021   0.996   6.069   1.598  0.2056 -1.0382 -0.0163
  764MOL0     N 3022   0.865   6.140   1.600  0.8975  0.0648 -0.1271
  764MOL0     C 3023   0.833   6.255   1.538  0.4625 -0.5708 -0.1110
  764MOL0     C 3024   0.696   6.273   1.548 -0.8792 -0.1950 -0.5049
  764MOL0     C 3025   0.607   6.364   1.467  0.1176  0.4345  0.1705
  764MOL0     C 3026   0.662   6.505   1.452  0.7556 -0.9138 -0.0083
  764MOL0     C 3027   0.556   6.600   1.398  0.3116  0.3332  0.6161
  764MOL0     C 3028   0.510   6.589   1.252  1.0470  0.0427  0.3629
  764MOL0     O 3029   0.614   6.593   1.153  0.5151  0.0336  0.4179
  764MOL0     C 3030   0.563   6.577   1.024  0.4558 -0.8282 -0.1894
  764MOL0     C 3031   0.661   6.569   0.926 -0.0791  0.1975 -1.1466
  764MOL0     C 3032   0.646   6.546   0.794  0.1408 -0.4437 -0.6993
  764MOL0     C 3033   0.775   6.518   0.715 -0.0520  1.6419 -0.5723
  764MOL0     C 3034   0.514   6.549   0.748 -0.2364 -0.1672 -1.0331
  764MOL0     C 3035   0.473   6.515   0.607 -0.5162  0.2647 -0.0080
  764MOL0     O 3036   0.575   6.510   0.523  0.1750 -0.4350  1.4098
  764MOL0     C 3037   0.535   6.545   0.392 -0.4481 -0.2593  0.2183
  764MOL0     C 3038   0.518   6.675   0.351  0.3658 -0.7036  0.0057
  764MOL0     C 3039   0.482   6.701   0.216 -0.1945 -0.3048  0.1712
  764MOL0     C 3040   0.460   6.599   0.119 -0.4383  0.5626  0.8884
  764MOL0     O 3041   0.432   6.632  -0.016 -0.1882 -0.4300 -0.4858
  764MOL0     C 3042   0.431   6.526  -0.108  0.0583  0.3435 -0.4537
  764MOL0     C 3043   0.387   6.568  -0.241 -0.7334 -0.6708 -0.6168
  764MOL0     C 3044   0.419   6.703  -0.298 -0.2929 -0.4464  1.0533
  764MOL0     C 3045   0.386   6.698  -0.452 -0.1096 -1.2849 -0.2087
  764MOL0     C 3046   0.234   6.702  -0.492  0.2021 -0.2741 -0.3043
  764MOL0     C 3047   0.166   6.823  -0.425 -0.2215  0.2850 -1.3082
  764MOL0     C 3048   0.029   6.836  -0.489  0.5043  0.7229 -0.3178
  764MOL0     C 3049  -0.056   6.936  -0.419 -0.5846  0.2996 -1.1177
  764MOL0    Cl 3050  -0.019   7.097  -0.467  0.4739 -0.3748  0.4929
  764MOL0     C 3051   0.488   6.468   0.165  0.0523 -0.7855  0.0927
  764MOL0     C 3052   0.525   6.448   0.296 -0.7503  0.5506 -0.1361
  764MOL0     O 3053   0.354   6.513   0.582  0.5949  0.2901  0.8424
  764MOL0     C 3054   0.406   6.576   0.840  0.4205 -0.2876 -0.1396
  764MOL0     C 3055   0.428   6.578   0.974  0.1894 -0.5751  0.3394
  764MOL0     N 3056   0.647   6.171   1.625 -0.4073 -0.8303 -0.1964
  764MOL0     N 3057   0.746   6.091   1.652 -0.5772 -0.4109  0.3067
  764MOL0     C 3058   1.521   6.528   2.463  0.4981 -0.7281 -0.6889
  764MOL0     C 3059   1.591   6.613   2.550  0.3430 -0.2202  0.3732
  764MOL0     C 3060   1.715   6.990   2.808  1.1020  1.2489  0.2671
  764MOL0     C 3061   1.730   7.127   2.825 -1.2889  0.1732 -0.2750
  764MOL0     C 3062   1.828   7.182   2.907 -0.8631  0.1077  0.0354
  764MOL0     C 3063   1.907   7.095   2.983 -0.5059  0.4550  0.0283
  764MOL0     O 3064   2.015   7.145   3.059 -0.7244 -0.0797 -0.5398
  764MOL0     C 3065   2.084   7.066   3.151  0.4699 -0.1476  1.0145
  764MOL0     C 3066   2.151   7.153   3.251  0.6587 -0.1464 -0.6114
  764MOL0     C 3067   2.265   7.086   3.330 -0.3700  0.0832 -0.4561
  764MOL0     C 3068   2.314   7.178   3.446 -0.1052  0.5410  0.0418
  764MOL0     C 3069   2.378   7.093   3.555 -0.4888 -0.2521  0.7856
  764MOL0     C 3070   2.425   7.023   3.645 -0.1567  0.1589 -0.0493
  764MOL0     C 3071   1.895   6.952   2.957 -0.6721 -0.4810 -0.7842
  764MOL0     C 3072   1.799   6.903   2.880  0.2318  0.7489 -0.3928
  764MOL0     H 3073   1.361   6.859   2.591 -0.1498 -0.8218  0.5713
  764MOL0     H 3074   1.240   6.738   2.449 -1.7396 -3.2636  1.1942
  764MOL0     H 3075   1.160   6.467   2.480 -2.2510 -3.5904 -0.9087
  764MOL0     H 3076   1.099   6.555   2.344 -0.6970 -1.5523 -1.9350
  764MOL0     H 3077   1.158   6.257   2.340 -0.4884 -1.0024 -1.2433
  764MOL0     H 3078   1.011   6.343   2.298  0.5267 -1.0731 -0.2982
  764MOL0     H 3079   1.100   6.452   2.117 -2.2632 -1.8804 -1.8620
  764MOL0     H 3080   1.254   6.367   2.130 -0.3008  1.2558 -0.7844
  764MOL0     H 3081   1.139   6.148   2.112 -0.9709 -0.6002 -0.6656
  764MOL0     H 3082   0.983   6.232   2.070 -0.2958 -0.0282  2.1675
  764MOL0     H 3083   1.150   6.329   1.892 -0.6942 -0.5488 -2.8388
  764MOL0     H 3084   1.248   6.178   1.919 -1.6918 -3.0135 -3.3402
  764MOL0     H 3085   1.036   6.053   1.875  2.1764 -0.0428  1.8698
  764MOL0     H 3086   0.953   6.211   1.850 -0.4103 -1.3244  3.7894
  764MOL0     H 3087   1.121   6.231   1.645  0.1097  0.0067 -0.3387
  764MOL0     H 3088   1.184   6.070   1.697  0.0302  0.5152  0.9864
  764MOL0     H 3089   0.973   5.965   1.624 -0.8411 -0.5556  1.0774
  764MOL0     H 3090   1.052   6.053   1.505  0.2718 -1.2204  0.0552
  764MOL0     H 3091   0.899   6.316   1.478 -0.7280 -2.3728 -3.4874
  764MOL0     H 3092   0.605   6.317   1.369  2.2350  2.1912 -0.7839
  764MOL0     H 3093   0.509   6.368   1.516  0.5642  1.0094  1.0406
  764MOL0     H 3094   0.756   6.515   1.396  0.7815  0.1232  0.2019
  764MOL0     H 3095   0.673   6.547   1.552 -0.7062 -0.3197 -0.0689
  764MOL0     H 3096   0.588   6.704   1.405  0.2404  0.2752  2.0625
  764MOL0     H 3097   0.464   6.578   1.454 -0.7616 -2.0622 -1.8130
  764MOL0     H 3098   0.437   6.667   1.228  0.9710 -0.6465 -1.9554
  764MOL0     H 3099   0.459   6.494   1.237  3.7698 -1.2608 -1.6150
  764MOL0     H 3100   0.761   6.575   0.968 -0.8150 -0.7670  0.8652
  764MOL0     H 3101   0.863   6.528   0.780  1.1784  3.7824 -2.4123
  764MOL0     H 3102   0.770   6.411   0.694 -0.1730  1.2743  1.1625
  764MOL0     H 3103   0.801   6.561   0.618 -0.1635 -2.5654 -2.7003
  764MOL0     H 3104   0.518   6.759   0.419  1.7921 -0.2027 -0.5683
  764MOL0     H 3105   0.475   6.805   0.186  0.5736  0.0391  1.1258
  764MOL0     H 3106   0.530   6.482  -0.125 -0.6201 -0.3614 -3.0372
  764MOL0     H 3107   0.374   6.444  -0.064  3.8178 -1.1272  2.3268
  764MOL0     H 3108   0.435   6.496  -0.307  0.6534  2.1257 -2.9000
  764MOL0     H 3109   0.279   6.554  -0.252 -0.2963 -1.6753 -5.5165
  764MOL0     H 3110   0.525   6.722  -0.281  0.1943  0.6511 -2.3752
  764MOL0     H 3111   0.360   6.777  -0.244  0.5397  1.7389 -0.8939
  764MOL0     H 3112   0.415   6.789  -0.506 -0.4540 -1.9026 -1.4532
  764MOL0     H 3113   0.438   6.613  -0.496  1.8112 -0.6641  0.7342
  764MOL0     H 3114   0.186   6.608  -0.460 -1.2595  0.8924  1.1640
  764MOL0     H 3115   0.224   6.701  -0.601  1.4510 -1.0351 -0.4269
  764MOL0     H 3116   0.166   6.820  -0.316  0.9205  2.2636 -1.2083
  764MOL0     H 3117   0.229   6.908  -0.450  0.0021  0.8770  1.0589
  764MOL0     H 3118  -0.023   6.741  -0.474  0.1648  0.7486 -1.2398
  764MOL0     H 3119   0.038   6.861  -0.595  0.8743  1.0549 -0.2078
  764MOL0     H 3120  -0.043   6.922  -0.312 -1.6781 -2.4028 -1.2755
  764MOL0     H 3121  -0.162   6.912  -0.431 -0.3303 -2.3635  1.0089
  764MOL0     H 3122   0.484   6.377   0.107  0.7547 -1.3139  0.8480
  764MOL0     H 3123   0.537   6.341   0.309 -0.8705  0.7397  1.7359
  764MOL0     H 3124   0.300   6.574   0.818  0.3014 -0.3919  0.4344
  764MOL0     H 3125   0.344   6.610   1.035  0.6233  0.2324  0.5287
  764MOL0     H 3126   1.574   6.438   2.434  2.3015  0.1027 -0.1235
  764MOL0     H 3127   1.694   6.592   2.576  1.0104  0.0271 -1.8479
  764MOL0     H 3128   1.657   7.196   2.782  1.4077  3.2215 -0.3190
  764MOL0     H 3129   1.847   7.288   2.911 -0.0993  0.1189 -2.3680
  764MOL0     H 3130   2.011   6.998   3.196 -2.4612  0.9213 -1.8013
  764MOL0     H 3131   2.170   7.012   3.112 -0.5655 -0.6295 -0.6949
  764MOL0     H 3132   2.079   7.194   3.322  0.1346 -1.2732 -0.4671
  764MOL0     H 3133   2.192   7.237   3.193 -0.4031  0.5982 -0.3100
  764MOL0     H 3134   2.351   7.069   3.265  0.8921 -1.2624  1.4511
  764MOL0     H 3135   2.236   6.996   3.384  0.7261 -0.4427 -0.7370
  764MOL0     H 3136   2.227   7.227   3.493 -1.4627 -1.2921 -0.4434
  764MOL0     H 3137   2.389   7.254   3.423  0.2853  0.2569  0.3531
  764MOL0     H 3138   2.484   6.971   3.718 -0.0292 -0.6347 -0.7031
  764MOL0     H 3139   1.958   6.890   3.021  0.8413  2.0586  0.3246
  764MOL0     H 3140   1.775   6.797   2.889 -0.3190  0.8936 -0.1220
  765MOL0     O 3141   0.576   5.561  10.234  0.3824  0.0484 -0.2664
  765MOL0     C 3142   0.557   5.459  10.307  0.8906  0.3707  1.0289
  765MOL0     O 3143   0.467   5.351  10.278  0.4160 -0.5339  0.2982
  765MOL0     C 3144   0.434   5.324  10.145  0.4385  0.9056 -0.3596
  765MOL0     C 3145   0.523   5.344  10.041 -0.0195  0.0224  0.7693
  765MOL0     C 3146   0.487   5.327   9.904  0.6308 -0.3215 -0.4052
  765MOL0     C 3147   0.357   5.293   9.873 -0.0779  2.3288  0.0235
  765MOL0     O 3148   0.299   5.271   9.745  0.3612  0.4625 -0.0218
  765MOL0     C 3149   0.396   5.249   9.638  0.1346  0.5331 -0.2020
  765MOL0     C 3150   0.315   5.195   9.522 -0.0651  0.3325 -0.8131
  765MOL0     C 3151   0.389   5.208   9.384 -0.5526 -0.2458 -0.1670
  765MOL0     C 3152   0.505   5.096   9.377  0.3742 -0.4166 -0.6579
  765MOL0     C 3153   0.555   5.093   9.239 -0.2149  1.0296 -0.7262
  765MOL0     C 3154   0.678   5.003   9.229 -1.7699  0.6338  0.0367
  765MOL0     C 3155   0.806   5.051   9.305  1.4414 -0.2302 -0.6588
  765MOL0     C 3156   0.928   4.989   9.241  0.1164  0.3071  0.0350
  765MOL0     N 3157   1.042   5.020   9.333  0.2553  0.5094 -0.1086
  765MOL0     C 3158   1.160   4.954   9.321 -0.3555  0.0413  0.1206
  765MOL0     C 3159   1.229   4.989   9.429 -0.4719  0.0457 -0.0494
  765MOL0     C 3160   1.374   4.950   9.462 -0.5506  0.2854  0.0042
  765MOL0     C 3161   1.390   4.800   9.511 -0.1038  1.0086  0.4757
  765MOL0     C 3162   1.331   4.781   9.653  0.4412  0.1168 -0.5949
  765MOL0     C 3163   1.328   4.637   9.698 -0.0291 -0.4083  0.3337
  765MOL0     O 3164   1.292   4.547   9.596 -0.5815  0.4462  0.2446
  765MOL0     C 3165   1.282   4.411   9.624 -0.0292 -0.7344  0.3495
  765MOL0     C 3166   1.321   4.355   9.740 -0.1710  0.7615  0.3724
  765MOL0     C 3167   1.315   4.222   9.771  0.8694 -0.3596  1.0036
  765MOL0     C 3168   1.369   4.178   9.902 -0.2564 -0.0632 -0.5322
  765MOL0     C 3169   1.252   4.135   9.673  0.2646  0.4737 -0.1143
  765MOL0     C 3170   1.241   3.982   9.688  0.4670 -0.6551  0.2092
  765MOL0     O 3171   1.220   3.930   9.812  0.0455  0.4421  0.3547
  765MOL0     C 3172   1.203   3.789   9.833  0.1338 -0.8589  0.0052
  765MOL0     C 3173   1.229   3.690   9.739  0.1716  0.2159 -0.3296
  765MOL0     C 3174   1.235   3.553   9.790 -0.2187 -0.1908  0.0600
  765MOL0     C 3175   1.204   3.527   9.928 -0.3366  0.5680  1.0299
  765MOL0     O 3176   1.211   3.394   9.967 -0.0052 -0.5430 -0.0476
  765MOL0     C 3177   1.203   3.354  10.110 -0.5560  0.1037 -0.5708
  765MOL0     C 3178   1.197   3.198  10.124  1.0402 -0.4968  0.0394
  765MOL0     C 3179   1.333   3.134  10.067  0.1121 -0.0775  0.7006
  765MOL0     C 3180   1.334   2.975  10.047 -1.0453  0.3497 -0.5578
  765MOL0     C 3181   1.356   2.893  10.175  0.6661  0.4091 -0.2976
  765MOL0     C 3182   1.420   2.755  10.142 -0.4501 -0.5870 -0.6268
  765MOL0     C 3183   1.395   2.676  10.266  0.1627 -0.7783 -0.0172
  765MOL0     C 3184   1.468   2.717  10.393 -0.3324  0.7873 -0.1410
  765MOL0    Cl 3185   1.431   2.595  10.508 -0.2487  0.0004 -0.0044
  765MOL0     C 3186   1.166   3.629  10.016 -0.7365  0.0761 -0.4845
  765MOL0     C 3187   1.166   3.755   9.959  0.8417  0.7123 -0.4369
  765MOL0     O 3188   1.279   3.928   9.586  0.5872 -0.5732 -0.7432
  765MOL0     C 3189   1.203   4.191   9.555 -0.3364 -0.4487  0.8738
  765MOL0     C 3190   1.230   4.326   9.520  0.6491 -0.0379 -0.7273
  765MOL0     N 3191   1.156   5.083   9.506 -1.1274 -0.1051  0.4964
  765MOL0     N 3192   1.040   5.089   9.448 -0.2723 -0.7253 -0.3625
  765MOL0     C 3193   0.262   5.267   9.977 -0.0033 -0.6501  0.4973
  765MOL0     C 3194   0.302   5.295  10.112 -0.0448  0.4484  0.0180
  765MOL0     C 3195   0.626   5.465  10.433 -0.3127 -0.5893 -0.6282
  765MOL0     C 3196   0.559   5.411  10.543 -0.7428 -0.1647 -0.2602
  765MOL0     C 3197   0.622   5.424  10.665  0.2304 -1.2835 -0.0484
  765MOL0     C 3198   0.744   5.493  10.681 -0.0667  0.0969 -0.5653
  765MOL0     O 3199   0.797   5.475  10.805 -0.1783 -0.0931 -0.3599
  765MOL0     C 3200   0.928   5.504  10.848 -0.1236 -0.0964  0.0318
  765MOL0     C 3201   1.028   5.423  10.766  0.3019  0.1902  0.4373
  765MOL0     C 3202   1.156   5.417  10.848 -0.4410  0.3182  0.3762
  765MOL0     C 3203   1.271   5.352  10.755 -0.4617  0.4094  1.2088
  765MOL0     C 3204   1.266   5.206  10.767  0.6027 -0.1709 -0.0336
  765MOL0     C 3205   1.267   5.084  10.775 -0.2737 -0.5406  0.4427
  765MOL0     C 3206   0.810   5.549  10.571  0.1518  0.3942 -0.5988
  765MOL0     C 3207   0.748   5.536  10.447  0.3567  0.2254  0.1160
  765MOL0     H 3208   0.626   5.369  10.065 -0.4234  0.0298  2.5878
  765MOL0     H 3209   0.567   5.351   9.835 -0.8442  1.6017 -1.5401
  765MOL0     H 3210   0.443   5.345   9.618  1.0399  0.0573 -0.4454
  765MOL0     H 3211   0.469   5.173   9.669 -0.0460  0.1883 -0.6093
  765MOL0     H 3212   0.298   5.089   9.542  2.1014  0.1654  0.4383
  765MOL0     H 3213   0.220   5.245   9.504 -0.2709 -0.4997 -2.1799
  765MOL0     H 3214   0.328   5.178   9.298 -0.3483  0.5074 -0.5857
  765MOL0     H 3215   0.439   5.305   9.370  0.3041 -0.9996 -2.9924
  765MOL0     H 3216   0.585   5.115   9.449 -2.2509 -3.6078  3.6338
  765MOL0     H 3217   0.462   4.999   9.406 -0.3793  0.5698  1.8164
  765MOL0     H 3218   0.481   5.053   9.170  1.1588 -0.8822 -1.1510
  765MOL0     H 3219   0.591   5.186   9.193 -1.3763  0.5405 -2.7162
  765MOL0     H 3220   0.666   4.903   9.273 -2.3918  0.8435  0.3530
  765MOL0     H 3221   0.705   4.992   9.124  0.5440  0.4505  0.6084
  765MOL0     H 3222   0.808   5.160   9.298 -0.0287 -0.2935 -2.8856
  765MOL0     H 3223   0.793   5.030   9.412  1.0050  1.4842 -0.3356
  765MOL0     H 3224   0.939   5.028   9.139 -0.2676 -0.6254 -0.3793
  765MOL0     H 3225   0.920   4.881   9.224 -1.2295  0.0487  1.9508
  765MOL0     H 3226   1.196   4.890   9.241  0.1605  0.1746  0.2421
  765MOL0     H 3227   1.442   4.965   9.378  0.2130 -2.0395  0.1476
  765MOL0     H 3228   1.417   5.014   9.539  2.3798 -1.4817 -0.0180
  765MOL0     H 3229   1.492   4.770   9.485 -0.2172  0.9908  0.0497
  765MOL0     H 3230   1.329   4.739   9.444  0.0190  0.0523  1.2211
  765MOL0     H 3231   1.227   4.813   9.661  0.5945  0.1938  1.9659
  765MOL0     H 3232   1.386   4.850   9.718  2.1816 -0.7441 -1.0704
  765MOL0     H 3233   1.256   4.627   9.779 -1.0991 -2.2984 -0.7843
  765MOL0     H 3234   1.428   4.614   9.737 -0.1314  0.6436  1.2457
  765MOL0     H 3235   1.360   4.414   9.822  0.6130 -2.0352  2.1452
  765MOL0     H 3236   1.448   4.246   9.935  1.3647 -1.2917 -1.7329
  765MOL0     H 3237   1.289   4.187   9.977  0.5733 -2.9884  0.8402
  765MOL0     H 3238   1.404   4.075   9.911  0.5791  0.4100  3.0236
  765MOL0     H 3239   1.238   3.704   9.632 -0.8923 -0.9793 -0.6094
  765MOL0     H 3240   1.280   3.481   9.722 -2.1617 -1.4724  0.0564
  765MOL0     H 3241   1.288   3.400  10.161 -0.3562  1.6494 -2.1720
  765MOL0     H 3242   1.116   3.402  10.157 -0.6821  1.2258 -1.8720
  765MOL0     H 3243   1.178   3.167  10.227  2.8486 -0.7742  0.3323
  765MOL0     H 3244   1.109   3.167  10.067  0.1486 -2.8220  2.4876
  765MOL0     H 3245   1.419   3.174  10.120 -0.8315 -1.3242  3.3360
  765MOL0     H 3246   1.351   3.164   9.963 -0.7052 -1.0799  0.2427
  765MOL0     H 3247   1.240   2.942  10.002 -2.8069  4.0159  0.0370
  765MOL0     H 3248   1.425   2.950   9.993 -1.8488  0.3238 -1.9263
  765MOL0     H 3249   1.252   2.890  10.211 -1.2455  0.1338 -5.0429
  765MOL0     H 3250   1.422   2.947  10.244 -0.9960  1.0820  0.8461
  765MOL0     H 3251   1.376   2.712  10.052 -1.7117  0.7550 -0.7008
  765MOL0     H 3252   1.526   2.753  10.112 -1.2642 -0.8542 -3.8825
  765MOL0     H 3253   1.433   2.576  10.242 -1.6125 -2.0045  1.9066
  765MOL0     H 3254   1.286   2.663  10.274  0.3415 -2.6088  0.0259
  765MOL0     H 3255   1.453   2.814  10.440 -0.2222  0.2503  1.0381
  765MOL0     H 3256   1.576   2.703  10.377 -0.9119 -0.6913 -3.7922
  765MOL0     H 3257   1.140   3.613  10.120  3.6778 -3.5051  0.3687
  765MOL0     H 3258   1.146   3.839  10.026 -0.1220 -0.7584  1.1994
  765MOL0     H 3259   1.155   4.129   9.480 -1.3799  2.4201 -0.9781
  765MOL0     H 3260   1.188   4.361   9.426 -0.5819 -4.6207 -2.1402
  765MOL0     H 3261   0.156   5.245   9.966 -0.4110  0.9055  1.0177
  765MOL0     H 3262   0.231   5.277  10.193  0.4572 -7.5144 -0.4683
  765MOL0     H 3263   0.461   5.364  10.550 -0.5808 -0.3921  0.4905
  765MOL0     H 3264   0.573   5.375  10.748  0.3575 -1.4076 -0.0456
  765MOL0     H 3265   0.954   5.610  10.836 -2.5611  0.5113 -0.4645
  765MOL0     H 3266   0.935   5.478  10.954 -0.3721 -0.0785  0.0518
  765MOL0     H 3267   1.044   5.477  10.673 -2.8736  0.8202  0.1395
  765MOL0     H 3268   0.992   5.326  10.732 -3.1737  1.9056 -1.3541
  765MOL0     H 3269   1.141   5.363  10.942  0.7028 -0.2166  0.2619
  765MOL0     H 3270   1.191   5.516  10.878 -0.4532  1.6408 -3.3973
  765MOL0     H 3271   1.373   5.374  10.787 -0.7328  0.3012  2.1737
  765MOL0     H 3272   1.258   5.389  10.653  1.7882 -0.4809  0.5283
  765MOL0     H 3273   1.267   4.977  10.782 -3.0410 -0.6727 -0.4145
  765MOL0     H 3274   0.909   5.592  10.561  0.3352 -0.5165 -3.3911
  765MOL0     H 3275   0.804   5.558  10.357  0.2590  2.0983  0.4809
  766MOL0     O 3276   9.082   0.325   7.025  0.8154  0.1113 -0.8239
  766MOL0     C 3277   9.020   0.415   6.965 -0.6785  0.2003  0.0101
  766MOL0     O 3278   8.901   0.405   6.897  0.1828 -0.4214  0.0723
  766MOL0     C 3279   8.848   0.279   6.886 -0.3958 -0.0280  0.0313
  766MOL0     C 3280   8.768   0.227   6.992 -0.0572 -0.4862  1.1729
  766MOL0     C 3281   8.716   0.098   6.979  0.6561 -0.7919 -0.7050
  766MOL0     C 3282   8.741   0.015   6.869  1.1485 -0.4476  0.5245
  766MOL0     O 3283   8.696  -0.113   6.878 -0.0749  0.2415  0.0465
  766MOL0     C 3284   8.803  -0.208   6.884 -0.2375 -0.3392 -0.9223
  766MOL0     C 3285   8.740  -0.326   6.965 -0.3985 -0.3818  0.8414
  766MOL0     C 3286   8.711  -0.301   7.114  0.8045 -0.0149 -0.3065
  766MOL0     C 3287   8.567  -0.254   7.141  0.1862 -0.3446 -0.2221
  766MOL0     C 3288   8.532  -0.286   7.282 -1.1928  0.8199 -0.0747
  766MOL0     C 3289   8.628  -0.219   7.392 -0.3534 -0.5649 -0.4434
  766MOL0     C 3290   8.575  -0.264   7.533  0.0863 -0.7573  0.8271
  766MOL0     C 3291   8.674  -0.222   7.636 -0.6793 -0.1756 -0.5476
  766MOL0     N 3292   8.640  -0.261   7.773 -0.4142 -0.3452  0.0133
  766MOL0     C 3293   8.677  -0.387   7.824 -0.6050 -0.9565 -0.6008
  766MOL0     C 3294   8.609  -0.397   7.937  0.3985 -1.0402 -1.1171
  766MOL0     C 3295   8.638  -0.490   8.053 -0.2541 -1.0338 -0.4690
  766MOL0     C 3296   8.777  -0.550   8.055  0.2004 -0.1479  0.0277
  766MOL0     C 3297   8.887  -0.457   8.100 -0.2137  0.7703 -0.0022
  766MOL0     C 3298   8.878  -0.394   8.234 -0.4511  0.2324 -0.3613
  766MOL0     O 3299   8.998  -0.416   8.312 -0.4286  0.4152  0.4271
  766MOL0     C 3300   8.984  -0.417   8.445 -0.3793  0.4840  0.1497
  766MOL0     C 3301   9.083  -0.494   8.504  0.3154 -0.2604  0.3019
  766MOL0     C 3302   9.108  -0.491   8.640 -0.5310 -0.4447  0.1694
  766MOL0     C 3303   9.235  -0.567   8.689  0.1569  0.8295 -0.2751
  766MOL0     C 3304   9.024  -0.408   8.729 -0.0228 -0.2483  0.7953
  766MOL0     C 3305   9.053  -0.379   8.878  0.3490  0.3103  0.7270
  766MOL0     O 3306   8.968  -0.290   8.941 -0.2920  0.1778  0.4207
  766MOL0     C 3307   8.993  -0.246   9.073 -0.0810 -0.2150  0.5308
  766MOL0     C 3308   8.909  -0.294   9.175  0.5742 -0.5259  0.1862
  766MOL0     C 3309   8.947  -0.255   9.306  0.1383 -0.3496 -0.2546
  766MOL0     C 3310   9.061  -0.188   9.346 -0.5763  0.2122  0.4310
  766MOL0     O 3311   9.081  -0.165   9.477 -1.0572  0.9335  0.4172
  766MOL0     C 3312   9.164  -0.051   9.505  0.2574 -0.2294 -0.2966
  766MOL0     C 3313   9.197  -0.013   9.647 -1.0590  0.4305 -0.4930
  766MOL0     C 3314   9.297  -0.111   9.703 -0.3490  0.1735 -0.2457
  766MOL0     C 3315   9.278  -0.149   9.844  0.1031 -0.7463  0.1860
  766MOL0     C 3316   9.389  -0.252   9.895  0.5256 -0.8154  0.3595
  766MOL0     C 3317   9.342  -0.326  10.015 -0.2663  0.2615 -0.2646
  766MOL0     C 3318   9.420  -0.459  10.040 -0.1506 -0.5146 -0.6115
  766MOL0     C 3319   9.364  -0.517  10.178 -0.6676  0.1036 -0.1727
  766MOL0    Cl 3320   9.446  -0.446  10.320  0.2534  0.5038  0.2421
  766MOL0     C 3321   9.133  -0.135   9.242 -1.3922 -0.0839 -0.2091
  766MOL0     C 3322   9.102  -0.155   9.104  0.2645  0.2002  0.3430
  766MOL0     O 3323   9.160  -0.402   8.927  0.3292 -0.5303 -0.5560
  766MOL0     C 3324   8.921  -0.333   8.661  0.9101  0.1740 -0.2305
  766MOL0     C 3325   8.896  -0.338   8.521 -0.0275 -0.1404 -0.1923
  766MOL0     N 3326   8.521  -0.292   7.952  0.1916 -0.6428 -0.3810
  766MOL0     N 3327   8.543  -0.211   7.844 -0.1656  0.0971 -0.0604
  766MOL0     C 3328   8.797   0.078   6.757  0.7135 -0.6045  1.0795
  766MOL0     C 3329   8.844   0.213   6.764 -0.0363  0.2996  1.0075
  766MOL0     C 3330   9.081   0.551   6.956  0.5683 -1.0657 -0.2189
  766MOL0     C 3331   9.042   0.642   6.855  0.2079 -0.1234  0.0403
  766MOL0     C 3332   9.110   0.764   6.837  0.2164 -0.0558  0.2052
  766MOL0     C 3333   9.228   0.801   6.901 -0.1840  0.6543  0.7313
  766MOL0     O 3334   9.295   0.923   6.870 -0.4936  0.6155 -0.9351
  766MOL0     C 3335   9.329   0.949   6.736  0.7464  0.1177 -0.3301
  766MOL0     C 3336   9.453   0.865   6.702  0.2264  0.3030  0.0106
  766MOL0     C 3337   9.573   0.892   6.789 -0.6070  0.1559 -1.1016
  766MOL0     C 3338   9.614   1.029   6.818 -0.5776 -0.7438 -0.4080
  766MOL0     C 3339   9.647   1.094   6.691  0.4209  0.3475 -0.0632
  766MOL0     C 3340   9.660   1.138   6.581 -0.8400  0.3388  0.0341
  766MOL0     C 3341   9.279   0.704   6.993  0.0446  0.7096 -0.0848
  766MOL0     C 3342   9.196   0.588   7.030  0.0667 -0.6155 -0.6361
  766MOL0     H 3343   8.747   0.276   7.086 -2.2328  0.7001  0.1310
  766MOL0     H 3344   8.658   0.053   7.058  1.0523 -1.9548 -1.0532
  766MOL0     H 3345   8.839  -0.244   6.787  1.2465 -0.5476 -0.3171
  766MOL0     H 3346   8.891  -0.167   6.935  0.7914 -1.0501 -2.0820
  766MOL0     H 3347   8.653  -0.365   6.912  0.1583 -1.1243  0.4534
  766MOL0     H 3348   8.801  -0.417   6.965 -3.3315 -2.4816  0.5997
  766MOL0     H 3349   8.720  -0.395   7.169 -4.4021  0.6807  2.3558
  766MOL0     H 3350   8.780  -0.225   7.155  0.0557  0.1304  0.7280
  766MOL0     H 3351   8.560  -0.146   7.121  0.3642 -0.1534  0.6938
  766MOL0     H 3352   8.494  -0.294   7.070 -0.2334  1.0714 -0.6300
  766MOL0     H 3353   8.429  -0.252   7.298 -2.0501 -1.2362 -0.8737
  766MOL0     H 3354   8.535  -0.392   7.308  0.2911  1.5391  3.1693
  766MOL0     H 3355   8.734  -0.245   7.381 -0.9079 -2.5308 -1.7371
  766MOL0     H 3356   8.623  -0.110   7.388  0.9712 -0.3290  2.1024
  766MOL0     H 3357   8.475  -0.221   7.546 -0.1070 -0.9210 -0.0909
  766MOL0     H 3358   8.564  -0.372   7.521  0.2835 -0.4879 -2.9092
  766MOL0     H 3359   8.668  -0.113   7.646  1.6437 -0.0638  0.2511
  766MOL0     H 3360   8.772  -0.261   7.606 -0.7526  0.9204 -2.3581
  766MOL0     H 3361   8.752  -0.457   7.790  0.4598 -0.0753 -0.1508
  766MOL0     H 3362   8.611  -0.444   8.149 -0.9471  1.0104 -1.5983
  766MOL0     H 3363   8.573  -0.575   8.033  0.2938 -1.4346 -0.5883
  766MOL0     H 3364   8.801  -0.588   7.955 -0.5159 -1.1877  0.2298
  766MOL0     H 3365   8.781  -0.632   8.128 -0.9241 -1.6563 -1.5221
  766MOL0     H 3366   8.898  -0.378   8.024  0.7249  1.4413  0.7922
  766MOL0     H 3367   8.983  -0.510   8.105 -1.1559 -1.2699 -2.0130
  766MOL0     H 3368   8.792  -0.431   8.291  0.0260  1.1866  1.0337
  766MOL0     H 3369   8.853  -0.289   8.219 -2.3306  0.0706  1.1704
  766MOL0     H 3370   9.144  -0.556   8.439 -2.2833 -1.1410 -1.4508
  766MOL0     H 3371   9.271  -0.634   8.611  0.2127  2.1591 -1.4198
  766MOL0     H 3372   9.319  -0.512   8.732  0.9378 -2.1579  2.3711
  766MOL0     H 3373   9.204  -0.627   8.775  2.0264  1.2731  0.7530
  766MOL0     H 3374   8.828  -0.361   9.148 -0.7239  1.3901 -0.9991
  766MOL0     H 3375   8.879  -0.275   9.389 -3.2880 -2.1447 -3.2086
  766MOL0     H 3376   9.259  -0.061   9.452  0.7412  1.2984  0.2105
  766MOL0     H 3377   9.108   0.026   9.451 -1.7029  0.2320  2.2044
  766MOL0     H 3378   9.256   0.079   9.646 -1.4263  0.6999  0.8007
  766MOL0     H 3379   9.104  -0.002   9.703 -0.1170  0.7678  1.0581
  766MOL0     H 3380   9.397  -0.069   9.688 -0.5883  0.1003 -2.3500
  766MOL0     H 3381   9.288  -0.206   9.648  2.7910  0.0151 -0.6611
  766MOL0     H 3382   9.275  -0.070   9.919 -0.5039 -0.6253  0.0423
  766MOL0     H 3383   9.178  -0.191   9.836  0.3552 -1.0249 -3.8229
  766MOL0     H 3384   9.476  -0.195   9.927 -2.4801  3.8109  1.1650
  766MOL0     H 3385   9.416  -0.315   9.810 -0.5172  0.8711 -1.2872
  766MOL0     H 3386   9.349  -0.256  10.100  0.6545  1.4450 -1.2760
  766MOL0     H 3387   9.235  -0.348  10.014 -1.2554  4.1130  1.4961
  766MOL0     H 3388   9.519  -0.414  10.046 -0.6584  0.5987 -0.0617
  766MOL0     H 3389   9.412  -0.531   9.958  0.3706  0.1586 -1.2666
  766MOL0     H 3390   9.354  -0.626  10.175 -0.1441  0.0698 -2.4463
  766MOL0     H 3391   9.264  -0.480  10.202 -0.2430  0.5447  0.9587
  766MOL0     H 3392   9.208  -0.058   9.256 -0.9945 -0.6421  0.8081
  766MOL0     H 3393   9.165  -0.115   9.025  1.1955  0.2904  1.1257
  766MOL0     H 3394   8.851  -0.271   8.717  2.6936  3.6566 -1.5532
  766MOL0     H 3395   8.813  -0.282   8.479  1.0123  0.3391 -1.6901
  766MOL0     H 3396   8.817   0.024   6.665  4.7661  0.2072  1.2964
  766MOL0     H 3397   8.891   0.257   6.677  0.8278 -3.3957 -0.5853
  766MOL0     H 3398   8.953   0.625   6.795 -0.7426 -2.9475  2.0656
  766MOL0     H 3399   9.062   0.827   6.762  0.0902  0.7655  0.9496
  766MOL0     H 3400   9.249   0.927   6.666 -0.5109 -0.4774  1.2235
  766MOL0     H 3401   9.353   1.055   6.727  4.7165 -0.7419 -2.0289
  766MOL0     H 3402   9.484   0.878   6.598  0.0797 -0.3912 -0.1242
  766MOL0     H 3403   9.428   0.760   6.718  2.9607 -0.4672 -0.2319
  766MOL0     H 3404   9.658   0.833   6.754  0.8493 -0.8252  3.3531
  766MOL0     H 3405   9.568   0.828   6.878  1.3381  0.8512 -0.4298
  766MOL0     H 3406   9.696   1.045   6.888 -1.3810  3.2650 -0.1646
  766MOL0     H 3407   9.526   1.067   6.870 -0.4992  0.1866 -0.9463
  766MOL0     H 3408   9.655   1.184   6.484 -2.4184  0.5050  0.1639
  766MOL0     H 3409   9.373   0.730   7.040  0.6503  1.8779 -1.8046
  766MOL0     H 3410   9.235   0.518   7.103 -0.7248 -2.8390 -2.2362
  767MOL0     O 3411   6.125   2.190  10.936  0.5981  0.7809 -0.3793
  767MOL0     C 3412   6.230   2.238  10.905  0.4613 -0.7994  0.2177
  767MOL0     O 3413   6.289   2.235  10.781  0.4252 -0.0668 -0.0310
  767MOL0     C 3414   6.236   2.174  10.671  0.7575  0.1018 -0.1433
  767MOL0     C 3415   6.292   2.197  10.543 -0.6406 -1.2762  0.9028
  767MOL0     C 3416   6.264   2.121  10.433  1.0614 -0.0148 -0.0064
  767MOL0     C 3417   6.164   2.026  10.432 -0.2898 -0.2264 -0.3083
  767MOL0     O 3418   6.148   1.946  10.327  0.2024  0.2059 -0.3666
  767MOL0     C 3419   6.167   1.806  10.365  0.8755 -0.5200 -0.1683
  767MOL0     C 3420   6.302   1.748  10.322  0.0752  0.8430  0.5638
  767MOL0     C 3421   6.292   1.595  10.331  0.0837  0.2798  0.0102
  767MOL0     C 3422   6.426   1.532  10.346  0.1676  0.6335 -0.2570
  767MOL0     C 3423   6.417   1.376  10.354  0.0890 -0.2444 -0.5533
  767MOL0     C 3424   6.340   1.317  10.468 -0.0265 -0.0700 -1.2029
  767MOL0     C 3425   6.345   1.163  10.478 -0.0308  0.8048  0.6024
  767MOL0     C 3426   6.230   1.109  10.389  0.8590  0.9009 -0.1323
  767MOL0     N 3427   6.269   0.989  10.320  0.8376  0.4974 -0.4366
  767MOL0     C 3428   6.236   0.857  10.355 -1.1302 -0.3581  0.0212
  767MOL0     C 3429   6.300   0.772  10.273 -0.1501 -0.4148 -0.5109
  767MOL0     C 3430   6.290   0.625  10.290 -0.9413  0.1200 -0.8028
  767MOL0     C 3431   6.151   0.585  10.291 -1.1746 -0.7606  0.3590
  767MOL0     C 3432   6.129   0.438  10.336  0.7727 -0.7018  0.5414
  767MOL0     C 3433   6.125   0.427  10.489  0.0470  0.1842  0.2360
  767MOL0     O 3434   6.257   0.405  10.542  0.6360 -0.0458 -0.1881
  767MOL0     C 3435   6.261   0.410  10.680 -0.4329 -1.0214 -0.8959
  767MOL0     C 3436   6.158   0.454  10.764 -0.0773  0.5468  0.7179
  767MOL0     C 3437   6.182   0.474  10.899 -0.0209  0.5280  0.2309
  767MOL0     C 3438   6.060   0.533  10.967 -1.0332 -0.6649 -0.5620
  767MOL0     C 3439   6.299   0.446  10.968  1.0240  0.8440  0.3479
  767MOL0     C 3440   6.323   0.477  11.111 -0.8607  0.4752 -0.7461
  767MOL0     O 3441   6.231   0.519  11.195 -0.0176 -0.0510  0.2139
  767MOL0     C 3442   6.258   0.535  11.331  0.8217 -0.3456  0.1120
  767MOL0     C 3443   6.184   0.470  11.434 -0.8068  0.8984  0.5396
  767MOL0     C 3444   6.223   0.478  11.567 -0.3587 -0.8616 -0.6046
  767MOL0     C 3445   6.330   0.570  11.601 -0.3761 -0.0395 -0.1760
  767MOL0     O 3446   6.367   0.592  11.732 -0.9520  0.6461  0.1001
  767MOL0     C 3447   6.503   0.598  11.769 -0.3221 -0.3448 -0.1539
  767MOL0     C 3448   6.529   0.716  11.859  0.6886  0.8323 -0.2326
  767MOL0     C 3449   6.672   0.717  11.911 -0.4104 -0.0949  0.6558
  767MOL0     C 3450   6.678   0.841  11.992  0.2875 -0.5121 -0.4628
  767MOL0     C 3451   6.817   0.860  12.050  0.2839 -0.1178 -0.3025
  767MOL0     C 3452   6.831   0.983  12.141  0.3882 -0.7932  0.1362
  767MOL0     C 3453   6.980   1.019  12.174 -0.2161  0.7929  0.4812
  767MOL0     C 3454   6.980   1.147  12.263  0.1344  0.3236  0.2391
  767MOL0    Cl 3455   6.953   1.286  12.144  0.6578  0.7264 -0.5489
  767MOL0     C 3456   6.379   0.655  11.501  0.6658  1.0464  0.6183
  767MOL0     C 3457   6.349   0.634  11.372 -0.1087 -0.2445  0.8679
  767MOL0     O 3458   6.444   0.465  11.142  0.1099 -0.2352  0.2427
  767MOL0     C 3459   6.400   0.385  10.881  0.0797 -0.4217 -1.0010
  767MOL0     C 3460   6.375   0.369  10.748 -0.2432 -0.2114  1.3194
  767MOL0     N 3461   6.372   0.846  10.179 -0.5670  0.0475 -0.2937
  767MOL0     N 3462   6.353   0.970  10.211  0.1943  0.0863  0.1149
  767MOL0     C 3463   6.100   2.006  10.557 -0.6371  0.0981  0.6984
  767MOL0     C 3464   6.129   2.075  10.671  0.6547  0.6426 -1.3133
  767MOL0     C 3465   6.311   2.309  11.014 -0.5424  0.3534 -0.5194
  767MOL0     C 3466   6.446   2.351  10.992  0.6414  0.1015 -0.3699
  767MOL0     C 3467   6.502   2.409  11.105  0.0806 -0.6278  0.0283
  767MOL0     C 3468   6.439   2.438  11.225  0.0612 -0.7328 -0.2533
  767MOL0     O 3469   6.511   2.502  11.321  0.2880  0.1008 -0.0735
  767MOL0     C 3470   6.458   2.493  11.453 -0.5695  0.0165  0.5640
  767MOL0     C 3471   6.559   2.563  11.547  1.0198  0.0744 -0.0037
  767MOL0     C 3472   6.560   2.711  11.492 -0.8262 -0.2399 -0.2766
  767MOL0     C 3473   6.618   2.824  11.570  0.8219 -0.5248 -0.1280
  767MOL0     C 3474   6.752   2.771  11.620  0.4884  0.2766  0.3335
  767MOL0     C 3475   6.858   2.735  11.667  0.4302 -0.9197  0.0629
  767MOL0     C 3476   6.301   2.395  11.237 -0.6357  0.0828 -0.0036
  767MOL0     C 3477   6.246   2.327  11.136 -0.6342 -0.4431 -0.9626
  767MOL0     H 3478   6.365   2.276  10.532  0.3874 -1.9513  2.5118
  767MOL0     H 3479   6.310   2.131  10.335  3.0765  1.3488  1.0120
  767MOL0     H 3480   6.170   1.796  10.474  2.5875  1.0089 -0.0309
  767MOL0     H 3481   6.092   1.744  10.315 -0.1520  3.4348 -4.2263
  767MOL0     H 3482   6.324   1.774  10.218  0.2907 -0.2338  0.3264
  767MOL0     H 3483   6.385   1.783  10.383 -0.6723 -0.0664  2.1597
  767MOL0     H 3484   6.232   1.563  10.417  0.5133 -2.3181 -0.5676
  767MOL0     H 3485   6.232   1.560  10.246  1.2061  0.0650 -0.7129
  767MOL0     H 3486   6.490   1.548  10.259 -0.6384 -0.7281 -1.1298
  767MOL0     H 3487   6.480   1.566  10.435 -0.3238  0.4083  0.1370
  767MOL0     H 3488   6.360   1.332  10.271 -2.3417  1.0037  0.3411
  767MOL0     H 3489   6.520   1.339  10.352 -0.8450 -3.0993 -3.2159
  767MOL0     H 3490   6.381   1.377  10.550  1.2022 -0.2064 -1.6919
  767MOL0     H 3491   6.233   1.335  10.454 -0.9500 -2.3240  1.8864
  767MOL0     H 3492   6.444   1.121  10.456 -0.7319 -1.1444  0.9959
  767MOL0     H 3493   6.315   1.138  10.580  0.0905  1.1739  0.7330
  767MOL0     H 3494   6.204   1.173  10.304  0.4320 -1.5225 -1.9778
  767MOL0     H 3495   6.141   1.094  10.451  0.1615  1.3786 -0.9913
  767MOL0     H 3496   6.176   0.824  10.439 -0.7906  0.6468  0.6697
  767MOL0     H 3497   6.346   0.570  10.213 -0.4145  0.3071 -0.5642
  767MOL0     H 3498   6.338   0.580  10.378 -3.3556 -1.2370 -0.1011
  767MOL0     H 3499   6.109   0.604  10.192 -1.6424 -0.1704  0.6653
  767MOL0     H 3500   6.090   0.651  10.353  0.8238 -0.9704  2.6911
  767MOL0     H 3501   6.206   0.375  10.292  1.6324  0.3630  0.4743
  767MOL0     H 3502   6.034   0.404  10.294  1.0434 -3.1195  1.6945
  767MOL0     H 3503   6.069   0.334  10.505  1.8918 -0.8074  1.1627
  767MOL0     H 3504   6.075   0.517  10.528  0.7950 -0.2180  2.2569
  767MOL0     H 3505   6.060   0.464  10.719  1.0324  0.9105 -1.7879
  767MOL0     H 3506   6.021   0.460  11.039  1.4816  0.0252  1.6790
  767MOL0     H 3507   6.090   0.628  11.014  0.2097 -0.5919 -1.4544
  767MOL0     H 3508   5.986   0.571  10.897  1.5411  2.1289 -2.0159
  767MOL0     H 3509   6.120   0.398  11.384  0.9101 -0.0941 -0.3226
  767MOL0     H 3510   6.167   0.420  11.639 -0.6382  0.6779  0.4653
  767MOL0     H 3511   6.525   0.508  11.828 -0.3106 -0.7810 -0.8070
  767MOL0     H 3512   6.568   0.596  11.681 -0.9910 -0.1688 -0.6623
  767MOL0     H 3513   6.504   0.814  11.817  3.1300  1.4859 -0.2774
  767MOL0     H 3514   6.455   0.686  11.935 -2.5977  1.1107 -3.0888
  767MOL0     H 3515   6.740   0.726  11.826  0.7356 -3.4667  1.0630
  767MOL0     H 3516   6.701   0.630  11.971 -0.2871  0.9983  2.2398
  767MOL0     H 3517   6.646   0.932  11.940 -0.1316 -0.3152  0.1254
  767MOL0     H 3518   6.604   0.852  12.072 -2.2440  1.7555 -2.9087
  767MOL0     H 3519   6.893   0.870  11.972 -0.1221 -1.8538 -0.9619
  767MOL0     H 3520   6.842   0.779  12.119  0.2540 -0.5715 -0.8239
  767MOL0     H 3521   6.787   1.068  12.089  1.0791 -0.0701  0.7191
  767MOL0     H 3522   6.779   0.964  12.235  1.7628  0.2493  1.1411
  767MOL0     H 3523   7.047   1.045  12.092  0.1001  0.7566  0.7282
  767MOL0     H 3524   7.021   0.933  12.227 -5.7073 -3.2718 -0.9791
  767MOL0     H 3525   7.078   1.157  12.311 -0.6677 -0.7908  2.2394
  767MOL0     H 3526   6.900   1.163  12.337 -1.4895  1.2080 -1.6243
  767MOL0     H 3527   6.456   0.727  11.525  1.3802  1.3238 -2.1390
  767MOL0     H 3528   6.398   0.688  11.291 -1.6266 -2.2697 -1.5717
  767MOL0     H 3529   6.496   0.357  10.924  0.4114 -0.2535 -1.6080
  767MOL0     H 3530   6.459   0.339  10.685 -1.6887  1.4220 -1.5711
  767MOL0     H 3531   6.026   1.927  10.563 -1.3250  0.7393  0.8840
  767MOL0     H 3532   6.083   2.035  10.760  3.7785 -2.8218 -0.9956
  767MOL0     H 3533   6.500   2.340  10.899  1.8556 -3.3103  0.5753
  767MOL0     H 3534   6.606   2.437  11.093  0.2663 -1.1588  0.3711
  767MOL0     H 3535   6.359   2.539  11.463 -1.0996 -1.2011  1.1564
  767MOL0     H 3536   6.444   2.390  11.488 -2.1882  0.9447  2.9272
  767MOL0     H 3537   6.659   2.520  11.532  1.9036  1.8735  0.4476
  767MOL0     H 3538   6.515   2.548  11.646 -1.1145 -1.2424 -1.0894
  767MOL0     H 3539   6.464   2.745  11.452 -0.5961  0.5532 -0.1604
  767MOL0     H 3540   6.618   2.720  11.400  1.3360  0.0972  1.0383
  767MOL0     H 3541   6.543   2.842  11.647  0.1504 -1.9885 -0.4056
  767MOL0     H 3542   6.628   2.917  11.512  0.9485  0.6352  1.6777
  767MOL0     H 3543   6.948   2.711  11.720  2.6046  1.6291 -2.1211
  767MOL0     H 3544   6.240   2.402  11.327  0.7102  3.1286  0.8192
  767MOL0     H 3545   6.147   2.289  11.159 -0.5803 -0.9149 -1.4793
  768MOL0     O 3546   4.139   9.399   9.603  0.0569 -0.4798  0.2885
  768MOL0     C 3547   4.193   9.307   9.543  0.0510 -0.4649  0.6296
  768MOL0     O 3548   4.168   9.179   9.553 -0.6782  0.4759  0.2449
  768MOL0     C 3549   4.051   9.113   9.588  0.0335 -0.3333 -0.3250
  768MOL0     C 3550   3.940   9.169   9.644  0.7767  0.4424 -0.3098
  768MOL0     C 3551   3.825   9.092   9.687 -0.0068  0.6465 -0.5821
  768MOL0     C 3552   3.835   8.953   9.669 -0.0878  1.3273 -0.3630
  768MOL0     O 3553   3.719   8.900   9.709 -0.0741 -0.0517 -0.9550
  768MOL0     C 3554   3.723   8.779   9.792 -0.0748  0.2520  0.6170
  768MOL0     C 3555   3.744   8.810   9.941  0.0962 -0.8739 -0.7866
  768MOL0     C 3556   3.882   8.866   9.987 -1.4190  0.3088  0.5254
  768MOL0     C 3557   4.017   8.788   9.954 -0.5398  0.5447  0.7678
  768MOL0     C 3558   3.997   8.641   9.961  0.1820  0.8031 -0.2639
  768MOL0     C 3559   4.122   8.553   9.929 -0.0288  0.0763  0.9218
  768MOL0     C 3560   4.107   8.401   9.946  0.6260  0.1201 -0.1100
  768MOL0     C 3561   4.245   8.326   9.914  0.2710 -0.1686 -0.3686
  768MOL0     N 3562   4.225   8.181   9.870  0.0523  0.6027  0.0392
  768MOL0     C 3563   4.241   8.077   9.958 -1.3390  0.4234  0.6773
  768MOL0     C 3564   4.254   7.967   9.882  0.5381  0.1408  0.5697
  768MOL0     C 3565   4.246   7.827   9.936  0.6719 -0.0295  0.1529
  768MOL0     C 3566   4.120   7.746   9.907  0.3806  0.1379  0.9710
  768MOL0     C 3567   4.150   7.606   9.933  0.2702  0.8087  0.1313
  768MOL0     C 3568   4.030   7.516   9.909 -0.4145  0.0456  0.6425
  768MOL0     O 3569   4.059   7.394   9.971 -0.1609 -0.0128  0.2329
  768MOL0     C 3570   3.967   7.296   9.962 -0.0500  0.7042 -0.1290
  768MOL0     C 3571   3.832   7.318   9.920  0.5002  0.0829  0.4909
  768MOL0     C 3572   3.737   7.206   9.928 -0.6009 -0.8604  0.3678
  768MOL0     C 3573   3.598   7.240   9.853 -0.2104 -0.6152 -0.5714
  768MOL0     C 3574   3.778   7.078   9.976 -0.2132  0.1833  0.3419
  768MOL0     C 3575   3.676   6.965   9.984  0.1302  0.2721  0.0787
  768MOL0     O 3576   3.721   6.856  10.052 -0.1395 -0.1023 -0.4466
  768MOL0     C 3577   3.649   6.739  10.046 -0.5816 -0.0622 -0.2157
  768MOL0     C 3578   3.611   6.671  10.163  0.7525 -0.2409 -0.3677
  768MOL0     C 3579   3.529   6.560  10.169  0.2897  0.0961 -0.1000
  768MOL0     C 3580   3.466   6.511  10.050  0.1922  0.3942  0.2391
  768MOL0     O 3581   3.359   6.419  10.057 -0.6618  0.7199  0.1662
  768MOL0     C 3582   3.306   6.381  10.184 -0.3879  0.2253  0.1114
  768MOL0     C 3583   3.167   6.306  10.158  0.3921  1.0788  0.1940
  768MOL0     C 3584   3.190   6.164  10.103  0.7741 -0.8395 -0.8374
  768MOL0     C 3585   3.044   6.106  10.083  0.6147  0.7362  0.9479
  768MOL0     C 3586   3.034   5.969  10.009 -0.4641  0.3736  0.6181
  768MOL0     C 3587   2.973   5.984   9.868 -1.3511 -0.1921 -0.1738
  768MOL0     C 3588   2.968   5.842   9.804  0.7784 -0.1853 -0.1608
  768MOL0     C 3589   2.976   5.848   9.652 -0.2705 -0.0113  0.2868
  768MOL0    Cl 3590   2.880   5.981   9.588 -0.2175 -0.3481 -0.0811
  768MOL0     C 3591   3.506   6.565   9.925  0.3449 -0.0799 -0.1012
  768MOL0     C 3592   3.588   6.680   9.933  0.1037  0.1885  0.5438
  768MOL0     O 3593   3.563   6.975   9.920  0.2010  0.0681 -0.0930
  768MOL0     C 3594   3.911   7.064  10.013 -0.4789 -0.5980  0.6919
  768MOL0     C 3595   4.006   7.166  10.000  0.4514 -0.0176  0.2758
  768MOL0     N 3596   4.243   8.009   9.754 -0.8783 -0.8765  0.4335
  768MOL0     N 3597   4.232   8.137   9.741  0.6377 -0.0069  1.0916
  768MOL0     C 3598   3.945   8.899   9.608 -0.1356 -0.0382  0.0532
  768MOL0     C 3599   4.048   8.973   9.564  0.6962 -0.1570 -0.1695
  768MOL0     C 3600   4.322   9.335   9.478 -0.0596 -0.4912  0.6472
  768MOL0     C 3601   4.378   9.245   9.383 -0.8975 -0.4385 -0.6556
  768MOL0     C 3602   4.505   9.265   9.329 -0.1507 -0.4298 -0.3571
  768MOL0     C 3603   4.575   9.386   9.351  0.0574 -0.1660 -0.3009
  768MOL0     O 3604   4.694   9.413   9.288  0.1055 -0.2634 -0.3993
  768MOL0     C 3605   4.694   9.389   9.142  0.5799 -0.4354 -0.7128
  768MOL0     C 3606   4.642   9.511   9.066 -0.3410 -0.1342 -1.0825
  768MOL0     C 3607   4.717   9.531   8.926  0.1089 -0.8174  0.5700
  768MOL0     C 3608   4.835   9.632   8.942 -0.1849 -0.2342  1.2119
  768MOL0     C 3609   4.916   9.647   8.814  0.2698 -0.7207 -0.6929
  768MOL0     C 3610   4.987   9.655   8.714 -0.2268  0.0414 -0.3813
  768MOL0     C 3611   4.520   9.472   9.435  0.4398  0.0408  0.1659
  768MOL0     C 3612   4.398   9.457   9.507 -0.0912 -0.0325 -0.5053
  768MOL0     H 3613   3.938   9.278   9.651 -2.4154  0.4718 -0.1922
  768MOL0     H 3614   3.735   9.137   9.728 -0.0890 -1.0915  1.3018
  768MOL0     H 3615   3.622   8.741   9.776 -0.6287  0.6878  2.8407
  768MOL0     H 3616   3.797   8.705   9.757  0.4292  2.4728 -3.6511
  768MOL0     H 3617   3.657   8.858   9.986  0.1600 -2.1650  0.8057
  768MOL0     H 3618   3.739   8.714   9.993  0.0336 -1.4538 -1.8335
  768MOL0     H 3619   3.891   8.968   9.948  2.6379  0.8066  2.2525
  768MOL0     H 3620   3.884   8.885  10.095  0.9193  0.4656  0.5200
  768MOL0     H 3621   4.050   8.819   9.855 -3.6044 -2.4250 -1.4316
  768MOL0     H 3622   4.098   8.805  10.025  1.0918 -4.8765  0.7155
  768MOL0     H 3623   3.960   8.612  10.060  1.1506 -2.3179 -0.7006
  768MOL0     H 3624   3.925   8.607   9.886 -0.6558 -0.7620  1.1855
  768MOL0     H 3625   4.152   8.581   9.827  1.3649  0.6706  1.4644
  768MOL0     H 3626   4.199   8.591   9.997  0.6202  1.0339 -0.3078
  768MOL0     H 3627   4.071   8.376  10.046 -0.4256 -0.8255 -0.6881
  768MOL0     H 3628   4.027   8.371   9.876  1.4267  1.4594 -1.6712
  768MOL0     H 3629   4.309   8.335  10.002  2.4386 -1.6571 -1.6831
  768MOL0     H 3630   4.309   8.376   9.841  0.8083  0.7741  0.7160
  768MOL0     H 3631   4.235   8.075  10.066 -0.6422  3.8603  0.8984
  768MOL0     H 3632   4.331   7.767   9.900  0.3986  0.0390 -0.6265
  768MOL0     H 3633   4.250   7.820  10.045  0.2744 -2.4474  0.0670
  768MOL0     H 3634   4.087   7.742   9.803  0.1073  0.3790  1.0474
  768MOL0     H 3635   4.037   7.775   9.973 -0.2428  1.5597 -0.3673
  768MOL0     H 3636   4.189   7.587  10.034 -2.4229 -0.3933  1.0367
  768MOL0     H 3637   4.223   7.557   9.868 -1.2373 -2.1487  0.4615
  768MOL0     H 3638   4.020   7.509   9.801  0.8592  2.6887  0.2576
  768MOL0     H 3639   3.946   7.561   9.962 -0.1307  1.0110  0.2939
  768MOL0     H 3640   3.795   7.412   9.880 -0.1750 -1.2039 -2.1863
  768MOL0     H 3641   3.508   7.186   9.884  2.1665 -4.0121  1.0810
  768MOL0     H 3642   3.583   7.345   9.878  2.1254  0.2479 -2.3927
  768MOL0     H 3643   3.606   7.238   9.744 -1.7030 -1.2278 -0.6903
  768MOL0     H 3644   3.651   6.704  10.259 -0.4206 -0.4416  0.2094
  768MOL0     H 3645   3.499   6.518  10.264 -1.1757 -2.0883 -1.4308
  768MOL0     H 3646   3.380   6.316  10.232 -0.9700 -1.1716 -0.8223
  768MOL0     H 3647   3.284   6.463  10.254 -1.1115 -0.7779  1.0994
  768MOL0     H 3648   3.092   6.307  10.238 -1.2664  2.1262 -1.2818
  768MOL0     H 3649   3.118   6.370  10.083 -0.2405  0.0143 -0.3286
  768MOL0     H 3650   3.238   6.103  10.179  0.1995 -4.1266 -2.8802
  768MOL0     H 3651   3.249   6.165  10.011 -1.5693 -3.8253 -2.5856
  768MOL0     H 3652   2.978   6.106  10.170 -2.2697  0.0143 -1.0632
  768MOL0     H 3653   2.998   6.183  10.019 -2.3269  0.0463  2.0514
  768MOL0     H 3654   2.985   5.889  10.066  0.8756 -2.3572 -1.7506
  768MOL0     H 3655   3.134   5.924  10.005 -0.7308 -0.2270  0.5211
  768MOL0     H 3656   2.869   6.016   9.876 -1.7245 -1.2197 -0.6721
  768MOL0     H 3657   3.033   6.046   9.801 -2.7896  1.0520 -0.3528
  768MOL0     H 3658   2.867   5.815   9.836  1.4722 -1.1796  1.3277
  768MOL0     H 3659   3.039   5.766   9.838  1.1182  0.6441  1.0674
  768MOL0     H 3660   2.932   5.754   9.616  0.8431 -0.4403  0.0227
  768MOL0     H 3661   3.079   5.834   9.620 -0.1807 -2.2291  1.3501
  768MOL0     H 3662   3.468   6.531   9.830 -1.0207  0.2892  0.2888
  768MOL0     H 3663   3.616   6.723   9.837  4.3650 -1.7065  0.7297
  768MOL0     H 3664   3.943   6.969  10.055 -1.7264 -2.2727 -1.8890
  768MOL0     H 3665   4.113   7.145  10.006  0.4456 -1.2261 -2.4968
  768MOL0     H 3666   3.951   8.792   9.593 -1.0725  0.2110 -2.6347
  768MOL0     H 3667   4.131   8.923   9.516  0.0732 -0.5877 -0.8383
  768MOL0     H 3668   4.330   9.150   9.364  2.1817 -2.9245  2.5454
  768MOL0     H 3669   4.535   9.187   9.259 -2.5623 -0.4042 -1.5134
  768MOL0     H 3670   4.800   9.379   9.116  2.6118  3.6720  4.3404
  768MOL0     H 3671   4.639   9.298   9.120 -1.7126  1.0028 -1.2843
  768MOL0     H 3672   4.673   9.599   9.122  0.6022 -1.1352  0.0026
  768MOL0     H 3673   4.532   9.508   9.068 -0.4639  1.7130 -2.5244
  768MOL0     H 3674   4.657   9.555   8.838  0.9601  0.3871  0.2981
  768MOL0     H 3675   4.753   9.432   8.896 -1.6261 -1.7883  1.4858
  768MOL0     H 3676   4.893   9.598   9.028 -0.3035 -0.9990  0.9930
  768MOL0     H 3677   4.798   9.732   8.967 -2.0606 -1.1415  2.2781
  768MOL0     H 3678   5.059   9.636   8.637 -1.5063  1.6563 -2.0724
  768MOL0     H 3679   4.565   9.570   9.430  2.2361 -0.7094  0.8224
  768MOL0     H 3680   4.372   9.542   9.569  2.4591  1.3601 -1.1692
  769MOL0     O 3681   6.590   7.432   6.991 -0.0141  0.1045 -0.2928
  769MOL0     C 3682   6.603   7.309   7.010 -0.4604 -0.2332  0.4410
  769MOL0     O 3683   6.508   7.210   6.996  0.3398 -0.5098 -0.4545
  769MOL0     C 3684   6.391   7.228   6.922 -0.4686  0.2499 -0.2814
  769MOL0     C 3685   6.316   7.347   6.922  0.0665  0.4145 -0.0947
  769MOL0     C 3686   6.195   7.353   6.858 -0.7234 -0.0749  0.3994
  769MOL0     C 3687   6.159   7.251   6.772 -0.8385  0.3638 -0.2175
  769MOL0     O 3688   6.048   7.279   6.697  0.5804 -0.6289  0.0403
  769MOL0     C 3689   5.988   7.178   6.618  0.2060  0.1674 -1.0184
  769MOL0     C 3690   5.901   7.251   6.514  0.9342 -0.1640 -0.6617
  769MOL0     C 3691   5.810   7.143   6.463  0.4980  0.3480 -0.4137
  769MOL0     C 3692   5.704   7.199   6.363  0.0348 -0.6496  1.0582
  769MOL0     C 3693   5.635   7.100   6.280  0.4580  0.0600  0.3504
  769MOL0     C 3694   5.541   7.159   6.177  0.4913  0.5123  0.8306
  769MOL0     C 3695   5.475   7.047   6.103  0.2349  0.1737  0.4245
  769MOL0     C 3696   5.399   7.107   5.986 -0.5985  0.0438  0.3552
  769MOL0     N 3697   5.316   7.015   5.912 -0.6285 -1.0354 -0.2382
  769MOL0     C 3698   5.235   7.083   5.819  0.0162 -0.2756  0.3109
  769MOL0     C 3699   5.218   6.997   5.716  0.7831 -0.6255 -0.0957
  769MOL0     C 3700   5.132   7.038   5.599  0.2775  0.6512 -1.3580
  769MOL0     C 3701   5.028   7.155   5.607  0.5628  0.1419 -0.3645
  769MOL0     C 3702   4.994   7.197   5.462  0.1459 -0.1637  0.1462
  769MOL0     C 3703   4.888   7.301   5.444  0.5168 -0.0147  0.5749
  769MOL0     O 3704   4.755   7.266   5.482  0.8100  0.0954  0.7315
  769MOL0     C 3705   4.666   7.194   5.404 -0.7417  0.4184  0.1329
  769MOL0     C 3706   4.544   7.154   5.462  0.8580 -0.8364  0.1883
  769MOL0     C 3707   4.448   7.086   5.378  0.2427  0.4361  0.6187
  769MOL0     C 3708   4.322   7.039   5.440  0.2962 -0.9056 -0.0561
  769MOL0     C 3709   4.482   7.068   5.237  0.1233  0.3844 -0.3388
  769MOL0     C 3710   4.382   7.025   5.137  0.6792 -0.0050  0.6893
  769MOL0     O 3711   4.258   7.099   5.139 -0.7223 -0.5664 -0.2210
  769MOL0     C 3712   4.140   7.044   5.103 -0.7545 -0.3380  0.4518
  769MOL0     C 3713   4.114   6.916   5.041 -0.2843 -0.6829  0.3583
  769MOL0     C 3714   3.984   6.873   5.019 -0.8244  0.1481 -0.0781
  769MOL0     C 3715   3.871   6.948   5.058 -0.8222 -0.1933 -0.9128
  769MOL0     O 3716   3.740   6.919   5.041  0.2505 -0.4374 -0.2612
  769MOL0     C 3717   3.695   6.790   5.046  0.8212 -0.6566 -0.0461
  769MOL0     C 3718   3.673   6.747   5.195 -0.0120 -0.0344  0.3359
  769MOL0     C 3719   3.739   6.617   5.237  0.8743 -0.3937  0.4383
  769MOL0     C 3720   3.700   6.582   5.381  0.5389 -0.1764  0.3626
  769MOL0     C 3721   3.756   6.445   5.434  0.5534  0.1544  0.4496
  769MOL0     C 3722   3.901   6.457   5.469  0.0530 -0.5179 -0.3698
  769MOL0     C 3723   3.978   6.332   5.523  0.5717  0.9252 -0.4352
  769MOL0     C 3724   4.122   6.313   5.463  0.1013 -0.7469  0.5673
  769MOL0    Cl 3725   4.097   6.255   5.290 -0.0650 -0.5341 -0.2423
  769MOL0     C 3726   3.901   7.077   5.117  0.0096  0.5812  0.0187
  769MOL0     C 3727   4.023   7.122   5.143 -1.1861 -0.9491 -0.6491
  769MOL0     O 3728   4.411   6.918   5.078 -0.2736 -0.1987  0.9566
  769MOL0     C 3729   4.612   7.102   5.194 -0.1825  0.7453 -0.6572
  769MOL0     C 3730   4.710   7.152   5.272 -0.9949 -1.1006 -0.3830
  769MOL0     N 3731   5.295   6.884   5.736 -0.8657  0.1192 -0.2815
  769MOL0     N 3732   5.359   6.902   5.855  0.3436  0.1617 -0.0801
  769MOL0     C 3733   6.250   7.135   6.760  0.1895  0.4595 -0.4263
  769MOL0     C 3734   6.359   7.118   6.844 -0.8239 -0.0003 -0.7214
  769MOL0     C 3735   6.723   7.270   7.082 -0.4910 -0.3231  0.4926
  769MOL0     C 3736   6.764   7.132   7.085  0.2731  0.4482 -0.1733
  769MOL0     C 3737   6.878   7.100   7.159  0.0147 -0.3682  0.1856
  769MOL0     C 3738   6.960   7.194   7.227  0.4101  0.8385  0.4696
  769MOL0     O 3739   7.076   7.148   7.292  0.3830 -0.8267 -0.1114
  769MOL0     C 3740   7.158   7.234   7.373  0.2727 -0.4634 -0.4806
  769MOL0     C 3741   7.120   7.248   7.524  0.7023  0.4490  0.6064
  769MOL0     C 3742   7.010   7.160   7.571  0.0954 -0.2207  0.6056
  769MOL0     C 3743   6.972   7.199   7.715 -0.2313  0.0962 -0.0754
  769MOL0     C 3744   6.929   7.342   7.717 -0.5078 -0.9579  0.0810
  769MOL0     C 3745   6.881   7.456   7.717 -0.3208 -0.1490  1.0104
  769MOL0     C 3746   6.918   7.330   7.217 -0.8607  1.0847 -0.4139
  769MOL0     C 3747   6.804   7.367   7.147 -0.5059 -0.0177  0.3621
  769MOL0     H 3748   6.352   7.430   6.983  0.5458  0.7463 -0.8193
  769MOL0     H 3749   6.139   7.446   6.864  0.1463  0.4294  0.7757
  769MOL0     H 3750   6.061   7.111   6.572 -0.7465 -3.2582  1.9527
  769MOL0     H 3751   5.930   7.112   6.684 -0.1187  0.0794 -1.3905
  769MOL0     H 3752   5.849   7.331   6.568  1.3031 -1.3531  1.6120
  769MOL0     H 3753   5.959   7.309   6.443  1.2767  0.1932 -0.0960
  769MOL0     H 3754   5.860   7.050   6.435  0.1387  0.1855 -0.5156
  769MOL0     H 3755   5.744   7.109   6.543  0.3880 -2.2854 -1.5537
  769MOL0     H 3756   5.629   7.253   6.421 -2.3938 -1.0620 -1.5039
  769MOL0     H 3757   5.739   7.280   6.299  1.5880 -0.2888  2.3092
  769MOL0     H 3758   5.701   7.036   6.220 -0.4291  0.3111 -0.9417
  769MOL0     H 3759   5.578   7.033   6.344  2.2122 -1.3293  0.5405
  769MOL0     H 3760   5.461   7.214   6.228  1.4364 -0.4687  3.5681
  769MOL0     H 3761   5.610   7.221   6.120  3.1936 -2.8714  0.1031
  769MOL0     H 3762   5.547   6.975   6.063  3.9195  2.8380  1.6749
  769MOL0     H 3763   5.405   6.997   6.171 -2.2177  4.9293  1.8690
  769MOL0     H 3764   5.471   7.142   5.911 -0.8375  0.4441  0.3058
  769MOL0     H 3765   5.354   7.201   6.021  2.4047  0.8596  2.4128
  769MOL0     H 3766   5.195   7.180   5.843  0.6785 -0.2565  1.4373
  769MOL0     H 3767   5.201   7.048   5.515 -0.6316  1.9104 -1.9802
  769MOL0     H 3768   5.075   6.947   5.580 -1.1328  0.2063  3.6297
  769MOL0     H 3769   5.061   7.236   5.673 -2.2394  2.0950 -1.1285
  769MOL0     H 3770   4.935   7.120   5.653 -0.0695 -0.6874 -2.1635
  769MOL0     H 3771   4.957   7.106   5.414 -2.4987  1.2848 -0.7306
  769MOL0     H 3772   5.090   7.236   5.425  0.8194  1.4775  3.2544
  769MOL0     H 3773   4.891   7.330   5.338 -0.1156  1.3868  0.9198
  769MOL0     H 3774   4.919   7.392   5.495 -2.2069  0.7967  0.9906
  769MOL0     H 3775   4.514   7.188   5.560 -2.4264 -1.2815 -0.5260
  769MOL0     H 3776   4.332   7.018   5.547 -0.5417  0.6081  0.3529
  769MOL0     H 3777   4.250   7.121   5.438 -0.3886 -1.4618  0.8580
  769MOL0     H 3778   4.294   6.948   5.386  0.3264  1.4641 -4.5368
  769MOL0     H 3779   4.204   6.864   5.010  0.4650  0.8034 -0.0583
  769MOL0     H 3780   3.976   6.774   4.975  2.3909 -0.0849 -0.4065
  769MOL0     H 3781   3.604   6.779   4.985  0.5056 -1.8302  0.6169
  769MOL0     H 3782   3.759   6.722   4.989  0.8044 -0.8800  0.1995
  769MOL0     H 3783   3.720   6.824   5.258 -2.1615  1.1271  0.6235
  769MOL0     H 3784   3.565   6.745   5.210 -0.4240  2.7301 -1.4779
  769MOL0     H 3785   3.846   6.641   5.228  1.2163 -2.0029 -0.1106
  769MOL0     H 3786   3.718   6.529   5.175  0.9625  0.5366 -0.9721
  769MOL0     H 3787   3.723   6.662   5.453 -2.7385  1.2727 -0.0600
  769MOL0     H 3788   3.592   6.571   5.387 -0.0551  2.5835 -2.5494
  769MOL0     H 3789   3.735   6.375   5.353  1.6169  0.3136  0.0225
  769MOL0     H 3790   3.685   6.410   5.510 -0.1028  0.3054 -0.0864
  769MOL0     H 3791   3.948   6.477   5.372  0.2974 -1.0582 -0.3659
  769MOL0     H 3792   3.914   6.541   5.538  0.7517 -0.3697 -0.6748
  769MOL0     H 3793   3.922   6.239   5.504  1.3460  0.1987  0.7069
  769MOL0     H 3794   3.988   6.348   5.631  2.1842  2.2367 -0.7438
  769MOL0     H 3795   4.174   6.241   5.527  1.6689  0.9106  1.2742
  769MOL0     H 3796   4.179   6.406   5.467  2.6927 -2.1508 -1.2074
  769MOL0     H 3797   3.818   7.144   5.133 -1.5586 -1.7916  2.7291
  769MOL0     H 3798   4.021   7.210   5.206 -3.4199 -2.4387  1.5473
  769MOL0     H 3799   4.639   7.102   5.089  2.0876  0.0093 -0.1366
  769MOL0     H 3800   4.808   7.174   5.232  1.4170 -3.2536  3.6876
  769MOL0     H 3801   6.239   7.050   6.693  1.5583 -1.6519  1.8675
  769MOL0     H 3802   6.425   7.035   6.822 -1.5314 -0.3212 -1.7388
  769MOL0     H 3803   6.700   7.059   7.036  0.5750 -1.3431  1.9215
  769MOL0     H 3804   6.891   6.993   7.173 -2.5166 -0.7790 -0.1799
  769MOL0     H 3805   7.259   7.192   7.372  1.5698  2.4252  0.0401
  769MOL0     H 3806   7.168   7.334   7.331 -0.2571  0.0489  0.5704
  769MOL0     H 3807   7.087   7.352   7.531 -0.6768  0.1551 -0.9880
  769MOL0     H 3808   7.207   7.221   7.584  0.0886  0.0892  1.3438
  769MOL0     H 3809   7.038   7.055   7.557 -0.4116 -0.3748  0.7332
  769MOL0     H 3810   6.917   7.172   7.515  2.1880  0.4386 -3.1343
  769MOL0     H 3811   7.060   7.197   7.781 -0.9420  2.4073  1.0580
  769MOL0     H 3812   6.894   7.130   7.749 -1.6389  2.8092  2.7209
  769MOL0     H 3813   6.845   7.557   7.723 -2.7703 -1.0480  4.9885
  769MOL0     H 3814   6.966   7.415   7.265 -1.1005  1.5414 -0.9758
  769MOL0     H 3815   6.775   7.471   7.159 -2.6371 -0.5710  0.3341
  770MOL0     O 3816   3.438   4.977   7.375  0.9185 -1.1621  0.2879
  770MOL0     C 3817   3.358   4.888   7.370 -0.8760  0.9305 -0.2005
  770MOL0     O 3818   3.320   4.809   7.479  0.1592  0.1838  0.6295
  770MOL0     C 3819   3.376   4.828   7.601  0.1877 -1.3658  0.7986
  770MOL0     C 3820   3.290   4.842   7.710 -0.2333  0.0292  0.1208
  770MOL0     C 3821   3.342   4.843   7.838  0.6866  0.7784 -1.2695
  770MOL0     C 3822   3.483   4.848   7.858 -0.3803 -0.9331  0.8427
  770MOL0     O 3823   3.550   4.844   7.976  0.3856 -0.7621  0.2142
  770MOL0     C 3824   3.504   4.924   8.086 -1.1997 -0.0190  0.2027
  770MOL0     C 3825   3.622   4.936   8.186 -0.0613  0.4412 -0.8428
  770MOL0     C 3826   3.600   5.044   8.300  0.7427  1.0969  0.4694
  770MOL0     C 3827   3.550   5.179   8.240 -0.2181  0.5219  0.0995
  770MOL0     C 3828   3.579   5.284   8.351  0.7402 -0.3084 -0.5641
  770MOL0     C 3829   3.538   5.430   8.313  0.5429  0.6298  0.5474
  770MOL0     C 3830   3.396   5.453   8.357  0.5647 -1.3693 -0.2732
  770MOL0     C 3831   3.321   5.550   8.262  0.7795 -0.2765 -0.4117
  770MOL0     N 3832   3.173   5.530   8.254 -0.1334 -0.1655 -0.8575
  770MOL0     C 3833   3.092   5.520   8.362  0.9191 -0.9461 -0.0066
  770MOL0     C 3834   2.968   5.481   8.321 -0.0906  0.6348  1.2635
  770MOL0     C 3835   2.845   5.449   8.412  0.3721 -0.6239  0.8495
  770MOL0     C 3836   2.739   5.351   8.359  0.2847 -0.5720  0.4201
  770MOL0     C 3837   2.629   5.418   8.269 -0.1129 -0.5809  0.0880
  770MOL0     C 3838   2.681   5.452   8.131 -0.6892 -0.3428  0.2111
  770MOL0     O 3839   2.555   5.461   8.056 -0.6684  0.1037 -0.0361
  770MOL0     C 3840   2.547   5.572   7.968  0.4217 -0.2465  0.2883
  770MOL0     C 3841   2.647   5.662   7.921 -0.6819  0.8102 -0.0270
  770MOL0     C 3842   2.621   5.755   7.824 -0.2227 -0.0493  0.6820
  770MOL0     C 3843   2.736   5.818   7.756 -1.3934 -0.7741  0.3798
  770MOL0     C 3844   2.485   5.781   7.786  0.4668 -0.2317 -0.5097
  770MOL0     C 3845   2.455   5.892   7.690 -0.8190 -0.1193 -0.0071
  770MOL0     O 3846   2.350   5.868   7.601  0.2949  0.1429 -0.0451
  770MOL0     C 3847   2.318   5.951   7.489 -0.9512  0.1972 -0.5770
  770MOL0     C 3848   2.263   5.881   7.381  0.0341  0.0611  0.5959
  770MOL0     C 3849   2.231   5.948   7.264  0.6530 -0.4917 -0.2470
  770MOL0     C 3850   2.261   6.088   7.246 -0.4534  0.3299 -0.1850
  770MOL0     O 3851   2.235   6.129   7.117 -0.6814 -0.0304  0.2918
  770MOL0     C 3852   2.279   6.271   7.092  0.2373  0.2922  0.3796
  770MOL0     C 3853   2.416   6.261   7.028  0.3970  0.8437 -0.0803
  770MOL0     C 3854   2.506   6.350   7.101 -0.7132  0.4923 -0.2687
  770MOL0     C 3855   2.648   6.360   7.040  0.9843  0.2523 -0.2203
  770MOL0     C 3856   2.724   6.435   7.140 -0.1522 -0.1431 -0.1521
  770MOL0     C 3857   2.867   6.472   7.090 -0.1957 -0.3365  0.6535
  770MOL0     C 3858   2.934   6.565   7.190 -0.3927 -0.4035 -0.4054
  770MOL0     C 3859   3.078   6.560   7.176 -0.3588 -0.2877  1.1180
  770MOL0    Cl 3860   3.131   6.585   7.012  0.4755 -0.2931  0.1611
  770MOL0     C 3861   2.307   6.162   7.364  0.2985  0.4809  0.2971
  770MOL0     C 3862   2.330   6.093   7.486  0.2195 -0.3518 -0.3959
  770MOL0     O 3863   2.521   5.989   7.701  0.0987 -1.0834  0.5176
  770MOL0     C 3864   2.380   5.688   7.825 -0.5948  0.4097  0.7562
  770MOL0     C 3865   2.414   5.589   7.919  0.9774 -0.1423 -0.3104
  770MOL0     N 3866   2.990   5.449   8.183  0.1310 -0.4574 -0.5942
  770MOL0     N 3867   3.106   5.488   8.149 -0.5093 -0.4990 -0.0515
  770MOL0     C 3868   3.559   4.836   7.746 -0.5121  0.2547 -0.0419
  770MOL0     C 3869   3.511   4.822   7.619 -0.2610  0.1675  0.7619
  770MOL0     C 3870   3.323   4.837   7.232  0.7673 -0.1572  0.4474
  770MOL0     C 3871   3.354   4.916   7.115  0.3802 -0.7680  0.3162
  770MOL0     C 3872   3.312   4.874   6.986  0.0986  0.4258 -0.2673
  770MOL0     C 3873   3.244   4.749   6.973  0.1207 -0.8352 -0.6920
  770MOL0     O 3874   3.209   4.696   6.852 -0.6332  0.4756  0.0520
  770MOL0     C 3875   3.115   4.773   6.772 -0.6247 -0.8004 -0.8738
  770MOL0     C 3876   3.149   4.769   6.627 -0.9287 -0.3615  0.5861
  770MOL0     C 3877   3.111   4.630   6.557 -0.2106 -0.0621  0.1210
  770MOL0     C 3878   3.128   4.624   6.395  0.0151 -0.3330 -0.3857
  770MOL0     C 3879   3.261   4.645   6.355 -0.0757  1.1765 -0.2604
  770MOL0     C 3880   3.378   4.668   6.340  1.0010  0.3440 -0.0063
  770MOL0     C 3881   3.202   4.683   7.092  0.1780 -0.1510  0.6981
  770MOL0     C 3882   3.244   4.725   7.216 -0.4685 -0.0770  0.9386
  770MOL0     H 3883   3.185   4.843   7.682  0.5097 -0.5253 -2.9658
  770MOL0     H 3884   3.267   4.844   7.916 -1.2474 -2.2245 -2.8664
  770MOL0     H 3885   3.477   5.023   8.049 -1.8044  0.2899  1.4287
  770MOL0     H 3886   3.415   4.874   8.124 -1.7073 -0.6787 -1.7213
  770MOL0     H 3887   3.642   4.846   8.243  0.2691  0.7517 -0.4672
  770MOL0     H 3888   3.714   4.961   8.133  2.3388 -3.1393  1.2987
  770MOL0     H 3889   3.516   5.009   8.361  0.1215  0.5142 -0.6928
  770MOL0     H 3890   3.691   5.062   8.359 -0.1019 -1.8073  2.9073
  770MOL0     H 3891   3.612   5.198   8.152 -0.0145  1.1879  0.3829
  770MOL0     H 3892   3.445   5.187   8.209  0.7344  1.2410 -3.2735
  770MOL0     H 3893   3.533   5.256   8.447 -1.4160  0.7558 -1.2124
  770MOL0     H 3894   3.687   5.294   8.360  0.5713  0.4232  1.1150
  770MOL0     H 3895   3.605   5.492   8.373  0.4165  3.0520 -1.6292
  770MOL0     H 3896   3.556   5.467   8.212  0.4432  1.2644  0.7590
  770MOL0     H 3897   3.350   5.354   8.365  1.6194 -1.6883  2.9587
  770MOL0     H 3898   3.393   5.502   8.455 -0.1568 -0.8189 -0.5533
  770MOL0     H 3899   3.354   5.535   8.159 -0.2112 -1.3960 -0.5859
  770MOL0     H 3900   3.350   5.654   8.279  2.4061 -0.8261  0.3502
  770MOL0     H 3901   3.124   5.543   8.463 -2.3491 -0.7802  1.1021
  770MOL0     H 3902   2.890   5.402   8.499  0.4426 -4.0108 -0.8679
  770MOL0     H 3903   2.798   5.545   8.437 -2.0224 -1.4790 -0.0563
  770MOL0     H 3904   2.675   5.303   8.435  0.6406 -0.3744  0.8485
  770MOL0     H 3905   2.796   5.273   8.308  3.0085  0.7860  1.2160
  770MOL0     H 3906   2.601   5.507   8.327 -1.9654 -1.4871  0.6858
  770MOL0     H 3907   2.551   5.346   8.240  1.0174 -1.0341 -2.0033
  770MOL0     H 3908   2.754   5.376   8.104  0.6180  0.1271  2.1911
  770MOL0     H 3909   2.734   5.548   8.129 -2.9674  0.9752 -0.4698
  770MOL0     H 3910   2.749   5.642   7.953 -0.6809  2.3967  1.1086
  770MOL0     H 3911   2.724   5.844   7.650 -2.4384  0.1208  0.7012
  770MOL0     H 3912   2.755   5.907   7.817 -3.6145  0.0930 -0.1060
  770MOL0     H 3913   2.821   5.749   7.755 -2.0718 -1.8669  4.1711
  770MOL0     H 3914   2.225   5.779   7.383 -2.0311  0.5026 -3.8658
  770MOL0     H 3915   2.191   5.885   7.185 -1.1245 -0.2226  0.4033
  770MOL0     H 3916   2.212   6.315   7.017  3.9166  1.7342 -2.3236
  770MOL0     H 3917   2.277   6.343   7.175 -0.5121  0.2573  0.3989
  770MOL0     H 3918   2.448   6.157   7.041  3.3746  1.2779 -2.7293
  770MOL0     H 3919   2.427   6.272   6.920  3.3961 -3.6005 -0.5030
  770MOL0     H 3920   2.506   6.318   7.205  0.0353  0.7803 -0.1702
  770MOL0     H 3921   2.463   6.451   7.096 -3.5026 -0.6283 -0.9203
  770MOL0     H 3922   2.689   6.260   7.019 -1.8867 -0.9593 -0.6292
  770MOL0     H 3923   2.654   6.414   6.946  0.9696  0.6123 -0.0140
  770MOL0     H 3924   2.728   6.366   7.225  1.0844  0.5231  0.3506
  770MOL0     H 3925   2.664   6.522   7.166  0.7981  0.6576 -0.5852
  770MOL0     H 3926   2.922   6.377   7.081 -1.0123 -1.0553  2.7508
  770MOL0     H 3927   2.851   6.521   6.993 -3.6570  1.3770  1.9260
  770MOL0     H 3928   2.902   6.547   7.293 -0.2505  1.9860  0.1231
  770MOL0     H 3929   2.898   6.665   7.163  0.4261  0.3201  1.0478
  770MOL0     H 3930   3.122   6.471   7.221  1.2410  0.5943  1.3778
  770MOL0     H 3931   3.127   6.644   7.226  2.8347 -0.5895 -1.1904
  770MOL0     H 3932   2.323   6.269   7.370 -0.9829  0.6900  0.1601
  770MOL0     H 3933   2.362   6.154   7.570  0.3610  0.7817 -1.2675
  770MOL0     H 3934   2.272   5.699   7.813 -0.5891  1.0170  1.1687
  770MOL0     H 3935   2.343   5.513   7.949  0.4224 -1.1848 -3.7531
  770MOL0     H 3936   3.665   4.822   7.764 -0.6762 -1.3855 -0.2011
  770MOL0     H 3937   3.578   4.811   7.534 -2.4784 -1.4518 -0.9208
  770MOL0     H 3938   3.424   4.999   7.118  0.9100 -1.1453 -0.8381
  770MOL0     H 3939   3.340   4.930   6.897 -1.3111  2.0667  0.2527
  770MOL0     H 3940   3.027   4.711   6.791 -0.9963 -0.3793 -1.1896
  770MOL0     H 3941   3.103   4.874   6.810 -0.1239 -1.1965  0.3688
  770MOL0     H 3942   3.251   4.804   6.611 -1.4463  0.6655 -0.6935
  770MOL0     H 3943   3.085   4.838   6.572 -2.0580 -1.3545  0.6164
  770MOL0     H 3944   3.008   4.609   6.586 -1.8923  3.8696 -2.1564
  770MOL0     H 3945   3.183   4.559   6.599  3.6097  2.8356 -0.9629
  770MOL0     H 3946   3.053   4.688   6.347 -0.4416 -1.3309 -1.0374
  770MOL0     H 3947   3.100   4.527   6.354  1.9390 -0.6138 -1.0993
  770MOL0     H 3948   3.483   4.687   6.339  0.9732  0.5167 -1.8477
  770MOL0     H 3949   3.134   4.600   7.084  2.5061 -2.1138 -0.0535
  770MOL0     H 3950   3.199   4.664   7.294 -1.0633 -0.2712  0.4489
  771MOL0     O 3951   2.643   4.065   9.623 -0.2796 -0.0104 -0.4193
  771MOL0     C 3952   2.716   4.148   9.571  0.3944  0.7781  0.7540
  771MOL0     O 3953   2.700   4.182   9.439 -0.3350  0.2582  0.2202
  771MOL0     C 3954   2.607   4.125   9.357  0.2220 -1.2382  0.5039
  771MOL0     C 3955   2.596   3.988   9.339  0.4356 -0.5814 -0.5550
  771MOL0     C 3956   2.491   3.937   9.264 -0.8026 -1.2851  0.2363
  771MOL0     C 3957   2.418   4.026   9.181 -0.3569 -0.3820  0.4607
  771MOL0     O 3958   2.319   3.967   9.102  0.2745  0.2192  0.3557
  771MOL0     C 3959   2.374   3.894   8.992 -1.1932  0.2962 -0.1507
  771MOL0     C 3960   2.375   3.734   9.003 -0.3268 -0.2400 -0.5404
  771MOL0     C 3961   2.375   3.678   8.864 -0.2095  0.3407 -0.1420
  771MOL0     C 3962   2.239   3.622   8.812 -0.6795 -0.1741 -0.2157
  771MOL0     C 3963   2.105   3.705   8.843  0.1382  1.1301  0.2753
  771MOL0     C 3964   1.976   3.636   8.790 -0.3260 -0.0313 -0.0588
  771MOL0     C 3965   1.968   3.632   8.635 -0.7684  0.2653 -0.9314
  771MOL0     C 3966   1.849   3.568   8.589 -0.6175  0.0725  0.2372
  771MOL0     N 3967   1.846   3.585   8.450  0.5245  0.2956  0.7943
  771MOL0     C 3968   1.755   3.656   8.376  0.3001  0.1474 -0.4625
  771MOL0     C 3969   1.779   3.625   8.249 -0.0397 -0.7671 -0.2634
  771MOL0     C 3970   1.733   3.697   8.130 -0.5106 -0.0215  0.6705
  771MOL0     C 3971   1.608   3.641   8.071  0.1406 -0.0151 -0.4411
  771MOL0     C 3972   1.553   3.752   7.983 -0.0255 -0.4222 -0.0465
  771MOL0     C 3973   1.462   3.699   7.884 -0.4542  1.4208  0.4158
  771MOL0     O 3974   1.381   3.811   7.852 -0.5674  0.0609 -0.2298
  771MOL0     C 3975   1.314   3.807   7.738 -0.3994 -0.0897 -0.6697
  771MOL0     C 3976   1.200   3.728   7.716 -0.4739 -0.2463  0.1704
  771MOL0     C 3977   1.141   3.727   7.595 -0.2605  0.3186 -0.0079
  771MOL0     C 3978   1.047   3.623   7.560  1.2130 -0.1510 -0.4705
  771MOL0     C 3979   1.177   3.828   7.500 -0.3616 -1.2674 -0.3202
  771MOL0     C 3980   1.110   3.855   7.369 -0.1073  0.2665 -1.0281
  771MOL0     O 3981   1.181   3.938   7.280  0.6720 -0.4794  0.1030
  771MOL0     C 3982   1.119   4.014   7.179 -0.9848  0.4239  0.3060
  771MOL0     C 3983   1.184   4.130   7.136  0.4173  0.2732 -0.7596
  771MOL0     C 3984   1.148   4.196   7.019  0.3983 -0.0173  0.3006
  771MOL0     C 3985   1.030   4.162   6.952  0.0909  0.0668  0.1052
  771MOL0     O 3986   1.002   4.228   6.834  1.0490 -0.0160 -0.6290
  771MOL0     C 3987   0.880   4.212   6.768  0.2354 -1.3077 -0.5385
  771MOL0     C 3988   0.777   4.331   6.796 -0.3973 -0.2343  0.0997
  771MOL0     C 3989   0.729   4.324   6.938  0.0458 -0.4721  0.3248
  771MOL0     C 3990   0.624   4.428   6.973 -0.2941  0.2832  0.4952
  771MOL0     C 3991   0.586   4.404   7.118  0.2496  0.0852 -0.4257
  771MOL0     C 3992   0.485   4.511   7.167  0.2900 -0.1096 -1.1745
  771MOL0     C 3993   0.550   4.647   7.199 -0.1225 -0.4302 -0.8400
  771MOL0     C 3994   0.454   4.720   7.298 -0.5673  0.1865  0.2617
  771MOL0    Cl 3995   0.568   4.857   7.343 -0.3328 -0.0961  0.2027
  771MOL0     C 3996   0.955   4.052   7.008 -0.1827  0.1372 -0.2147
  771MOL0     C 3997   1.001   3.973   7.116 -0.1246 -0.3329 -0.6922
  771MOL0     O 3998   0.994   3.821   7.358  0.0935 -0.0319  0.7614
  771MOL0     C 3999   1.279   3.920   7.534  0.0694 -0.1617  0.0906
  771MOL0     C 4000   1.342   3.908   7.650 -0.1964 -0.1573 -0.2715
  771MOL0     N 4001   1.874   3.526   8.246 -0.2056 -0.2668  0.0343
  771MOL0     N 4002   1.918   3.498   8.369 -0.2394  0.2828 -0.3645
  771MOL0     C 4003   2.443   4.161   9.182 -0.7609  0.2860 -0.5252
  771MOL0     C 4004   2.542   4.222   9.268 -0.0964 -0.8523  0.9343
  771MOL0     C 4005   2.821   4.211   9.650  0.9315  0.7394 -0.2432
  771MOL0     C 4006   2.895   4.321   9.599  0.2367 -0.6344  0.7063
  771MOL0     C 4007   2.978   4.394   9.679 -0.1314 -0.0584 -0.3861
  771MOL0     C 4008   3.017   4.340   9.800  0.3492 -0.3960  0.0291
  771MOL0     O 4009   3.099   4.419   9.876 -0.6199  0.1860  0.1454
  771MOL0     C 4010   3.230   4.431   9.830 -0.4939 -0.4079 -1.6029
  771MOL0     C 4011   3.333   4.334   9.908 -1.1048 -0.1174 -0.5807
  771MOL0     C 4012   3.318   4.355  10.058  0.0689 -0.7336  0.1694
  771MOL0     C 4013   3.430   4.300  10.130 -0.9772  0.0505 -0.1001
  771MOL0     C 4014   3.416   4.343  10.272  0.6405  0.3870  0.4467
  771MOL0     C 4015   3.394   4.391  10.380 -0.1528  0.7544 -0.1961
  771MOL0     C 4016   2.961   4.217   9.841  0.4227  0.0073  0.2065
  771MOL0     C 4017   2.861   4.154   9.771  0.8639 -0.2367 -0.9387
  771MOL0     H 4018   2.668   3.928   9.394 -1.6337  0.1463  3.2581
  771MOL0     H 4019   2.476   3.829   9.264 -0.0871 -1.3954 -0.2329
  771MOL0     H 4020   2.324   3.925   8.899 -1.4785  0.5836  0.0995
  771MOL0     H 4021   2.474   3.936   8.980 -1.5629  2.2606  2.7873
  771MOL0     H 4022   2.467   3.705   9.055  0.7901 -0.3230 -2.4822
  771MOL0     H 4023   2.286   3.711   9.063 -0.2385  2.1857  0.6374
  771MOL0     H 4024   2.415   3.751   8.793  1.4706  1.6143  1.9705
  771MOL0     H 4025   2.439   3.591   8.885 -1.5539  0.0602  3.4188
  771MOL0     H 4026   2.239   3.616   8.703 -0.8520 -1.2163 -0.1675
  771MOL0     H 4027   2.232   3.517   8.842  1.5931 -0.3713 -0.1866
  771MOL0     H 4028   2.108   3.706   8.953  2.1543  0.9350  0.2737
  771MOL0     H 4029   2.113   3.809   8.811 -1.3289  1.9158  2.2357
  771MOL0     H 4030   1.953   3.545   8.847 -1.5219  0.3345  0.0830
  771MOL0     H 4031   1.891   3.702   8.809 -0.6133  0.0330 -1.4972
  771MOL0     H 4032   2.001   3.725   8.587  3.0078  0.2063  1.1078
  771MOL0     H 4033   2.048   3.563   8.607 -0.9682  0.1092 -1.1161
  771MOL0     H 4034   1.756   3.603   8.635 -0.4377  1.6707 -0.5707
  771MOL0     H 4035   1.840   3.461   8.611 -2.6319  0.1053 -0.2415
  771MOL0     H 4036   1.676   3.718   8.417  1.1720  0.4500  0.8209
  771MOL0     H 4037   1.730   3.805   8.151  2.3896  0.5420 -1.3301
  771MOL0     H 4038   1.817   3.696   8.060  0.1393 -0.9221  1.4390
  771MOL0     H 4039   1.540   3.619   8.153  0.1014 -0.2564 -0.5372
  771MOL0     H 4040   1.632   3.544   8.025 -2.6312 -2.2835  2.4397
  771MOL0     H 4041   1.639   3.804   7.940 -0.0897  1.1546  1.6196
  771MOL0     H 4042   1.500   3.828   8.041  2.0820 -0.6314  2.3529
  771MOL0     H 4043   1.402   3.615   7.919  0.5675 -0.0320 -1.1144
  771MOL0     H 4044   1.521   3.649   7.806 -2.4729  0.0971 -0.3449
  771MOL0     H 4045   1.175   3.664   7.799  1.2426  0.2299  1.1096
  771MOL0     H 4046   1.065   3.531   7.616 -4.3516 -0.2281  1.8788
  771MOL0     H 4047   0.950   3.662   7.591  0.6895 -0.8620 -1.1953
  771MOL0     H 4048   1.052   3.603   7.453 -1.5992  1.4886 -1.0066
  771MOL0     H 4049   1.279   4.160   7.179  0.3683  1.2944 -1.3207
  771MOL0     H 4050   1.211   4.275   6.980  3.1021 -1.5342  1.3267
  771MOL0     H 4051   0.892   4.199   6.660 -1.2729  0.0936 -0.9204
  771MOL0     H 4052   0.836   4.120   6.806  3.8910 -3.1095 -0.2531
  771MOL0     H 4053   0.815   4.429   6.767  1.8248 -0.8942  0.5563
  771MOL0     H 4054   0.694   4.305   6.730 -0.3532  1.0146 -0.4743
  771MOL0     H 4055   0.802   4.321   7.020 -0.1898 -0.0024  0.5562
  771MOL0     H 4056   0.690   4.223   6.943  1.2936 -0.9316  1.6252
  771MOL0     H 4057   0.679   4.519   6.945  4.6713 -1.8835  2.0015
  771MOL0     H 4058   0.537   4.411   6.911 -0.6095  0.3838  0.9054
  771MOL0     H 4059   0.680   4.409   7.174 -0.7264  3.7598  1.1325
  771MOL0     H 4060   0.541   4.305   7.131  2.2218 -0.7299  0.7186
  771MOL0     H 4061   0.409   4.520   7.088  2.0966 -0.2667 -3.0255
  771MOL0     H 4062   0.429   4.479   7.255 -0.6471 -0.1296 -1.7566
  771MOL0     H 4063   0.564   4.703   7.106  0.6092 -2.9176 -2.3275
  771MOL0     H 4064   0.650   4.630   7.242 -0.0777 -1.0665 -1.1921
  771MOL0     H 4065   0.429   4.660   7.387 -1.2003 -2.8891 -1.8047
  771MOL0     H 4066   0.360   4.751   7.252 -0.6733 -0.6024 -0.0730
  771MOL0     H 4067   0.865   4.026   6.953  0.0560  0.5111 -0.7965
  771MOL0     H 4068   0.955   3.879   7.146 -2.6619  1.8782  3.1882
  771MOL0     H 4069   1.325   3.991   7.465 -0.8154 -1.7360 -2.2592
  771MOL0     H 4070   1.437   3.957   7.669 -0.4967 -0.3119  1.7419
  771MOL0     H 4071   2.373   4.222   9.126 -0.7323  0.3739 -0.4669
  771MOL0     H 4072   2.548   4.328   9.290  0.3176 -1.3429  3.4900
  771MOL0     H 4073   2.859   4.361   9.504 -1.1019 -3.1760  0.0576
  771MOL0     H 4074   3.000   4.495   9.644  0.4792 -0.5850 -1.5707
  771MOL0     H 4075   3.244   4.417   9.722  3.3642 -0.2147 -1.2930
  771MOL0     H 4076   3.266   4.528   9.865 -2.7399 -0.0467 -0.1200
  771MOL0     H 4077   3.436   4.354   9.877 -1.2455  0.7908 -0.4895
  771MOL0     H 4078   3.305   4.231   9.881 -0.6944 -0.2209 -0.6122
  771MOL0     H 4079   3.231   4.298  10.090 -0.9047 -0.2493 -1.4578
  771MOL0     H 4080   3.299   4.461  10.081  0.0367 -1.2798  2.9376
  771MOL0     H 4081   3.526   4.348  10.110 -1.1434  1.8353  2.8309
  771MOL0     H 4082   3.437   4.191  10.126 -2.6609 -0.1674  1.3483
  771MOL0     H 4083   3.379   4.444  10.472  1.4366  1.6842 -0.4400
  771MOL0     H 4084   2.992   4.174   9.936  3.2854 -2.5423 -1.6813
  771MOL0     H 4085   2.825   4.060   9.811  2.8424 -0.7814 -0.2904
  772MOL0     O 4086   2.557   0.284   9.781 -0.2000 -0.0656  0.4052
  772MOL0     C 4087   2.662   0.347   9.797  0.2521 -0.5300  0.7924
  772MOL0     O 4088   2.669   0.480   9.826 -0.0824  0.3577  0.2811
  772MOL0     C 4089   2.565   0.550   9.881  0.3211 -0.8000  0.4603
  772MOL0     C 4090   2.548   0.680   9.836  0.5916  0.0396 -0.2451
  772MOL0     C 4091   2.431   0.749   9.877  0.5667 -1.0331 -0.2368
  772MOL0     C 4092   2.345   0.705   9.986 -0.6064  1.0497 -0.1524
  772MOL0     O 4093   2.239   0.770  10.034 -0.0555  0.3705  0.7786
  772MOL0     C 4094   2.243   0.912  10.010 -0.2917  1.0350  0.0238
  772MOL0     C 4095   2.130   0.989  10.087  0.8035 -0.1120 -0.6578
  772MOL0     C 4096   2.127   1.135  10.078 -0.6414 -1.1242  1.0417
  772MOL0     C 4097   2.244   1.209  10.145  0.0303  0.1836  0.9847
  772MOL0     C 4098   2.233   1.284  10.273 -0.3053 -0.0222  0.5056
  772MOL0     C 4099   2.206   1.201  10.394 -0.4233  0.7053 -0.0032
  772MOL0     C 4100   2.303   1.082  10.419 -0.2933 -0.0891  1.0802
  772MOL0     C 4101   2.272   1.013  10.551  0.0422 -0.1042  0.9351
  772MOL0     N 4102   2.178   0.901  10.547  0.6750 -0.6218  0.1132
  772MOL0     C 4103   2.211   0.778  10.497  0.5571  0.3675  0.1851
  772MOL0     C 4104   2.092   0.717  10.511  0.1396  0.9013  0.7842
  772MOL0     C 4105   2.067   0.585  10.439 -0.1936  0.7933  0.5381
  772MOL0     C 4106   1.952   0.577  10.338 -1.0278  0.8134  0.0534
  772MOL0     C 4107   1.981   0.674  10.214 -0.2831 -0.3242  0.1940
  772MOL0     C 4108   1.867   0.685  10.112  1.2639 -0.6889 -0.6223
  772MOL0     O 4109   1.829   0.557  10.057  0.3053  0.5732 -0.2630
  772MOL0     C 4110   1.783   0.558   9.933 -0.5487 -1.4222 -0.1109
  772MOL0     C 4111   1.651   0.601   9.895 -0.7391  0.1270 -0.0646
  772MOL0     C 4112   1.605   0.580   9.761 -0.1532  0.2935 -0.3844
  772MOL0     C 4113   1.462   0.628   9.739 -0.7505  0.3854 -0.3595
  772MOL0     C 4114   1.675   0.507   9.676 -0.0517  0.3163 -0.4079
  772MOL0     C 4115   1.619   0.486   9.548 -0.4330 -0.1588  0.7474
  772MOL0     O 4116   1.588   0.595   9.474  0.2877  0.2166  0.4660
  772MOL0     C 4117   1.517   0.571   9.358  0.1062  0.9535  0.1379
  772MOL0     C 4118   1.372   0.569   9.363  0.3696  0.7316  0.7725
  772MOL0     C 4119   1.305   0.531   9.244  0.5024 -0.2244  0.4861
  772MOL0     C 4120   1.377   0.487   9.131  0.2619  0.2594  0.6979
  772MOL0     O 4121   1.302   0.439   9.021 -1.1193 -0.8228 -0.2030
  772MOL0     C 4122   1.367   0.373   8.919  0.4362  1.5648  0.0287
  772MOL0     C 4123   1.359   0.228   8.952 -0.4556  0.3247 -0.1847
  772MOL0     C 4124   1.469   0.170   9.045  0.8027 -0.6751  0.6612
  772MOL0     C 4125   1.453   0.026   9.085 -0.0524 -0.1574  0.3066
  772MOL0     C 4126   1.566  -0.021   9.182 -1.0336  0.5877 -0.9553
  772MOL0     C 4127   1.669  -0.109   9.112 -0.3718  0.7935 -0.9535
  772MOL0     C 4128   1.779  -0.122   9.215 -0.4853 -0.4934 -0.0991
  772MOL0     C 4129   1.879  -0.226   9.158 -0.1205  0.2917 -0.7851
  772MOL0    Cl 4130   2.022  -0.211   9.263  0.1226  0.6125  0.1337
  772MOL0     C 4131   1.518   0.509   9.132  0.2565  0.7563  0.7536
  772MOL0     C 4132   1.581   0.542   9.237 -0.3519  0.6975 -0.6644
  772MOL0     O 4133   1.631   0.370   9.502  0.9259 -0.0841  0.1122
  772MOL0     C 4134   1.802   0.458   9.709 -0.3782 -0.6677  0.4704
  772MOL0     C 4135   1.857   0.490   9.833  0.4226  0.1909  0.4397
  772MOL0     N 4136   1.998   0.784  10.579  0.0022  0.3245 -0.8424
  772MOL0     N 4137   2.057   0.893  10.612  0.1429 -0.0886  0.3629
  772MOL0     C 4138   2.371   0.570  10.038 -0.1731 -0.0588  0.0980
  772MOL0     C 4139   2.482   0.496   9.987  0.2168 -0.1600  0.5543
  772MOL0     C 4140   2.793   0.275   9.786 -0.7237  0.6579  0.0427
  772MOL0     C 4141   2.804   0.136   9.770 -0.0547 -0.8630  0.0847
  772MOL0     C 4142   2.930   0.071   9.774  0.0242  0.6550  0.1269
  772MOL0     C 4143   3.050   0.133   9.771 -0.1816 -0.4137 -0.1040
  772MOL0     O 4144   3.165   0.056   9.762  0.2804  0.0261  0.0210
  772MOL0     C 4145   3.266   0.099   9.840  0.3869 -0.4105 -0.3239
  772MOL0     C 4146   3.374  -0.005   9.866 -0.9738 -1.1074  0.2223
  772MOL0     C 4147   3.318  -0.127   9.943  0.4351 -0.4531 -0.0106
  772MOL0     C 4148   3.267  -0.232   9.841  0.1674  0.8627 -0.4601
  772MOL0     C 4149   3.227  -0.356   9.914 -0.8207  0.5711  0.6091
  772MOL0     C 4150   3.187  -0.449   9.981  0.0600  0.6081  0.1586
  772MOL0     C 4151   3.043   0.276   9.780 -0.1470  0.3560 -0.7494
  772MOL0     C 4152   2.915   0.338   9.805  0.0539 -0.4536  0.6221
  772MOL0     H 4153   2.613   0.706   9.753 -2.0773 -0.1389 -2.5904
  772MOL0     H 4154   2.406   0.837   9.819 -1.3328  0.1143  2.1215
  772MOL0     H 4155   2.340   0.949  10.046 -0.1981  0.2926  0.5590
  772MOL0     H 4156   2.230   0.927   9.903  0.0453  0.3160 -0.1248
  772MOL0     H 4157   2.032   0.965  10.046  0.5121 -2.8158  1.3517
  772MOL0     H 4158   2.122   0.960  10.192  0.6586 -0.4209 -0.7536
  772MOL0     H 4159   2.124   1.156   9.971  1.1121  0.2853  1.2345
  772MOL0     H 4160   2.034   1.172  10.122 -0.2960  0.7151  0.2947
  772MOL0     H 4161   2.330   1.142  10.148 -1.0000 -1.1758  3.7552
  772MOL0     H 4162   2.276   1.286  10.075  0.9203 -0.1332  1.0335
  772MOL0     H 4163   2.326   1.340  10.285 -0.7953  0.3738  2.7821
  772MOL0     H 4164   2.165   1.370  10.271 -1.3745 -0.7922  2.1096
  772MOL0     H 4165   2.214   1.283  10.467 -0.6315 -1.0562  2.0938
  772MOL0     H 4166   2.101   1.173  10.392 -0.0478 -0.7598 -0.5317
  772MOL0     H 4167   2.292   1.002  10.344 -0.6075  2.3998 -1.7003
  772MOL0     H 4168   2.403   1.123  10.432 -0.5001  0.3957  1.1346
  772MOL0     H 4169   2.231   1.092  10.614 -1.9193  0.5293 -1.0125
  772MOL0     H 4170   2.367   0.973  10.588  1.5336 -0.7342 -3.0304
  772MOL0     H 4171   2.303   0.737  10.457  0.3216  2.7558 -3.2174
  772MOL0     H 4172   2.157   0.548  10.389 -0.4343 -2.3933  2.1967
  772MOL0     H 4173   2.052   0.507  10.514 -0.7739  0.3168 -0.0701
  772MOL0     H 4174   1.865   0.606  10.396 -0.5893  2.8201 -0.2404
  772MOL0     H 4175   1.945   0.473  10.302 -1.1078  0.8993 -0.1799
  772MOL0     H 4176   2.066   0.642  10.153 -1.2725 -2.0541 -0.3621
  772MOL0     H 4177   1.990   0.775  10.255 -0.3820 -0.9924  1.9532
  772MOL0     H 4178   1.914   0.747  10.035  3.7594  2.1368  2.8132
  772MOL0     H 4179   1.782   0.735  10.159  0.9969  0.5145 -2.2840
  772MOL0     H 4180   1.594   0.649   9.973  0.8241 -0.3620  1.4370
  772MOL0     H 4181   1.416   0.663   9.832 -0.6176  1.6768 -0.7572
  772MOL0     H 4182   1.469   0.724   9.685 -1.9978  1.5805  1.4828
  772MOL0     H 4183   1.407   0.556   9.678 -0.9411  0.2958 -0.0827
  772MOL0     H 4184   1.327   0.594   9.459 -1.0690  3.7957 -0.5377
  772MOL0     H 4185   1.197   0.525   9.242  0.5437 -1.5214  1.1085
  772MOL0     H 4186   1.312   0.386   8.826  1.3193  1.2688 -0.5502
  772MOL0     H 4187   1.471   0.402   8.904 -0.4291  3.9566 -2.1952
  772MOL0     H 4188   1.258   0.205   8.989 -0.8528  1.3028 -0.6341
  772MOL0     H 4189   1.370   0.173   8.858  1.4132  1.8768 -0.9434
  772MOL0     H 4190   1.462   0.237   9.132  3.1692 -3.0420  2.8310
  772MOL0     H 4191   1.560   0.183   8.985  1.0358 -1.8538  0.7397
  772MOL0     H 4192   1.356   0.033   9.135  1.2291  2.7690  2.7157
  772MOL0     H 4193   1.445  -0.042   9.000  1.4576  2.2159 -1.8887
  772MOL0     H 4194   1.515  -0.072   9.265  4.6464 -2.6679  1.0596
  772MOL0     H 4195   1.620   0.060   9.232 -0.5116 -2.2117  3.5596
  772MOL0     H 4196   1.624  -0.204   9.082  0.2843  0.0393  0.3157
  772MOL0     H 4197   1.697  -0.052   9.023 -1.4348  3.0596  0.0832
  772MOL0     H 4198   1.736  -0.159   9.308 -2.6224  0.7370 -0.5244
  772MOL0     H 4199   1.811  -0.021   9.241 -3.5468  0.3985  0.6480
  772MOL0     H 4200   1.917  -0.197   9.059  2.4558 -0.7107 -0.1582
  772MOL0     H 4201   1.843  -0.329   9.161  1.7303 -0.3747 -0.3573
  772MOL0     H 4202   1.575   0.506   9.040 -1.0419 -0.2609 -0.0414
  772MOL0     H 4203   1.688   0.559   9.233 -0.2659  0.4147  0.2111
  772MOL0     H 4204   1.866   0.423   9.628  2.0867  1.2191  1.4910
  772MOL0     H 4205   1.958   0.457   9.856  1.6787  2.7787 -0.8316
  772MOL0     H 4206   2.315   0.516  10.114  0.6366  0.6948  1.2634
  772MOL0     H 4207   2.504   0.396  10.023  1.0572  0.6843  2.5348
  772MOL0     H 4208   2.709   0.084   9.758 -0.4240 -0.4096  0.9532
  772MOL0     H 4209   2.935  -0.035   9.749  2.2951  1.1012 -1.6478
  772MOL0     H 4210   3.310   0.189   9.797 -4.0504  1.3187 -1.9008
  772MOL0     H 4211   3.229   0.146   9.932 -0.6192 -1.6528 -0.0593
  772MOL0     H 4212   3.456   0.042   9.922 -1.3106 -1.7283  1.2773
  772MOL0     H 4213   3.426  -0.033   9.774 -1.2807  1.5120 -0.8449
  772MOL0     H 4214   3.235  -0.108  10.011  1.0578 -0.1587  0.6725
  772MOL0     H 4215   3.396  -0.172  10.005 -0.9985 -0.4021  1.9066
  772MOL0     H 4216   3.338  -0.240   9.759 -1.8080  0.0445 -2.1781
  772MOL0     H 4217   3.176  -0.193   9.795  0.0994  0.4211 -0.6983
  772MOL0     H 4218   3.158  -0.534  10.040 -1.3056  0.5385 -0.5882
  772MOL0     H 4219   3.139   0.327   9.778 -1.1742  2.6986  2.0392
  772MOL0     H 4220   2.911   0.446   9.812  1.8500 -0.4041  1.5203
  773MOL0     O 4221   0.277   1.570   5.088 -0.1694 -0.2132  0.5102
  773MOL0     C 4222   0.163   1.533   5.063 -0.3984 -0.2165 -1.0832
  773MOL0     O 4223   0.075   1.506   5.166 -0.3139  0.2275  0.0548
  773MOL0     C 4224   0.110   1.515   5.300 -0.3498  0.5565 -0.0120
  773MOL0     C 4225   0.171   1.629   5.352  0.1216 -0.8044 -0.8534
  773MOL0     C 4226   0.210   1.631   5.491  0.7696 -1.2378 -0.5147
  773MOL0     C 4227   0.179   1.529   5.572 -0.3191  1.1663 -0.0248
  773MOL0     O 4228   0.215   1.545   5.699  0.8149 -0.3026 -0.0151
  773MOL0     C 4229   0.136   1.628   5.782  0.1965 -0.2440 -0.0554
  773MOL0     C 4230   0.186   1.645   5.920  0.3152  0.2792  0.2193
  773MOL0     C 4231   0.303   1.745   5.937  0.1300  0.7477  0.2743
  773MOL0     C 4232   0.355   1.778   6.075 -0.6204 -0.3731 -0.4925
  773MOL0     C 4233   0.437   1.909   6.080 -0.9205  0.3211 -1.2867
  773MOL0     C 4234   0.499   1.939   6.221  0.0990 -0.1672  0.2363
  773MOL0     C 4235   0.576   2.069   6.210  0.4098  0.4977  0.3960
  773MOL0     C 4236   0.484   2.188   6.215  0.0539  0.4938  0.2303
  773MOL0     N 4237   0.472   2.241   6.080  0.4263 -0.4094  1.0282
  773MOL0     C 4238   0.562   2.335   6.034 -0.1296 -0.0789  0.2084
  773MOL0     C 4239   0.496   2.379   5.917 -0.9747  0.8062  0.2105
  773MOL0     C 4240   0.539   2.503   5.848 -0.3072  0.8084  0.2120
  773MOL0     C 4241   0.615   2.462   5.719  0.9307  0.2004 -0.4552
  773MOL0     C 4242   0.705   2.569   5.662  0.3768 -1.2856  0.2026
  773MOL0     C 4243   0.626   2.681   5.579  0.2665 -0.9932  0.9635
  773MOL0     O 4244   0.515   2.742   5.650 -0.0908 -0.6348  0.0537
  773MOL0     C 4245   0.410   2.778   5.583 -0.4199 -0.2683  0.5689
  773MOL0     C 4246   0.373   2.912   5.542 -0.2470  0.9965  0.2948
  773MOL0     C 4247   0.252   2.938   5.482  0.1945 -0.5105 -0.6102
  773MOL0     C 4248   0.220   3.079   5.438 -0.2597  0.1959 -0.3888
  773MOL0     C 4249   0.155   2.832   5.470  0.3896  0.9129  0.2046
  773MOL0     C 4250   0.014   2.851   5.452 -0.1747  0.0663  0.3888
  773MOL0     O 4251  -0.049   2.768   5.373 -0.1242 -0.6180  0.0725
  773MOL0     C 4252  -0.184   2.780   5.366 -0.0722 -0.0721  0.1446
  773MOL0     C 4253  -0.271   2.769   5.476 -0.5278 -1.0790 -0.2418
  773MOL0     C 4254  -0.412   2.768   5.464  0.2410  0.1955  0.8424
  773MOL0     C 4255  -0.471   2.768   5.326 -0.2600  0.5174 -0.6374
  773MOL0     O 4256  -0.601   2.757   5.296 -0.3933 -0.0402  0.1992
  773MOL0     C 4257  -0.686   2.765   5.400  0.0154  0.1652 -0.4226
  773MOL0     C 4258  -0.822   2.740   5.341  0.7590  0.0908 -0.7809
  773MOL0     C 4259  -0.943   2.784   5.421  0.7142 -0.1024 -1.9625
  773MOL0     C 4260  -0.965   2.700   5.553 -0.5400 -0.3746  0.6859
  773MOL0     C 4261  -0.964   2.556   5.510  0.3411  0.3607 -0.4506
  773MOL0     C 4262  -1.007   2.464   5.626 -0.4330 -0.1607 -0.3794
  773MOL0     C 4263  -1.148   2.478   5.676  0.4371  0.8595  0.3024
  773MOL0     C 4264  -1.167   2.371   5.779  0.9637  0.4242 -0.1634
  773MOL0    Cl 4265  -1.083   2.419   5.927 -0.0070  0.2462 -0.5981
  773MOL0     C 4266  -0.389   2.788   5.220  0.8724  0.1969 -0.0920
  773MOL0     C 4267  -0.254   2.795   5.238 -0.5449  0.4514 -0.2854
  773MOL0     O 4268  -0.032   2.957   5.497 -0.5693  0.6416 -1.0395
  773MOL0     C 4269   0.186   2.706   5.508 -0.5591 -1.1417 -0.2393
  773MOL0     C 4270   0.313   2.681   5.569 -0.7176  0.3930 -0.0541
  773MOL0     N 4271   0.375   2.318   5.900  0.3048 -0.8770  0.2816
  773MOL0     N 4272   0.360   2.240   5.996  0.3146 -1.1774 -0.4269
  773MOL0     C 4273   0.105   1.422   5.528 -0.2852  0.1221  1.1362
  773MOL0     C 4274   0.062   1.415   5.394 -0.3949  0.3896  0.8369
  773MOL0     C 4275   0.115   1.535   4.916 -0.4384  0.8041  0.1464
  773MOL0     C 4276  -0.016   1.491   4.908  0.2784 -0.1188  0.2503
  773MOL0     C 4277  -0.062   1.477   4.776  0.1098 -0.1474 -0.5559
  773MOL0     C 4278   0.007   1.503   4.658  0.0859 -0.4972 -0.4254
  773MOL0     O 4279  -0.055   1.492   4.533  0.4983 -1.2429  0.4279
  773MOL0     C 4280  -0.185   1.544   4.510  0.5909 -1.0156  0.3118
  773MOL0     C 4281  -0.217   1.559   4.362  0.6812  0.1956 -0.5682
  773MOL0     C 4282  -0.257   1.426   4.300  0.0419  0.0025  0.9312
  773MOL0     C 4283  -0.268   1.440   4.147 -0.1428 -0.1862 -0.6416
  773MOL0     C 4284  -0.345   1.323   4.095 -0.2276  0.4599  0.5869
  773MOL0     C 4285  -0.407   1.225   4.054  0.3019 -0.8424  0.2223
  773MOL0     C 4286   0.134   1.552   4.662 -0.2358 -0.3355 -0.6497
  773MOL0     C 4287   0.190   1.564   4.791 -1.3060  0.2382  0.6859
  773MOL0     H 4288   0.195   1.712   5.285  1.9878  0.0925  0.8090
  773MOL0     H 4289   0.267   1.717   5.523  2.5367 -2.4389 -0.3084
  773MOL0     H 4290   0.123   1.721   5.727  2.4692  0.2984  0.1968
  773MOL0     H 4291   0.036   1.588   5.801  0.0530  0.5923  1.0815
  773MOL0     H 4292   0.097   1.682   5.972 -0.2311  2.2317 -1.9863
  773MOL0     H 4293   0.214   1.547   5.960  0.7691 -0.9479 -2.8119
  773MOL0     H 4294   0.388   1.720   5.873 -0.0077  0.3830  0.2292
  773MOL0     H 4295   0.266   1.835   5.888  0.1092 -0.0528 -1.2502
  773MOL0     H 4296   0.263   1.780   6.133 -2.7132 -1.0095 -3.5567
  773MOL0     H 4297   0.421   1.700   6.113 -1.7343 -1.0301  0.1076
  773MOL0     H 4298   0.520   1.918   6.009  0.2436 -1.8531 -0.2954
  773MOL0     H 4299   0.362   1.986   6.057 -2.5658 -0.1415  2.0064
  773MOL0     H 4300   0.426   1.942   6.302  0.8638  2.9667  0.9728
  773MOL0     H 4301   0.577   1.867   6.248 -1.5434 -0.9863  3.1441
  773MOL0     H 4302   0.655   2.084   6.285  1.5841 -0.4225 -0.6158
  773MOL0     H 4303   0.627   2.078   6.114 -1.3206  4.4322 -0.3067
  773MOL0     H 4304   0.525   2.264   6.282  1.1324 -0.1431  0.3171
  773MOL0     H 4305   0.384   2.154   6.242  0.6114  0.0344  1.8441
  773MOL0     H 4306   0.657   2.361   6.080  1.8204 -4.2023 -1.0222
  773MOL0     H 4307   0.445   2.552   5.822 -2.1599 -1.5597  2.0569
  773MOL0     H 4308   0.593   2.561   5.923 -0.4795 -0.2852  1.2116
  773MOL0     H 4309   0.541   2.437   5.642  1.5923 -1.0699 -0.7050
  773MOL0     H 4310   0.686   2.382   5.739  4.8546  3.4890  0.1291
  773MOL0     H 4311   0.773   2.522   5.590 -0.6409 -3.3137  0.4920
  773MOL0     H 4312   0.760   2.609   5.747 -2.0371  2.1615  0.3789
  773MOL0     H 4313   0.587   2.632   5.489  1.3136 -0.8325  0.4031
  773MOL0     H 4314   0.693   2.761   5.544 -2.4701  0.8097 -0.5456
  773MOL0     H 4315   0.431   3.000   5.565 -1.0148  1.2811  1.2044
  773MOL0     H 4316   0.157   3.077   5.349 -1.1021 -0.9260  0.2014
  773MOL0     H 4317   0.164   3.137   5.513 -1.4882  1.2001 -2.0140
  773MOL0     H 4318   0.317   3.120   5.409  0.9396 -0.1924  2.6468
  773MOL0     H 4319  -0.223   2.752   5.572  0.6596 -0.8835 -0.7771
  773MOL0     H 4320  -0.474   2.756   5.552  0.1444  0.1597  0.7689
  773MOL0     H 4321  -0.671   2.686   5.474  2.1316  1.0274  0.1244
  773MOL0     H 4322  -0.687   2.859   5.456  0.0659  0.2437 -0.5551
  773MOL0     H 4323  -0.824   2.816   5.262  0.3361  1.7231  0.7310
  773MOL0     H 4324  -0.825   2.641   5.295  0.4230 -0.2322 -0.0799
  773MOL0     H 4325  -1.028   2.752   5.361 -0.9053 -0.7926  0.5272
  773MOL0     H 4326  -0.949   2.891   5.446 -0.7461 -0.5409 -0.1890
  773MOL0     H 4327  -0.890   2.726   5.628  0.3515  3.2427 -1.2592
  773MOL0     H 4328  -1.066   2.718   5.592  1.5799  3.6341  5.2937
  773MOL0     H 4329  -0.866   2.528   5.470 -0.1196 -0.9314 -0.7195
  773MOL0     H 4330  -1.041   2.535   5.435 -1.2464 -1.4032  1.5620
  773MOL0     H 4331  -0.999   2.358   5.597  1.4590  0.1759 -1.2272
  773MOL0     H 4332  -0.935   2.492   5.703  1.2220 -1.1408 -1.5017
  773MOL0     H 4333  -1.218   2.467   5.593 -4.7988  0.3763  4.2482
  773MOL0     H 4334  -1.166   2.577   5.719 -0.5533  2.3226 -3.1602
  773MOL0     H 4335  -1.120   2.279   5.744  0.6088 -0.2233  1.0049
  773MOL0     H 4336  -1.272   2.343   5.792  0.7582  1.8250  1.5114
  773MOL0     H 4337  -0.431   2.801   5.121 -1.7000 -1.9142  0.6051
  773MOL0     H 4338  -0.194   2.828   5.153 -1.4266  3.5177  0.1423
  773MOL0     H 4339   0.104   2.634   5.507 -2.2635  0.7141 -0.2024
  773MOL0     H 4340   0.341   2.580   5.599  0.8662  0.5955 -0.7722
  773MOL0     H 4341   0.097   1.331   5.587 -0.4110  0.5206  1.7461
  773MOL0     H 4342   0.006   1.325   5.370  1.6691 -0.0229 -3.3471
  773MOL0     H 4343  -0.082   1.464   4.989 -0.0751 -0.7289 -0.2356
  773MOL0     H 4344  -0.163   1.445   4.754  0.0484  1.0505 -2.2655
  773MOL0     H 4345  -0.253   1.475   4.560 -1.7570 -0.8808 -2.4531
  773MOL0     H 4346  -0.188   1.639   4.564  4.2501 -1.6918  2.0177
  773MOL0     H 4347  -0.129   1.603   4.313 -1.2904  3.5867 -1.3717
  773MOL0     H 4348  -0.308   1.619   4.351 -0.5545 -1.9277 -3.8309
  773MOL0     H 4349  -0.349   1.391   4.348 -0.7715 -0.9680 -1.2291
  773MOL0     H 4350  -0.178   1.354   4.323  0.6940  1.0722  2.1429
  773MOL0     H 4351  -0.166   1.444   4.107 -0.5553  0.2887 -1.6771
  773MOL0     H 4352  -0.308   1.531   4.103  3.4658  1.3682 -1.1120
  773MOL0     H 4353  -0.463   1.147   4.007 -2.9945 -0.3297  2.9425
  773MOL0     H 4354   0.185   1.578   4.569 -0.2654  3.0125  0.1470
  773MOL0     H 4355   0.284   1.613   4.810 -2.0977  1.8056  0.6843
  774MOL0     O 4356   5.492   7.370  11.277  0.2775 -0.3306  0.0021
  774MOL0     C 4357   5.579   7.333  11.199 -0.0032 -0.2131 -0.3335
  774MOL0     O 4358   5.584   7.345  11.068 -0.0863  0.4813  0.8488
  774MOL0     C 4359   5.475   7.329  10.990 -0.3051 -0.4069 -0.1584
  774MOL0     C 4360   5.475   7.392  10.865 -0.1016  0.5094 -0.5377
  774MOL0     C 4361   5.365   7.389  10.783 -0.5639 -1.3646 -0.2435
  774MOL0     C 4362   5.242   7.343  10.822  0.0415  0.1170 -0.8747
  774MOL0     O 4363   5.140   7.368  10.741  0.3282 -0.1668  0.2299
  774MOL0     C 4364   5.014   7.350  10.796  0.0121 -0.0530 -0.4164
  774MOL0     C 4365   4.903   7.366  10.686  0.0510  0.0177  0.1305
  774MOL0     C 4366   4.771   7.397  10.749 -0.9079  0.0446  0.1288
  774MOL0     C 4367   4.703   7.514  10.690 -0.5272 -0.1115  0.9069
  774MOL0     C 4368   4.743   7.641  10.754 -0.7030 -0.8048 -0.4454
  774MOL0     C 4369   4.626   7.686  10.851 -0.0943 -1.4581 -0.5180
  774MOL0     C 4370   4.637   7.631  10.995 -0.8578  0.7009 -0.3712
  774MOL0     C 4371   4.758   7.694  11.077  0.2043  0.2678  0.1017
  774MOL0     N 4372   4.758   7.650  11.220 -0.2922 -0.8136  0.5853
  774MOL0     C 4373   4.817   7.727  11.320  0.6065  0.0458  0.4231
  774MOL0     C 4374   4.790   7.665  11.435  0.6941 -0.0647 -0.3127
  774MOL0     C 4375   4.828   7.711  11.569 -0.0510 -0.5923  0.6428
  774MOL0     C 4376   4.701   7.753  11.639  0.2751  0.6784  0.2241
  774MOL0     C 4377   4.720   7.829  11.769  0.4738  0.4843  0.7723
  774MOL0     C 4378   4.760   7.731  11.884 -0.0972  0.2831  0.5218
  774MOL0     O 4379   4.683   7.609  11.903 -0.6760  0.1734  0.1788
  774MOL0     C 4380   4.755   7.495  11.903 -0.0108  1.0684  0.5917
  774MOL0     C 4381   4.826   7.452  12.022  0.2935 -0.1655  0.2026
  774MOL0     C 4382   4.881   7.327  12.022 -0.4461 -0.1626  0.1141
  774MOL0     C 4383   4.947   7.307  12.155  0.1224 -0.6336 -0.0464
  774MOL0     C 4384   4.884   7.241  11.911 -0.1773 -0.0675 -0.5230
  774MOL0     C 4385   4.948   7.107  11.905  1.0113  0.6043 -0.5930
  774MOL0     O 4386   4.940   7.039  11.787 -0.2373  0.3902 -0.9145
  774MOL0     C 4387   5.011   6.919  11.772 -0.7489  0.2188 -0.6263
  774MOL0     C 4388   4.976   6.817  11.857 -0.0727 -0.2615 -0.8298
  774MOL0     C 4389   5.032   6.688  11.836  0.1884  0.3877  0.1185
  774MOL0     C 4390   5.121   6.673  11.730 -0.4632  0.1828 -0.4430
  774MOL0     O 4391   5.187   6.545  11.741  0.6775 -0.3295 -0.1300
  774MOL0     C 4392   5.310   6.532  11.668  0.0826  0.5925 -0.5221
  774MOL0     C 4393   5.375   6.397  11.683  0.3303 -0.0823  0.0654
  774MOL0     C 4394   5.416   6.391  11.833  0.7502  0.7692 -0.6093
  774MOL0     C 4395   5.509   6.267  11.854  0.3968 -1.1613  0.2052
  774MOL0     C 4396   5.557   6.273  11.998 -0.4153 -0.4103 -0.0811
  774MOL0     C 4397   5.670   6.174  12.027 -0.2866  0.5552 -0.1563
  774MOL0     C 4398   5.733   6.194  12.168  0.7243  0.1729  0.2948
  774MOL0     C 4399   5.860   6.100  12.179 -0.0802  0.4726  0.2623
  774MOL0    Cl 4400   5.898   6.070  12.361  0.4783  0.4588  0.7727
  774MOL0     C 4401   5.149   6.775  11.641 -0.6466  0.0494  1.2897
  774MOL0     C 4402   5.097   6.900  11.660 -0.2419  0.1317 -0.2034
  774MOL0     O 4403   5.006   7.059  12.001 -0.3765  0.2081 -0.3736
  774MOL0     C 4404   4.814   7.281  11.805 -0.2373  0.9248  0.1634
  774MOL0     C 4405   4.741   7.400  11.793  0.3512  0.6347 -0.5711
  774MOL0     N 4406   4.714   7.558  11.401  0.0023  0.4250 -0.5409
  774MOL0     N 4407   4.701   7.540  11.277 -1.6226 -0.3538  0.0907
  774MOL0     C 4408   5.236   7.268  10.949  0.3693 -0.1934  0.1430
  774MOL0     C 4409   5.353   7.256  11.024  0.4773  0.2088  0.3096
  774MOL0     C 4410   5.697   7.274  11.258  0.4981  1.2914 -0.6388
  774MOL0     C 4411   5.686   7.215  11.379  0.0973  0.3368  0.1269
  774MOL0     C 4412   5.788   7.151  11.438 -0.6295 -0.3510 -0.7978
  774MOL0     C 4413   5.913   7.137  11.375  0.4607 -0.5059 -0.1144
  774MOL0     O 4414   6.011   7.064  11.432 -0.2352  0.5558  0.7798
  774MOL0     C 4415   5.998   7.014  11.569  0.8255 -0.5224  0.8393
  774MOL0     C 4416   6.130   6.956  11.620 -0.7387 -0.2525  0.3077
  774MOL0     C 4417   6.187   6.850  11.513 -0.0904 -0.3668  0.2906
  774MOL0     C 4418   6.306   6.778  11.568  0.1935  0.2389 -0.0703
  774MOL0     C 4419   6.267   6.660  11.649 -0.4853 -0.3117  1.0394
  774MOL0     C 4420   6.229   6.567  11.706  0.6702  0.4510  1.2156
  774MOL0     C 4421   5.931   7.201  11.249 -0.6168  0.3946 -1.3822
  774MOL0     C 4422   5.818   7.266  11.201 -0.4776  0.2677  0.1957
  774MOL0     H 4423   5.562   7.454  10.845  0.6453 -0.5054 -0.5494
  774MOL0     H 4424   5.360   7.441  10.688 -2.9609  4.2639  2.5458
  774MOL0     H 4425   5.006   7.255  10.849  0.2116  0.5287  0.7038
  774MOL0     H 4426   5.005   7.436  10.864 -0.6699 -1.4964  1.3929
  774MOL0     H 4427   4.931   7.451  10.623 -2.6813  0.2707 -0.8808
  774MOL0     H 4428   4.891   7.271  10.634  4.7021 -1.1312  0.6758
  774MOL0     H 4429   4.706   7.313  10.725 -1.9093  1.7672 -4.1868
  774MOL0     H 4430   4.791   7.432  10.851  1.1818  3.7903 -1.3332
  774MOL0     H 4431   4.718   7.519  10.582 -0.7672 -1.0073  0.8248
  774MOL0     H 4432   4.596   7.496  10.705 -0.9244  1.2330 -0.1212
  774MOL0     H 4433   4.834   7.624  10.812 -0.4267 -0.9091 -0.9072
  774MOL0     H 4434   4.764   7.729  10.693 -1.1939  2.2674  3.4324
  774MOL0     H 4435   4.616   7.794  10.842 -4.2255 -1.5604  0.6713
  774MOL0     H 4436   4.526   7.652  10.822 -1.0861  0.5724  0.3318
  774MOL0     H 4437   4.537   7.635  11.040 -0.0043 -1.4284  1.9962
  774MOL0     H 4438   4.651   7.522  10.999 -0.2519  0.7370  4.2816
  774MOL0     H 4439   4.753   7.803  11.082  0.5424  0.4161 -2.0914
  774MOL0     H 4440   4.859   7.682  11.036  0.5612  6.1594 -1.6758
  774MOL0     H 4441   4.867   7.823  11.318 -2.2577  1.6418 -0.0345
  774MOL0     H 4442   4.893   7.643  11.625 -0.2991 -0.1685  1.4725
  774MOL0     H 4443   4.885   7.805  11.558 -5.1420  2.8066  0.0711
  774MOL0     H 4444   4.631   7.671  11.655 -1.5639  1.9239 -0.9580
  774MOL0     H 4445   4.637   7.812  11.573 -5.6722 -2.4747  2.4703
  774MOL0     H 4446   4.625   7.875  11.800 -1.5425 -3.1542  0.5455
  774MOL0     H 4447   4.799   7.899  11.742  0.9869 -0.7290 -1.0440
  774MOL0     H 4448   4.772   7.779  11.981 -1.7578 -0.1507  0.9617
  774MOL0     H 4449   4.863   7.701  11.859 -0.2916  0.6392 -0.8050
  774MOL0     H 4450   4.821   7.523  12.103 -3.9068 -2.7786  2.5683
  774MOL0     H 4451   5.054   7.290  12.145  0.1922 -0.4592  0.3961
  774MOL0     H 4452   4.935   7.398  12.214 -0.3441  1.5608 -3.2534
  774MOL0     H 4453   4.899   7.221  12.202 -1.9029  0.1820 -0.4991
  774MOL0     H 4454   4.903   6.839  11.934 -0.3313 -0.7613 -0.9252
  774MOL0     H 4455   5.002   6.603  11.897 -3.5019  0.1496 -1.7745
  774MOL0     H 4456   5.277   6.540  11.563  0.0605 -0.6528 -0.6223
  774MOL0     H 4457   5.382   6.613  11.682  3.5230 -1.9970 -1.9790
  774MOL0     H 4458   5.304   6.320  11.650 -1.5033  1.2402  0.7626
  774MOL0     H 4459   5.461   6.387  11.617 -3.1287 -2.2625 -4.6355
  774MOL0     H 4460   5.325   6.388  11.893  1.7591 -0.4622  0.9343
  774MOL0     H 4461   5.475   6.480  11.861  1.9735 -1.1397  3.8403
  774MOL0     H 4462   5.447   6.178  11.839  0.1615 -1.1931  1.2991
  774MOL0     H 4463   5.596   6.272  11.787 -1.6004 -0.1659 -2.5160
  774MOL0     H 4464   5.477   6.251  12.070  0.1714 -1.0895  0.3748
  774MOL0     H 4465   5.597   6.372  12.021 -1.8766  0.1068  0.3232
  774MOL0     H 4466   5.632   6.073  12.010  2.1212 -0.3763 -0.3929
  774MOL0     H 4467   5.755   6.183  11.958  0.9191  1.8924  1.4318
  774MOL0     H 4468   5.649   6.170  12.235 -2.3557  1.8036 -2.6847
  774MOL0     H 4469   5.750   6.300  12.186 -2.5580  0.7264  0.8700
  774MOL0     H 4470   5.948   6.142  12.129  1.9809 -3.5551  0.1459
  774MOL0     H 4471   5.842   6.003  12.131 -1.5046  1.3667 -1.1297
  774MOL0     H 4472   5.213   6.746  11.558 -1.8562 -1.3441  0.8040
  774MOL0     H 4473   5.111   6.980  11.588  3.8344 -0.7739 -0.6992
  774MOL0     H 4474   4.814   7.211  11.722  2.0712  0.0033  0.8573
  774MOL0     H 4475   4.686   7.409  11.699 -2.0347 -2.2569  0.3698
  774MOL0     H 4476   5.145   7.222  10.987  0.7303  0.5317  1.9638
  774MOL0     H 4477   5.346   7.210  11.122 -3.7036 -1.0639 -0.4201
  774MOL0     H 4478   5.591   7.240  11.425 -0.4337  1.4379 -1.4612
  774MOL0     H 4479   5.762   7.103  11.531  0.3849 -2.3628 -1.4783
  774MOL0     H 4480   5.977   7.097  11.637 -2.0801 -1.3830  1.1490
  774MOL0     H 4481   5.930   6.929  11.576  3.7524 -2.9190  2.5940
  774MOL0     H 4482   6.114   6.890  11.706  0.0093 -1.0135 -0.1198
  774MOL0     H 4483   6.202   7.033  11.649  1.0549 -1.6440 -0.2742
  774MOL0     H 4484   6.226   6.908  11.429  3.2914 -1.1498  1.1639
  774MOL0     H 4485   6.113   6.781  11.473  0.2622 -0.4988 -0.1364
  774MOL0     H 4486   6.375   6.851  11.611  0.8902  0.0151 -0.7766
  774MOL0     H 4487   6.362   6.723  11.491  1.6545 -4.0247  3.5997
  774MOL0     H 4488   6.183   6.495  11.771 -0.5540 -1.0174 -1.1286
  774MOL0     H 4489   6.026   7.183  11.198 -0.5415  1.4085 -1.6150
  774MOL0     H 4490   5.821   7.305  11.100  0.6947 -0.3759 -0.0434
  775MOL0     O 4491   2.978   3.798   1.275 -0.5971 -0.5634 -0.9762
  775MOL0     C 4492   2.921   3.909   1.249 -0.5743 -0.6020  0.0404
  775MOL0     O 4493   2.977   4.035   1.254  0.5374 -0.0186 -0.0080
  775MOL0     C 4494   3.098   4.062   1.296  0.3172  0.2506 -0.5465
  775MOL0     C 4495   3.131   4.060   1.431 -1.4120  0.8188 -0.7648
  775MOL0     C 4496   3.263   4.057   1.463  0.2001 -0.5855  0.4116
  775MOL0     C 4497   3.364   4.070   1.368 -0.1716 -0.6918  0.0071
  775MOL0     O 4498   3.493   4.060   1.398 -0.5339 -0.1738  0.1236
  775MOL0     C 4499   3.545   4.160   1.501 -0.4986  0.9023 -0.6598
  775MOL0     C 4500   3.695   4.174   1.480 -0.4677  0.5886 -0.6654
  775MOL0     C 4501   3.774   4.045   1.489  0.6884  0.4050  0.1318
  775MOL0     C 4502   3.924   4.061   1.435 -0.3801  0.2554 -0.2292
  775MOL0     C 4503   3.964   3.924   1.418 -0.1293  0.5551  0.1864
  775MOL0     C 4504   4.114   3.907   1.378 -0.1513 -0.0845 -0.2921
  775MOL0     C 4505   4.137   3.804   1.270  0.2789  0.6195  0.3243
  775MOL0     C 4506   4.093   3.846   1.130 -0.2464 -0.2664  0.0251
  775MOL0     N 4507   4.197   3.937   1.080  0.2236  0.1587  0.1727
  775MOL0     C 4508   4.284   3.925   0.972 -0.5979  0.0329 -0.4835
  775MOL0     C 4509   4.334   4.056   0.961 -0.6064 -0.5697  0.0301
  775MOL0     C 4510   4.438   4.103   0.857  0.2506 -0.3008 -0.5910
  775MOL0     C 4511   4.394   4.083   0.719  0.6176 -0.4184  0.2692
  775MOL0     C 4512   4.293   4.184   0.669 -0.8063  0.4090 -0.6418
  775MOL0     C 4513   4.148   4.139   0.712 -0.3106 -0.9652  0.1518
  775MOL0     O 4514   4.121   4.029   0.632 -0.5740  0.3408  1.2763
  775MOL0     C 4515   4.003   3.958   0.651 -0.8579  0.5420  0.4621
  775MOL0     C 4516   3.930   3.969   0.768  0.0880  0.6754  0.0986
  775MOL0     C 4517   3.804   3.918   0.775 -0.5415  0.2942  0.1192
  775MOL0     C 4518   3.737   3.926   0.903  0.0215 -0.4598 -0.9179
  775MOL0     C 4519   3.761   3.843   0.673  0.1770 -0.3653  0.4170
  775MOL0     C 4520   3.622   3.796   0.662 -0.5819  0.1860 -0.8157
  775MOL0     O 4521   3.601   3.679   0.600 -0.4472  0.0721 -0.0569
  775MOL0     C 4522   3.475   3.656   0.554  0.2654  0.5206 -0.2248
  775MOL0     C 4523   3.362   3.680   0.630  1.1419  0.8554  0.1124
  775MOL0     C 4524   3.236   3.664   0.584  0.7034  0.0242 -0.0383
  775MOL0     C 4525   3.213   3.622   0.449 -0.4147 -0.0856  0.1243
  775MOL0     O 4526   3.089   3.609   0.397 -0.4525  0.3437  0.7898
  775MOL0     C 4527   3.020   3.735   0.376  0.2796 -0.5060  0.6590
  775MOL0     C 4528   2.906   3.722   0.291 -0.5027 -0.1472  0.2215
  775MOL0     C 4529   2.782   3.656   0.347  0.3883  0.2347  0.5401
  775MOL0     C 4530   2.689   3.750   0.426  0.1037  0.4829  0.0747
  775MOL0     C 4531   2.592   3.668   0.513  0.1617  0.7443 -0.4910
  775MOL0     C 4532   2.506   3.574   0.423 -0.0506 -0.4416 -0.0315
  775MOL0     C 4533   2.376   3.545   0.494 -0.3092 -0.0050 -0.8660
  775MOL0     C 4534   2.272   3.464   0.412  0.8094  0.7861  0.4561
  775MOL0    Cl 4535   2.194   3.573   0.297 -0.5267  0.4378 -0.3339
  775MOL0     C 4536   3.324   3.600   0.372  0.2012 -0.6894  0.0598
  775MOL0     C 4537   3.456   3.631   0.416  0.7385 -0.0008 -0.2128
  775MOL0     O 4538   3.534   3.858   0.714 -0.2015 -0.5603  0.1389
  775MOL0     C 4539   3.843   3.823   0.554 -1.1409 -0.2012  0.5933
  775MOL0     C 4540   3.966   3.881   0.548 -0.2600  1.1233  0.0015
  775MOL0     N 4541   4.291   4.141   1.050  0.0083 -0.5770 -0.0056
  775MOL0     N 4542   4.210   4.077   1.124 -0.4950  0.4925 -0.4818
  775MOL0     C 4543   3.328   4.085   1.232  0.4598 -0.4578 -0.4963
  775MOL0     C 4544   3.189   4.089   1.195 -0.4055 -0.1905  0.2010
  775MOL0     C 4545   2.776   3.907   1.217 -0.1681 -1.0291  0.6058
  775MOL0     C 4546   2.716   4.012   1.140 -0.6521  0.2117 -0.3372
  775MOL0     C 4547   2.574   4.008   1.117  0.1959 -0.2184  0.8084
  775MOL0     C 4548   2.501   3.898   1.162  0.5606 -0.1939  0.2329
  775MOL0     O 4549   2.365   3.915   1.128  0.6225  0.6258  0.2373
  775MOL0     C 4550   2.272   3.803   1.152 -0.7934 -0.5676  0.0996
  775MOL0     C 4551   2.151   3.814   1.062  0.7153 -0.4191  0.4639
  775MOL0     C 4552   2.056   3.934   1.094  0.6246 -0.3392  0.3133
  775MOL0     C 4553   1.924   3.915   1.009  0.0278  0.2763  0.7197
  775MOL0     C 4554   1.822   4.016   1.019  0.1286 -1.1950  0.0792
  775MOL0     C 4555   1.739   4.103   1.023  0.0331 -0.5691 -1.2076
  775MOL0     C 4556   2.551   3.799   1.237  0.4815 -0.2239 -0.4525
  775MOL0     C 4557   2.694   3.798   1.248 -0.1723  0.5712  0.1384
  775MOL0     H 4558   3.056   4.048   1.508 -1.1024 -0.4248 -0.6422
  775MOL0     H 4559   3.293   4.048   1.567  0.9384  0.1849  0.2744
  775MOL0     H 4560   3.497   4.258   1.508  0.3432  1.2213  2.2737
  775MOL0     H 4561   3.527   4.109   1.596 -1.8680  0.2127 -1.2743
  775MOL0     H 4562   3.722   4.219   1.384 -0.0406  3.6637  0.7547
  775MOL0     H 4563   3.737   4.233   1.563 -0.6475 -1.2738  0.8226
  775MOL0     H 4564   3.756   4.014   1.593  0.0737 -0.5427 -0.2546
  775MOL0     H 4565   3.726   3.976   1.420  1.6493  2.0628 -2.3174
  775MOL0     H 4566   3.931   4.107   1.335 -0.9651 -2.8528 -1.8266
  775MOL0     H 4567   3.987   4.112   1.508 -1.7326 -1.8219  2.5961
  775MOL0     H 4568   3.946   3.875   1.515 -0.6681  2.5989  1.1767
  775MOL0     H 4569   3.909   3.874   1.339  1.9250  0.2363 -1.1337
  775MOL0     H 4570   4.161   4.001   1.348 -0.7442  0.6989  1.1016
  775MOL0     H 4571   4.171   3.894   1.470 -1.1845  2.3061  0.7624
  775MOL0     H 4572   4.245   3.790   1.258 -0.0670 -0.8774 -1.3444
  775MOL0     H 4573   4.093   3.712   1.308  5.4064 -2.4849 -0.3245
  775MOL0     H 4574   3.989   3.870   1.111 -1.4387 -3.3368  1.8989
  775MOL0     H 4575   4.098   3.756   1.068 -0.3369  0.3759 -0.9284
  775MOL0     H 4576   4.297   3.849   0.896 -1.6732  0.5229 -1.1778
  775MOL0     H 4577   4.450   4.211   0.870  0.2889 -0.5573  2.1304
  775MOL0     H 4578   4.534   4.061   0.888 -1.1570 -2.3568  1.2961
  775MOL0     H 4579   4.350   3.988   0.685  0.9475  0.1783 -2.0269
  775MOL0     H 4580   4.481   4.095   0.654 -1.8345 -0.0210 -3.2946
  775MOL0     H 4581   4.284   4.186   0.560  0.5743  1.3426 -0.7636
  775MOL0     H 4582   4.323   4.286   0.697  1.4709 -0.8769  2.1384
  775MOL0     H 4583   4.070   4.214   0.693 -0.2571  0.2879  3.9052
  775MOL0     H 4584   4.142   4.115   0.819 -0.7151 -0.7541  0.1808
  775MOL0     H 4585   3.962   4.031   0.851 -0.9097  0.7414  0.4473
  775MOL0     H 4586   3.750   3.838   0.966  2.0426 -0.1712 -0.8470
  775MOL0     H 4587   3.788   4.010   0.952 -1.8955 -0.1636  0.6682
  775MOL0     H 4588   3.633   3.958   0.898  0.3130  0.7750  0.2478
  775MOL0     H 4589   3.373   3.707   0.734  5.7687  0.5760 -0.1197
  775MOL0     H 4590   3.158   3.681   0.657 -1.7431  0.3309 -2.5480
  775MOL0     H 4591   2.980   3.777   0.469 -0.6604  0.7617 -0.2726
  775MOL0     H 4592   3.087   3.811   0.334  1.7661 -2.5347 -0.7876
  775MOL0     H 4593   2.879   3.825   0.262  0.5809  1.2375  3.6717
  775MOL0     H 4594   2.947   3.673   0.202  0.5563  0.4588  0.3632
  775MOL0     H 4595   2.814   3.571   0.407  3.1256  2.3847  2.3836
  775MOL0     H 4596   2.735   3.617   0.256  0.8507 -1.3711  0.9551
  775MOL0     H 4597   2.757   3.807   0.490  1.4054  0.6797 -1.4036
  775MOL0     H 4598   2.642   3.827   0.365  1.0705  1.5284  0.6029
  775MOL0     H 4599   2.540   3.745   0.570  3.1458  0.7681  2.5167
  775MOL0     H 4600   2.643   3.608   0.589 -0.2655  2.9305  1.6552
  775MOL0     H 4601   2.483   3.614   0.323 -0.6886  0.9811  0.6540
  775MOL0     H 4602   2.553   3.476   0.420  1.2288  0.1416 -3.6216
  775MOL0     H 4603   2.332   3.637   0.534  1.1577 -0.3489  1.7786
  775MOL0     H 4604   2.401   3.478   0.576 -0.4961  0.3776 -0.4934
  775MOL0     H 4605   2.192   3.432   0.480 -2.2755  3.0634 -1.8371
  775MOL0     H 4606   2.311   3.371   0.370 -3.3037 -0.3000 -1.4229
  775MOL0     H 4607   3.311   3.562   0.271 -1.4970 -2.8978  1.0128
  775MOL0     H 4608   3.536   3.613   0.345  0.5419 -0.3926 -0.3345
  775MOL0     H 4609   3.812   3.767   0.467 -2.5673 -2.2688  2.3421
  775MOL0     H 4610   4.042   3.861   0.473 -2.2770  3.0731 -2.7582
  775MOL0     H 4611   3.409   4.092   1.160  1.4604  4.4421  0.7059
  775MOL0     H 4612   3.160   4.089   1.090  0.6030  0.2428 -0.0900
  775MOL0     H 4613   2.785   4.082   1.094 -0.1086 -1.9051 -2.9901
  775MOL0     H 4614   2.532   4.092   1.062  2.8258  0.6637 -0.0478
  775MOL0     H 4615   2.320   3.705   1.136 -0.5121 -0.4289  0.0788
  775MOL0     H 4616   2.230   3.796   1.252  0.9777 -2.6001  0.7993
  775MOL0     H 4617   2.090   3.724   1.072  1.4778 -1.0197 -0.2359
  775MOL0     H 4618   2.184   3.823   0.958 -1.2335  1.7861 -0.0526
  775MOL0     H 4619   2.099   4.033   1.079 -2.8629  1.0535 -1.8196
  775MOL0     H 4620   2.019   3.929   1.197 -0.7458  0.3921 -0.1241
  775MOL0     H 4621   1.882   3.815   1.023  2.1438 -1.2644 -2.5399
  775MOL0     H 4622   1.959   3.912   0.905 -2.9586  2.0572 -0.4695
  775MOL0     H 4623   1.677   4.191   1.014  2.1017  1.3650  1.5784
  775MOL0     H 4624   2.497   3.708   1.264  2.3436 -1.1642  0.2950
  775MOL0     H 4625   2.742   3.708   1.285  0.8146  1.9015  2.2675
  776MOL0     O 4626   8.434   3.554   5.765 -0.4013 -0.5099  0.8526
  776MOL0     C 4627   8.480   3.546   5.872 -1.2963  0.3977  0.2352
  776MOL0     O 4628   8.479   3.640   5.961 -0.5042 -0.1347 -0.4061
  776MOL0     C 4629   8.440   3.768   5.924 -0.6095 -0.1266  0.3160
  776MOL0     C 4630   8.302   3.807   5.907  0.4398  0.1247  0.0451
  776MOL0     C 4631   8.261   3.940   5.894  0.6291 -0.1864  0.1676
  776MOL0     C 4632   8.359   4.034   5.861  0.2626 -0.2688  0.0253
  776MOL0     O 4633   8.315   4.164   5.822 -0.3171 -0.0635 -0.9297
  776MOL0     C 4634   8.407   4.249   5.749  0.2014 -0.1683  0.7033
  776MOL0     C 4635   8.340   4.377   5.721  1.3723  0.6258 -0.6579
  776MOL0     C 4636   8.281   4.440   5.847  0.1475 -0.3338  0.3509
  776MOL0     C 4637   8.227   4.587   5.823  0.1497 -0.4588  0.6983
  776MOL0     C 4638   8.092   4.590   5.766  0.0315  0.4178  0.1189
  776MOL0     C 4639   8.018   4.725   5.776 -0.2346 -0.3327  0.2879
  776MOL0     C 4640   7.945   4.733   5.918 -0.7623 -0.3903  0.4671
  776MOL0     C 4641   7.865   4.860   5.923 -0.4367 -1.2225 -1.0826
  776MOL0     N 4642   7.773   4.845   6.030 -1.0539  0.2220 -0.4946
  776MOL0     C 4643   7.659   4.769   6.042  0.5382 -0.4058  1.0598
  776MOL0     C 4644   7.630   4.780   6.170  0.6806  0.5337 -1.3375
  776MOL0     C 4645   7.528   4.695   6.250  0.3289 -0.1954  0.1719
  776MOL0     C 4646   7.381   4.747   6.235  0.3048  0.4861 -0.2177
  776MOL0     C 4647   7.359   4.894   6.259 -0.4897 -0.5129  0.0306
  776MOL0     C 4648   7.418   4.940   6.396  0.3537 -0.2486  0.1087
  776MOL0     O 4649   7.380   4.851   6.504  0.1744  0.3972  0.5943
  776MOL0     C 4650   7.412   4.882   6.638  0.2160 -0.4891 -0.0641
  776MOL0     C 4651   7.336   4.832   6.748 -0.4337  0.0954 -0.6090
  776MOL0     C 4652   7.376   4.855   6.884  0.0381  0.5167  0.6198
  776MOL0     C 4653   7.276   4.806   6.990  0.2512 -0.2603 -0.3530
  776MOL0     C 4654   7.488   4.944   6.916 -0.3639  0.2520  0.1773
  776MOL0     C 4655   7.537   4.990   7.044  1.3651 -0.1793  0.0581
  776MOL0     O 4656   7.506   4.902   7.147  0.0404 -0.1482  0.6183
  776MOL0     C 4657   7.527   4.933   7.281  0.2737 -0.6257  0.6470
  776MOL0     C 4658   7.430   4.869   7.359 -0.6821 -0.4738 -0.3783
  776MOL0     C 4659   7.429   4.891   7.501 -0.8052 -0.5224  0.8228
  776MOL0     C 4660   7.527   4.976   7.554 -0.1349 -0.3780 -0.7324
  776MOL0     O 4661   7.528   4.979   7.693  0.5698  0.6308  0.2144
  776MOL0     C 4662   7.642   5.031   7.771 -0.0752 -0.4343 -0.8345
  776MOL0     C 4663   7.648   4.983   7.913  0.4032 -0.4383 -0.2830
  776MOL0     C 4664   7.687   4.834   7.915 -0.8590 -0.3140  0.7935
  776MOL0     C 4665   7.753   4.793   8.047  0.7840  0.2482  0.4276
  776MOL0     C 4666   7.827   4.662   8.041  0.4838  0.4887  0.9412
  776MOL0     C 4667   7.887   4.630   8.182  0.8544 -0.5695 -1.2017
  776MOL0     C 4668   8.012   4.548   8.149 -0.0823 -0.1991  1.2032
  776MOL0     C 4669   8.098   4.511   8.262  0.2429 -0.2862 -1.2423
  776MOL0    Cl 4670   7.997   4.454   8.407 -0.0921  0.2308  0.1242
  776MOL0     C 4671   7.623   5.044   7.475 -0.1042 -0.0763  0.3992
  776MOL0     C 4672   7.616   5.028   7.334  0.4607  0.0009 -0.1404
  776MOL0     O 4673   7.572   5.104   7.051  0.1319  0.2297  0.6587
  776MOL0     C 4674   7.552   4.994   6.803  0.6372 -0.6832  1.0869
  776MOL0     C 4675   7.522   4.967   6.663 -0.1957 -0.6146 -0.8687
  776MOL0     N 4676   7.717   4.858   6.242 -0.0366  0.2700  0.0334
  776MOL0     N 4677   7.798   4.903   6.157  0.0232  0.0271 -0.2039
  776MOL0     C 4678   8.495   3.997   5.879 -0.6409 -0.5634  0.9697
  776MOL0     C 4679   8.540   3.865   5.910 -0.6427 -0.3056  1.0127
  776MOL0     C 4680   8.546   3.420   5.911  0.5389  0.4717 -0.6606
  776MOL0     C 4681   8.609   3.398   6.035  0.3015 -0.0690  0.1753
  776MOL0     C 4682   8.668   3.280   6.070  0.7367  0.6616  0.3676
  776MOL0     C 4683   8.670   3.173   5.975 -0.9755  0.4937 -0.6017
  776MOL0     O 4684   8.747   3.058   5.991  0.3882 -0.1950  0.7739
  776MOL0     C 4685   8.881   3.060   6.048 -0.2995 -0.7690  0.8419
  776MOL0     C 4686   8.892   2.951   6.157 -0.5422  0.5308 -0.0046
  776MOL0     C 4687   9.042   2.929   6.198  0.4246 -0.0101 -1.3967
  776MOL0     C 4688   9.048   2.822   6.315  0.7543  0.4163  0.8531
  776MOL0     C 4689   9.054   2.685   6.254  0.3334 -0.9042  0.0909
  776MOL0     C 4690   9.065   2.574   6.204  0.5996  0.6079  1.2523
  776MOL0     C 4691   8.607   3.200   5.860  0.9402  0.3306  0.3693
  776MOL0     C 4692   8.538   3.312   5.822  0.2382 -0.0227  0.0172
  776MOL0     H 4693   8.225   3.735   5.934 -0.7051  1.1394 -0.3866
  776MOL0     H 4694   8.159   3.978   5.905  1.2515  2.5858 -2.2202
  776MOL0     H 4695   8.501   4.265   5.803  0.6456  1.3867 -0.4636
  776MOL0     H 4696   8.425   4.198   5.654 -1.2301 -2.5709  1.6275
  776MOL0     H 4697   8.402   4.442   5.660 -0.2898  1.8846 -1.0802
  776MOL0     H 4698   8.251   4.360   5.659  1.4936  1.5099 -1.0830
  776MOL0     H 4699   8.197   4.381   5.886 -2.9826  3.0078 -0.7417
  776MOL0     H 4700   8.355   4.449   5.927  1.0365 -0.4865 -0.4270
  776MOL0     H 4701   8.236   4.658   5.905  0.5306  0.6510 -0.2872
  776MOL0     H 4702   8.295   4.627   5.748  0.2199 -3.5740 -1.0471
  776MOL0     H 4703   8.115   4.583   5.659  2.6858  0.3883  0.6167
  776MOL0     H 4704   8.019   4.513   5.791 -1.0265  2.2779  3.2574
  776MOL0     H 4705   8.084   4.811   5.767 -0.5097  0.3411  3.5753
  776MOL0     H 4706   7.943   4.739   5.698 -0.4277  2.6296  0.9101
  776MOL0     H 4707   7.883   4.644   5.929 -3.5363  0.9845 -2.4420
  776MOL0     H 4708   8.017   4.735   6.000  0.6328 -4.8345 -0.3757
  776MOL0     H 4709   7.814   4.899   5.834  3.5689 -4.0481 -4.9921
  776MOL0     H 4710   7.933   4.940   5.954 -3.5685  1.6452 -0.9747
  776MOL0     H 4711   7.619   4.700   5.968  0.1566  1.3927 -0.5017
  776MOL0     H 4712   7.543   4.596   6.206  1.4797 -0.0645  0.2437
  776MOL0     H 4713   7.565   4.699   6.353  0.7235  2.0038 -0.0048
  776MOL0     H 4714   7.321   4.681   6.299 -1.5199 -0.1541 -2.4494
  776MOL0     H 4715   7.343   4.726   6.135 -2.7197  2.9272  0.2529
  776MOL0     H 4716   7.254   4.922   6.251 -0.4430  0.4724  2.1100
  776MOL0     H 4717   7.410   4.951   6.181 -0.5496 -0.8036 -0.2230
  776MOL0     H 4718   7.392   5.044   6.418 -1.2390 -0.2692 -1.5040
  776MOL0     H 4719   7.526   4.953   6.382 -0.0834  3.7844 -0.9350
  776MOL0     H 4720   7.255   4.766   6.719 -0.0035 -1.2222  0.9976
  776MOL0     H 4721   7.212   4.885   7.031 -0.0719 -2.1244  3.1518
  776MOL0     H 4722   7.211   4.733   6.943 -0.9781 -0.0416  0.9562
  776MOL0     H 4723   7.325   4.748   7.069 -0.0796  1.7688  1.4175
  776MOL0     H 4724   7.360   4.807   7.304  0.1919 -0.7389 -1.2305
  776MOL0     H 4725   7.371   4.827   7.566 -0.5237 -1.0561  0.5563
  776MOL0     H 4726   7.733   4.999   7.720 -0.0183 -0.2262 -0.8633
  776MOL0     H 4727   7.639   5.140   7.769  3.5129 -0.2155 -2.4815
  776MOL0     H 4728   7.722   5.033   7.977  1.4627 -0.6638 -1.3080
  776MOL0     H 4729   7.545   4.981   7.951 -0.1027  0.1452 -1.5631
  776MOL0     H 4730   7.760   4.816   7.835 -3.1649 -2.6445 -0.9576
  776MOL0     H 4731   7.593   4.784   7.889 -0.3554 -1.5600  1.3134
  776MOL0     H 4732   7.817   4.878   8.073  0.9052  0.2909  0.0006
  776MOL0     H 4733   7.680   4.802   8.128  0.8245  5.1576  0.2101
  776MOL0     H 4734   7.886   4.667   7.949 -0.7596 -0.0348  0.0920
  776MOL0     H 4735   7.757   4.581   8.021  0.5147  0.7752 -0.3755
  776MOL0     H 4736   7.909   4.723   8.236 -2.2622  0.7450 -2.0209
  776MOL0     H 4737   7.807   4.576   8.233 -1.5054  3.7672  0.2231
  776MOL0     H 4738   8.077   4.603   8.081 -1.9460 -1.7758 -2.0745
  776MOL0     H 4739   7.985   4.454   8.100 -0.8510  0.0550  1.1189
  776MOL0     H 4740   8.150   4.601   8.298  0.0558 -0.4468 -0.5481
  776MOL0     H 4741   8.175   4.435   8.244  0.0333 -0.6090 -0.8012
  776MOL0     H 4742   7.704   5.102   7.519 -0.6218 -0.8589  2.5174
  776MOL0     H 4743   7.681   5.089   7.271  0.9943  1.5826  1.8192
  776MOL0     H 4744   7.639   5.056   6.825 -0.6716  1.4493  0.5228
  776MOL0     H 4745   7.591   5.010   6.592  2.2170  1.1703  2.2781
  776MOL0     H 4746   8.582   4.058   5.856 -1.0511 -0.2897  0.0952
  776MOL0     H 4747   8.647   3.849   5.913 -0.4864  0.0092 -0.9691
  776MOL0     H 4748   8.611   3.489   6.095  1.7717  0.0962 -0.0962
  776MOL0     H 4749   8.719   3.265   6.164 -1.0734 -1.7751  1.0498
  776MOL0     H 4750   8.960   3.044   5.975 -0.2098 -0.1865  0.8051
  776MOL0     H 4751   8.909   3.154   6.095 -0.0757  1.4654 -3.2856
  776MOL0     H 4752   8.859   2.856   6.112  0.9720 -0.3094  0.5893
  776MOL0     H 4753   8.825   2.967   6.242  0.1800  0.9340  0.4902
  776MOL0     H 4754   9.081   3.020   6.244  1.3798 -1.3872  0.6639
  776MOL0     H 4755   9.110   2.899   6.117  1.4283  0.2168 -0.6591
  776MOL0     H 4756   8.967   2.830   6.388  0.6940  0.3384  0.7949
  776MOL0     H 4757   9.143   2.836   6.367  2.6406  2.9126 -2.8133
  776MOL0     H 4758   9.058   2.471   6.176  0.0232 -0.1789  4.0465
  776MOL0     H 4759   8.612   3.120   5.787 -0.5417  2.4236 -2.2543
  776MOL0     H 4760   8.475   3.315   5.734  0.0196 -1.8236  0.0637
  777MOL0     O 4761   1.634   4.228   1.602 -0.1530 -0.0884 -0.3409
  777MOL0     C 4762   1.703   4.185   1.508  0.4412  0.1102 -0.4824
  777MOL0     O 4763   1.654   4.135   1.389 -0.0095 -0.8456 -0.2867
  777MOL0     C 4764   1.522   4.114   1.387  0.4273  0.4513  0.5051
  777MOL0     C 4765   1.448   4.045   1.487 -0.9458  0.9756 -0.5634
  777MOL0     C 4766   1.311   4.040   1.486 -0.4157  0.1638  0.8205
  777MOL0     C 4767   1.244   4.078   1.374 -0.2032 -0.1614 -0.2942
  777MOL0     O 4768   1.107   4.058   1.383 -0.3664 -0.4064 -0.7219
  777MOL0     C 4769   1.023   4.068   1.269  0.8133  0.2046  0.2044
  777MOL0     C 4770   0.876   4.033   1.313 -0.5209  0.9202 -0.1311
  777MOL0     C 4771   0.772   4.017   1.201  0.7473 -0.8251  0.4292
  777MOL0     C 4772   0.625   4.020   1.261 -0.5949  0.0642  0.2337
  777MOL0     C 4773   0.515   3.977   1.162  0.7813  0.3984 -0.2657
  777MOL0     C 4774   0.382   3.953   1.244  0.5574  0.0786 -0.2986
  777MOL0     C 4775   0.261   3.917   1.148 -0.7183 -0.4804  0.8136
  777MOL0     C 4776   0.157   3.821   1.219 -0.4252 -0.0300 -0.4128
  777MOL0     N 4777   0.091   3.893   1.330  0.3706  0.6066  0.8972
  777MOL0     C 4778   0.016   4.007   1.308 -0.3347  0.1476  0.6327
  777MOL0     C 4779  -0.044   4.033   1.421  0.7373  0.1255  0.0547
  777MOL0     C 4780  -0.111   4.165   1.443  0.4015  0.3707 -0.8979
  777MOL0     C 4781  -0.136   4.186   1.601 -0.0474 -0.0242  0.2276
  777MOL0     C 4782  -0.205   4.323   1.629 -0.2834  0.1533  0.4075
  777MOL0     C 4783  -0.209   4.342   1.793  0.2205 -0.0640  0.2125
  777MOL0     O 4784  -0.233   4.475   1.842  0.4339  0.5033  0.2566
  777MOL0     C 4785  -0.357   4.533   1.844  0.2603 -0.3151  0.2247
  777MOL0     C 4786  -0.476   4.459   1.825 -0.1990  0.9443  0.9335
  777MOL0     C 4787  -0.600   4.524   1.797 -0.1029  0.0084 -0.2169
  777MOL0     C 4788  -0.718   4.445   1.754  0.4167  0.6705  0.4592
  777MOL0     C 4789  -0.607   4.668   1.797 -0.3822  0.3781 -1.0441
  777MOL0     C 4790  -0.729   4.748   1.776  0.5160  0.5708 -0.2239
  777MOL0     O 4791  -0.789   4.818   1.872  0.8580  0.4281  0.0797
  777MOL0     C 4792  -0.736   4.817   2.000  0.0284  0.8474 -0.0886
  777MOL0     C 4793  -0.736   4.705   2.081 -0.4488 -0.0029 -0.2434
  777MOL0     C 4794  -0.659   4.704   2.200 -0.6325 -0.6278 -0.4449
  777MOL0     C 4795  -0.590   4.826   2.243  0.5476 -1.1557 -0.1720
  777MOL0     O 4796  -0.511   4.820   2.363  0.5180  0.7057  0.3554
  777MOL0     C 4797  -0.398   4.733   2.365 -0.2873  0.6111 -0.4631
  777MOL0     C 4798  -0.287   4.821   2.312 -0.1579 -0.2946 -0.2998
  777MOL0     C 4799  -0.152   4.748   2.303 -0.4411  0.7386  1.0075
  777MOL0     C 4800  -0.105   4.708   2.449  0.2935 -0.0844 -1.4660
  777MOL0     C 4801   0.021   4.615   2.455 -0.9901 -1.0538  0.6381
  777MOL0     C 4802   0.158   4.693   2.417  0.0192  1.2657 -0.1810
  777MOL0     C 4803   0.211   4.789   2.524 -0.0255  0.8125  0.9916
  777MOL0     C 4804   0.216   4.744   2.664  0.7228  0.5769 -0.0647
  777MOL0    Cl 4805   0.262   4.878   2.766  0.0314 -0.5691 -0.0380
  777MOL0     C 4806  -0.617   4.943   2.176 -0.3512  0.8493  0.8394
  777MOL0     C 4807  -0.684   4.930   2.047 -1.1602 -0.8400 -0.7962
  777MOL0     O 4808  -0.784   4.746   1.665 -0.3223 -0.0598  0.3781
  777MOL0     C 4809  -0.487   4.740   1.832 -0.3932 -0.0299 -0.8505
  777MOL0     C 4810  -0.369   4.677   1.855 -0.3636  0.8292 -0.5474
  777MOL0     N 4811   0.010   3.947   1.508 -0.4504  0.5573 -0.2335
  777MOL0     N 4812   0.081   3.855   1.457 -0.2863 -0.6963 -0.0809
  777MOL0     C 4813   1.315   4.144   1.273  0.2269 -0.7724  0.4501
  777MOL0     C 4814   1.448   4.178   1.283  0.4572  0.0054  0.0690
  777MOL0     C 4815   1.842   4.196   1.528 -0.4928  0.0179  0.2965
  777MOL0     C 4816   1.907   4.199   1.654 -0.2982  0.3504 -0.2462
  777MOL0     C 4817   2.048   4.194   1.671  0.0412 -0.5001  0.0301
  777MOL0     C 4818   2.133   4.184   1.559  0.4022  0.5019 -1.3541
  777MOL0     O 4819   2.266   4.181   1.581  1.1422 -0.1851 -0.2174
  777MOL0     C 4820   2.361   4.219   1.486  0.0141  0.5095 -0.3882
  777MOL0     C 4821   2.507   4.215   1.549 -0.3431  0.9421 -0.0437
  777MOL0     C 4822   2.618   4.252   1.457  0.3057 -0.0532  0.1085
  777MOL0     C 4823   2.773   4.218   1.492 -0.0623  0.7054 -0.2841
  777MOL0     C 4824   2.787   4.084   1.543  0.4771  0.7605  0.3981
  777MOL0     C 4825   2.784   3.966   1.560  0.7388  0.1277  0.1713
  777MOL0     C 4826   2.063   4.199   1.432 -0.7070  0.3955 -0.1531
  777MOL0     C 4827   1.921   4.199   1.417 -0.3287  0.5648 -0.2275
  777MOL0     H 4828   1.501   4.003   1.572 -0.6385 -2.1323 -2.1473
  777MOL0     H 4829   1.251   3.994   1.565  4.0748 -1.7974  3.4698
  777MOL0     H 4830   1.030   4.160   1.211  0.2823  0.2893  0.2654
  777MOL0     H 4831   1.036   3.986   1.198  1.8028  0.5350 -0.0081
  777MOL0     H 4832   0.886   3.935   1.360 -0.2720  1.3547  0.7411
  777MOL0     H 4833   0.852   4.094   1.400  0.9516 -0.3998  1.2617
  777MOL0     H 4834   0.775   4.105   1.136 -0.3007 -0.2131  1.1899
  777MOL0     H 4835   0.802   3.939   1.130 -0.1208  0.6503 -1.6651
  777MOL0     H 4836   0.620   3.952   1.346 -0.0176  0.8889  0.9411
  777MOL0     H 4837   0.594   4.115   1.304 -1.4988 -0.4303  0.7155
  777MOL0     H 4838   0.494   4.056   1.089  0.3395  0.3119 -0.2349
  777MOL0     H 4839   0.542   3.887   1.106  0.2525  0.2881 -0.3507
  777MOL0     H 4840   0.390   3.863   1.306 -0.6248 -2.0230 -2.9670
  777MOL0     H 4841   0.369   4.036   1.314  2.3183  0.9051 -0.8867
  777MOL0     H 4842   0.226   4.010   1.101  2.0646 -0.6169 -1.8718
  777MOL0     H 4843   0.312   3.863   1.067  3.8602  5.4445 -0.9588
  777MOL0     H 4844   0.190   3.724   1.257 -3.1152 -0.7522  0.3165
  777MOL0     H 4845   0.080   3.786   1.150  1.0523 -2.5303 -0.9150
  777MOL0     H 4846   0.015   4.056   1.212  3.2352 -1.8862 -0.6371
  777MOL0     H 4847  -0.054   4.249   1.401 -0.7946 -0.1607 -3.8708
  777MOL0     H 4848  -0.210   4.167   1.398  0.3354  3.0108 -0.7782
  777MOL0     H 4849  -0.041   4.175   1.654  0.9224 -0.0793 -1.4513
  777MOL0     H 4850  -0.202   4.107   1.638 -2.0845  0.6207 -1.7842
  777MOL0     H 4851  -0.303   4.344   1.585  0.2442  1.9411  0.0290
  777MOL0     H 4852  -0.143   4.401   1.585  1.2206 -1.9724 -1.4555
  777MOL0     H 4853  -0.108   4.315   1.822  0.0352 -1.4756 -0.3756
  777MOL0     H 4854  -0.272   4.267   1.840  0.5106 -0.6521 -0.3249
  777MOL0     H 4855  -0.478   4.351   1.824  2.1051  0.8127  2.7756
  777MOL0     H 4856  -0.788   4.450   1.838 -0.2211  2.0590 -0.1274
  777MOL0     H 4857  -0.769   4.472   1.661 -0.5385 -2.3078  0.0113
  777MOL0     H 4858  -0.694   4.338   1.745 -1.6023  0.3137 -1.4753
  777MOL0     H 4859  -0.779   4.612   2.046 -0.2214 -0.4097  0.5239
  777MOL0     H 4860  -0.658   4.616   2.264  2.3349  0.0003  0.5039
  777MOL0     H 4861  -0.382   4.686   2.463 -1.1440 -2.7476 -1.7927
  777MOL0     H 4862  -0.406   4.654   2.290 -1.1545 -2.2866  2.4900
  777MOL0     H 4863  -0.311   4.851   2.210 -3.9992  1.2086  0.8874
  777MOL0     H 4864  -0.283   4.914   2.370 -1.3116 -0.8242  0.6750
  777MOL0     H 4865  -0.077   4.806   2.247 -0.0718 -1.6048 -1.1120
  777MOL0     H 4866  -0.166   4.655   2.247  0.3782  1.1790  0.0213
  777MOL0     H 4867  -0.103   4.795   2.515 -3.1898 -0.4753 -0.6486
  777MOL0     H 4868  -0.179   4.643   2.498  0.7508  2.0369  2.4499
  777MOL0     H 4869   0.013   4.546   2.371  3.7296 -0.5769 -0.4777
  777MOL0     H 4870   0.023   4.568   2.554  3.0679 -1.1024  0.6943
  777MOL0     H 4871   0.234   4.615   2.426 -0.4756  0.8253  0.2761
  777MOL0     H 4872   0.156   4.739   2.318 -0.1823  2.7182  0.4847
  777MOL0     H 4873   0.143   4.874   2.522 -0.4607  0.4556 -0.6078
  777MOL0     H 4874   0.308   4.834   2.499 -0.2332  2.1696  2.5084
  777MOL0     H 4875   0.290   4.668   2.689  0.0366  0.2653  1.1109
  777MOL0     H 4876   0.116   4.707   2.689  1.1898  0.2680  1.4550
  777MOL0     H 4877  -0.565   5.034   2.204  1.0841  1.8669 -4.1405
  777MOL0     H 4878  -0.706   5.019   1.989  1.4956  0.1648 -0.3833
  777MOL0     H 4879  -0.495   4.847   1.845  3.0060  0.1433  1.0350
  777MOL0     H 4880  -0.285   4.741   1.879  0.2281  0.0227 -0.4310
  777MOL0     H 4881   1.257   4.183   1.190  3.8927  0.0989 -1.9413
  777MOL0     H 4882   1.496   4.251   1.219  0.6348 -2.6265 -3.0723
  777MOL0     H 4883   1.853   4.209   1.748  1.4177 -2.6663  1.2389
  777MOL0     H 4884   2.081   4.205   1.773 -0.6527  2.0448  0.0296
  777MOL0     H 4885   2.354   4.163   1.393 -1.5514  2.3400 -1.4541
  777MOL0     H 4886   2.344   4.325   1.462  0.8745  0.6304 -0.5011
  777MOL0     H 4887   2.518   4.114   1.591  2.7566  0.4485 -1.6708
  777MOL0     H 4888   2.505   4.286   1.632  4.0066  1.2177  0.0652
  777MOL0     H 4889   2.620   4.361   1.449  1.3579 -0.1664 -1.9861
  777MOL0     H 4890   2.601   4.199   1.362 -0.4252  0.8394 -0.2658
  777MOL0     H 4891   2.801   4.293   1.567  2.8987 -0.3325 -0.2228
  777MOL0     H 4892   2.837   4.233   1.405  2.2155  2.3539  1.5549
  777MOL0     H 4893   2.799   3.860   1.566  2.2997  0.1592 -1.9139
  777MOL0     H 4894   2.122   4.194   1.341 -2.3688 -2.0167 -1.2039
  777MOL0     H 4895   1.873   4.200   1.320 -0.6936 -1.6730 -0.1093
  778MOL0     O 4896   5.329   8.747   4.774 -0.2639 -0.4430  0.3397
  778MOL0     C 4897   5.229   8.735   4.840  0.5665 -0.4752 -0.7313
  778MOL0     O 4898   5.216   8.640   4.938  0.4270 -0.5085  0.3341
  778MOL0     C 4899   5.330   8.584   4.984  0.6725 -0.5179 -0.5166
  778MOL0     C 4900   5.408   8.485   4.911  0.4973 -0.3918 -0.6224
  778MOL0     C 4901   5.528   8.433   4.969  0.4702 -0.2765  0.4092
  778MOL0     C 4902   5.564   8.479   5.106  1.5072  0.1060 -0.1670
  778MOL0     O 4903   5.673   8.436   5.182  0.2888 -0.4643  0.8403
  778MOL0     C 4904   5.785   8.401   5.095 -0.5135  0.3086 -0.3165
  778MOL0     C 4905   5.924   8.391   5.161  0.0294  0.9541  0.0242
  778MOL0     C 4906   5.951   8.521   5.250  0.2378 -0.0584  0.0531
  778MOL0     C 4907   5.910   8.507   5.398  0.5812 -0.0887  0.7516
  778MOL0     C 4908   5.854   8.626   5.460  0.5424  0.0199 -0.1506
  778MOL0     C 4909   5.949   8.748   5.481 -0.7300  0.6520 -0.0957
  778MOL0     C 4910   5.881   8.863   5.558  0.4280 -0.2448 -0.6160
  778MOL0     C 4911   5.748   8.901   5.484  0.1646  0.1290  0.2677
  778MOL0     N 4912   5.691   9.031   5.521  0.2059  0.5869 -0.8010
  778MOL0     C 4913   5.692   9.100   5.645 -1.0205  0.1152  0.0321
  778MOL0     C 4914   5.656   9.225   5.624  0.4162  0.1981  0.2948
  778MOL0     C 4915   5.665   9.335   5.731  0.2335  1.0835 -0.0190
  778MOL0     C 4916   5.540   9.335   5.823 -0.2728 -0.1913  0.7151
  778MOL0     C 4917   5.526   9.461   5.898 -0.4681 -0.6005 -0.3128
  778MOL0     C 4918   5.597   9.442   6.029  0.2499 -0.9173 -0.8727
  778MOL0     O 4919   5.551   9.326   6.096 -1.4985  0.3221 -0.1258
  778MOL0     C 4920   5.423   9.335   6.157 -0.0960 -0.4423 -1.4408
  778MOL0     C 4921   5.384   9.222   6.225  0.5080  0.1598 -0.1295
  778MOL0     C 4922   5.258   9.225   6.297 -0.3630  0.3365  0.6075
  778MOL0     C 4923   5.248   9.106   6.379 -0.2693  0.1159 -0.1206
  778MOL0     C 4924   5.175   9.330   6.292 -0.8263  0.4098 -0.6048
  778MOL0     C 4925   5.040   9.333   6.348 -0.0002 -0.0903 -0.1442
  778MOL0     O 4926   5.006   9.238   6.428 -0.1506  0.6482 -0.1167
  778MOL0     C 4927   4.883   9.230   6.494  0.4702 -0.9905  0.4856
  778MOL0     C 4928   4.853   9.125   6.587  0.5343  0.4489 -0.0856
  778MOL0     C 4929   4.732   9.113   6.651  0.8162  0.1217 -0.8319
  778MOL0     C 4930   4.636   9.209   6.636 -0.3098 -0.0329 -0.5753
  778MOL0     O 4931   4.525   9.226   6.709  0.3489  0.7124  0.1366
  778MOL0     C 4932   4.461   9.110   6.756  0.5742  0.2067  0.3202
  778MOL0     C 4933   4.313   9.104   6.700  0.1730 -0.3680  0.3116
  778MOL0     C 4934   4.305   9.141   6.558 -0.4067 -0.5779  0.5613
  778MOL0     C 4935   4.162   9.127   6.509 -0.4001 -0.1142  0.3493
  778MOL0     C 4936   4.133   9.152   6.366  0.6193  0.2590 -0.4331
  778MOL0     C 4937   4.231   9.105   6.258 -0.2046  0.3102 -0.3829
  778MOL0     C 4938   4.304   9.225   6.192  0.8933 -0.3220  0.3499
  778MOL0     C 4939   4.378   9.184   6.071 -0.6290 -1.0280  0.5314
  778MOL0    Cl 4940   4.469   9.337   6.010  0.1812  0.5867 -0.1638
  778MOL0     C 4941   4.658   9.311   6.541 -0.9141 -0.5869  0.1516
  778MOL0     C 4942   4.772   9.319   6.468 -0.7633  0.1699 -0.6569
  778MOL0     O 4943   4.971   9.426   6.306 -0.3389  0.1659 -0.0910
  778MOL0     C 4944   5.226   9.438   6.234  0.6429 -0.6904  0.2110
  778MOL0     C 4945   5.346   9.449   6.164 -0.1955 -0.1771 -0.2829
  778MOL0     N 4946   5.624   9.242   5.497  0.2578  0.4843 -0.1728
  778MOL0     N 4947   5.668   9.131   5.431 -0.2089 -0.7909  0.2711
  778MOL0     C 4948   5.468   8.559   5.183 -0.6545  0.3019  0.8003
  778MOL0     C 4949   5.365   8.619   5.117 -0.9025 -0.0506 -0.3574
  778MOL0     C 4950   5.115   8.813   4.802  0.1694 -1.1502  0.7918
  778MOL0     C 4951   4.994   8.785   4.856 -0.4857 -0.1779 -0.2555
  778MOL0     C 4952   4.882   8.868   4.832  0.1874  1.2177  0.5059
  778MOL0     C 4953   4.881   8.973   4.741 -1.5080 -0.1604  0.9257
  778MOL0     O 4954   4.765   9.050   4.734 -0.0916 -0.3798 -0.3869
  778MOL0     C 4955   4.744   9.114   4.600  0.2052 -0.3440 -0.3284
  778MOL0     C 4956   4.639   9.029   4.517 -0.0250  0.3154 -0.1937
  778MOL0     C 4957   4.510   8.982   4.587 -0.0898  0.8193  0.5418
  778MOL0     C 4958   4.412   9.096   4.605  0.3315 -0.2089 -0.3400
  778MOL0     C 4959   4.350   9.113   4.470  0.2151 -0.6806 -0.6844
  778MOL0     C 4960   4.317   9.129   4.355  0.2045  0.5219  0.0869
  778MOL0     C 4961   5.007   9.011   4.685 -0.2926  0.6507 -1.0044
  778MOL0     C 4962   5.121   8.927   4.712  0.2478 -1.2392 -0.0771
  778MOL0     H 4963   5.389   8.464   4.806  0.4702 -0.4527 -0.6054
  778MOL0     H 4964   5.586   8.367   4.904 -3.6189 -1.7623 -2.1221
  778MOL0     H 4965   5.770   8.303   5.048 -0.5887  0.4977 -0.6925
  778MOL0     H 4966   5.785   8.477   5.016 -3.9200  0.7984  0.0275
  778MOL0     H 4967   5.927   8.297   5.217 -1.6527 -0.3881 -2.0340
  778MOL0     H 4968   5.997   8.390   5.079  1.1416 -1.6220  0.9561
  778MOL0     H 4969   6.057   8.544   5.242 -0.0164  1.2738  0.3033
  778MOL0     H 4970   5.897   8.607   5.211 -0.8226 -0.8119 -0.1952
  778MOL0     H 4971   5.845   8.420   5.408  0.1276  0.4761  3.6239
  778MOL0     H 4972   6.000   8.474   5.451  0.0613 -0.0503  1.6731
  778MOL0     H 4973   5.768   8.651   5.397 -0.6080 -0.7490  1.0650
  778MOL0     H 4974   5.824   8.602   5.562 -1.6180  0.1810 -0.6827
  778MOL0     H 4975   6.033   8.705   5.537 -1.5119  0.4115  0.9326
  778MOL0     H 4976   5.976   8.772   5.378 -1.3215  1.4307 -0.0732
  778MOL0     H 4977   5.848   8.839   5.660 -0.8821  1.1049 -0.6791
  778MOL0     H 4978   5.948   8.950   5.556 -1.0833  1.0408 -4.8654
  778MOL0     H 4979   5.674   8.820   5.490 -2.8172  2.4529 -2.0354
  778MOL0     H 4980   5.783   8.912   5.381 -0.3403 -1.1151 -0.0579
  778MOL0     H 4981   5.723   9.053   5.738  0.0906 -1.4014 -1.0666
  778MOL0     H 4982   5.751   9.317   5.796 -0.2004  0.4747  0.3989
  778MOL0     H 4983   5.684   9.429   5.678  3.3216 -0.0960 -1.2508
  778MOL0     H 4984   5.527   9.245   5.884 -1.2503 -0.8512 -0.4104
  778MOL0     H 4985   5.458   9.325   5.751 -0.3283 -2.9697  1.0534
  778MOL0     H 4986   5.423   9.490   5.920  0.0816  0.7349  0.7002
  778MOL0     H 4987   5.559   9.544   5.834 -2.8912  0.5316 -0.1984
  778MOL0     H 4988   5.600   9.530   6.095  3.6435 -1.2360 -0.4125
  778MOL0     H 4989   5.702   9.418   6.010 -0.2281 -2.7259 -1.3725
  778MOL0     H 4990   5.461   9.146   6.236 -0.1194 -0.5829 -0.7697
  778MOL0     H 4991   5.330   9.035   6.365 -0.9010 -0.3967 -1.3835
  778MOL0     H 4992   5.232   9.123   6.486 -1.2440  0.3899 -0.3010
  778MOL0     H 4993   5.155   9.059   6.346 -0.7226  1.3806 -0.7148
  778MOL0     H 4994   4.930   9.056   6.621  3.9655  4.7043  1.8041
  778MOL0     H 4995   4.708   9.035   6.723 -3.0605  1.3259 -0.5543
  778MOL0     H 4996   4.504   9.015   6.721 -0.9085  0.6098 -3.1112
  778MOL0     H 4997   4.448   9.122   6.864 -1.4005  5.1399 -0.2145
  778MOL0     H 4998   4.273   9.002   6.710 -1.5975  0.2543 -0.1381
  778MOL0     H 4999   4.256   9.169   6.767  1.4562 -1.0926  2.2027
  778MOL0     H 5000   4.369   9.073   6.501 -1.0362 -1.3412  0.7654
  778MOL0     H 5001   4.341   9.244   6.542  0.0106 -0.7588  0.3078
  778MOL0     H 5002   4.130   9.023   6.516  3.0086 -1.2707  0.6007
  778MOL0     H 5003   4.100   9.199   6.565 -1.2661 -0.4877 -0.1057
  778MOL0     H 5004   4.103   9.257   6.357 -0.8384  0.3127  3.1263
  778MOL0     H 5005   4.040   9.095   6.357 -0.5646  1.9274  0.5869
  778MOL0     H 5006   4.305   9.034   6.299 -1.1506 -0.6319 -0.2559
  778MOL0     H 5007   4.172   9.053   6.182 -3.4710  2.0054  0.8366
  778MOL0     H 5008   4.357   9.285   6.267  0.6721  1.6580 -1.0126
  778MOL0     H 5009   4.227   9.289   6.148  0.5989 -1.1436 -0.3421
  778MOL0     H 5010   4.312   9.149   5.991 -0.2307  1.3496 -0.9210
  778MOL0     H 5011   4.449   9.104   6.091  0.4749  0.1135  1.3078
  778MOL0     H 5012   4.574   9.371   6.509  0.2351  0.6011 -0.7701
  778MOL0     H 5013   4.766   9.392   6.388 -3.6859 -2.9589 -3.6068
  778MOL0     H 5014   5.162   9.525   6.223 -0.3202 -1.5939 -1.8755
  778MOL0     H 5015   5.381   9.546   6.128  2.5851 -1.5072 -1.4869
  778MOL0     H 5016   5.513   8.584   5.279  0.0350  1.2160  0.2600
  778MOL0     H 5017   5.311   8.708   5.150 -0.6489  1.1315 -2.8837
  778MOL0     H 5018   4.975   8.703   4.925 -0.0801  0.9046  1.2028
  778MOL0     H 5019   4.805   8.840   4.903  0.6398 -0.9310  0.2062
  778MOL0     H 5020   4.709   9.214   4.624 -1.2906 -1.0090  0.4429
  778MOL0     H 5021   4.830   9.121   4.533 -1.4793 -0.2481 -2.6350
  778MOL0     H 5022   4.674   8.934   4.474 -0.4720 -0.4456  1.0706
  778MOL0     H 5023   4.614   9.084   4.426  0.7544 -1.9878 -1.8978
  778MOL0     H 5024   4.538   8.946   4.687 -0.0538  0.7466  0.5050
  778MOL0     H 5025   4.464   8.901   4.530 -0.1103  0.6985  0.7286
  778MOL0     H 5026   4.468   9.184   4.639  1.9121 -2.3006  2.8595
  778MOL0     H 5027   4.337   9.078   4.683  0.4213 -0.5702 -0.3373
  778MOL0     H 5028   4.292   9.131   4.251  0.9329  1.0705 -0.0871
  778MOL0     H 5029   5.022   9.098   4.623 -0.7800  2.5089  1.3494
  778MOL0     H 5030   5.219   8.957   4.674 -0.7413  0.6338 -1.3279
  779MOL0     O 5031   2.673   8.753   7.977  0.2196 -0.2003  0.3115
  779MOL0     C 5032   2.734   8.725   8.088  0.4976 -0.1206 -0.1609
  779MOL0     O 5033   2.707   8.787   8.206 -0.0158  0.3163  0.3620
  779MOL0     C 5034   2.607   8.881   8.231  0.4300 -0.0850 -0.1385
  779MOL0     C 5035   2.482   8.888   8.169  0.1193  0.1768 -0.5899
  779MOL0     C 5036   2.394   8.998   8.195  0.0277 -0.6330  0.6835
  779MOL0     C 5037   2.436   9.098   8.281 -1.5233  0.8640 -0.4414
  779MOL0     O 5038   2.376   9.213   8.304  0.1883  1.0144 -0.6210
  779MOL0     C 5039   2.235   9.202   8.293  0.1243 -0.9873 -0.0897
  779MOL0     C 5040   2.172   9.333   8.339  0.8285  0.6581  0.6799
  779MOL0     C 5041   2.252   9.450   8.292  0.0326  0.6864 -0.5564
  779MOL0     C 5042   2.210   9.584   8.355 -0.1470  0.2550 -0.5101
  779MOL0     C 5043   2.252   9.710   8.285  0.3538 -0.5796 -1.0700
  779MOL0     C 5044   2.232   9.701   8.133 -0.3543 -0.0586  0.7685
  779MOL0     C 5045   2.230   9.836   8.064 -0.3212 -0.0196 -0.2145
  779MOL0     C 5046   2.199   9.832   7.908 -0.1695 -0.0451 -0.6623
  779MOL0     N 5047   2.058   9.850   7.873 -0.9079 -0.5156  0.4516
  779MOL0     C 5048   2.000   9.975   7.860 -0.4825 -0.1760  0.0352
  779MOL0     C 5049   1.870   9.928   7.837 -0.1188 -1.0470 -0.1736
  779MOL0     C 5050   1.749  10.008   7.824 -0.3926  0.5215  0.1911
  779MOL0     C 5051   1.717  10.086   7.956 -0.2840  0.8923 -0.4663
  779MOL0     C 5052   1.586  10.163   7.960 -0.1633  0.2498 -0.3269
  779MOL0     C 5053   1.566  10.258   8.083 -0.1654  0.0641 -0.7568
  779MOL0     O 5054   1.571  10.170   8.201 -0.1449 -0.0548  0.2156
  779MOL0     C 5055   1.471  10.082   8.238 -0.3145 -0.0632 -0.0382
  779MOL0     C 5056   1.346  10.080   8.189 -0.1763 -1.1780  0.5460
  779MOL0     C 5057   1.250   9.987   8.243  0.8568 -0.1173 -0.0655
  779MOL0     C 5058   1.113   9.973   8.182  0.1918 -1.0248  0.0591
  779MOL0     C 5059   1.288   9.897   8.357  0.3752  0.3961 -0.1887
  779MOL0     C 5060   1.193   9.785   8.405 -1.0307  0.0832 -0.7786
  779MOL0     O 5061   1.204   9.758   8.545 -0.5361 -0.0659  0.4692
  779MOL0     C 5062   1.124   9.659   8.592  0.7210  0.0413 -0.8441
  779MOL0     C 5063   1.109   9.531   8.548  0.2970  0.3691 -0.1328
  779MOL0     C 5064   1.020   9.442   8.606 -0.0774  0.3486 -1.8293
  779MOL0     C 5065   0.926   9.487   8.705  0.2874 -0.2294 -0.3194
  779MOL0     O 5066   0.823   9.415   8.755  0.0581 -0.2445 -0.0400
  779MOL0     C 5067   0.808   9.278   8.708  0.0244 -0.6822 -0.7647
  779MOL0     C 5068   0.664   9.227   8.742 -0.3077 -0.7208 -0.9822
  779MOL0     C 5069   0.654   9.226   8.902 -0.9446 -0.4604  0.8390
  779MOL0     C 5070   0.755   9.129   8.961  0.0380  0.0449  0.3444
  779MOL0     C 5071   0.728   9.109   9.111 -0.3596 -0.6539 -0.2875
  779MOL0     C 5072   0.817   9.001   9.170 -0.7643  0.5104 -0.6024
  779MOL0     C 5073   0.794   9.010   9.320 -0.7260  0.8306  1.2088
  779MOL0     C 5074   0.834   8.886   9.398  0.0621 -0.0557 -0.7423
  779MOL0    Cl 5075   0.874   8.930   9.566  0.3864 -0.1919  0.0129
  779MOL0     C 5076   0.946   9.617   8.768 -0.3770  0.1150  0.4345
  779MOL0     C 5077   1.044   9.702   8.709 -0.1600  0.1272  0.5762
  779MOL0     O 5078   1.108   9.738   8.333  0.2686  0.1543 -0.6033
  779MOL0     C 5079   1.406   9.917   8.412 -0.6200 -0.1697 -0.4118
  779MOL0     C 5080   1.492  10.014   8.356  0.1245 -0.8554  1.0635
  779MOL0     N 5081   1.860   9.788   7.820  0.3926  0.8410 -0.6659
  779MOL0     N 5082   1.978   9.746   7.854 -0.3636 -0.2876 -0.3538
  779MOL0     C 5083   2.564   9.104   8.336  0.7551  0.6423  0.2789
  779MOL0     C 5084   2.642   8.993   8.305 -0.3772 -0.6451 -0.1203
  779MOL0     C 5085   2.840   8.622   8.080  0.5731 -1.5625 -0.8041
  779MOL0     C 5086   2.917   8.590   8.193 -0.4494 -0.0923  0.5607
  779MOL0     C 5087   3.033   8.513   8.183  0.0796 -0.1263 -0.0522
  779MOL0     C 5088   3.058   8.437   8.068 -0.0081 -0.4968 -0.1520
  779MOL0     O 5089   3.163   8.352   8.064  0.4430  0.1974  0.4288
  779MOL0     C 5090   3.254   8.387   7.955 -0.0159 -0.4959  0.7717
  779MOL0     C 5091   3.393   8.332   7.971  0.2908  0.7118  0.2477
  779MOL0     C 5092   3.401   8.177   7.968 -0.9148  0.8546 -0.4092
  779MOL0     C 5093   3.537   8.108   7.980  0.0388  0.5962  0.0312
  779MOL0     C 5094   3.616   8.149   7.859 -0.3201 -1.2046 -0.8886
  779MOL0     C 5095   3.668   8.189   7.763 -1.1007  0.0885 -0.1862
  779MOL0     C 5096   2.974   8.457   7.956  0.1808  0.1948 -0.5765
  779MOL0     C 5097   2.872   8.545   7.966 -0.0452 -0.6214 -1.0182
  779MOL0     H 5098   2.457   8.805   8.104  1.7119  0.2432 -1.3563
  779MOL0     H 5099   2.296   9.009   8.150  0.4274  2.9358  0.3843
  779MOL0     H 5100   2.202   9.202   8.189  0.0550  0.1518 -0.0774
  779MOL0     H 5101   2.194   9.118   8.349 -0.1176  0.0786  1.3855
  779MOL0     H 5102   2.066   9.333   8.310  0.2493  3.1674  2.4536
  779MOL0     H 5103   2.165   9.328   8.448  2.6048 -2.8053  0.7776
  779MOL0     H 5104   2.349   9.439   8.341 -0.4891 -1.9543  0.0795
  779MOL0     H 5105   2.264   9.451   8.184 -2.1256 -2.7674 -0.9971
  779MOL0     H 5106   2.103   9.579   8.377 -0.4734 -0.2197 -2.0819
  779MOL0     H 5107   2.258   9.589   8.453 -2.6841  0.5632  0.7877
  779MOL0     H 5108   2.193   9.796   8.317  1.1524  0.3412 -2.0045
  779MOL0     H 5109   2.355   9.731   8.315 -0.6731  0.0858  2.4146
  779MOL0     H 5110   2.317   9.645   8.093 -0.9335 -0.5951  0.2840
  779MOL0     H 5111   2.140   9.647   8.107 -0.3357 -0.0518  0.6870
  779MOL0     H 5112   2.161   9.902   8.118  0.3782  0.0852  0.5806
  779MOL0     H 5113   2.330   9.874   8.088 -0.0595 -1.4054  1.0181
  779MOL0     H 5114   2.229   9.734   7.869 -4.3843 -1.5877 -0.5050
  779MOL0     H 5115   2.252   9.921   7.871 -2.1677  1.5016  0.0513
  779MOL0     H 5116   2.040  10.073   7.885  1.4873 -0.9586  0.1327
  779MOL0     H 5117   1.764  10.077   7.740  0.1487 -1.7414 -1.6682
  779MOL0     H 5118   1.662   9.947   7.797 -0.1459  0.8891 -1.5560
  779MOL0     H 5119   1.803  10.148   7.985  0.0986  0.4776 -0.7045
  779MOL0     H 5120   1.707  10.006   8.030  0.5248  1.3665  0.1837
  779MOL0     H 5121   1.517  10.079   7.945  1.2597 -0.7113 -1.8018
  779MOL0     H 5122   1.567  10.220   7.868  4.4307 -1.1312 -2.3867
  779MOL0     H 5123   1.467  10.305   8.082 -0.5609 -0.4864  2.1137
  779MOL0     H 5124   1.642  10.337   8.087 -2.1141  1.9969  1.1960
  779MOL0     H 5125   1.319  10.144   8.106 -2.9464 -1.3160  1.2605
  779MOL0     H 5126   1.029   9.982   8.252 -0.5158  0.0140 -0.8673
  779MOL0     H 5127   1.098  10.050   8.106  0.1449  4.1332  4.6185
  779MOL0     H 5128   1.102   9.874   8.139 -3.4221 -0.4260 -0.7062
  779MOL0     H 5129   1.169   9.505   8.460 -1.2170 -1.5189 -0.6629
  779MOL0     H 5130   1.026   9.340   8.569 -0.2177 -0.3601  0.0222
  779MOL0     H 5131   0.804   9.287   8.599 -0.2333  1.3264 -0.6258
  779MOL0     H 5132   0.889   9.214   8.742  3.3444  3.5997  0.1833
  779MOL0     H 5133   0.598   9.308   8.711  1.6006  2.1088  1.6726
  779MOL0     H 5134   0.647   9.125   8.707  0.5080 -2.5139  3.2106
  779MOL0     H 5135   0.551   9.193   8.919 -1.3800 -0.2478 -1.1481
  779MOL0     H 5136   0.660   9.324   8.951 -0.8234  0.0186 -0.1091
  779MOL0     H 5137   0.747   9.033   8.909  0.5503 -0.1248  0.5726
  779MOL0     H 5138   0.859   9.161   8.947  1.1530 -3.4093 -0.2203
  779MOL0     H 5139   0.623   9.078   9.114 -0.8379  0.7099 -1.8743
  779MOL0     H 5140   0.738   9.205   9.163 -2.8170  0.0315 -0.9502
  779MOL0     H 5141   0.784   8.900   9.144  0.0429 -1.3810  4.6688
  779MOL0     H 5142   0.920   9.018   9.138 -0.5655 -3.4830 -2.7373
  779MOL0     H 5143   0.689   9.031   9.342 -0.4186  1.8732  1.7430
  779MOL0     H 5144   0.855   9.090   9.363 -0.4079  1.9933 -1.2287
  779MOL0     H 5145   0.927   8.844   9.360 -0.6571 -0.9986 -1.5221
  779MOL0     H 5146   0.754   8.813   9.416 -1.0057  1.5937  1.7724
  779MOL0     H 5147   0.902   9.661   8.856 -1.7076 -1.0702  0.3795
  779MOL0     H 5148   1.057   9.803   8.747 -1.5266 -0.5726  3.1529
  779MOL0     H 5149   1.441   9.847   8.488  1.4707 -1.6112 -2.5846
  779MOL0     H 5150   1.583  10.036   8.410  2.1961  0.2985 -2.5525
  779MOL0     H 5151   2.576   9.190   8.402 -0.1806  1.5391 -0.6904
  779MOL0     H 5152   2.738   8.991   8.356 -1.1571 -0.3323  1.4258
  779MOL0     H 5153   2.904   8.656   8.278  1.5836  2.5241 -1.0069
  779MOL0     H 5154   3.106   8.505   8.264  1.8510 -0.1560 -1.5814
  779MOL0     H 5155   3.209   8.357   7.861 -1.2769  4.7796 -0.6665
  779MOL0     H 5156   3.266   8.494   7.936 -3.3541  0.4274  2.8754
  779MOL0     H 5157   3.424   8.368   8.070 -0.9440 -0.3126  1.0452
  779MOL0     H 5158   3.454   8.373   7.890  0.3135  2.0398  0.9031
  779MOL0     H 5159   3.355   8.140   7.876 -2.0603 -0.4235  0.6283
  779MOL0     H 5160   3.330   8.136   8.041 -0.5066  0.3848 -0.2730
  779MOL0     H 5161   3.520   8.002   7.960  1.4656  0.4190 -0.3865
  779MOL0     H 5162   3.592   8.124   8.073 -0.1879  0.1651  0.2413
  779MOL0     H 5163   3.713   8.225   7.672 -0.3454 -4.3445 -1.7984
  779MOL0     H 5164   2.988   8.390   7.872  1.6727  1.2704 -1.2399
  779MOL0     H 5165   2.803   8.562   7.884 -2.5329  1.9888  1.4107
  780MOL0     O 5166   1.157   3.602   3.673  0.4006  0.2631  0.3705
  780MOL0     C 5167   1.222   3.593   3.567 -0.0200 -0.1960 -0.2709
  780MOL0     O 5168   1.176   3.611   3.441  0.1013  0.3659 -0.3424
  780MOL0     C 5169   1.089   3.708   3.411 -0.3483  0.3966  0.2581
  780MOL0     C 5170   0.983   3.667   3.326 -0.3856  0.2488 -1.7352
  780MOL0     C 5171   0.883   3.763   3.309  0.4460  0.1031  0.3022
  780MOL0     C 5172   0.875   3.884   3.366 -0.6385  0.1284  0.7660
  780MOL0     O 5173   0.771   3.964   3.327 -0.7246 -0.2010  0.5624
  780MOL0     C 5174   0.769   4.102   3.371  0.1437 -0.3673  0.1644
  780MOL0     C 5175   0.663   4.173   3.281  0.3211  0.0660 -1.1347
  780MOL0     C 5176   0.706   4.152   3.125 -0.0062 -0.8144 -0.9283
  780MOL0     C 5177   0.776   4.277   3.059  1.5350  0.3991 -0.0703
  780MOL0     C 5178   0.806   4.246   2.923 -0.0705 -0.2462  0.2485
  780MOL0     C 5179   0.891   4.350   2.840 -0.0623  0.4251 -0.3547
  780MOL0     C 5180   0.904   4.482   2.902 -0.7837 -0.4454  0.4820
  780MOL0     C 5181   0.936   4.595   2.798 -0.0427  0.4423  0.8699
  780MOL0     N 5182   0.970   4.716   2.864 -0.1155 -0.7899  0.4231
  780MOL0     C 5183   0.924   4.837   2.813  0.0310  0.0609 -0.2694
  780MOL0     C 5184   0.981   4.932   2.885 -0.5327  0.0781 -0.2702
  780MOL0     C 5185   0.968   5.084   2.848  0.3532 -0.8819  0.4451
  780MOL0     C 5186   1.028   5.122   2.703 -0.2938  0.1721  1.0219
  780MOL0     C 5187   1.177   5.126   2.702  0.6101 -0.3704  0.2946
  780MOL0     C 5188   1.241   5.200   2.577 -0.0373  0.6015 -0.5320
  780MOL0     O 5189   1.202   5.331   2.588 -0.5564 -0.0249 -0.0192
  780MOL0     C 5190   1.168   5.380   2.471  0.4393 -0.0919  0.5170
  780MOL0     C 5191   1.267   5.441   2.393 -0.1125  0.3730 -0.3965
  780MOL0     C 5192   1.232   5.506   2.271  0.2325 -0.9817 -0.8954
  780MOL0     C 5193   1.342   5.596   2.229  0.1316 -0.1974  0.2845
  780MOL0     C 5194   1.102   5.493   2.217  0.2716 -0.0578  0.1977
  780MOL0     C 5195   1.054   5.568   2.096  0.4494  0.8570 -0.6211
  780MOL0     O 5196   0.925   5.543   2.053 -0.2849 -0.2603  0.7735
  780MOL0     C 5197   0.897   5.577   1.920  0.5117 -0.7415  0.0788
  780MOL0     C 5198   0.887   5.706   1.868 -0.3649  0.0520 -0.3579
  780MOL0     C 5199   0.854   5.725   1.737 -0.7446 -0.3494 -0.0420
  780MOL0     C 5200   0.810   5.624   1.660 -0.3846  0.1103 -0.4085
  780MOL0     O 5201   0.747   5.658   1.541 -0.7538 -0.3418 -0.0793
  780MOL0     C 5202   0.606   5.651   1.524  0.0696  0.2922  0.6388
  780MOL0     C 5203   0.556   5.759   1.418  0.1549  0.1168 -0.8909
  780MOL0     C 5204   0.575   5.723   1.273  0.7503 -0.7843 -0.0837
  780MOL0     C 5205   0.605   5.861   1.198  0.2207  0.0406 -0.6665
  780MOL0     C 5206   0.758   5.878   1.210 -0.1963  0.1920  0.2670
  780MOL0     C 5207   0.819   6.007   1.151  0.3999  0.0237  0.2969
  780MOL0     C 5208   0.782   6.145   1.225 -1.0528 -0.0211  0.5627
  780MOL0     C 5209   0.883   6.251   1.176  0.0607  0.2457 -0.3221
  780MOL0    Cl 5210   0.876   6.278   1.000  0.2442 -0.0124  0.3399
  780MOL0     C 5211   0.820   5.494   1.703  0.2455 -0.8995  1.1085
  780MOL0     C 5212   0.851   5.466   1.837 -0.2032  0.3096  0.7204
  780MOL0     O 5213   1.127   5.645   2.039 -0.5297 -0.2689  0.4651
  780MOL0     C 5214   1.003   5.430   2.299 -0.0025  1.0160 -0.2595
  780MOL0     C 5215   1.038   5.367   2.421 -0.3273 -0.3929  0.0053
  780MOL0     N 5216   1.074   4.872   2.963 -0.1749 -0.1973  0.1803
  780MOL0     N 5217   1.055   4.740   2.963  0.4100 -0.0316  0.4002
  780MOL0     C 5218   0.981   3.920   3.449 -0.4932  0.1376 -0.2625
  780MOL0     C 5219   1.094   3.830   3.473 -0.2145 -0.2713 -0.5377
  780MOL0     C 5220   1.365   3.553   3.586  1.2443 -0.3381  0.2299
  780MOL0     C 5221   1.443   3.528   3.475 -0.2924 -0.7584  0.3534
  780MOL0     C 5222   1.582   3.502   3.490  0.1396  0.0569  0.0847
  780MOL0     C 5223   1.638   3.489   3.611 -0.1683 -0.0265  0.9341
  780MOL0     O 5224   1.776   3.463   3.617  1.5569 -0.4129 -0.0857
  780MOL0     C 5225   1.835   3.445   3.741 -0.3787  0.2849  0.1545
  780MOL0     C 5226   1.882   3.580   3.801 -0.9111 -0.4739  0.0291
  780MOL0     C 5227   1.959   3.560   3.932 -0.2220 -0.2929 -1.6281
  780MOL0     C 5228   1.893   3.476   4.048  1.3615  0.3963 -0.2672
  780MOL0     C 5229   1.755   3.527   4.087  0.0679  0.0171  0.8169
  780MOL0     C 5230   1.637   3.578   4.109 -0.6961 -0.5933  0.7290
  780MOL0     C 5231   1.558   3.522   3.724 -0.6948  0.1160  0.1784
  780MOL0     C 5232   1.420   3.547   3.711  0.1309  0.7229 -0.8028
  780MOL0     H 5233   0.974   3.564   3.293 -4.8882  0.7740 -2.6906
  780MOL0     H 5234   0.802   3.724   3.248 -0.8729  1.5361  1.0558
  780MOL0     H 5235   0.737   4.097   3.476 -0.4758  1.5503  0.1031
  780MOL0     H 5236   0.864   4.155   3.370  0.3419 -0.6594  1.6428
  780MOL0     H 5237   0.571   4.122   3.309  1.7416 -0.8830  2.2510
  780MOL0     H 5238   0.652   4.277   3.313 -1.8042 -1.4843  4.2760
  780MOL0     H 5239   0.770   4.064   3.112  1.6928 -0.0163  1.2908
  780MOL0     H 5240   0.614   4.135   3.069 -0.0861  0.5936 -1.2425
  780MOL0     H 5241   0.711   4.365   3.067 -0.6912 -1.0988 -0.7369
  780MOL0     H 5242   0.867   4.301   3.116  1.8501 -1.3700  0.2393
  780MOL0     H 5243   0.875   4.161   2.923  0.7770  0.2897  3.5955
  780MOL0     H 5244   0.715   4.221   2.868  0.3209  1.6520 -1.3972
  780MOL0     H 5245   0.996   4.321   2.830  1.3747  4.1256  1.9681
  780MOL0     H 5246   0.841   4.356   2.743 -0.6716  0.4186 -0.0468
  780MOL0     H 5247   0.812   4.511   2.953 -2.5625 -2.1293 -1.5538
  780MOL0     H 5248   0.982   4.477   2.978 -0.0891 -0.7908 -0.2375
  780MOL0     H 5249   0.854   4.603   2.727 -0.5992 -1.3366  1.2530
  780MOL0     H 5250   1.025   4.556   2.747  0.4564 -2.3378  3.5568
  780MOL0     H 5251   0.850   4.870   2.741 -1.0542 -0.2191  0.6827
  780MOL0     H 5252   0.862   5.108   2.853  0.4302 -0.2406 -0.6361
  780MOL0     H 5253   1.025   5.143   2.921  3.8118 -1.3104 -1.6616
  780MOL0     H 5254   0.995   5.222   2.674 -0.4563 -0.3847 -0.8769
  780MOL0     H 5255   0.987   5.061   2.621  0.9917  1.0646 -0.3419
  780MOL0     H 5256   1.228   5.031   2.722  0.6898 -0.2299  0.7923
  780MOL0     H 5257   1.208   5.182   2.791  2.1615  2.2964 -1.7722
  780MOL0     H 5258   1.214   5.159   2.479  0.4621 -0.0852 -0.3934
  780MOL0     H 5259   1.350   5.192   2.588 -0.0896 -3.3313 -1.4440
  780MOL0     H 5260   1.367   5.461   2.429  1.1256  1.4677 -4.0033
  780MOL0     H 5261   1.330   5.690   2.284 -1.5248  0.0646 -0.4745
  780MOL0     H 5262   1.443   5.556   2.244  0.3064  0.3512  0.5962
  780MOL0     H 5263   1.340   5.626   2.124 -2.3646  1.4498  0.7205
  780MOL0     H 5264   0.904   5.802   1.915  0.7623 -0.6262  0.6914
  780MOL0     H 5265   0.855   5.819   1.683  1.9903  0.3986  1.1538
  780MOL0     H 5266   0.569   5.552   1.495  4.0621 -1.4844  0.9542
  780MOL0     H 5267   0.561   5.691   1.616  1.9541  1.2909  1.1702
  780MOL0     H 5268   0.450   5.775   1.436  0.4947 -0.7625  2.8478
  780MOL0     H 5269   0.603   5.854   1.446 -2.0772  0.8454  0.6555
  780MOL0     H 5270   0.479   5.685   1.237  1.6553 -2.7002 -0.6399
  780MOL0     H 5271   0.648   5.642   1.260  2.5562 -0.0508  3.9541
  780MOL0     H 5272   0.575   5.862   1.093  0.8986  0.3271 -0.8666
  780MOL0     H 5273   0.554   5.952   1.231  1.0716  0.6247 -0.9249
  780MOL0     H 5274   0.808   5.793   1.163  0.5802  0.5742  0.3922
  780MOL0     H 5275   0.794   5.879   1.313  1.2936 -1.6186 -0.1847
  780MOL0     H 5276   0.928   6.010   1.166  0.1649 -0.0594  2.3178
  780MOL0     H 5277   0.808   6.008   1.043  0.7366  3.9181  0.1545
  780MOL0     H 5278   0.784   6.137   1.334  0.5031  3.2130  0.8846
  780MOL0     H 5279   0.681   6.174   1.195 -2.0334  0.0910  3.6548
  780MOL0     H 5280   0.984   6.214   1.195 -0.6560 -1.6766 -0.0041
  780MOL0     H 5281   0.868   6.351   1.218  0.3859  0.3091 -0.3546
  780MOL0     H 5282   0.783   5.413   1.641 -1.2324  0.1134  0.6244
  780MOL0     H 5283   0.843   5.364   1.873  0.7781 -1.3842 -3.3737
  780MOL0     H 5284   0.903   5.407   2.262  0.3493  1.6694 -1.6836
  780MOL0     H 5285   0.961   5.330   2.488 -0.2592  0.3876  0.5331
  780MOL0     H 5286   0.985   4.016   3.499 -1.9801  0.2366 -0.2886
  780MOL0     H 5287   1.178   3.847   3.539 -0.3351  1.4638 -0.7953
  780MOL0     H 5288   1.399   3.539   3.377 -1.0217 -1.5281  0.5796
  780MOL0     H 5289   1.650   3.494   3.405  1.1459  4.7740  0.1602
  780MOL0     H 5290   1.762   3.401   3.810  0.7235 -0.8375  0.6234
  780MOL0     H 5291   1.925   3.385   3.727  0.4695  1.9062 -1.8296
  780MOL0     H 5292   1.802   3.653   3.815  0.6728  1.0461  1.8079
  780MOL0     H 5293   1.946   3.633   3.729  1.4629  1.2534  3.1419
  780MOL0     H 5294   1.984   3.660   3.971 -0.8457 -0.2710 -1.2749
  780MOL0     H 5295   2.060   3.525   3.910  1.7776  5.1382 -2.6286
  780MOL0     H 5296   1.959   3.483   4.135  0.3137 -2.7683  0.9185
  780MOL0     H 5297   1.886   3.370   4.025 -2.0440  1.3548 -5.1712
  780MOL0     H 5298   1.533   3.602   4.108 -0.2254  1.6967 -0.9747
  780MOL0     H 5299   1.595   3.528   3.826  0.8161 -1.4375 -0.2156
  780MOL0     H 5300   1.350   3.559   3.792 -1.1605  0.8213 -1.9080
  781MOL0     O 5301   1.017  11.253   6.744 -0.3242 -0.5118 -0.8545
  781MOL0     C 5302   0.923  11.236   6.829  0.4115  0.1934 -0.5633
  781MOL0     O 5303   0.777  11.265   6.799 -0.6477  0.3740  0.0026
  781MOL0     C 5304   0.722  11.282   6.678 -0.8751 -0.3207  0.3860
  781MOL0     C 5305   0.792  11.256   6.562 -0.0678  0.2892 -0.4320
  781MOL0     C 5306   0.733  11.285   6.446  0.3596 -0.3736  0.0632
  781MOL0     C 5307   0.598  11.315   6.436  0.9314 -0.4554  0.9661
  781MOL0     O 5308   0.536  11.336   6.313  0.2562 -0.1521 -0.8258
  781MOL0     C 5309   0.489  11.209   6.255 -0.9767  0.1500 -0.1560
  781MOL0     C 5310   0.390  11.256   6.150 -0.3165 -0.1705  0.4907
  781MOL0     C 5311   0.301  11.141   6.087 -1.0345 -2.0957 -0.3626
  781MOL0     C 5312   0.200  11.087   6.194  0.4305 -0.3681 -0.2539
  781MOL0     C 5313   0.071  11.172   6.216 -0.2524  0.4790 -0.7978
  781MOL0     C 5314  -0.039  11.110   6.309 -0.4083 -0.2343  0.1945
  781MOL0     C 5315   0.001  11.093   6.457  0.1952  0.1209 -0.6736
  781MOL0     C 5316   0.089  10.965   6.494  0.1566 -0.0270  0.1267
  781MOL0     N 5317   0.040  10.838   6.441  0.3768 -0.4017  0.2899
  781MOL0     C 5318  -0.093  10.795   6.439 -0.7212 -0.1030  0.1844
  781MOL0     C 5319  -0.079  10.667   6.397 -0.7462  0.1668 -1.2554
  781MOL0     C 5320  -0.190  10.563   6.398 -0.5209  0.4487 -0.3020
  781MOL0     C 5321  -0.183  10.475   6.273 -0.8722  0.5054 -0.3568
  781MOL0     C 5322  -0.063  10.385   6.278 -0.0480  0.1633 -0.8215
  781MOL0     C 5323  -0.074  10.268   6.181  0.9593  1.1569 -0.3818
  781MOL0     O 5324  -0.200  10.201   6.205 -0.2767 -0.0665  0.1690
  781MOL0     C 5325  -0.215  10.085   6.128 -0.5052 -0.7690  0.2923
  781MOL0     C 5326  -0.323  10.003   6.161 -0.4498 -0.3455 -0.2342
  781MOL0     C 5327  -0.355   9.883   6.099 -0.1250  0.9325 -0.4057
  781MOL0     C 5328  -0.492   9.811   6.119 -0.5239  0.0185 -0.0872
  781MOL0     C 5329  -0.272   9.840   5.993  0.1831  0.6800  0.2564
  781MOL0     C 5330  -0.279   9.712   5.919 -0.3202  0.3943  0.6161
  781MOL0     O 5331  -0.156   9.656   5.897 -0.6281  0.5074  0.1712
  781MOL0     C 5332  -0.146   9.530   5.835  0.0009 -0.2145  0.6723
  781MOL0     C 5333  -0.239   9.426   5.822  0.6767  0.1197 -0.1861
  781MOL0     C 5334  -0.204   9.303   5.767 -0.1059  0.4070  1.0247
  781MOL0     C 5335  -0.073   9.274   5.719  0.6969 -0.1179  0.0348
  781MOL0     O 5336  -0.048   9.151   5.658 -0.6106  0.7317  1.1050
  781MOL0     C 5337   0.036   9.166   5.540  0.3125 -0.2341 -0.8226
  781MOL0     C 5338   0.033   9.039   5.455  0.6056 -0.5816  1.2982
  781MOL0     C 5339   0.139   8.934   5.484 -0.2043  0.3194 -0.3075
  781MOL0     C 5340   0.101   8.848   5.594 -0.7543  0.7304 -0.4872
  781MOL0     C 5341   0.201   8.838   5.708  0.1110 -0.5307 -0.2573
  781MOL0     C 5342   0.196   8.971   5.799 -0.5933  0.3452  0.2081
  781MOL0     C 5343   0.332   8.979   5.875 -0.3416  0.1122  0.3170
  781MOL0     C 5344   0.340   9.121   5.943 -0.2411 -0.2746  0.7173
  781MOL0    Cl 5345   0.208   9.150   6.057 -0.5603 -0.2631 -0.0200
  781MOL0     C 5346   0.027   9.374   5.748  0.3153 -0.0156  0.4240
  781MOL0     C 5347  -0.007   9.504   5.806 -0.2145 -0.1043 -0.2241
  781MOL0     O 5348  -0.381   9.691   5.853 -0.2949 -0.0255  0.3298
  781MOL0     C 5349  -0.163   9.919   5.963 -0.0327 -1.0317  0.4461
  781MOL0     C 5350  -0.135  10.039   6.025  0.1869  0.2145  1.3652
  781MOL0     N 5351   0.058  10.626   6.391 -0.2396 -0.2857  0.6124
  781MOL0     N 5352   0.122  10.731   6.412 -0.0091  0.5125 -0.5195
  781MOL0     C 5353   0.526  11.325   6.559  0.5767 -0.6238  0.5614
  781MOL0     C 5354   0.584  11.316   6.676 -0.3191 -0.6095 -0.5193
  781MOL0     C 5355   0.953  11.146   6.939 -0.0019 -0.2315  0.0217
  781MOL0     C 5356   1.065  11.078   6.950  0.0620 -0.7588 -1.4241
  781MOL0     C 5357   1.079  10.989   7.060  0.4800  0.5621  0.6060
  781MOL0     C 5358   0.980  10.970   7.160 -0.0768 -0.4392  0.4403
  781MOL0     O 5359   0.994  10.880   7.258 -0.0762 -0.4504  0.1433
  781MOL0     C 5360   0.901  10.767   7.261 -0.0558 -1.0359 -0.0127
  781MOL0     C 5361   0.992  10.644   7.273  0.7338  0.5302  0.0068
  781MOL0     C 5362   0.997  10.562   7.138 -0.1873 -0.2738  0.7822
  781MOL0     C 5363   1.078  10.437   7.122 -0.4382  0.5501 -1.2464
  781MOL0     C 5364   1.026  10.338   7.215 -0.2953 -0.2759  0.1838
  781MOL0     C 5365   0.976  10.239   7.269 -0.6386  0.2702 -0.8397
  781MOL0     C 5366   0.866  11.052   7.153 -0.0087 -0.1179  0.0999
  781MOL0     C 5367   0.856  11.142   7.045 -0.3830  0.2545  0.1830
  781MOL0     H 5368   0.892  11.214   6.560 -0.2438 -0.1498 -0.1852
  781MOL0     H 5369   0.803  11.289   6.364  1.7258  0.0140  1.2179
  781MOL0     H 5370   0.573  11.159   6.206 -0.2063  0.2053  1.0706
  781MOL0     H 5371   0.461  11.130   6.325  1.3188 -0.1698  0.4610
  781MOL0     H 5372   0.328  11.336   6.192 -0.7755 -0.4964  0.4465
  781MOL0     H 5373   0.445  11.310   6.073 -1.1534 -0.5287 -0.3811
  781MOL0     H 5374   0.246  11.173   5.998  1.1191  1.5482 -0.5873
  781MOL0     H 5375   0.379  11.074   6.051  2.2632  1.0363  0.3391
  781MOL0     H 5376   0.165  10.993   6.152  2.4643 -2.0762  1.6378
  781MOL0     H 5377   0.242  11.076   6.295  0.6821  2.7774  0.1049
  781MOL0     H 5378   0.105  11.267   6.256 -0.1692 -0.1355  0.6384
  781MOL0     H 5379   0.030  11.198   6.118  1.0354  3.2180 -0.6965
  781MOL0     H 5380  -0.121  11.181   6.302  2.5102  3.4439 -0.1636
  781MOL0     H 5381  -0.062  11.014   6.263 -3.1238  0.6320 -0.4280
  781MOL0     H 5382   0.039  11.187   6.498 -2.0103  1.7602 -2.1798
  781MOL0     H 5383  -0.092  11.084   6.514 -0.1962  2.8229 -0.7615
  781MOL0     H 5384   0.076  10.957   6.602 -1.0889 -1.0749 -0.0714
  781MOL0     H 5385   0.195  10.981   6.473  0.8926 -2.9828  1.0981
  781MOL0     H 5386  -0.190  10.840   6.457  0.3538  2.6268 -0.3093
  781MOL0     H 5387  -0.188  10.514   6.495 -3.4012  0.8696  0.0829
  781MOL0     H 5388  -0.284  10.618   6.382 -1.9058 -2.3016 -2.5162
  781MOL0     H 5389  -0.162  10.544   6.191  1.9787  0.2013  0.0197
  781MOL0     H 5390  -0.281  10.430   6.254 -1.1426 -0.0610  2.0884
  781MOL0     H 5391  -0.042  10.358   6.382 -0.8763 -0.7508 -0.8750
  781MOL0     H 5392   0.021  10.447   6.247  1.0191 -0.6133  0.4052
  781MOL0     H 5393   0.010  10.198   6.187 -1.3834 -1.7972  0.6790
  781MOL0     H 5394  -0.079  10.315   6.083 -1.9555  0.0608 -0.8660
  781MOL0     H 5395  -0.393  10.045   6.233 -0.2209 -2.7554  1.5356
  781MOL0     H 5396  -0.471   9.707   6.144  1.5762  0.7729  1.5923
  781MOL0     H 5397  -0.553   9.859   6.196 -0.3528 -1.8685  1.2927
  781MOL0     H 5398  -0.549   9.822   6.026 -1.1983  1.1087  0.4382
  781MOL0     H 5399  -0.335   9.443   5.870  2.2484  0.9574  2.9152
  781MOL0     H 5400  -0.274   9.221   5.758 -0.4003  0.7028  0.5359
  781MOL0     H 5401   0.014   9.252   5.476 -0.0829 -0.7843 -1.4310
  781MOL0     H 5402   0.138   9.179   5.579 -0.5972 -1.7014  2.3749
  781MOL0     H 5403  -0.068   8.996   5.458 -0.5252  1.9581  2.2791
  781MOL0     H 5404   0.059   9.067   5.352 -3.4145 -1.6885 -0.2154
  781MOL0     H 5405   0.237   8.980   5.502 -0.2256  0.4365 -0.4923
  781MOL0     H 5406   0.159   8.871   5.398  1.9897 -0.3938  0.6633
  781MOL0     H 5407   0.009   8.891   5.635 -1.9833 -3.3447  1.5165
  781MOL0     H 5408   0.088   8.746   5.557 -4.7338  0.8389  0.1559
  781MOL0     H 5409   0.300   8.810   5.670 -0.1802 -0.7459 -0.8635
  781MOL0     H 5410   0.165   8.754   5.769  1.0027 -1.0323 -0.4056
  781MOL0     H 5411   0.198   9.064   5.741 -1.1094  1.7149  2.2665
  781MOL0     H 5412   0.106   8.971   5.861  1.3507 -2.1560  3.3995
  781MOL0     H 5413   0.420   8.960   5.813 -1.2794 -0.3552 -0.9127
  781MOL0     H 5414   0.323   8.908   5.957 -1.8543  1.9828  1.8779
  781MOL0     H 5415   0.356   9.193   5.862 -0.5865 -1.2850 -0.2772
  781MOL0     H 5416   0.437   9.109   5.992  1.4887 -1.4040 -2.6409
  781MOL0     H 5417   0.131   9.353   5.726  0.7536  0.7769  1.6091
  781MOL0     H 5418   0.070   9.576   5.832  1.7013 -1.5805 -1.5485
  781MOL0     H 5419  -0.106   9.897   5.873 -1.2313  0.4098 -0.7287
  781MOL0     H 5420  -0.034  10.074   6.002 -0.7352  0.7141 -2.5437
  781MOL0     H 5421   0.418  11.337   6.560  0.0917 -3.9254  1.0282
  781MOL0     H 5422   0.530  11.340   6.767 -1.0457 -1.2262 -0.7829
  781MOL0     H 5423   1.145  11.104   6.882  0.7171  3.2059  0.5785
  781MOL0     H 5424   1.175  10.940   7.074 -0.1272 -0.5069  1.1403
  781MOL0     H 5425   0.835  10.780   7.347 -1.2343  1.9844 -1.2414
  781MOL0     H 5426   0.839  10.779   7.172  0.6200 -0.7059 -0.4479
  781MOL0     H 5427   0.955  10.574   7.348  2.8522  0.2485  0.8437
  781MOL0     H 5428   1.089  10.673   7.313  0.7123  2.0369 -0.9431
  781MOL0     H 5429   1.032  10.633   7.062 -0.1823 -1.7268 -0.6235
  781MOL0     H 5430   0.897  10.547   7.098  0.8587 -0.3060 -2.0094
  781MOL0     H 5431   1.181  10.458   7.152 -1.9198  2.1744  3.6318
  781MOL0     H 5432   1.068  10.389   7.024 -1.5525 -1.7734 -0.0883
  781MOL0     H 5433   0.937  10.150   7.313 -0.1845 -0.2287 -1.4352
  781MOL0     H 5434   0.787  11.042   7.227 -1.3365 -1.3418 -1.4322
  781MOL0     H 5435   0.765  11.202   7.041  1.6045  3.4694  0.4121
  782MOL0     O 5436   8.251   8.084   2.974 -0.1100  0.0691 -0.2740
  782MOL0     C 5437   8.204   8.090   2.860 -0.0040 -0.1389  1.1342
  782MOL0     O 5438   8.220   8.192   2.766 -0.4949 -0.4394  0.4149
  782MOL0     C 5439   8.304   8.295   2.808 -0.5355  0.3017 -0.3731
  782MOL0     C 5440   8.400   8.345   2.725 -0.1556 -0.5521  0.3918
  782MOL0     C 5441   8.480   8.454   2.759  0.4567 -0.0801 -0.8665
  782MOL0     C 5442   8.441   8.532   2.867 -0.0303 -0.2323 -0.5888
  782MOL0     O 5443   8.506   8.650   2.906  0.6346  0.7752  0.0016
  782MOL0     C 5444   8.617   8.638   3.003 -0.2863 -0.0670  0.0160
  782MOL0     C 5445   8.579   8.747   3.104  0.5068  0.1650 -0.7936
  782MOL0     C 5446   8.693   8.776   3.205  0.8419  0.7377  0.1700
  782MOL0     C 5447   8.662   8.902   3.289 -0.5803  0.4374 -0.7588
  782MOL0     C 5448   8.753   8.910   3.411 -0.6035 -0.0935 -0.3644
  782MOL0     C 5449   8.715   9.030   3.496 -0.3806 -0.9076 -0.0580
  782MOL0     C 5450   8.773   9.021   3.638  0.2517 -0.3133  0.3220
  782MOL0     C 5451   8.931   9.029   3.657 -0.3443  0.3457  0.5247
  782MOL0     N 5452   8.961   9.116   3.776  0.3931  0.3623  0.3172
  782MOL0     C 5453   9.089   9.140   3.822  0.0481 -0.0483  0.2304
  782MOL0     C 5454   9.073   9.179   3.954  0.7917 -0.4324  0.4910
  782MOL0     C 5455   9.187   9.225   4.042  0.0479 -0.4982  0.0966
  782MOL0     C 5456   9.194   9.381   4.046 -0.3148 -0.6270  0.7189
  782MOL0     C 5457   9.256   9.430   4.180  0.4082  1.3236  0.6748
  782MOL0     C 5458   9.159   9.385   4.299 -0.8366  1.0248  0.6597
  782MOL0     O 5459   9.029   9.433   4.290  0.5157  0.4204 -0.4786
  782MOL0     C 5460   8.913   9.362   4.323 -1.1601  0.0616  0.5624
  782MOL0     C 5461   8.803   9.446   4.329  1.5604 -0.0667 -1.5410
  782MOL0     C 5462   8.677   9.403   4.371 -0.0068  0.2514  0.1389
  782MOL0     C 5463   8.565   9.492   4.344  0.5419  0.1645  0.0407
  782MOL0     C 5464   8.668   9.260   4.400 -0.1985 -0.0811  0.4187
  782MOL0     C 5465   8.548   9.197   4.446  0.3310 -1.0691  0.4629
  782MOL0     O 5466   8.526   9.065   4.404  0.0953 -0.3301  0.0073
  782MOL0     C 5467   8.431   8.991   4.462  0.5555  0.0868  0.3174
  782MOL0     C 5468   8.297   9.028   4.488 -0.2825 -0.2268  0.6478
  782MOL0     C 5469   8.210   8.947   4.558  0.2884 -0.1837  0.0537
  782MOL0     C 5470   8.248   8.828   4.618 -0.6083  0.2164  0.8699
  782MOL0     O 5471   8.135   8.758   4.665 -0.1638  0.9277  0.2130
  782MOL0     C 5472   8.174   8.635   4.740  0.2724  0.4063 -0.3763
  782MOL0     C 5473   8.067   8.610   4.838  0.6708  0.1306  0.3200
  782MOL0     C 5474   8.067   8.488   4.919 -0.1991  0.1046 -0.2007
  782MOL0     C 5475   7.922   8.450   4.961  0.1806  0.0669 -0.0456
  782MOL0     C 5476   7.904   8.345   5.075 -0.7263 -0.3503 -1.1724
  782MOL0     C 5477   7.754   8.315   5.094  0.2191  0.0144  0.2271
  782MOL0     C 5478   7.724   8.207   5.203 -0.0144  0.2457  0.5138
  782MOL0     C 5479   7.579   8.186   5.215 -0.1562 -0.1583 -0.5573
  782MOL0    Cl 5480   7.514   8.139   5.048  0.6198 -0.3924 -0.1977
  782MOL0     C 5481   8.389   8.785   4.604  0.1064 -0.4351 -0.9741
  782MOL0     C 5482   8.471   8.871   4.519  0.5126  0.1433  0.3873
  782MOL0     O 5483   8.470   9.264   4.509  0.5006 -0.2203  0.4204
  782MOL0     C 5484   8.785   9.179   4.390  0.3784 -0.1786 -0.6224
  782MOL0     C 5485   8.907   9.225   4.352 -0.4302  0.3167 -0.1078
  782MOL0     N 5486   8.939   9.174   3.988  0.3505  0.1916 -0.4736
  782MOL0     N 5487   8.880   9.143   3.881 -0.0054  0.5569  0.1581
  782MOL0     C 5488   8.321   8.503   2.939 -0.6256 -0.5135  0.4029
  782MOL0     C 5489   8.260   8.384   2.907 -0.1533 -0.1616  1.4016
  782MOL0     C 5490   8.112   7.978   2.808  0.0755  0.6229 -0.6291
  782MOL0     C 5491   8.086   7.968   2.675 -0.3541  0.2704  0.1585
  782MOL0     C 5492   7.994   7.877   2.629  0.5785  0.3114  0.0167
  782MOL0     C 5493   7.911   7.809   2.718  0.8782  0.0492 -0.7026
  782MOL0     O 5494   7.821   7.717   2.669 -0.5553 -0.2746  0.4760
  782MOL0     C 5495   7.819   7.590   2.735  0.0842 -0.1167 -0.7013
  782MOL0     C 5496   7.780   7.481   2.637 -1.3389  0.1611 -0.1647
  782MOL0     C 5497   7.665   7.519   2.549 -0.3315 -0.4359  1.0238
  782MOL0     C 5498   7.594   7.393   2.487 -0.0117 -0.2099  0.3942
  782MOL0     C 5499   7.543   7.423   2.351 -0.2171 -0.7439 -0.6177
  782MOL0     C 5500   7.489   7.476   2.258 -0.1418 -0.7566 -0.3003
  782MOL0     C 5501   7.940   7.825   2.852 -0.2236  0.4363 -0.1427
  782MOL0     C 5502   8.045   7.893   2.904  0.2370 -0.6006 -0.2282
  782MOL0     H 5503   8.417   8.293   2.631  0.8795 -0.8743  0.7429
  782MOL0     H 5504   8.572   8.479   2.706 -0.2023  1.1577 -1.4681
  782MOL0     H 5505   8.618   8.536   3.043 -1.0615 -0.4979 -1.0279
  782MOL0     H 5506   8.716   8.651   2.960  0.3655 -1.7337  0.9491
  782MOL0     H 5507   8.554   8.840   3.051 -3.9338 -1.2994 -1.6493
  782MOL0     H 5508   8.493   8.715   3.163  0.6380  0.1677 -0.6001
  782MOL0     H 5509   8.704   8.686   3.267 -3.7105 -0.7075 -0.7683
  782MOL0     H 5510   8.780   8.798   3.143 -0.0102  1.6189 -0.7501
  782MOL0     H 5511   8.677   8.996   3.235  3.2932  0.5607  0.2143
  782MOL0     H 5512   8.562   8.906   3.334 -0.8827  0.5664 -1.4363
  782MOL0     H 5513   8.742   8.816   3.467 -4.3744 -0.2456 -1.1093
  782MOL0     H 5514   8.857   8.924   3.383 -0.7386  4.0270  0.5949
  782MOL0     H 5515   8.733   9.124   3.442  2.2007 -0.7212  0.9821
  782MOL0     H 5516   8.607   9.019   3.505 -0.7436  1.8192 -0.1099
  782MOL0     H 5517   8.717   9.099   3.690 -0.1984 -0.8433  0.6540
  782MOL0     H 5518   8.731   8.926   3.674  1.4895 -1.5168 -1.2478
  782MOL0     H 5519   8.972   9.077   3.567  0.4483  0.1331  0.7638
  782MOL0     H 5520   8.977   8.930   3.661  0.0161  0.3473 -1.7893
  782MOL0     H 5521   9.177   9.148   3.758 -0.6211 -0.7634 -0.8210
  782MOL0     H 5522   9.171   9.194   4.146 -0.1034  3.6660  1.5104
  782MOL0     H 5523   9.280   9.190   3.997  1.3877  0.3743  2.0273
  782MOL0     H 5524   9.097   9.427   4.030  1.7356  4.1375  0.2667
  782MOL0     H 5525   9.253   9.414   3.960 -0.4710 -2.2135 -0.0397
  782MOL0     H 5526   9.263   9.539   4.183  0.2614  1.3046  2.4656
  782MOL0     H 5527   9.355   9.383   4.182 -0.0723  0.0137 -1.6158
  782MOL0     H 5528   9.194   9.425   4.394 -0.7584  0.5626  0.8259
  782MOL0     H 5529   9.166   9.278   4.318 -2.5855  0.5199 -1.1236
  782MOL0     H 5530   8.823   9.550   4.302  1.1484 -0.1806 -2.3120
  782MOL0     H 5531   8.574   9.535   4.244  1.7142  1.7285  0.7715
  782MOL0     H 5532   8.462   9.456   4.347  0.9078 -1.0184 -0.8187
  782MOL0     H 5533   8.568   9.575   4.416 -1.4487  1.3494 -1.1443
  782MOL0     H 5534   8.248   9.118   4.452 -0.8829 -0.3484  1.1263
  782MOL0     H 5535   8.109   8.984   4.567  0.4871  0.4680 -0.3457
  782MOL0     H 5536   8.191   8.556   4.666  1.5629  1.5147 -1.2954
  782MOL0     H 5537   8.263   8.633   4.804 -0.1342  2.3666  0.3141
  782MOL0     H 5538   8.057   8.702   4.897  3.7085  0.7917 -0.0308
  782MOL0     H 5539   7.978   8.594   4.776  1.5231 -3.4992 -0.1947
  782MOL0     H 5540   8.129   8.495   5.009  1.1680 -1.2260 -0.9771
  782MOL0     H 5541   8.102   8.405   4.858 -0.6707  1.3166 -2.2038
  782MOL0     H 5542   7.861   8.535   4.993 -0.5422 -0.8777  1.1322
  782MOL0     H 5543   7.881   8.403   4.871 -4.1792  1.2683  1.0635
  782MOL0     H 5544   7.954   8.385   5.164 -2.7318  2.4606 -1.1977
  782MOL0     H 5545   7.967   8.260   5.046 -1.1783 -1.7291  1.5912
  782MOL0     H 5546   7.714   8.412   5.124 -1.1473 -0.3591 -0.3075
  782MOL0     H 5547   7.704   8.293   4.999  1.7323 -0.1807 -0.5655
  782MOL0     H 5548   7.777   8.234   5.295 -0.0868  2.8138 -0.1326
  782MOL0     H 5549   7.767   8.114   5.165  1.6700  0.2127  2.3419
  782MOL0     H 5550   7.522   8.278   5.236 -1.3547 -0.2603 -2.9547
  782MOL0     H 5551   7.563   8.109   5.291  0.2188  0.3410  0.0307
  782MOL0     H 5552   8.421   8.687   4.640  2.4262  1.1720  1.7463
  782MOL0     H 5553   8.564   8.823   4.491  0.0303  0.3821 -1.7197
  782MOL0     H 5554   8.797   9.075   4.416 -0.2542  0.3096  1.8148
  782MOL0     H 5555   8.982   9.147   4.358 -0.6724  0.2028  2.2725
  782MOL0     H 5556   8.278   8.564   3.018  1.7939  3.5645 -1.1048
  782MOL0     H 5557   8.171   8.347   2.956 -0.0025  0.8107  2.4630
  782MOL0     H 5558   8.129   8.030   2.597 -0.9457  0.6965  0.1586
  782MOL0     H 5559   7.969   7.880   2.523  0.9129  2.4314 -0.0278
  782MOL0     H 5560   7.925   7.567   2.749  0.9113  0.9582 -4.0862
  782MOL0     H 5561   7.767   7.581   2.830  0.2074  1.3397 -0.4666
  782MOL0     H 5562   7.752   7.394   2.697  3.3062 -2.9071 -1.8242
  782MOL0     H 5563   7.869   7.458   2.577 -1.5218  2.0558 -1.2178
  782MOL0     H 5564   7.718   7.580   2.476  1.5791 -2.2224  0.8440
  782MOL0     H 5565   7.595   7.585   2.603 -0.3302 -0.1252  0.6470
  782MOL0     H 5566   7.510   7.359   2.549 -0.5175 -0.9891 -0.6844
  782MOL0     H 5567   7.656   7.305   2.467  0.1868 -0.3131  1.3938
  782MOL0     H 5568   7.443   7.541   2.186 -3.0413  0.0958  2.0979
  782MOL0     H 5569   7.868   7.773   2.914 -3.5130  3.3365 -1.1902
  782MOL0     H 5570   8.079   7.904   3.007  2.6947 -3.2273 -0.6406
  783MOL0     O 5571  11.296   2.912   0.559  0.0312  0.0763 -0.0445
  783MOL0     C 5572  11.338   2.964   0.664 -0.8369 -0.4857  0.2021
  783MOL0     O 5573  11.449   2.934   0.725 -0.1086 -0.3040  0.3127
  783MOL0     C 5574  11.511   2.810   0.684  0.5363  0.8452  0.0761
  783MOL0     C 5575  11.456   2.693   0.622  0.7473 -0.1204  0.5276
  783MOL0     C 5576  11.536   2.585   0.599 -0.4573 -0.0370 -0.3123
  783MOL0     C 5577  11.674   2.578   0.628 -0.5516  0.7961 -0.7255
  783MOL0     O 5578  11.746   2.461   0.598 -0.4420 -0.2313 -0.0253
  783MOL0     C 5579  11.836   2.411   0.685  0.5148 -0.4605 -0.1998
  783MOL0     C 5580  11.968   2.416   0.603  0.1340  0.4465 -0.4091
  783MOL0     C 5581  12.077   2.328   0.668  0.0566 -0.1534 -0.5458
  783MOL0     C 5582  12.215   2.355   0.615 -0.0810 -0.2186  0.2002
  783MOL0     C 5583  12.323   2.249   0.643 -0.3275 -0.1641  0.8822
  783MOL0     C 5584  12.457   2.305   0.605 -0.0314  0.4940  0.4766
  783MOL0     C 5585  12.573   2.198   0.623 -0.4010  0.6923 -0.3586
  783MOL0     C 5586  12.711   2.250   0.603 -0.6094  0.3162 -0.1953
  783MOL0     N 5587  12.813   2.152   0.639  0.0632  0.1598  0.5544
  783MOL0     C 5588  12.862   2.055   0.559 -0.6864  0.9800 -0.1621
  783MOL0     C 5589  12.962   2.005   0.637  0.1555  0.1218 -0.2008
  783MOL0     C 5590  13.073   1.916   0.577  0.1110 -1.0097 -0.1438
  783MOL0     C 5591  13.202   1.974   0.540 -0.6392 -0.6683 -0.2355
  783MOL0     C 5592  13.302   1.970   0.654  0.0516 -0.8531  0.2412
  783MOL0     C 5593  13.443   2.026   0.610  0.5578 -0.0794  0.3151
  783MOL0     O 5594  13.521   1.909   0.561  0.7798  0.4290  0.5572
  783MOL0     C 5595  13.625   1.864   0.641  0.2193  0.0027 -0.5083
  783MOL0     C 5596  13.650   1.910   0.773 -1.0666  0.0505  0.5666
  783MOL0     C 5597  13.756   1.853   0.847 -0.7155 -0.0018 -0.7391
  783MOL0     C 5598  13.769   1.896   0.991 -0.2876  0.3763 -0.2168
  783MOL0     C 5599  13.833   1.755   0.787 -0.9866 -0.1123  0.6262
  783MOL0     C 5600  13.953   1.692   0.844 -0.3155  0.6165  0.5827
  783MOL0     O 5601  14.054   1.657   0.764  0.5102  0.3554 -0.0318
  783MOL0     C 5602  14.146   1.568   0.811 -0.3880 -0.5986  0.5784
  783MOL0     C 5603  14.162   1.443   0.750 -0.1592  0.2688 -0.1669
  783MOL0     C 5604  14.268   1.361   0.776  0.4042  0.2773 -0.0287
  783MOL0     C 5605  14.358   1.399   0.877  1.4449 -0.1616  0.2906
  783MOL0     O 5606  14.477   1.330   0.905  0.0157 -0.4122 -0.7795
  783MOL0     C 5607  14.505   1.210   0.834 -0.2685 -1.1063  0.0525
  783MOL0     C 5608  14.653   1.170   0.869  0.4993 -0.7264 -0.2642
  783MOL0     C 5609  14.756   1.289   0.859 -0.0817 -0.3665 -0.8174
  783MOL0     C 5610  14.886   1.222   0.897  0.5815  0.1768  0.4513
  783MOL0     C 5611  15.012   1.318   0.902 -0.1640  0.2194  0.0257
  783MOL0     C 5612  15.140   1.229   0.948  0.3070  0.8399  0.7271
  783MOL0     C 5613  15.275   1.303   0.975 -0.1050 -0.6246  0.3637
  783MOL0     C 5614  15.268   1.419   1.076  0.0313 -0.7153  0.4482
  783MOL0    Cl 5615  15.427   1.507   1.054  0.1805 -0.2612 -0.3481
  783MOL0     C 5616  14.342   1.523   0.930  0.0476 -0.7750  0.3999
  783MOL0     C 5617  14.245   1.615   0.891 -0.0896  0.6374  1.3800
  783MOL0     O 5618  13.938   1.662   0.962 -0.3441  0.5460  0.0489
  783MOL0     C 5619  13.810   1.714   0.654 -0.7023 -0.2158 -0.1436
  783MOL0     C 5620  13.707   1.772   0.582 -0.0305  0.2912 -0.3464
  783MOL0     N 5621  12.958   2.061   0.765 -0.4689 -0.3795  0.8839
  783MOL0     N 5622  12.864   2.139   0.763 -0.4046 -1.0981  0.3130
  783MOL0     C 5623  11.722   2.694   0.671 -0.2719 -1.3929 -0.4969
  783MOL0     C 5624  11.644   2.806   0.703  1.1623 -0.1455  0.8948
  783MOL0     C 5625  11.262   3.057   0.751 -0.3648 -0.5837 -0.4216
  783MOL0     C 5626  11.147   3.109   0.701  0.1497  0.0370  0.1723
  783MOL0     C 5627  11.074   3.193   0.778 -0.4334  1.0924 -0.4351
  783MOL0     C 5628  11.119   3.222   0.911  0.1765  0.0901 -0.5798
  783MOL0     O 5629  11.059   3.296   1.012 -0.8118 -0.0953 -0.5448
  783MOL0     C 5630  10.934   3.340   0.960  0.6697 -1.4789 -0.0120
  783MOL0     C 5631  10.857   3.420   1.069  0.5271  0.7520  0.2366
  783MOL0     C 5632  10.922   3.554   1.101  0.4920  0.4034 -0.0517
  783MOL0     C 5633  10.842   3.639   1.196  0.8406 -0.1358  0.5868
  783MOL0     C 5634  10.721   3.681   1.124 -0.3235 -0.5403  1.4199
  783MOL0     C 5635  10.629   3.714   1.057  0.2213  0.2476 -0.6644
  783MOL0     C 5636  11.235   3.173   0.959 -0.0706  0.8209 -0.0291
  783MOL0     C 5637  11.316   3.104   0.876 -0.3046  1.1521 -1.0582
  783MOL0     H 5638  11.354   2.677   0.587  0.4836  2.2069  0.0478
  783MOL0     H 5639  11.482   2.499   0.561 -3.6981  0.1816  3.1935
  783MOL0     H 5640  11.855   2.467   0.777  1.9508 -1.3594  0.0919
  783MOL0     H 5641  11.807   2.306   0.695  0.3083 -0.5471 -1.4795
  783MOL0     H 5642  11.954   2.371   0.505  0.4639 -0.9732  0.1776
  783MOL0     H 5643  12.012   2.516   0.597 -0.6299  1.0254  2.1188
  783MOL0     H 5644  12.086   2.350   0.775  4.5606 -1.4501 -0.4553
  783MOL0     H 5645  12.044   2.224   0.661  0.2619 -0.2789  0.2637
  783MOL0     H 5646  12.213   2.356   0.505 -2.3206 -1.3655  0.1748
  783MOL0     H 5647  12.247   2.457   0.640 -1.1576 -0.6925  4.2332
  783MOL0     H 5648  12.333   2.232   0.750  5.0488  4.3833  1.5419
  783MOL0     H 5649  12.297   2.160   0.584 -1.7092  2.5710 -3.0427
  783MOL0     H 5650  12.454   2.334   0.500 -1.9584  0.1277  0.3851
  783MOL0     H 5651  12.476   2.398   0.659  0.9415  0.9693 -0.6447
  783MOL0     H 5652  12.560   2.168   0.728 -1.0103  3.9630  0.6067
  783MOL0     H 5653  12.565   2.107   0.562  3.2056 -1.6423  2.2225
  783MOL0     H 5654  12.733   2.343   0.656  1.9921 -1.0075  1.2293
  783MOL0     H 5655  12.723   2.275   0.497 -0.5347 -1.4426 -0.6334
  783MOL0     H 5656  12.846   2.035   0.453  3.2694 -2.7929 -0.3307
  783MOL0     H 5657  13.072   1.825   0.638 -4.1995 -2.2442 -1.6726
  783MOL0     H 5658  13.037   1.874   0.483 -0.6683 -0.3501 -0.1564
  783MOL0     H 5659  13.199   2.076   0.502  1.6217 -0.6353 -0.4286
  783MOL0     H 5660  13.244   1.908   0.463 -1.5337 -2.6521  0.8943
  783MOL0     H 5661  13.301   1.873   0.706 -0.3495 -0.0885  1.7151
  783MOL0     H 5662  13.272   2.043   0.729  1.7979  1.6429 -1.3234
  783MOL0     H 5663  13.492   2.089   0.685 -0.5751 -0.0785  1.0824
  783MOL0     H 5664  13.429   2.093   0.525 -1.9855  2.2995  2.3993
  783MOL0     H 5665  13.589   1.984   0.822 -0.1884  3.3925 -2.9075
  783MOL0     H 5666  13.721   1.822   1.055 -2.6395  2.4727  0.5988
  783MOL0     H 5667  13.868   1.911   1.035 -0.3935  1.5662 -0.3363
  783MOL0     H 5668  13.714   1.991   0.999 -1.6144 -0.1613 -2.0810
  783MOL0     H 5669  14.082   1.405   0.687 -0.5045 -0.5417  0.7342
  783MOL0     H 5670  14.269   1.260   0.737  0.2126  1.2862 -2.8841
  783MOL0     H 5671  14.426   1.139   0.861 -2.0424  1.3687  1.9103
  783MOL0     H 5672  14.494   1.246   0.731 -2.5686 -1.6757  0.0378
  783MOL0     H 5673  14.646   1.139   0.974  0.8773 -0.8651 -0.2789
  783MOL0     H 5674  14.685   1.086   0.807  1.5949  0.3324 -1.1772
  783MOL0     H 5675  14.733   1.365   0.934  1.0564 -0.1845 -0.6341
  783MOL0     H 5676  14.755   1.350   0.768 -0.3104  1.4135  0.3195
  783MOL0     H 5677  14.870   1.160   0.986  2.0587 -0.0038  0.6223
  783MOL0     H 5678  14.896   1.147   0.818 -3.1443 -0.5321  0.5018
  783MOL0     H 5679  14.998   1.383   0.988 -0.5370  2.2150 -1.4843
  783MOL0     H 5680  15.027   1.376   0.811 -0.0809 -0.4364 -0.3891
  783MOL0     H 5681  15.121   1.161   1.032  0.2071  2.0862  1.7401
  783MOL0     H 5682  15.152   1.154   0.869 -0.7651  2.0632 -0.6586
  783MOL0     H 5683  15.316   1.333   0.877 -0.1480 -1.1303  0.1887
  783MOL0     H 5684  15.350   1.230   1.006 -0.1813 -0.5526  0.7199
  783MOL0     H 5685  15.274   1.377   1.177  1.1039  2.5586  1.8865
  783MOL0     H 5686  15.186   1.491   1.065  1.7715  1.2858 -0.0702
  783MOL0     H 5687  14.410   1.557   1.007  2.7645  1.9321 -2.8647
  783MOL0     H 5688  14.242   1.717   0.929 -2.0558  1.1606  0.0097
  783MOL0     H 5689  13.879   1.657   0.594  2.0676  2.2763  0.4563
  783MOL0     H 5690  13.700   1.750   0.476 -1.0623  4.2423 -1.2439
  783MOL0     H 5691  11.826   2.714   0.695 -0.8426  1.3758  0.0902
  783MOL0     H 5692  11.677   2.902   0.742  0.3152  0.8011 -0.6018
  783MOL0     H 5693  11.109   3.073   0.606  1.8349 -4.2291  0.9017
  783MOL0     H 5694  10.977   3.225   0.741 -2.9470 -3.3606  1.5511
  783MOL0     H 5695  10.944   3.408   0.875  0.5896 -0.9223  0.4161
  783MOL0     H 5696  10.864   3.260   0.936 -0.3773 -1.0936  1.5664
  783MOL0     H 5697  10.867   3.370   1.165  1.1921  0.8773  0.2342
  783MOL0     H 5698  10.752   3.425   1.037  1.4908  0.7985 -3.4255
  783MOL0     H 5699  10.946   3.600   1.005  3.1551 -2.4779 -0.9740
  783MOL0     H 5700  11.012   3.528   1.159 -0.2540  0.1220  1.0049
  783MOL0     H 5701  10.897   3.726   1.234  0.5741  1.3985 -2.2764
  783MOL0     H 5702  10.820   3.566   1.274  2.2079  0.1360  1.2562
  783MOL0     H 5703  10.550   3.746   0.992 -0.6683 -2.8166 -1.2407
  783MOL0     H 5704  11.257   3.196   1.062 -3.0808 -2.5463  1.5803
  783MOL0     H 5705  11.407   3.070   0.925 -0.2945  3.2747  0.5467
  784MOL0     O 5706   3.077   6.910  10.728  0.7836  0.0658 -0.3072
  784MOL0     C 5707   3.142   6.821  10.679  0.2146  0.2718  0.3363
  784MOL0     O 5708   3.267   6.778  10.718  0.8160  0.3063 -0.2126
  784MOL0     C 5709   3.330   6.833  10.825 -0.2612  0.1819 -0.1740
  784MOL0     C 5710   3.273   6.854  10.956  0.1693 -0.2987  0.5379
  784MOL0     C 5711   3.346   6.881  11.071  0.5849 -0.5251  0.5241
  784MOL0     C 5712   3.481   6.916  11.059 -0.1936  0.3285  0.3714
  784MOL0     O 5713   3.551   6.949  11.179 -0.4831 -0.6568 -0.1471
  784MOL0     C 5714   3.685   6.986  11.169 -0.1390  0.4041  0.2329
  784MOL0     C 5715   3.715   7.117  11.100  0.7178  0.5003 -0.6208
  784MOL0     C 5716   3.729   7.224  11.214  0.4525 -0.0188  0.1943
  784MOL0     C 5717   3.765   7.359  11.153  0.4390  0.8731  0.1339
  784MOL0     C 5718   3.809   7.451  11.260  0.0535  0.4129 -0.9546
  784MOL0     C 5719   3.845   7.585  11.200  0.0235  0.0171  0.6643
  784MOL0     C 5720   3.885   7.679  11.315  0.5318  0.4381 -0.2223
  784MOL0     C 5721   3.844   7.822  11.266 -0.5689  0.1798 -0.2983
  784MOL0     N 5722   3.851   7.917  11.382  0.5053  0.2139 -0.3847
  784MOL0     C 5723   3.786   8.038  11.384 -1.6583  0.2173 -0.1882
  784MOL0     C 5724   3.816   8.094  11.500  0.5504  0.0710 -0.7578
  784MOL0     C 5725   3.740   8.210  11.556  0.0629  0.1631  0.9851
  784MOL0     C 5726   3.773   8.338  11.484  0.7149 -0.9796 -0.7197
  784MOL0     C 5727   3.923   8.362  11.480 -0.5249 -0.5113 -0.6193
  784MOL0     C 5728   3.996   8.401  11.614  0.4409  0.4741 -0.2264
  784MOL0     O 5729   4.136   8.444  11.617  0.1590 -0.7015 -0.3727
  784MOL0     C 5730   4.194   8.436  11.743 -0.5730  0.9577  0.0399
  784MOL0     C 5731   4.321   8.485  11.754  0.4868 -0.0046  0.1191
  784MOL0     C 5732   4.385   8.477  11.876 -1.5117  0.2529  0.3745
  784MOL0     C 5733   4.530   8.512  11.884 -0.0589 -0.1202  0.4742
  784MOL0     C 5734   4.314   8.432  11.990 -0.8227 -0.3604 -0.1665
  784MOL0     C 5735   4.366   8.453  12.129 -0.1979 -0.4754  1.0310
  784MOL0     O 5736   4.325   8.359  12.223 -0.1440 -0.8448  0.3814
  784MOL0     C 5737   4.379   8.374  12.346  0.4800 -0.1003  0.9850
  784MOL0     C 5738   4.295   8.333  12.453 -0.0813  0.5150  0.2018
  784MOL0     C 5739   4.347   8.332  12.578  0.1139 -0.1449 -0.3577
  784MOL0     C 5740   4.486   8.348  12.614 -0.0036 -0.1325 -0.9488
  784MOL0     O 5741   4.532   8.341  12.741  0.2095  0.4325 -0.3916
  784MOL0     C 5742   4.458   8.259  12.837  0.1732 -1.4640  0.1812
  784MOL0     C 5743   4.500   8.283  12.985  0.1079  0.3794  0.5675
  784MOL0     C 5744   4.511   8.431  13.039 -0.2575  0.2160  0.1860
  784MOL0     C 5745   4.374   8.502  13.029 -0.9153  0.7792  0.1156
  784MOL0     C 5746   4.371   8.642  13.069 -0.4463 -0.1274 -0.0635
  784MOL0     C 5747   4.409   8.676  13.206 -0.2580  0.0443 -0.8289
  784MOL0     C 5748   4.381   8.824  13.231 -0.2935  0.6423 -0.2759
  784MOL0     C 5749   4.489   8.887  13.318 -0.0418  0.9712 -0.1284
  784MOL0    Cl 5750   4.465   8.822  13.491 -0.0114  0.1743 -0.4414
  784MOL0     C 5751   4.565   8.396  12.512 -0.7093  0.0651 -0.1781
  784MOL0     C 5752   4.508   8.408  12.385 -0.5348 -0.1352  0.6791
  784MOL0     O 5753   4.431   8.556  12.144 -0.4475  0.0516 -0.1479
  784MOL0     C 5754   4.190   8.388  11.975 -0.1188 -0.3346 -0.0334
  784MOL0     C 5755   4.128   8.383  11.855 -0.9266 -0.1382  1.0757
  784MOL0     N 5756   3.906   8.011  11.568  0.8133 -0.0768  0.5404
  784MOL0     N 5757   3.934   7.908  11.491  0.0601  0.2580  0.4150
  784MOL0     C 5758   3.545   6.879  10.936  0.3510 -0.1099 -0.0475
  784MOL0     C 5759   3.473   6.839  10.819  0.2162 -0.5173  0.8639
  784MOL0     C 5760   3.078   6.731  10.575  0.0666  0.2801  1.0247
  784MOL0     C 5761   2.954   6.759  10.512 -1.1496 -0.6200 -0.6468
  784MOL0     C 5762   2.893   6.674  10.426 -0.5066 -0.0944  0.6729
  784MOL0     C 5763   2.952   6.554  10.392  1.4770 -0.2916 -0.7479
  784MOL0     O 5764   2.896   6.462  10.309 -0.3734  0.6812  0.3117
  784MOL0     C 5765   2.760   6.434  10.312  0.9657 -0.3951  0.1338
  784MOL0     C 5766   2.723   6.380  10.179 -0.0016  0.5388  0.4481
  784MOL0     C 5767   2.572   6.331  10.168  0.6582 -0.4836  0.3953
  784MOL0     C 5768   2.530   6.248  10.295 -0.2963  0.4988  0.8067
  784MOL0     C 5769   2.618   6.127  10.316 -0.0209  0.2717 -0.8036
  784MOL0     C 5770   2.707   6.046  10.332 -0.8391 -0.0358  0.4607
  784MOL0     C 5771   3.078   6.524  10.451  0.0573  0.0803  0.6476
  784MOL0     C 5772   3.147   6.603  10.543  0.4190 -0.9119  0.8227
  784MOL0     H 5773   3.165   6.855  10.973  0.5218  0.3266  3.1342
  784MOL0     H 5774   3.302   6.882  11.170 -0.4961 -0.3340  0.0505
  784MOL0     H 5775   3.726   6.987  11.270 -1.0714 -0.3788  0.6327
  784MOL0     H 5776   3.731   6.903  11.116  0.3963  1.2853 -0.7055
  784MOL0     H 5777   3.809   7.095  11.050 -0.9167 -2.1525 -2.8140
  784MOL0     H 5778   3.640   7.145  11.025  1.5282  2.7260 -0.6829
  784MOL0     H 5779   3.633   7.240  11.264  0.8080 -1.5091  1.4409
  784MOL0     H 5780   3.797   7.196  11.295 -1.8392  2.1895  3.1527
  784MOL0     H 5781   3.848   7.341  11.083  0.5362 -0.3953  0.5593
  784MOL0     H 5782   3.682   7.396  11.092 -1.4726 -1.4224  1.2006
  784MOL0     H 5783   3.738   7.459  11.343 -0.9683  2.1802 -1.9312
  784MOL0     H 5784   3.895   7.406  11.309  0.0958 -1.8020 -2.9223
  784MOL0     H 5785   3.921   7.574  11.122 -0.1868  2.4812  0.0441
  784MOL0     H 5786   3.746   7.608  11.159 -1.2922 -2.4244  2.1802
  784MOL0     H 5787   3.826   7.658  11.404  0.0338 -0.4638 -0.7451
  784MOL0     H 5788   3.993   7.676  11.335  0.9937 -0.4468 -2.5494
  784MOL0     H 5789   3.741   7.813  11.233 -0.6173 -2.1133  0.2971
  784MOL0     H 5790   3.898   7.852  11.175 -0.6638  0.4314 -0.2724
  784MOL0     H 5791   3.718   8.073  11.308 -1.7400 -1.8487 -1.1439
  784MOL0     H 5792   3.638   8.174  11.542 -0.3854  2.2386 -2.2982
  784MOL0     H 5793   3.765   8.236  11.659  1.7072 -0.1138  0.6908
  784MOL0     H 5794   3.731   8.422  11.539  0.5184 -0.7697 -1.1868
  784MOL0     H 5795   3.724   8.338  11.386 -0.5209  1.9321 -0.1801
  784MOL0     H 5796   3.939   8.452  11.419  0.1804 -1.1897 -1.4595
  784MOL0     H 5797   3.980   8.280  11.435  0.0074 -0.8377  0.6240
  784MOL0     H 5798   3.992   8.306  11.669 -1.6881  1.9072  2.3275
  784MOL0     H 5799   3.942   8.478  11.669 -0.6509 -0.0419 -0.5359
  784MOL0     H 5800   4.368   8.525  11.665 -0.6554  1.2962  0.0571
  784MOL0     H 5801   4.560   8.505  11.779 -0.6805 -1.2093  0.3548
  784MOL0     H 5802   4.547   8.610  11.929 -2.5524 -0.2398  1.8897
  784MOL0     H 5803   4.579   8.435  11.946 -1.3964 -2.8016 -1.5914
  784MOL0     H 5804   4.190   8.311  12.437 -0.0851 -0.0159  0.8951
  784MOL0     H 5805   4.275   8.321  12.658 -0.5919  4.1889 -0.1441
  784MOL0     H 5806   4.349   8.270  12.841  0.3779  0.7050  0.6310
  784MOL0     H 5807   4.491   8.159  12.806 -1.0127 -1.4633 -1.2307
  784MOL0     H 5808   4.436   8.215  13.041 -1.2890 -1.3506 -2.8220
  784MOL0     H 5809   4.604   8.249  12.983  0.3847  0.9937 -3.0280
  784MOL0     H 5810   4.582   8.489  12.979  0.3986  0.6255  1.3113
  784MOL0     H 5811   4.554   8.422  13.140 -1.1742 -4.3220  0.3995
  784MOL0     H 5812   4.340   8.500  12.925 -2.5361  0.6213  0.6169
  784MOL0     H 5813   4.304   8.454  13.099  1.1022  1.6993  2.9668
  784MOL0     H 5814   4.266   8.661  13.044  0.5649  3.1354 -2.6560
  784MOL0     H 5815   4.443   8.702  13.012  1.2561  1.3204  3.3049
  784MOL0     H 5816   4.340   8.618  13.268  0.6080  0.2208  0.3420
  784MOL0     H 5817   4.512   8.645  13.225  0.1599  1.3212 -0.8828
  784MOL0     H 5818   4.287   8.820  13.287 -1.7538 -0.4449 -2.6623
  784MOL0     H 5819   4.370   8.875  13.135 -1.5109  4.6102  1.7341
  784MOL0     H 5820   4.458   8.992  13.315 -3.1125  0.1701 -0.0193
  784MOL0     H 5821   4.590   8.878  13.277  0.7294 -1.1433  2.0443
  784MOL0     H 5822   4.669   8.423  12.530 -1.0689  0.4258  1.4865
  784MOL0     H 5823   4.588   8.446  12.322  0.5096 -1.7546  0.9455
  784MOL0     H 5824   4.139   8.341  12.058  1.1520 -1.1615  0.3014
  784MOL0     H 5825   4.027   8.342  11.852  0.5122 -4.2292  2.6738
  784MOL0     H 5826   3.652   6.887  10.919  0.2591 -1.0677 -1.2322
  784MOL0     H 5827   3.524   6.806  10.730  3.5356  1.0981  1.9841
  784MOL0     H 5828   2.901   6.851  10.536 -0.3269 -0.0277 -1.0373
  784MOL0     H 5829   2.795   6.700  10.387  0.8157  0.1998 -2.8069
  784MOL0     H 5830   2.742   6.362  10.392  1.4912 -0.5336  0.1293
  784MOL0     H 5831   2.702   6.527  10.315  2.9537  0.9606 -0.9692
  784MOL0     H 5832   2.797   6.304  10.150  0.0441  0.4828  0.7107
  784MOL0     H 5833   2.744   6.453  10.100  0.8008 -2.0340 -1.9195
  784MOL0     H 5834   2.556   6.279  10.073  1.4149  1.6795 -1.0066
  784MOL0     H 5835   2.505   6.418  10.175  0.8031 -0.4190  1.0601
  784MOL0     H 5836   2.427   6.215  10.276  0.1718 -0.6885  0.2087
  784MOL0     H 5837   2.533   6.307  10.387 -3.0371  3.1496 -0.6241
  784MOL0     H 5838   2.778   5.968  10.318 -1.1630 -0.0177 -1.5182
  784MOL0     H 5839   3.127   6.435  10.413  2.0472  1.9259 -1.3817
  784MOL0     H 5840   3.238   6.566  10.590 -0.2780 -2.2059  1.1986
  785MOL0     O 5841   8.255  11.142   2.369  0.0442 -0.9035  0.3447
  785MOL0     C 5842   8.245  11.116   2.249  0.5043  0.1464 -0.4246
  785MOL0     O 5843   8.122  11.110   2.179 -0.2939  0.3880 -0.3291
  785MOL0     C 5844   8.000  11.103   2.239 -0.1238 -0.0093  0.4440
  785MOL0     C 5845   7.958  11.109   2.373 -0.4053  0.4778  0.7135
  785MOL0     C 5846   7.826  11.100   2.427  0.1619  0.5677 -0.3587
  785MOL0     C 5847   7.721  11.070   2.343 -0.1598 -0.0369  0.7710
  785MOL0     O 5848   7.590  11.071   2.396  0.9813 -0.3380 -0.4297
  785MOL0     C 5849   7.470  11.034   2.322  0.1238  0.2909  1.1588
  785MOL0     C 5850   7.344  11.083   2.391 -0.0510  0.3985 -0.4085
  785MOL0     C 5851   7.321  10.999   2.509 -0.7628 -0.0452 -0.1409
  785MOL0     C 5852   7.211  11.052   2.592  0.7343  0.7971  1.1196
  785MOL0     C 5853   7.184  10.975   2.719 -0.1976  0.3105 -0.3588
  785MOL0     C 5854   7.082  10.868   2.708 -1.3951  0.0956 -0.3603
  785MOL0     C 5855   7.123  10.738   2.633 -0.3518  0.5649  0.0039
  785MOL0     C 5856   7.019  10.615   2.645  0.1145 -0.7686 -0.9713
  785MOL0     N 5857   6.875  10.652   2.627  0.2889 -0.4036 -0.0305
  785MOL0     C 5858   6.813  10.646   2.502 -0.5030  0.0927 -0.2050
  785MOL0     C 5859   6.686  10.680   2.511 -0.5301  0.3695 -0.2835
  785MOL0     C 5860   6.599  10.717   2.396 -0.2362 -0.0842 -0.5812
  785MOL0     C 5861   6.460  10.664   2.405 -0.2505 -1.2759 -0.9847
  785MOL0     C 5862   6.458  10.514   2.396  0.4189  0.0324 -0.5133
  785MOL0     C 5863   6.306  10.461   2.404  0.2128  0.4792 -0.6259
  785MOL0     O 5864   6.298  10.332   2.346 -0.5088 -0.3121 -0.7344
  785MOL0     C 5865   6.181  10.262   2.355 -1.2648 -0.1144 -0.1384
  785MOL0     C 5866   6.182  10.146   2.273 -0.2619  0.2928 -0.2817
  785MOL0     C 5867   6.080  10.056   2.292  0.5718  0.0157 -0.2580
  785MOL0     C 5868   6.084   9.928   2.209 -0.3791  0.2461 -0.5195
  785MOL0     C 5869   5.964  10.088   2.373 -0.1950  0.5141  0.1391
  785MOL0     C 5870   5.855   9.998   2.382 -0.6086 -0.1298 -0.1475
  785MOL0     O 5871   5.736  10.053   2.343  0.4272 -0.4001 -0.3233
  785MOL0     C 5872   5.623   9.984   2.362  1.1957  0.8936  0.9665
  785MOL0     C 5873   5.596   9.859   2.299 -0.0370  0.7821  0.2301
  785MOL0     C 5874   5.478   9.786   2.324  1.4217 -1.5313 -1.0754
  785MOL0     C 5875   5.374   9.838   2.420 -0.0760 -0.0297 -0.3811
  785MOL0     O 5876   5.259   9.768   2.454 -0.3792 -0.1425 -0.5915
  785MOL0     C 5877   5.143   9.796   2.374  0.4047 -0.2012 -0.2948
  785MOL0     C 5878   5.147   9.717   2.239  0.6069 -0.6140 -0.3107
  785MOL0     C 5879   5.148   9.564   2.252  0.4795  1.0180 -0.1582
  785MOL0     C 5880   5.139   9.479   2.124  0.6445 -0.0350  0.2531
  785MOL0     C 5881   5.267   9.507   2.044  0.4113  0.5467 -0.0587
  785MOL0     C 5882   5.259   9.438   1.902  0.3113  0.6041 -0.6541
  785MOL0     C 5883   5.391   9.430   1.826 -0.2320  0.6582  0.2825
  785MOL0     C 5884   5.363   9.352   1.698 -0.3927 -0.0531 -0.1899
  785MOL0    Cl 5885   5.505   9.329   1.603  0.8996 -0.0630 -0.2857
  785MOL0     C 5886   5.409   9.963   2.487  0.5868  0.0036  0.1742
  785MOL0     C 5887   5.527  10.028   2.451  0.5470  0.1570  1.1386
  785MOL0     O 5888   5.878   9.888   2.432 -0.6518 -0.7936 -0.1755
  785MOL0     C 5889   5.965  10.208   2.441  0.0035 -0.3371 -0.2048
  785MOL0     C 5890   6.071  10.300   2.428  0.1061  0.5465 -0.0360
  785MOL0     N 5891   6.656  10.690   2.650 -0.6961  0.6827 -0.6609
  785MOL0     N 5892   6.768  10.666   2.713  0.0738  0.3304  0.6143
  785MOL0     C 5893   7.761  11.068   2.195  0.1541 -0.3481  1.3773
  785MOL0     C 5894   7.893  11.085   2.148  0.2085 -0.6561 -0.6827
  785MOL0     C 5895   8.373  11.080   2.179  0.1286  1.1711 -0.7273
  785MOL0     C 5896   8.386  11.059   2.039  1.2859  0.1264  0.8526
  785MOL0     C 5897   8.509  11.012   1.978 -0.5055  0.4377 -0.4517
  785MOL0     C 5898   8.629  11.019   2.052 -0.6524  0.2655  0.5041
  785MOL0     O 5899   8.758  11.013   1.999  0.1953 -0.3785  0.4123
  785MOL0     C 5900   8.817  10.888   1.983  0.4226  0.0363 -0.6514
  785MOL0     C 5901   8.911  10.857   2.098  0.2850  0.6490  0.1588
  785MOL0     C 5902   8.992  10.732   2.057  1.1970  0.5823 -0.1340
  785MOL0     C 5903   9.090  10.695   2.172 -1.1247 -0.4983  0.6517
  785MOL0     C 5904   9.203  10.796   2.181  0.1676  0.3527  0.1115
  785MOL0     C 5905   9.288  10.877   2.177 -0.2354 -1.2299 -1.1763
  785MOL0     C 5906   8.618  11.052   2.182 -0.3732 -0.1413  0.1055
  785MOL0     C 5907   8.493  11.079   2.245 -0.4807 -0.4197  0.2088
  785MOL0     H 5908   8.026  11.124   2.457  0.4244  1.3398 -0.0799
  785MOL0     H 5909   7.802  11.111   2.533  1.5171  3.4523 -0.2620
  785MOL0     H 5910   7.469  11.082   2.223 -1.0537 -0.7982  0.6135
  785MOL0     H 5911   7.465  10.927   2.298 -1.3003  0.9247 -1.8925
  785MOL0     H 5912   7.353  11.191   2.405  3.2645  0.4445 -1.9975
  785MOL0     H 5913   7.260  11.055   2.327 -0.6679 -0.6515  0.8144
  785MOL0     H 5914   7.298  10.893   2.492 -1.4689 -0.2182  1.6891
  785MOL0     H 5915   7.407  11.000   2.577 -0.7806  0.0782 -0.1204
  785MOL0     H 5916   7.237  11.152   2.629 -0.1072  0.7871  1.7645
  785MOL0     H 5917   7.129  11.065   2.521  1.1617  0.7859  0.6119
  785MOL0     H 5918   7.274  10.930   2.763 -0.1162  1.6878  0.9320
  785MOL0     H 5919   7.151  11.047   2.794  0.4227  1.1448 -0.8658
  785MOL0     H 5920   7.052  10.834   2.808 -0.6849  0.5431  0.0135
  785MOL0     H 5921   7.008  10.927   2.652 -0.2097  1.5349 -0.4718
  785MOL0     H 5922   7.133  10.769   2.529 -0.7894  0.3127 -0.1151
  785MOL0     H 5923   7.217  10.702   2.676 -0.3862 -0.6863 -0.9044
  785MOL0     H 5924   7.028  10.589   2.751 -0.4622  3.1584  0.1970
  785MOL0     H 5925   7.038  10.527   2.583 -1.2691 -0.4157 -1.9442
  785MOL0     H 5926   6.853  10.612   2.407  0.7822  3.8044 -1.1462
  785MOL0     H 5927   6.597  10.826   2.403  0.9350 -0.1455  2.9197
  785MOL0     H 5928   6.646  10.678   2.305  1.3546 -0.3895  0.3291
  785MOL0     H 5929   6.408  10.690   2.312  4.2377 -2.3733 -4.1001
  785MOL0     H 5930   6.402  10.692   2.494 -1.2752 -2.0313 -1.3867
  785MOL0     H 5931   6.521  10.482   2.479  1.6484  2.2553 -0.5224
  785MOL0     H 5932   6.488  10.478   2.297 -0.9633 -0.8989 -0.6248
  785MOL0     H 5933   6.237  10.533   2.357  3.2055  3.6241 -0.6147
  785MOL0     H 5934   6.280  10.458   2.511  0.9474  1.3736 -0.4094
  785MOL0     H 5935   6.264  10.123   2.206 -0.6900  1.5923 -1.3048
  785MOL0     H 5936   6.176   9.934   2.150  1.6073 -0.2388  2.3401
  785MOL0     H 5937   6.088   9.834   2.265 -1.2758 -0.4687 -1.6049
  785MOL0     H 5938   6.000   9.926   2.139 -1.0636 -0.0695  0.2857
  785MOL0     H 5939   5.652   9.808   2.222 -1.0568 -0.0927  0.0432
  785MOL0     H 5940   5.466   9.690   2.275  1.8939 -0.2660 -3.9197
  785MOL0     H 5941   5.065   9.755   2.439  1.1361 -0.1296  0.6546
  785MOL0     H 5942   5.132   9.905   2.364 -2.0267 -0.3593  0.0959
  785MOL0     H 5943   5.055   9.736   2.183  0.1321 -1.9901 -0.0295
  785MOL0     H 5944   5.234   9.747   2.180 -0.0203 -1.3474 -1.6510
  785MOL0     H 5945   5.066   9.544   2.322 -0.0167  2.1615 -0.3794
  785MOL0     H 5946   5.241   9.537   2.302 -0.4557 -1.1254  0.5662
  785MOL0     H 5947   5.141   9.376   2.161  1.5617  0.5073  1.8178
  785MOL0     H 5948   5.056   9.510   2.061 -0.5870  0.9103  2.2604
  785MOL0     H 5949   5.360   9.473   2.091 -1.1537 -1.7168  1.6080
  785MOL0     H 5950   5.283   9.614   2.027  1.1763  0.1057 -2.6126
  785MOL0     H 5951   5.221   9.337   1.920  2.0750  0.2611  1.6796
  785MOL0     H 5952   5.177   9.492   1.855  0.1430  0.4395 -0.5495
  785MOL0     H 5953   5.479   9.392   1.878 -1.9406 -4.4089  0.0761
  785MOL0     H 5954   5.421   9.528   1.789  0.3426  0.4370  0.1638
  785MOL0     H 5955   5.300   9.412   1.633  0.0580 -0.3959 -0.9598
  785MOL0     H 5956   5.314   9.260   1.733 -2.0650  0.5335 -0.9140
  785MOL0     H 5957   5.337  10.004   2.558  0.7308 -1.0733  0.9721
  785MOL0     H 5958   5.549  10.124   2.497  0.2195 -0.0584  1.7487
  785MOL0     H 5959   5.878  10.242   2.497 -0.4023  1.1675 -1.6832
  785MOL0     H 5960   6.050  10.394   2.479 -0.7246  2.3402 -3.4146
  785MOL0     H 5961   7.691  11.058   2.112  2.9890  0.9692 -1.3452
  785MOL0     H 5962   7.914  11.101   2.043  1.5666  1.8365 -0.1026
  785MOL0     H 5963   8.297  11.054   1.977  0.1964  1.2623  2.2339
  785MOL0     H 5964   8.516  10.971   1.878 -0.2647 -0.1467 -0.2036
  785MOL0     H 5965   8.743  10.807   1.981  0.9436 -0.5497  1.6040
  785MOL0     H 5966   8.874  10.878   1.890  0.9004 -2.1264 -0.1705
  785MOL0     H 5967   8.849  10.823   2.181 -0.1443 -0.5326 -0.6236
  785MOL0     H 5968   8.968  10.944   2.134 -1.7972  1.9692  0.4576
  785MOL0     H 5969   9.051  10.747   1.966  0.7587  0.6128 -0.4182
  785MOL0     H 5970   8.925  10.646   2.047  1.0202  0.7392 -0.3182
  785MOL0     H 5971   9.126  10.595   2.145 -0.6458  0.0115 -0.7283
  785MOL0     H 5972   9.032  10.695   2.264 -3.1776  0.4843 -0.5640
  785MOL0     H 5973   9.365  10.950   2.185 -1.9113  0.6506 -1.3195
  785MOL0     H 5974   8.714  11.058   2.232  1.7438 -0.2141 -3.5714
  785MOL0     H 5975   8.500  11.103   2.350 -1.6093 -1.0348  0.4411
  786MOL0     O 5976   0.313   6.869   3.568 -0.4203 -0.0195 -0.0027
  786MOL0     C 5977   0.430   6.914   3.568 -0.0540  0.7633  0.4193
  786MOL0     O 5978   0.503   6.951   3.460 -0.2955  0.1849 -0.2036
  786MOL0     C 5979   0.448   6.960   3.332 -0.2832  1.1226 -0.6954
  786MOL0     C 5980   0.456   6.845   3.252  0.1468  0.1167 -0.5928
  786MOL0     C 5981   0.386   6.840   3.138 -0.1097 -0.3978 -0.5931
  786MOL0     C 5982   0.312   6.947   3.095  0.3075 -0.4526 -0.0778
  786MOL0     O 5983   0.236   6.929   2.983  0.8568 -0.1309 -0.5990
  786MOL0     C 5984   0.129   7.019   2.948 -0.3336  0.8482  0.4172
  786MOL0     C 5985   0.042   6.954   2.838 -0.4582  0.7178 -0.0285
  786MOL0     C 5986  -0.088   7.039   2.825 -0.2833 -0.1725  0.5310
  786MOL0     C 5987  -0.076   7.165   2.743  0.1481  0.0964 -0.0486
  786MOL0     C 5988  -0.200   7.245   2.708 -0.1394  0.4518 -0.3149
  786MOL0     C 5989  -0.302   7.179   2.626  0.1761  0.1094  0.4757
  786MOL0     C 5990  -0.408   7.281   2.567 -0.1699 -0.1210  0.9799
  786MOL0     C 5991  -0.526   7.191   2.507  0.3192  0.5379 -0.0834
  786MOL0     N 5992  -0.481   7.099   2.401  0.5210 -0.3349 -0.2600
  786MOL0     C 5993  -0.444   6.968   2.417  0.2080  0.2798  0.5746
  786MOL0     C 5994  -0.416   6.920   2.301 -0.6138  0.1885 -0.5886
  786MOL0     C 5995  -0.369   6.777   2.272 -0.1920 -0.4263 -0.4892
  786MOL0     C 5996  -0.237   6.753   2.206  1.7766  0.3908  0.1879
  786MOL0     C 5997  -0.227   6.597   2.173 -0.6766  0.0501  0.8734
  786MOL0     C 5998  -0.102   6.566   2.087 -0.0796  0.1857  0.0529
  786MOL0     O 5999  -0.111   6.428   2.056 -0.7067  0.3720  0.4625
  786MOL0     C 6000  -0.061   6.393   1.937 -0.0199  0.2531 -0.4876
  786MOL0     C 6001   0.074   6.378   1.920  0.6167  0.1013  0.3673
  786MOL0     C 6002   0.141   6.371   1.795  1.3361 -0.2211 -0.7510
  786MOL0     C 6003   0.292   6.363   1.788 -0.1483  0.6611  0.7497
  786MOL0     C 6004   0.053   6.383   1.687  0.3754  0.5340  0.1944
  786MOL0     C 6005   0.094   6.407   1.541  0.1800 -0.4155  0.1490
  786MOL0     O 6006  -0.006   6.419   1.443  0.2354 -0.1384  0.7484
  786MOL0     C 6007   0.024   6.496   1.337 -0.9762  1.4210 -0.5457
  786MOL0     C 6008   0.021   6.435   1.214 -0.7565 -0.4013 -0.3377
  786MOL0     C 6009   0.056   6.515   1.101  1.1602  0.8340  0.6197
  786MOL0     C 6010   0.056   6.653   1.112 -0.3195  0.0369  0.4384
  786MOL0     O 6011   0.093   6.728   1.009  0.4822 -0.0890  0.4674
  786MOL0     C 6012  -0.007   6.817   0.956 -0.8655 -0.3243  0.3377
  786MOL0     C 6013   0.034   6.891   0.833  0.2425  1.1362 -0.0117
  786MOL0     C 6014   0.122   7.013   0.867  1.1371  0.3343  0.9660
  786MOL0     C 6015   0.170   7.078   0.729  0.7351 -0.7912 -0.3396
  786MOL0     C 6016   0.315   7.123   0.725 -0.0021 -0.4252 -0.1082
  786MOL0     C 6017   0.401   7.000   0.711  0.3508  0.1135  0.2189
  786MOL0     C 6018   0.545   7.063   0.704 -0.2504 -0.2277  0.3181
  786MOL0     C 6019   0.630   6.940   0.670 -0.2171  0.6382  0.4576
  786MOL0    Cl 6020   0.804   6.986   0.686 -0.3042  0.1373  0.1545
  786MOL0     C 6021   0.054   6.704   1.235 -0.8267  0.0880 -0.6621
  786MOL0     C 6022   0.034   6.634   1.342  0.6284  0.4821 -0.1924
  786MOL0     O 6023   0.210   6.434   1.513  0.3885  0.1937  0.1758
  786MOL0     C 6024  -0.090   6.374   1.703 -0.1629  0.4797  0.0140
  786MOL0     C 6025  -0.148   6.386   1.834 -0.2479 -0.0008  0.4168
  786MOL0     N 6026  -0.412   7.023   2.212 -0.4151 -0.2850 -0.0068
  786MOL0     N 6027  -0.455   7.134   2.270 -0.0823  0.1807 -0.3407
  786MOL0     C 6028   0.316   7.073   3.169 -0.0200  0.1960 -0.0693
  786MOL0     C 6029   0.374   7.069   3.290 -0.2645 -0.1766 -0.0020
  786MOL0     C 6030   0.488   6.940   3.692  0.0617  0.6222 -0.2101
  786MOL0     C 6031   0.407   6.947   3.808  0.0920 -0.5882  1.0004
  786MOL0     C 6032   0.465   6.980   3.932 -0.2430 -0.1435  0.3884
  786MOL0     C 6033   0.607   6.998   3.939  0.1961 -0.0087 -0.2451
  786MOL0     O 6034   0.667   7.024   4.058  0.3682 -0.1917  0.0607
  786MOL0     C 6035   0.809   7.020   4.079  0.5717  0.0616  1.4839
  786MOL0     C 6036   0.841   6.980   4.221 -0.3464  0.0594 -0.2191
  786MOL0     C 6037   0.965   7.039   4.295  0.1438  0.1677 -0.0363
  786MOL0     C 6038   1.065   7.105   4.211  0.0251 -0.7803  0.2437
  786MOL0     C 6039   1.033   7.249   4.201 -1.5858  0.9045 -0.0761
  786MOL0     C 6040   1.026   7.365   4.198 -0.0660 -0.1714  0.0178
  786MOL0     C 6041   0.687   6.991   3.823  0.1542  0.1834  0.5754
  786MOL0     C 6042   0.629   6.954   3.700  0.9347 -0.1941 -0.9292
  786MOL0     H 6043   0.523   6.768   3.288  2.8037  3.2575  1.7090
  786MOL0     H 6044   0.400   6.745   3.087 -3.2858 -0.7048 -1.1587
  786MOL0     H 6045   0.060   7.029   3.032 -1.4004 -1.1028 -0.1439
  786MOL0     H 6046   0.174   7.111   2.912 -0.4752  0.4558 -0.8129
  786MOL0     H 6047   0.079   6.948   2.735 -1.2429 -2.7886 -0.2128
  786MOL0     H 6048   0.020   6.855   2.877  0.9921  0.9584  1.5137
  786MOL0     H 6049  -0.173   6.980   2.789 -0.5584  0.2493  0.4909
  786MOL0     H 6050  -0.103   7.064   2.931  4.7318 -0.4512  1.5856
  786MOL0     H 6051  -0.013   7.228   2.806  0.9965 -2.8073  2.2536
  786MOL0     H 6052  -0.013   7.145   2.655 -0.4870 -1.0814 -0.2668
  786MOL0     H 6053  -0.246   7.276   2.801  1.1324 -2.8874  1.6212
  786MOL0     H 6054  -0.172   7.339   2.660 -0.8205 -0.0675 -1.8139
  786MOL0     H 6055  -0.259   7.131   2.538 -2.2188  0.2021 -0.8471
  786MOL0     H 6056  -0.358   7.111   2.691 -0.0147 -1.3371 -1.1254
  786MOL0     H 6057  -0.452   7.348   2.641 -1.7917 -0.1303  0.0704
  786MOL0     H 6058  -0.363   7.332   2.481  1.5659 -2.6931  0.2295
  786MOL0     H 6059  -0.596   7.259   2.457  1.6674 -0.6997 -4.0968
  786MOL0     H 6060  -0.571   7.141   2.593 -0.5227  0.4673 -0.5552
  786MOL0     H 6061  -0.459   6.917   2.511 -3.6536  1.8101  0.9736
  786MOL0     H 6062  -0.381   6.728   2.369 -2.2501  1.7207  0.4474
  786MOL0     H 6063  -0.446   6.738   2.205  0.0451  0.7971 -1.5204
  786MOL0     H 6064  -0.162   6.778   2.282  1.1490  1.3795  0.5069
  786MOL0     H 6065  -0.218   6.821   2.123 -1.1013  2.6482  1.2234
  786MOL0     H 6066  -0.308   6.559   2.111  1.4336 -0.5126 -1.7240
  786MOL0     H 6067  -0.202   6.549   2.268  1.5350 -1.4601 -0.3903
  786MOL0     H 6068  -0.008   6.586   2.140  0.7127  1.9812 -1.9106
  786MOL0     H 6069  -0.100   6.620   1.992 -1.3465 -0.4215 -0.3407
  786MOL0     H 6070   0.128   6.362   2.013 -2.7984 -2.9191  2.0569
  786MOL0     H 6071   0.328   6.464   1.767 -2.8444  2.1916  2.7848
  786MOL0     H 6072   0.336   6.327   1.882 -0.1508 -1.1617  0.0875
  786MOL0     H 6073   0.318   6.293   1.708 -1.1753  1.9125 -0.7160
  786MOL0     H 6074   0.004   6.330   1.194  3.7897 -0.8547 -2.9704
  786MOL0     H 6075   0.066   6.479   0.999 -0.7336  1.4675  0.1806
  786MOL0     H 6076  -0.099   6.758   0.961  0.2803 -2.2371 -0.2633
  786MOL0     H 6077  -0.029   6.893   1.032 -0.8199 -0.4726  0.5023
  786MOL0     H 6078   0.085   6.825   0.762  0.3467 -0.2745  1.3080
  786MOL0     H 6079  -0.064   6.918   0.792 -1.8797 -1.1638  3.0284
  786MOL0     H 6080   0.203   6.983   0.934  0.2943 -3.7536  0.3901
  786MOL0     H 6081   0.062   7.085   0.923 -2.0772  1.2447 -3.0980
  786MOL0     H 6082   0.142   7.011   0.647 -3.5995  0.8562 -0.4627
  786MOL0     H 6083   0.101   7.161   0.711 -1.6718 -2.1231  1.9658
  786MOL0     H 6084   0.346   7.182   0.812 -1.9793  1.4383 -0.5739
  786MOL0     H 6085   0.315   7.185   0.635 -2.2013 -0.0614  0.0748
  786MOL0     H 6086   0.384   6.918   0.781 -3.9703 -0.4749 -1.2233
  786MOL0     H 6087   0.376   6.950   0.618 -2.7665  1.5136  0.1696
  786MOL0     H 6088   0.565   7.107   0.802 -1.6605  1.1450  0.0148
  786MOL0     H 6089   0.562   7.132   0.621  0.1878  0.5128  1.0063
  786MOL0     H 6090   0.613   6.891   0.573 -1.4749 -1.4986  1.6601
  786MOL0     H 6091   0.606   6.857   0.737 -0.5079 -0.0051 -0.4219
  786MOL0     H 6092   0.060   6.811   1.250 -0.9544 -0.0562  0.4844
  786MOL0     H 6093   0.029   6.676   1.442  0.9987  0.0833 -0.0048
  786MOL0     H 6094  -0.153   6.369   1.615 -1.8774  1.7270  1.1098
  786MOL0     H 6095  -0.255   6.397   1.844 -0.2408 -0.3985  1.0184
  786MOL0     H 6096   0.260   7.161   3.139  1.7350  2.0639  1.7646
  786MOL0     H 6097   0.359   7.147   3.364 -2.0631  0.0651 -0.5791
  786MOL0     H 6098   0.300   6.934   3.790  0.3701 -1.8567  0.1710
  786MOL0     H 6099   0.400   7.000   4.016 -1.5348 -1.3324 -0.2787
  786MOL0     H 6100   0.851   6.941   4.017  0.5411 -0.3097  1.9280
  786MOL0     H 6101   0.856   7.115   4.050  0.4739  0.1458  1.5991
  786MOL0     H 6102   0.860   6.872   4.217  2.8338  0.4912  0.1075
  786MOL0     H 6103   0.756   6.997   4.288  1.3096  3.3056  1.2946
  786MOL0     H 6104   1.011   6.951   4.341 -0.1065  0.3640  0.6090
  786MOL0     H 6105   0.931   7.108   4.373  1.5317  1.7577 -0.7820
  786MOL0     H 6106   1.082   7.053   4.116 -1.6148 -3.0369  1.0866
  786MOL0     H 6107   1.163   7.092   4.258  0.1791 -0.0895  0.1303
  786MOL0     H 6108   1.020   7.471   4.184 -1.8962 -0.6011 -3.4780
  786MOL0     H 6109   0.796   6.986   3.823  0.1839  0.0044 -1.4343
  786MOL0     H 6110   0.684   6.945   3.607  4.1000 -0.5349  0.8319
  787MOL0     O 6111   5.979   7.414   0.374  0.1144  0.3849 -0.1307
  787MOL0     C 6112   5.955   7.290   0.391 -0.3843 -0.4117 -0.6164
  787MOL0     O 6113   5.834   7.237   0.387  0.0019 -0.2443  0.5718
  787MOL0     C 6114   5.724   7.311   0.365  0.1488  0.2555  0.8915
  787MOL0     C 6115   5.632   7.332   0.461  0.4472 -1.0293  0.2601
  787MOL0     C 6116   5.527   7.415   0.431  0.7837 -1.0490  0.1285
  787MOL0     C 6117   5.500   7.484   0.315  0.0692  0.5992 -0.2596
  787MOL0     O 6118   5.392   7.557   0.280 -0.2126  0.4062 -0.1896
  787MOL0     C 6119   5.285   7.567   0.373  0.3582 -0.0409 -0.3499
  787MOL0     C 6120   5.184   7.657   0.312  0.9818 -0.3656  0.8787
  787MOL0     C 6121   5.213   7.812   0.281 -1.2816  0.5265 -0.7583
  787MOL0     C 6122   5.231   7.901   0.413  0.0605 -0.4968  0.8023
  787MOL0     C 6123   5.311   8.037   0.383  0.0234  0.2039 -0.9115
  787MOL0     C 6124   5.298   8.103   0.239  0.2507 -0.4399 -0.0805
  787MOL0     C 6125   5.289   8.254   0.227  0.8888  1.3760  0.2597
  787MOL0     C 6126   5.306   8.302   0.085 -0.0375 -0.1462  0.1464
  787MOL0     N 6127   5.281   8.451   0.078 -0.2705 -0.1477 -0.1624
  787MOL0     C 6128   5.326   8.551   0.168 -0.0841 -0.0679 -0.4005
  787MOL0     C 6129   5.285   8.665   0.114  0.5263  0.0668 -0.7242
  787MOL0     C 6130   5.296   8.805   0.167 -0.2397 -0.1316  0.1199
  787MOL0     C 6131   5.237   8.901   0.070 -0.5204  0.3579 -0.2953
  787MOL0     C 6132   5.086   8.901   0.049 -0.1650 -0.5062 -0.1048
  787MOL0     C 6133   5.044   9.008  -0.053  0.0934  0.1914  0.0833
  787MOL0     O 6134   4.898   9.027  -0.053 -0.6380  0.4017  0.0832
  787MOL0     C 6135   4.845   9.112  -0.146 -0.1233  0.3985  0.4013
  787MOL0     C 6136   4.904   9.225  -0.200  0.0279  0.0914  0.0894
  787MOL0     C 6137   4.840   9.301  -0.299  0.1060  0.6827  0.2371
  787MOL0     C 6138   4.916   9.425  -0.323  0.5661 -0.2287 -0.2197
  787MOL0     C 6139   4.722   9.246  -0.359  0.5568  0.0117 -0.0327
  787MOL0     C 6140   4.651   9.310  -0.471 -0.0366  0.2782  0.5451
  787MOL0     O 6141   4.731   9.385  -0.555  0.5008  0.0481  0.7132
  787MOL0     C 6142   4.675   9.442  -0.679 -0.0706 -0.5768 -0.5335
  787MOL0     C 6143   4.584   9.543  -0.666 -0.6522 -0.4885  0.1239
  787MOL0     C 6144   4.550   9.610  -0.784 -0.5885  0.8920 -0.5408
  787MOL0     C 6145   4.583   9.551  -0.912 -0.2671 -0.2694 -1.6989
  787MOL0     O 6146   4.519   9.580  -1.028 -0.3420 -1.1560 -0.2428
  787MOL0     C 6147   4.544   9.714  -1.081 -0.3943  0.0506 -0.2833
  787MOL0     C 6148   4.655   9.696  -1.196 -0.0037 -0.6746  0.1094
  787MOL0     C 6149   4.730   9.825  -1.231  0.1942  0.7631 -0.2335
  787MOL0     C 6150   4.663   9.959  -1.231  0.7197  0.2427 -0.6591
  787MOL0     C 6151   4.760  10.074  -1.251 -0.3448  0.1553  0.6396
  787MOL0     C 6152   4.689  10.206  -1.271 -0.6515  0.2002  0.7467
  787MOL0     C 6153   4.795  10.309  -1.259  0.2417 -0.3793 -1.2235
  787MOL0     C 6154   4.722  10.446  -1.270 -0.6851 -0.5102 -0.1756
  787MOL0    Cl 6155   4.834  10.591  -1.253 -0.0915  0.2962 -0.0473
  787MOL0     C 6156   4.661   9.441  -0.917  0.1320 -0.2767 -0.3431
  787MOL0     C 6157   4.726   9.396  -0.804 -0.0583 -0.2104 -0.1114
  787MOL0     O 6158   4.530   9.289  -0.499 -0.9651  0.1065  0.5456
  787MOL0     C 6159   4.660   9.139  -0.298 -0.1482 -0.1393  0.1765
  787MOL0     C 6160   4.722   9.068  -0.187 -0.3750  0.2464  0.5637
  787MOL0     N 6161   5.226   8.636  -0.012  0.0818 -0.5278  0.2645
  787MOL0     N 6162   5.223   8.510  -0.033  0.5611  0.2099 -0.1588
  787MOL0     C 6163   5.606   7.466   0.223  0.2629  0.7463  0.4066
  787MOL0     C 6164   5.717   7.376   0.242 -0.4882  0.1755  0.5172
  787MOL0     C 6165   6.080   7.210   0.422  0.3308 -0.1677 -0.3231
  787MOL0     C 6166   6.057   7.085   0.488 -0.7330  0.2301  0.6346
  787MOL0     C 6167   6.167   7.002   0.525  0.4278  0.1377 -0.8523
  787MOL0     C 6168   6.300   7.042   0.487  0.2460  0.0797 -0.4383
  787MOL0     O 6169   6.420   6.973   0.512  0.8720  0.6766 -0.5107
  787MOL0     C 6170   6.413   6.835   0.541  0.4872 -0.0050  0.4118
  787MOL0     C 6171   6.540   6.761   0.538  0.1776  0.5923 -0.4987
  787MOL0     C 6172   6.647   6.807   0.641  0.2579  0.6649 -0.4477
  787MOL0     C 6173   6.644   6.730   0.773 -0.1346 -0.3828  0.0886
  787MOL0     C 6174   6.532   6.778   0.862  0.1005 -0.8702  0.1333
  787MOL0     C 6175   6.434   6.814   0.927  0.7169  0.2553 -0.0819
  787MOL0     C 6176   6.320   7.160   0.418 -0.7847  0.0365 -0.5648
  787MOL0     C 6177   6.210   7.248   0.386  0.2204 -0.3402 -0.7445
  787MOL0     H 6178   5.644   7.274   0.553  0.2968 -2.4326 -0.5780
  787MOL0     H 6179   5.456   7.435   0.511 -1.6409  0.9004 -2.3449
  787MOL0     H 6180   5.241   7.473   0.406 -1.3334  0.6749 -0.4275
  787MOL0     H 6181   5.323   7.622   0.460 -2.8954  1.1843  0.4757
  787MOL0     H 6182   5.148   7.607   0.222 -0.2798 -0.4996  1.4443
  787MOL0     H 6183   5.100   7.652   0.382  0.7550 -0.5146  0.5978
  787MOL0     H 6184   5.312   7.804   0.235 -1.4136  1.0444 -1.1353
  787MOL0     H 6185   5.133   7.846   0.215 -0.9833  0.0417 -1.3767
  787MOL0     H 6186   5.137   7.926   0.463  1.0155 -0.4246  2.6414
  787MOL0     H 6187   5.280   7.841   0.490 -2.0596  1.4110  3.8593
  787MOL0     H 6188   5.264   8.100   0.459  0.3318  0.4344 -0.9105
  787MOL0     H 6189   5.411   8.026   0.427  0.5442  0.5469 -1.9742
  787MOL0     H 6190   5.373   8.065   0.169 -2.2480 -1.1845 -2.5558
  787MOL0     H 6191   5.202   8.073   0.194  0.3502 -2.4067  0.9428
  787MOL0     H 6192   5.192   8.286   0.266 -1.1089 -2.6704 -0.8630
  787MOL0     H 6193   5.371   8.280   0.295 -0.1091 -0.3662  2.2318
  787MOL0     H 6194   5.239   8.246   0.020 -0.0247 -1.0837  0.9276
  787MOL0     H 6195   5.406   8.274   0.048 -0.7583  1.4702 -3.4528
  787MOL0     H 6196   5.378   8.542   0.263 -5.4675 -0.7606  2.8702
  787MOL0     H 6197   5.259   8.817   0.270 -0.6777 -0.0652 -0.0436
  787MOL0     H 6198   5.404   8.818   0.169 -0.1468 -0.9273  0.8306
  787MOL0     H 6199   5.291   8.871  -0.020  1.1459 -0.0363  0.7795
  787MOL0     H 6200   5.261   8.998   0.116 -0.2001 -0.2129  0.7834
  787MOL0     H 6201   5.030   8.918   0.142 -1.7397  0.0997 -1.1318
  787MOL0     H 6202   5.057   8.804   0.008 -1.3428 -1.1786  2.1344
  787MOL0     H 6203   5.093   8.972  -0.143  2.5807 -0.2947  1.5372
  787MOL0     H 6204   5.089   9.105  -0.034  2.1882 -0.7194  0.0096
  787MOL0     H 6205   4.999   9.246  -0.153  0.6534  0.1249 -1.1649
  787MOL0     H 6206   4.940   9.473  -0.227  0.1266  2.5206 -1.4125
  787MOL0     H 6207   4.996   9.394  -0.391 -0.8102 -1.2478 -1.4495
  787MOL0     H 6208   4.845   9.495  -0.368 -1.1944 -0.2334  2.3341
  787MOL0     H 6209   4.545   9.580  -0.572 -2.1361  0.1069 -0.6935
  787MOL0     H 6210   4.484   9.696  -0.780 -0.6985  0.8321 -1.0025
  787MOL0     H 6211   4.446   9.748  -1.115  0.0279  1.6377  0.0177
  787MOL0     H 6212   4.573   9.794  -1.013  2.2248  0.5614 -1.8613
  787MOL0     H 6213   4.723   9.620  -1.157 -0.7391 -1.7855 -0.7042
  787MOL0     H 6214   4.606   9.647  -1.281 -0.2048 -1.4755  0.6748
  787MOL0     H 6215   4.787   9.812  -1.323  0.7665  1.6819 -0.0184
  787MOL0     H 6216   4.805   9.829  -1.151 -1.9203  1.4457  1.8291
  787MOL0     H 6217   4.577   9.959  -1.298 -1.7314  1.6760  2.2658
  787MOL0     H 6218   4.619   9.985  -1.135  3.9275 -4.1081  2.4191
  787MOL0     H 6219   4.825  10.052  -1.336  0.0124  5.8657 -0.9809
  787MOL0     H 6220   4.821  10.093  -1.163  0.5632  3.8756 -0.6259
  787MOL0     H 6221   4.634  10.204  -1.365 -2.8323 -1.2543  1.9469
  787MOL0     H 6222   4.618  10.217  -1.189 -0.6449 -0.2626  0.8197
  787MOL0     H 6223   4.867  10.299  -1.341  0.7965  2.1031 -1.1378
  787MOL0     H 6224   4.857  10.291  -1.170  3.1151 -2.7392 -3.4806
  787MOL0     H 6225   4.642  10.450  -1.196  0.0533 -1.6830  0.7173
  787MOL0     H 6226   4.665  10.462  -1.362  0.5578  3.7990 -0.4624
  787MOL0     H 6227   4.660   9.395  -1.016  4.0407  0.3794 -0.8473
  787MOL0     H 6228   4.806   9.323  -0.809  0.6960  0.1922  3.4412
  787MOL0     H 6229   4.558   9.124  -0.331 -0.7896  0.0348  1.9994
  787MOL0     H 6230   4.682   8.981  -0.138  0.2024 -0.3157  0.0666
  787MOL0     H 6231   5.601   7.518   0.128 -0.4078 -0.3397 -0.1698
  787MOL0     H 6232   5.790   7.371   0.162  1.3726  2.5005  1.9294
  787MOL0     H 6233   5.955   7.047   0.482  0.0516 -1.7522 -2.4999
  787MOL0     H 6234   6.160   6.906   0.575 -2.9106  0.2506 -0.8895
  787MOL0     H 6235   6.369   6.837   0.641  1.1764  2.1540  0.7216
  787MOL0     H 6236   6.358   6.780   0.464  2.4762 -1.0099 -0.3714
  787MOL0     H 6237   6.586   6.771   0.440  1.6640 -1.2544 -0.0422
  787MOL0     H 6238   6.505   6.658   0.553 -2.4900  1.2375 -1.5649
  787MOL0     H 6239   6.662   6.914   0.656  4.2791  0.0222  1.8538
  787MOL0     H 6240   6.745   6.778   0.601 -0.0821 -0.2283 -0.6657
  787MOL0     H 6241   6.735   6.752   0.830 -2.1302  0.4605  3.1833
  787MOL0     H 6242   6.623   6.627   0.743 -2.0025 -0.1752  0.5488
  787MOL0     H 6243   6.352   6.843   0.990  0.9416  1.0664 -0.1393
  787MOL0     H 6244   6.414   7.202   0.384 -2.0314  2.4169 -1.3119
  787MOL0     H 6245   6.248   7.341   0.344  0.4309 -0.4619 -0.8238
  788MOL0     O 6246   1.690   8.623  10.001  0.5960  1.1589  0.4793
  788MOL0     C 6247   1.753   8.721  10.040 -0.5875  0.2510  0.0270
  788MOL0     O 6248   1.709   8.839  10.086 -0.1997 -0.8198 -1.1187
  788MOL0     C 6249   1.576   8.870  10.097  0.4643 -0.0901  0.1930
  788MOL0     C 6250   1.482   8.832  10.000  0.1681  0.5319 -0.2491
  788MOL0     C 6251   1.354   8.889  10.002 -0.1957  0.5386  0.1504
  788MOL0     C 6252   1.324   8.981  10.111  0.2398 -0.0073  0.8346
  788MOL0     O 6253   1.205   9.047  10.124 -0.6173 -0.4900  0.0668
  788MOL0     C 6254   1.099   9.016  10.030 -0.0639 -0.1077  0.2091
  788MOL0     C 6255   0.966   9.074  10.079  0.2456 -0.0189 -1.1195
  788MOL0     C 6256   0.941   9.027  10.228 -0.7633  0.5770 -0.3964
  788MOL0     C 6257   0.800   9.041  10.272 -0.0321 -0.7271  0.1927
  788MOL0     C 6258   0.787   9.022  10.426 -0.2333  0.0026  0.3653
  788MOL0     C 6259   0.824   9.154  10.503  0.3027 -0.4422 -0.3030
  788MOL0     C 6260   0.733   9.192  10.619  0.5664 -0.5726  0.1842
  788MOL0     C 6261   0.714   9.075  10.725 -1.1952  0.0396 -0.6445
  788MOL0     N 6262   0.572   9.034  10.745  0.1911  0.9731  0.8681
  788MOL0     C 6263   0.480   9.084  10.836  0.3135  0.1866  0.1985
  788MOL0     C 6264   0.376   8.996  10.824 -0.4375 -0.1062 -0.3618
  788MOL0     C 6265   0.241   9.015  10.878  0.3439 -0.6088 -0.4731
  788MOL0     C 6266   0.151   9.128  10.815  0.1507  0.3536 -0.3030
  788MOL0     C 6267   0.131   9.103  10.662 -0.5201  0.3179 -0.6308
  788MOL0     C 6268   0.053   9.215  10.597 -0.0263  0.2760  0.0671
  788MOL0     O 6269   0.009   9.180  10.466  0.1633  0.5062  0.4390
  788MOL0     C 6270  -0.082   9.085  10.445  0.1360 -0.2547  0.2790
  788MOL0     C 6271  -0.126   9.042  10.317  0.1307 -0.3337 -0.0391
  788MOL0     C 6272  -0.208   8.922  10.297  0.1761 -0.1158  0.2926
  788MOL0     C 6273  -0.211   8.884  10.153 -0.4101 -0.3336  1.1590
  788MOL0     C 6274  -0.262   8.853  10.410  0.1887  0.0731 -1.0097
  788MOL0     C 6275  -0.340   8.727  10.399  0.1378 -0.7241 -0.6292
  788MOL0     O 6276  -0.333   8.649  10.504  0.5978 -1.0482  0.2941
  788MOL0     C 6277  -0.413   8.543  10.521 -0.1283  0.0032 -0.3011
  788MOL0     C 6278  -0.456   8.461  10.413 -0.2091 -0.8346 -0.2377
  788MOL0     C 6279  -0.546   8.363  10.435 -0.0297  1.2486  0.5056
  788MOL0     C 6280  -0.614   8.343  10.556  0.3564 -0.7903  0.2818
  788MOL0     O 6281  -0.698   8.231  10.567  0.4885 -0.5988 -0.1361
  788MOL0     C 6282  -0.804   8.242  10.663  0.4024 -0.2649 -0.1137
  788MOL0     C 6283  -0.903   8.122  10.650  0.2710  0.5777 -0.4611
  788MOL0     C 6284  -1.030   8.154  10.724  0.1388  0.6849  0.0580
  788MOL0     C 6285  -1.009   8.154  10.874 -0.5773  0.8035 -0.1535
  788MOL0     C 6286  -1.146   8.185  10.941  0.9308 -0.0983  0.8838
  788MOL0     C 6287  -1.139   8.195  11.093  0.0968 -0.4139  0.0733
  788MOL0     C 6288  -1.104   8.060  11.157 -0.1212  0.8730  1.0052
  788MOL0     C 6289  -1.222   8.023  11.249  0.0859  0.4651  0.0584
  788MOL0    Cl 6290  -1.222   8.123  11.391 -0.0680 -0.2495 -0.1246
  788MOL0     C 6291  -0.583   8.433  10.662  0.5984  0.2599 -0.6443
  788MOL0     C 6292  -0.480   8.527  10.641 -0.0357  0.7382  0.3903
  788MOL0     O 6293  -0.414   8.714  10.307  0.5391  0.2543  0.2661
  788MOL0     C 6294  -0.228   8.911  10.539  1.0948 -0.2237  0.9852
  788MOL0     C 6295  -0.152   9.026  10.548 -0.0626 -0.0055 -0.4277
  788MOL0     N 6296   0.403   8.909  10.725  0.1460  1.1615 -0.1718
  788MOL0     N 6297   0.510   8.934  10.669 -0.1419 -0.2299 -0.4121
  788MOL0     C 6298   1.413   9.004  10.218  0.1564  0.4359  0.4582
  788MOL0     C 6299   1.536   8.946  10.208 -0.9668 -0.1960  0.7059
  788MOL0     C 6300   1.897   8.713  10.029 -0.4357  0.0336  0.0501
  788MOL0     C 6301   1.955   8.627   9.934  0.1790 -0.5291  1.0097
  788MOL0     C 6302   2.097   8.614   9.926  0.7581  0.2447  1.1551
  788MOL0     C 6303   2.182   8.665  10.024 -0.7774 -0.1889  0.0043
  788MOL0     O 6304   2.325   8.657  10.043 -0.2448 -0.2370  0.9478
  788MOL0     C 6305   2.384   8.563   9.948 -0.1486  0.8867 -1.2568
  788MOL0     C 6306   2.533   8.580   9.934 -0.6926  0.4637  0.1049
  788MOL0     C 6307   2.602   8.566  10.065 -0.4202 -0.1444 -0.2960
  788MOL0     C 6308   2.756   8.577  10.055 -0.2237  0.3393  0.4536
  788MOL0     C 6309   2.821   8.681   9.974  0.1651 -0.5412 -0.8295
  788MOL0     C 6310   2.865   8.776   9.914  0.7042 -1.2913 -0.1751
  788MOL0     C 6311   2.119   8.743  10.117 -0.3633 -0.1010  0.2637
  788MOL0     C 6312   1.982   8.773  10.123 -0.2865  0.1950 -0.1865
  788MOL0     H 6313   1.514   8.771   9.916 -3.3662 -1.1522 -0.5421
  788MOL0     H 6314   1.282   8.856   9.928  1.7875  0.0012 -1.6417
  788MOL0     H 6315   1.133   9.060   9.936  3.9540  0.7043  1.8453
  788MOL0     H 6316   1.084   8.909  10.013 -0.9808  0.5619 -4.8108
  788MOL0     H 6317   0.986   9.181  10.091  1.0757 -0.0444 -2.1480
  788MOL0     H 6318   0.883   9.042  10.015  1.5431 -4.4239 -0.9378
  788MOL0     H 6319   0.968   8.922  10.241 -2.4031 -0.0013 -1.4230
  788MOL0     H 6320   1.011   9.076  10.297  2.1918 -2.4616 -0.9445
  788MOL0     H 6321   0.763   9.140  10.245  0.1044  0.2033  3.0883
  788MOL0     H 6322   0.738   8.972  10.214 -1.2274  0.6617 -0.2297
  788MOL0     H 6323   0.683   9.007  10.458 -0.5742  3.0648  0.9641
  788MOL0     H 6324   0.855   8.941  10.452  0.3195 -1.7547 -5.3379
  788MOL0     H 6325   0.922   9.148  10.552  0.7237 -0.4116 -1.1139
  788MOL0     H 6326   0.827   9.236  10.430 -2.4431  2.8048  2.8968
  788MOL0     H 6327   0.750   9.289  10.668  2.2045  0.2656 -1.9132
  788MOL0     H 6328   0.637   9.205  10.567 -0.2835 -0.4658  1.7017
  788MOL0     H 6329   0.739   9.115  10.824  1.6175 -0.9223 -0.8800
  788MOL0     H 6330   0.775   8.989  10.694 -0.6057  0.2473 -0.0824
  788MOL0     H 6331   0.483   9.173  10.897  0.7698 -2.1370  3.8345
  788MOL0     H 6332   0.186   8.920  10.881  1.3513 -1.2632 -1.5676
  788MOL0     H 6333   0.249   9.042  10.983 -2.9152 -3.5465  0.7384
  788MOL0     H 6334   0.183   9.231  10.832 -0.5239  0.7819 -1.5011
  788MOL0     H 6335   0.058   9.117  10.872  1.7040  0.8646  2.5110
  788MOL0     H 6336   0.091   9.002  10.658 -0.9472  0.4302  0.3602
  788MOL0     H 6337   0.226   9.092  10.610 -0.1957  0.0968  0.0020
  788MOL0     H 6338   0.132   9.290  10.586  0.3346 -0.1170 -0.0393
  788MOL0     H 6339  -0.033   9.254  10.653 -0.0931 -0.9910  0.8846
  788MOL0     H 6340  -0.087   9.101  10.234  1.0577  2.8617  2.4690
  788MOL0     H 6341  -0.227   8.776  10.144 -1.9821 -0.1249  1.2129
  788MOL0     H 6342  -0.295   8.933  10.104 -0.7132 -3.5654 -1.9289
  788MOL0     H 6343  -0.122   8.911  10.095 -1.5607  1.1860  0.0171
  788MOL0     H 6344  -0.427   8.468  10.309 -0.5357 -0.7123 -0.3225
  788MOL0     H 6345  -0.578   8.291  10.361  0.0614  0.4731  1.2111
  788MOL0     H 6346  -0.763   8.239  10.765  0.8440  0.9449 -0.2280
  788MOL0     H 6347  -0.856   8.339  10.659  0.2294 -0.3003  0.9351
  788MOL0     H 6348  -0.929   8.120  10.544  3.1209 -1.7235 -1.2549
  788MOL0     H 6349  -0.859   8.024  10.670 -3.4282 -1.7469 -2.6447
  788MOL0     H 6350  -1.087   8.066  10.691  0.3725  1.4223 -2.5186
  788MOL0     H 6351  -1.076   8.250  10.701 -0.2744  0.8010  1.3042
  788MOL0     H 6352  -0.977   8.051  10.889 -0.4727  0.0546 -4.4475
  788MOL0     H 6353  -0.919   8.210  10.899  1.1881 -2.5020  1.5811
  788MOL0     H 6354  -1.215   8.106  10.908 -0.1741  0.9032  0.7113
  788MOL0     H 6355  -1.191   8.281  10.912  0.2873 -0.5500  0.3389
  788MOL0     H 6356  -1.059   8.264  11.122 -1.4031  1.1538  0.6623
  788MOL0     H 6357  -1.234   8.238  11.126  0.8201  0.9467  0.4646
  788MOL0     H 6358  -1.009   8.074  11.210  1.1529 -1.4151 -0.4963
  788MOL0     H 6359  -1.094   7.992  11.072  1.6090  0.4707  1.4877
  788MOL0     H 6360  -1.200   7.916  11.262  1.5581  0.0213 -4.3820
  788MOL0     H 6361  -1.317   8.046  11.200  0.3257  1.7534  0.1564
  788MOL0     H 6362  -0.623   8.421  10.763 -1.7474 -1.8659 -1.7308
  788MOL0     H 6363  -0.443   8.585  10.725  2.7427 -0.2350 -0.0482
  788MOL0     H 6364  -0.273   8.874  10.631 -1.7487  0.4645 -0.0300
  788MOL0     H 6365  -0.154   9.071  10.647 -1.2249  1.2323 -0.9969
  788MOL0     H 6366   1.385   9.065  10.303 -0.4936 -2.0466  2.1632
  788MOL0     H 6367   1.612   8.977  10.279  0.3622 -1.6622 -0.0055
  788MOL0     H 6368   1.885   8.588   9.861 -2.2287  0.5431  2.6357
  788MOL0     H 6369   2.129   8.581   9.827 -0.5034 -1.5373  1.3070
  788MOL0     H 6370   2.351   8.461   9.970 -0.2261  1.3301  0.8569
  788MOL0     H 6371   2.341   8.588   9.850 -0.6648  0.7140 -1.0781
  788MOL0     H 6372   2.563   8.682   9.908  2.3426  0.4785  2.9422
  788MOL0     H 6373   2.580   8.516   9.859  1.5115 -0.6499  2.2879
  788MOL0     H 6374   2.577   8.477  10.123 -0.0011  0.8410  1.4924
  788MOL0     H 6375   2.570   8.635  10.143  2.6875 -0.1516  1.1429
  788MOL0     H 6376   2.778   8.479  10.011  1.0039  0.4500  0.7813
  788MOL0     H 6377   2.792   8.567  10.158 -4.4523 -1.9257  1.9445
  788MOL0     H 6378   2.902   8.865   9.866  0.8777 -1.0841  0.3349
  788MOL0     H 6379   2.190   8.791  10.183  0.4261 -2.5895  1.3027
  788MOL0     H 6380   1.957   8.850  10.195 -3.4005 -1.5638  0.7981
  789MOL0     O 6381   2.057   4.253   7.932  0.4862  0.3138 -0.1585
  789MOL0     C 6382   2.004   4.154   7.990 -0.3120 -0.4150 -0.4080
  789MOL0     O 6383   1.869   4.127   7.998 -0.5464  0.3119  0.2969
  789MOL0     C 6384   1.780   4.232   7.978 -0.0792  0.3970 -0.3054
  789MOL0     C 6385   1.653   4.181   7.935  0.1976 -0.5181 -0.1077
  789MOL0     C 6386   1.546   4.270   7.911 -1.1850  0.7806  0.6002
  789MOL0     C 6387   1.558   4.411   7.953  0.3324 -0.7307 -0.7747
  789MOL0     O 6388   1.448   4.500   7.970  0.1677  0.3112 -0.7336
  789MOL0     C 6389   1.331   4.475   7.898  0.2549  0.4513  0.2531
  789MOL0     C 6390   1.212   4.564   7.919  1.0016 -0.8432  0.4846
  789MOL0     C 6391   1.103   4.548   7.811  0.3961 -0.1711 -0.2161
  789MOL0     C 6392   0.973   4.621   7.857 -0.6049  0.1102 -0.5150
  789MOL0     C 6393   0.852   4.602   7.751 -0.8041 -1.1201  0.4344
  789MOL0     C 6394   0.738   4.705   7.781  0.0399  0.7480  0.5280
  789MOL0     C 6395   0.747   4.834   7.703  0.5454 -0.2930 -0.1152
  789MOL0     C 6396   0.639   4.945   7.728  0.3175 -0.3211 -0.7716
  789MOL0     N 6397   0.500   4.904   7.730 -0.5890  0.4160 -0.2557
  789MOL0     C 6398   0.414   4.922   7.628 -0.6972 -0.4826 -0.2579
  789MOL0     C 6399   0.303   4.867   7.677  0.0952  0.0173  0.3060
  789MOL0     C 6400   0.170   4.846   7.606  0.2472 -0.2656  0.0424
  789MOL0     C 6401   0.092   4.978   7.578  0.1075  0.6868  0.0060
  789MOL0     C 6402  -0.023   5.011   7.682 -0.1567 -0.5658 -0.2702
  789MOL0     C 6403   0.048   5.086   7.794  0.1239 -0.5111 -0.0099
  789MOL0     O 6404  -0.056   5.098   7.890  0.5423 -0.6597  0.0349
  789MOL0     C 6405  -0.106   4.994   7.968  0.3365  0.1861 -0.1580
  789MOL0     C 6406  -0.039   4.871   7.998  0.3329 -0.6763 -0.2164
  789MOL0     C 6407  -0.114   4.763   8.056  0.0561 -0.0318 -0.1999
  789MOL0     C 6408  -0.035   4.645   8.088  1.0613  0.1265  1.3819
  789MOL0     C 6409  -0.257   4.774   8.080 -0.6238  0.0942  0.2162
  789MOL0     C 6410  -0.353   4.670   8.122 -0.2118 -0.1832 -0.5731
  789MOL0     O 6411  -0.333   4.542   8.083 -0.8264  0.3153 -0.1975
  789MOL0     C 6412  -0.410   4.443   8.141  0.0205  0.5797 -0.0555
  789MOL0     C 6413  -0.546   4.447   8.193  0.5253  0.1662 -0.1886
  789MOL0     C 6414  -0.606   4.336   8.247 -0.0313  0.3057 -0.6495
  789MOL0     C 6415  -0.537   4.210   8.262  0.5600 -1.0287  0.3239
  789MOL0     O 6416  -0.589   4.096   8.319  0.3360  0.4539 -0.0376
  789MOL0     C 6417  -0.716   4.102   8.383  0.4865  0.4285  0.3057
  789MOL0     C 6418  -0.830   4.063   8.289 -0.5553 -0.2248  0.6517
  789MOL0     C 6419  -0.831   3.906   8.242 -0.3388 -0.4011  0.4812
  789MOL0     C 6420  -0.949   3.858   8.156 -0.3039 -0.5845 -0.0343
  789MOL0     C 6421  -0.956   3.707   8.154  0.3705  0.3677 -0.1491
  789MOL0     C 6422  -1.056   3.646   8.055  0.1525 -0.4803 -0.0832
  789MOL0     C 6423  -1.074   3.486   8.062  0.2354 -0.9462  0.4255
  789MOL0     C 6424  -0.955   3.424   7.992 -0.2250  0.6360  0.5496
  789MOL0    Cl 6425  -0.976   3.250   7.967  0.3613  0.2159  0.4254
  789MOL0     C 6426  -0.408   4.203   8.202 -0.5646 -0.4608  0.3609
  789MOL0     C 6427  -0.346   4.319   8.148  0.3717 -0.4775  0.7176
  789MOL0     O 6428  -0.454   4.714   8.183  0.3645 -0.4225  0.4878
  789MOL0     C 6429  -0.313   4.905   8.064  0.5814  0.7205 -0.7966
  789MOL0     C 6430  -0.240   5.008   8.006 -1.1318 -0.1813 -0.0822
  789MOL0     N 6431   0.315   4.829   7.803  0.2944  0.1008  0.2785
  789MOL0     N 6432   0.437   4.840   7.837 -0.0251 -0.9489  0.3023
  789MOL0     C 6433   1.681   4.449   8.001 -0.2456  1.1435  0.1043
  789MOL0     C 6434   1.797   4.367   8.011  1.4299 -0.4104  0.2167
  789MOL0     C 6435   2.086   4.060   8.070  0.1547 -0.2705 -1.0760
  789MOL0     C 6436   2.029   3.937   8.111 -0.7012  0.4144 -0.4243
  789MOL0     C 6437   2.100   3.834   8.176 -0.3347 -0.4624  0.1395
  789MOL0     C 6438   2.242   3.862   8.196  0.0254  0.4789 -1.0369
  789MOL0     O 6439   2.329   3.766   8.241 -0.6009 -0.7124  0.0695
  789MOL0     C 6440   2.293   3.633   8.268 -0.1903  0.9363 -0.5036
  789MOL0     C 6441   2.419   3.563   8.345 -0.4697 -0.4083 -0.1876
  789MOL0     C 6442   2.451   3.629   8.487 -0.6213  0.3286 -0.1202
  789MOL0     C 6443   2.530   3.527   8.573  0.0050 -0.2437  0.4802
  789MOL0     C 6444   2.641   3.475   8.493  0.5021  0.0879 -0.4612
  789MOL0     C 6445   2.733   3.414   8.433  0.2416  0.2737  0.1303
  789MOL0     C 6446   2.299   3.979   8.157 -0.7558 -0.0635  0.7942
  789MOL0     C 6447   2.226   4.082   8.100  0.6074 -0.2345 -0.6390
  789MOL0     H 6448   1.633   4.076   7.915  4.1966 -1.4809  0.0843
  789MOL0     H 6449   1.455   4.236   7.863 -0.3079  2.1320 -2.1814
  789MOL0     H 6450   1.368   4.475   7.795  1.7607 -2.5616  0.6839
  789MOL0     H 6451   1.292   4.374   7.912  0.1355  0.2480 -1.4253
  789MOL0     H 6452   1.163   4.543   8.015 -6.2079  0.6833 -2.2237
  789MOL0     H 6453   1.252   4.665   7.920  0.2060 -0.4807 -1.1587
  789MOL0     H 6454   1.134   4.600   7.720 -0.4723  2.2718  0.7999
  789MOL0     H 6455   1.085   4.441   7.795 -3.2883  0.2945  0.0357
  789MOL0     H 6456   0.947   4.590   7.959  0.3023 -1.3960 -0.7230
  789MOL0     H 6457   0.993   4.729   7.855 -1.3860  0.2892  0.3888
  789MOL0     H 6458   0.882   4.597   7.646 -3.5725  0.2320 -0.5195
  789MOL0     H 6459   0.812   4.502   7.775  0.4857 -1.5509  0.8740
  789MOL0     H 6460   0.642   4.655   7.764  0.2603  0.4940  0.0103
  789MOL0     H 6461   0.737   4.728   7.888  0.7573 -0.7891  0.9011
  789MOL0     H 6462   0.847   4.877   7.714  0.6351  0.1567 -2.2597
  789MOL0     H 6463   0.755   4.797   7.600  0.7106  1.7008 -0.8589
  789MOL0     H 6464   0.656   5.029   7.661  2.7774 -0.1539 -0.0337
  789MOL0     H 6465   0.653   4.985   7.829  1.8932 -0.6300 -0.8504
  789MOL0     H 6466   0.424   4.965   7.529  0.5487  2.3931  1.0062
  789MOL0     H 6467   0.207   4.811   7.509  4.5626  0.8538  1.0693
  789MOL0     H 6468   0.099   4.779   7.656  0.8444 -0.3889  0.7347
  789MOL0     H 6469   0.048   4.977   7.478 -0.8400 -2.6481  0.3049
  789MOL0     H 6470   0.168   5.056   7.578 -1.8550  2.6957 -0.9288
  789MOL0     H 6471  -0.065   4.922   7.730  3.3351 -1.6962  1.0387
  789MOL0     H 6472  -0.091   5.085   7.639  2.9189  1.8100 -1.3647
  789MOL0     H 6473   0.076   5.188   7.764 -0.4592  1.1740  4.3609
  789MOL0     H 6474   0.138   5.036   7.832  0.3737 -0.4250 -0.4718
  789MOL0     H 6475   0.067   4.867   7.975  0.5103 -1.9176  0.7053
  789MOL0     H 6476  -0.036   4.618   8.194 -1.0122  1.4642  1.7637
  789MOL0     H 6477  -0.067   4.565   8.021  0.4067  1.5028 -0.0179
  789MOL0     H 6478   0.067   4.669   8.057  0.3029  1.1407 -0.5097
  789MOL0     H 6479  -0.604   4.537   8.179  1.9413  0.9849 -1.0286
  789MOL0     H 6480  -0.710   4.352   8.274  0.2539 -0.0118  0.7142
  789MOL0     H 6481  -0.716   4.020   8.456 -0.8730  1.0060  0.9859
  789MOL0     H 6482  -0.731   4.195   8.437 -0.0169 -0.0252  0.9649
  789MOL0     H 6483  -0.919   4.098   8.342  1.1721  1.3509  2.7144
  789MOL0     H 6484  -0.821   4.120   8.196 -2.6410 -1.5755 -0.4469
  789MOL0     H 6485  -0.814   3.840   8.327  3.3133  0.5304  0.6563
  789MOL0     H 6486  -0.744   3.885   8.179  0.5710 -3.9361  2.6376
  789MOL0     H 6487  -1.045   3.900   8.189 -0.6691 -2.7925  1.9856
  789MOL0     H 6488  -0.928   3.886   8.052  0.4903  0.8109  0.4741
  789MOL0     H 6489  -0.984   3.686   8.258 -0.5785  2.9725  0.1865
  789MOL0     H 6490  -0.862   3.658   8.128 -1.4512 -3.7797  0.2390
  789MOL0     H 6491  -1.156   3.685   8.073 -1.0470 -3.0965 -0.6562
  789MOL0     H 6492  -1.023   3.679   7.956 -0.0073  0.0251  0.0291
  789MOL0     H 6493  -1.164   3.463   8.004 -0.8489  2.5407  0.4800
  789MOL0     H 6494  -1.087   3.462   8.168 -1.3451  0.9737  0.7328
  789MOL0     H 6495  -0.864   3.432   8.052 -1.9274  1.4852  3.1861
  789MOL0     H 6496  -0.933   3.479   7.900 -0.3073 -2.5568 -1.5553
  789MOL0     H 6497  -0.358   4.110   8.175 -0.2839 -0.3962  0.6389
  789MOL0     H 6498  -0.252   4.322   8.094 -1.9661 -1.4651 -3.9218
  789MOL0     H 6499  -0.421   4.913   8.076  0.4828  0.5146 -1.5209
  789MOL0     H 6500  -0.289   5.099   7.972  0.2488  0.8860  0.6796
  789MOL0     H 6501   1.705   4.553   8.024  0.0804  0.8997  0.9152
  789MOL0     H 6502   1.897   4.399   8.039  0.3107  1.4568  2.5165
  789MOL0     H 6503   1.925   3.910   8.098 -0.4014 -0.4480 -1.0741
  789MOL0     H 6504   2.043   3.749   8.211 -1.2597 -0.6273 -1.6473
  789MOL0     H 6505   2.196   3.625   8.317 -2.5319  1.1339 -4.6587
  789MOL0     H 6506   2.275   3.595   8.167  0.0496  2.3484 -1.1056
  789MOL0     H 6507   2.502   3.571   8.274 -0.7826 -1.2552 -0.6629
  789MOL0     H 6508   2.390   3.459   8.361 -0.0644 -0.5685 -0.4994
  789MOL0     H 6509   2.357   3.656   8.537 -1.4655 -0.3647 -1.2845
  789MOL0     H 6510   2.520   3.713   8.477 -2.0385  1.6441  0.7925
  789MOL0     H 6511   2.456   3.451   8.599 -3.0344  2.4581  0.3247
  789MOL0     H 6512   2.571   3.575   8.662  2.2844  0.1295 -0.6758
  789MOL0     H 6513   2.819   3.383   8.377  1.3895 -0.3511  2.1455
  789MOL0     H 6514   2.407   3.982   8.171 -0.3392 -0.9134 -1.7406
  789MOL0     H 6515   2.275   4.163   8.048 -0.5624 -0.8977 -2.9305
  790MOL0     O 6516   0.480  11.285   2.945  0.6668  0.5723  0.1266
  790MOL0     C 6517   0.414  11.378   2.902 -0.4621 -0.6075 -0.4622
  790MOL0     O 6518   0.362  11.472   2.990 -0.6242 -0.3265  0.0964
  790MOL0     C 6519   0.396  11.472   3.127 -0.2184  0.0388  0.4069
  790MOL0     C 6520   0.506  11.553   3.162  0.2645  0.0726  0.5342
  790MOL0     C 6521   0.565  11.539   3.285  0.2962 -0.4512 -0.5484
  790MOL0     C 6522   0.504  11.456   3.387  0.6447  0.0752 -0.1552
  790MOL0     O 6523   0.550  11.439   3.514 -0.8422  0.4208 -0.3846
  790MOL0     C 6524   0.680  11.483   3.558 -0.0632 -0.3149 -0.0953
  790MOL0     C 6525   0.683  11.442   3.707  0.4338 -0.5050  0.4514
  790MOL0     C 6526   0.695  11.286   3.726  0.6541  1.6056 -0.1284
  790MOL0     C 6527   0.751  11.251   3.865 -0.1358 -0.4199  0.1043
  790MOL0     C 6528   0.790  11.111   3.875 -0.1802  1.5015  0.0015
  790MOL0     C 6529   0.823  11.075   4.011  0.2608  0.7035 -0.7486
  790MOL0     C 6530   0.843  10.922   4.023  0.4278  0.3547 -0.0591
  790MOL0     C 6531   0.880  10.907   4.175  0.9855 -0.1869 -0.6308
  790MOL0     N 6532   1.012  10.958   4.204 -0.5078 -1.0647  0.5736
  790MOL0     C 6533   1.045  11.050   4.305 -0.1098 -0.0477  0.0948
  790MOL0     C 6534   1.179  11.086   4.292 -0.3290 -0.4319 -0.1352
  790MOL0     C 6535   1.259  11.171   4.377  0.8897  0.1071 -0.1086
  790MOL0     C 6536   1.199  11.314   4.384 -0.6654 -0.5422 -1.1379
  790MOL0     C 6537   1.188  11.373   4.242  1.3109 -0.2342  0.7159
  790MOL0     C 6538   1.056  11.447   4.216 -0.0911 -0.6729  0.5468
  790MOL0     O 6539   1.052  11.489   4.075 -0.2934 -0.2716  0.2693
  790MOL0     C 6540   0.932  11.544   4.022 -0.8014 -0.6414 -0.7922
  790MOL0     C 6541   0.944  11.642   3.922 -1.3535 -0.5063 -0.6071
  790MOL0     C 6542   0.826  11.721   3.882  0.8840 -0.5236 -0.4556
  790MOL0     C 6543   0.846  11.830   3.780 -0.1135  0.2633  0.5825
  790MOL0     C 6544   0.707  11.699   3.955  0.4771 -0.4226 -0.2293
  790MOL0     C 6545   0.586  11.758   3.908  0.5959  0.0502 -0.3779
  790MOL0     O 6546   0.511  11.827   3.999  0.4300  0.6095  0.4906
  790MOL0     C 6547   0.404  11.901   3.954  0.3278 -0.8452 -0.0792
  790MOL0     C 6548   0.416  12.036   3.919 -0.5362 -0.0420 -0.3631
  790MOL0     C 6549   0.326  12.098   3.831 -1.1025 -0.8239  0.0271
  790MOL0     C 6550   0.205  12.034   3.797 -0.6361  1.1913  0.1542
  790MOL0     O 6551   0.110  12.083   3.710  0.2371  0.3814 -0.1001
  790MOL0     C 6552   0.136  12.086   3.572  0.2011 -0.3851  0.1259
  790MOL0     C 6553   0.100  12.223   3.514 -0.1003 -0.4865 -0.3000
  790MOL0     C 6554   0.100  12.219   3.361  0.4093 -0.0178  0.5285
  790MOL0     C 6555   0.051  12.355   3.305 -0.5682  0.2450  0.1210
  790MOL0     C 6556   0.131  12.423   3.194  0.2857  1.1861  0.0836
  790MOL0     C 6557   0.245  12.502   3.259 -0.2514  0.4868  0.2925
  790MOL0     C 6558   0.334  12.575   3.160 -0.3310 -0.4505 -0.0937
  790MOL0     C 6559   0.457  12.636   3.226  0.0975 -0.2956  0.1639
  790MOL0    Cl 6560   0.524  12.773   3.140  0.3302 -0.3920 -0.6600
  790MOL0     C 6561   0.178  11.908   3.852  0.3893  0.1598 -0.4206
  790MOL0     C 6562   0.283  11.842   3.920 -0.6755  0.9926 -0.7362
  790MOL0     O 6563   0.549  11.735   3.793  0.0714  1.2434 -0.0931
  790MOL0     C 6564   0.697  11.606   4.059 -0.0942 -0.2908  1.4147
  790MOL0     C 6565   0.807  11.528   4.083 -0.6874 -0.6587 -0.8351
  790MOL0     N 6566   1.220  11.029   4.169  0.3190 -0.0094  0.4825
  790MOL0     N 6567   1.128  10.946   4.124 -0.7609  0.1452 -0.5124
  790MOL0     C 6568   0.394  11.383   3.351 -0.2532 -0.1901  0.2871
  790MOL0     C 6569   0.338  11.390   3.222  0.9649 -1.1911  0.2890
  790MOL0     C 6570   0.382  11.404   2.759 -0.1703 -0.2380 -0.7485
  790MOL0     C 6571   0.292  11.506   2.722 -0.1619  0.5525  0.9861
  790MOL0     C 6572   0.254  11.523   2.588  0.5592 -0.1935 -0.1313
  790MOL0     C 6573   0.325  11.460   2.486  0.4927 -0.3890 -1.1027
  790MOL0     O 6574   0.296  11.479   2.357 -0.6851 -0.2663  1.4475
  790MOL0     C 6575   0.404  11.482   2.260  0.3268 -0.2459  0.0881
  790MOL0     C 6576   0.364  11.528   2.127 -0.5909  0.6548 -0.6193
  790MOL0     C 6577   0.318  11.676   2.123 -0.6682  0.0083 -0.5440
  790MOL0     C 6578   0.283  11.729   1.982  0.4648  0.7900  0.9897
  790MOL0     C 6579   0.388  11.682   1.884 -0.6461  0.0131  0.2168
  790MOL0     C 6580   0.470  11.628   1.813  0.2194 -0.1147 -0.5714
  790MOL0     C 6581   0.420  11.354   2.523 -0.5017  1.0616 -0.4358
  790MOL0     C 6582   0.439  11.327   2.654  0.4212  0.0188 -0.4702
  790MOL0     H 6583   0.547  11.620   3.087  0.8786  1.0074  1.6516
  790MOL0     H 6584   0.647  11.599   3.322 -0.6499 -0.8668  2.5275
  790MOL0     H 6585   0.766  11.449   3.498  3.4161  3.6959  2.0996
  790MOL0     H 6586   0.672  11.591   3.544 -3.2297 -0.4158  0.1733
  790MOL0     H 6587   0.771  11.493   3.748 -0.0041 -0.9749  2.0441
  790MOL0     H 6588   0.597  11.487   3.757 -1.7622 -1.4901 -2.2035
  790MOL0     H 6589   0.596  11.241   3.720  1.4790 -0.8592  2.4022
  790MOL0     H 6590   0.760  11.233   3.655  2.2695  3.1922  0.0740
  790MOL0     H 6591   0.828  11.320   3.900 -1.4385  1.0640  0.1432
  790MOL0     H 6592   0.662  11.259   3.928  0.5983  0.0192  1.1066
  790MOL0     H 6593   0.709  11.044   3.843 -0.6000  1.4973  1.0287
  790MOL0     H 6594   0.877  11.098   3.811  0.7603  0.9877  1.3540
  790MOL0     H 6595   0.916  11.127   4.036 -0.2174  1.1722  0.1009
  790MOL0     H 6596   0.734  11.096   4.072 -3.5791 -1.9275 -4.7504
  790MOL0     H 6597   0.757  10.866   3.985 -0.5645  2.5577 -1.2384
  790MOL0     H 6598   0.928  10.897   3.960 -0.2037 -0.4076 -0.6187
  790MOL0     H 6599   0.888  10.799   4.192 -3.3921 -0.6397 -0.2128
  790MOL0     H 6600   0.807  10.947   4.245  0.6398  1.0685 -1.6697
  790MOL0     H 6601   0.983  11.063   4.393 -0.0703  1.3283 -0.0682
  790MOL0     H 6602   1.256  11.125   4.476 -1.8877  0.4369  0.0351
  790MOL0     H 6603   1.358  11.162   4.333 -0.2310  1.5832 -3.2320
  790MOL0     H 6604   1.253  11.390   4.441 -4.1138  1.9593 -0.8982
  790MOL0     H 6605   1.099  11.313   4.427 -1.4205 -0.2309 -2.7797
  790MOL0     H 6606   1.197  11.296   4.165 -0.6706 -0.8459  1.0475
  790MOL0     H 6607   1.268  11.448   4.236 -0.6800  2.3137  3.3048
  790MOL0     H 6608   1.031  11.535   4.275 -3.2419 -2.3712  2.0295
  790MOL0     H 6609   0.979  11.370   4.232  1.7950 -2.7282  0.2438
  790MOL0     H 6610   1.037  11.667   3.872 -1.7960 -1.7190 -2.1058
  790MOL0     H 6611   0.796  11.809   3.685  1.0938 -2.3679  0.4513
  790MOL0     H 6612   0.802  11.923   3.817  1.4757 -0.2117  4.0579
  790MOL0     H 6613   0.952  11.852   3.764 -0.4191  2.6958  1.4731
  790MOL0     H 6614   0.504  12.092   3.951  0.3224 -1.8125  0.5116
  790MOL0     H 6615   0.337  12.198   3.790  0.9160 -0.7960  0.5127
  790MOL0     H 6616   0.238  12.066   3.539  0.2044  1.4758 -1.1768
  790MOL0     H 6617   0.068  12.010   3.534 -0.9208  0.9263 -0.5896
  790MOL0     H 6618   0.004  12.261   3.550 -0.4844  0.6007 -2.3269
  790MOL0     H 6619   0.177  12.291   3.550  1.0249 -1.5715 -0.5918
  790MOL0     H 6620   0.031  12.138   3.335  3.7142 -3.0466  0.4760
  790MOL0     H 6621   0.188  12.191   3.303 -0.4422 -2.8481  0.4313
  790MOL0     H 6622  -0.051  12.351   3.266  0.6025  1.3940 -3.5072
  790MOL0     H 6623   0.040  12.415   3.395 -1.8371  1.5026 -0.8323
  790MOL0     H 6624   0.071  12.503   3.148  0.4445  2.0018  1.2372
  790MOL0     H 6625   0.172  12.358   3.117 -0.5055  1.3847 -0.5231
  790MOL0     H 6626   0.205  12.567   3.337  2.0314 -0.5412  2.4634
  790MOL0     H 6627   0.313  12.429   3.305 -0.0226 -0.4907 -1.4814
  790MOL0     H 6628   0.284  12.663   3.119  0.5451  0.1793  0.1486
  790MOL0     H 6629   0.380  12.511   3.084  3.8909  4.2036 -2.0915
  790MOL0     H 6630   0.542  12.567   3.230  2.4233  2.2134 -1.7905
  790MOL0     H 6631   0.433  12.678   3.324  2.5399  0.6156  0.4586
  790MOL0     H 6632   0.088  11.858   3.821  0.3029  0.8299 -1.2656
  790MOL0     H 6633   0.265  11.739   3.947  1.7719  0.6613 -0.1678
  790MOL0     H 6634   0.601  11.599   4.110 -1.3786  0.1524 -0.8119
  790MOL0     H 6635   0.803  11.459   4.168 -0.1525 -1.4535 -1.4438
  790MOL0     H 6636   0.337  11.321   3.420 -0.7982 -1.0980 -0.9426
  790MOL0     H 6637   0.254  11.330   3.188  0.0972  1.4825 -2.8453
  790MOL0     H 6638   0.240  11.567   2.795  1.3739  2.4574  0.5557
  790MOL0     H 6639   0.162  11.575   2.562 -1.8064 -3.3893  1.1417
  790MOL0     H 6640   0.470  11.553   2.311  1.3784 -0.4621 -0.9220
  790MOL0     H 6641   0.446  11.381   2.256 -2.2986 -1.3631 -1.5496
  790MOL0     H 6642   0.287  11.458   2.092  0.1107  0.2574 -1.4089
  790MOL0     H 6643   0.454  11.515   2.065 -0.4860  0.4812 -0.4322
  790MOL0     H 6644   0.403  11.738   2.153 -0.6364 -0.7846  1.1163
  790MOL0     H 6645   0.235  11.699   2.191  0.8442  2.5705  0.5843
  790MOL0     H 6646   0.278  11.838   1.977  1.5662  0.8353 -3.6624
  790MOL0     H 6647   0.184  11.690   1.954  1.0974 -0.5467  0.5118
  790MOL0     H 6648   0.553  11.584   1.762  0.7220  0.0630  0.0698
  790MOL0     H 6649   0.488  11.305   2.453  2.0152  0.1375  2.3942
  790MOL0     H 6650   0.509  11.249   2.682  1.3974  0.8707 -0.4738
  791MOL0     O 6651   7.199   3.251   3.281 -0.1821 -0.4638 -0.3944
  791MOL0     C 6652   7.210   3.132   3.249 -0.2366  0.0683 -0.3516
  791MOL0     O 6653   7.295   3.091   3.151  0.2453 -0.1425 -0.5622
  791MOL0     C 6654   7.360   3.184   3.078  0.8060 -0.1224  1.2027
  791MOL0     C 6655   7.358   3.170   2.941 -0.0480  0.3406 -0.3323
  791MOL0     C 6656   7.400   3.274   2.856  0.3689  0.4075  0.4363
  791MOL0     C 6657   7.445   3.397   2.915  0.4932  0.3671  0.2780
  791MOL0     O 6658   7.450   3.484   2.811 -1.1802 -0.0280 -0.0232
  791MOL0     C 6659   7.530   3.600   2.824 -0.2990  0.1146  0.2528
  791MOL0     C 6660   7.676   3.577   2.827 -0.6424 -0.7020  0.3450
  791MOL0     C 6661   7.761   3.616   2.708 -0.3662  0.7642  0.4530
  791MOL0     C 6662   7.716   3.554   2.575  0.0859  0.0851 -0.0502
  791MOL0     C 6663   7.800   3.572   2.451  0.1980 -0.8326  0.7939
  791MOL0     C 6664   7.747   3.670   2.350 -0.0267 -0.4761 -0.4117
  791MOL0     C 6665   7.807   3.647   2.214 -0.0717  0.8560 -0.0132
  791MOL0     C 6666   7.968   3.650   2.216  0.9031 -0.3974 -0.0467
  791MOL0     N 6667   8.030   3.785   2.210 -0.1774  0.1644  0.1227
  791MOL0     C 6668   8.158   3.818   2.229 -0.1762  0.1252 -1.0594
  791MOL0     C 6669   8.169   3.939   2.168 -0.2781 -0.0382 -0.0983
  791MOL0     C 6670   8.302   4.011   2.161  0.1297 -0.1381  0.1826
  791MOL0     C 6671   8.326   4.101   2.039  0.1651 -0.9295  0.4435
  791MOL0     C 6672   8.275   4.244   2.056 -0.3944  1.2675 -0.0902
  791MOL0     C 6673   8.293   4.326   1.932  0.1697  0.2274 -0.2610
  791MOL0     O 6674   8.213   4.270   1.824 -0.0183 -0.0893 -0.3637
  791MOL0     C 6675   8.268   4.286   1.692  0.3885  1.1735  0.3525
  791MOL0     C 6676   8.248   4.184   1.597 -0.3360 -0.7313  0.4673
  791MOL0     C 6677   8.281   4.203   1.456  0.4001 -1.2793 -0.5726
  791MOL0     C 6678   8.281   4.072   1.372 -0.8588 -0.6792  0.0157
  791MOL0     C 6679   8.332   4.333   1.415 -0.2188  0.3310 -0.5718
  791MOL0     C 6680   8.371   4.356   1.280 -0.2941  0.2407  0.0737
  791MOL0     O 6681   8.280   4.323   1.178 -0.3826  0.7251 -0.4468
  791MOL0     C 6682   8.320   4.316   1.046 -0.2816 -0.8719  0.6076
  791MOL0     C 6683   8.265   4.413   0.960 -0.3986 -0.2715 -0.1040
  791MOL0     C 6684   8.285   4.397   0.826  0.3107 -0.1794 -0.1076
  791MOL0     C 6685   8.366   4.291   0.782 -0.2353 -0.0167  0.2124
  791MOL0     O 6686   8.389   4.289   0.645  0.0455  0.2833 -0.6690
  791MOL0     C 6687   8.277   4.272   0.562  0.4920 -0.2543  0.3057
  791MOL0     C 6688   8.257   4.129   0.514 -0.5307  0.8651 -0.1000
  791MOL0     C 6689   8.348   4.096   0.397  0.1218 -0.2997 -1.1351
  791MOL0     C 6690   8.342   3.948   0.377 -0.9293  0.2246 -0.6094
  791MOL0     C 6691   8.418   3.926   0.248  0.5883  0.0541  0.1720
  791MOL0     C 6692   8.430   3.780   0.212 -0.2383  0.0551 -0.8109
  791MOL0     C 6693   8.503   3.752   0.086 -0.1703 -0.7961 -0.0741
  791MOL0     C 6694   8.503   3.617   0.036 -0.1526 -0.2824  0.7849
  791MOL0    Cl 6695   8.622   3.636  -0.091 -0.0793  0.2943  1.0262
  791MOL0     C 6696   8.409   4.190   0.864  0.1023  0.2828 -0.4361
  791MOL0     C 6697   8.396   4.208   1.002  0.9450  0.5597 -0.1849
  791MOL0     O 6698   8.484   4.407   1.261  0.4075 -0.3555  0.3954
  791MOL0     C 6699   8.356   4.426   1.514 -0.9588 -0.7364  0.0106
  791MOL0     C 6700   8.323   4.410   1.647  0.2318 -0.0549  0.9243
  791MOL0     N 6701   8.047   3.987   2.121 -0.9436 -0.4660  0.1237
  791MOL0     N 6702   7.967   3.887   2.150  0.4927 -0.0323 -0.1293
  791MOL0     C 6703   7.455   3.407   3.054  0.4594 -0.6684  0.0966
  791MOL0     C 6704   7.422   3.304   3.134 -0.2186 -0.3982  0.5972
  791MOL0     C 6705   7.125   3.029   3.318 -0.5458 -0.2594  1.4684
  791MOL0     C 6706   7.074   2.931   3.232  0.1485  0.8175  0.0404
  791MOL0     C 6707   7.018   2.816   3.278 -0.5373  0.2363  0.0266
  791MOL0     C 6708   7.003   2.801   3.421  0.8567  0.0095  1.1803
  791MOL0     O 6709   6.931   2.695   3.476  0.3517 -0.7814  1.0098
  791MOL0     C 6710   6.932   2.570   3.394 -0.3249 -0.4207 -0.6233
  791MOL0     C 6711   6.883   2.454   3.479  1.0292  0.2069  0.2960
  791MOL0     C 6712   6.729   2.440   3.478 -0.3433 -0.2461  0.4030
  791MOL0     C 6713   6.675   2.347   3.599 -0.4298  0.8971 -0.4887
  791MOL0     C 6714   6.737   2.212   3.592  0.0898  0.5534 -0.3167
  791MOL0     C 6715   6.784   2.100   3.577  0.1807  0.0464 -0.2433
  791MOL0     C 6716   7.047   2.898   3.507 -1.3190  0.2817  0.3302
  791MOL0     C 6717   7.110   3.012   3.453  0.7392  0.1488 -0.1495
  791MOL0     H 6718   7.308   3.078   2.912  0.9895 -1.0440  1.9636
  791MOL0     H 6719   7.403   3.266   2.748 -2.1581 -0.1973  0.3367
  791MOL0     H 6720   7.504   3.674   2.747  0.4601  1.1748  0.9829
  791MOL0     H 6721   7.490   3.647   2.914 -3.0950  2.5661 -2.0570
  791MOL0     H 6722   7.719   3.633   2.910 -2.7898 -0.3637  1.3059
  791MOL0     H 6723   7.692   3.469   2.835  1.8473 -0.2824  2.1280
  791MOL0     H 6724   7.759   3.725   2.698 -1.7089  1.0057  2.7349
  791MOL0     H 6725   7.859   3.573   2.730  0.3388  2.7575  1.4976
  791MOL0     H 6726   7.722   3.445   2.580 -1.4989  0.0223  3.2303
  791MOL0     H 6727   7.611   3.584   2.566  0.2557  2.2122  3.3503
  791MOL0     H 6728   7.899   3.599   2.489 -0.0912 -0.6181  1.4158
  791MOL0     H 6729   7.807   3.474   2.401 -0.5176 -1.0195  1.0411
  791MOL0     H 6730   7.639   3.680   2.337  0.4448  2.3268 -3.6561
  791MOL0     H 6731   7.777   3.770   2.383  0.9423 -0.5329 -1.0794
  791MOL0     H 6732   7.790   3.540   2.198  0.2380  0.9278 -0.9029
  791MOL0     H 6733   7.760   3.701   2.131 -2.3613 -1.6445 -0.4827
  791MOL0     H 6734   8.000   3.596   2.126 -0.1762 -3.6223  1.3513
  791MOL0     H 6735   8.000   3.595   2.305  1.0356  1.5295  1.1388
  791MOL0     H 6736   8.239   3.769   2.282 -2.4750 -0.7825  1.9154
  791MOL0     H 6737   8.301   4.060   2.258 -0.1352 -1.7970  1.0526
  791MOL0     H 6738   8.384   3.939   2.152 -3.1083 -4.0723 -1.2935
  791MOL0     H 6739   8.277   4.058   1.951 -0.8227 -0.7960  0.9218
  791MOL0     H 6740   8.435   4.103   2.029 -0.0357  0.1188 -2.4815
  791MOL0     H 6741   8.332   4.289   2.138  0.2395  4.0729 -1.9310
  791MOL0     H 6742   8.171   4.238   2.089 -0.6676 -2.7928 -1.1070
  791MOL0     H 6743   8.402   4.332   1.921  0.5373  0.0629  2.5331
  791MOL0     H 6744   8.251   4.426   1.947 -1.2264 -0.6016  1.7585
  791MOL0     H 6745   8.203   4.093   1.635  2.3787 -2.9922 -1.2700
  791MOL0     H 6746   8.336   3.995   1.427 -1.3922 -0.9714  0.1438
  791MOL0     H 6747   8.176   4.047   1.388 -2.1373  4.3859  1.6600
  791MOL0     H 6748   8.308   4.080   1.266 -0.3936 -0.8704  0.1183
  791MOL0     H 6749   8.198   4.495   0.986  0.3654 -0.1165  1.4493
  791MOL0     H 6750   8.246   4.469   0.754 -0.6166 -2.5426 -2.0985
  791MOL0     H 6751   8.184   4.303   0.611 -0.0000 -2.8891  1.2010
  791MOL0     H 6752   8.303   4.336   0.477  3.0740 -1.6153 -0.0148
  791MOL0     H 6753   8.263   4.071   0.607 -0.5768  3.6892  1.8080
  791MOL0     H 6754   8.156   4.124   0.474 -0.9573  0.0470  1.0108
  791MOL0     H 6755   8.448   4.135   0.419 -0.1368  1.0492 -2.2547
  791MOL0     H 6756   8.315   4.155   0.312 -0.7776  3.9620  1.8270
  791MOL0     H 6757   8.390   3.890   0.456  1.2826 -0.0888 -2.1130
  791MOL0     H 6758   8.237   3.916   0.372 -0.0906 -2.5914 -2.9909
  791MOL0     H 6759   8.513   3.980   0.245  0.2134  0.6946 -0.2766
  791MOL0     H 6760   8.358   3.969   0.168 -2.2042 -2.9209  0.4762
  791MOL0     H 6761   8.478   3.727   0.294 -0.2863 -0.1027 -0.8839
  791MOL0     H 6762   8.333   3.733   0.193 -0.6979  0.5806  0.1813
  791MOL0     H 6763   8.607   3.781   0.098  0.0275 -1.0757 -0.9947
  791MOL0     H 6764   8.448   3.817   0.017 -3.0283 -1.0924  1.7278
  791MOL0     H 6765   8.410   3.582  -0.011  1.7393 -6.0207  0.5563
  791MOL0     H 6766   8.547   3.549   0.109  2.2089 -1.9734 -2.0136
  791MOL0     H 6767   8.466   4.104   0.830 -2.0312 -0.5979 -1.9856
  791MOL0     H 6768   8.427   4.129   1.070  0.0843 -1.0557 -1.5671
  791MOL0     H 6769   8.410   4.517   1.489 -0.3359 -1.3548 -0.9694
  791MOL0     H 6770   8.330   4.499   1.710  0.1987  1.4189 -1.0703
  791MOL0     H 6771   7.487   3.500   3.099 -3.4389  0.6502  0.5227
  791MOL0     H 6772   7.432   3.337   3.236  0.8261  0.6119  0.1818
  791MOL0     H 6773   7.079   2.945   3.124  0.7296 -0.5101 -0.1252
  791MOL0     H 6774   6.968   2.757   3.201 -2.1768  1.5778 -0.0020
  791MOL0     H 6775   6.859   2.575   3.313 -0.0960 -3.6585 -1.1366
  791MOL0     H 6776   7.029   2.545   3.350 -0.9682  0.3808 -2.6150
  791MOL0     H 6777   6.933   2.469   3.575  1.7033 -0.9620  0.1618
  791MOL0     H 6778   6.912   2.357   3.437  1.8006  0.8127 -0.6127
  791MOL0     H 6779   6.688   2.396   3.387  1.8422  0.3262 -0.9288
  791MOL0     H 6780   6.681   2.537   3.497  0.0014 -0.1750  0.9625
  791MOL0     H 6781   6.570   2.317   3.587  0.0019 -0.8865 -0.1036
  791MOL0     H 6782   6.689   2.393   3.697  0.0759 -5.3528  2.9338
  791MOL0     H 6783   6.812   1.997   3.566  0.7752  0.2117 -0.3048
  791MOL0     H 6784   7.032   2.893   3.614  1.0691  2.8572  0.9091
  791MOL0     H 6785   7.163   3.064   3.532 -1.0990  1.0020  0.5826
  792MOL0     O 6786  11.009   8.695   5.407  0.2050  0.2958  0.0213
  792MOL0     C 6787  11.088   8.758   5.479 -1.1839 -0.7174  1.0986
  792MOL0     O 6788  11.210   8.808   5.441  0.2706 -0.4118 -0.1596
  792MOL0     C 6789  11.256   8.790   5.320  0.6647  0.1424 -0.0649
  792MOL0     C 6790  11.199   8.832   5.203 -0.0117 -0.5786 -1.1354
  792MOL0     C 6791  11.252   8.818   5.077 -0.5325  0.3163 -0.1825
  792MOL0     C 6792  11.374   8.742   5.076  0.4428 -0.4004  0.7805
  792MOL0     O 6793  11.439   8.719   4.960 -1.0012 -0.3147  0.2871
  792MOL0     C 6794  11.376   8.720   4.833 -0.5010 -0.3047  1.0380
  792MOL0     C 6795  11.498   8.675   4.741 -0.2448 -0.0746  0.6584
  792MOL0     C 6796  11.454   8.613   4.612  0.1335 -0.5207  0.3676
  792MOL0     C 6797  11.538   8.643   4.500  0.1556  0.4342 -0.3334
  792MOL0     C 6798  11.559   8.526   4.400  0.1693  0.1172  0.4232
  792MOL0     C 6799  11.583   8.567   4.255  0.2894 -0.4272  0.6171
  792MOL0     C 6800  11.608   8.457   4.156  1.4217 -0.2019  0.6062
  792MOL0     C 6801  11.664   8.504   4.028  0.3742  0.4951 -0.9999
  792MOL0     N 6802  11.671   8.394   3.936 -0.8644 -0.7938 -0.0025
  792MOL0     C 6803  11.779   8.320   3.912  0.7318 -0.6456 -0.7581
  792MOL0     C 6804  11.744   8.231   3.819  0.2054 -0.9385  0.0493
  792MOL0     C 6805  11.825   8.131   3.747  0.5248 -0.4596  0.7193
  792MOL0     C 6806  11.979   8.156   3.743 -0.4186  1.2160 -0.1144
  792MOL0     C 6807  12.080   8.048   3.682  0.4895  0.4073 -0.6247
  792MOL0     C 6808  12.066   8.034   3.541  0.3406 -0.0747 -0.2098
  792MOL0     O 6809  12.132   8.149   3.478 -0.2456 -0.3320 -0.4232
  792MOL0     C 6810  12.273   8.157   3.451  0.3398 -0.9931  0.0388
  792MOL0     C 6811  12.367   8.065   3.509  1.0065 -0.4382  0.0727
  792MOL0     C 6812  12.500   8.083   3.495  0.1378  1.2556 -0.0737
  792MOL0     C 6813  12.589   7.973   3.556  0.3422 -0.5750  1.1329
  792MOL0     C 6814  12.559   8.187   3.415 -0.0260  0.5799  0.1024
  792MOL0     C 6815  12.709   8.198   3.389 -0.1248 -0.6051  0.0662
  792MOL0     O 6816  12.754   8.290   3.287  0.1423  0.7837 -0.0438
  792MOL0     C 6817  12.886   8.286   3.247 -0.3538 -0.4258  0.1870
  792MOL0     C 6818  12.958   8.405   3.249  0.8149  0.2451 -1.0596
  792MOL0     C 6819  13.093   8.417   3.225 -0.6378 -0.4496 -0.5394
  792MOL0     C 6820  13.165   8.302   3.198 -0.3507 -0.6758  0.7613
  792MOL0     O 6821  13.293   8.319   3.161 -0.3608 -0.5850  0.7539
  792MOL0     C 6822  13.368   8.213   3.084  0.4404 -0.7973 -0.6334
  792MOL0     C 6823  13.299   8.169   2.954  0.3072  0.7857  0.8189
  792MOL0     C 6824  13.369   8.032   2.906  0.5382  0.4104 -0.6057
  792MOL0     C 6825  13.342   8.016   2.760  0.6191 -0.6367 -0.4817
  792MOL0     C 6826  13.209   7.952   2.716 -0.9287  0.3046 -1.0255
  792MOL0     C 6827  13.184   7.970   2.565  0.4631 -0.5322 -0.2955
  792MOL0     C 6828  13.035   7.911   2.541  0.8247 -1.0911 -0.2815
  792MOL0     C 6829  12.996   7.936   2.392  0.1026  0.5889 -0.4494
  792MOL0    Cl 6830  12.832   7.890   2.336 -0.0020  0.1737 -0.3131
  792MOL0     C 6831  13.094   8.182   3.187  1.2291 -1.0288  0.5452
  792MOL0     C 6832  12.957   8.178   3.204  0.7123 -0.2596  0.4848
  792MOL0     O 6833  12.780   8.131   3.459 -0.9822 -0.5853  0.3329
  792MOL0     C 6834  12.463   8.281   3.345 -0.7914  0.8265  0.1834
  792MOL0     C 6835  12.327   8.261   3.366  0.5742  0.1768 -0.2246
  792MOL0     N 6836  11.611   8.238   3.805  0.3925  0.4587  1.1464
  792MOL0     N 6837  11.567   8.345   3.862  0.2179  0.4114  0.0747
  792MOL0     C 6838  11.434   8.702   5.196  0.0069  0.9891  0.0192
  792MOL0     C 6839  11.372   8.723   5.319 -0.6117  0.6543  0.1170
  792MOL0     C 6840  11.042   8.794   5.616 -0.3972  0.8519  0.1965
  792MOL0     C 6841  11.113   8.885   5.688 -0.4431 -0.5530 -0.1962
  792MOL0     C 6842  11.070   8.938   5.810 -0.6375  0.6954  0.4894
  792MOL0     C 6843  10.956   8.885   5.874 -0.3069  0.0877 -0.1240
  792MOL0     O 6844  10.909   8.933   5.994 -0.1415 -0.2426  0.6278
  792MOL0     C 6845  10.975   9.038   6.060 -0.2699  0.1007  0.1344
  792MOL0     C 6846  10.936   9.018   6.207  0.2008 -0.2807  0.4441
  792MOL0     C 6847  10.986   9.127   6.298 -0.9942  0.0224 -0.1977
  792MOL0     C 6848  11.135   9.144   6.348 -0.1080 -0.2023  0.2207
  792MOL0     C 6849  11.202   9.208   6.230 -0.5975 -0.2083 -0.1576
  792MOL0     C 6850  11.258   9.239   6.125  0.1434  0.2788 -0.3759
  792MOL0     C 6851  10.892   8.783   5.809 -0.2856  0.4917  0.3040
  792MOL0     C 6852  10.930   8.742   5.678  0.7642 -1.0487 -0.1477
  792MOL0     H 6853  11.106   8.887   5.215 -1.0654 -2.6280  0.8597
  792MOL0     H 6854  11.198   8.851   4.989  0.4641 -2.1166 -1.8243
  792MOL0     H 6855  11.286   8.658   4.833 -1.3520  0.7446  4.0058
  792MOL0     H 6856  11.335   8.817   4.804 -2.1593 -0.7996  1.6125
  792MOL0     H 6857  11.552   8.767   4.717 -2.8883  0.7873 -2.9974
  792MOL0     H 6858  11.560   8.603   4.795 -2.7714 -1.3014  2.1197
  792MOL0     H 6859  11.451   8.506   4.635 -4.3387 -0.5046  0.6919
  792MOL0     H 6860  11.351   8.643   4.592  0.9054  2.4529  0.2911
  792MOL0     H 6861  11.489   8.722   4.442  0.8736  0.5590 -0.7909
  792MOL0     H 6862  11.635   8.684   4.530  0.0951  2.3945 -2.5485
  792MOL0     H 6863  11.652   8.476   4.430  0.0382  0.7746  2.0307
  792MOL0     H 6864  11.476   8.456   4.396  0.9964 -0.8555 -0.0169
  792MOL0     H 6865  11.502   8.635   4.229 -0.6216 -1.2110  1.3285
  792MOL0     H 6866  11.678   8.620   4.257  0.4401 -0.6274 -0.4102
  792MOL0     H 6867  11.680   8.391   4.204 -0.2315 -2.5353  0.0574
  792MOL0     H 6868  11.519   8.399   4.129  0.0966  3.2152 -3.5602
  792MOL0     H 6869  11.768   8.537   4.039  1.4093 -1.4752 -3.6852
  792MOL0     H 6870  11.602   8.589   3.998 -2.0313  1.2589  4.9497
  792MOL0     H 6871  11.878   8.339   3.953 -0.3959 -2.1096  3.0384
  792MOL0     H 6872  11.805   8.034   3.794  0.4610  0.7458  3.4146
  792MOL0     H 6873  11.795   8.125   3.643 -1.0071  0.0215  1.1045
  792MOL0     H 6874  12.013   8.181   3.844 -0.8857  0.4516  0.2369
  792MOL0     H 6875  11.993   8.246   3.682  1.4157  2.4535  2.0055
  792MOL0     H 6876  12.061   7.949   3.725 -0.1482  0.4768 -0.7426
  792MOL0     H 6877  12.182   8.077   3.711 -0.4085  1.5373  1.6402
  792MOL0     H 6878  11.957   8.032   3.530 -0.1971  2.1583  3.2370
  792MOL0     H 6879  12.108   7.936   3.516 -2.4943 -1.7145  0.9925
  792MOL0     H 6880  12.331   7.981   3.566 -2.8237  0.0244 -1.3948
  792MOL0     H 6881  12.637   7.919   3.474 -3.8390 -0.5182 -1.6522
  792MOL0     H 6882  12.672   8.018   3.610 -0.1842  0.7117  0.9122
  792MOL0     H 6883  12.548   7.908   3.634  0.3709 -1.1884  0.6398
  792MOL0     H 6884  12.903   8.494   3.276  0.6547 -0.3098  0.5481
  792MOL0     H 6885  13.127   8.519   3.231 -3.0748  0.3263  1.7972
  792MOL0     H 6886  13.462   8.262   3.057 -0.3824  0.2165 -1.7576
  792MOL0     H 6887  13.388   8.132   3.155  1.7787  1.6239  1.9766
  792MOL0     H 6888  13.191   8.154   2.954  0.1793  1.4370 -1.2797
  792MOL0     H 6889  13.304   8.248   2.878 -0.3318 -3.0118 -3.6696
  792MOL0     H 6890  13.336   7.947   2.966  2.4218 -0.3908 -0.6508
  792MOL0     H 6891  13.477   8.041   2.922  0.9866  1.7437 -3.6730
  792MOL0     H 6892  13.340   8.110   2.704  0.4734 -1.9452 -2.7977
  792MOL0     H 6893  13.423   7.955   2.719  1.4783  1.0982 -1.5127
  792MOL0     H 6894  13.124   7.991   2.774  0.6578  1.0545  0.9387
  792MOL0     H 6895  13.219   7.844   2.736  2.6082  0.6800 -0.2444
  792MOL0     H 6896  13.204   8.070   2.526  1.4660 -0.9307 -0.8377
  792MOL0     H 6897  13.257   7.899   2.525  1.7551 -1.0174  2.6074
  792MOL0     H 6898  12.963   7.967   2.602  2.9138 -0.9447  2.2077
  792MOL0     H 6899  13.041   7.807   2.572 -0.1218 -1.1796 -0.3850
  792MOL0     H 6900  13.080   7.910   2.327  0.7522  3.1118 -0.7158
  792MOL0     H 6901  12.993   8.045   2.387 -0.8287  0.5140 -2.0531
  792MOL0     H 6902  13.152   8.090   3.174  1.4779 -0.6423 -1.3625
  792MOL0     H 6903  12.909   8.081   3.192 -0.4826  0.5738 -2.3126
  792MOL0     H 6904  12.479   8.366   3.278 -0.7330  0.3671 -0.3997
  792MOL0     H 6905  12.249   8.326   3.327  0.2006  0.7721  1.4388
  792MOL0     H 6906  11.528   8.648   5.199 -0.4547  0.1849  0.3662
  792MOL0     H 6907  11.417   8.679   5.407  0.1325  0.2808 -0.4440
  792MOL0     H 6908  11.205   8.926   5.648 -1.0892  0.2367 -0.8854
  792MOL0     H 6909  11.140   9.008   5.853 -0.1233  0.4243  0.0962
  792MOL0     H 6910  11.084   9.034   6.051 -0.0518  2.3357  1.1197
  792MOL0     H 6911  10.931   9.130   6.020 -0.2816 -0.1851 -0.5199
  792MOL0     H 6912  10.965   8.921   6.247 -4.4107 -2.4814 -0.9488
  792MOL0     H 6913  10.829   9.022   6.226  0.0511 -0.9826 -0.2178
  792MOL0     H 6914  10.935   9.099   6.390 -1.4027 -1.2523 -0.7838
  792MOL0     H 6915  10.946   9.224   6.266 -0.5154 -0.5214 -2.7080
  792MOL0     H 6916  11.177   9.045   6.367  0.4435  0.3593  2.2578
  792MOL0     H 6917  11.148   9.209   6.436  0.8354  0.0879 -0.1201
  792MOL0     H 6918  11.302   9.251   6.027 -0.9107 -0.8257 -1.0101
  792MOL0     H 6919  10.813   8.728   5.859  0.3205  0.4510  1.2276
  792MOL0     H 6920  10.879   8.655   5.637 -1.8978 -0.7390  2.1557
  793MOL0     O 6921   1.613   2.738   3.089  0.4892 -0.4611 -0.0987
  793MOL0     C 6922   1.643   2.646   3.161 -0.4884  0.9271 -0.7386
  793MOL0     O 6923   1.750   2.629   3.241 -0.3673  0.4665  0.1083
  793MOL0     C 6924   1.824   2.740   3.278  0.1647  0.5951  0.2458
  793MOL0     C 6925   1.775   2.871   3.274 -0.2628 -0.0519 -0.6052
  793MOL0     C 6926   1.856   2.974   3.330  0.8756  0.5840  0.1325
  793MOL0     C 6927   1.977   2.947   3.382 -0.8868  0.0796 -0.1629
  793MOL0     O 6928   2.056   3.043   3.437 -0.1844  0.9835  0.2394
  793MOL0     C 6929   2.004   3.133   3.544 -0.3684 -0.8754  0.2027
  793MOL0     C 6930   1.983   3.045   3.669  0.0318 -0.1732  0.6904
  793MOL0     C 6931   2.109   2.971   3.725  1.0220 -0.0217  0.2079
  793MOL0     C 6932   2.098   2.865   3.835 -1.6926  0.8650 -0.0091
  793MOL0     C 6933   2.234   2.792   3.866  0.2674  0.1996 -0.5038
  793MOL0     C 6934   2.216   2.659   3.958  0.1548 -0.2115  0.0626
  793MOL0     C 6935   2.344   2.592   4.010  0.6066  0.7950 -0.4798
  793MOL0     C 6936   2.461   2.613   3.921  0.3671 -0.1328 -0.4848
  793MOL0     N 6937   2.571   2.525   3.938 -0.4721  0.8672  0.2760
  793MOL0     C 6938   2.655   2.514   4.047  0.5213  0.0541 -0.2128
  793MOL0     C 6939   2.761   2.441   4.014 -0.1879  0.9374  1.0338
  793MOL0     C 6940   2.875   2.397   4.104 -0.1262  1.1927  0.4201
  793MOL0     C 6941   2.897   2.239   4.112  1.9531 -0.1983  0.4261
  793MOL0     C 6942   2.933   2.165   3.982 -0.1400  0.1379 -0.2336
  793MOL0     C 6943   3.011   2.042   4.012 -0.2984  0.8740  0.3637
  793MOL0     O 6944   3.057   1.984   3.884  0.2562  0.5284 -1.5560
  793MOL0     C 6945   3.121   1.863   3.893 -1.2101  0.7628 -0.6413
  793MOL0     C 6946   3.127   1.779   3.783 -0.2938 -0.1448  1.0659
  793MOL0     C 6947   3.181   1.651   3.784 -0.2644  0.1164 -0.9720
  793MOL0     C 6948   3.157   1.559   3.666 -0.1841 -0.7235  0.5803
  793MOL0     C 6949   3.264   1.623   3.895  0.5469 -1.1833  0.2258
  793MOL0     C 6950   3.347   1.491   3.909  0.0428  0.1293 -0.3261
  793MOL0     O 6951   3.438   1.493   4.005  0.0848 -0.2029  0.7496
  793MOL0     C 6952   3.498   1.385   4.055  0.0294  0.2560  0.2840
  793MOL0     C 6953   3.620   1.412   4.103 -0.2046  0.3130  0.1100
  793MOL0     C 6954   3.706   1.306   4.157  0.6470  0.4616  0.2847
  793MOL0     C 6955   3.655   1.169   4.164  0.9557  0.0526 -0.0517
  793MOL0     O 6956   3.712   1.053   4.202 -0.0259  1.0377  0.1322
  793MOL0     C 6957   3.853   1.050   4.222 -0.4022 -1.4016 -0.2647
  793MOL0     C 6958   3.885   0.914   4.175 -0.0352 -0.9768  0.5924
  793MOL0     C 6959   3.833   0.799   4.261 -0.0573 -0.8779  0.0060
  793MOL0     C 6960   3.852   0.666   4.192 -0.2567 -0.3227  1.1554
  793MOL0     C 6961   3.786   0.556   4.277  0.0590  0.1776  0.5304
  793MOL0     C 6962   3.634   0.543   4.280  0.2899 -0.3229 -1.2596
  793MOL0     C 6963   3.606   0.402   4.327  0.0632 -0.6185  0.1081
  793MOL0     C 6964   3.458   0.384   4.321  0.4592  0.9706 -0.5778
  793MOL0    Cl 6965   3.414   0.371   4.146  0.1290 -0.4039 -0.2004
  793MOL0     C 6966   3.524   1.152   4.116  0.6529  0.4518 -0.1385
  793MOL0     C 6967   3.446   1.259   4.064 -0.7353  0.1453 -0.1907
  793MOL0     O 6968   3.327   1.393   3.836  0.5766 -0.2326  0.3100
  793MOL0     C 6969   3.270   1.703   4.008 -0.2964 -0.3777 -0.6730
  793MOL0     C 6970   3.196   1.816   4.012  0.6693 -0.9471  0.3375
  793MOL0     N 6971   2.736   2.392   3.883  0.2728  0.8507 -0.5080
  793MOL0     N 6972   2.624   2.437   3.848  0.3531  0.8117  0.9051
  793MOL0     C 6973   2.035   2.825   3.358  0.5596 -1.0729  0.0499
  793MOL0     C 6974   1.955   2.717   3.325  0.3868  0.6121 -0.4537
  793MOL0     C 6975   1.539   2.540   3.176 -0.8923 -0.4062 -0.9239
  793MOL0     C 6976   1.572   2.418   3.222 -0.5700  0.6681 -0.4811
  793MOL0     C 6977   1.488   2.309   3.208 -0.1568  0.1696  0.0092
  793MOL0     C 6978   1.356   2.323   3.167  0.2242  0.3531 -0.2883
  793MOL0     O 6979   1.282   2.206   3.144  0.0499 -0.4709 -0.7181
  793MOL0     C 6980   1.145   2.210   3.161  0.0323  0.5878 -0.2826
  793MOL0     C 6981   1.071   2.163   3.029 -0.5701  0.2452  0.2997
  793MOL0     C 6982   0.926   2.155   3.047 -0.1310 -0.1447 -0.0145
  793MOL0     C 6983   0.847   2.134   2.919  0.2867 -0.3766 -0.2054
  793MOL0     C 6984   0.707   2.151   2.953 -0.5514  0.9376  0.3221
  793MOL0     C 6985   0.592   2.165   2.997  0.0939  0.5770 -0.1098
  793MOL0     C 6986   1.318   2.453   3.128  0.3126 -0.2996  0.0681
  793MOL0     C 6987   1.409   2.555   3.134  0.5828  0.0265 -0.0192
  793MOL0     H 6988   1.676   2.903   3.243 -0.1955  0.6796 -0.0844
  793MOL0     H 6989   1.815   3.075   3.325  1.2211  0.7530  0.6232
  793MOL0     H 6990   2.068   3.215   3.577 -2.5904  0.7221  0.8136
  793MOL0     H 6991   1.918   3.187   3.503 -0.2460 -0.5661  0.3541
  793MOL0     H 6992   1.936   3.102   3.750 -0.8220  0.5566 -0.3070
  793MOL0     H 6993   1.910   2.968   3.644  0.1211  0.4762 -1.8186
  793MOL0     H 6994   2.165   2.942   3.636 -1.6305  2.6130 -2.5690
  793MOL0     H 6995   2.171   3.051   3.766  0.6554  0.0015  0.7248
  793MOL0     H 6996   2.057   2.907   3.927 -2.3782 -0.7550  0.4565
  793MOL0     H 6997   2.027   2.793   3.795 -1.4326 -0.6951  2.1467
  793MOL0     H 6998   2.270   2.765   3.767  0.0820  0.5134 -0.6583
  793MOL0     H 6999   2.310   2.861   3.904  1.1906 -1.1386  0.1624
  793MOL0     H 7000   2.157   2.683   4.047  1.9313  1.2638  0.9348
  793MOL0     H 7001   2.162   2.584   3.900 -0.9480  0.6679 -0.0766
  793MOL0     H 7002   2.377   2.626   4.109  4.2663  0.1814 -1.3390
  793MOL0     H 7003   2.315   2.490   4.035 -2.0883  2.4815  4.6322
  793MOL0     H 7004   2.502   2.713   3.940 -0.8296  0.1850  0.6744
  793MOL0     H 7005   2.421   2.602   3.820  0.1019  0.1227 -0.4080
  793MOL0     H 7006   2.656   2.570   4.140  1.3692  0.7840 -0.6498
  793MOL0     H 7007   2.964   2.443   4.061 -0.9948  1.4927 -1.1140
  793MOL0     H 7008   2.858   2.448   4.200 -0.5047  1.9102 -0.0179
  793MOL0     H 7009   2.798   2.204   4.144  1.2222  1.5705  0.2207
  793MOL0     H 7010   2.966   2.232   4.196  0.2840  3.7722  2.3820
  793MOL0     H 7011   3.000   2.229   3.924 -0.0419 -0.2289 -0.5262
  793MOL0     H 7012   2.844   2.139   3.923 -1.4623 -0.3809  1.8626
  793MOL0     H 7013   2.956   1.959   4.058  1.2489 -0.9574 -0.9050
  793MOL0     H 7014   3.093   2.070   4.079  0.0470 -1.3222  0.9318
  793MOL0     H 7015   3.063   1.813   3.702  1.8763 -0.8222 -1.0421
  793MOL0     H 7016   3.091   1.599   3.588  2.8521  1.5278 -1.0346
  793MOL0     H 7017   3.251   1.547   3.611  1.1772  0.1448  2.6128
  793MOL0     H 7018   3.124   1.464   3.710 -2.9358  0.3169  0.9874
  793MOL0     H 7019   3.650   1.514   4.128 -0.0478 -0.6980  5.1285
  793MOL0     H 7020   3.804   1.334   4.194  0.5835 -0.5993  1.2943
  793MOL0     H 7021   3.895   1.126   4.156  0.0087 -1.5773 -0.2103
  793MOL0     H 7022   3.878   1.069   4.327 -2.3117  1.0419 -0.1707
  793MOL0     H 7023   3.836   0.898   4.079 -2.2545 -2.0711  1.8224
  793MOL0     H 7024   3.994   0.907   4.178 -0.0150 -0.5461  3.0306
  793MOL0     H 7025   3.727   0.803   4.285 -0.2561 -0.1983 -0.9469
  793MOL0     H 7026   3.894   0.806   4.352  0.2812 -2.3194 -0.0903
  793MOL0     H 7027   3.801   0.665   4.095 -1.9103 -0.2590  1.9980
  793MOL0     H 7028   3.955   0.632   4.175 -1.6810 -3.6188 -2.5293
  793MOL0     H 7029   3.835   0.551   4.375  0.7265  0.8008  0.2339
  793MOL0     H 7030   3.807   0.465   4.220 -5.1801  0.4728 -2.5383
  793MOL0     H 7031   3.592   0.620   4.346  0.5006 -0.4304 -0.9962
  793MOL0     H 7032   3.592   0.566   4.182 -2.5637  2.1298  0.3531
  793MOL0     H 7033   3.634   0.400   4.432 -0.2938  3.4688  0.4522
  793MOL0     H 7034   3.648   0.320   4.268 -0.0126 -0.1894 -0.5486
  793MOL0     H 7035   3.394   0.457   4.371 -1.7982 -2.2423  1.6675
  793MOL0     H 7036   3.418   0.289   4.359 -0.3919  2.5181  2.7328
  793MOL0     H 7037   3.483   1.052   4.120  0.7872  0.3736 -0.6827
  793MOL0     H 7038   3.343   1.236   4.037 -1.7051  0.4460  2.8782
  793MOL0     H 7039   3.326   1.689   4.100 -1.6292 -1.1851  0.0442
  793MOL0     H 7040   3.192   1.868   4.107  2.7446 -0.9336  0.4519
  793MOL0     H 7041   2.139   2.805   3.382  0.6635 -1.7824 -0.9320
  793MOL0     H 7042   1.996   2.617   3.319 -1.5712 -0.2192 -1.0204
  793MOL0     H 7043   1.668   2.395   3.265 -0.8504  0.6694  0.1530
  793MOL0     H 7044   1.528   2.218   3.252  0.5424  1.3775  2.0192
  793MOL0     H 7045   1.120   2.142   3.243  0.8114  1.1122  0.3952
  793MOL0     H 7046   1.100   2.301   3.200 -0.2572  0.7100 -0.8960
  793MOL0     H 7047   1.096   2.059   3.005 -4.3455 -0.9827  0.9929
  793MOL0     H 7048   1.103   2.221   2.941  1.3143 -3.0541 -1.4016
  793MOL0     H 7049   0.903   2.249   3.097 -0.1282 -1.4388  2.6015
  793MOL0     H 7050   0.892   2.077   3.116 -0.3114  0.7743  0.9615
  793MOL0     H 7051   0.875   2.033   2.891 -0.3689 -1.9812  4.1314
  793MOL0     H 7052   0.877   2.204   2.841 -0.3420  0.9647  0.6959
  793MOL0     H 7053   0.493   2.176   3.037 -0.3662  0.1359 -1.0961
  793MOL0     H 7054   1.211   2.461   3.114  0.2285 -0.8296  0.3723
  793MOL0     H 7055   1.386   2.656   3.102 -1.7056 -0.4383  0.0047
  794MOL0     O 7056   3.618  10.265   6.562  0.8783  0.0841 -0.1452
  794MOL0     C 7057   3.617  10.227   6.449  0.2685 -0.0227 -0.3771
  794MOL0     O 7058   3.719  10.168   6.399  0.4278  0.2160 -0.3467
  794MOL0     C 7059   3.817  10.125   6.483  0.4603  0.9817 -0.2846
  794MOL0     C 7060   3.934  10.198   6.498  0.5384  0.2630  0.8259
  794MOL0     C 7061   4.038  10.142   6.565 -0.7087  1.5305 -0.0154
  794MOL0     C 7062   4.033  10.020   6.636 -0.4134  1.1851 -0.3188
  794MOL0     O 7063   4.138   9.980   6.715  0.0152 -0.0096 -0.6853
  794MOL0     C 7064   4.209   9.872   6.662 -0.2325 -0.4317  0.8797
  794MOL0     C 7065   4.358   9.893   6.638  0.2178 -0.2701  0.0259
  794MOL0     C 7066   4.389  10.008   6.537 -0.3772  0.0598  0.2045
  794MOL0     C 7067   4.531   9.979   6.477 -0.1943 -0.4433  0.7192
  794MOL0     C 7068   4.603  10.080   6.398 -0.7619  0.1880  0.1391
  794MOL0     C 7069   4.521  10.167   6.301 -1.2878 -0.0527 -0.0375
  794MOL0     C 7070   4.592  10.237   6.188 -0.0325 -0.0738 -0.1363
  794MOL0     C 7071   4.513  10.321   6.094 -0.3424  0.4370  1.5241
  794MOL0     N 7072   4.594  10.373   5.977  0.1162  0.0340  0.8946
  794MOL0     C 7073   4.600  10.507   5.934  0.2556  1.1651 -0.4084
  794MOL0     C 7074   4.622  10.492   5.802  0.1153  0.4749  0.5622
  794MOL0     C 7075   4.615  10.606   5.694 -0.4440  0.2963 -0.3880
  794MOL0     C 7076   4.469  10.635   5.682 -0.3180 -0.4026  0.6834
  794MOL0     C 7077   4.444  10.723   5.557  0.4231  0.6930 -0.3731
  794MOL0     C 7078   4.322  10.815   5.573  0.6657  0.1482  1.5677
  794MOL0     O 7079   4.328  10.914   5.469 -0.2134  0.3508  0.5675
  794MOL0     C 7080   4.304  11.039   5.514 -0.1626  0.2411 -0.1821
  794MOL0     C 7081   4.407  11.108   5.579  0.2444 -0.8836  0.3036
  794MOL0     C 7082   4.382  11.245   5.623  0.0780  0.2224  0.3636
  794MOL0     C 7083   4.500  11.315   5.692 -0.5652 -0.3085  0.3832
  794MOL0     C 7084   4.248  11.304   5.605 -1.0273 -0.0387 -0.2560
  794MOL0     C 7085   4.207  11.440   5.636 -0.1770 -0.7091 -0.2033
  794MOL0     O 7086   4.086  11.481   5.616 -0.4294  0.3668  0.2396
  794MOL0     C 7087   4.050  11.610   5.610  0.5930  0.4738  0.0151
  794MOL0     C 7088   4.128  11.711   5.558 -0.2398 -0.3398  0.0168
  794MOL0     C 7089   4.075  11.844   5.544  0.2908  0.6190 -0.0198
  794MOL0     C 7090   3.941  11.868   5.573  0.0742  0.4023 -0.1360
  794MOL0     O 7091   3.893  12.001   5.557  0.3356 -0.2144  0.5021
  794MOL0     C 7092   3.778  12.056   5.628 -0.6655  0.0366 -1.0865
  794MOL0     C 7093   3.800  12.077   5.777  0.2459 -0.4935  0.7195
  794MOL0     C 7094   3.940  12.096   5.826 -0.1460 -0.4481  1.5833
  794MOL0     C 7095   3.938  12.088   5.981 -0.4124 -0.3128 -0.2724
  794MOL0     C 7096   4.077  12.093   6.045  0.9557  0.3376  0.3305
  794MOL0     C 7097   4.115  11.967   6.124 -0.4346 -0.7881  0.5582
  794MOL0     C 7098   4.136  11.847   6.037 -0.2246  0.4899  1.0262
  794MOL0     C 7099   4.177  11.722   6.114 -0.5978 -0.5183 -0.6681
  794MOL0    Cl 7100   4.327  11.763   6.197 -0.1454 -0.0902  0.3368
  794MOL0     C 7101   3.863  11.764   5.624 -0.3715 -0.3895  0.4653
  794MOL0     C 7102   3.922  11.638   5.657  0.4247 -0.4517  0.2399
  794MOL0     O 7103   4.291  11.510   5.703  0.3880  0.0149 -0.5046
  794MOL0     C 7104   4.154  11.221   5.551  0.1518  0.9789 -0.2683
  794MOL0     C 7105   4.182  11.097   5.494 -0.1249 -0.3446  0.5661
  794MOL0     N 7106   4.636  10.362   5.767 -0.2890 -0.2176 -0.8864
  794MOL0     N 7107   4.619  10.283   5.872  0.0464  0.5649  0.4068
  794MOL0     C 7108   3.921   9.942   6.616  0.8214 -0.7768  0.3219
  794MOL0     C 7109   3.812   9.995   6.543  0.4083 -0.6087  0.2429
  794MOL0     C 7110   3.505  10.262   6.364  0.0777 -0.4844 -0.7028
  794MOL0     C 7111   3.458  10.171   6.268  0.8354 -0.6534  0.0751
  794MOL0     C 7112   3.342  10.196   6.204  0.3996 -0.1924  0.6435
  794MOL0     C 7113   3.255  10.308   6.228  0.1717 -0.3338  0.5679
  794MOL0     O 7114   3.132  10.314   6.164  0.3177  0.3089  0.3041
  794MOL0     C 7115   3.081  10.447   6.124 -0.3532  0.4032  0.3477
  794MOL0     C 7116   2.951  10.502   6.183  0.3865  1.0463 -0.5853
  794MOL0     C 7117   2.918  10.638   6.132 -0.1239 -0.0019  0.3888
  794MOL0     C 7118   2.794  10.708   6.195 -0.5200 -0.0510 -0.4407
  794MOL0     C 7119   2.754  10.811   6.101  0.0740 -0.3027  0.3133
  794MOL0     C 7120   2.730  10.917   6.049 -0.2323 -0.1713  0.4844
  794MOL0     C 7121   3.299  10.398   6.323 -0.4581 -0.4799  0.9657
  794MOL0     C 7122   3.429  10.374   6.376 -1.0116  0.3327 -1.0768
  794MOL0     H 7123   3.933  10.290   6.441  0.1079 -0.7256 -0.8260
  794MOL0     H 7124   4.133  10.195   6.566 -1.0694  2.2113 -0.9749
  794MOL0     H 7125   4.199   9.789   6.732 -1.7740  1.0244  2.5082
  794MOL0     H 7126   4.165   9.838   6.568  0.4854 -1.1958  0.8178
  794MOL0     H 7127   4.410   9.931   6.727 -0.2932 -3.8066  2.0051
  794MOL0     H 7128   4.406   9.800   6.606  2.5872  1.3752 -1.6087
  794MOL0     H 7129   4.311  10.010   6.460  0.2329 -2.5465 -0.5822
  794MOL0     H 7130   4.392  10.103   6.590 -1.4717 -0.3117  0.9756
  794MOL0     H 7131   4.601   9.953   6.557  2.6749  0.4080 -1.3388
  794MOL0     H 7132   4.519   9.889   6.415  0.6749 -0.6277  0.8110
  794MOL0     H 7133   4.643  10.144   6.478  0.3314 -3.3179  2.6808
  794MOL0     H 7134   4.687  10.038   6.341  0.3342  3.2205 -0.6541
  794MOL0     H 7135   4.444  10.103   6.259  0.1577 -2.4812  0.8006
  794MOL0     H 7136   4.466  10.236   6.365  1.0854  1.3746  0.6189
  794MOL0     H 7137   4.678  10.294   6.225  0.8629 -0.1062 -2.0530
  794MOL0     H 7138   4.629  10.157   6.123 -0.5361 -0.8748  0.5490
  794MOL0     H 7139   4.474  10.410   6.144 -0.4874  0.4348  1.4154
  794MOL0     H 7140   4.428  10.263   6.057 -1.2284  0.8816  2.8194
  794MOL0     H 7141   4.580  10.600   5.986  0.2433  1.7325 -1.3971
  794MOL0     H 7142   4.668  10.695   5.729 -1.1802  0.2880  0.7916
  794MOL0     H 7143   4.658  10.570   5.600  0.9846  0.5202  0.1512
  794MOL0     H 7144   4.430  10.691   5.767  2.0870  1.6553  0.5448
  794MOL0     H 7145   4.408  10.545   5.683  1.7597 -1.8932 -0.2730
  794MOL0     H 7146   4.435  10.660   5.468  0.6262 -2.1892  1.5345
  794MOL0     H 7147   4.529  10.793   5.550 -0.1947  1.3483 -1.8969
  794MOL0     H 7148   4.314  10.864   5.671  2.6066  0.7836  1.4500
  794MOL0     H 7149   4.231  10.757   5.558  2.3923 -3.1909  3.0123
  794MOL0     H 7150   4.491  11.046   5.609 -0.9513 -1.1713  3.5276
  794MOL0     H 7151   4.484  11.329   5.800 -0.8758  2.4948  0.0505
  794MOL0     H 7152   4.593  11.265   5.665 -0.9845  0.7799 -3.7586
  794MOL0     H 7153   4.513  11.419   5.661  2.4534 -0.2031  1.6340
  794MOL0     H 7154   4.232  11.692   5.533  1.0419  1.9413  3.0581
  794MOL0     H 7155   4.146  11.920   5.511  0.2468 -0.6783 -3.4664
  794MOL0     H 7156   3.757  12.152   5.581 -0.3977 -0.7040 -2.7872
  794MOL0     H 7157   3.690  11.994   5.613  0.6547 -2.3234  0.1792
  794MOL0     H 7158   3.728  12.150   5.816 -2.7321 -3.4489  1.2601
  794MOL0     H 7159   3.764  11.987   5.829 -0.7853  0.9773  2.6822
  794MOL0     H 7160   3.988  12.193   5.813 -1.8972  0.4992  1.8509
  794MOL0     H 7161   4.008  12.026   5.777 -1.6058 -0.7993 -0.0221
  794MOL0     H 7162   3.865  12.159   6.020 -0.3519  0.5332 -1.6493
  794MOL0     H 7163   3.886  11.994   6.003  0.9435 -0.7868  1.1235
  794MOL0     H 7164   4.067  12.172   6.120 -2.8326  2.4508 -2.0789
  794MOL0     H 7165   4.157  12.113   5.972  0.5255 -3.2694 -1.3428
  794MOL0     H 7166   4.188  11.987   6.203 -0.0673  1.1263 -0.2232
  794MOL0     H 7167   4.021  11.966   6.179 -0.0336  3.9863  1.7651
  794MOL0     H 7168   4.208  11.871   5.958 -0.9137 -0.0551  0.2231
  794MOL0     H 7169   4.043  11.818   5.988 -1.0616  3.0849  0.9350
  794MOL0     H 7170   4.182  11.639   6.042 -3.2327 -3.0891  1.8402
  794MOL0     H 7171   4.093  11.688   6.175 -2.0264  0.5026 -1.9984
  794MOL0     H 7172   3.761  11.777   5.659 -0.4488 -2.9063  1.4022
  794MOL0     H 7173   3.872  11.562   5.716  2.0975 -2.2474 -0.5630
  794MOL0     H 7174   4.052  11.255   5.535  0.5517  2.3345  0.0101
  794MOL0     H 7175   4.093  11.047   5.458 -1.3829  0.8426  1.8428
  794MOL0     H 7176   3.915   9.842   6.658 -1.2104 -1.1967 -0.8011
  794MOL0     H 7177   3.717   9.942   6.540 -0.5848  0.9439  2.2612
  794MOL0     H 7178   3.517  10.082   6.250  2.5517 -0.0239  2.1365
  794MOL0     H 7179   3.300  10.129   6.129  2.5959  1.4757 -2.2616
  794MOL0     H 7180   3.160  10.522   6.132  1.8982 -1.2600 -3.3910
  794MOL0     H 7181   3.058  10.448   6.017  0.4873 -0.5728  0.1483
  794MOL0     H 7182   2.965  10.489   6.290  2.0015  1.8838 -0.6655
  794MOL0     H 7183   2.862  10.443   6.156  0.9665 -0.2671  0.2658
  794MOL0     H 7184   2.914  10.629   6.023 -0.2283  2.3856  0.1399
  794MOL0     H 7185   3.007  10.702   6.143  0.9837 -0.8035 -2.8125
  794MOL0     H 7186   2.823  10.746   6.293 -1.7920 -2.4529  0.9493
  794MOL0     H 7187   2.703  10.649   6.208 -2.2713  2.2288 -1.5798
  794MOL0     H 7188   2.720  11.017   6.010 -4.4737 -0.5974  0.0283
  794MOL0     H 7189   3.238  10.485   6.347  0.0382  0.5239 -1.1433
  794MOL0     H 7190   3.475  10.448   6.442  1.6447 -1.6231 -0.5682
  795MOL0     O 7191  11.464   8.462   5.672  0.1595  0.3632 -0.1428
  795MOL0     C 7192  11.444   8.364   5.605  0.1624  0.6313 -0.3398
  795MOL0     O 7193  11.536   8.309   5.520  0.1746 -0.1108 -0.2585
  795MOL0     C 7194  11.658   8.370   5.506  0.2105  0.0401 -0.3312
  795MOL0     C 7195  11.748   8.360   5.615 -0.4479  0.2989 -0.0080
  795MOL0     C 7196  11.874   8.416   5.613 -0.0972  0.6913  0.2947
  795MOL0     C 7197  11.912   8.498   5.503  0.4627  0.0695  0.3578
  795MOL0     O 7198  12.037   8.549   5.496 -0.7752  0.2068 -0.3723
  795MOL0     C 7199  12.084   8.643   5.400 -0.3460  0.2607  0.8591
  795MOL0     C 7200  12.028   8.788   5.418 -0.7674  0.1985  0.7019
  795MOL0     C 7201  12.051   8.843   5.559 -0.3293  0.5496 -0.2941
  795MOL0     C 7202  12.197   8.870   5.591 -0.2719 -0.1864 -0.9972
  795MOL0     C 7203  12.210   8.931   5.733  0.0621  0.4973 -0.2309
  795MOL0     C 7204  12.212   8.819   5.842  0.7393 -0.5333 -0.6783
  795MOL0     C 7205  12.358   8.765   5.879  0.3032  0.2818  0.5647
  795MOL0     C 7206  12.362   8.688   6.015 -0.0698 -0.5605  0.1862
  795MOL0     N 7207  12.370   8.785   6.124 -0.1943 -0.1104 -0.2601
  795MOL0     C 7208  12.482   8.855   6.162 -0.3577 -0.8602 -0.2961
  795MOL0     C 7209  12.451   8.917   6.275 -0.3123 -0.6583 -0.5722
  795MOL0     C 7210  12.534   9.027   6.355  0.3420 -0.2157  0.1258
  795MOL0     C 7211  12.565   9.158   6.274 -0.0389 -0.2346 -0.3004
  795MOL0     C 7212  12.661   9.143   6.148  0.1621 -0.1112  0.0284
  795MOL0     C 7213  12.668   9.267   6.055  0.3807 -0.4547 -0.3750
  795MOL0     O 7214  12.739   9.237   5.928 -0.2878 -0.1259  1.1551
  795MOL0     C 7215  12.870   9.277   5.911  0.2651  0.3582 -0.3522
  795MOL0     C 7216  12.962   9.297   6.015  0.8595 -0.5196  0.6731
  795MOL0     C 7217  13.090   9.348   5.983  0.0284 -0.2244 -0.2186
  795MOL0     C 7218  13.183   9.374   6.098 -0.0652  0.7733  1.1947
  795MOL0     C 7219  13.132   9.357   5.845 -0.1334  0.0064 -0.1037
  795MOL0     C 7220  13.282   9.371   5.811  0.4099 -0.6866  0.2528
  795MOL0     O 7221  13.304   9.423   5.680  0.1509  0.1356 -0.2603
  795MOL0     C 7222  13.425   9.448   5.633  0.0631 -0.8004 -0.2653
  795MOL0     C 7223  13.471   9.419   5.504  0.3832 -0.1192 -0.6091
  795MOL0     C 7224  13.598   9.463   5.466  0.3392  0.1546  0.6895
  795MOL0     C 7225  13.684   9.536   5.540 -0.1029 -0.4321  0.4923
  795MOL0     O 7226  13.802   9.573   5.484 -0.2236  0.0301 -0.0710
  795MOL0     C 7227  13.843   9.710   5.490 -0.8825 -1.0193 -0.0196
  795MOL0     C 7228  13.966   9.719   5.384  0.6358  0.1291 -0.2539
  795MOL0     C 7229  14.034   9.859   5.411  0.3630 -0.1502  0.4021
  795MOL0     C 7230  14.160   9.869   5.315 -0.0968  0.0935 -0.1624
  795MOL0     C 7231  14.215  10.008   5.299  0.4458  0.2348 -0.2699
  795MOL0     C 7232  14.286  10.045   5.430  0.0213 -0.6516 -0.0129
  795MOL0     C 7233  14.325  10.190   5.445  0.5441 -0.1033 -0.3980
  795MOL0     C 7234  14.403  10.221   5.569  0.4902  0.2866 -1.3093
  795MOL0    Cl 7235  14.451  10.394   5.583 -0.4084  0.0707 -0.0332
  795MOL0     C 7236  13.628   9.578   5.661 -0.5319  0.4679 -1.0659
  795MOL0     C 7237  13.506   9.529   5.709 -0.9705 -0.0535  0.4544
  795MOL0     O 7238  13.374   9.351   5.890 -0.0971  0.2587 -0.2650
  795MOL0     C 7239  13.031   9.329   5.755 -0.6183  0.1838 -0.0672
  795MOL0     C 7240  12.908   9.289   5.783  1.3115 -0.3490  0.8691
  795MOL0     N 7241  12.320   8.899   6.307 -0.1166 -1.0117  0.0737
  795MOL0     N 7242  12.280   8.817   6.220 -0.3362 -0.3976  0.0929
  795MOL0     C 7243  11.811   8.519   5.399 -0.2098  0.5981 -0.3609
  795MOL0     C 7244  11.686   8.450   5.400 -0.4416 -0.0534  0.7563
  795MOL0     C 7245  11.311   8.297   5.617 -0.0433 -0.3439  0.8086
  795MOL0     C 7246  11.289   8.156   5.595 -0.1751  0.6939 -0.6021
  795MOL0     C 7247  11.171   8.091   5.613  0.7014  0.1336 -0.4660
  795MOL0     C 7248  11.061   8.156   5.654 -0.5254 -0.6139 -0.8210
  795MOL0     O 7249  10.944   8.081   5.653  0.1766  0.0079 -0.7730
  795MOL0     C 7250  10.825   8.140   5.709 -0.5032 -0.3574  0.7306
  795MOL0     C 7251  10.707   8.045   5.728  0.8187  0.2259 -0.0479
  795MOL0     C 7252  10.746   7.902   5.767 -0.1449  0.9395 -0.3125
  795MOL0     C 7253  10.622   7.813   5.743 -0.9806 -0.0859 -0.1515
  795MOL0     C 7254  10.662   7.676   5.752  0.6379  0.0979 -0.0021
  795MOL0     C 7255  10.694   7.559   5.770 -0.4878  0.6268 -0.7081
  795MOL0     C 7256  11.074   8.292   5.687  0.4868  0.3645  0.7858
  795MOL0     C 7257  11.188   8.362   5.659 -0.1605  0.1523  0.5638
  795MOL0     H 7258  11.711   8.290   5.689 -2.8948  1.2221 -0.2784
  795MOL0     H 7259  11.940   8.396   5.697 -0.2596  1.8629  0.7200
  795MOL0     H 7260  12.192   8.623   5.409  0.3913  3.4477  0.2492
  795MOL0     H 7261  12.061   8.610   5.299  2.0320 -1.5379  0.8197
  795MOL0     H 7262  12.082   8.861   5.356  1.2381 -0.5163  1.5128
  795MOL0     H 7263  11.923   8.796   5.389 -0.4044 -0.5005 -0.9231
  795MOL0     H 7264  12.000   8.939   5.566 -0.6530  0.3481  0.1795
  795MOL0     H 7265  12.000   8.788   5.638  2.3177  0.9121  1.7861
  795MOL0     H 7266  12.259   8.780   5.593 -2.0102 -1.4687 -1.5471
  795MOL0     H 7267  12.241   8.930   5.511 -0.4199  1.4836  0.1350
  795MOL0     H 7268  12.302   8.989   5.746  0.5283 -0.1137 -0.7083
  795MOL0     H 7269  12.129   9.001   5.752 -0.7959 -0.3827 -0.5818
  795MOL0     H 7270  12.155   8.849   5.930  0.7486  3.0515 -1.7321
  795MOL0     H 7271  12.158   8.733   5.801 -0.3804 -0.5921  0.8437
  795MOL0     H 7272  12.387   8.681   5.814 -0.0554  1.6658 -1.4847
  795MOL0     H 7273  12.439   8.837   5.870  1.2878 -1.0719 -3.4666
  795MOL0     H 7274  12.454   8.630   6.029 -0.5100 -1.1637  0.6253
  795MOL0     H 7275  12.278   8.618   6.025 -1.6207  1.3848  1.6107
  795MOL0     H 7276  12.565   8.869   6.094  1.2006 -1.1810  1.4846
  795MOL0     H 7277  12.480   9.044   6.448 -0.0211 -0.4125 -0.0464
  795MOL0     H 7278  12.624   8.983   6.400 -0.9867 -1.3742  1.7832
  795MOL0     H 7279  12.604   9.238   6.337 -2.1438  1.9887 -1.6251
  795MOL0     H 7280  12.470   9.202   6.241  0.0708 -0.2713 -0.6756
  795MOL0     H 7281  12.628   9.061   6.084  2.0548 -1.2163  0.3871
  795MOL0     H 7282  12.765   9.120   6.172  0.4191  0.2992 -0.6685
  795MOL0     H 7283  12.707   9.356   6.105 -0.6681  0.4159 -1.0678
  795MOL0     H 7284  12.570   9.298   6.019  0.3091 -1.2472 -0.8747
  795MOL0     H 7285  12.939   9.281   6.119 -1.4062  1.6079  0.5852
  795MOL0     H 7286  13.257   9.293   6.097  0.0009  0.8318 -0.8569
  795MOL0     H 7287  13.213   9.476   6.076  0.2162  0.1299 -1.7410
  795MOL0     H 7288  13.139   9.371   6.199  0.8610  2.1165  1.6616
  795MOL0     H 7289  13.400   9.364   5.443  0.3638 -0.7946  0.0074
  795MOL0     H 7290  13.631   9.432   5.367 -4.0273 -2.6412 -0.1512
  795MOL0     H 7291  13.754   9.769   5.465 -0.5903  1.7714  4.5131
  795MOL0     H 7292  13.881   9.745   5.586  2.7047 -1.0957 -1.2617
  795MOL0     H 7293  14.033   9.635   5.402  1.3106  0.8002  0.4572
  795MOL0     H 7294  13.927   9.719   5.282 -1.0512  0.7757  0.3374
  795MOL0     H 7295  14.076   9.873   5.511  1.4157 -2.6053  0.3624
  795MOL0     H 7296  13.964   9.943   5.405 -0.5824 -0.9092  0.5772
  795MOL0     H 7297  14.239   9.804   5.354  0.1437  0.1398 -0.5703
  795MOL0     H 7298  14.128   9.856   5.211 -2.1118 -1.1858  0.5533
  795MOL0     H 7299  14.126  10.072   5.300  1.0052  1.1109 -1.9223
  795MOL0     H 7300  14.285  10.026   5.216  1.3635 -1.2944  0.1284
  795MOL0     H 7301  14.225  10.018   5.517 -1.3027 -4.3038 -1.8866
  795MOL0     H 7302  14.387  10.004   5.441  0.3598  0.5049  1.5541
  795MOL0     H 7303  14.240  10.258   5.449  0.2662 -0.4195 -0.7623
  795MOL0     H 7304  14.395  10.209   5.363  0.2713  2.3462 -0.1294
  795MOL0     H 7305  14.494  10.159   5.568  0.6608  0.5387 -1.8272
  795MOL0     H 7306  14.353  10.204   5.665  2.2533  2.7913  0.1759
  795MOL0     H 7307  13.688   9.619   5.742 -1.4190 -1.7943  0.8448
  795MOL0     H 7308  13.492   9.565   5.811 -2.6324  0.9084 -0.0679
  795MOL0     H 7309  13.058   9.336   5.650 -0.3862 -0.5445 -0.0562
  795MOL0     H 7310  12.849   9.269   5.694  2.9116  0.3478 -0.3885
  795MOL0     H 7311  11.831   8.587   5.317 -0.7731  1.1655 -0.0441
  795MOL0     H 7312  11.623   8.458   5.312 -1.0033  0.0195  1.1552
  795MOL0     H 7313  11.371   8.097   5.556 -0.6410 -0.9540  0.7810
  795MOL0     H 7314  11.168   7.985   5.591  1.4488  0.1976 -0.9098
  795MOL0     H 7315  10.862   8.176   5.806 -1.6300 -0.9281  1.3854
  795MOL0     H 7316  10.791   8.222   5.645  1.0928  0.0394  0.3529
  795MOL0     H 7317  10.643   8.039   5.639 -0.9913 -0.6124  1.2551
  795MOL0     H 7318  10.640   8.085   5.804  0.6188  1.6976 -0.9509
  795MOL0     H 7319  10.775   7.909   5.872  0.5690  0.3498 -0.4562
  795MOL0     H 7320  10.832   7.855   5.720  0.4336  1.7687 -0.0969
  795MOL0     H 7321  10.586   7.818   5.640 -0.9514 -0.7713 -0.2005
  795MOL0     H 7322  10.540   7.825   5.814 -0.7084  0.3921  0.0832
  795MOL0     H 7323  10.716   7.458   5.796  0.4646  0.7628 -0.9545
  795MOL0     H 7324  10.985   8.348   5.716 -0.0814  0.9939 -1.8731
  795MOL0     H 7325  11.192   8.467   5.685 -0.5703 -0.6159  4.2452
  796MOL0     O 7326   7.371   1.992   0.334  0.0162  0.1642 -1.1965
  796MOL0     C 7327   7.339   2.036   0.442  0.2028 -0.1339 -0.3635
  796MOL0     O 7328   7.233   2.119   0.470  0.1238 -0.4578 -0.0285
  796MOL0     C 7329   7.122   2.151   0.383  0.2385  0.1323  0.2041
  796MOL0     C 7330   7.055   2.277   0.407 -0.0675 -1.1316  0.6090
  796MOL0     C 7331   6.952   2.317   0.327  0.3849 -0.0814  0.6398
  796MOL0     C 7332   6.889   2.236   0.229 -0.0238  0.3593 -0.7278
  796MOL0     O 7333   6.781   2.274   0.164  0.2655  0.0331  0.4255
  796MOL0     C 7334   6.746   2.220   0.027 -0.2295 -0.5201 -0.8373
  796MOL0     C 7335   6.651   2.098   0.022 -0.0913 -0.3292 -0.4973
  796MOL0     C 7336   6.571   2.102  -0.115  0.4252  0.7673 -0.4279
  796MOL0     C 7337   6.471   1.989  -0.131 -1.0047  0.3901 -0.5323
  796MOL0     C 7338   6.386   2.008  -0.252  0.1854  0.1846 -0.2340
  796MOL0     C 7339   6.282   1.900  -0.253  0.3098  0.5999 -0.5104
  796MOL0     C 7340   6.174   1.908  -0.363 -0.0954 -0.6974  0.2588
  796MOL0     C 7341   6.074   1.793  -0.346 -0.0826  0.2386  0.4677
  796MOL0     N 7342   5.959   1.795  -0.440 -0.6182  0.2985  0.3346
  796MOL0     C 7343   5.935   1.890  -0.538  0.6679  0.8977 -0.4379
  796MOL0     C 7344   5.814   1.869  -0.594 -0.5867  0.0527  0.4604
  796MOL0     C 7345   5.755   1.950  -0.703  0.6232 -0.5551 -0.4950
  796MOL0     C 7346   5.682   2.085  -0.674 -0.2328 -0.2943  0.5604
  796MOL0     C 7347   5.571   2.060  -0.573 -0.1426 -0.0053 -0.2271
  796MOL0     C 7348   5.489   2.188  -0.554  0.6587 -0.7572 -0.3171
  796MOL0     O 7349   5.417   2.210  -0.670  0.2677  0.6779 -1.0576
  796MOL0     C 7350   5.404   2.339  -0.709  0.4217  0.3372  0.4417
  796MOL0     C 7351   5.334   2.435  -0.641  0.1175 -0.4641 -0.6424
  796MOL0     C 7352   5.330   2.571  -0.678  0.6018 -0.8385 -0.2713
  796MOL0     C 7353   5.303   2.679  -0.569  1.0460  0.1797  0.4830
  796MOL0     C 7354   5.383   2.609  -0.805  0.4759 -0.2127  0.0084
  796MOL0     C 7355   5.382   2.749  -0.859  0.0357 -0.2110  0.4272
  796MOL0     O 7356   5.278   2.828  -0.818  0.0291 -0.0112 -0.0022
  796MOL0     C 7357   5.263   2.936  -0.893  0.2470 -0.4274 -0.5958
  796MOL0     C 7358   5.327   3.059  -0.856  0.0028  0.7983 -0.1845
  796MOL0     C 7359   5.292   3.178  -0.929 -0.8177  0.2120 -1.1438
  796MOL0     C 7360   5.197   3.170  -1.032  0.1932 -0.0014 -0.4958
  796MOL0     O 7361   5.165   3.285  -1.097 -0.8457  0.2852  0.3777
  796MOL0     C 7362   5.257   3.386  -1.111 -0.4946 -0.3216 -0.6498
  796MOL0     C 7363   5.196   3.518  -1.164  0.6747 -0.0150 -0.0585
  796MOL0     C 7364   5.236   3.543  -1.311 -0.8609 -0.3820 -0.5414
  796MOL0     C 7365   5.166   3.658  -1.374  0.4398 -0.5260  0.5476
  796MOL0     C 7366   5.157   3.642  -1.527 -0.4430 -0.0344 -0.3105
  796MOL0     C 7367   5.283   3.603  -1.603 -0.1991  1.1569  0.1111
  796MOL0     C 7368   5.373   3.721  -1.625  0.0187  0.7489 -0.3667
  796MOL0     C 7369   5.319   3.874  -1.633 -0.4223 -0.3580 -0.3691
  796MOL0    Cl 7370   5.412   3.992  -1.709 -0.2690 -1.1466  0.2618
  796MOL0     C 7371   5.142   3.053  -1.072  0.8654 -0.5446  0.3555
  796MOL0     C 7372   5.178   2.938  -1.012 -0.2022 -0.4862 -0.0414
  796MOL0     O 7373   5.464   2.781  -0.941 -0.0656  0.0815 -0.0597
  796MOL0     C 7374   5.450   2.509  -0.880  0.4185  0.6614 -0.0194
  796MOL0     C 7375   5.465   2.377  -0.833 -0.2342 -0.4409  0.1872
  796MOL0     N 7376   5.770   1.746  -0.544  0.3142 -0.1896 -0.6050
  796MOL0     N 7377   5.850   1.708  -0.440 -1.7290 -0.7773  0.3821
  796MOL0     C 7378   6.944   2.118   0.204 -0.4192 -0.2808  0.4250
  796MOL0     C 7379   7.060   2.078   0.276 -0.7136  0.2954  0.5744
  796MOL0     C 7380   7.432   2.017   0.560  0.5666  1.6494  0.1559
  796MOL0     C 7381   7.373   2.008   0.688  0.3366 -0.7187 -0.5738
  796MOL0     C 7382   7.464   2.007   0.798 -0.0973  0.8392  0.1102
  796MOL0     C 7383   7.602   2.003   0.777  0.3006 -0.0205 -0.2961
  796MOL0     O 7384   7.699   2.000   0.883 -0.5181  0.2068  0.4137
  796MOL0     C 7385   7.650   2.027   1.010  1.1887 -0.1629 -0.3902
  796MOL0     C 7386   7.762   2.032   1.109 -0.0484 -0.4928 -0.1556
  796MOL0     C 7387   7.869   2.133   1.079  0.5100  0.6503 -0.7559
  796MOL0     C 7388   7.810   2.268   1.051  0.5383  0.2264  0.2208
  796MOL0     C 7389   7.906   2.377   1.029 -0.1121  0.2039 -0.4695
  796MOL0     C 7390   7.990   2.466   1.019  0.1292 -0.1769 -0.8614
  796MOL0     C 7391   7.653   1.997   0.643 -0.0385 -0.7736  0.0428
  796MOL0     C 7392   7.571   1.996   0.532 -0.7114 -0.8713 -0.7308
  796MOL0     H 7393   7.086   2.337   0.492  1.6627 -1.4680  0.2505
  796MOL0     H 7394   6.904   2.413   0.342  1.7350  0.5376  1.1069
  796MOL0     H 7395   6.707   2.297  -0.040 -1.0695 -1.1706 -1.1117
  796MOL0     H 7396   6.837   2.190  -0.026 -0.3055 -2.0980 -0.1540
  796MOL0     H 7397   6.695   1.998   0.032  1.8004  0.6982  3.8440
  796MOL0     H 7398   6.572   2.099   0.098  0.7076  2.3703  0.4032
  796MOL0     H 7399   6.518   2.197  -0.123 -2.0470 -0.3535  1.4522
  796MOL0     H 7400   6.646   2.084  -0.193  1.4830 -0.6426  0.8332
  796MOL0     H 7401   6.539   1.903  -0.133  1.6847  2.3100  0.9893
  796MOL0     H 7402   6.411   1.976  -0.041 -1.6602 -1.0612 -1.1529
  796MOL0     H 7403   6.338   2.106  -0.248  0.9459  0.5267  1.4207
  796MOL0     H 7404   6.447   2.003  -0.343  2.5602 -2.2623  1.3581
  796MOL0     H 7405   6.342   1.809  -0.258  1.5332  1.3055  0.6805
  796MOL0     H 7406   6.231   1.883  -0.157  3.2810 -0.7705  0.9594
  796MOL0     H 7407   6.124   2.006  -0.364  1.4578  0.1372 -1.1959
  796MOL0     H 7408   6.226   1.897  -0.459  1.2881 -1.3114  1.0455
  796MOL0     H 7409   6.054   1.767  -0.242  0.2412 -5.5986 -0.5798
  796MOL0     H 7410   6.136   1.712  -0.385 -0.7401  0.2638 -0.7002
  796MOL0     H 7411   6.001   1.975  -0.559  1.8207  0.1064 -0.1259
  796MOL0     H 7412   5.826   1.960  -0.785 -0.5039 -2.1843 -1.7394
  796MOL0     H 7413   5.676   1.887  -0.744 -2.3386  3.4091 -1.5714
  796MOL0     H 7414   5.641   2.136  -0.761 -3.8970  0.0731  2.2968
  796MOL0     H 7415   5.753   2.155  -0.630  1.0712  0.1994 -2.1416
  796MOL0     H 7416   5.610   2.031  -0.476 -1.2359  2.2917  0.9684
  796MOL0     H 7417   5.503   1.979  -0.601 -0.6939  0.1185  0.7206
  796MOL0     H 7418   5.552   2.265  -0.509 -0.3043 -1.5026  2.5749
  796MOL0     H 7419   5.409   2.189  -0.479  2.9037 -0.1597  2.2252
  796MOL0     H 7420   5.297   2.394  -0.548 -1.0322  0.4678 -0.6727
  796MOL0     H 7421   5.217   2.734  -0.608  0.7598 -0.3643  0.3401
  796MOL0     H 7422   5.272   2.627  -0.478 -0.8313 -0.8960 -0.7042
  796MOL0     H 7423   5.395   2.732  -0.544  2.2151 -1.0450 -1.0180
  796MOL0     H 7424   5.397   3.056  -0.774 -1.2450 -0.4654  0.8929
  796MOL0     H 7425   5.339   3.264  -0.884 -2.0275  0.0710  0.5042
  796MOL0     H 7426   5.311   3.417  -1.021 -0.6783 -1.0505 -0.2856
  796MOL0     H 7427   5.329   3.339  -1.177 -1.9713 -1.8676 -1.2299
  796MOL0     H 7428   5.087   3.509  -1.159  0.7180 -1.2815 -0.9372
  796MOL0     H 7429   5.229   3.604  -1.105 -1.6768  3.2298 -3.0384
  796MOL0     H 7430   5.200   3.459  -1.371  2.6704 -1.7315 -1.0027
  796MOL0     H 7431   5.344   3.534  -1.319 -0.7829 -2.7783  1.5874
  796MOL0     H 7432   5.070   3.661  -1.323  1.1780 -1.0810  2.0165
  796MOL0     H 7433   5.229   3.744  -1.350 -2.5471  1.7466  0.7693
  796MOL0     H 7434   5.115   3.738  -1.560 -0.3544  0.7295  1.6257
  796MOL0     H 7435   5.081   3.565  -1.543 -0.5519  0.4923 -2.7026
  796MOL0     H 7436   5.348   3.534  -1.550  0.5567  1.4341 -0.4413
  796MOL0     H 7437   5.250   3.551  -1.693 -0.8660  1.9048 -0.0927
  796MOL0     H 7438   5.433   3.700  -1.714 -0.3666 -0.3016 -0.3933
  796MOL0     H 7439   5.433   3.737  -1.535  1.9220 -0.7445 -1.3064
  796MOL0     H 7440   5.301   3.914  -1.533 -1.6401  0.1031 -0.7568
  796MOL0     H 7441   5.219   3.872  -1.677 -1.3280 -2.6900  1.5345
  796MOL0     H 7442   5.068   3.068  -1.150 -0.2988  1.5435  1.7493
  796MOL0     H 7443   5.141   2.848  -1.060  0.9982 -0.0635 -1.8772
  796MOL0     H 7444   5.486   2.547  -0.975 -3.1339  0.3902 -1.6508
  796MOL0     H 7445   5.515   2.297  -0.886 -2.4019 -0.1739 -2.4584
  796MOL0     H 7446   6.897   2.049   0.134  0.0985 -0.4581  0.2472
  796MOL0     H 7447   7.104   1.980   0.256 -2.2481 -0.3610  0.3065
  796MOL0     H 7448   7.266   2.007   0.704  0.5227  1.1734  1.2008
  796MOL0     H 7449   7.415   2.010   0.894 -1.9547 -1.9582 -0.6275
  796MOL0     H 7450   7.583   2.113   1.013 -2.7784 -2.9066 -1.0186
  796MOL0     H 7451   7.580   1.946   1.035  0.7145  0.6157  0.9001
  796MOL0     H 7452   7.803   1.932   1.130  0.5412 -0.1229  0.4843
  796MOL0     H 7453   7.721   2.071   1.203  0.3772  1.1442 -0.6275
  796MOL0     H 7454   7.921   2.094   0.990 -0.0062 -2.3741  0.1448
  796MOL0     H 7455   7.938   2.149   1.162 -1.9983  1.6176  1.2631
  796MOL0     H 7456   7.751   2.307   1.135 -0.6413  0.6385 -0.7807
  796MOL0     H 7457   7.743   2.264   0.965  4.2477 -1.4094 -2.8587
  796MOL0     H 7458   8.049   2.548   0.983 -2.6661  1.1472 -2.8204
  796MOL0     H 7459   7.760   1.986   0.635  0.1579 -0.7561  2.1264
  796MOL0     H 7460   7.605   1.995   0.428 -3.9043 -2.3637 -1.8859
  797MOL0     O 7461   2.340   6.248   9.505  0.4550  0.5892  0.4980
  797MOL0     C 7462   2.378   6.324   9.417  0.1756 -0.4020 -0.9533
  797MOL0     O 7463   2.312   6.444   9.380  1.4470 -0.4427  0.0297
  797MOL0     C 7464   2.188   6.490   9.427 -0.1143  0.2703  0.2804
  797MOL0     C 7465   2.155   6.628   9.434 -0.9555 -0.0604  0.2158
  797MOL0     C 7466   2.041   6.684   9.489 -0.7534 -0.1374 -0.8810
  797MOL0     C 7467   1.938   6.598   9.525 -0.2441  0.6035 -0.2775
  797MOL0     O 7468   1.816   6.661   9.573  0.0747 -0.1723 -0.6034
  797MOL0     C 7469   1.729   6.577   9.654  1.1454  0.8363 -0.3846
  797MOL0     C 7470   1.622   6.656   9.725 -0.1365  0.4564 -0.4899
  797MOL0     C 7471   1.685   6.724   9.855 -1.0796  0.9118 -0.1068
  797MOL0     C 7472   1.591   6.807   9.935 -0.3679  0.2873 -0.1224
  797MOL0     C 7473   1.502   6.729  10.023  1.0000  0.3252 -0.0313
  797MOL0     C 7474   1.423   6.834  10.106 -0.7453  0.7986 -0.4888
  797MOL0     C 7475   1.315   6.766  10.197  0.5556  0.3497  0.2207
  797MOL0     C 7476   1.189   6.841  10.241  0.1848 -0.1482  0.0163
  797MOL0     N 7477   1.094   6.863  10.126 -0.2118  0.2297  0.1578
  797MOL0     C 7478   1.109   6.971  10.040 -0.3980  0.8572  0.9620
  797MOL0     C 7479   1.008   6.957   9.947 -0.0172  0.2273  0.0474
  797MOL0     C 7480   0.991   7.029   9.814 -0.8295  0.0917 -0.0394
  797MOL0     C 7481   0.877   7.131   9.815 -0.4548 -0.4377  0.1612
  797MOL0     C 7482   0.880   7.231   9.694 -0.0633 -0.5590 -0.3113
  797MOL0     C 7483   0.820   7.175   9.568  0.4163  1.1313 -0.2148
  797MOL0     O 7484   0.782   7.272   9.469  0.4520  0.1302  0.8963
  797MOL0     C 7485   0.681   7.361   9.501 -0.2356 -1.0469 -0.8279
  797MOL0     C 7486   0.690   7.488   9.455  0.3409 -0.3146  0.5678
  797MOL0     C 7487   0.593   7.590   9.478  0.4716  0.4405 -0.5491
  797MOL0     C 7488   0.612   7.728   9.411 -0.6420  0.5749 -0.3909
  797MOL0     C 7489   0.477   7.556   9.552  0.8514  0.2697  0.6953
  797MOL0     C 7490   0.359   7.650   9.556  0.0367 -0.0565 -0.3728
  797MOL0     O 7491   0.359   7.784   9.507 -0.1001 -0.3127  0.5216
  797MOL0     C 7492   0.240   7.844   9.493  0.4619 -0.0530 -0.0171
  797MOL0     C 7493   0.215   7.904   9.367  0.1377  0.1196 -0.7730
  797MOL0     C 7494   0.096   7.958   9.339  0.2165 -0.7845  0.1368
  797MOL0     C 7495  -0.008   7.966   9.425 -0.1424 -0.4633 -0.5872
  797MOL0     O 7496  -0.131   8.029   9.413 -0.4586  0.1777  0.4992
  797MOL0     C 7497  -0.139   8.133   9.310  0.5761 -0.8917  1.0851
  797MOL0     C 7498  -0.282   8.181   9.282 -0.3752  0.0158  0.7572
  797MOL0     C 7499  -0.326   8.163   9.133 -0.7073  1.0241  0.2819
  797MOL0     C 7500  -0.477   8.176   9.136  1.0487  0.8268 -1.0521
  797MOL0     C 7501  -0.538   8.152   9.010 -1.0141  0.5791  0.4109
  797MOL0     C 7502  -0.686   8.196   9.013 -0.3187  0.1429 -0.3470
  797MOL0     C 7503  -0.744   8.176   8.870  0.7127  0.2999 -0.0319
  797MOL0     C 7504  -0.884   8.239   8.866 -1.3525  0.3954  0.8195
  797MOL0    Cl 7505  -0.962   8.233   8.708  0.3325 -0.0548  0.1167
  797MOL0     C 7506   0.014   7.909   9.552 -0.0341  0.0013  0.2906
  797MOL0     C 7507   0.126   7.845   9.584 -0.4284  0.1497 -0.1607
  797MOL0     O 7508   0.259   7.596   9.604 -0.9641 -0.3622  0.6290
  797MOL0     C 7509   0.458   7.417   9.588  0.4640 -0.6029 -0.6074
  797MOL0     C 7510   0.566   7.332   9.572 -0.0313 -0.5034  0.9752
  797MOL0     N 7511   0.934   6.852   9.974 -0.1568 -0.3860  0.1351
  797MOL0     N 7512   0.980   6.795  10.084  0.7813  0.0514 -0.3273
  797MOL0     C 7513   1.959   6.459   9.508  0.3167 -0.7321 -0.0599
  797MOL0     C 7514   2.083   6.407   9.460  0.0768 -0.1529 -0.6327
  797MOL0     C 7515   2.515   6.306   9.356  1.0826  0.0054  0.3513
  797MOL0     C 7516   2.567   6.401   9.281 -0.3864 -0.7055  1.0504
  797MOL0     C 7517   2.688   6.391   9.229 -0.4167  0.3468  0.8437
  797MOL0     C 7518   2.772   6.285   9.262  0.1841 -0.1039  0.2724
  797MOL0     O 7519   2.901   6.268   9.218 -0.0478 -0.0626 -0.0653
  797MOL0     C 7520   2.964   6.363   9.129  0.2611  1.3646  0.7657
  797MOL0     C 7521   3.105   6.336   9.119 -0.5567 -0.4508 -0.4652
  797MOL0     C 7522   3.133   6.219   9.021 -0.4224 -0.2468  0.4651
  797MOL0     C 7523   3.276   6.165   9.022 -0.1819 -0.2029 -0.1399
  797MOL0     C 7524   3.351   6.149   9.147  0.3875  1.1179 -0.2629
  797MOL0     C 7525   3.417   6.104   9.243 -0.0285 -1.1300 -0.3841
  797MOL0     C 7526   2.724   6.188   9.351  0.2723 -1.1026 -0.2031
  797MOL0     C 7527   2.588   6.193   9.389  0.1442  0.1263 -0.8825
  797MOL0     H 7528   2.223   6.699   9.387  3.1616 -3.6596  0.0105
  797MOL0     H 7529   2.011   6.788   9.482 -2.3837 -0.2149  2.7344
  797MOL0     H 7530   1.687   6.497   9.593 -1.3027 -2.8227  5.2775
  797MOL0     H 7531   1.778   6.515   9.729 -0.5010 -0.7970 -0.5983
  797MOL0     H 7532   1.591   6.738   9.659  0.5514  0.7957 -0.4048
  797MOL0     H 7533   1.533   6.598   9.750  0.2673 -0.3013 -0.8005
  797MOL0     H 7534   1.722   6.643   9.919  0.5109  0.6127 -1.3341
  797MOL0     H 7535   1.772   6.782   9.823  0.8328 -2.5848 -1.7603
  797MOL0     H 7536   1.650   6.882   9.989  0.3453  0.0825 -0.6012
  797MOL0     H 7537   1.526   6.869   9.873 -0.7856 -0.5150 -0.4967
  797MOL0     H 7538   1.430   6.667   9.969  0.9143  0.1947  0.2284
  797MOL0     H 7539   1.560   6.669  10.095  1.5263  4.4319  3.3386
  797MOL0     H 7540   1.492   6.895  10.164  0.3032  3.0706 -3.8182
  797MOL0     H 7541   1.380   6.905  10.035  1.0336  3.1600  0.6624
  797MOL0     H 7542   1.272   6.691  10.130 -0.0647  0.0611  0.9362
  797MOL0     H 7543   1.364   6.731  10.288  0.2693 -0.2388  0.1497
  797MOL0     H 7544   1.225   6.935  10.283  1.0209 -0.2176 -0.5135
  797MOL0     H 7545   1.140   6.783  10.319 -2.2466  1.2086 -0.3913
  797MOL0     H 7546   1.188   7.045  10.028  0.8974 -0.8196 -2.1240
  797MOL0     H 7547   1.086   7.078   9.792 -0.8360  1.1777  2.0975
  797MOL0     H 7548   0.977   6.950   9.739 -0.6661  0.2300 -0.2177
  797MOL0     H 7549   0.887   7.178   9.913  4.3124 -1.0286  0.2278
  797MOL0     H 7550   0.789   7.068   9.803  1.6847 -3.2019 -2.8468
  797MOL0     H 7551   0.979   7.273   9.675  0.5534  0.0100  3.3637
  797MOL0     H 7552   0.821   7.319   9.723  0.1335 -0.3238 -0.6173
  797MOL0     H 7553   0.728   7.122   9.594 -0.0691  1.1777 -1.7433
  797MOL0     H 7554   0.887   7.099   9.526 -1.0904  0.8335 -2.1963
  797MOL0     H 7555   0.771   7.517   9.388  0.7472 -0.1003  1.1473
  797MOL0     H 7556   0.592   7.815   9.475  0.8835  0.8003 -0.1818
  797MOL0     H 7557   0.715   7.727   9.374 -0.2639 -3.6903  0.2622
  797MOL0     H 7558   0.547   7.728   9.324 -0.1423 -1.4684 -0.8113
  797MOL0     H 7559   0.287   7.915   9.287  0.3329  0.8390 -0.5047
  797MOL0     H 7560   0.081   7.991   9.237 -3.4937 -0.2602  0.7140
  797MOL0     H 7561  -0.100   8.221   9.361 -5.1288  1.9311  1.3098
  797MOL0     H 7562  -0.085   8.111   9.217 -0.6623 -1.6029  0.5147
  797MOL0     H 7563  -0.342   8.123   9.353 -1.8812 -1.8033 -1.8088
  797MOL0     H 7564  -0.300   8.286   9.306 -0.8962  0.3374 -0.8939
  797MOL0     H 7565  -0.271   8.075   9.096  2.4254  2.7563  0.4802
  797MOL0     H 7566  -0.273   8.236   9.072 -0.7314 -1.1445 -2.5675
  797MOL0     H 7567  -0.527   8.109   9.206 -1.8542  3.2291 -0.5762
  797MOL0     H 7568  -0.506   8.274   9.175  2.6731  0.6362  0.7552
  797MOL0     H 7569  -0.540   8.046   8.983  1.2222  0.7642 -0.6818
  797MOL0     H 7570  -0.483   8.215   8.939 -1.1518 -0.2154 -0.4162
  797MOL0     H 7571  -0.744   8.141   9.087  1.8071  0.9894  2.1007
  797MOL0     H 7572  -0.702   8.300   9.045  0.4122  0.4943 -1.0732
  797MOL0     H 7573  -0.758   8.071   8.842 -1.1042  0.5701 -0.3001
  797MOL0     H 7574  -0.678   8.215   8.792 -1.1023 -1.9761 -2.9417
  797MOL0     H 7575  -0.866   8.341   8.902  1.7945 -0.8863  3.3458
  797MOL0     H 7576  -0.932   8.194   8.954  0.3355 -0.3175  1.4247
  797MOL0     H 7577  -0.068   7.901   9.623  1.4842 -3.1570  1.9356
  797MOL0     H 7578   0.124   7.805   9.685  2.5798 -0.0957 -0.0897
  797MOL0     H 7579   0.370   7.373   9.633  0.9740 -0.5162  0.4964
  797MOL0     H 7580   0.552   7.226   9.590  2.0992 -0.9680  0.2302
  797MOL0     H 7581   1.878   6.391   9.531 -0.5736  0.0939 -0.6590
  797MOL0     H 7582   2.088   6.299   9.463 -1.5024 -0.3232 -2.6181
  797MOL0     H 7583   2.512   6.493   9.261  1.3805  0.0032 -0.9041
  797MOL0     H 7584   2.718   6.477   9.169  1.5484 -1.4701 -0.9807
  797MOL0     H 7585   2.931   6.350   9.025  5.3816  2.0945 -1.2742
  797MOL0     H 7586   2.953   6.468   9.159  4.5550  0.9614  5.0918
  797MOL0     H 7587   3.143   6.312   9.219 -0.7042 -1.1483 -0.5679
  797MOL0     H 7588   3.158   6.425   9.085  3.5134 -2.0740  0.9228
  797MOL0     H 7589   3.105   6.249   8.919  0.4452  2.2357  0.8956
  797MOL0     H 7590   3.062   6.140   9.046 -1.9046  1.2035  1.0296
  797MOL0     H 7591   3.337   6.234   8.964  1.9576 -0.5766  1.5139
  797MOL0     H 7592   3.257   6.067   8.977  0.6110 -1.4468  2.0484
  797MOL0     H 7593   3.476   6.060   9.321  1.1634 -1.8020 -1.6231
  797MOL0     H 7594   2.779   6.096   9.372  4.2050  0.4762 -2.4360
  797MOL0     H 7595   2.544   6.110   9.443  0.5710  0.9453  0.7679
  798MOL0     O 7596   3.649   9.312   8.786 -0.2250  0.8448 -0.5660
  798MOL0     C 7597   3.541   9.345   8.733 -0.2464  0.6450 -0.2620
  798MOL0     O 7598   3.413   9.325   8.792  0.3272 -0.5650  0.2403
  798MOL0     C 7599   3.411   9.296   8.928  0.2652 -0.4995  1.2691
  798MOL0     C 7600   3.391   9.171   8.981  0.7128  0.7185  0.5026
  798MOL0     C 7601   3.388   9.156   9.117  0.2068  0.0787  0.4390
  798MOL0     C 7602   3.403   9.263   9.208  0.4008  0.2437 -0.5708
  798MOL0     O 7603   3.399   9.261   9.339 -0.1648 -0.4093 -0.4255
  798MOL0     C 7604   3.406   9.136   9.400  0.6311  0.0776 -0.7686
  798MOL0     C 7605   3.441   9.159   9.549  0.7636  0.6386  0.3720
  798MOL0     C 7606   3.447   9.032   9.633  0.0570  0.1103  0.3738
  798MOL0     C 7607   3.313   8.984   9.683  0.0086 -0.4884 -0.6574
  798MOL0     C 7608   3.313   8.835   9.721 -0.2296  0.6243 -0.2086
  798MOL0     C 7609   3.191   8.764   9.792 -0.6578 -0.3763 -0.3063
  798MOL0     C 7610   3.210   8.618   9.816  1.1354  0.7398  1.2700
  798MOL0     C 7611   3.320   8.574   9.911 -0.2457 -0.7932  0.3870
  798MOL0     N 7612   3.307   8.639  10.043  0.4290  0.0048  0.8616
  798MOL0     C 7613   3.198   8.611  10.124 -0.4353  1.1207  0.9449
  798MOL0     C 7614   3.205   8.704  10.220 -0.0069 -0.6797  1.0043
  798MOL0     C 7615   3.096   8.725  10.312  0.3282  0.0371 -0.2885
  798MOL0     C 7616   3.049   8.603  10.388  0.2679  0.4148 -0.4335
  798MOL0     C 7617   2.968   8.642  10.511  0.1811 -0.3299  0.4583
  798MOL0     C 7618   2.857   8.747  10.488  0.5537 -0.7986 -0.5918
  798MOL0     O 7619   2.777   8.771  10.605 -0.3851  0.0389 -0.2389
  798MOL0     C 7620   2.642   8.803  10.604 -0.8476  0.3040 -0.1374
  798MOL0     C 7621   2.587   8.819  10.724 -0.3556 -0.0892 -0.2749
  798MOL0     C 7622   2.448   8.838  10.749  0.2538  0.6189 -0.5939
  798MOL0     C 7623   2.411   8.858  10.892  0.8816 -0.0329  0.8489
  798MOL0     C 7624   2.365   8.861  10.640  0.9080  0.7489 -1.0700
  798MOL0     C 7625   2.218   8.896  10.642  1.1801  0.4201  0.0788
  798MOL0     O 7626   2.155   8.925  10.516  0.2870 -0.5348  0.1489
  798MOL0     C 7627   2.018   8.957  10.505 -0.1479  0.0743 -1.1386
  798MOL0     C 7628   1.977   9.035  10.402 -0.9274 -0.5281  0.1757
  798MOL0     C 7629   1.850   9.079  10.397 -0.0021 -0.1550 -0.3648
  798MOL0     C 7630   1.755   9.061  10.499 -0.3180  0.4682 -0.0304
  798MOL0     O 7631   1.633   9.118  10.503 -0.1027  0.0943  0.4601
  798MOL0     C 7632   1.628   9.252  10.462  0.3095 -0.5308 -0.5347
  798MOL0     C 7633   1.488   9.306  10.451 -0.4216  0.0341  0.4733
  798MOL0     C 7634   1.480   9.447  10.412 -0.5166  0.0465  0.9465
  798MOL0     C 7635   1.364   9.533  10.465 -0.4046 -0.4005 -0.3078
  798MOL0     C 7636   1.230   9.458  10.446 -0.5326 -0.6233 -0.3987
  798MOL0     C 7637   1.112   9.545  10.492  0.1524  0.1124  0.1485
  798MOL0     C 7638   0.979   9.480  10.465  0.0079  0.9967  0.8812
  798MOL0     C 7639   0.865   9.566  10.496 -0.3872  0.6140  0.4806
  798MOL0    Cl 7640   0.728   9.514  10.395  0.3989  0.1970 -0.2881
  798MOL0     C 7641   1.792   8.966  10.595  0.0472 -0.0790 -0.5080
  798MOL0     C 7642   1.920   8.912  10.600  0.1752  0.1298 -0.2223
  798MOL0     O 7643   2.165   8.906  10.753  0.0992  0.1463  0.1929
  798MOL0     C 7644   2.428   8.848  10.517 -0.2979 -1.0106 -0.3137
  798MOL0     C 7645   2.564   8.813  10.493  0.3925 -0.1928  0.0223
  798MOL0     N 7646   3.327   8.776  10.205  0.3236 -0.8318 -0.2532
  798MOL0     N 7647   3.380   8.744  10.095  0.1614 -0.0710  0.3033
  798MOL0     C 7648   3.426   9.391   9.160 -0.1487 -0.8960 -0.0167
  798MOL0     C 7649   3.425   9.405   9.018  0.4524 -0.1047 -0.5121
  798MOL0     C 7650   3.553   9.400   8.595  0.0909 -0.2802 -1.4027
  798MOL0     C 7651   3.682   9.428   8.545 -0.0968  0.6190 -0.2853
  798MOL0     C 7652   3.698   9.467   8.414 -1.5050  0.0804 -0.8062
  798MOL0     C 7653   3.593   9.481   8.328 -0.4332 -2.3541  0.7613
  798MOL0     O 7654   3.616   9.517   8.193  0.2436  0.3344  0.0238
  798MOL0     C 7655   3.643   9.400   8.113 -0.0413 -0.4199  0.1235
  798MOL0     C 7656   3.776   9.419   8.036  0.5593 -0.3619  0.3228
  798MOL0     C 7657   3.784   9.514   7.910 -0.3047 -0.1804 -0.4427
  798MOL0     C 7658   3.717   9.647   7.926  0.5787 -0.2424  1.9524
  798MOL0     C 7659   3.724   9.715   7.794  0.1047  0.1790  0.3450
  798MOL0     C 7660   3.737   9.761   7.682 -1.2570 -0.6374 -0.7686
  798MOL0     C 7661   3.474   9.447   8.376  1.0983  0.8282  0.8727
  798MOL0     C 7662   3.453   9.413   8.511  0.6070 -0.3184 -0.1196
  798MOL0     H 7663   3.369   9.090   8.913  1.0110  0.7664  0.3470
  798MOL0     H 7664   3.374   9.058   9.162 -2.5599  0.5339  0.7651
  798MOL0     H 7665   3.317   9.075   9.382  0.8692 -0.8667  1.0174
  798MOL0     H 7666   3.493   9.083   9.359  0.2802 -0.7077 -0.5211
  798MOL0     H 7667   3.541   9.202   9.553  1.6224 -1.1154 -0.7401
  798MOL0     H 7668   3.366   9.220   9.600  0.8481  0.7089  0.4108
  798MOL0     H 7669   3.487   8.949   9.574 -0.5401  0.6032 -0.7488
  798MOL0     H 7670   3.512   9.048   9.720  1.1415  0.7457 -0.5201
  798MOL0     H 7671   3.297   9.056   9.764  4.5752  0.9444 -0.7634
  798MOL0     H 7672   3.239   8.995   9.603  1.0716  2.5777 -1.3563
  798MOL0     H 7673   3.314   8.780   9.627 -2.2207 -0.1562  0.1676
  798MOL0     H 7674   3.402   8.806   9.778  0.1847 -0.1217 -1.2004
  798MOL0     H 7675   3.182   8.817   9.887 -4.5826  2.1261 -1.8495
  798MOL0     H 7676   3.095   8.774   9.741 -1.4717 -1.0156  1.0396
  798MOL0     H 7677   3.108   8.587   9.842 -0.0343  0.9608 -2.4264
  798MOL0     H 7678   3.232   8.563   9.724  1.3971  0.7027  1.3538
  798MOL0     H 7679   3.414   8.608   9.867 -0.4708 -1.4190 -0.6075
  798MOL0     H 7680   3.318   8.465   9.915  0.9435 -0.9246 -1.5154
  798MOL0     H 7681   3.115   8.546  10.097  0.2296  1.3006 -1.7884
  798MOL0     H 7682   3.126   8.800  10.385 -0.6745  0.8927 -0.7320
  798MOL0     H 7683   3.013   8.771  10.257  0.0640 -0.7788 -0.5882
  798MOL0     H 7684   3.134   8.550  10.432  0.4767  0.4387 -0.7949
  798MOL0     H 7685   2.989   8.548  10.315  0.4394  0.6155 -0.7285
  798MOL0     H 7686   3.044   8.671  10.584 -1.8791 -1.8361  3.3784
  798MOL0     H 7687   2.917   8.551  10.545  0.2243 -0.3910  0.3618
  798MOL0     H 7688   2.794   8.701  10.411  0.4893 -0.1736 -0.9185
  798MOL0     H 7689   2.895   8.839  10.443  0.5401 -0.1103  0.7351
  798MOL0     H 7690   2.669   8.823  10.795  0.5492 -0.8648 -1.2354
  798MOL0     H 7691   2.496   8.829  10.954  0.2827  0.2557  1.8145
  798MOL0     H 7692   2.394   8.966  10.901  0.5048 -0.0678  0.5797
  798MOL0     H 7693   2.322   8.807  10.930  1.8654 -1.2322  1.6248
  798MOL0     H 7694   2.050   9.058  10.324 -0.5487 -1.2333  0.3104
  798MOL0     H 7695   1.836   9.148  10.314  2.5858 -1.0082 -1.6139
  798MOL0     H 7696   1.686   9.315  10.530 -2.2168  1.3745 -0.0096
  798MOL0     H 7697   1.665   9.262  10.360 -0.1071 -2.7010 -0.9374
  798MOL0     H 7698   1.442   9.245  10.373 -3.3950  0.2748  1.9034
  798MOL0     H 7699   1.440   9.291  10.548  0.5917 -2.0318  0.7123
  798MOL0     H 7700   1.477   9.445  10.303  1.1415 -0.5371  0.8826
  798MOL0     H 7701   1.576   9.500  10.423  0.6479 -1.3473 -1.5887
  798MOL0     H 7702   1.382   9.551  10.572  2.3743  0.9826 -0.9207
  798MOL0     H 7703   1.353   9.632  10.421  3.2893  1.4983  2.4967
  798MOL0     H 7704   1.226   9.368  10.508  0.0446  0.4447  1.2685
  798MOL0     H 7705   1.229   9.432  10.340 -0.5722  2.0811 -1.1494
  798MOL0     H 7706   1.116   9.582  10.595  1.4790  2.6888 -0.7299
  798MOL0     H 7707   1.106   9.640  10.439 -4.0198 -0.0496  0.0344
  798MOL0     H 7708   0.957   9.386  10.517 -0.4704 -0.2832 -1.5084
  798MOL0     H 7709   0.972   9.471  10.357 -0.2883  0.0071  0.9757
  798MOL0     H 7710   0.881   9.669  10.462 -2.6787  1.8369  2.8275
  798MOL0     H 7711   0.835   9.579  10.600 -0.8687  0.3852  0.3718
  798MOL0     H 7712   1.709   8.939  10.658 -1.8210  0.9015 -2.4026
  798MOL0     H 7713   1.943   8.834  10.672  3.7836 -0.1210 -1.4247
  798MOL0     H 7714   2.360   8.878  10.437  0.7125  2.0287 -0.1750
  798MOL0     H 7715   2.582   8.788  10.389 -2.3576  1.9610 -1.1041
  798MOL0     H 7716   3.451   9.478   9.220  0.6314 -0.7339 -0.5614
  798MOL0     H 7717   3.447   9.506   8.987  1.3668 -0.7179 -1.9735
  798MOL0     H 7718   3.764   9.400   8.611 -1.3918 -2.0015  0.3249
  798MOL0     H 7719   3.795   9.481   8.369 -0.8078  1.0018  0.8853
  798MOL0     H 7720   3.654   9.310   8.175  1.3743 -0.9782 -0.8810
  798MOL0     H 7721   3.562   9.380   8.043  0.5180 -1.5924 -0.2319
  798MOL0     H 7722   3.815   9.320   8.010 -0.1738 -0.8969  1.2179
  798MOL0     H 7723   3.839   9.458   8.117 -1.8733 -2.9469  3.7660
  798MOL0     H 7724   3.758   9.454   7.822 -1.0185 -1.0470  0.3324
  798MOL0     H 7725   3.892   9.529   7.898  1.1475 -4.6185  3.7258
  798MOL0     H 7726   3.770   9.717   7.992  1.5629  1.9590 -0.9796
  798MOL0     H 7727   3.613   9.649   7.960 -0.2107  2.1806 -0.2610
  798MOL0     H 7728   3.754   9.801   7.584  1.1192  3.2082  1.0145
  798MOL0     H 7729   3.393   9.454   8.303  2.6868 -2.1641 -1.4053
  798MOL0     H 7730   3.354   9.389   8.547  0.9893 -3.8357 -1.0620
  799MOL0     O 7731  11.225   6.580   3.562  0.1019 -0.4776 -0.3631
  799MOL0     C 7732  11.201   6.564   3.682  0.0083 -0.4392  0.1545
  799MOL0     O 7733  11.099   6.492   3.734 -0.4946 -0.1317  0.4765
  799MOL0     C 7734  10.993   6.455   3.666  0.4393 -0.1667  0.5782
  799MOL0     C 7735  10.860   6.469   3.709 -0.1804 -0.5747 -0.6705
  799MOL0     C 7736  10.749   6.434   3.624  0.1110 -0.9864 -0.1561
  799MOL0     C 7737  10.778   6.375   3.495 -0.6686 -0.9966 -0.7936
  799MOL0     O 7738  10.677   6.357   3.402  0.3501 -0.1984  0.2261
  799MOL0     C 7739  10.548   6.410   3.427 -0.2855  0.2082 -0.3955
  799MOL0     C 7740  10.457   6.356   3.321  0.8475  0.1242  0.6478
  799MOL0     C 7741  10.316   6.426   3.300 -0.9087  0.5295 -0.1100
  799MOL0     C 7742  10.249   6.353   3.187  0.3921  0.5210  0.6288
  799MOL0     C 7743  10.107   6.401   3.169 -0.5262 -0.3372 -0.4995
  799MOL0     C 7744  10.023   6.345   3.054 -0.1890 -0.0633 -0.1276
  799MOL0     C 7745  10.011   6.197   3.037 -0.4995 -0.2178 -0.7068
  799MOL0     C 7746   9.915   6.119   3.145  0.2667  0.5897  0.0205
  799MOL0     N 7747   9.936   6.151   3.289 -0.1981 -0.3729  0.0616
  799MOL0     C 7748  10.048   6.129   3.361  0.0572  0.0748 -0.6780
  799MOL0     C 7749  10.023   6.155   3.491 -0.1265 -0.4416 -0.3602
  799MOL0     C 7750  10.121   6.152   3.613 -0.3984 -0.0381 -0.1217
  799MOL0     C 7751  10.153   6.011   3.678  0.6892 -0.4139 -0.7451
  799MOL0     C 7752  10.028   5.929   3.687  0.3560 -0.1616 -0.2246
  799MOL0     C 7753   9.950   5.931   3.820 -0.4748  0.3548  0.3161
  799MOL0     O 7754  10.022   5.891   3.940  0.5979 -0.0145 -0.0019
  799MOL0     C 7755   9.982   5.928   4.067  0.1125 -0.4634 -0.3639
  799MOL0     C 7756   9.866   6.004   4.107 -0.5715 -0.4429 -0.1825
  799MOL0     C 7757   9.843   6.018   4.244 -0.0690 -0.5457  0.4580
  799MOL0     C 7758   9.713   6.094   4.274  0.5736 -0.0486  0.6064
  799MOL0     C 7759   9.936   5.964   4.344 -0.0380  0.8011  0.0841
  799MOL0     C 7760   9.919   5.983   4.492  0.8112  0.9854 -0.5539
  799MOL0     O 7761  10.039   5.969   4.566  0.0792 -0.4821  0.2351
  799MOL0     C 7762  10.045   5.993   4.698 -0.6064 -0.5585 -0.2641
  799MOL0     C 7763  10.131   6.095   4.741  0.4922 -0.3051 -0.3137
  799MOL0     C 7764  10.129   6.129   4.878  0.0345 -0.4459 -0.4814
  799MOL0     C 7765  10.047   6.067   4.973 -0.5854  1.6065 -0.9971
  799MOL0     O 7766  10.053   6.115   5.106  0.2473  0.2356 -0.3059
  799MOL0     C 7767   9.977   6.046   5.202 -0.2780 -0.8060 -0.0364
  799MOL0     C 7768  10.050   6.074   5.332  1.1317 -0.2934  0.3954
  799MOL0     C 7769  10.024   6.213   5.402 -0.5527 -0.7074  0.5037
  799MOL0     C 7770  10.092   6.211   5.542  0.1568 -0.6231 -0.0175
  799MOL0     C 7771  10.030   6.315   5.643  0.2805  0.8331  0.1168
  799MOL0     C 7772  10.073   6.269   5.790 -0.5110  1.1902 -0.0853
  799MOL0     C 7773  10.220   6.328   5.831  0.3623  0.5441  0.7618
  799MOL0     C 7774  10.254   6.310   5.983 -0.4076  0.6930  0.2689
  799MOL0    Cl 7775  10.230   6.141   6.017  0.3667 -0.2718 -0.4843
  799MOL0     C 7776   9.964   5.957   4.921 -0.1560  0.2667  0.0214
  799MOL0     C 7777   9.970   5.924   4.788 -0.7476 -0.5474  0.1088
  799MOL0     O 7778   9.805   6.008   4.535  0.0263 -0.3868 -0.4628
  799MOL0     C 7779  10.043   5.901   4.295  0.3567  0.1182  0.4555
  799MOL0     C 7780  10.072   5.890   4.162  0.3147  1.6201 -0.0181
  799MOL0     N 7781   9.891   6.184   3.491  1.0710 -0.1555 -0.6639
  799MOL0     N 7782   9.844   6.184   3.371  0.4150  0.3574 -0.1696
  799MOL0     C 7783  10.911   6.344   3.461 -0.1373 -0.5288 -0.5669
  799MOL0     C 7784  11.010   6.393   3.540  1.0624 -0.1451 -1.1741
  799MOL0     C 7785  11.304   6.606   3.776  0.0960  0.4378 -0.5391
  799MOL0     C 7786  11.280   6.586   3.918  0.7909  0.1467  0.2565
  799MOL0     C 7787  11.376   6.629   4.010  0.0141 -0.0254  0.5626
  799MOL0     C 7788  11.495   6.689   3.974 -0.6291 -0.3225  0.8061
  799MOL0     O 7789  11.600   6.721   4.060  0.5174 -0.1321 -0.3656
  799MOL0     C 7790  11.623   6.628   4.173 -0.1753 -0.4543  0.2333
  799MOL0     C 7791  11.711   6.512   4.129  1.0876  0.2006  0.2801
  799MOL0     C 7792  11.759   6.436   4.246 -0.8960  0.1417 -0.0432
  799MOL0     C 7793  11.819   6.305   4.208 -0.7660 -0.4430 -0.1097
  799MOL0     C 7794  11.946   6.340   4.135 -0.8689  0.6589  0.8244
  799MOL0     C 7795  12.049   6.362   4.074 -0.3090  0.2979 -0.7408
  799MOL0     C 7796  11.523   6.709   3.837  0.3730  1.6491  1.2318
  799MOL0     C 7797  11.433   6.668   3.735  0.4336 -0.0329 -0.4385
  799MOL0     H 7798  10.859   6.519   3.805  2.0677 -0.5420 -0.6166
  799MOL0     H 7799  10.650   6.446   3.666  1.5064  0.1394  3.1868
  799MOL0     H 7800  10.501   6.376   3.519  1.1475 -0.1631  0.2210
  799MOL0     H 7801  10.548   6.520   3.425 -2.3326  0.3205  1.5431
  799MOL0     H 7802  10.494   6.365   3.218  0.7513  1.1569  0.6906
  799MOL0     H 7803  10.445   6.249   3.342  0.4339  0.3954  1.8226
  799MOL0     H 7804  10.255   6.436   3.390  1.2241  0.0177  1.4654
  799MOL0     H 7805  10.346   6.527   3.270  0.6402  0.3777  0.8016
  799MOL0     H 7806  10.301   6.369   3.093  0.0066 -0.7006  0.1923
  799MOL0     H 7807  10.242   6.245   3.206  3.8367 -0.1732 -1.3439
  799MOL0     H 7808  10.046   6.383   3.258 -1.1568  0.8249 -0.6752
  799MOL0     H 7809  10.116   6.509   3.150 -1.1273 -0.4631 -1.5396
  799MOL0     H 7810   9.920   6.383   3.057 -0.7744 -1.2777 -2.4274
  799MOL0     H 7811  10.076   6.384   2.967  0.9523  3.1091  1.8440
  799MOL0     H 7812   9.968   6.172   2.940  1.0861 -1.1366 -1.2120
  799MOL0     H 7813  10.114   6.159   3.043 -1.5483 -3.2018  1.5715
  799MOL0     H 7814   9.950   6.016   3.144  0.7066  0.7240  0.6804
  799MOL0     H 7815   9.808   6.122   3.123 -0.3974 -1.0908  2.5150
  799MOL0     H 7816  10.150   6.108   3.329 -0.0407  1.9784 -2.3617
  799MOL0     H 7817  10.217   6.198   3.588  0.1949 -0.6153  1.0133
  799MOL0     H 7818  10.069   6.214   3.687 -0.0918  0.7161 -0.5256
  799MOL0     H 7819  10.206   6.024   3.773  0.3549  0.0458 -0.6233
  799MOL0     H 7820  10.224   5.960   3.612  1.6776 -3.4712  2.3716
  799MOL0     H 7821  10.044   5.826   3.653 -1.4608  0.2553 -2.6825
  799MOL0     H 7822   9.958   5.950   3.605  0.4472 -1.2314 -0.5964
  799MOL0     H 7823   9.864   5.864   3.806  1.2809 -1.8670 -0.3227
  799MOL0     H 7824   9.915   6.035   3.828 -1.2750  0.4308 -2.9863
  799MOL0     H 7825   9.800   6.055   4.037  0.2425  2.8055  1.2203
  799MOL0     H 7826   9.740   6.185   4.329 -0.9757  1.3875 -0.8786
  799MOL0     H 7827   9.656   6.125   4.186 -0.0508 -3.0736 -0.1809
  799MOL0     H 7828   9.653   6.013   4.318 -0.2497 -2.9112 -4.9595
  799MOL0     H 7829  10.175   6.153   4.660 -0.5821  2.2913  0.8256
  799MOL0     H 7830  10.183   6.216   4.914 -0.9215  0.0311 -0.1661
  799MOL0     H 7831   9.873   6.080   5.206  0.1925  1.4269 -3.0455
  799MOL0     H 7832   9.969   5.938   5.192 -1.5318 -0.9975  2.2952
  799MOL0     H 7833  10.022   6.003   5.410 -1.4620  1.0129  0.7397
  799MOL0     H 7834  10.159   6.063   5.333  1.0958 -0.6382  0.7015
  799MOL0     H 7835   9.917   6.231   5.391 -0.1696  0.7061 -1.5150
  799MOL0     H 7836  10.072   6.287   5.337 -0.2850 -1.4860 -0.2045
  799MOL0     H 7837  10.084   6.114   5.591 -1.7605  0.0555  1.1415
  799MOL0     H 7838  10.199   6.225   5.525 -0.3334  0.6118 -2.6212
  799MOL0     H 7839   9.925   6.287   5.630  0.7187 -0.8171 -0.1340
  799MOL0     H 7840  10.053   6.419   5.618  0.2167  1.2997  1.8453
  799MOL0     H 7841   9.992   6.305   5.854 -0.2129 -1.2060  1.7595
  799MOL0     H 7842  10.075   6.162   5.809  0.5754  1.5328  2.0066
  799MOL0     H 7843  10.236   6.435   5.810 -0.1467  0.4013 -0.3862
  799MOL0     H 7844  10.301   6.271   5.786 -0.3734  1.3512 -1.7582
  799MOL0     H 7845  10.186   6.362   6.051 -0.8892  0.0337  0.3029
  799MOL0     H 7846  10.352   6.347   6.015  0.2222 -0.7380  0.0609
  799MOL0     H 7847   9.896   5.901   4.985 -1.6096  1.5805 -0.3076
  799MOL0     H 7848   9.908   5.841   4.754  2.3281 -3.2988  0.6552
  799MOL0     H 7849  10.120   5.863   4.360  1.5905 -4.5642 -3.1676
  799MOL0     H 7850  10.166   5.850   4.125  0.1020  2.0714 -1.0930
  799MOL0     H 7851  10.944   6.286   3.375  3.0358  0.5524 -0.2084
  799MOL0     H 7852  11.115   6.372   3.522  1.2829 -2.4661  1.9528
  799MOL0     H 7853  11.194   6.533   3.956  0.5329 -1.0264 -1.8253
  799MOL0     H 7854  11.355   6.620   4.116  1.5725 -0.9609  0.8334
  799MOL0     H 7855  11.669   6.686   4.254  1.4476 -1.3744 -0.0049
  799MOL0     H 7856  11.531   6.588   4.216 -1.2642 -1.4891 -2.8035
  799MOL0     H 7857  11.786   6.542   4.055 -0.2118 -1.7413 -2.0158
  799MOL0     H 7858  11.655   6.437   4.072  1.8744 -1.0328  1.0750
  799MOL0     H 7859  11.680   6.404   4.316  2.4027 -4.2078  2.2042
  799MOL0     H 7860  11.835   6.489   4.304 -0.5630  0.6779 -0.9630
  799MOL0     H 7861  11.755   6.238   4.151  0.7234 -0.3022 -2.0605
  799MOL0     H 7862  11.848   6.245   4.295  2.2361 -1.8177 -1.9008
  799MOL0     H 7863  12.147   6.375   4.033  0.9946 -3.5212  0.7780
  799MOL0     H 7864  11.619   6.741   3.798  0.0341  4.2688  2.3738
  799MOL0     H 7865  11.464   6.677   3.631  3.5106 -1.2660  0.2535
  800MOL0     O 7866   8.109   6.587   5.996  0.0293  0.1581 -0.0712
  800MOL0     C 7867   8.013   6.575   5.925  0.0521 -0.6803 -0.4094
  800MOL0     O 7868   8.009   6.495   5.820 -0.5351 -0.8289  0.0691
  800MOL0     C 7869   8.122   6.448   5.759 -0.8564  0.6823  0.2908
  800MOL0     C 7870   8.106   6.413   5.625  0.5183 -1.2298 -0.4152
  800MOL0     C 7871   8.209   6.357   5.554  0.2103  0.2533 -0.0702
  800MOL0     C 7872   8.333   6.333   5.622 -0.6377  0.1504 -1.0496
  800MOL0     O 7873   8.424   6.267   5.549  0.4618  0.2672 -0.0094
  800MOL0     C 7874   8.529   6.192   5.610  0.6048 -0.2128  0.4766
  800MOL0     C 7875   8.598   6.126   5.492 -0.1309  0.5178  0.4573
  800MOL0     C 7876   8.718   6.034   5.534 -0.1121  0.2895 -0.4093
  800MOL0     C 7877   8.810   6.030   5.414  0.2267 -0.2072 -0.2413
  800MOL0     C 7878   8.938   5.942   5.435  0.2327 -0.2441 -0.0682
  800MOL0     C 7879   9.045   5.973   5.323 -0.2840 -0.1280 -0.3269
  800MOL0     C 7880   8.990   5.951   5.183 -0.0565  0.2240 -0.6166
  800MOL0     C 7881   9.097   5.966   5.075  0.0455 -0.2647  0.4550
  800MOL0     N 7882   9.150   6.098   5.054  0.6035  0.3815 -0.7153
  800MOL0     C 7883   9.070   6.195   4.994 -0.2852 -0.7549  0.2415
  800MOL0     C 7884   9.135   6.312   5.028  0.7771 -0.7559  0.0511
  800MOL0     C 7885   9.108   6.449   4.980 -0.9120  0.2040  0.2382
  800MOL0     C 7886   9.232   6.497   4.901  0.5214 -0.8677  0.2832
  800MOL0     C 7887   9.358   6.543   4.981 -0.0070  0.5253  0.6759
  800MOL0     C 7888   9.456   6.623   4.898  0.7361  0.0307  0.5379
  800MOL0     O 7889   9.555   6.669   4.990  0.2633 -0.0846 -0.4837
  800MOL0     C 7890   9.642   6.761   4.940 -1.3600  0.6751  0.4832
  800MOL0     C 7891   9.647   6.794   4.800 -0.4864 -0.3662  0.3825
  800MOL0     C 7892   9.729   6.906   4.755  0.0085 -0.1737  0.0189
  800MOL0     C 7893   9.732   6.917   4.601  0.2599 -0.6542  0.2491
  800MOL0     C 7894   9.791   6.990   4.850 -0.5744 -0.0008 -0.2934
  800MOL0     C 7895   9.892   7.101   4.818  0.1804  0.9508  0.3260
  800MOL0     O 7896   9.969   7.155   4.921 -0.1789  0.0034 -0.2866
  800MOL0     C 7897  10.029   7.276   4.898 -0.7263  1.0168 -0.6225
  800MOL0     C 7898  10.167   7.292   4.917  0.0500 -0.9173  0.4498
  800MOL0     C 7899  10.243   7.407   4.878  1.0896 -0.2956  0.0516
  800MOL0     C 7900  10.171   7.512   4.832 -1.0733 -0.7491 -0.9265
  800MOL0     O 7901  10.248   7.615   4.788  0.3515  1.0576  0.0875
  800MOL0     C 7902  10.180   7.720   4.734 -0.3189  0.0529 -0.2422
  800MOL0     C 7903  10.272   7.845   4.723 -0.4647  0.3522  0.5960
  800MOL0     C 7904  10.285   7.916   4.857 -0.8287 -0.5587  0.8039
  800MOL0     C 7905  10.425   7.993   4.868  0.3673  0.2976  0.7266
  800MOL0     C 7906  10.453   8.052   5.010 -0.1130 -0.9053  0.9554
  800MOL0     C 7907  10.603   8.076   5.032 -0.3822  0.2997 -0.0140
  800MOL0     C 7908  10.633   8.095   5.184  0.3614  0.1428 -0.1079
  800MOL0     C 7909  10.773   8.139   5.214  0.0228 -0.5604 -0.2126
  800MOL0    Cl 7910  10.796   8.149   5.385  0.2025 -0.0022  0.7490
  800MOL0     C 7911  10.033   7.500   4.819  0.7926  0.5263  0.8720
  800MOL0     C 7912   9.962   7.387   4.852  0.0146 -0.1618  0.6684
  800MOL0     O 7913   9.876   7.148   4.706  0.1376 -0.3004  0.0912
  800MOL0     C 7914   9.787   6.952   4.988 -0.2900 -0.4882 -0.9050
  800MOL0     C 7915   9.705   6.847   5.025  0.0019 -0.3922  0.2574
  800MOL0     N 7916   9.232   6.276   5.124  0.0071 -0.6237  0.2468
  800MOL0     N 7917   9.251   6.155   5.122 -0.5300  0.2869 -1.0987
  800MOL0     C 7918   8.347   6.358   5.755  0.2978 -0.9129  0.0744
  800MOL0     C 7919   8.241   6.416   5.826  1.6425  0.1068 -0.4557
  800MOL0     C 7920   7.906   6.678   5.941  0.6999 -0.3925  0.6514
  800MOL0     C 7921   7.794   6.661   5.869  0.1219  0.2784  0.1307
  800MOL0     C 7922   7.692   6.753   5.883  0.5217  0.0694  0.6146
  800MOL0     C 7923   7.694   6.857   5.972 -1.0440 -0.3618 -0.4341
  800MOL0     O 7924   7.610   6.958   5.983 -0.6242 -0.2982  0.1004
  800MOL0     C 7925   7.549   7.002   5.863 -0.2853 -0.5393  0.0688
  800MOL0     C 7926   7.642   7.039   5.750  0.2706 -0.2043  0.1140
  800MOL0     C 7927   7.748   7.146   5.780 -0.4993 -0.2437 -0.8354
  800MOL0     C 7928   7.882   7.125   5.705 -0.0298 -0.0975  0.0843
  800MOL0     C 7929   7.977   7.236   5.717  0.6068  0.2565 -0.0194
  800MOL0     C 7930   8.066   7.316   5.717  0.4400  0.3948  0.5200
  800MOL0     C 7931   7.804   6.869   6.061 -0.5888  1.1294 -0.2734
  800MOL0     C 7932   7.905   6.782   6.041  0.0240  0.6644  0.7582
  800MOL0     H 7933   8.011   6.445   5.584  0.8019 -1.3417 -1.1999
  800MOL0     H 7934   8.191   6.313   5.457  2.4848  0.8154 -0.8132
  800MOL0     H 7935   8.602   6.264   5.645  1.0500 -0.1211 -0.6001
  800MOL0     H 7936   8.479   6.125   5.681 -1.1476 -0.4106 -0.8551
  800MOL0     H 7937   8.519   6.081   5.433 -1.6894 -0.4905  3.1294
  800MOL0     H 7938   8.640   6.205   5.428 -0.7282  3.3114  3.2226
  800MOL0     H 7939   8.771   6.094   5.608 -0.8287  1.9003 -1.1555
  800MOL0     H 7940   8.691   5.932   5.562  1.6082 -0.3663 -1.0150
  800MOL0     H 7941   8.755   5.988   5.330  0.3122 -2.5726  0.7994
  800MOL0     H 7942   8.839   6.132   5.387 -0.4110  0.0581  0.0597
  800MOL0     H 7943   8.988   5.974   5.527 -0.8009  0.9126  0.1166
  800MOL0     H 7944   8.903   5.840   5.449 -3.3167  0.6799 -1.2327
  800MOL0     H 7945   9.082   6.076   5.325 -1.6514  0.3826  1.5291
  800MOL0     H 7946   9.132   5.909   5.340 -0.2604 -0.2753 -0.9789
  800MOL0     H 7947   8.952   5.848   5.182  1.3231 -0.3148 -0.2005
  800MOL0     H 7948   8.912   6.021   5.151 -0.7485 -0.8708 -1.4309
  800MOL0     H 7949   9.068   5.919   4.980 -1.4474 -0.9478  1.2247
  800MOL0     H 7950   9.175   5.902   5.118  0.0575 -0.2737  0.4199
  800MOL0     H 7951   8.983   6.183   4.929  0.7143 -3.2802 -0.7604
  800MOL0     H 7952   9.027   6.451   4.907  1.1675 -2.3594 -2.3572
  800MOL0     H 7953   9.076   6.507   5.067  0.8405 -0.3224  1.2909
  800MOL0     H 7954   9.203   6.577   4.832 -4.2430 -0.9988  1.7824
  800MOL0     H 7955   9.270   6.412   4.844 -0.6234 -1.0389 -0.2554
  800MOL0     H 7956   9.408   6.460   5.032  0.2209 -1.8508 -3.0338
  800MOL0     H 7957   9.319   6.605   5.062 -1.2064 -1.4924  1.7270
  800MOL0     H 7958   9.403   6.704   4.846  0.2981  0.1431  1.1506
  800MOL0     H 7959   9.504   6.552   4.830  1.4872  1.0783 -0.0461
  800MOL0     H 7960   9.600   6.738   4.720  0.0300 -0.1247 -0.0981
  800MOL0     H 7961   9.667   7.003   4.581  2.4113  1.6228  2.1918
  800MOL0     H 7962   9.838   6.932   4.576 -0.2138  0.4640 -1.2229
  800MOL0     H 7963   9.707   6.825   4.548  3.2034 -0.3966 -1.8483
  800MOL0     H 7964  10.218   7.214   4.972 -1.2984 -1.1365  1.4485
  800MOL0     H 7965  10.349   7.407   4.902  0.5321 -0.4664  3.0026
  800MOL0     H 7966  10.141   7.695   4.635  0.1145  1.6900 -0.8659
  800MOL0     H 7967  10.098   7.757   4.797  0.3893  0.2156  0.5982
  800MOL0     H 7968  10.369   7.811   4.684 -0.7940 -1.1583  1.0247
  800MOL0     H 7969  10.220   7.896   4.642 -0.9382 -1.2355 -0.1445
  800MOL0     H 7970  10.294   7.828   4.922 -0.5180  0.3225  1.9904
  800MOL0     H 7971  10.196   7.976   4.877 -0.9091 -0.0724 -0.9049
  800MOL0     H 7972  10.496   7.916   4.835 -2.4610 -1.2357 -2.3966
  800MOL0     H 7973  10.434   8.075   4.796  0.6616  0.5566  1.0512
  800MOL0     H 7974  10.411   7.986   5.087 -0.4370 -0.1442  1.4426
  800MOL0     H 7975  10.391   8.142   5.014 -1.1317 -1.4991 -0.7791
  800MOL0     H 7976  10.661   7.987   5.006  1.3333  0.8971  1.5306
  800MOL0     H 7977  10.640   8.157   4.968  0.3588 -0.9698 -1.2588
  800MOL0     H 7978  10.608   7.998   5.229 -0.0362  0.1209 -0.3694
  800MOL0     H 7979  10.571   8.176   5.222  3.0860  1.0993  2.7807
  800MOL0     H 7980  10.791   8.234   5.163  5.9651 -1.6743 -0.9379
  800MOL0     H 7981  10.850   8.071   5.175 -0.1655 -1.2851  0.6657
  800MOL0     H 7982   9.978   7.578   4.768  0.8777 -2.0757 -3.8155
  800MOL0     H 7983   9.859   7.367   4.824 -0.5479  0.8055  1.9249
  800MOL0     H 7984   9.816   7.014   5.072 -1.9271  0.0826 -0.7353
  800MOL0     H 7985   9.691   6.843   5.133  0.3615  2.7142  0.5258
  800MOL0     H 7986   8.441   6.332   5.804  0.9498 -0.6491 -1.0069
  800MOL0     H 7987   8.262   6.435   5.931 -0.7136 -0.5269  0.1916
  800MOL0     H 7988   7.772   6.594   5.786 -3.3590  1.4546 -0.0648
  800MOL0     H 7989   7.604   6.725   5.825  1.5709 -0.6057 -0.7052
  800MOL0     H 7990   7.475   6.935   5.818 -1.0578  1.9827 -2.8326
  800MOL0     H 7991   7.477   7.081   5.889 -0.2792 -0.5325  0.0688
  800MOL0     H 7992   7.587   7.085   5.667 -2.9029  1.5970  2.9866
  800MOL0     H 7993   7.677   6.945   5.707 -2.3819 -1.0200 -0.4499
  800MOL0     H 7994   7.769   7.161   5.886  0.3482  1.8158 -1.2457
  800MOL0     H 7995   7.709   7.240   5.739 -0.6741  0.9454  1.7936
  800MOL0     H 7996   7.856   7.119   5.599  1.3044  3.6365 -0.6055
  800MOL0     H 7997   7.930   7.037   5.749  1.9347  0.5523 -0.6631
  800MOL0     H 7998   8.129   7.400   5.739  1.4296  0.1186 -1.1120
  800MOL0     H 7999   7.803   6.957   6.126 -0.2268  1.0565 -0.1685
  800MOL0     H 8000   7.999   6.799   6.094  2.1022 -0.6607 -2.2185
  801MOL0     O 8001   8.445   7.294   3.669  0.2534 -0.6479 -0.7784
  801MOL0     C 8002   8.402   7.305   3.548  0.0881 -0.0345 -0.1803
  801MOL0     O 8003   8.266   7.329   3.523 -0.9900 -0.6046  0.2989
  801MOL0     C 8004   8.189   7.381   3.629 -0.1169  0.2156 -0.4039
  801MOL0     C 8005   8.161   7.295   3.743  0.1379  0.7756  0.3600
  801MOL0     C 8006   8.092   7.347   3.844  0.6564 -0.7518  0.1771
  801MOL0     C 8007   8.038   7.478   3.836  1.1294  0.6756 -0.2919
  801MOL0     O 8008   7.958   7.530   3.942  0.2701 -0.2379  0.7531
  801MOL0     C 8009   7.857   7.438   3.990 -0.1284 -0.1526 -0.9221
  801MOL0     C 8010   7.810   7.511   4.117  0.5829  0.0620  1.5107
  801MOL0     C 8011   7.709   7.622   4.075  0.4054  0.4241 -0.2855
  801MOL0     C 8012   7.643   7.671   4.208  0.0085 -0.1295 -0.2729
  801MOL0     C 8013   7.540   7.791   4.182  0.1356  0.0493 -0.7111
  801MOL0     C 8014   7.468   7.820   4.313  1.0332 -1.1138 -0.0118
  801MOL0     C 8015   7.359   7.931   4.299 -0.4123  0.1731  0.0323
  801MOL0     C 8016   7.294   7.975   4.434 -0.8283  0.5854 -0.1229
  801MOL0     N 8017   7.387   8.037   4.532  0.3638 -0.4573  0.4843
  801MOL0     C 8018   7.438   8.164   4.515 -0.3601 -0.3603  0.0732
  801MOL0     C 8019   7.522   8.173   4.625  1.3941 -0.1321  1.3010
  801MOL0     C 8020   7.595   8.291   4.652  0.6312 -0.2021  0.0006
  801MOL0     C 8021   7.698   8.329   4.545  0.4222  0.5188 -0.4571
  801MOL0     C 8022   7.820   8.401   4.614  0.1895 -0.4782  0.4799
  801MOL0     C 8023   7.907   8.467   4.503 -0.1804 -0.5134 -0.4301
  801MOL0     O 8024   7.954   8.360   4.418  0.2530 -0.2767 -0.5169
  801MOL0     C 8025   8.049   8.402   4.330 -0.1430 -0.5223  0.1524
  801MOL0     C 8026   8.108   8.532   4.324  0.3214  0.1925  0.7469
  801MOL0     C 8027   8.209   8.553   4.227 -0.6730  0.2903 -0.1505
  801MOL0     C 8028   8.288   8.687   4.230  0.2849  0.2174  1.2805
  801MOL0     C 8029   8.233   8.454   4.127 -0.2814  0.8066  0.2646
  801MOL0     C 8030   8.338   8.483   4.015  0.4804  0.4976 -0.1891
  801MOL0     O 8031   8.456   8.538   4.042 -0.1403  0.2701 -0.2070
  801MOL0     C 8032   8.561   8.504   3.955 -0.0758 -0.7165  0.6184
  801MOL0     C 8033   8.592   8.595   3.859 -0.5923  0.4473 -0.2103
  801MOL0     C 8034   8.706   8.580   3.775  1.0060  0.1950  0.1000
  801MOL0     C 8035   8.787   8.467   3.780  0.7685 -0.7049 -0.3092
  801MOL0     O 8036   8.897   8.456   3.702 -0.0098  0.3323  0.3171
  801MOL0     C 8037   8.997   8.367   3.762 -0.0201  0.3448  0.4355
  801MOL0     C 8038   9.140   8.429   3.752  1.0009  0.0082  0.4187
  801MOL0     C 8039   9.142   8.576   3.796  0.7551 -0.0863  0.2443
  801MOL0     C 8040   9.283   8.621   3.812 -0.2885 -0.3605  0.3765
  801MOL0     C 8041   9.303   8.763   3.863  0.7549  0.0806 -0.6467
  801MOL0     C 8042   9.438   8.817   3.878 -0.3195 -0.2468  0.1594
  801MOL0     C 8043   9.437   8.936   3.974  0.1677  0.6587 -0.4131
  801MOL0     C 8044   9.584   8.981   3.993  0.8607  0.2601  0.2803
  801MOL0    Cl 8045   9.606   9.139   4.107 -0.4261 -0.7043  0.0951
  801MOL0     C 8046   8.732   8.363   3.866 -0.9171  0.3947  0.5810
  801MOL0     C 8047   8.629   8.380   3.957 -0.3504 -0.1921  0.6311
  801MOL0     O 8048   8.291   8.462   3.902 -0.3768  0.8739  0.3774
  801MOL0     C 8049   8.170   8.334   4.139 -0.9921  0.6895 -0.3208
  801MOL0     C 8050   8.088   8.306   4.240 -0.4727 -0.3678 -0.2321
  801MOL0     N 8051   7.517   8.057   4.697 -0.1559  0.3543 -0.0713
  801MOL0     N 8052   7.441   7.968   4.639 -0.4729 -0.1274 -0.2266
  801MOL0     C 8053   8.062   7.560   3.734 -0.5733 -0.2670  1.0576
  801MOL0     C 8054   8.140   7.516   3.633 -0.0476 -0.2088  0.3080
  801MOL0     C 8055   8.491   7.282   3.436  1.2067  0.3996 -0.0287
  801MOL0     C 8056   8.431   7.293   3.306  0.8225 -0.7234  0.5648
  801MOL0     C 8057   8.503   7.268   3.194  0.3654 -0.0600 -0.9423
  801MOL0     C 8058   8.629   7.209   3.206  0.0328 -0.2539  0.0477
  801MOL0     O 8059   8.718   7.157   3.106  0.0458 -0.0067  0.2438
  801MOL0     C 8060   8.690   7.206   2.978  0.5007 -0.2015  0.4231
  801MOL0     C 8061   8.798   7.183   2.875 -0.4750  0.0976 -0.7151
  801MOL0     C 8062   8.850   7.040   2.894 -0.3010 -0.4429 -0.2048
  801MOL0     C 8063   8.963   7.005   2.798  1.0200 -0.0936 -0.2259
  801MOL0     C 8064   8.901   6.980   2.667 -0.5742  1.0896  0.5550
  801MOL0     C 8065   8.845   6.946   2.565 -0.5074  0.0758 -0.1106
  801MOL0     C 8066   8.694   7.199   3.334  0.9847  0.3854 -0.3326
  801MOL0     C 8067   8.621   7.238   3.445  0.5295  0.2385 -0.0494
  801MOL0     H 8068   8.198   7.194   3.759 -0.5834  0.8915  3.2112
  801MOL0     H 8069   8.086   7.288   3.935  2.2766 -0.5308  0.4608
  801MOL0     H 8070   7.779   7.423   3.915 -1.7189  1.5618  0.2884
  801MOL0     H 8071   7.918   7.354   4.026  0.5124  1.0194  0.8738
  801MOL0     H 8072   7.767   7.453   4.200 -1.7214  0.9358  1.0221
  801MOL0     H 8073   7.903   7.555   4.154  1.5346 -1.1987  0.6778
  801MOL0     H 8074   7.769   7.704   4.036  2.8097 -1.3331 -0.5318
  801MOL0     H 8075   7.644   7.582   3.996  0.8374  3.2656 -2.2085
  801MOL0     H 8076   7.581   7.588   4.243 -1.3940  0.5221 -1.1579
  801MOL0     H 8077   7.713   7.697   4.288 -1.2202  2.0153  0.1671
  801MOL0     H 8078   7.592   7.883   4.153  3.8078 -1.2125  1.2098
  801MOL0     H 8079   7.476   7.769   4.096  0.9200  0.1504 -1.3291
  801MOL0     H 8080   7.409   7.734   4.346 -0.9904  0.3063  0.2419
  801MOL0     H 8081   7.547   7.859   4.378  0.3628 -0.9181  0.6975
  801MOL0     H 8082   7.395   8.023   4.253 -0.0007  2.1326  3.8607
  801MOL0     H 8083   7.285   7.903   4.223  0.1601 -2.1204  0.2534
  801MOL0     H 8084   7.247   7.890   4.484  1.0686  1.4273  3.3790
  801MOL0     H 8085   7.224   8.057   4.415 -2.8438 -0.6858  1.3934
  801MOL0     H 8086   7.422   8.242   4.441 -1.4051 -0.7327 -0.1000
  801MOL0     H 8087   7.533   8.380   4.651  3.5071  2.0477 -3.1838
  801MOL0     H 8088   7.635   8.285   4.754 -2.8098  0.7579  1.5610
  801MOL0     H 8089   7.645   8.393   4.474 -0.4346  1.2062  0.7536
  801MOL0     H 8090   7.727   8.236   4.496 -0.1032 -0.6131  1.3133
  801MOL0     H 8091   7.882   8.317   4.645  0.5173 -0.8091 -0.9865
  801MOL0     H 8092   7.779   8.469   4.689  1.7640  0.7504  0.2874
  801MOL0     H 8093   7.983   8.526   4.555 -1.3831 -0.2235  1.0709
  801MOL0     H 8094   7.849   8.538   4.444  1.7069 -1.7493 -4.1117
  801MOL0     H 8095   8.069   8.618   4.378 -0.0464  0.1451  0.5585
  801MOL0     H 8096   8.394   8.664   4.244  0.3929  0.5835  1.0622
  801MOL0     H 8097   8.287   8.737   4.133 -1.3926 -1.4743  0.3768
  801MOL0     H 8098   8.253   8.758   4.306 -0.4685 -0.5119  1.6240
  801MOL0     H 8099   8.526   8.681   3.861  0.2734  1.1258  0.2736
  801MOL0     H 8100   8.727   8.651   3.695  3.3286  0.3562  0.7861
  801MOL0     H 8101   8.986   8.348   3.870  1.5246  0.3976  0.6176
  801MOL0     H 8102   8.998   8.273   3.706 -1.9310  2.6639 -3.9884
  801MOL0     H 8103   9.201   8.371   3.822 -1.1025  0.2705  2.6198
  801MOL0     H 8104   9.173   8.415   3.649 -0.1123 -1.5360  0.2399
  801MOL0     H 8105   9.098   8.582   3.896 -0.0210  1.4237 -0.1571
  801MOL0     H 8106   9.088   8.643   3.728 -1.8862 -0.6260  1.6556
  801MOL0     H 8107   9.343   8.547   3.866  0.6155  0.9565  1.2470
  801MOL0     H 8108   9.331   8.631   3.715  0.2076 -0.0531  0.6490
  801MOL0     H 8109   9.249   8.747   3.956 -1.0400 -0.2312 -1.6938
  801MOL0     H 8110   9.233   8.819   3.800 -2.3451 -3.0295 -0.2920
  801MOL0     H 8111   9.507   8.744   3.920  0.0693  0.8151  1.4571
  801MOL0     H 8112   9.479   8.847   3.781  0.1886  1.9625  0.9906
  801MOL0     H 8113   9.385   8.905   4.065  1.4459 -1.5577 -0.3787
  801MOL0     H 8114   9.378   9.019   3.934  1.8511  2.0798 -0.0943
  801MOL0     H 8115   9.634   8.987   3.896  0.0526 -3.9450 -0.5685
  801MOL0     H 8116   9.640   8.902   4.043 -0.0794 -0.7799 -0.2625
  801MOL0     H 8117   8.784   8.268   3.867  0.2734  0.9933  3.2025
  801MOL0     H 8118   8.611   8.300   4.029 -0.8443 -1.6921 -1.0746
  801MOL0     H 8119   8.194   8.263   4.061 -0.2626  0.8156 -0.2204
  801MOL0     H 8120   8.044   8.208   4.254  2.2722 -1.4778  1.2785
  801MOL0     H 8121   8.016   7.659   3.735  0.5822  0.4233 -1.8913
  801MOL0     H 8122   8.166   7.578   3.547 -2.5489 -1.6208 -1.6181
  801MOL0     H 8123   8.328   7.327   3.299  0.5878 -1.3814  0.8104
  801MOL0     H 8124   8.471   7.274   3.091  0.6207 -0.4830 -1.0461
  801MOL0     H 8125   8.605   7.149   2.940 -0.3367  1.9908 -1.2648
  801MOL0     H 8126   8.660   7.312   2.978  0.5813 -0.1781  0.3727
  801MOL0     H 8127   8.878   7.258   2.876 -2.9264  2.9277 -0.4257
  801MOL0     H 8128   8.767   7.196   2.771 -0.2391 -3.1550 -1.2778
  801MOL0     H 8129   8.768   6.971   2.873 -0.9871  1.0190 -2.7229
  801MOL0     H 8130   8.879   7.011   2.995 -2.2247 -2.1291 -0.0682
  801MOL0     H 8131   9.024   6.921   2.831 -0.3589 -1.5961 -1.3511
  801MOL0     H 8132   9.015   7.100   2.787 -0.9414  0.9735 -0.8962
  801MOL0     H 8133   8.809   6.909   2.471  0.4682 -0.1372 -0.4034
  801MOL0     H 8134   8.798   7.171   3.347  1.0563  0.9154  0.3091
  801MOL0     H 8135   8.667   7.222   3.542  4.3248 -2.0483 -1.9615
  802MOL0     O 8136   0.062   6.610   9.676 -0.8265  0.0301  0.5356
  802MOL0     C 8137   0.057   6.588   9.795  1.0587 -1.1819 -0.8358
  802MOL0     O 8138   0.144   6.506   9.864  0.9801  0.1164 -1.1182
  802MOL0     C 8139   0.258   6.454   9.811 -0.4068 -0.3360 -0.3567
  802MOL0     C 8140   0.303   6.323   9.845  0.1644 -1.0228 -0.0356
  802MOL0     C 8141   0.409   6.260   9.787  1.3661 -0.5527  0.2313
  802MOL0     C 8142   0.475   6.321   9.689 -0.2303  0.4499  0.9025
  802MOL0     O 8143   0.571   6.267   9.609  0.5101  1.1366  0.5981
  802MOL0     C 8144   0.528   6.158   9.519  0.6317 -0.2042 -0.5831
  802MOL0     C 8145   0.609   6.036   9.531 -1.0986 -0.4863 -0.5568
  802MOL0     C 8146   0.646   6.007   9.678  0.2307  0.4376 -0.1742
  802MOL0     C 8147   0.717   5.869   9.689 -0.3056 -0.1255  0.0098
  802MOL0     C 8148   0.718   5.822   9.842 -0.0560 -0.4262  1.2533
  802MOL0     C 8149   0.828   5.896   9.926 -0.3302  0.8460 -0.0014
  802MOL0     C 8150   0.853   5.820  10.047 -0.5690 -0.6212 -0.6936
  802MOL0     C 8151   0.950   5.892  10.141 -0.1128  0.0813  0.1876
  802MOL0     N 8152   1.009   5.829  10.254  0.1278 -0.1411 -0.5669
  802MOL0     C 8153   1.092   5.890  10.341  0.1840 -0.0942  0.4718
  802MOL0     C 8154   1.136   5.788  10.419 -0.5184  0.1805  0.4481
  802MOL0     C 8155   1.236   5.793  10.531  0.0438 -0.2191  0.1432
  802MOL0     C 8156   1.368   5.719  10.492 -0.4611  0.0002 -0.2263
  802MOL0     C 8157   1.460   5.712  10.618 -0.1469  0.4508 -0.7755
  802MOL0     C 8158   1.531   5.848  10.654  0.1201 -0.4498 -0.3972
  802MOL0     O 8159   1.658   5.837  10.587 -0.5886  0.1753  0.1850
  802MOL0     C 8160   1.762   5.810  10.674  0.7162 -0.4824  1.3130
  802MOL0     C 8161   1.872   5.748  10.623 -0.8451  0.5284 -0.3965
  802MOL0     C 8162   1.989   5.730  10.694  0.1679  0.7167 -0.1998
  802MOL0     C 8163   2.090   5.640  10.624 -0.2848 -0.3043 -0.8154
  802MOL0     C 8164   1.998   5.773  10.825  0.4738 -0.2030  0.0126
  802MOL0     C 8165   2.121   5.762  10.902  0.6706  0.0591  0.6319
  802MOL0     O 8166   2.101   5.700  11.022 -0.2234  0.2015  0.0287
  802MOL0     C 8167   2.208   5.701  11.111 -0.1317  0.2848 -0.8279
  802MOL0     C 8168   2.173   5.730  11.239  0.2766 -0.0813 -0.8164
  802MOL0     C 8169   2.259   5.699  11.352  1.1388  0.3157 -0.6804
  802MOL0     C 8170   2.383   5.649  11.319 -0.0020  0.1991  0.0671
  802MOL0     O 8171   2.463   5.640  11.432  0.2529 -0.3671  0.4024
  802MOL0     C 8172   2.592   5.691  11.415 -0.0236  0.2993  0.1822
  802MOL0     C 8173   2.647   5.721  11.548 -0.1773  0.6392 -0.3476
  802MOL0     C 8174   2.801   5.722  11.541  0.5232  0.0365  0.3231
  802MOL0     C 8175   2.850   5.856  11.481  0.4859  0.0939 -0.5651
  802MOL0     C 8176   3.002   5.850  11.499 -0.0063 -0.1307  0.0811
  802MOL0     C 8177   3.069   5.917  11.376  0.5694  0.9958 -1.7415
  802MOL0     C 8178   3.081   5.852  11.240  0.0702  0.0038  0.1066
  802MOL0     C 8179   3.176   5.930  11.161 -0.0029 -0.4149 -0.3228
  802MOL0    Cl 8180   3.342   5.886  11.216  0.1485 -0.0569 -0.1295
  802MOL0     C 8181   2.422   5.627  11.188  0.1009 -0.1112  0.0897
  802MOL0     C 8182   2.336   5.658  11.082  0.1381  0.1565  0.0259
  802MOL0     O 8183   2.228   5.785  10.849  1.0826 -0.1555  0.0414
  802MOL0     C 8184   1.879   5.837  10.881  0.3011 -0.1985 -0.0662
  802MOL0     C 8185   1.766   5.857  10.804 -0.2049 -0.3972 -0.5170
  802MOL0     N 8186   1.073   5.669  10.383 -0.5066  0.6885 -0.1152
  802MOL0     N 8187   0.999   5.691  10.278 -0.4945 -0.3563 -1.2295
  802MOL0     C 8188   0.453   6.451   9.661  0.0401  0.0561 -0.2596
  802MOL0     C 8189   0.349   6.529   9.720 -0.3879  0.8408  0.3789
  802MOL0     C 8190  -0.037   6.680   9.871 -0.1247  0.4913 -0.1544
  802MOL0     C 8191  -0.047   6.680  10.012  0.0004  0.3905 -0.9428
  802MOL0     C 8192  -0.148   6.734  10.081  0.8881  0.1831  1.1314
  802MOL0     C 8193  -0.249   6.812  10.014 -0.0452  0.8847  0.1655
  802MOL0     O 8194  -0.355   6.872  10.078  0.1062 -0.2539 -0.1891
  802MOL0     C 8195  -0.453   6.778  10.123 -0.7848 -0.4198 -0.2684
  802MOL0     C 8196  -0.586   6.763  10.048 -0.4010 -0.5429 -0.7601
  802MOL0     C 8197  -0.655   6.899  10.044  0.2174 -0.5776  0.0443
  802MOL0     C 8198  -0.812   6.888  10.003 -0.0201  0.5219 -0.5193
  802MOL0     C 8199  -0.829   6.853   9.858 -0.0334 -0.4036 -0.3993
  802MOL0     C 8200  -0.840   6.805   9.754 -0.2237  0.5670  0.2938
  802MOL0     C 8201  -0.239   6.830   9.874 -0.1042  0.7427  0.2743
  802MOL0     C 8202  -0.140   6.757   9.810 -0.7887 -0.1598  0.0240
  802MOL0     H 8203   0.245   6.270   9.920 -0.3925  2.0827  1.8672
  802MOL0     H 8204   0.427   6.159   9.821  2.5543 -1.2679 -2.2846
  802MOL0     H 8205   0.424   6.134   9.544  1.4448 -1.0841  2.2847
  802MOL0     H 8206   0.529   6.187   9.413  3.1506 -1.0991 -0.8588
  802MOL0     H 8207   0.551   5.951   9.496 -2.8236  1.0798 -1.6781
  802MOL0     H 8208   0.703   6.068   9.484  1.2353  6.4370  6.6085
  802MOL0     H 8209   0.727   6.068   9.720  2.2869  1.0922 -4.5758
  802MOL0     H 8210   0.562   6.003   9.748  2.6556 -1.1767  2.9155
  802MOL0     H 8211   0.660   5.794   9.633 -0.6550 -0.9618  1.4297
  802MOL0     H 8212   0.813   5.871   9.638 -0.3142  1.3095  0.0016
  802MOL0     H 8213   0.625   5.836   9.897 -1.2903 -0.4444 -0.7306
  802MOL0     H 8214   0.736   5.715   9.836 -2.2994 -0.7619 -1.3946
  802MOL0     H 8215   0.919   5.895   9.865  0.0664 -3.4748  0.2965
  802MOL0     H 8216   0.804   5.997   9.959 -1.6358  0.7852 -0.6903
  802MOL0     H 8217   0.760   5.796  10.098 -0.4251  0.4534  0.1168
  802MOL0     H 8218   0.905   5.725  10.030  0.7270 -0.0809  0.0855
  802MOL0     H 8219   0.900   5.983  10.174  0.5208  0.2668  0.6598
  802MOL0     H 8220   1.038   5.906  10.078  0.8570 -0.8634  1.2712
  802MOL0     H 8221   1.122   5.994  10.350  2.7943 -0.6670 -0.6415
  802MOL0     H 8222   1.258   5.898  10.552 -2.5935  0.0903  1.7041
  802MOL0     H 8223   1.186   5.739  10.611 -1.6113 -0.8698 -1.2721
  802MOL0     H 8224   1.422   5.777  10.416  0.0287 -0.4725 -0.2457
  802MOL0     H 8225   1.347   5.620  10.453 -0.9499 -0.0521  0.1665
  802MOL0     H 8226   1.527   5.628  10.601 -3.0529 -2.2285  0.1299
  802MOL0     H 8227   1.400   5.687  10.705  3.3528  1.4404  2.1554
  802MOL0     H 8228   1.518   5.860  10.762 -1.0690 -0.1324 -0.5657
  802MOL0     H 8229   1.465   5.924  10.612 -2.3424 -0.8149  2.4477
  802MOL0     H 8230   1.861   5.712  10.522 -1.0489  0.0532 -0.2109
  802MOL0     H 8231   2.063   5.536  10.644  2.2151 -0.8206  0.1754
  802MOL0     H 8232   2.100   5.666  10.518  2.7675  3.5194  0.1573
  802MOL0     H 8233   2.190   5.650  10.667 -0.8683 -1.6981  0.9660
  802MOL0     H 8234   2.074   5.773  11.245 -0.4111 -1.6696 -0.0982
  802MOL0     H 8235   2.240   5.735  11.452  0.0181 -1.1548 -0.3347
  802MOL0     H 8236   2.650   5.605  11.379 -0.8666 -0.4854  0.6683
  802MOL0     H 8237   2.592   5.779  11.349 -0.5175 -1.9257 -3.0207
  802MOL0     H 8238   2.618   5.819  11.587  3.5236  2.2953 -1.2876
  802MOL0     H 8239   2.606   5.655  11.625 -0.9252 -0.0036 -1.2808
  802MOL0     H 8240   2.834   5.629  11.494  0.5901 -0.4233  1.2719
  802MOL0     H 8241   2.834   5.727  11.645 -0.3148  1.0107  0.5564
  802MOL0     H 8242   2.824   5.866  11.375 -1.0337 -0.0827 -0.2313
  802MOL0     H 8243   2.795   5.930  11.540 -0.0644 -2.1200  1.8579
  802MOL0     H 8244   3.047   5.750  11.501 -0.3893 -0.4161 -2.2906
  802MOL0     H 8245   3.022   5.898  11.595 -0.4239  0.6296 -0.2061
  802MOL0     H 8246   3.023   6.012  11.347  1.0708  1.4754 -1.0044
  802MOL0     H 8247   3.168   5.943  11.416 -0.8307 -0.5358  3.5100
  802MOL0     H 8248   2.982   5.841  11.194 -0.2063 -1.1825  0.9302
  802MOL0     H 8249   3.117   5.749  11.247  1.9422  0.4540 -1.7119
  802MOL0     H 8250   3.162   6.038  11.175 -0.4502 -0.7697  2.3352
  802MOL0     H 8251   3.171   5.915  11.053 -2.1757  2.1734 -0.6961
  802MOL0     H 8252   2.523   5.589  11.173  0.9655  1.8560  0.5809
  802MOL0     H 8253   2.375   5.635  10.983  0.6381  0.0895  0.2346
  802MOL0     H 8254   1.874   5.870  10.985 -1.5369  1.8324 -0.7267
  802MOL0     H 8255   1.684   5.910  10.851  0.1175  0.8577 -1.3168
  802MOL0     H 8256   0.511   6.504   9.586  0.8417  0.5329  0.6855
  802MOL0     H 8257   0.326   6.629   9.684  0.3324  0.3880 -1.4293
  802MOL0     H 8258   0.016   6.607  10.062 -1.5037 -0.0798  0.3206
  802MOL0     H 8259  -0.153   6.704  10.185  1.1735 -2.6884  0.3954
  802MOL0     H 8260  -0.408   6.679  10.134  0.6155  0.5041  4.4065
  802MOL0     H 8261  -0.464   6.814  10.226 -2.8120  0.9803 -0.9091
  802MOL0     H 8262  -0.655   6.690  10.091 -1.7400  0.1312 -1.7035
  802MOL0     H 8263  -0.571   6.746   9.941  1.9626  0.7037 -0.7045
  802MOL0     H 8264  -0.601   6.962   9.974  0.0195 -1.2342 -0.7169
  802MOL0     H 8265  -0.654   6.946  10.142  1.9288 -1.2857  0.4001
  802MOL0     H 8266  -0.873   6.973  10.036 -0.6169 -0.5914  1.4491
  802MOL0     H 8267  -0.870   6.815  10.060 -1.4355  0.1852 -2.3163
  802MOL0     H 8268  -0.843   6.745   9.665 -6.1854  2.5434 -1.2972
  802MOL0     H 8269  -0.306   6.890   9.814  0.2834 -0.7237 -1.7091
  802MOL0     H 8270  -0.140   6.768   9.702 -0.3087 -2.0812 -0.2114
  803MOL0     O 8271  11.291   0.070  10.277  1.0275  0.4292  0.1684
  803MOL0     C 8272  11.203   0.040  10.358 -0.1546 -0.6696 -0.5974
  803MOL0     O 8273  11.099   0.122  10.387  0.4390  0.5879  0.0073
  803MOL0     C 8274  11.070   0.239  10.323  0.5461  1.1808 -0.0046
  803MOL0     C 8275  10.958   0.247  10.233  0.8029  0.2997 -1.0414
  803MOL0     C 8276  10.904   0.361  10.178 -0.1027  0.6747 -0.4449
  803MOL0     C 8277  10.959   0.483  10.224 -0.3482  0.7615 -0.0935
  803MOL0     O 8278  10.917   0.597  10.168  0.0082  0.2328 -0.3279
  803MOL0     C 8279  10.944   0.718  10.230 -0.0404  0.6296  0.6159
  803MOL0     C 8280  10.828   0.803  10.184  0.3291 -0.0918 -0.3011
  803MOL0     C 8281  10.808   0.928  10.267  0.3410  0.5988 -0.4249
  803MOL0     C 8282  10.937   1.010  10.283  0.0869 -0.5256  0.0561
  803MOL0     C 8283  10.912   1.150  10.342 -0.2442 -0.8385 -0.3815
  803MOL0     C 8284  11.035   1.244  10.360 -0.3049  0.7109 -0.5437
  803MOL0     C 8285  10.983   1.380  10.389  0.1088  0.1200  0.5111
  803MOL0     C 8286  11.091   1.482  10.398 -0.2320  0.0405 -0.0325
  803MOL0     N 8287  11.031   1.617  10.406 -0.0219 -0.2266  0.0965
  803MOL0     C 8288  10.996   1.677  10.526  0.3711 -0.1462  0.6259
  803MOL0     C 8289  10.921   1.788  10.484 -0.4840  0.2263 -0.5813
  803MOL0     C 8290  10.840   1.878  10.570 -0.8036 -0.3637 -0.2431
  803MOL0     C 8291  10.698   1.841  10.593 -0.6126 -0.4989  0.0157
  803MOL0     C 8292  10.701   1.728  10.690  0.7971 -1.0654 -0.5160
  803MOL0     C 8293  10.567   1.677  10.732  0.2175  0.9423  0.1463
  803MOL0     O 8294  10.504   1.765  10.831 -0.2625  0.0596  0.6808
  803MOL0     C 8295  10.398   1.731  10.915  0.7678 -0.2772 -0.2160
  803MOL0     C 8296  10.363   1.608  10.952  0.2641 -0.3708  0.6591
  803MOL0     C 8297  10.249   1.566  11.016 -0.1967 -0.3262 -0.0600
  803MOL0     C 8298  10.216   1.416  11.036 -0.0636  0.3082  0.1453
  803MOL0     C 8299  10.156   1.670  11.054 -0.2825 -0.9578  0.4582
  803MOL0     C 8300  10.020   1.651  11.125 -0.0570 -0.0895  0.1448
  803MOL0     O 8301   9.959   1.526  11.129  0.0761 -0.7125  0.2779
  803MOL0     C 8302   9.820   1.515  11.157 -0.8520 -0.3400  0.0747
  803MOL0     C 8303   9.779   1.413  11.246  0.4417  0.3752  0.0329
  803MOL0     C 8304   9.642   1.404  11.284  0.0025  0.1542 -0.0776
  803MOL0     C 8305   9.546   1.499  11.234 -0.5665 -0.4297 -0.4790
  803MOL0     O 8306   9.425   1.512  11.295  0.6139 -0.8426  0.0928
  803MOL0     C 8307   9.301   1.508  11.212 -0.8513  0.1850 -0.6832
  803MOL0     C 8308   9.195   1.592  11.287  0.3507 -0.4840  1.1321
  803MOL0     C 8309   9.138   1.508  11.400 -0.5178 -0.4740  0.1659
  803MOL0     C 8310   9.030   1.575  11.480  0.5862 -0.1700 -0.0575
  803MOL0     C 8311   8.983   1.492  11.601 -0.1491 -0.0967 -0.8286
  803MOL0     C 8312   8.882   1.562  11.685 -0.4942  0.3289 -0.8570
  803MOL0     C 8313   8.841   1.479  11.812 -0.0364  0.8244 -0.4845
  803MOL0     C 8314   8.698   1.484  11.854 -0.1526 -0.6492 -0.7217
  803MOL0    Cl 8315   8.699   1.378  11.992  0.3611 -0.1237 -0.2405
  803MOL0     C 8316   9.587   1.601  11.152  0.2781  0.4546 -0.4903
  803MOL0     C 8317   9.720   1.599  11.108 -0.7085  0.0202 -0.6064
  803MOL0     O 8318   9.960   1.749  11.168 -0.8730  0.3324 -0.1285
  803MOL0     C 8319  10.197   1.808  11.026 -0.3209 -0.6423  0.8247
  803MOL0     C 8320  10.311   1.833  10.950  0.1800 -0.3244  0.8850
  803MOL0     N 8321  10.909   1.789  10.344  0.2541 -0.6739 -0.7221
  803MOL0     N 8322  10.977   1.687  10.298  0.0894  0.2283  0.4622
  803MOL0     C 8323  11.065   0.475  10.317 -0.2167  0.0208  0.5208
  803MOL0     C 8324  11.131   0.357  10.355 -0.1268 -0.6749  0.3176
  803MOL0     C 8325  11.206  -0.095  10.421  0.2754 -0.1629  0.0881
  803MOL0     C 8326  11.147  -0.124  10.546  0.4374  0.1136 -0.9600
  803MOL0     C 8327  11.168  -0.244  10.612  0.0068  0.9310 -0.1584
  803MOL0     C 8328  11.258  -0.331  10.563 -0.9236  0.0200 -0.6879
  803MOL0     O 8329  11.259  -0.447  10.641  0.0919  0.3904 -0.0100
  803MOL0     C 8330  11.347  -0.558  10.591  0.1817 -0.0337  0.6877
  803MOL0     C 8331  11.275  -0.650  10.497 -1.4959 -0.1665  0.2361
  803MOL0     C 8332  11.197  -0.763  10.565  0.4058  0.2124 -0.4463
  803MOL0     C 8333  11.267  -0.903  10.536  0.2941 -0.3509  0.1481
  803MOL0     C 8334  11.230  -1.021  10.607 -0.3777 -0.0742  0.5409
  803MOL0     C 8335  11.202  -1.102  10.694  0.4861  0.9210  0.2976
  803MOL0     C 8336  11.316  -0.305  10.433 -0.7186  0.2903  0.4746
  803MOL0     C 8337  11.289  -0.192  10.361 -0.4169 -0.2995 -0.1891
  803MOL0     H 8338  10.912   0.155  10.200 -1.0756  1.3813 -1.5788
  803MOL0     H 8339  10.813   0.363  10.120 -2.8109  1.0768  3.4660
  803MOL0     H 8340  10.936   0.705  10.339 -1.7015  1.0831  0.5676
  803MOL0     H 8341  11.042   0.755  10.199 -1.3350 -0.4248 -6.0668
  803MOL0     H 8342  10.839   0.833  10.079 -0.2795 -0.8757 -0.5967
  803MOL0     H 8343  10.732   0.753  10.193 -0.2246  1.2600  1.9800
  803MOL0     H 8344  10.739   0.989  10.209 -0.2485  0.8978  0.5728
  803MOL0     H 8345  10.761   0.914  10.364 -0.0044  4.3709  0.1062
  803MOL0     H 8346  11.004   0.956  10.351 -0.9031 -1.9502 -0.0684
  803MOL0     H 8347  10.997   1.013  10.192  3.0343  1.0950  1.8746
  803MOL0     H 8348  10.838   1.203  10.281  1.7017  0.4891 -1.7268
  803MOL0     H 8349  10.877   1.138  10.445 -4.1832 -1.0947 -1.5841
  803MOL0     H 8350  11.109   1.201  10.430  2.0219 -0.1904 -3.3574
  803MOL0     H 8351  11.082   1.246  10.262  2.6970  0.5130  0.7833
  803MOL0     H 8352  10.912   1.407  10.310  0.2984 -0.7362  0.0425
  803MOL0     H 8353  10.934   1.376  10.487 -4.1587 -0.3044 -1.4217
  803MOL0     H 8354  11.142   1.470  10.302 -2.3126 -1.5317 -1.0207
  803MOL0     H 8355  11.161   1.472  10.482  1.2769 -0.7573 -1.3352
  803MOL0     H 8356  11.010   1.641  10.628 -3.7920  0.2825  1.5123
  803MOL0     H 8357  10.894   1.882  10.666 -0.0281 -1.4547 -0.6204
  803MOL0     H 8358  10.841   1.979  10.528 -2.4201  0.6113  1.8811
  803MOL0     H 8359  10.651   1.826  10.496  3.1855  1.8698 -2.4622
  803MOL0     H 8360  10.643   1.922  10.641 -2.6652 -2.1460  0.5601
  803MOL0     H 8361  10.760   1.741  10.781 -0.5351 -0.5527  0.2935
  803MOL0     H 8362  10.744   1.639  10.644 -2.7189 -4.4918  2.1721
  803MOL0     H 8363  10.580   1.578  10.777  1.5977  0.1930 -1.7746
  803MOL0     H 8364  10.498   1.673  10.648  1.5376 -1.5652 -0.9317
  803MOL0     H 8365  10.420   1.528  10.905  1.7749  0.3759  1.1674
  803MOL0     H 8366  10.117   1.399  10.994 -0.9135  0.8623  1.8619
  803MOL0     H 8367  10.292   1.359  10.981 -2.2961 -1.0791 -1.6806
  803MOL0     H 8368  10.221   1.383  11.140  0.4184  0.8579  0.3042
  803MOL0     H 8369   9.850   1.343  11.288 -0.7890  0.3403  2.2603
  803MOL0     H 8370   9.605   1.322  11.345 -6.9455  3.7861  1.7550
  803MOL0     H 8371   9.317   1.548  11.111  4.0553  2.1798  0.5741
  803MOL0     H 8372   9.266   1.405  11.200 -0.1266 -0.2376  0.6005
  803MOL0     H 8373   9.232   1.691  11.315 -1.1850  1.0748 -1.9017
  803MOL0     H 8374   9.117   1.615  11.214  2.4277 -0.1217 -1.0871
  803MOL0     H 8375   9.228   1.477  11.455 -0.3673 -1.1293 -0.4406
  803MOL0     H 8376   9.100   1.414  11.357 -1.4333 -0.3732  0.7209
  803MOL0     H 8377   9.072   1.669  11.515  0.3818 -0.8887  2.2694
  803MOL0     H 8378   8.937   1.595  11.425 -0.5707  0.6005  2.0897
  803MOL0     H 8379   9.072   1.475  11.662 -0.5293 -0.7420 -0.4497
  803MOL0     H 8380   8.940   1.394  11.579 -1.9131  0.7833 -1.5386
  803MOL0     H 8381   8.935   1.654  11.713 -0.1151  0.0059 -0.4788
  803MOL0     H 8382   8.796   1.586  11.623  0.3962  1.8718 -1.5753
  803MOL0     H 8383   8.899   1.513  11.898 -0.2128  0.1920 -0.1068
  803MOL0     H 8384   8.880   1.378  11.793  2.8669  1.8936 -0.6505
  803MOL0     H 8385   8.631   1.447  11.776 -3.6198 -3.4894  3.1207
  803MOL0     H 8386   8.662   1.583  11.882  0.6312 -0.4638 -0.3249
  803MOL0     H 8387   9.521   1.681  11.122  2.2608  2.1638 -0.4880
  803MOL0     H 8388   9.734   1.677  11.034  1.7750 -0.5556 -0.8382
  803MOL0     H 8389  10.137   1.898  11.034  1.1974  0.3442  1.6335
  803MOL0     H 8390  10.341   1.933  10.920 -2.9829  0.3157 -0.5158
  803MOL0     H 8391  11.115   0.561  10.361  1.0039 -0.3350 -0.1434
  803MOL0     H 8392  11.218   0.369  10.418  0.6269  1.1025 -0.9656
  803MOL0     H 8393  11.076  -0.053  10.587  0.2050  0.4874 -1.9806
  803MOL0     H 8394  11.110  -0.265  10.701  0.9626 -0.0814  0.2404
  803MOL0     H 8395  11.428  -0.515  10.531 -0.0586 -0.8361 -0.2239
  803MOL0     H 8396  11.400  -0.604  10.675 -0.8944 -0.3439  1.2160
  803MOL0     H 8397  11.352  -0.697  10.434 -0.6031  0.9512  0.4660
  803MOL0     H 8398  11.217  -0.578  10.439  1.3441  0.5837 -1.9314
  803MOL0     H 8399  11.096  -0.751  10.524  0.4148 -0.7949 -0.7662
  803MOL0     H 8400  11.190  -0.769  10.674  1.5649 -4.6439 -0.4420
  803MOL0     H 8401  11.376  -0.904  10.547  0.1694 -3.8603  2.5222
  803MOL0     H 8402  11.265  -0.934  10.431  0.3756 -3.2760  0.9353
  803MOL0     H 8403  11.153  -1.166  10.765 -0.4668  0.0600 -1.0940
  803MOL0     H 8404  11.376  -0.383  10.387  0.2738  2.3415 -1.9080
  803MOL0     H 8405  11.324  -0.167  10.261 -2.9139  4.1503 -0.2092
  804MOL0     O 8406   8.718   3.419   3.266 -0.9534 -0.0075 -0.1787
  804MOL0     C 8407   8.743   3.491   3.168 -0.4774 -0.1522 -0.3280
  804MOL0     O 8408   8.673   3.601   3.132  0.5973  0.0291  0.9121
  804MOL0     C 8409   8.557   3.639   3.183 -0.1816 -0.1442  0.6652
  804MOL0     C 8410   8.440   3.628   3.103 -1.0043 -0.6072  0.7466
  804MOL0     C 8411   8.313   3.649   3.152 -0.3469  1.2450  0.1857
  804MOL0     C 8412   8.293   3.670   3.293 -0.4663 -1.0491 -0.3100
  804MOL0     O 8413   8.174   3.694   3.355  0.1606 -0.7344 -0.6735
  804MOL0     C 8414   8.065   3.599   3.320 -0.0912  0.0823 -0.3496
  804MOL0     C 8415   7.941   3.622   3.392 -0.2230 -1.0132  0.5418
  804MOL0     C 8416   7.863   3.752   3.364 -0.2957 -0.3616  0.5272
  804MOL0     C 8417   7.947   3.885   3.372 -1.0064 -0.5724 -0.0356
  804MOL0     C 8418   7.859   4.014   3.404  0.6741 -0.1022 -0.5457
  804MOL0     C 8419   7.943   4.148   3.395  0.0284  0.3059 -0.5542
  804MOL0     C 8420   8.023   4.161   3.267  0.0938  0.1879  0.6503
  804MOL0     C 8421   8.044   4.310   3.230  0.0799  0.2675  0.9242
  804MOL0     N 8422   7.922   4.374   3.177 -0.1518  0.4648  0.7130
  804MOL0     C 8423   7.838   4.453   3.247 -0.1767 -0.0947  0.1048
  804MOL0     C 8424   7.744   4.503   3.160  0.2197  1.2765 -0.3633
  804MOL0     C 8425   7.648   4.611   3.179  0.3355 -0.1128 -0.6709
  804MOL0     C 8426   7.498   4.574   3.154  0.0919  0.2683  0.0235
  804MOL0     C 8427   7.395   4.691   3.134  0.4012 -0.4484  0.1810
  804MOL0     C 8428   7.392   4.783   3.257  0.5513  0.0366  0.6125
  804MOL0     O 8429   7.260   4.839   3.243  0.5263 -0.4096  0.6705
  804MOL0     C 8430   7.147   4.789   3.303 -0.9796  0.7655 -0.6791
  804MOL0     C 8431   7.046   4.877   3.305 -0.3177 -0.8808 -0.3027
  804MOL0     C 8432   6.919   4.834   3.342 -0.0330  0.4434 -1.1449
  804MOL0     C 8433   6.813   4.946   3.360  0.3607  0.1418  1.2190
  804MOL0     C 8434   6.898   4.703   3.411 -0.3744 -0.0839 -0.4965
  804MOL0     C 8435   6.771   4.639   3.472 -0.6353  0.6296 -0.6791
  804MOL0     O 8436   6.657   4.652   3.410 -0.1570 -0.1354  0.0471
  804MOL0     C 8437   6.576   4.537   3.395 -0.4868  0.2113 -1.4561
  804MOL0     C 8438   6.614   4.398   3.384 -0.1222 -0.6881  0.2656
  804MOL0     C 8439   6.508   4.301   3.386 -1.3456 -0.2152 -0.2802
  804MOL0     C 8440   6.378   4.343   3.412 -0.1691 -0.5975 -0.0424
  804MOL0     O 8441   6.271   4.255   3.433  0.4261 -0.5151  0.1509
  804MOL0     C 8442   6.284   4.131   3.506  0.3954  0.0119 -1.1237
  804MOL0     C 8443   6.149   4.057   3.515  0.1880  0.9872  0.3050
  804MOL0     C 8444   6.050   4.131   3.596  0.2799  0.3428 -0.1905
  804MOL0     C 8445   5.956   4.209   3.515 -0.6309 -0.6762 -0.7218
  804MOL0     C 8446   5.866   4.284   3.614 -0.3480  0.2759  0.6860
  804MOL0     C 8447   5.748   4.360   3.548  0.4753 -0.0908 -0.3323
  804MOL0     C 8448   5.789   4.499   3.485 -0.3760  0.5610 -0.2020
  804MOL0     C 8449   5.685   4.546   3.386 -0.2699  0.2835  0.0639
  804MOL0    Cl 8450   5.683   4.431   3.240 -0.4070 -0.0898  0.4256
  804MOL0     C 8451   6.338   4.473   3.404  0.1313 -0.2385 -0.3032
  804MOL0     C 8452   6.442   4.572   3.397  0.3837  0.0501 -1.3655
  804MOL0     O 8453   6.789   4.580   3.579 -0.3389 -0.1062 -0.2854
  804MOL0     C 8454   7.007   4.617   3.410 -0.0267 -0.2960  0.0873
  804MOL0     C 8455   7.128   4.653   3.356 -0.0513 -1.1414  0.7392
  804MOL0     N 8456   7.790   4.457   3.035 -0.4422 -0.1008 -0.4285
  804MOL0     N 8457   7.894   4.377   3.041 -0.4843  0.8800 -0.5317
  804MOL0     C 8458   8.412   3.677   3.374  0.3029  1.1584 -0.5670
  804MOL0     C 8459   8.544   3.653   3.321  0.1933 -0.2754  0.4305
  804MOL0     C 8460   8.870   3.467   3.090 -0.8012  0.5657 -0.1912
  804MOL0     C 8461   8.901   3.512   2.959  0.3746 -0.9333  0.3385
  804MOL0     C 8462   9.019   3.477   2.898  0.5612 -0.5019 -0.1638
  804MOL0     C 8463   9.120   3.402   2.955  1.0967 -0.4416 -1.6897
  804MOL0     O 8464   9.246   3.391   2.898  0.0076 -0.0132  0.6253
  804MOL0     C 8465   9.320   3.269   2.924  0.7113 -0.4695 -0.4249
  804MOL0     C 8466   9.456   3.278   2.869  0.3135  0.6070 -0.4942
  804MOL0     C 8467   9.533   3.160   2.868 -0.7393 -0.3720  0.2195
  804MOL0     C 8468   9.457   3.036   2.817  0.1516  0.4741  0.3306
  804MOL0     C 8469   9.540   2.919   2.801 -0.4623  0.8527 -1.3036
  804MOL0     C 8470   9.623   2.823   2.817 -0.3439  0.2283  0.2200
  804MOL0     C 8471   9.089   3.343   3.081  0.2422  0.8556  0.2694
  804MOL0     C 8472   8.971   3.376   3.151  0.2960 -0.5630 -0.4142
  804MOL0     H 8473   8.452   3.587   3.003 -2.7247 -1.6883  0.9241
  804MOL0     H 8474   8.228   3.651   3.085 -0.8566  1.6033  0.8373
  804MOL0     H 8475   8.045   3.601   3.212  1.5943 -1.5267 -0.7472
  804MOL0     H 8476   8.095   3.498   3.349  2.3318  1.6759  3.3706
  804MOL0     H 8477   7.876   3.541   3.359 -0.2056 -1.0554  0.6123
  804MOL0     H 8478   7.964   3.609   3.498  2.5316 -0.0791  0.1602
  804MOL0     H 8479   7.819   3.754   3.264 -0.7029  0.4342  0.7136
  804MOL0     H 8480   7.776   3.765   3.429  0.2098  1.1324  0.9378
  804MOL0     H 8481   8.023   3.883   3.451  1.1120  0.7134 -1.9245
  804MOL0     H 8482   8.012   3.883   3.285  0.3079 -2.5749  0.9391
  804MOL0     H 8483   7.771   4.017   3.338  0.4201  1.8277 -0.1907
  804MOL0     H 8484   7.822   4.014   3.506  1.8809  1.6557 -0.0653
  804MOL0     H 8485   7.878   4.234   3.410 -0.3256  0.2081 -1.4844
  804MOL0     H 8486   8.014   4.139   3.478 -1.4850 -2.9045  0.5796
  804MOL0     H 8487   8.118   4.108   3.279  0.2964  0.7411  1.6207
  804MOL0     H 8488   7.961   4.133   3.182 -0.3194 -2.1906  1.6759
  804MOL0     H 8489   8.124   4.317   3.156 -0.5707 -2.0969 -0.1266
  804MOL0     H 8490   8.082   4.362   3.318  1.6030  0.3095  0.2758
  804MOL0     H 8491   7.864   4.484   3.348  3.7229  1.5648 -1.2267
  804MOL0     H 8492   7.661   4.642   3.283 -0.2577  3.2085 -1.4750
  804MOL0     H 8493   7.692   4.686   3.114  0.1054  1.3211  0.7539
  804MOL0     H 8494   7.458   4.503   3.226 -0.6455 -1.1605 -1.7105
  804MOL0     H 8495   7.505   4.522   3.058  1.5570 -0.1373  0.3197
  804MOL0     H 8496   7.296   4.646   3.118 -0.6345  1.7236  0.1302
  804MOL0     H 8497   7.412   4.753   3.046 -1.4670 -0.1002  0.0215
  804MOL0     H 8498   7.474   4.855   3.258 -0.2223  0.9353  0.6416
  804MOL0     H 8499   7.397   4.720   3.346 -2.2900 -3.8704 -1.6855
  804MOL0     H 8500   7.062   4.977   3.269  1.8496 -1.8822 -2.3827
  804MOL0     H 8501   6.748   4.925   3.446 -1.1853 -2.7514 -0.5156
  804MOL0     H 8502   6.849   5.049   3.375 -1.9117  0.8083  2.5992
  804MOL0     H 8503   6.755   4.941   3.268 -0.9882  0.5377  2.0263
  804MOL0     H 8504   6.717   4.366   3.375  1.1132  1.7088  3.7242
  804MOL0     H 8505   6.532   4.198   3.360 -0.6929  0.1025 -0.9683
  804MOL0     H 8506   6.353   4.064   3.454  1.1868  0.2414 -0.3846
  804MOL0     H 8507   6.323   4.155   3.605  1.6725  0.8589 -1.8067
  804MOL0     H 8508   6.111   4.033   3.415 -0.4829  1.4034  0.4551
  804MOL0     H 8509   6.164   3.961   3.565 -3.3859  0.7476  1.1646
  804MOL0     H 8510   6.099   4.195   3.669 -1.2681 -0.6771  1.8693
  804MOL0     H 8511   5.990   4.052   3.644  0.3979  0.0826 -0.4688
  804MOL0     H 8512   6.020   4.290   3.478 -0.2399 -0.4778  0.3572
  804MOL0     H 8513   5.906   4.153   3.435 -0.1303  0.8245 -2.1346
  804MOL0     H 8514   5.919   4.355   3.678 -0.7849  0.3437  0.9842
  804MOL0     H 8515   5.831   4.207   3.683 -1.3414  0.4395  0.3915
  804MOL0     H 8516   5.688   4.305   3.475  0.8113  0.7323 -1.2596
  804MOL0     H 8517   5.686   4.376   3.636  1.8695  1.2261  0.4735
  804MOL0     H 8518   5.879   4.470   3.432 -1.4929 -2.8308 -0.5006
  804MOL0     H 8519   5.795   4.574   3.564 -1.6149  2.4642 -1.8030
  804MOL0     H 8520   5.711   4.645   3.347 -0.5783 -0.0563 -1.0597
  804MOL0     H 8521   5.584   4.556   3.425 -0.1158 -0.7282  0.7657
  804MOL0     H 8522   6.233   4.500   3.412 -0.2778 -2.2374  2.2407
  804MOL0     H 8523   6.404   4.673   3.400  1.8476  0.5923  0.2303
  804MOL0     H 8524   6.992   4.519   3.455 -1.3575 -0.2564 -0.2110
  804MOL0     H 8525   7.213   4.586   3.358  0.1390 -0.8925  1.1709
  804MOL0     H 8526   8.399   3.712   3.475 -2.8783  1.3734 -0.9521
  804MOL0     H 8527   8.637   3.643   3.377  0.6548  0.0543 -0.2617
  804MOL0     H 8528   8.830   3.586   2.923  1.9950 -0.7468 -2.7722
  804MOL0     H 8529   9.038   3.516   2.798  1.0152  2.0080  0.8355
  804MOL0     H 8530   9.322   3.232   3.027 -1.2645  0.7378  0.1108
  804MOL0     H 8531   9.254   3.198   2.873 -1.3535  1.6399 -0.8515
  804MOL0     H 8532   9.499   3.364   2.921 -0.4965  0.7667 -0.0736
  804MOL0     H 8533   9.441   3.295   2.762 -3.5226 -1.1748 -0.4124
  804MOL0     H 8534   9.573   3.131   2.966  0.5348  0.1518 -0.1309
  804MOL0     H 8535   9.622   3.175   2.806 -2.9852  0.6464 -3.0063
  804MOL0     H 8536   9.405   3.055   2.723  0.5660 -2.4057 -0.5447
  804MOL0     H 8537   9.379   3.004   2.887 -1.7990 -0.7650 -2.2522
  804MOL0     H 8538   9.684   2.735   2.822 -2.0748 -0.9589  4.2049
  804MOL0     H 8539   9.171   3.293   3.132  3.8766  1.1471 -4.5675
  804MOL0     H 8540   8.953   3.335   3.250  1.4437  3.5743  1.7086
  805MOL0     O 8541   6.749   7.236   4.076 -0.2959 -0.1658  0.0966
  805MOL0     C 8542   6.858   7.188   4.037 -0.0100 -0.1138  0.3028
  805MOL0     O 8543   6.922   7.207   3.915  0.4482  0.0861  0.2806
  805MOL0     C 8544   6.880   7.285   3.804 -0.7261 -0.0950 -0.4798
  805MOL0     C 8545   6.960   7.282   3.692 -0.9950  1.0190  0.0166
  805MOL0     C 8546   6.923   7.324   3.571 -0.7301  0.9859  0.5385
  805MOL0     C 8547   6.801   7.397   3.550 -0.9866  0.3238  0.1858
  805MOL0     O 8548   6.763   7.469   3.436 -0.8398 -0.8605 -0.2610
  805MOL0     C 8549   6.871   7.510   3.347 -0.5382 -0.1650 -1.0315
  805MOL0     C 8550   6.836   7.609   3.238  0.2452 -1.0699 -0.2654
  805MOL0     C 8551   6.941   7.581   3.127 -1.0861 -0.1755  0.5273
  805MOL0     C 8552   6.898   7.676   3.005 -0.0029  0.5242  0.1469
  805MOL0     C 8553   6.977   7.652   2.882  0.1668 -0.5474  0.3823
  805MOL0     C 8554   7.123   7.663   2.910 -0.9717 -0.0053  0.8002
  805MOL0     C 8555   7.208   7.681   2.783 -0.0783 -0.0592 -0.2783
  805MOL0     C 8556   7.185   7.816   2.715 -0.4764 -0.9269 -0.0810
  805MOL0     N 8557   7.271   7.840   2.600  0.0313  0.0830  0.2205
  805MOL0     C 8558   7.407   7.861   2.601 -0.8532  0.0001 -0.0611
  805MOL0     C 8559   7.458   7.857   2.477  0.3692 -0.4235  0.1307
  805MOL0     C 8560   7.607   7.880   2.445 -0.1593 -0.3386  0.9398
  805MOL0     C 8561   7.637   8.031   2.397  0.0585 -0.1361  0.0335
  805MOL0     C 8562   7.767   8.094   2.456  0.9524  0.3702 -0.9475
  805MOL0     C 8563   7.771   8.250   2.415  0.2135  0.4503 -0.3793
  805MOL0     O 8564   7.824   8.262   2.280 -0.1670 -0.1991 -0.6062
  805MOL0     C 8565   7.946   8.318   2.284 -0.5757  0.0429 -0.1717
  805MOL0     C 8566   7.982   8.443   2.232  0.4840 -0.2404 -0.0065
  805MOL0     C 8567   8.117   8.488   2.229  0.2198 -0.6723 -0.0607
  805MOL0     C 8568   8.145   8.637   2.174 -0.4660  0.7686 -0.5769
  805MOL0     C 8569   8.221   8.404   2.281  0.2561  0.9227 -0.1539
  805MOL0     C 8570   8.360   8.439   2.293 -0.0499  0.3026  0.2732
  805MOL0     O 8571   8.403   8.522   2.184 -0.0922 -0.7009 -0.0458
  805MOL0     C 8572   8.528   8.573   2.190  0.7508 -0.1364  0.3710
  805MOL0     C 8573   8.634   8.517   2.129 -0.7423  0.0246  0.2715
  805MOL0     C 8574   8.764   8.566   2.134 -0.0380 -0.0605 -0.3980
  805MOL0     C 8575   8.787   8.691   2.200 -1.1046  0.6863  0.0323
  805MOL0     O 8576   8.906   8.746   2.208  0.8224  0.1534 -0.8919
  805MOL0     C 8577   9.018   8.683   2.153 -0.2639 -0.1558  0.5661
  805MOL0     C 8578   9.126   8.798   2.156  0.1912  0.0904  0.0118
  805MOL0     C 8579   9.149   8.832   2.308  0.5116 -0.1533 -0.2167
  805MOL0     C 8580   9.236   8.959   2.316 -0.0861 -0.6705 -0.4390
  805MOL0     C 8581   9.229   9.023   2.453 -0.0914 -0.0515 -0.3320
  805MOL0     C 8582   9.333   9.124   2.491  0.2232 -0.8258 -0.2259
  805MOL0     C 8583   9.471   9.062   2.529  0.4474  0.2951  0.1354
  805MOL0     C 8584   9.570   9.166   2.595  0.1442 -0.0883  0.9928
  805MOL0    Cl 8585   9.711   9.071   2.664 -0.3797  0.2403  0.0406
  805MOL0     C 8586   8.674   8.745   2.257  0.0541  0.2129  0.0564
  805MOL0     C 8587   8.545   8.696   2.248  0.2773  0.7123 -0.3875
  805MOL0     O 8588   8.437   8.383   2.380 -0.2038  0.4113  0.2047
  805MOL0     C 8589   8.179   8.288   2.338  1.8251  0.4057 -0.2524
  805MOL0     C 8590   8.052   8.242   2.335  0.9144 -0.6107  0.3759
  805MOL0     N 8591   7.344   7.853   2.393 -1.1394  0.0423  0.0211
  805MOL0     N 8592   7.234   7.840   2.463 -0.8966  0.3474  1.5186
  805MOL0     C 8593   6.722   7.409   3.667  0.1851 -0.4193  0.2422
  805MOL0     C 8594   6.756   7.348   3.792  0.1914  0.3146  0.0298
  805MOL0     C 8595   6.921   7.100   4.134 -0.7599  0.8461 -0.5535
  805MOL0     C 8596   7.054   7.043   4.127 -1.3402 -0.2524 -0.1197
  805MOL0     C 8597   7.104   6.954   4.224 -0.5644  0.2032 -1.0529
  805MOL0     C 8598   7.032   6.921   4.334  0.1092  0.2037 -0.2574
  805MOL0     O 8599   7.076   6.844   4.440 -0.2916  0.0739  0.9982
  805MOL0     C 8600   7.198   6.879   4.499  0.1787 -0.4389  0.6282
  805MOL0     C 8601   7.204   7.020   4.552 -0.3466  0.4469 -0.7376
  805MOL0     C 8602   7.123   7.034   4.683  0.8803  0.4146 -0.0142
  805MOL0     C 8603   7.079   7.169   4.715  0.9413  0.0175  0.8776
  805MOL0     C 8604   6.972   7.211   4.617 -0.3914 -0.0455 -0.5879
  805MOL0     C 8605   6.883   7.241   4.547 -0.8401 -0.2698  0.6721
  805MOL0     C 8606   6.908   6.977   4.351  0.3260 -1.4884  0.0467
  805MOL0     C 8607   6.851   7.067   4.263 -0.1933  0.1261  0.7570
  805MOL0     H 8608   7.056   7.234   3.706  0.6576  3.7823 -0.9771
  805MOL0     H 8609   6.998   7.306   3.495 -2.2921  3.0826 -1.6562
  805MOL0     H 8610   6.959   7.542   3.403 -1.1828 -0.6927  0.3176
  805MOL0     H 8611   6.888   7.414   3.296 -1.1400  0.6675 -2.8780
  805MOL0     H 8612   6.732   7.601   3.204 -1.6034 -0.3677  4.5042
  805MOL0     H 8613   6.842   7.713   3.272 -0.7246 -1.3247  0.7330
  805MOL0     H 8614   7.041   7.611   3.157 -2.1601  2.1795  2.0427
  805MOL0     H 8615   6.928   7.477   3.095 -2.2551 -1.0252  3.4090
  805MOL0     H 8616   6.792   7.669   2.980  0.6870 -0.4152 -2.9105
  805MOL0     H 8617   6.925   7.778   3.036 -0.0710  0.3326  0.8714
  805MOL0     H 8618   6.958   7.554   2.837 -3.7098  0.3648 -0.3107
  805MOL0     H 8619   6.926   7.712   2.806 -1.2909  0.2261  1.9127
  805MOL0     H 8620   7.153   7.733   2.988  0.7996 -0.4854  0.5920
  805MOL0     H 8621   7.155   7.566   2.947  0.2185 -0.2976 -0.8872
  805MOL0     H 8622   7.311   7.668   2.820  1.6531  2.7966 -3.5092
  805MOL0     H 8623   7.184   7.609   2.705 -0.3761  0.1665 -0.3953
  805MOL0     H 8624   7.198   7.894   2.791  0.0693 -2.6574  1.6830
  805MOL0     H 8625   7.080   7.809   2.688 -0.2600 -1.2853 -0.8442
  805MOL0     H 8626   7.484   7.874   2.676 -1.0504  2.7857 -0.2110
  805MOL0     H 8627   7.683   7.842   2.514  0.7846 -2.3750 -1.1058
  805MOL0     H 8628   7.618   7.822   2.353 -1.7257 -0.8830  1.0641
  805MOL0     H 8629   7.562   8.101   2.434  2.0443  2.2861 -0.2287
  805MOL0     H 8630   7.649   8.038   2.289  1.8656 -1.7153  0.0708
  805MOL0     H 8631   7.856   8.038   2.426  1.0894 -0.3362  0.6529
  805MOL0     H 8632   7.753   8.073   2.563 -2.0846  0.3071 -1.2748
  805MOL0     H 8633   7.840   8.280   2.494  1.9805  1.9803 -2.3765
  805MOL0     H 8634   7.673   8.295   2.434  1.2669  3.9266 -2.4194
  805MOL0     H 8635   7.907   8.501   2.180  0.3627 -0.9919 -0.6791
  805MOL0     H 8636   8.171   8.621   2.069  2.7170  0.5709  0.1220
  805MOL0     H 8637   8.060   8.706   2.179  0.1185  1.4446  0.4364
  805MOL0     H 8638   8.230   8.681   2.226 -0.1076 -1.0087  0.4197
  805MOL0     H 8639   8.628   8.423   2.075 -0.8266  1.6495 -2.8227
  805MOL0     H 8640   8.846   8.517   2.082  0.4674 -4.2611  3.7479
  805MOL0     H 8641   9.044   8.591   2.204 -0.7757 -0.2992  0.5779
  805MOL0     H 8642   8.988   8.675   2.048 -0.9381  0.2966  0.7135
  805MOL0     H 8643   9.212   8.761   2.099 -1.1260 -1.1784 -1.2658
  805MOL0     H 8644   9.089   8.892   2.113  2.9972  2.2704  2.0008
  805MOL0     H 8645   9.186   8.749   2.369  1.8209  0.2894 -0.3985
  805MOL0     H 8646   9.057   8.858   2.362  1.1491  1.6123  0.0686
  805MOL0     H 8647   9.340   8.932   2.292  0.8403  1.3909  0.9760
  805MOL0     H 8648   9.198   9.041   2.254  2.1475  1.2140  0.5093
  805MOL0     H 8649   9.222   8.948   2.532 -4.0225 -0.8825 -1.2535
  805MOL0     H 8650   9.133   9.075   2.450  0.0794  0.2699 -0.3667
  805MOL0     H 8651   9.336   9.200   2.412 -4.0512 -1.1135 -0.9389
  805MOL0     H 8652   9.297   9.183   2.576 -0.3446 -0.6242 -0.5996
  805MOL0     H 8653   9.507   8.998   2.448 -1.8591 -3.8715  2.1376
  805MOL0     H 8654   9.453   8.995   2.614 -1.8327 -1.6707 -1.7663
  805MOL0     H 8655   9.518   9.209   2.681 -0.5753 -1.4587  1.2679
  805MOL0     H 8656   9.613   9.242   2.530 -1.2888  0.3968  0.5843
  805MOL0     H 8657   8.685   8.842   2.304  0.6178 -0.6004  1.6713
  805MOL0     H 8658   8.458   8.757   2.269 -0.7038 -1.1034  1.1684
  805MOL0     H 8659   8.252   8.233   2.397  2.0409 -0.0285 -0.9081
  805MOL0     H 8660   8.030   8.147   2.382  2.0799 -1.6705 -1.1084
  805MOL0     H 8661   6.628   7.464   3.668 -0.4386 -1.4712  0.7376
  805MOL0     H 8662   6.685   7.349   3.875 -1.5926 -0.0275 -1.4242
  805MOL0     H 8663   7.127   7.049   4.047 -1.1925 -0.5276 -0.0065
  805MOL0     H 8664   7.201   6.904   4.222 -0.4474  0.4134 -0.6345
  805MOL0     H 8665   7.239   6.810   4.573 -0.1388  0.7722  1.9825
  805MOL0     H 8666   7.272   6.872   4.419 -0.3275 -1.1633  0.1986
  805MOL0     H 8667   7.176   7.104   4.488  3.6375  4.2153  1.8577
  805MOL0     H 8668   7.309   7.032   4.581  0.0572  0.7306 -2.2277
  805MOL0     H 8669   7.177   6.991   4.768  0.4574  2.3555  1.2960
  805MOL0     H 8670   7.041   6.962   4.685  1.3386 -0.1013  1.6233
  805MOL0     H 8671   7.170   7.229   4.713 -0.7475  2.7505  0.4757
  805MOL0     H 8672   7.050   7.160   4.820  0.6051  0.7902  0.8599
  805MOL0     H 8673   6.801   7.272   4.485 -0.5316 -0.0757  0.3545
  805MOL0     H 8674   6.855   6.953   4.443  1.6434 -0.3428  1.1593
  805MOL0     H 8675   6.753   7.112   4.280 -1.9421 -1.1738 -4.2164
  806MOL0     O 8676   7.649   6.580   8.607 -0.0075 -0.6419  0.3479
  806MOL0     C 8677   7.551   6.629   8.565 -0.3138  0.5416  0.4217
  806MOL0     O 8678   7.434   6.640   8.635  0.0096  0.3398 -0.8227
  806MOL0     C 8679   7.424   6.577   8.755  0.2388  0.8420  0.5700
  806MOL0     C 8680   7.462   6.440   8.767  0.1933 -0.9197  0.5361
  806MOL0     C 8681   7.455   6.375   8.886  1.3753  0.6294  0.3096
  806MOL0     C 8682   7.403   6.435   9.000 -0.1692  0.2735 -0.7024
  806MOL0     O 8683   7.401   6.345   9.106  0.1294 -0.2989 -0.4121
  806MOL0     C 8684   7.449   6.403   9.235  0.2045  0.5599  0.5447
  806MOL0     C 8685   7.594   6.388   9.242  0.5547  0.6864  0.3525
  806MOL0     C 8686   7.668   6.497   9.156  0.1742  0.7410  0.2914
  806MOL0     C 8687   7.809   6.479   9.189 -0.3714 -0.3054  0.9548
  806MOL0     C 8688   7.908   6.543   9.089 -0.1170 -0.2125  0.1280
  806MOL0     C 8689   7.935   6.462   8.954  0.6837 -0.1701 -0.3310
  806MOL0     C 8690   8.051   6.530   8.889  0.3164 -0.9040  0.4469
  806MOL0     C 8691   8.008   6.661   8.810 -0.5510  0.5171 -0.2797
  806MOL0     N 8692   8.113   6.703   8.712  0.0980 -0.4202 -0.2167
  806MOL0     C 8693   8.250   6.726   8.740  0.2456 -0.2514  0.2201
  806MOL0     C 8694   8.307   6.750   8.621  0.1847  0.1074  0.3928
  806MOL0     C 8695   8.458   6.785   8.606  0.9197  0.1598  0.0857
  806MOL0     C 8696   8.517   6.811   8.475 -0.7709 -0.2996 -0.5560
  806MOL0     C 8697   8.670   6.809   8.479 -0.6144  0.1886 -0.4184
  806MOL0     C 8698   8.739   6.808   8.338 -0.4975 -0.4130 -0.2937
  806MOL0     O 8699   8.884   6.813   8.356  0.8411 -0.6841 -0.0854
  806MOL0     C 8700   8.969   6.779   8.254 -0.4503 -1.3402 -0.8982
  806MOL0     C 8701   9.103   6.771   8.296  0.6818 -0.6339 -0.4093
  806MOL0     C 8702   9.199   6.718   8.207  0.2727  0.5032  0.2192
  806MOL0     C 8703   9.353   6.718   8.235 -0.8128  0.1568 -0.5997
  806MOL0     C 8704   9.144   6.662   8.083 -0.5422 -0.3251 -0.3617
  806MOL0     C 8705   9.222   6.576   7.995  0.1690  0.8052  0.5877
  806MOL0     O 8706   9.322   6.496   8.055 -0.5612 -0.3908 -0.2117
  806MOL0     C 8707   9.412   6.441   7.967 -0.1403  0.2256  0.6299
  806MOL0     C 8708   9.539   6.511   7.959  0.7520 -0.1110  0.6436
  806MOL0     C 8709   9.643   6.469   7.880  0.6249 -1.0075 -0.2158
  806MOL0     C 8710   9.626   6.344   7.809  0.4576 -0.1750  0.2360
  806MOL0     O 8711   9.713   6.286   7.718 -0.4692 -0.1414  0.2953
  806MOL0     C 8712   9.825   6.370   7.674 -0.0865  0.4852  0.6642
  806MOL0     C 8713   9.918   6.278   7.587 -0.2560  0.5709 -0.2475
  806MOL0     C 8714   9.953   6.147   7.641 -0.4890  0.1343 -0.0073
  806MOL0     C 8715   9.846   6.039   7.651 -0.3597 -0.1655  0.4920
  806MOL0     C 8716   9.816   6.002   7.794  0.0989  0.5306  0.2478
  806MOL0     C 8717   9.703   5.906   7.778  0.2363 -0.2050 -0.1796
  806MOL0     C 8718   9.690   5.838   7.919  0.4413 -0.5827  0.1301
  806MOL0     C 8719   9.575   5.748   7.935  0.8674  0.0317  0.5109
  806MOL0    Cl 8720   9.420   5.836   7.943  0.3423 -0.2234 -0.3199
  806MOL0     C 8721   9.515   6.261   7.845  0.6985 -0.3542  0.4161
  806MOL0     C 8722   9.404   6.310   7.914 -0.4085 -0.0250  0.3260
  806MOL0     O 8723   9.199   6.586   7.873  0.3068  0.2250 -0.1403
  806MOL0     C 8724   9.011   6.689   8.043  0.0251  0.4610  0.6915
  806MOL0     C 8725   8.927   6.755   8.128  0.5903 -0.2382 -0.0778
  806MOL0     N 8726   8.208   6.747   8.523 -0.0999 -0.7294 -0.1707
  806MOL0     N 8727   8.094   6.716   8.578 -0.3310  0.1968  0.0053
  806MOL0     C 8728   7.363   6.570   8.988 -0.6312  0.2916 -0.0345
  806MOL0     C 8729   7.368   6.635   8.865 -0.3010 -0.1117 -0.3339
  806MOL0     C 8730   7.549   6.689   8.433  0.0879  0.6798  0.0574
  806MOL0     C 8731   7.667   6.695   8.355  0.2956  0.1333  0.6667
  806MOL0     C 8732   7.671   6.756   8.229  0.7438 -0.4681 -0.7990
  806MOL0     C 8733   7.548   6.806   8.171 -0.3461  0.6551 -0.3910
  806MOL0     O 8734   7.543   6.878   8.052 -0.4099 -0.4296  0.1658
  806MOL0     C 8735   7.645   6.857   7.953  1.1457  0.2001 -0.2568
  806MOL0     C 8736   7.575   6.764   7.861 -0.0623  0.0543  0.4792
  806MOL0     C 8737   7.686   6.720   7.763  0.1140 -0.0272  0.1030
  806MOL0     C 8738   7.637   6.604   7.668  0.2543 -0.1555 -0.0129
  806MOL0     C 8739   7.738   6.575   7.561 -0.0136 -1.4835 -0.1250
  806MOL0     C 8740   7.840   6.583   7.491 -0.5222  0.4153  0.1811
  806MOL0     C 8741   7.431   6.793   8.245  0.7966  0.6720 -0.9245
  806MOL0     C 8742   7.429   6.731   8.370  0.4097  0.1272 -0.5881
  806MOL0     H 8743   7.491   6.383   8.679  0.4172  1.9991 -1.4139
  806MOL0     H 8744   7.475   6.269   8.880  2.6597  0.8658  0.1102
  806MOL0     H 8745   7.417   6.507   9.246  0.8783  0.9310 -0.7410
  806MOL0     H 8746   7.395   6.354   9.316  2.2880 -1.9629  0.5222
  806MOL0     H 8747   7.636   6.398   9.343 -1.1229  2.0849  0.9603
  806MOL0     H 8748   7.622   6.288   9.211 -0.0375 -0.7169  3.8511
  806MOL0     H 8749   7.657   6.471   9.051  2.6101  1.8689 -0.3163
  806MOL0     H 8750   7.628   6.596   9.178 -2.1952 -0.0320 -0.1977
  806MOL0     H 8751   7.823   6.523   9.288 -0.4434  2.2111 -0.0943
  806MOL0     H 8752   7.836   6.372   9.192  0.9055 -0.0215  0.4065
  806MOL0     H 8753   7.867   6.641   9.064  1.2032  0.1588 -0.6526
  806MOL0     H 8754   7.997   6.567   9.148 -1.5904 -0.8918  2.8225
  806MOL0     H 8755   7.962   6.360   8.984 -0.9866 -0.0429  1.7748
  806MOL0     H 8756   7.844   6.463   8.893  1.3099  1.7483 -1.3384
  806MOL0     H 8757   8.132   6.552   8.960  0.9844 -0.6877 -0.3680
  806MOL0     H 8758   8.085   6.459   8.813 -3.8489 -0.0067 -2.6189
  806MOL0     H 8759   8.005   6.744   8.880  0.6245  0.5756 -0.2773
  806MOL0     H 8760   7.908   6.647   8.768 -0.0817  1.6786 -1.8946
  806MOL0     H 8761   8.294   6.728   8.840 -2.5941 -0.4839  1.5964
  806MOL0     H 8762   8.482   6.876   8.663 -1.3274  0.7270  0.2160
  806MOL0     H 8763   8.515   6.719   8.673 -2.3772 -0.6987  2.2924
  806MOL0     H 8764   8.503   6.917   8.453 -0.4673 -0.1227  0.0615
  806MOL0     H 8765   8.472   6.751   8.396 -1.6694  2.6795 -2.4715
  806MOL0     H 8766   8.699   6.717   8.531  0.1882 -0.5043 -2.0337
  806MOL0     H 8767   8.701   6.894   8.541 -1.6201 -1.2907  2.3276
  806MOL0     H 8768   8.691   6.884   8.275  0.6443 -0.5937 -1.4144
  806MOL0     H 8769   8.724   6.706   8.302  3.3486 -1.1637 -0.2105
  806MOL0     H 8770   9.141   6.798   8.394  0.4008 -0.7331 -0.2748
  806MOL0     H 8771   9.409   6.766   8.155 -2.0517 -1.5841 -2.6215
  806MOL0     H 8772   9.373   6.758   8.335 -0.0177 -0.7345 -0.3886
  806MOL0     H 8773   9.391   6.616   8.247 -4.2185 -1.2813 -0.8550
  806MOL0     H 8774   9.551   6.608   8.007 -0.5667  0.6044 -0.3918
  806MOL0     H 8775   9.727   6.537   7.875 -0.2639  0.1881  0.5493
  806MOL0     H 8776   9.791   6.450   7.607 -3.6497 -1.0834  0.4154
  806MOL0     H 8777   9.886   6.428   7.744  1.4325  3.0583 -2.4530
  806MOL0     H 8778   9.863   6.262   7.494 -0.6011 -1.7853  0.3040
  806MOL0     H 8779  10.007   6.340   7.571  0.2831  0.3019  1.4613
  806MOL0     H 8780  10.001   6.161   7.738  1.7405  0.4044 -1.0828
  806MOL0     H 8781  10.028   6.114   7.568 -0.1490  2.3651 -0.7415
  806MOL0     H 8782   9.756   6.070   7.597  1.2465  3.0881 -0.5868
  806MOL0     H 8783   9.882   5.944   7.610  0.2013 -2.0653  4.7940
  806MOL0     H 8784   9.776   6.088   7.848 -0.3635 -1.2607  2.9401
  806MOL0     H 8785   9.899   5.958   7.850 -1.5518 -0.7054  1.8186
  806MOL0     H 8786   9.615   5.964   7.749  0.9565 -0.3981 -3.0367
  806MOL0     H 8787   9.721   5.833   7.698 -0.1509 -2.0391  1.3328
  806MOL0     H 8788   9.686   5.922   7.989  1.0180  1.2509 -1.9180
  806MOL0     H 8789   9.786   5.788   7.932  1.6187  1.2470 -1.0599
  806MOL0     H 8790   9.579   5.684   8.024 -1.3134 -1.3950 -0.3294
  806MOL0     H 8791   9.571   5.678   7.851 -3.0610  0.8696 -0.1884
  806MOL0     H 8792   9.515   6.160   7.805  0.8941  0.6862 -2.4160
  806MOL0     H 8793   9.317   6.250   7.939  0.0720 -0.7622  0.2510
  806MOL0     H 8794   8.969   6.645   7.953  3.7974  1.7790 -1.9619
  806MOL0     H 8795   8.826   6.776   8.095  1.1297 -1.8916 -3.1540
  806MOL0     H 8796   7.314   6.628   9.065 -2.2014 -0.6210 -0.3054
  806MOL0     H 8797   7.345   6.741   8.870  0.1909 -0.0525  2.9268
  806MOL0     H 8798   7.766   6.669   8.390  1.1769  0.6579 -1.2825
  806MOL0     H 8799   7.760   6.767   8.168  0.1532 -2.7962 -2.2222
  806MOL0     H 8800   7.653   6.956   7.906  1.1459 -0.6003 -2.0380
  806MOL0     H 8801   7.747   6.831   7.982  0.4036 -1.2280  1.2258
  806MOL0     H 8802   7.503   6.814   7.795 -0.8409 -0.3608  1.0067
  806MOL0     H 8803   7.534   6.683   7.921  1.6567 -1.2204  0.0085
  806MOL0     H 8804   7.779   6.702   7.817  0.2845  1.2057  0.2531
  806MOL0     H 8805   7.705   6.802   7.693 -1.2999 -2.1189 -2.9990
  806MOL0     H 8806   7.551   6.655   7.622 -0.3586 -0.7120  0.4863
  806MOL0     H 8807   7.607   6.511   7.717  0.2362  0.2037  0.6683
  806MOL0     H 8808   7.923   6.594   7.424 -0.1351 -1.2274  0.3589
  806MOL0     H 8809   7.345   6.835   8.193  0.6169  1.2235 -0.1951
  806MOL0     H 8810   7.332   6.736   8.416 -0.1133 -1.9869 -1.3557
  807MOL0     O 8811   7.041   5.930   7.580 -0.5192  0.2133 -0.7629
  807MOL0     C 8812   7.143   5.912   7.646  0.8040  0.6816  0.6519
  807MOL0     O 8813   7.269   5.954   7.622 -0.6098  1.0361  0.2444
  807MOL0     C 8814   7.289   6.050   7.522  0.0213 -0.3313 -0.4247
  807MOL0     C 8815   7.198   6.143   7.467  0.9735 -0.7664 -0.0882
  807MOL0     C 8816   7.234   6.233   7.371 -0.2353  0.8071 -0.6709
  807MOL0     C 8817   7.360   6.226   7.312 -0.8637  0.2301 -0.0432
  807MOL0     O 8818   7.384   6.314   7.207  0.1491 -0.9122  0.9525
  807MOL0     C 8819   7.505   6.325   7.139 -0.6282 -0.6158 -0.2660
  807MOL0     C 8820   7.604   6.409   7.226 -0.8603 -0.8449 -0.9182
  807MOL0     C 8821   7.752   6.425   7.179  0.0915 -0.7186 -0.9568
  807MOL0     C 8822   7.813   6.297   7.112 -0.2004 -0.1990  0.2138
  807MOL0     C 8823   7.944   6.324   7.044  0.2513  0.1040 -0.5158
  807MOL0     C 8824   7.974   6.217   6.935  0.5875 -1.3350 -0.8266
  807MOL0     C 8825   8.117   6.241   6.875  0.4239 -0.1287  0.1021
  807MOL0     C 8826   8.117   6.288   6.726 -0.0165 -0.2791  0.3188
  807MOL0     N 8827   8.106   6.432   6.731  0.1198 -0.6050 -0.5186
  807MOL0     C 8828   8.189   6.533   6.772 -0.0391 -0.8084 -0.1167
  807MOL0     C 8829   8.113   6.646   6.803 -0.8602 -0.2645 -0.2755
  807MOL0     C 8830   8.146   6.783   6.849  0.2141 -0.7020  0.7705
  807MOL0     C 8831   8.138   6.890   6.740  0.5075  0.1315  0.4723
  807MOL0     C 8832   8.250   6.880   6.631 -0.0393  0.2618 -0.2510
  807MOL0     C 8833   8.377   6.942   6.681 -0.1583  0.2019 -0.5269
  807MOL0     O 8834   8.459   6.856   6.771  0.1442 -0.3196  0.0997
  807MOL0     C 8835   8.583   6.907   6.799 -0.5478 -0.2320  0.3922
  807MOL0     C 8836   8.683   6.825   6.849 -0.9659 -0.0724  0.5711
  807MOL0     C 8837   8.816   6.870   6.860 -0.3675 -0.6771 -0.3908
  807MOL0     C 8838   8.916   6.764   6.902  0.1255 -0.4290 -0.0436
  807MOL0     C 8839   8.839   7.010   6.844  1.0203  0.2719  0.4007
  807MOL0     C 8840   8.982   7.080   6.866  0.8213 -0.7368 -0.2181
  807MOL0     O 8841   8.996   7.213   6.841  1.1143 -0.3878  0.4610
  807MOL0     C 8842   9.106   7.294   6.862 -0.4958  0.5240  0.4202
  807MOL0     C 8843   9.083   7.433   6.856  0.3410  1.0151 -0.1873
  807MOL0     C 8844   9.181   7.532   6.876  0.5610  0.4219 -0.4081
  807MOL0     C 8845   9.310   7.498   6.920  0.2548 -0.2617 -0.6754
  807MOL0     O 8846   9.397   7.594   6.950  0.8280 -1.2344 -0.2048
  807MOL0     C 8847   9.528   7.552   6.997  0.5549 -0.0248 -0.5772
  807MOL0     C 8848   9.625   7.678   6.997 -0.1681  0.2898  0.3454
  807MOL0     C 8849   9.767   7.653   7.069  0.3571  0.5905  0.2439
  807MOL0     C 8850   9.877   7.566   6.985  0.0991  0.2195  0.0023
  807MOL0     C 8851   9.957   7.641   6.880  0.2833 -0.7466  0.1677
  807MOL0     C 8852  10.077   7.710   6.930  0.6705 -0.1942  0.0971
  807MOL0     C 8853  10.168   7.762   6.822  0.2206  0.5869  0.7492
  807MOL0     C 8854  10.268   7.657   6.775 -0.8581 -0.9133  1.6319
  807MOL0    Cl 8855  10.385   7.594   6.893 -0.4256 -0.3187  0.1083
  807MOL0     C 8856   9.333   7.358   6.921  0.1723  0.0631  0.6200
  807MOL0     C 8857   9.235   7.258   6.896 -0.5702 -0.1604  0.1707
  807MOL0     O 8858   9.073   7.013   6.904 -0.1926 -0.7500  0.2673
  807MOL0     C 8859   8.740   7.089   6.782  0.0564  0.7646 -0.1570
  807MOL0     C 8860   8.612   7.040   6.763  0.0966 -0.3655  0.0110
  807MOL0     N 8861   7.979   6.613   6.771  0.6456 -0.4759  0.1787
  807MOL0     N 8862   7.991   6.498   6.710 -0.4490  0.2652  0.1430
  807MOL0     C 8863   7.448   6.130   7.357  0.1730 -0.6080  1.0647
  807MOL0     C 8864   7.414   6.043   7.463  0.4877 -0.2590 -0.3673
  807MOL0     C 8865   7.126   5.819   7.763  0.6786 -0.1338  0.0579
  807MOL0     C 8866   7.011   5.737   7.772 -0.1147 -0.7722 -1.3670
  807MOL0     C 8867   6.995   5.647   7.869  0.2195  1.3879  0.0477
  807MOL0     C 8868   7.086   5.640   7.971 -0.0169  0.0969 -0.1852
  807MOL0     O 8869   7.051   5.548   8.065 -0.6704 -0.0578  0.1020
  807MOL0     C 8870   7.150   5.516   8.168 -0.8945 -0.1630  0.2604
  807MOL0     C 8871   7.111   5.370   8.211 -0.4871 -0.2715 -0.2468
  807MOL0     C 8872   6.952   5.341   8.223  1.2828  0.0185  0.8784
  807MOL0     C 8873   6.922   5.208   8.284 -0.1658 -0.0337  0.8120
  807MOL0     C 8874   6.978   5.095   8.204 -0.2185  0.5221  0.7387
  807MOL0     C 8875   7.034   4.986   8.183  0.4326 -0.2426 -0.3009
  807MOL0     C 8876   7.203   5.722   7.973  0.5887 -0.4389  0.4528
  807MOL0     C 8877   7.223   5.806   7.863  0.6018 -1.4344 -0.4965
  807MOL0     H 8878   7.096   6.149   7.503  1.1532 -1.3775  0.5407
  807MOL0     H 8879   7.173   6.322   7.365  1.3469  2.1718  1.6874
  807MOL0     H 8880   7.549   6.226   7.123  1.1154 -0.5337  3.2007
  807MOL0     H 8881   7.491   6.374   7.042 -1.7388 -1.3115 -0.4707
  807MOL0     H 8882   7.573   6.513   7.240  1.9266 -0.1621  1.3188
  807MOL0     H 8883   7.613   6.375   7.330 -0.1353  3.2523  0.5738
  807MOL0     H 8884   7.762   6.509   7.109  0.6132  2.4427  2.5958
  807MOL0     H 8885   7.811   6.443   7.269 -2.0554 -0.7836  0.5307
  807MOL0     H 8886   7.846   6.225   7.189  1.2294  1.1008  0.8740
  807MOL0     H 8887   7.742   6.255   7.041  1.1451 -1.7822 -0.2739
  807MOL0     H 8888   7.936   6.417   6.987 -2.3654 -0.2526 -0.8575
  807MOL0     H 8889   8.023   6.329   7.120  1.3071 -1.2537 -1.4914
  807MOL0     H 8890   7.956   6.118   6.978  0.1522 -1.1594 -0.6012
  807MOL0     H 8891   7.891   6.222   6.864  0.5688 -0.4145 -0.7484
  807MOL0     H 8892   8.162   6.320   6.935 -1.2354  1.0496 -0.1310
  807MOL0     H 8893   8.164   6.142   6.883 -0.8178 -0.6141  2.1643
  807MOL0     H 8894   8.027   6.256   6.672  0.2256  1.7698 -1.4225
  807MOL0     H 8895   8.214   6.275   6.678  0.5873  4.2081 -0.0469
  807MOL0     H 8896   8.296   6.524   6.765  0.1038 -0.8796  1.6239
  807MOL0     H 8897   8.076   6.801   6.930  1.2945 -1.5819  1.9353
  807MOL0     H 8898   8.240   6.783   6.905  0.8240 -0.5538 -0.2171
  807MOL0     H 8899   8.137   6.990   6.785  2.1811  0.2420  0.2991
  807MOL0     H 8900   8.043   6.878   6.686 -0.0575 -1.1313  1.6764
  807MOL0     H 8901   8.231   6.934   6.538  0.5356 -0.5016 -0.8239
  807MOL0     H 8902   8.274   6.776   6.606  1.7002  0.7353 -0.7001
  807MOL0     H 8903   8.347   7.036   6.728  0.1042  0.0868 -0.1238
  807MOL0     H 8904   8.443   6.966   6.598 -0.1168  0.6599 -0.3613
  807MOL0     H 8905   8.645   6.725   6.870  1.6606 -0.8673  2.0748
  807MOL0     H 8906   8.980   6.734   6.818 -0.3408 -2.6539  0.3311
  807MOL0     H 8907   8.987   6.805   6.973  1.7107  0.9639 -2.2871
  807MOL0     H 8908   8.870   6.676   6.948  1.9715 -0.8719  1.0384
  807MOL0     H 8909   8.980   7.463   6.838 -1.0317 -2.0915  1.6858
  807MOL0     H 8910   9.171   7.639   6.890  0.7275  0.2072  1.5856
  807MOL0     H 8911   9.517   7.513   7.098  0.4402 -0.1092 -0.6223
  807MOL0     H 8912   9.564   7.476   6.927  0.4916  2.0055 -2.9443
  807MOL0     H 8913   9.658   7.711   6.898  5.1081  1.9772  2.2798
  807MOL0     H 8914   9.570   7.758   7.048 -0.6840  0.4320 -0.4305
  807MOL0     H 8915   9.747   7.607   7.166  2.3342  2.3590  1.5849
  807MOL0     H 8916   9.814   7.749   7.094  0.4486  0.3718  0.9213
  807MOL0     H 8917   9.936   7.513   7.060  3.1528  3.0109 -0.1940
  807MOL0     H 8918   9.820   7.489   6.933 -0.7216 -0.0434  1.2448
  807MOL0     H 8919   9.891   7.720   6.841  0.9281  0.9498  2.2824
  807MOL0     H 8920   9.987   7.564   6.809 -0.3654 -0.6956 -0.1703
  807MOL0     H 8921  10.041   7.800   6.980 -1.8672  0.4543 -2.5525
  807MOL0     H 8922  10.129   7.641   6.997  2.3457 -0.0700 -1.0219
  807MOL0     H 8923  10.220   7.847   6.866  3.3327 -1.1352  0.6234
  807MOL0     H 8924  10.109   7.797   6.736  2.5806 -0.0881 -1.2690
  807MOL0     H 8925  10.339   7.702   6.705 -0.0097  2.1728  4.2293
  807MOL0     H 8926  10.218   7.580   6.715 -1.6600  0.5995  0.3010
  807MOL0     H 8927   9.432   7.316   6.935  0.0831 -0.4514 -0.2906
  807MOL0     H 8928   9.267   7.155   6.911 -1.5050 -0.3510  1.0214
  807MOL0     H 8929   8.762   7.193   6.756 -1.2891  0.6974 -1.7728
  807MOL0     H 8930   8.543   7.111   6.718 -0.4519 -1.0290 -0.2176
  807MOL0     H 8931   7.534   6.105   7.296 -1.3709  0.4053 -1.7761
  807MOL0     H 8932   7.487   5.973   7.501  1.1146  1.3220  1.4724
  807MOL0     H 8933   6.936   5.739   7.694 -1.4187 -0.4122 -0.1439
  807MOL0     H 8934   6.905   5.586   7.870 -0.4679  2.3508  1.5954
  807MOL0     H 8935   7.255   5.524   8.138 -1.7082  2.8234 -2.2792
  807MOL0     H 8936   7.143   5.584   8.254 -0.8528  1.3272 -0.8774
  807MOL0     H 8937   7.157   5.344   8.307 -1.5569 -0.3410  0.2679
  807MOL0     H 8938   7.144   5.288   8.147 -1.8576 -1.3205  0.3262
  807MOL0     H 8939   6.885   5.342   8.137 -0.0090 -1.2500  1.8048
  807MOL0     H 8940   6.910   5.417   8.290 -2.9798 -1.4262  0.1339
  807MOL0     H 8941   6.815   5.198   8.307 -0.6797  2.8055  0.0517
  807MOL0     H 8942   6.965   5.206   8.384 -0.6347  0.5686  1.0304
  807MOL0     H 8943   7.084   4.894   8.158 -0.1689 -0.1963 -1.8222
  807MOL0     H 8944   7.266   5.724   8.061  3.0119  0.5255 -1.1704
  807MOL0     H 8945   7.310   5.870   7.848  0.4346 -1.1062 -0.0898
  808MOL0     O 8946   0.254   0.286   4.217  0.6098 -0.8848 -0.1259
  808MOL0     C 8947   0.259   0.180   4.271 -0.1076 -0.1875  0.3970
  808MOL0     O 8948   0.357   0.149   4.369 -0.4398  0.5015  0.6225
  808MOL0     C 8949   0.444   0.249   4.418  0.1564  0.0725 -0.3088
  808MOL0     C 8950   0.496   0.352   4.335 -0.0993 -0.4135  0.9344
  808MOL0     C 8951   0.567   0.460   4.384 -0.3394  0.2900 -0.4740
  808MOL0     C 8952   0.583   0.475   4.523 -0.6303 -0.0621 -0.2673
  808MOL0     O 8953   0.636   0.587   4.574  0.1163 -0.1964  0.3978
  808MOL0     C 8954   0.784   0.579   4.562  1.0971 -0.6119  0.3388
  808MOL0     C 8955   0.854   0.714   4.604  0.7976  0.5502  0.3456
  808MOL0     C 8956   1.003   0.713   4.564  0.7332 -0.1972 -0.6061
  808MOL0     C 8957   1.069   0.832   4.620  0.5058  0.5339  0.0734
  808MOL0     C 8958   1.169   0.889   4.529  0.1762  0.6653  0.0259
  808MOL0     C 8959   1.261   1.004   4.590 -0.6074 -0.7436  0.4267
  808MOL0     C 8960   1.352   0.964   4.702  0.1471 -0.8319 -0.9822
  808MOL0     C 8961   1.298   1.014   4.828  0.3070 -0.4392  0.3153
  808MOL0     N 8962   1.356   0.954   4.947  0.2115  0.1876 -0.2645
  808MOL0     C 8963   1.493   0.967   4.988 -1.0821 -0.1689 -0.6685
  808MOL0     C 8964   1.510   0.896   5.097 -0.1357 -0.3423 -0.2749
  808MOL0     C 8965   1.635   0.879   5.171 -0.4484  0.6002  0.1152
  808MOL0     C 8966   1.759   0.887   5.076  0.1641  1.0997 -0.4980
  808MOL0     C 8967   1.885   0.821   5.136  0.2645 -0.2936 -0.3571
  808MOL0     C 8968   2.003   0.839   5.051  0.2525 -0.4240  0.1081
  808MOL0     O 8969   2.132   0.825   5.121  1.1015  0.0639 -0.1165
  808MOL0     C 8970   2.171   0.702   5.142 -0.6045  0.5240 -0.9716
  808MOL0     C 8971   2.175   0.604   5.040 -0.4694  0.1959 -0.0502
  808MOL0     C 8972   2.223   0.471   5.065  0.2074  0.4240 -0.3815
  808MOL0     C 8973   2.220   0.381   4.933 -0.9287  0.7375 -1.3937
  808MOL0     C 8974   2.284   0.436   5.184 -0.5682  0.7731 -0.5476
  808MOL0     C 8975   2.361   0.310   5.206  0.5230  0.4705  0.6553
  808MOL0     O 8976   2.434   0.307   5.322  0.0913  0.1979  0.1520
  808MOL0     C 8977   2.506   0.192   5.339  0.1233  0.6940 -0.6406
  808MOL0     C 8978   2.441   0.074   5.365  0.1673 -0.1713 -0.1777
  808MOL0     C 8979   2.505  -0.043   5.423  0.1395  0.5191  0.1846
  808MOL0     C 8980   2.648  -0.048   5.418 -0.0088 -0.4975  0.3367
  808MOL0     O 8981   2.712  -0.155   5.470 -0.0843  0.2290  0.2009
  808MOL0     C 8982   2.857  -0.160   5.480  0.5147 -0.5261 -0.1603
  808MOL0     C 8983   2.902  -0.286   5.536 -0.6255  0.2253 -0.5150
  808MOL0     C 8984   3.032  -0.264   5.619  0.6168  0.3538 -0.2630
  808MOL0     C 8985   3.154  -0.272   5.533 -0.2014  0.9415 -0.3847
  808MOL0     C 8986   3.285  -0.221   5.592  0.7586  0.1650 -1.2368
  808MOL0     C 8987   3.414  -0.260   5.528 -0.5953  0.2432  0.2847
  808MOL0     C 8988   3.533  -0.184   5.602  0.8000 -0.6510  0.0069
  808MOL0     C 8989   3.669  -0.238   5.564  0.1715  0.2898 -0.1167
  808MOL0    Cl 8990   3.791  -0.168   5.673 -0.0896  0.0881  0.5943
  808MOL0     C 8991   2.708   0.079   5.401  0.3996 -0.2887 -0.1709
  808MOL0     C 8992   2.643   0.193   5.359 -0.6330  0.1504  0.2717
  808MOL0     O 8993   2.368   0.226   5.117 -0.0992  0.0765 -0.3748
  808MOL0     C 8994   2.282   0.540   5.287  0.0049  0.2481  0.4430
  808MOL0     C 8995   2.223   0.664   5.268 -0.2846  0.3224  0.5533
  808MOL0     N 8996   1.392   0.841   5.131  0.5969 -0.0867 -0.2321
  808MOL0     N 8997   1.301   0.872   5.041 -0.7787 -0.4115 -0.6761
  808MOL0     C 8998   0.530   0.372   4.616  0.3812  0.6504  0.2450
  808MOL0     C 8999   0.466   0.263   4.559  0.1322 -0.6100 -0.0840
  808MOL0     C 9000   0.181   0.058   4.221 -0.1924 -0.0961  0.9747
  808MOL0     C 9001   0.093   0.064   4.114  1.0212 -0.2011  0.3475
  808MOL0     C 9002   0.014  -0.041   4.066  0.0726 -0.5015  0.1134
  808MOL0     C 9003   0.042  -0.167   4.129  0.1427  0.5206  0.0704
  808MOL0     O 9004  -0.035  -0.281   4.115 -0.3760  0.5659 -0.0281
  808MOL0     C 9005  -0.167  -0.271   4.066  0.0906 -0.9011 -0.6582
  808MOL0     C 9006  -0.242  -0.403   4.060  0.8289 -0.1758  0.0023
  808MOL0     C 9007  -0.260  -0.504   4.178 -0.5215 -0.6368  0.1084
  808MOL0     C 9008  -0.277  -0.646   4.132  0.4454  0.8660  1.4754
  808MOL0     C 9009  -0.410  -0.654   4.064  0.4720 -0.4455 -0.0138
  808MOL0     C 9010  -0.524  -0.646   4.011 -0.9566  1.0082 -1.8155
  808MOL0     C 9011   0.138  -0.178   4.225  0.1969  0.3714 -0.3596
  808MOL0     C 9012   0.201  -0.066   4.275 -0.7338  0.3196 -0.6084
  808MOL0     H 9013   0.487   0.352   4.226  1.0982  0.6637  0.8197
  808MOL0     H 9014   0.595   0.526   4.303  0.0973 -0.4808 -0.9634
  808MOL0     H 9015   0.827   0.495   4.618  1.8565  1.4137  3.0369
  808MOL0     H 9016   0.806   0.572   4.455  0.7720  1.0565  0.1319
  808MOL0     H 9017   0.818   0.802   4.550  3.2199  1.6389  0.4060
  808MOL0     H 9018   0.832   0.731   4.710 -0.1317  1.2203  0.0638
  808MOL0     H 9019   1.057   0.629   4.609  1.0345  1.0910  1.5437
  808MOL0     H 9020   1.005   0.711   4.454 -0.1319  0.6520 -0.6433
  808MOL0     H 9021   1.006   0.918   4.646 -0.5893 -0.2038 -0.0735
  808MOL0     H 9022   1.118   0.785   4.705  1.6442 -2.0672 -1.8877
  808MOL0     H 9023   1.231   0.807   4.493 -1.5535 -0.5526 -0.3112
  808MOL0     H 9024   1.107   0.914   4.443 -1.9899  2.3073  1.9292
  808MOL0     H 9025   1.327   1.037   4.510 -1.5048 -1.6379 -0.7198
  808MOL0     H 9026   1.198   1.090   4.613 -0.9634 -0.5058 -1.2956
  808MOL0     H 9027   1.381   0.859   4.701  1.1020 -0.5899  0.0873
  808MOL0     H 9028   1.445   1.016   4.680 -1.6859  2.0793 -2.5324
  808MOL0     H 9029   1.191   0.991   4.827  0.7837 -3.0972 -1.1960
  808MOL0     H 9030   1.321   1.120   4.833 -1.0465  0.0171 -1.6948
  808MOL0     H 9031   1.570   1.013   4.927 -0.7402 -2.6306 -2.2558
  808MOL0     H 9032   1.643   0.960   5.244 -3.2205  0.7642  0.3525
  808MOL0     H 9033   1.623   0.784   5.223 -1.8959  1.2559  1.0566
  808MOL0     H 9034   1.775   0.992   5.052 -3.1349  1.4669 -1.5955
  808MOL0     H 9035   1.742   0.818   4.992  1.8574 -0.0614  0.0536
  808MOL0     H 9036   1.880   0.717   5.170  1.1495  0.7469  3.3312
  808MOL0     H 9037   1.910   0.875   5.227 -0.8544 -1.5151  0.7042
  808MOL0     H 9038   2.002   0.944   5.020  0.3531 -0.2546  0.6576
  808MOL0     H 9039   1.998   0.777   4.961  0.3364  0.4115 -0.4880
  808MOL0     H 9040   2.140   0.627   4.940 -2.6346 -0.5324  0.5022
  808MOL0     H 9041   2.316   0.395   4.883 -0.6817 -1.5974 -1.6804
  808MOL0     H 9042   2.213   0.274   4.954  2.2219  0.3082 -2.1015
  808MOL0     H 9043   2.144   0.415   4.862 -1.0117  0.8316 -1.2605
  808MOL0     H 9044   2.334   0.090   5.371  0.6863  4.4914  0.4758
  808MOL0     H 9045   2.442  -0.131   5.436  1.7219 -0.4929  1.5453
  808MOL0     H 9046   2.913  -0.129   5.391  1.6711  1.5223  1.1945
  808MOL0     H 9047   2.881  -0.084   5.556 -0.1644  0.6770 -1.1112
  808MOL0     H 9048   2.830  -0.321   5.611 -1.7403  1.1594 -1.1107
  808MOL0     H 9049   2.913  -0.357   5.453 -1.7624 -1.9725  1.1096
  808MOL0     H 9050   3.045  -0.335   5.701  1.6936  0.4997 -0.2995
  808MOL0     H 9051   3.041  -0.174   5.680  1.6300 -0.1873  0.4179
  808MOL0     H 9052   3.167  -0.378   5.510 -1.1876  0.6152  0.4882
  808MOL0     H 9053   3.141  -0.221   5.437  2.0943  1.7569 -0.3284
  808MOL0     H 9054   3.299  -0.258   5.694  2.5196  3.5466 -0.1097
  808MOL0     H 9055   3.290  -0.113   5.605 -0.2090  0.4462 -2.8443
  808MOL0     H 9056   3.426  -0.368   5.543 -0.8919 -0.4568 -3.4014
  808MOL0     H 9057   3.403  -0.233   5.422  2.1081  2.8243  0.5361
  808MOL0     H 9058   3.519  -0.192   5.711 -2.9721 -1.5321 -0.3878
  808MOL0     H 9059   3.523  -0.078   5.577  0.8995 -0.3412  1.2096
  808MOL0     H 9060   3.681  -0.209   5.460 -0.3731 -0.4246 -0.3827
  808MOL0     H 9061   3.658  -0.346   5.567 -1.1178  0.3998 -0.2043
  808MOL0     H 9062   2.810   0.080   5.436 -0.6689 -2.5964  3.7022
  808MOL0     H 9063   2.694   0.289   5.351  0.3792 -0.4964 -1.5893
  808MOL0     H 9064   2.343   0.526   5.376  1.1836 -0.8846 -0.4988
  808MOL0     H 9065   2.213   0.734   5.350 -3.2700  0.4440  0.1826
  808MOL0     H 9066   0.544   0.377   4.723  1.8532  0.9784  0.0610
  808MOL0     H 9067   0.445   0.176   4.621 -2.8187  1.0929  1.5265
  808MOL0     H 9068   0.085   0.157   4.058 -0.7109 -0.7825 -0.4501
  808MOL0     H 9069  -0.059  -0.028   3.987 -1.6842 -0.8850  1.5886
  808MOL0     H 9070  -0.231  -0.207   4.127 -0.4282  0.0810 -2.1697
  808MOL0     H 9071  -0.177  -0.226   3.967 -3.9317  1.6060  0.6511
  808MOL0     H 9072  -0.183  -0.458   3.986  2.0996 -0.9770  1.5616
  808MOL0     H 9073  -0.340  -0.363   4.031  1.5669 -1.1252 -4.7679
  808MOL0     H 9074  -0.348  -0.477   4.237  1.4823  1.1979  2.4862
  808MOL0     H 9075  -0.169  -0.500   4.238  0.1713 -1.6813 -0.8181
  808MOL0     H 9076  -0.268  -0.709   4.221 -2.0054 -0.9416  0.5355
  808MOL0     H 9077  -0.202  -0.680   4.059  0.0092  0.0397  1.4037
  808MOL0     H 9078  -0.613  -0.621   3.957 -2.6989  1.6634  1.1284
  808MOL0     H 9079   0.158  -0.272   4.274 -2.4814  0.5175  1.2408
  808MOL0     H 9080   0.268  -0.078   4.359 -0.3346  2.4302 -0.5885
  809MOL0     O 9081   3.613   9.011   8.432  0.2673  0.2533 -0.1529
  809MOL0     C 9082   3.730   8.991   8.388  0.1299  0.1856  0.0780
  809MOL0     O 9083   3.832   8.946   8.462 -0.2934 -0.0581  0.2381
  809MOL0     C 9084   3.812   8.899   8.596  0.1307 -1.6596 -0.1313
  809MOL0     C 9085   3.914   8.917   8.689  0.6900  0.6296 -0.2925
  809MOL0     C 9086   3.897   8.868   8.817 -0.3454  0.3788  0.2223
  809MOL0     C 9087   3.798   8.781   8.847 -0.1322 -0.0065  0.9927
  809MOL0     O 9088   3.762   8.737   8.966  0.3813  0.2611 -0.3370
  809MOL0     C 9089   3.841   8.744   9.087  0.3543  0.5360 -0.5488
  809MOL0     C 9090   3.767   8.667   9.199 -0.3465  0.1508  0.2536
  809MOL0     C 9091   3.635   8.731   9.246  0.5069  0.3074 -0.2405
  809MOL0     C 9092   3.508   8.654   9.194 -0.6555 -0.4814  0.1888
  809MOL0     C 9093   3.375   8.703   9.256  0.1075 -0.1733  0.5722
  809MOL0     C 9094   3.252   8.612   9.224 -0.3850  0.2614 -0.7234
  809MOL0     C 9095   3.264   8.463   9.253 -0.2120  0.3755  0.0416
  809MOL0     C 9096   3.289   8.422   9.399  0.4702 -0.3109 -0.0114
  809MOL0     N 9097   3.421   8.446   9.462  0.8266  0.6038  0.8778
  809MOL0     C 9098   3.528   8.358   9.467  0.3768 -1.0148  0.2514
  809MOL0     C 9099   3.609   8.404   9.562 -0.2269 -0.9026  0.2247
  809MOL0     C 9100   3.730   8.331   9.625 -0.4739  0.0658 -0.0531
  809MOL0     C 9101   3.847   8.384   9.533 -0.4007  0.6010 -0.7243
  809MOL0     C 9102   3.978   8.310   9.546 -0.3810 -0.3020 -0.1860
  809MOL0     C 9103   4.086   8.384   9.456 -0.9761 -0.1274  0.2373
  809MOL0     O 9104   4.130   8.502   9.526  0.1135  0.1477 -0.0467
  809MOL0     C 9105   4.217   8.566   9.441 -0.5151  0.4215 -0.1872
  809MOL0     C 9106   4.354   8.551   9.449 -0.4958 -0.7969  0.2138
  809MOL0     C 9107   4.454   8.629   9.377 -0.2010 -0.0810  0.2049
  809MOL0     C 9108   4.599   8.619   9.421  0.9632 -0.2647  0.3024
  809MOL0     C 9109   4.400   8.718   9.279  0.0946  0.0881  0.5365
  809MOL0     C 9110   4.497   8.816   9.205 -0.0684  1.0156  0.2808
  809MOL0     O 9111   4.590   8.768   9.113  0.2603 -0.1193 -0.3646
  809MOL0     C 9112   4.696   8.849   9.070  0.0698  1.6840 -0.1623
  809MOL0     C 9113   4.707   8.906   8.945  0.8150  0.0692  0.8078
  809MOL0     C 9114   4.813   8.985   8.899  0.5662 -0.1172 -0.3325
  809MOL0     C 9115   4.922   9.016   8.988 -0.0158  0.4218 -0.4335
  809MOL0     O 9116   5.026   9.099   8.968  0.2317 -0.4882  0.5069
  809MOL0     C 9117   5.048   9.122   8.827  0.8026  0.2409 -0.1381
  809MOL0     C 9118   4.991   9.257   8.772  0.8887  0.1875 -0.7341
  809MOL0     C 9119   5.045   9.296   8.630 -0.2706  0.3490  0.5177
  809MOL0     C 9120   5.184   9.366   8.636 -0.1680  0.7484 -0.3494
  809MOL0     C 9121   5.212   9.430   8.496  0.2386  1.0232 -0.2776
  809MOL0     C 9122   5.343   9.524   8.512 -0.7505 -0.3762  0.1097
  809MOL0     C 9123   5.464   9.441   8.547  0.3240  0.0975  0.1106
  809MOL0     C 9124   5.599   9.518   8.542  0.3597 -0.4326  0.7606
  809MOL0    Cl 9125   5.736   9.408   8.565 -0.3191 -0.3496 -0.3369
  809MOL0     C 9126   4.915   8.949   9.111  0.1811 -0.4502  0.1691
  809MOL0     C 9127   4.806   8.873   9.155  0.8506 -1.1122  0.0763
  809MOL0     O 9128   4.481   8.928   9.240  0.0713  0.0101 -0.2317
  809MOL0     C 9129   4.265   8.741   9.266  0.3632  0.2697 -0.4117
  809MOL0     C 9130   4.173   8.666   9.341 -0.9221 -0.0306 -0.4623
  809MOL0     N 9131   3.546   8.516   9.623  0.4052  0.0861 -1.2600
  809MOL0     N 9132   3.435   8.536   9.559  0.0601 -0.7845  0.1519
  809MOL0     C 9133   3.716   8.745   8.745 -0.0762  0.7128  0.6395
  809MOL0     C 9134   3.719   8.798   8.620  0.3930 -0.9709 -0.0378
  809MOL0     C 9135   3.742   8.993   8.240  0.3266 -0.5819  0.2557
  809MOL0     C 9136   3.868   8.978   8.181 -0.4760  0.0286  0.4475
  809MOL0     C 9137   3.886   8.985   8.042 -0.6066  0.2353 -0.3158
  809MOL0     C 9138   3.779   9.006   7.960  0.0895 -0.5576  0.3574
  809MOL0     O 9139   3.797   9.033   7.826  0.0332  0.2292 -0.1281
  809MOL0     C 9140   3.927   9.092   7.794  0.2877  0.2399  0.0937
  809MOL0     C 9141   3.908   9.140   7.642  0.2894  0.2347 -0.1380
  809MOL0     C 9142   4.031   9.235   7.607 -0.3007 -0.5120  0.5561
  809MOL0     C 9143   4.019   9.368   7.684 -0.2606 -0.4606  1.0755
  809MOL0     C 9144   3.993   9.481   7.591  0.0438  0.2000 -0.4247
  809MOL0     C 9145   3.969   9.550   7.494  0.1082  0.0630  0.3382
  809MOL0     C 9146   3.651   9.012   8.015 -0.2531  0.4020 -0.4727
  809MOL0     C 9147   3.629   9.012   8.154 -0.1848  0.5234 -0.6241
  809MOL0     H 9148   3.996   8.982   8.662  1.1799  0.8621  1.5793
  809MOL0     H 9149   3.971   8.891   8.893 -1.1238  0.7163  0.8976
  809MOL0     H 9150   3.934   8.691   9.065 -0.6214 -1.1553 -0.8372
  809MOL0     H 9151   3.846   8.846   9.125  1.6970  0.4096 -0.3485
  809MOL0     H 9152   3.739   8.567   9.163 -1.5646 -0.1046  1.7770
  809MOL0     H 9153   3.831   8.650   9.286  1.7932 -2.5935 -1.6869
  809MOL0     H 9154   3.622   8.723   9.355 -1.5987  0.3132 -0.4606
  809MOL0     H 9155   3.639   8.839   9.230 -0.1715  0.6309  1.4781
  809MOL0     H 9156   3.497   8.643   9.086  0.9436 -1.8948  0.1237
  809MOL0     H 9157   3.512   8.550   9.229  0.9633  0.1339  2.0087
  809MOL0     H 9158   3.383   8.693   9.365  4.4704 -1.0765  0.3627
  809MOL0     H 9159   3.350   8.806   9.232 -2.1607  0.6626  5.3715
  809MOL0     H 9160   3.168   8.648   9.284 -1.0348  0.1578 -1.5549
  809MOL0     H 9161   3.231   8.615   9.117  1.0387 -1.7645 -1.1298
  809MOL0     H 9162   3.166   8.421   9.225  1.1713 -0.8326 -3.4947
  809MOL0     H 9163   3.335   8.417   9.184 -1.5381 -1.1447 -0.3742
  809MOL0     H 9164   3.267   8.316   9.416 -1.8159  0.1460  0.1992
  809MOL0     H 9165   3.207   8.470   9.453 -1.7184 -2.9156 -0.8129
  809MOL0     H 9166   3.546   8.269   9.408  0.3620 -0.5421 -0.4683
  809MOL0     H 9167   3.746   8.360   9.729  0.4635 -1.3854  0.2376
  809MOL0     H 9168   3.732   8.222   9.619  4.7617 -0.2704  2.0980
  809MOL0     H 9169   3.863   8.491   9.551  0.7562  0.7901 -2.6302
  809MOL0     H 9170   3.820   8.377   9.428 -2.0193  3.9875 -0.6527
  809MOL0     H 9171   3.971   8.206   9.513  2.9533 -0.9005  0.5752
  809MOL0     H 9172   4.010   8.322   9.650  1.0706 -0.4167 -0.5964
  809MOL0     H 9173   4.054   8.412   9.355  5.3518 -0.4774 -2.3144
  809MOL0     H 9174   4.163   8.311   9.430 -0.2195  0.0271  1.8969
  809MOL0     H 9175   4.396   8.472   9.509 -3.3586 -1.5528  1.4048
  809MOL0     H 9176   4.652   8.543   9.363 -1.3577 -0.2365 -2.0803
  809MOL0     H 9177   4.649   8.717   9.424 -2.4947  1.6595  0.2635
  809MOL0     H 9178   4.596   8.603   9.529 -0.9290 -0.1831  0.2947
  809MOL0     H 9179   4.626   8.898   8.873  2.0459 -0.1231 -0.5956
  809MOL0     H 9180   4.806   9.025   8.798  0.1057 -2.5393 -1.3407
  809MOL0     H 9181   5.158   9.127   8.823  0.7982  0.0486 -0.4745
  809MOL0     H 9182   5.017   9.045   8.757  1.8532  0.4766 -0.8881
  809MOL0     H 9183   4.882   9.254   8.775  0.8408  1.9487  0.9973
  809MOL0     H 9184   5.016   9.342   8.836 -2.9865  1.2524 -0.3659
  809MOL0     H 9185   4.971   9.369   8.597 -1.2347 -1.0507 -0.5618
  809MOL0     H 9186   5.041   9.215   8.557 -5.3751 -0.1468  1.0215
  809MOL0     H 9187   5.186   9.440   8.716  2.3655 -0.0342  0.4132
  809MOL0     H 9188   5.260   9.292   8.662 -1.6136 -0.1524  1.5429
  809MOL0     H 9189   5.130   9.498   8.471  0.6209  1.5518 -0.1232
  809MOL0     H 9190   5.230   9.356   8.417  0.5244  0.4214  0.3426
  809MOL0     H 9191   5.356   9.568   8.413  2.3703 -1.5520 -0.1318
  809MOL0     H 9192   5.345   9.603   8.588  0.3778  0.5550 -0.8491
  809MOL0     H 9193   5.463   9.351   8.486  1.1356  0.7116 -0.8346
  809MOL0     H 9194   5.455   9.403   8.649  0.8467 -0.2798  0.0184
  809MOL0     H 9195   5.598   9.597   8.618  2.3260  0.1922  0.2050
  809MOL0     H 9196   5.609   9.566   8.444 -2.0782  0.7760  1.0082
  809MOL0     H 9197   5.003   8.955   9.174 -1.6400 -1.8773  3.0732
  809MOL0     H 9198   4.811   8.838   9.257 -1.5557 -1.3028  0.1922
  809MOL0     H 9199   4.223   8.805   9.190  0.1655  1.4389  0.6357
  809MOL0     H 9200   4.067   8.682   9.327 -1.6735 -2.6302  1.4833
  809MOL0     H 9201   3.649   8.660   8.752  0.2483  0.3365 -0.5921
  809MOL0     H 9202   3.639   8.767   8.554 -1.1968 -0.9616  1.7835
  809MOL0     H 9203   3.948   8.980   8.254  3.5205  3.6884 -3.3450
  809MOL0     H 9204   3.985   8.967   8.003  0.5682  0.5673  2.3280
  809MOL0     H 9205   3.945   9.182   7.854  2.6143 -1.5742  2.3752
  809MOL0     H 9206   4.013   9.025   7.788 -0.7078 -0.9539 -1.6460
  809MOL0     H 9207   3.812   9.192   7.632  0.3524  1.1082  2.6983
  809MOL0     H 9208   3.914   9.054   7.575 -0.3358 -0.3422  0.5308
  809MOL0     H 9209   4.040   9.260   7.501 -0.4425 -0.0445  0.6528
  809MOL0     H 9210   4.119   9.180   7.642  0.5989 -0.3810 -1.3671
  809MOL0     H 9211   4.103   9.394   7.750 -0.1081 -0.0801  0.7353
  809MOL0     H 9212   3.934   9.367   7.752  0.4628 -0.4293  2.0075
  809MOL0     H 9213   3.953   9.589   7.396  1.8847 -2.7472 -1.2010
  809MOL0     H 9214   3.561   9.026   7.954 -1.3268 -0.6950  0.7986
  809MOL0     H 9215   3.532   9.001   8.202 -0.1204 -0.9164 -0.7926
  810MOL0     O 9216   1.522   5.407  10.457  0.6187 -0.4959 -0.3770
  810MOL0     C 9217   1.541   5.390  10.334  0.2058 -0.2701 -0.1223
  810MOL0     O 9218   1.449   5.329  10.248  0.0180  0.5622  0.4629
  810MOL0     C 9219   1.329   5.305  10.303  0.0085 -0.8192  0.9430
  810MOL0     C 9220   1.319   5.194  10.387 -0.2389 -0.7157  0.2307
  810MOL0     C 9221   1.196   5.160  10.441 -0.9475 -0.3137  0.0879
  810MOL0     C 9222   1.077   5.236  10.421  0.6067  0.3322  0.3002
  810MOL0     O 9223   0.954   5.196  10.475 -0.3698 -0.7942  0.2481
  810MOL0     C 9224   0.945   5.059  10.515  0.3075  0.5857  0.8074
  810MOL0     C 9225   0.798   5.042  10.564  0.3349  0.7837  0.0756
  810MOL0     C 9226   0.694   5.062  10.450  0.2414  0.5542 -0.8022
  810MOL0     C 9227   0.559   5.026  10.509 -0.3151  0.6189 -0.1911
  810MOL0     C 9228   0.446   4.978  10.412 -1.1751 -0.4211 -0.1195
  810MOL0     C 9229   0.498   4.853  10.321  0.2351  0.1630  0.0114
  810MOL0     C 9230   0.378   4.791  10.237 -0.2376 -1.2307 -0.3715
  810MOL0     C 9231   0.350   4.881  10.114  0.2719  0.5990  0.0458
  810MOL0     N 9232   0.449   4.845  10.005 -0.2326 -0.5228 -0.8081
  810MOL0     C 9233   0.535   4.934   9.955 -0.0245  0.2838 -0.2364
  810MOL0     C 9234   0.629   4.861   9.896 -0.7747 -0.6769  0.9538
  810MOL0     C 9235   0.759   4.922   9.839 -0.7915  0.8490 -0.3492
  810MOL0     C 9236   0.781   4.869   9.696 -0.0925  0.1618 -0.2544
  810MOL0     C 9237   0.890   4.770   9.682 -0.6332 -0.5251 -0.5728
  810MOL0     C 9238   0.914   4.738   9.538  0.4842  0.3555  0.2648
  810MOL0     O 9239   0.821   4.645   9.485 -0.1318  0.2988  0.1702
  810MOL0     C 9240   0.822   4.520   9.530 -0.9190  0.4230  0.2982
  810MOL0     C 9241   0.721   4.477   9.612 -0.2517 -0.2671 -0.2324
  810MOL0     C 9242   0.724   4.347   9.666  0.2372 -0.7391  0.0170
  810MOL0     C 9243   0.622   4.323   9.777  0.4044 -0.5454  0.8193
  810MOL0     C 9244   0.799   4.248   9.599  0.6180 -0.3897  0.0585
  810MOL0     C 9245   0.791   4.098   9.622 -0.7493 -0.6589  0.5730
  810MOL0     O 9246   0.760   4.044   9.746 -0.3125  0.0254  1.0627
  810MOL0     C 9247   0.757   3.907   9.747 -0.2796 -0.4155 -0.4373
  810MOL0     C 9248   0.637   3.836   9.712  0.2095 -0.6625 -0.5687
  810MOL0     C 9249   0.624   3.701   9.731 -0.0238  0.9708 -0.4385
  810MOL0     C 9250   0.729   3.622   9.793 -0.5220  0.9608  0.1462
  810MOL0     O 9251   0.696   3.492   9.835  0.6480  0.0921 -0.0683
  810MOL0     C 9252   0.803   3.404   9.885 -0.3997  0.1035  0.4683
  810MOL0     C 9253   0.896   3.352   9.769  0.2810 -0.8681  0.2697
  810MOL0     C 9254   0.842   3.231   9.680 -0.0498 -0.5993  0.2921
  810MOL0     C 9255   0.955   3.172   9.590  0.7174  0.2170 -0.2458
  810MOL0     C 9256   0.919   3.039   9.543  0.2002  0.1895  0.2529
  810MOL0     C 9257   1.024   2.978   9.456  0.8482  0.0777  0.2120
  810MOL0     C 9258   1.002   2.823   9.437 -1.0140 -0.2741  0.3475
  810MOL0     C 9259   1.109   2.759   9.345  0.1330 -0.0160 -0.4108
  810MOL0    Cl 9260   1.253   2.755   9.444 -0.6609  0.4342 -0.3040
  810MOL0     C 9261   0.852   3.690   9.811 -0.3019  0.0095  0.5485
  810MOL0     C 9262   0.864   3.830   9.791 -0.0634 -0.0545  0.1862
  810MOL0     O 9263   0.826   4.030   9.528 -0.3974  0.0559  0.7251
  810MOL0     C 9264   0.895   4.293   9.502  0.3051  0.1751  0.5978
  810MOL0     C 9265   0.904   4.423   9.464  0.1226 -0.8460 -0.4612
  810MOL0     N 9266   0.591   4.725   9.889  1.2311 -0.4390 -0.9431
  810MOL0     N 9267   0.487   4.720   9.962  0.7607 -0.5453  0.0598
  810MOL0     C 9268   1.093   5.350  10.351  0.5407  0.2616 -0.2323
  810MOL0     C 9269   1.209   5.371  10.280  0.2001 -1.2427 -1.3799
  810MOL0     C 9270   1.667   5.429  10.263  0.0779 -0.2602 -1.9636
  810MOL0     C 9271   1.677   5.458  10.130 -0.1434 -0.1461  0.8577
  810MOL0     C 9272   1.804   5.488  10.064 -0.2796  0.7237  0.6454
  810MOL0     C 9273   1.917   5.498  10.143 -0.3366 -0.3057 -0.1648
  810MOL0     O 9274   2.032   5.526  10.072  1.1999  0.3010  0.9758
  810MOL0     C 9275   2.153   5.505  10.144 -0.3409  0.0240 -1.4505
  810MOL0     C 9276   2.271   5.509  10.047  0.3308 -0.9307 -0.3656
  810MOL0     C 9277   2.288   5.654   9.999  0.3180 -0.0550  0.2953
  810MOL0     C 9278   2.412   5.693   9.915  0.1707  0.3936 -0.9640
  810MOL0     C 9279   2.425   5.834   9.906  0.5650  0.1222  0.1686
  810MOL0     C 9280   2.447   5.946   9.905 -0.9727 -0.1227  0.5689
  810MOL0     C 9281   1.907   5.467  10.282 -0.0192  0.2431 -0.3519
  810MOL0     C 9282   1.796   5.426  10.339  0.6927 -0.2624 -0.3540
  810MOL0     H 9283   1.412   5.142  10.409  1.2342  1.4915 -0.4844
  810MOL0     H 9284   1.202   5.069  10.501  2.9894 -1.8296 -2.2312
  810MOL0     H 9285   0.965   5.003  10.423 -0.8179  2.3496 -0.5834
  810MOL0     H 9286   1.019   5.023  10.586 -0.7709 -2.5099  0.4798
  810MOL0     H 9287   0.795   4.942  10.609  1.7373  0.6913  0.0169
  810MOL0     H 9288   0.769   5.110  10.645 -1.7188  0.9854 -0.7816
  810MOL0     H 9289   0.692   5.170  10.431 -1.9839  1.1437  2.0432
  810MOL0     H 9290   0.712   5.002  10.361 -3.0447 -0.8712 -0.6336
  810MOL0     H 9291   0.572   4.949  10.586 -2.6179  1.6904  1.3912
  810MOL0     H 9292   0.529   5.107  10.576  0.5853 -0.4507  1.5748
  810MOL0     H 9293   0.361   4.935  10.465 -0.8138 -2.0704 -0.7984
  810MOL0     H 9294   0.407   5.067  10.361 -2.9607 -0.2229  1.4830
  810MOL0     H 9295   0.579   4.885  10.255 -0.8949 -0.7455 -1.8918
  810MOL0     H 9296   0.532   4.771  10.383 -3.1722 -2.4275 -1.2131
  810MOL0     H 9297   0.410   4.692  10.204  2.7550  0.4253 -3.1825
  810MOL0     H 9298   0.286   4.799  10.294 -0.3243  3.1670 -0.7558
  810MOL0     H 9299   0.327   4.984  10.141 -1.3401  0.0471  0.9601
  810MOL0     H 9300   0.254   4.850  10.071 -1.6564  3.9906  1.5055
  810MOL0     H 9301   0.540   5.041   9.968  1.7786  0.1241  0.6812
  810MOL0     H 9302   0.743   5.030   9.843  0.9819  1.1274 -0.0921
  810MOL0     H 9303   0.844   4.911   9.906 -0.6078  1.8715 -0.4009
  810MOL0     H 9304   0.813   4.957   9.639 -1.7986  0.7177 -0.4239
  810MOL0     H 9305   0.691   4.826   9.650  1.2445 -0.7617 -2.1073
  810MOL0     H 9306   0.869   4.681   9.743 -1.7998  0.0150 -0.1596
  810MOL0     H 9307   0.986   4.798   9.728  0.8221  0.0677 -3.7281
  810MOL0     H 9308   1.011   4.690   9.526 -0.6165 -2.4640  1.6914
  810MOL0     H 9309   0.915   4.836   9.489 -1.5593  1.1592  1.6914
  810MOL0     H 9310   0.660   4.557   9.653 -0.6865 -1.0439  0.6884
  810MOL0     H 9311   0.667   4.303   9.875 -1.4189  0.1247  1.8597
  810MOL0     H 9312   0.556   4.410   9.781 -1.7954 -2.0192 -0.9161
  810MOL0     H 9313   0.554   4.239   9.760 -2.6352  2.1511 -1.9313
  810MOL0     H 9314   0.553   3.895   9.679 -0.6980  1.1683  4.1594
  810MOL0     H 9315   0.550   3.644   9.675 -0.7834  2.6130 -1.1533
  810MOL0     H 9316   0.878   3.452   9.948  2.0441  1.9501 -3.4780
  810MOL0     H 9317   0.762   3.315   9.933 -2.2619  1.3027  1.2036
  810MOL0     H 9318   0.923   3.437   9.706 -3.3585 -0.1362 -0.5559
  810MOL0     H 9319   0.990   3.317   9.813  2.2089  4.3701  1.0721
  810MOL0     H 9320   0.767   3.264   9.607  0.6356  0.4154  0.0123
  810MOL0     H 9321   0.801   3.156   9.749  0.9869 -0.5566  0.9795
  810MOL0     H 9322   0.967   3.242   9.507 -0.6624 -0.4405 -1.0301
  810MOL0     H 9323   1.051   3.170   9.643  0.2217  1.1248  0.7157
  810MOL0     H 9324   0.832   3.027   9.479  1.7827  0.3641 -2.0577
  810MOL0     H 9325   0.914   2.973   9.630  1.6380  1.0238  1.0311
  810MOL0     H 9326   1.019   3.032   9.361 -1.4110 -1.3164 -0.5229
  810MOL0     H 9327   1.127   2.986   9.494  0.4426 -1.4463  1.7275
  810MOL0     H 9328   0.907   2.793   9.392  0.4427 -4.8658 -0.2425
  810MOL0     H 9329   1.001   2.783   9.539  4.6794  2.0441  1.7468
  810MOL0     H 9330   1.127   2.812   9.250  0.3540  0.8856  0.1234
  810MOL0     H 9331   1.077   2.660   9.311 -0.8260 -0.2869  1.2140
  810MOL0     H 9332   0.936   3.638   9.856  0.2938 -0.8172 -1.4226
  810MOL0     H 9333   0.957   3.886   9.802  0.3991 -0.1428 -2.4667
  810MOL0     H 9334   0.936   4.216   9.437 -2.6954 -0.6889 -0.4748
  810MOL0     H 9335   0.975   4.467   9.394  2.2034  0.0408  2.0133
  810MOL0     H 9336   1.012   5.419  10.330  2.0888  1.4333 -2.8502
  810MOL0     H 9337   1.200   5.458  10.216 -2.0393 -1.9508 -2.1193
  810MOL0     H 9338   1.596   5.453  10.058  0.4563  2.0227 -0.0477
  810MOL0     H 9339   1.810   5.494   9.956 -0.2862  0.4744  0.6297
  810MOL0     H 9340   2.170   5.580  10.222 -0.0680 -2.1773  0.7715
  810MOL0     H 9341   2.153   5.417  10.210 -1.4866  1.2286  0.2485
  810MOL0     H 9342   2.256   5.435   9.968 -1.1776 -0.5897 -0.4199
  810MOL0     H 9343   2.368   5.499  10.096  1.9667  1.0301 -2.9716
  810MOL0     H 9344   2.303   5.699  10.097  3.0968 -0.2122  0.0092
  810MOL0     H 9345   2.192   5.687   9.957  0.3983  0.6797  0.6799
  810MOL0     H 9346   2.385   5.641   9.822 -3.0121 -0.8508  0.4969
  810MOL0     H 9347   2.503   5.663   9.967 -0.5247  2.3698  1.6161
  810MOL0     H 9348   2.469   6.050   9.912 -2.4047  0.4055 -1.7236
  810MOL0     H 9349   1.991   5.488  10.347 -1.7976  4.3544  1.0041
  810MOL0     H 9350   1.788   5.395  10.443  2.6734 -1.6100 -0.5595
  811MOL0     O 9351   8.178   7.973   2.306 -0.4777  0.5513  0.0913
  811MOL0     C 9352   8.184   7.852   2.332  0.3815  0.2065 -0.3066
  811MOL0     O 9353   8.277   7.790   2.409 -0.4137 -0.4608 -0.7606
  811MOL0     C 9354   8.366   7.862   2.490 -0.6405  0.3419  0.6993
  811MOL0     C 9355   8.451   7.959   2.436  1.4493  0.1092  0.0943
  811MOL0     C 9356   8.554   8.015   2.514 -1.0864 -1.1441 -0.7248
  811MOL0     C 9357   8.564   7.979   2.652 -0.2036 -0.8938 -0.4298
  811MOL0     O 9358   8.666   8.020   2.733  0.1264  0.0421 -0.0621
  811MOL0     C 9359   8.723   8.154   2.721 -0.1661  0.6058  0.7814
  811MOL0     C 9360   8.763   8.219   2.859 -0.7885 -0.3318 -0.3355
  811MOL0     C 9361   8.653   8.179   2.967 -0.6169 -0.4234  0.3775
  811MOL0     C 9362   8.699   8.251   3.094  0.0613  0.8250  0.1150
  811MOL0     C 9363   8.585   8.247   3.199 -0.4092  0.4696  0.0294
  811MOL0     C 9364   8.609   8.345   3.312  0.1809  0.4581  0.1764
  811MOL0     C 9365   8.500   8.324   3.414 -0.0453 -0.1008 -0.1428
  811MOL0     C 9366   8.539   8.418   3.526  0.2034  0.0959  0.4823
  811MOL0     N 9367   8.449   8.538   3.506 -0.2191  0.6091 -0.1345
  811MOL0     C 9368   8.360   8.585   3.601 -0.9751 -0.2672  0.5006
  811MOL0     C 9369   8.319   8.701   3.540 -0.7521 -0.1598  0.6498
  811MOL0     C 9370   8.207   8.794   3.591  0.2206 -1.1148 -0.8220
  811MOL0     C 9371   8.084   8.729   3.647  1.1562  0.1970  0.3362
  811MOL0     C 9372   8.095   8.710   3.801 -1.0389 -0.0597 -0.6133
  811MOL0     C 9373   8.005   8.617   3.865 -0.3161  0.4963  0.3929
  811MOL0     O 9374   7.875   8.648   3.838  0.6255 -0.0870 -0.1959
  811MOL0     C 9375   7.779   8.568   3.893 -0.6783  0.0727  0.9266
  811MOL0     C 9376   7.793   8.471   3.987  0.0025  0.8124  0.3398
  811MOL0     C 9377   7.681   8.408   4.049 -0.4154  0.6181  0.5636
  811MOL0     C 9378   7.718   8.306   4.147  0.2024  0.4182  0.7759
  811MOL0     C 9379   7.553   8.449   4.027  0.1870 -0.1612  0.1646
  811MOL0     C 9380   7.430   8.392   4.083 -0.0603  0.9142  0.3984
  811MOL0     O 9381   7.314   8.399   4.001 -0.3387 -0.6148 -0.3986
  811MOL0     C 9382   7.191   8.354   4.033  0.3641 -0.6637 -0.1730
  811MOL0     C 9383   7.087   8.415   3.964  0.7235  0.5926 -0.6943
  811MOL0     C 9384   6.949   8.381   3.997 -0.0594 -0.0000 -1.0610
  811MOL0     C 9385   6.920   8.273   4.084 -0.0803 -0.2682 -0.3461
  811MOL0     O 9386   6.787   8.262   4.108  0.0558  0.5723  0.6531
  811MOL0     C 9387   6.742   8.133   4.152  0.5764  0.1100 -0.8432
  811MOL0     C 9388   6.750   8.032   4.033 -0.1348  0.3841 -0.6296
  811MOL0     C 9389   6.726   7.882   4.064  0.2818  0.8023 -0.0184
  811MOL0     C 9390   6.571   7.868   4.109 -0.0684 -0.5016  0.0431
  811MOL0     C 9391   6.536   7.730   4.154 -0.0557 -0.7213 -0.6114
  811MOL0     C 9392   6.484   7.641   4.039 -0.3052 -0.3424 -0.3674
  811MOL0     C 9393   6.477   7.496   4.069 -1.4449 -0.0919 -0.2698
  811MOL0     C 9394   6.398   7.409   3.972  0.1412  0.0293  0.1982
  811MOL0    Cl 9395   6.231   7.471   3.959 -0.7149  0.0564 -0.0247
  811MOL0     C 9396   7.029   8.209   4.145 -0.0220 -1.1815 -0.3518
  811MOL0     C 9397   7.162   8.250   4.120  0.8583  0.0003 -1.0841
  811MOL0     O 9398   7.440   8.329   4.191  0.7008 -0.0360 -0.6045
  811MOL0     C 9399   7.537   8.546   3.929  0.6113 -0.5276 -0.2317
  811MOL0     C 9400   7.645   8.597   3.858  0.0197  0.2269 -0.5680
  811MOL0     N 9401   8.373   8.708   3.412  0.8182  0.0777  0.4123
  811MOL0     N 9402   8.457   8.616   3.394 -0.6411 -0.0873 -0.4459
  811MOL0     C 9403   8.472   7.891   2.701  0.4838  0.1320 -0.3180
  811MOL0     C 9404   8.375   7.831   2.621 -0.2966 -0.6044  0.3274
  811MOL0     C 9405   8.086   7.763   2.262 -0.5521  0.0134 -0.1686
  811MOL0     C 9406   8.006   7.818   2.163 -0.3786  0.4975  0.1571
  811MOL0     C 9407   7.915   7.730   2.094 -0.0350  0.2903  0.0219
  811MOL0     C 9408   7.911   7.593   2.116  0.4685  0.2554  0.3702
  811MOL0     O 9409   7.828   7.495   2.044 -0.0091  0.4513 -0.4799
  811MOL0     C 9410   7.763   7.533   1.927  0.5358 -0.0884  0.0343
  811MOL0     C 9411   7.726   7.410   1.833 -1.2445  0.5313  0.6182
  811MOL0     C 9412   7.686   7.450   1.700  0.3514  0.4406  0.7748
  811MOL0     C 9413   7.623   7.340   1.608 -0.2448  0.2804 -0.2093
  811MOL0     C 9414   7.591   7.385   1.480  0.7067 -0.0421  0.9213
  811MOL0     C 9415   7.575   7.427   1.372  0.6354  0.0698 -0.6872
  811MOL0     C 9416   7.983   7.547   2.221 -0.6173 -0.5110  0.5632
  811MOL0     C 9417   8.067   7.630   2.287 -0.6292  0.9436  0.0257
  811MOL0     H 9418   8.457   7.987   2.331 -1.0326 -0.8531 -0.3743
  811MOL0     H 9419   8.617   8.090   2.467 -0.8645 -0.9838 -0.1866
  811MOL0     H 9420   8.815   8.134   2.665 -0.9436 -1.3385  0.1135
  811MOL0     H 9421   8.655   8.216   2.663 -0.5830 -1.8124 -1.4962
  811MOL0     H 9422   8.862   8.189   2.895 -1.0270  0.0071  0.6283
  811MOL0     H 9423   8.767   8.327   2.840  2.1273 -0.1357  0.7927
  811MOL0     H 9424   8.558   8.220   2.931 -1.0788 -1.5705  0.2459
  811MOL0     H 9425   8.655   8.071   2.987  0.6647 -0.3910  0.5006
  811MOL0     H 9426   8.788   8.200   3.134 -1.5583  0.3218  3.3837
  811MOL0     H 9427   8.715   8.353   3.059 -0.6012  1.1050  0.6095
  811MOL0     H 9428   8.490   8.274   3.154  0.5928  0.2476 -2.3677
  811MOL0     H 9429   8.566   8.147   3.241 -3.4683  0.7809 -0.4418
  811MOL0     H 9430   8.710   8.332   3.353  0.2128 -2.3733 -0.5719
  811MOL0     H 9431   8.604   8.443   3.263 -0.3552 -0.8281 -2.5596
  811MOL0     H 9432   8.397   8.346   3.384  0.1373  1.1034  0.0440
  811MOL0     H 9433   8.505   8.224   3.459 -0.6965 -0.3252 -0.5562
  811MOL0     H 9434   8.638   8.464   3.522 -1.0838  3.0728  0.3283
  811MOL0     H 9435   8.521   8.374   3.624 -1.0356 -0.1397  0.1719
  811MOL0     H 9436   8.319   8.548   3.694 -0.7809  1.6545  1.4085
  811MOL0     H 9437   8.237   8.857   3.675  1.0630 -0.6976 -1.4256
  811MOL0     H 9438   8.183   8.861   3.508 -0.7919 -1.3386 -0.7282
  811MOL0     H 9439   8.068   8.635   3.593 -2.0033  1.5503 -1.3883
  811MOL0     H 9440   7.998   8.795   3.629  0.1003 -0.5553  2.3608
  811MOL0     H 9441   8.099   8.809   3.847  2.1540  1.1309 -3.0414
  811MOL0     H 9442   8.195   8.666   3.812 -0.7518  0.5335 -0.8037
  811MOL0     H 9443   8.024   8.615   3.973  4.5096 -1.9931 -0.1842
  811MOL0     H 9444   8.014   8.511   3.839 -3.7906 -0.0354  0.9533
  811MOL0     H 9445   7.893   8.443   4.022  0.1276 -0.7297 -1.1399
  811MOL0     H 9446   7.817   8.265   4.123 -0.7386 -0.8890 -1.0845
  811MOL0     H 9447   7.721   8.350   4.247  1.7641 -2.9083  2.3629
  811MOL0     H 9448   7.647   8.224   4.160 -1.4998  2.1973  4.0577
  811MOL0     H 9449   7.100   8.486   3.883 -3.7764 -1.6289 -3.7992
  811MOL0     H 9450   6.866   8.422   3.940  0.0452 -0.0671 -1.2608
  811MOL0     H 9451   6.807   8.108   4.237  0.7742  2.8438 -0.0960
  811MOL0     H 9452   6.637   8.134   4.183  0.4839 -2.7560 -0.7863
  811MOL0     H 9453   6.691   8.073   3.951  0.0098 -1.5085 -1.7405
  811MOL0     H 9454   6.855   8.033   4.002 -0.0450 -3.5115 -0.9179
  811MOL0     H 9455   6.797   7.848   4.140 -1.1527 -1.1393  0.5336
  811MOL0     H 9456   6.752   7.825   3.974  1.8234 -1.3085  1.6415
  811MOL0     H 9457   6.551   7.935   4.194  0.1979 -0.0359 -0.2589
  811MOL0     H 9458   6.503   7.889   4.025 -0.0906 -1.8498 -0.2947
  811MOL0     H 9459   6.471   7.730   4.242  0.2221  1.6351 -0.3494
  811MOL0     H 9460   6.634   7.700   4.191  1.5817 -0.4303 -4.2612
  811MOL0     H 9461   6.386   7.683   4.017  0.3845  2.1228  0.9453
  811MOL0     H 9462   6.540   7.675   3.952  0.9002  1.3058  0.9973
  811MOL0     H 9463   6.455   7.476   4.174  0.5660 -0.9793  0.0416
  811MOL0     H 9464   6.581   7.465   4.056 -1.7099 -1.1344 -0.0334
  811MOL0     H 9465   6.389   7.303   4.000  0.5796 -0.3851 -1.1652
  811MOL0     H 9466   6.455   7.405   3.879  2.1076  2.4955  1.1891
  811MOL0     H 9467   7.013   8.129   4.216  1.2234 -0.9164  0.2424
  811MOL0     H 9468   7.243   8.194   4.167  1.2473  1.1442 -0.3564
  811MOL0     H 9469   7.443   8.594   3.905  0.9406  0.5484  0.5581
  811MOL0     H 9470   7.630   8.660   3.771 -0.6349 -2.5001 -2.5490
  811MOL0     H 9471   8.501   7.870   2.803  0.8993 -0.5096 -0.5590
  811MOL0     H 9472   8.323   7.757   2.683 -0.2969  1.3256  2.7992
  811MOL0     H 9473   8.009   7.925   2.147 -1.0413  0.3408 -1.1500
  811MOL0     H 9474   7.846   7.779   2.026 -0.0440  5.9672  3.5025
  811MOL0     H 9475   7.672   7.587   1.954  1.2645  0.2163  2.0109
  811MOL0     H 9476   7.829   7.598   1.868  2.0350 -0.5446  1.1553
  811MOL0     H 9477   7.649   7.346   1.877 -0.7839 -0.5099 -0.0454
  811MOL0     H 9478   7.815   7.348   1.825 -3.9136 -3.7934  1.5219
  811MOL0     H 9479   7.771   7.503   1.656 -0.4348  0.2604 -1.0337
  811MOL0     H 9480   7.605   7.523   1.708  0.3112  0.2795  1.9840
  811MOL0     H 9481   7.527   7.314   1.653 -1.7832  1.8095 -2.3966
  811MOL0     H 9482   7.685   7.251   1.592 -0.0673 -0.7025  4.4598
  811MOL0     H 9483   7.571   7.468   1.273  2.3527 -2.3345 -1.8516
  811MOL0     H 9484   7.977   7.444   2.254  1.4723 -0.0878  2.4142
  811MOL0     H 9485   8.131   7.588   2.363  0.0066  0.4550 -0.7682
  812MOL0     O 9486  10.125   3.790   4.637 -0.5725  0.2007 -0.4290
  812MOL0     C 9487  10.181   3.894   4.644 -0.5419  0.5341 -0.3223
  812MOL0     O 9488  10.150   4.009   4.578  1.3270  0.1739 -0.5711
  812MOL0     C 9489  10.029   4.024   4.510  0.0457  0.4209 -1.2411
  812MOL0     C 9490   9.915   4.030   4.583 -0.0169 -0.1546 -0.0684
  812MOL0     C 9491   9.789   4.029   4.511 -0.6156 -0.3948  0.0884
  812MOL0     C 9492   9.782   4.042   4.373 -0.9355  0.1262  0.5352
  812MOL0     O 9493   9.659   4.024   4.321 -0.5017  0.1612  0.3119
  812MOL0     C 9494   9.619   3.887   4.301 -0.9056  0.0921 -1.3291
  812MOL0     C 9495   9.465   3.878   4.303  0.0163  0.8493  0.0040
  812MOL0     C 9496   9.419   3.741   4.278 -1.1280  0.5426 -0.2400
  812MOL0     C 9497   9.446   3.646   4.399  1.2149  0.1831 -0.0614
  812MOL0     C 9498   9.344   3.526   4.405 -0.1831  1.0761  1.2203
  812MOL0     C 9499   9.360   3.425   4.284  0.9872  0.1189  0.0803
  812MOL0     C 9500   9.255   3.304   4.303 -0.0751  0.0698  0.0635
  812MOL0     C 9501   9.299   3.179   4.205  0.4265 -0.1061  0.0967
  812MOL0     N 9502   9.206   3.062   4.227 -0.7112  0.0881  0.8242
  812MOL0     C 9503   9.230   2.979   4.336  1.6353 -1.0229  0.5504
  812MOL0     C 9504   9.162   2.868   4.299 -0.4755 -0.5487  0.1315
  812MOL0     C 9505   9.174   2.734   4.373  0.2833  0.4001  0.0336
  812MOL0     C 9506   9.043   2.652   4.371  0.2342  0.2264 -0.1288
  812MOL0     C 9507   8.933   2.727   4.449 -0.7207  1.0436  0.4494
  812MOL0     C 9508   8.825   2.775   4.348 -0.0916 -0.3263  1.1353
  812MOL0     O 9509   8.706   2.831   4.410 -0.7126  0.8306 -0.3421
  812MOL0     C 9510   8.696   2.959   4.444  0.1647 -0.9384 -0.8683
  812MOL0     C 9511   8.815   3.037   4.462 -0.2930  0.3514  0.2025
  812MOL0     C 9512   8.798   3.168   4.507  1.2616 -0.7126 -0.8453
  812MOL0     C 9513   8.929   3.257   4.512  0.2631 -0.6941 -0.3583
  812MOL0     C 9514   8.675   3.212   4.559  0.3855 -0.2282 -0.0481
  812MOL0     C 9515   8.648   3.342   4.640 -0.7957  1.6003 -0.2527
  812MOL0     O 9516   8.533   3.341   4.713 -0.0070 -0.2484 -0.1611
  812MOL0     C 9517   8.518   3.455   4.783 -0.5431  0.0217 -0.2519
  812MOL0     C 9518   8.448   3.565   4.723  0.0777  0.1021 -0.6417
  812MOL0     C 9519   8.403   3.671   4.805 -0.5638 -0.5658  0.3848
  812MOL0     C 9520   8.430   3.667   4.941  0.5107  0.3003  0.3396
  812MOL0     O 9521   8.396   3.765   5.021 -0.2972 -0.3255 -0.0872
  812MOL0     C 9522   8.423   3.902   4.969  0.2469 -1.1096  0.2056
  812MOL0     C 9523   8.294   3.983   4.980  0.1276 -0.0854 -0.1860
  812MOL0     C 9524   8.324   4.126   4.938  0.2076  0.5589  1.0316
  812MOL0     C 9525   8.430   4.192   5.029  1.0658 -1.2182 -0.4854
  812MOL0     C 9526   8.409   4.345   5.048 -0.4909 -0.7057 -0.2658
  812MOL0     C 9527   8.538   4.408   5.083 -0.8725 -0.0130 -0.7498
  812MOL0     C 9528   8.534   4.556   5.108  0.1756  0.5759  0.5360
  812MOL0     C 9529   8.546   4.594   5.254 -0.4563  0.0730 -0.6687
  812MOL0    Cl 9530   8.520   4.767   5.249 -0.1301  0.1904  0.4773
  812MOL0     C 9531   8.497   3.561   4.995  0.0480 -0.0678  0.0873
  812MOL0     C 9532   8.534   3.449   4.920  0.5789  0.2079  0.0274
  812MOL0     O 9533   8.722   3.437   4.625  0.0543 -0.2986  0.2074
  812MOL0     C 9534   8.563   3.125   4.555  0.1804 -0.4255 -0.5750
  812MOL0     C 9535   8.574   3.004   4.491 -0.1196  0.2197  0.4498
  812MOL0     N 9536   9.107   2.883   4.178  0.0876  0.3364 -0.7388
  812MOL0     N 9537   9.124   3.002   4.135 -0.1897 -0.7612  0.2858
  812MOL0     C 9538   9.902   4.054   4.299  0.1162  0.4017 -0.8030
  812MOL0     C 9539  10.027   4.046   4.373  0.2670  0.7148  0.1995
  812MOL0     C 9540  10.289   3.895   4.736  0.2716 -0.5859 -0.0342
  812MOL0     C 9541  10.348   4.018   4.757 -0.1821  0.4999  0.7693
  812MOL0     C 9542  10.450   4.028   4.853  0.2858 -0.4121  0.0977
  812MOL0     C 9543  10.482   3.919   4.934 -0.7024  0.0585 -0.4963
  812MOL0     O 9544  10.560   3.947   5.039  0.2061 -0.1459  0.2803
  812MOL0     C 9545  10.496   3.928   5.156  0.0689 -0.0872 -1.0467
  812MOL0     C 9546  10.417   4.060   5.190  0.7623  0.0123 -0.8544
  812MOL0     C 9547  10.264   4.034   5.189  0.4791 -0.0575 -0.5297
  812MOL0     C 9548  10.186   4.162   5.229  0.0626  0.0978 -1.1414
  812MOL0     C 9549  10.200   4.183   5.375 -0.8501  0.5541  0.5108
  812MOL0     C 9550  10.203   4.205   5.497 -0.5035 -0.0289 -0.2569
  812MOL0     C 9551  10.419   3.800   4.901  0.0988  0.0604  0.5461
  812MOL0     C 9552  10.323   3.786   4.806 -0.1560 -0.4013  0.2599
  812MOL0     H 9553   9.925   4.022   4.691  1.8098 -0.0313 -0.2104
  812MOL0     H 9554   9.699   4.028   4.571 -1.1332 -3.0198 -0.6048
  812MOL0     H 9555   9.661   3.858   4.204 -2.2317 -1.1132 -1.5745
  812MOL0     H 9556   9.653   3.818   4.379  1.0176  2.7011  0.3320
  812MOL0     H 9557   9.432   3.925   4.396 -3.1629  0.4426 -0.8262
  812MOL0     H 9558   9.418   3.943   4.229  0.5462  1.6659  0.3701
  812MOL0     H 9559   9.311   3.751   4.267 -0.8990  3.5829 -0.4392
  812MOL0     H 9560   9.465   3.700   4.188  0.8384  0.9294  0.5291
  812MOL0     H 9561   9.545   3.601   4.400  0.4265 -1.6905 -1.1376
  812MOL0     H 9562   9.428   3.700   4.492 -0.4894  1.0518 -0.8425
  812MOL0     H 9563   9.360   3.466   4.495 -2.2901  1.6909  2.0636
  812MOL0     H 9564   9.241   3.563   4.413 -0.9138 -0.8137  1.1863
  812MOL0     H 9565   9.327   3.477   4.194  0.2845  0.3815  0.4853
  812MOL0     H 9566   9.465   3.397   4.272  0.2844 -3.8023  1.3981
  812MOL0     H 9567   9.261   3.275   4.408 -0.0130 -1.1858 -0.2641
  812MOL0     H 9568   9.155   3.337   4.276 -0.5607 -2.7684 -2.1588
  812MOL0     H 9569   9.406   3.159   4.201  0.3671 -0.1481 -2.2295
  812MOL0     H 9570   9.282   3.213   4.103  0.4558  0.8658  0.3988
  812MOL0     H 9571   9.278   3.011   4.427 -1.2137  0.1957  1.7562
  812MOL0     H 9572   9.261   2.678   4.336 -0.2690  0.2190 -1.0302
  812MOL0     H 9573   9.196   2.760   4.477 -3.1392  0.0700  0.9451
  812MOL0     H 9574   9.060   2.554   4.417  0.9963  0.9490  1.1801
  812MOL0     H 9575   9.012   2.639   4.267 -2.0424 -0.8217  0.5994
  812MOL0     H 9576   8.970   2.813   4.506 -3.7455  1.3598  2.1289
  812MOL0     H 9577   8.891   2.650   4.514 -1.7650  0.0745 -1.2995
  812MOL0     H 9578   8.790   2.700   4.276  0.3126 -0.2372  0.8451
  812MOL0     H 9579   8.868   2.860   4.295  0.9176 -1.0567  0.7442
  812MOL0     H 9580   8.915   2.999   4.452 -0.7051 -1.5142  2.4618
  812MOL0     H 9581   8.924   3.327   4.428  0.4297 -2.6618 -2.1109
  812MOL0     H 9582   8.940   3.319   4.601 -2.2634 -1.9430  0.9252
  812MOL0     H 9583   9.010   3.183   4.509 -0.6270 -1.6669 -0.7976
  812MOL0     H 9584   8.420   3.559   4.618 -2.1953 -1.3434 -0.0303
  812MOL0     H 9585   8.374   3.761   4.751  1.8144 -1.8125 -3.2580
  812MOL0     H 9586   8.502   3.946   5.031 -1.8041  1.8014  0.9631
  812MOL0     H 9587   8.466   3.907   4.869 -1.3357  1.5556 -0.4348
  812MOL0     H 9588   8.227   3.942   4.905  0.4113 -2.0981  0.6030
  812MOL0     H 9589   8.260   3.974   5.083 -1.6615 -0.1358 -0.7452
  812MOL0     H 9590   8.223   4.169   4.938 -0.9804 -1.9430 -0.9688
  812MOL0     H 9591   8.367   4.130   4.837  1.0862 -0.1960  1.3650
  812MOL0     H 9592   8.430   4.152   5.131  1.3736  0.1965  0.0979
  812MOL0     H 9593   8.537   4.183   5.006  2.1529 -0.4393  3.4528
  812MOL0     H 9594   8.335   4.367   5.125  0.3166  0.7238  0.1415
  812MOL0     H 9595   8.377   4.376   4.948  0.2945 -1.9986 -0.9530
  812MOL0     H 9596   8.582   4.369   5.176  0.2748  1.6138 -0.5749
  812MOL0     H 9597   8.600   4.379   4.998  0.3768 -1.4997  0.6015
  812MOL0     H 9598   8.443   4.603   5.069 -1.5276 -2.4733  0.5722
  812MOL0     H 9599   8.610   4.602   5.043  1.1267  1.1188  1.9746
  812MOL0     H 9600   8.639   4.553   5.295 -1.9854 -4.1879 -1.0023
  812MOL0     H 9601   8.459   4.552   5.306  0.8596  1.2003  2.7220
  812MOL0     H 9602   8.527   3.574   5.098  0.1885  0.1050  0.0253
  812MOL0     H 9603   8.570   3.362   4.972  1.5405  1.0259  0.7799
  812MOL0     H 9604   8.463   3.144   4.592  0.7957 -1.6564  1.9433
  812MOL0     H 9605   8.485   2.946   4.473 -0.8699  1.9363 -1.9118
  812MOL0     H 9606   9.904   4.046   4.190 -2.7844 -0.0933 -0.8996
  812MOL0     H 9607  10.117   4.053   4.311 -1.1452  1.1746 -1.9145
  812MOL0     H 9608  10.334   4.111   4.702  0.3511  0.5659  0.7366
  812MOL0     H 9609  10.506   4.118   4.879  1.5555 -0.6466 -1.6209
  812MOL0     H 9610  10.424   3.845   5.155 -0.2047  0.1127 -3.1617
  812MOL0     H 9611  10.577   3.904   5.225  1.0999  1.1357 -1.8126
  812MOL0     H 9612  10.443   4.138   5.118  0.6595  0.1351 -0.7584
  812MOL0     H 9613  10.434   4.100   5.290 -2.6810  2.1062 -0.9576
  812MOL0     H 9614  10.235   3.950   5.254 -4.2825 -1.0483 -3.4245
  812MOL0     H 9615  10.233   4.008   5.088 -3.5654  1.5608  0.1149
  812MOL0     H 9616  10.079   4.168   5.208 -0.3471 -0.6054  0.5451
  812MOL0     H 9617  10.226   4.247   5.172 -0.4985  0.4012 -1.0892
  812MOL0     H 9618  10.200   4.214   5.604 -0.6411  2.0608 -0.4073
  812MOL0     H 9619  10.451   3.711   4.953  0.9443 -2.1730 -3.3740
  812MOL0     H 9620  10.266   3.695   4.789 -0.5177 -0.3712  1.2080
  813MOL0     O 9621   5.834   2.732   2.511 -0.6953  0.8696 -0.0658
  813MOL0     C 9622   5.883   2.627   2.549  0.0886  0.3865  0.6127
  813MOL0     O 9623   5.815   2.512   2.585 -0.2992 -0.1081 -0.5392
  813MOL0     C 9624   5.677   2.525   2.606 -0.5114  0.2401  0.3583
  813MOL0     C 9625   5.624   2.624   2.682  0.5192 -0.7346 -0.4098
  813MOL0     C 9626   5.483   2.636   2.701 -0.3038  0.3802 -0.7200
  813MOL0     C 9627   5.398   2.533   2.643 -1.0325  0.0399  0.3832
  813MOL0     O 9628   5.266   2.522   2.639 -0.0244  0.6115  0.5439
  813MOL0     C 9629   5.179   2.626   2.673 -0.5702  0.2461 -0.6144
  813MOL0     C 9630   5.155   2.735   2.565  0.2637 -0.4826 -0.2431
  813MOL0     C 9631   5.085   2.685   2.432  0.6604  0.2636  0.1151
  813MOL0     C 9632   4.958   2.764   2.400 -0.8120 -0.0342 -0.4779
  813MOL0     C 9633   4.938   2.796   2.245  0.0861  0.1363 -0.4184
  813MOL0     C 9634   4.886   2.680   2.178  0.5432  0.9006  0.1694
  813MOL0     C 9635   4.862   2.717   2.028 -0.3048 -0.6230  0.2317
  813MOL0     C 9636   4.798   2.596   1.957  0.2283 -0.2434  0.6857
  813MOL0     N 9637   4.730   2.638   1.836 -0.1452 -0.0792 -0.2895
  813MOL0     C 9638   4.604   2.696   1.827 -0.1786  0.1528 -0.2527
  813MOL0     C 9639   4.586   2.717   1.693 -1.4809  0.4754 -0.0346
  813MOL0     C 9640   4.469   2.786   1.635 -0.7590  0.9702  0.0856
  813MOL0     C 9641   4.403   2.709   1.518  1.0791  0.3830 -1.1791
  813MOL0     C 9642   4.496   2.673   1.398  0.0767  0.1935  0.9928
  813MOL0     C 9643   4.414   2.645   1.260 -1.3330  0.5008 -0.6851
  813MOL0     O 9644   4.379   2.775   1.202  0.3349  0.4011  0.4621
  813MOL0     C 9645   4.295   2.760   1.097  0.2840 -0.4035 -0.9055
  813MOL0     C 9646   4.166   2.777   1.123  0.4234 -0.8341  0.5187
  813MOL0     C 9647   4.078   2.774   1.007 -0.1512 -0.5511 -0.5980
  813MOL0     C 9648   3.937   2.769   1.045  1.0038 -0.0859 -0.2949
  813MOL0     C 9649   4.120   2.752   0.873 -1.2644 -0.0726  0.1822
  813MOL0     C 9650   4.024   2.748   0.761 -0.2007 -0.6755 -0.3504
  813MOL0     O 9651   4.063   2.804   0.645  0.2502 -0.3291 -0.0996
  813MOL0     C 9652   3.979   2.784   0.542  0.4509  0.6794 -0.1734
  813MOL0     C 9653   3.965   2.669   0.470 -0.5501 -0.6744 -0.3333
  813MOL0     C 9654   3.878   2.674   0.364 -0.0818  0.1611  0.3119
  813MOL0     C 9655   3.801   2.793   0.341 -0.3139  0.1682 -0.2121
  813MOL0     O 9656   3.695   2.783   0.248 -0.1185  0.2530 -1.2219
  813MOL0     C 9657   3.621   2.907   0.224  0.1943  0.4374  1.1073
  813MOL0     C 9658   3.520   2.892   0.102 -0.7263 -0.2066 -0.4514
  813MOL0     C 9659   3.413   2.995   0.115 -0.2818 -0.4006  0.8558
  813MOL0     C 9660   3.303   2.985   0.009  0.4681 -0.6929  0.5704
  813MOL0     C 9661   3.202   3.105   0.024  1.5040  0.2667 -0.0773
  813MOL0     C 9662   3.094   3.109  -0.081 -0.2167 -0.6722  0.7693
  813MOL0     C 9663   3.151   3.143  -0.224 -0.2827 -0.2357  0.2325
  813MOL0     C 9664   3.041   3.180  -0.324 -0.1616 -0.0512 -0.3776
  813MOL0    Cl 9665   2.955   3.026  -0.360 -0.0429 -0.1812 -0.2990
  813MOL0     C 9666   3.823   2.905   0.414 -0.3906 -0.4195  0.0122
  813MOL0     C 9667   3.908   2.900   0.517  0.1334  0.5108  0.6868
  813MOL0     O 9668   3.923   2.686   0.774 -0.4249  0.1904  0.2600
  813MOL0     C 9669   4.255   2.770   0.860 -0.4272  0.3991 -0.8958
  813MOL0     C 9670   4.345   2.767   0.966  0.3212 -0.3671  0.6683
  813MOL0     N 9671   4.691   2.654   1.634  0.5482  0.5480  0.0296
  813MOL0     N 9672   4.780   2.607   1.713  0.7956 -0.5318 -0.3742
  813MOL0     C 9673   5.459   2.431   2.561  0.1506  0.5945  0.4009
  813MOL0     C 9674   5.599   2.425   2.545  0.1189  0.3019 -0.9467
  813MOL0     C 9675   6.027   2.626   2.540  0.5861 -0.1416  0.0412
  813MOL0     C 9676   6.101   2.714   2.464 -0.5533 -0.0941 -0.3479
  813MOL0     C 9677   6.242   2.711   2.477 -0.6885  0.3313  0.4031
  813MOL0     C 9678   6.302   2.626   2.571  0.3967 -0.2668  0.4003
  813MOL0     O 9679   6.435   2.625   2.563 -1.2760 -0.1376  0.0877
  813MOL0     C 9680   6.505   2.655   2.684 -0.2358 -0.8280  0.3504
  813MOL0     C 9681   6.627   2.559   2.708 -0.0422 -0.3822  0.5775
  813MOL0     C 9682   6.766   2.597   2.658 -0.2427 -0.1442  0.4811
  813MOL0     C 9683   6.783   2.631   2.511 -0.0256 -0.3001  0.7937
  813MOL0     C 9684   6.909   2.698   2.481  0.3203  0.6251  0.1528
  813MOL0     C 9685   7.015   2.752   2.477  0.0111 -0.0273 -0.0271
  813MOL0     C 9686   6.223   2.556   2.653 -0.6247  0.0338 -0.5831
  813MOL0     C 9687   6.087   2.540   2.631  0.4980 -0.1280  0.3950
  813MOL0     H 9688   5.689   2.706   2.708 -0.7362  1.1102 -2.6790
  813MOL0     H 9689   5.439   2.715   2.760  0.4702  0.0576  0.3168
  813MOL0     H 9690   5.089   2.572   2.702  1.5743 -2.8345  0.9042
  813MOL0     H 9691   5.228   2.670   2.760  0.4119  0.7302 -1.3919
  813MOL0     H 9692   5.091   2.809   2.614 -0.5710  0.1908 -2.2485
  813MOL0     H 9693   5.246   2.787   2.535  0.1653  0.8461  1.5864
  813MOL0     H 9694   5.144   2.697   2.341  0.2858 -1.7170 -0.4416
  813MOL0     H 9695   5.063   2.578   2.427  0.1072  0.4282 -2.3490
  813MOL0     H 9696   4.867   2.718   2.440 -2.1966  2.9162  0.0960
  813MOL0     H 9697   4.954   2.854   2.462  0.9641 -0.6068  0.5381
  813MOL0     H 9698   4.865   2.877   2.238  1.2008  1.2409  0.2551
  813MOL0     H 9699   5.033   2.826   2.200 -1.3680  1.6541 -2.6779
  813MOL0     H 9700   4.946   2.589   2.180 -0.0203  0.4810 -0.8443
  813MOL0     H 9701   4.787   2.648   2.214  0.4063  0.3012 -0.6919
  813MOL0     H 9702   4.799   2.806   2.034  1.3449  0.5088  3.7329
  813MOL0     H 9703   4.957   2.728   1.974  0.7571 -5.6167  0.6026
  813MOL0     H 9704   4.717   2.547   2.012  0.1252 -0.9837 -0.0996
  813MOL0     H 9705   4.865   2.515   1.924 -0.9899 -2.9209  4.1777
  813MOL0     H 9706   4.534   2.715   1.908  0.4067  2.1331 -0.1597
  813MOL0     H 9707   4.394   2.808   1.713 -2.4280 -0.1318 -1.1405
  813MOL0     H 9708   4.505   2.876   1.583  1.0893 -1.3811 -2.9975
  813MOL0     H 9709   4.323   2.774   1.483 -1.6549 -0.8605  2.2066
  813MOL0     H 9710   4.347   2.620   1.546 -1.3341  2.5010  1.3019
  813MOL0     H 9711   4.555   2.582   1.416 -0.1065 -1.0840 -3.6374
  813MOL0     H 9712   4.567   2.756   1.383  0.9313 -0.5520  0.8122
  813MOL0     H 9713   4.336   2.569   1.262 -0.7760 -0.2036 -2.9796
  813MOL0     H 9714   4.492   2.604   1.195 -2.3431  1.2946 -2.4803
  813MOL0     H 9715   4.146   2.784   1.229  1.2409  3.9701  0.5938
  813MOL0     H 9716   3.873   2.832   0.983  0.3854  2.0128  2.2745
  813MOL0     H 9717   3.898   2.668   1.032  0.8184 -0.0826  0.2323
  813MOL0     H 9718   3.926   2.796   1.150  0.3202 -3.4017  0.5878
  813MOL0     H 9719   4.022   2.577   0.471  1.0151  0.2254  2.2921
  813MOL0     H 9720   3.865   2.578   0.316 -0.1298  0.4833 -0.3355
  813MOL0     H 9721   3.562   2.950   0.305 -0.6870  0.8215  0.2777
  813MOL0     H 9722   3.693   2.984   0.195  0.6026 -0.0133  0.8839
  813MOL0     H 9723   3.572   2.891   0.006  1.6330 -0.4391  0.7535
  813MOL0     H 9724   3.482   2.790   0.117 -0.8115  0.0861  1.6207
  813MOL0     H 9725   3.452   3.098   0.116 -0.8689 -0.1634  2.3052
  813MOL0     H 9726   3.368   2.985   0.214  1.4023 -0.4041  1.6713
  813MOL0     H 9727   3.353   2.994  -0.088  0.0105 -2.5109  0.1194
  813MOL0     H 9728   3.250   2.892   0.029  0.9785 -1.0758  0.1842
  813MOL0     H 9729   3.256   3.200   0.026  1.3136  0.3776  1.4341
  813MOL0     H 9730   3.150   3.093   0.120  0.2243 -0.7809 -0.8722
  813MOL0     H 9731   3.038   3.016  -0.091  0.1309 -0.7161 -1.0381
  813MOL0     H 9732   3.024   3.187  -0.048 -0.0298 -0.1127 -0.1261
  813MOL0     H 9733   3.214   3.057  -0.249  0.3527 -0.3846  2.1589
  813MOL0     H 9734   3.206   3.237  -0.213  0.3404 -0.5778  0.0893
  813MOL0     H 9735   3.098   3.214  -0.411 -1.2762 -0.4300 -1.2883
  813MOL0     H 9736   2.977   3.254  -0.275 -1.4962  1.0889 -3.5323
  813MOL0     H 9737   3.767   2.990   0.377  1.1180  0.2445 -0.8232
  813MOL0     H 9738   3.934   2.988   0.576  3.0068 -0.7781  1.5331
  813MOL0     H 9739   4.294   2.759   0.759 -0.5779 -1.4579 -0.7843
  813MOL0     H 9740   4.452   2.770   0.947 -0.1896  2.5068 -2.8971
  813MOL0     H 9741   5.388   2.356   2.527  0.4078  0.7803 -0.5527
  813MOL0     H 9742   5.633   2.343   2.482 -0.8966 -1.7696  1.0785
  813MOL0     H 9743   6.072   2.791   2.393  1.5097  1.8935  0.8343
  813MOL0     H 9744   6.314   2.767   2.419  2.6799 -2.8793  1.0430
  813MOL0     H 9745   6.539   2.759   2.689 -1.0973 -0.5788  3.3928
  813MOL0     H 9746   6.441   2.647   2.772  1.7019 -3.5642  1.6469
  813MOL0     H 9747   6.606   2.468   2.650 -1.1308  0.2861 -0.1049
  813MOL0     H 9748   6.641   2.535   2.814  1.7640 -0.7957  0.2745
  813MOL0     H 9749   6.825   2.506   2.665  1.5108  0.8122 -0.8866
  813MOL0     H 9750   6.807   2.679   2.719 -0.0952  0.2671 -0.1627
  813MOL0     H 9751   6.709   2.704   2.477  1.1120  0.7020  0.3839
  813MOL0     H 9752   6.742   2.549   2.452 -1.0423  0.4927  0.3687
  813MOL0     H 9753   7.111   2.789   2.449  0.0846 -0.4533 -0.3545
  813MOL0     H 9754   6.264   2.503   2.738 -2.9389  1.1304  1.3238
  813MOL0     H 9755   6.031   2.469   2.691 -1.9747  4.0145  3.5180
  814MOL0     O 9756  11.020   1.548   7.207  0.1859  0.5380  0.1483
  814MOL0     C 9757  11.028   1.624   7.303 -1.3572 -0.7261 -0.3291
  814MOL0     O 9758  10.941   1.724   7.329  0.7592  0.3531  1.2550
  814MOL0     C 9759  10.834   1.740   7.240  0.4370 -0.3054  0.1552
  814MOL0     C 9760  10.700   1.709   7.278 -0.9658  0.9307  0.2884
  814MOL0     C 9761  10.597   1.743   7.187  1.0950  1.0604 -0.6321
  814MOL0     C 9762  10.622   1.801   7.063 -0.7164 -0.2643 -0.1129
  814MOL0     O 9763  10.520   1.827   6.970  0.0141  0.6385  0.0913
  814MOL0     C 9764  10.397   1.903   7.019 -0.0682 -0.1462 -0.0190
  814MOL0     C 9765  10.424   2.049   7.042  0.6232 -0.0435 -0.1735
  814MOL0     C 9766  10.290   2.121   7.036 -0.7837  0.4834  0.0050
  814MOL0     C 9767  10.290   2.271   7.045  0.9400  0.3433 -0.5905
  814MOL0     C 9768  10.321   2.318   7.194  1.0351 -0.3091  0.5455
  814MOL0     C 9769  10.186   2.312   7.279  0.1900  0.4337  0.0591
  814MOL0     C 9770  10.218   2.347   7.423  0.3094  0.4587 -0.1572
  814MOL0     C 9771  10.259   2.498   7.434 -0.5490  0.4544 -0.5979
  814MOL0     N 9772  10.399   2.542   7.417 -0.1491 -0.1443  0.1561
  814MOL0     C 9773  10.512   2.491   7.472  0.8136 -0.7489 -0.4976
  814MOL0     C 9774  10.613   2.563   7.424 -0.2465  0.1177 -0.0587
  814MOL0     C 9775  10.758   2.559   7.438 -0.1747 -0.6117  0.4529
  814MOL0     C 9776  10.819   2.698   7.479 -0.4292  0.1175  0.5556
  814MOL0     C 9777  10.978   2.683   7.486  0.1555  0.5688 -0.4578
  814MOL0     C 9778  11.038   2.820   7.535 -0.4153  0.7965  0.2470
  814MOL0     O 9779  11.164   2.776   7.587 -0.8651  0.2863 -0.0257
  814MOL0     C 9780  11.255   2.874   7.633  0.4426  0.4420  0.4772
  814MOL0     C 9781  11.360   2.830   7.720  0.4218  0.5575  0.1771
  814MOL0     C 9782  11.454   2.918   7.773 -0.1677  0.2557  0.1560
  814MOL0     C 9783  11.559   2.855   7.858  0.3442 -0.4504  0.1701
  814MOL0     C 9784  11.441   3.062   7.740  0.9027  0.2055 -0.3650
  814MOL0     C 9785  11.523   3.180   7.787  0.3579  0.2896  0.4134
  814MOL0     O 9786  11.499   3.301   7.724  0.5130 -0.5105 -0.2473
  814MOL0     C 9787  11.511   3.415   7.794  0.6537 -0.5080  0.0780
  814MOL0     C 9788  11.452   3.432   7.925 -0.6955  0.1316  0.0071
  814MOL0     C 9789  11.475   3.548   8.005 -0.4309  0.0608 -0.4858
  814MOL0     C 9790  11.557   3.650   7.958 -0.3243 -0.3058  1.0220
  814MOL0     O 9791  11.592   3.762   8.030 -0.6988  0.6561 -0.7394
  814MOL0     C 9792  11.567   3.767   8.173  1.3089 -0.5742  0.4224
  814MOL0     C 9793  11.646   3.874   8.249  0.0922 -0.6750  0.2362
  814MOL0     C 9794  11.588   3.882   8.395 -0.0875 -0.4021  0.4028
  814MOL0     C 9795  11.632   4.022   8.446  0.1273  0.9610  0.0928
  814MOL0     C 9796  11.587   4.042   8.592 -0.9033  0.5569 -0.4292
  814MOL0     C 9797  11.635   4.186   8.640 -0.2290  1.5698 -0.1419
  814MOL0     C 9798  11.780   4.179   8.641 -0.7170 -0.5759 -0.1209
  814MOL0     C 9799  11.836   4.304   8.719  0.9019 -0.0625 -0.1963
  814MOL0    Cl 9800  12.018   4.304   8.685 -0.0942 -0.3227 -0.1000
  814MOL0     C 9801  11.614   3.635   7.828 -0.7169  0.5086 -0.0500
  814MOL0     C 9802  11.581   3.530   7.746 -0.4928  0.4367 -0.1265
  814MOL0     O 9803  11.604   3.155   7.882 -0.2438 -0.3278  0.2923
  814MOL0     C 9804  11.333   3.096   7.652 -0.0999 -0.5413  0.4482
  814MOL0     C 9805  11.243   3.008   7.597 -0.8459 -0.5247 -0.1122
  814MOL0     N 9806  10.565   2.652   7.335  0.1491  0.6808 -0.5374
  814MOL0     N 9807  10.430   2.653   7.345  0.4670 -0.5339 -0.0038
  814MOL0     C 9808  10.751   1.832   7.025  0.6414 -0.0321 -0.8941
  814MOL0     C 9809  10.855   1.808   7.122 -0.5618 -0.6150 -0.4903
  814MOL0     C 9810  11.153   1.617   7.384 -0.5113 -0.4828  1.3492
  814MOL0     C 9811  11.252   1.525   7.360  0.6121  0.4665  0.0515
  814MOL0     C 9812  11.351   1.500   7.456  0.2651  0.3878 -1.2365
  814MOL0     C 9813  11.370   1.580   7.573 -0.4313 -0.1348  0.6225
  814MOL0     O 9814  11.460   1.548   7.668 -0.6500 -0.4206 -0.1272
  814MOL0     C 9815  11.537   1.434   7.662  0.0632 -0.0432 -0.0918
  814MOL0     C 9816  11.586   1.414   7.814 -0.5095  0.8906  0.1034
  814MOL0     C 9817  11.476   1.411   7.912 -0.7032  1.0067 -0.1445
  814MOL0     C 9818  11.527   1.398   8.057  0.6461  0.3124  0.2001
  814MOL0     C 9819  11.426   1.413   8.171  0.0702  0.6643 -0.0800
  814MOL0     C 9820  11.334   1.411   8.257  0.5811  0.2493 -0.2885
  814MOL0     C 9821  11.271   1.677   7.595  0.1221  0.6138  0.8012
  814MOL0     C 9822  11.163   1.694   7.503  1.1187 -0.0826  1.2658
  814MOL0     H 9823  10.687   1.661   7.375  0.8738 -3.3947 -1.3256
  814MOL0     H 9824  10.496   1.724   7.220  0.6479 -0.4188 -2.6609
  814MOL0     H 9825  10.329   1.888   6.935 -1.3019  1.2382  0.7001
  814MOL0     H 9826  10.352   1.857   7.107 -4.1290  2.4378 -0.4906
  814MOL0     H 9827  10.470   2.066   7.140  2.4092 -3.3214 -0.3136
  814MOL0     H 9828  10.494   2.089   6.968  0.3777 -1.1329 -1.0140
  814MOL0     H 9829  10.245   2.089   6.942 -1.8777 -1.9097  1.2281
  814MOL0     H 9830  10.214   2.084   7.106 -0.3506 -1.0227 -0.2738
  814MOL0     H 9831  10.357   2.291   6.961 -1.5586  0.3828 -2.7107
  814MOL0     H 9832  10.195   2.310   7.007  0.3036 -0.5147  0.0681
  814MOL0     H 9833  10.392   2.249   7.241  0.4512 -2.4940 -1.5510
  814MOL0     H 9834  10.360   2.420   7.197  0.2272 -0.0053  1.1162
  814MOL0     H 9835  10.110   2.381   7.240 -2.3438 -0.7127  2.6184
  814MOL0     H 9836  10.145   2.212   7.264 -3.8712  1.9164 -0.0439
  814MOL0     H 9837  10.133   2.333   7.489  1.5912 -2.8979  1.0028
  814MOL0     H 9838  10.288   2.273   7.463  0.0085 -1.5892 -3.0240
  814MOL0     H 9839  10.239   2.531   7.537  0.2248  0.6052 -0.4910
  814MOL0     H 9840  10.190   2.558   7.374 -0.2390  0.3703 -1.0395
  814MOL0     H 9841  10.513   2.409   7.542  1.1870 -0.9852 -0.7766
  814MOL0     H 9842  10.795   2.483   7.508  0.3478  1.4046  2.4699
  814MOL0     H 9843  10.798   2.542   7.337  1.1151 -0.7572  0.9750
  814MOL0     H 9844  10.789   2.729   7.580 -0.7149 -0.8748  0.7834
  814MOL0     H 9845  10.790   2.764   7.397 -0.0114  1.6544  1.5879
  814MOL0     H 9846  11.014   2.648   7.389  1.1337  2.4414 -0.8306
  814MOL0     H 9847  11.004   2.609   7.563 -0.2584  0.8109 -0.0796
  814MOL0     H 9848  10.988   2.879   7.613  1.9301  1.7637  1.1120
  814MOL0     H 9849  11.046   2.885   7.448  2.9570  2.4274  1.6074
  814MOL0     H 9850  11.375   2.724   7.736 -0.7401  0.0832 -1.6014
  814MOL0     H 9851  11.647   2.843   7.794 -1.6442 -1.7710 -2.5660
  814MOL0     H 9852  11.579   2.900   7.955 -0.4286  0.7085 -0.1822
  814MOL0     H 9853  11.525   2.756   7.888  1.1929 -2.4018 -4.3691
  814MOL0     H 9854  11.374   3.367   7.961 -2.0714  1.9710  0.5029
  814MOL0     H 9855  11.418   3.552   8.097 -0.2931  1.1459 -0.4366
  814MOL0     H 9856  11.460   3.792   8.180  1.6153  1.3494 -0.9997
  814MOL0     H 9857  11.579   3.675   8.231 -0.2695 -1.5774 -0.7751
  814MOL0     H 9858  11.752   3.847   8.250  0.5422  0.8197  3.0648
  814MOL0     H 9859  11.635   3.967   8.193  0.1429  0.8084  2.5396
  814MOL0     H 9860  11.639   3.809   8.459  1.1860  0.5427  0.5099
  814MOL0     H 9861  11.481   3.861   8.404  0.0638 -1.1922  0.4439
  814MOL0     H 9862  11.740   4.029   8.434  0.0908  0.2106 -0.8058
  814MOL0     H 9863  11.598   4.100   8.378  1.1974 -0.3915 -2.1085
  814MOL0     H 9864  11.624   3.960   8.654 -3.5490 -0.8742 -0.6087
  814MOL0     H 9865  11.478   4.036   8.589 -0.9402  0.8052  0.2412
  814MOL0     H 9866  11.598   4.262   8.570  1.4804  1.1314 -1.6201
  814MOL0     H 9867  11.598   4.215   8.738 -1.1251  0.1956 -0.0398
  814MOL0     H 9868  11.828   4.180   8.543 -1.4704 -2.5389 -0.5506
  814MOL0     H 9869  11.802   4.094   8.707 -2.4339  0.2821  1.6617
  814MOL0     H 9870  11.812   4.284   8.824  3.3099  0.0687  0.4587
  814MOL0     H 9871  11.785   4.392   8.681 -0.2748 -0.2483  0.8882
  814MOL0     H 9872  11.682   3.716   7.804  0.0705  0.6896  2.4513
  814MOL0     H 9873  11.617   3.515   7.645  0.5612  2.9429 -0.2001
  814MOL0     H 9874  11.320   3.199   7.623  4.1483  0.2941  0.9224
  814MOL0     H 9875  11.155   3.047   7.546 -0.6956 -1.3953 -1.0651
  814MOL0     H 9876  10.780   1.866   6.927  1.3389  3.0422  0.2624
  814MOL0     H 9877  10.956   1.833   7.090 -0.1836  1.3308  1.9084
  814MOL0     H 9878  11.250   1.469   7.267  1.5996 -0.3675  0.5167
  814MOL0     H 9879  11.430   1.434   7.422  2.6956  2.3447  0.2917
  814MOL0     H 9880  11.490   1.347   7.615  2.6144 -2.5208  1.5612
  814MOL0     H 9881  11.636   1.447   7.616  1.0980 -0.7588  1.7768
  814MOL0     H 9882  11.655   1.494   7.841 -0.9170  1.1630  0.3597
  814MOL0     H 9883  11.626   1.312   7.814  1.3897  1.5953  1.0323
  814MOL0     H 9884  11.415   1.322   7.892 -0.0932  0.9322 -1.7993
  814MOL0     H 9885  11.414   1.499   7.892 -1.5399  0.4576 -0.0504
  814MOL0     H 9886  11.603   1.476   8.070  0.2480  0.3147  3.0595
  814MOL0     H 9887  11.578   1.302   8.065 -3.6578 -2.2361 -0.0717
  814MOL0     H 9888  11.240   1.418   8.307 -0.6035 -1.2357 -2.1291
  814MOL0     H 9889  11.283   1.734   7.687 -0.4162 -1.8422  2.5069
  814MOL0     H 9890  11.089   1.771   7.522 -0.0886 -1.1209  0.8611
  815MOL0     O 9891  10.746   8.279   4.540 -0.8038  0.1636 -0.1330
  815MOL0     C 9892  10.700   8.312   4.432 -0.3577 -0.1903 -1.2377
  815MOL0     O 9893  10.667   8.227   4.329  1.1471 -0.4987 -0.9335
  815MOL0     C 9894  10.687   8.092   4.332 -0.9690  0.0326  0.4322
  815MOL0     C 9895  10.811   8.034   4.355  0.7695 -0.2534 -0.6564
  815MOL0     C 9896  10.835   7.905   4.340 -0.9376  0.1068 -0.5522
  815MOL0     C 9897  10.733   7.825   4.279 -0.0632  0.1011 -0.5854
  815MOL0     O 9898  10.753   7.705   4.222  0.1743 -0.7916 -0.3053
  815MOL0     C 9899  10.890   7.647   4.215  1.2752 -1.0138  0.2541
  815MOL0     C 9900  10.937   7.671   4.072 -0.4921  0.0158 -0.6842
  815MOL0     C 9901  10.821   7.666   3.955 -0.8090  0.5768 -0.5610
  815MOL0     C 9902  10.872   7.712   3.821 -0.0042 -0.3280  0.7375
  815MOL0     C 9903  10.753   7.740   3.722 -0.2000 -0.8148  1.1325
  815MOL0     C 9904  10.645   7.643   3.698  0.0057 -0.9410 -0.4327
  815MOL0     C 9905  10.543   7.690   3.588 -0.1596  0.3898  0.6425
  815MOL0     C 9906  10.428   7.593   3.565 -0.4586 -0.5552 -0.1097
  815MOL0     N 9907  10.479   7.461   3.534  0.2180  0.1448 -0.5776
  815MOL0     C 9908  10.571   7.435   3.441 -0.8437  0.6921 -0.3109
  815MOL0     C 9909  10.561   7.304   3.425  0.8131 -0.0202 -0.4003
  815MOL0     C 9910  10.633   7.227   3.321  0.1867  0.6155  0.5699
  815MOL0     C 9911  10.544   7.221   3.191 -0.2480 -0.7589 -0.1551
  815MOL0     C 9912  10.622   7.158   3.081  0.6452 -0.4317  0.3088
  815MOL0     C 9913  10.565   7.197   2.951  0.9272 -0.4544 -1.2174
  815MOL0     O 9914  10.617   7.319   2.902 -0.3503  0.2846 -0.7024
  815MOL0     C 9915  10.537   7.366   2.796  0.0589 -0.3284  0.1432
  815MOL0     C 9916  10.453   7.472   2.835 -0.0517  0.0265 -0.6172
  815MOL0     C 9917  10.363   7.537   2.747  0.0942 -0.7921  0.1126
  815MOL0     C 9918  10.280   7.650   2.817  0.1783  0.1445 -0.0126
  815MOL0     C 9919  10.353   7.492   2.612  0.4559 -0.0444  0.1126
  815MOL0     C 9920  10.258   7.544   2.513  0.5157 -0.7771  1.4715
  815MOL0     O 9921  10.162   7.638   2.540 -0.5284  0.6448  0.4684
  815MOL0     C 9922  10.077   7.680   2.440 -0.4429  0.3761  0.1828
  815MOL0     C 9923  10.115   7.728   2.304 -0.2249 -0.1457  0.4521
  815MOL0     C 9924  10.022   7.789   2.218 -0.2286  0.2228 -0.4568
  815MOL0     C 9925   9.886   7.794   2.250 -0.5506 -0.8585  0.9139
  815MOL0     O 9926   9.787   7.851   2.173 -0.1414 -0.1461  0.0615
  815MOL0     C 9927   9.820   7.923   2.047 -0.2864 -0.1808 -0.5309
  815MOL0     C 9928   9.849   7.831   1.930  0.0858 -0.2713 -0.3884
  815MOL0     C 9929   9.725   7.764   1.887  0.3988  0.1915 -0.0045
  815MOL0     C 9930   9.747   7.640   1.797  0.8777  0.1957 -0.1863
  815MOL0     C 9931   9.597   7.612   1.753  0.8345  0.2784  0.3834
  815MOL0     C 9932   9.585   7.489   1.667  0.0636  0.2687 -0.2148
  815MOL0     C 9933   9.677   7.496   1.541 -0.0998 -0.6318 -0.4938
  815MOL0     C 9934   9.690   7.376   1.453  0.1438  0.3022  0.3733
  815MOL0    Cl 9935   9.526   7.322   1.416 -0.4382  0.0154  0.3210
  815MOL0     C 9936   9.853   7.734   2.370  0.7397  0.0007 -0.0896
  815MOL0     C 9937   9.937   7.673   2.465 -0.3201 -0.4526  0.5076
  815MOL0     O 9938  10.258   7.477   2.409  0.2243 -0.2897  0.5015
  815MOL0     C 9939  10.429   7.373   2.581 -0.0401 -0.5179 -0.7421
  815MOL0     C 9940  10.514   7.312   2.670 -0.3917 -0.9143  0.0486
  815MOL0     N 9941  10.477   7.243   3.516  0.6687  0.4185 -0.3885
  815MOL0     N 9942  10.433   7.345   3.588 -0.1307  0.4914 -0.0886
  815MOL0     C 9943  10.602   7.873   4.263  0.1264  0.1190 -0.0988
  815MOL0     C 9944  10.584   8.012   4.289 -0.0398 -0.1422  0.0278
  815MOL0     C 9945  10.696   8.458   4.395  0.2937  0.8163 -0.2320
  815MOL0     C 9946  10.659   8.497   4.270 -0.5239 -0.0888  0.0964
  815MOL0     C 9947  10.670   8.631   4.230  0.2681  0.0229  0.4218
  815MOL0     C 9948  10.702   8.726   4.324  0.7454 -1.6526 -0.1865
  815MOL0     O 9949  10.705   8.866   4.293 -0.2109  0.5352 -0.2772
  815MOL0     C 9950  10.725   8.896   4.163  0.1808 -0.1784  0.9331
  815MOL0     C 9951  10.595   8.929   4.082 -0.1128 -0.3358  0.3468
  815MOL0     C 9952  10.623   8.933   3.932  0.2746 -1.0680  0.7009
  815MOL0     C 9953  10.498   8.957   3.862  0.9197  0.0516  0.5808
  815MOL0     C 9954  10.509   8.999   3.722  0.8310 -0.4512  0.9179
  815MOL0     C 9955  10.535   9.022   3.605  0.1730  0.4554 -0.1334
  815MOL0     C 9956  10.734   8.692   4.450  0.4493 -0.5868  0.2321
  815MOL0     C 9957  10.731   8.560   4.492 -0.0797 -0.2711 -0.7522
  815MOL0     H 9958  10.885   8.106   4.390 -0.7674  0.1925  1.9707
  815MOL0     H 9959  10.935   7.872   4.367 -0.4334  2.8705  1.5618
  815MOL0     H 9960  10.964   7.675   4.291 -1.9002  0.7064  2.9723
  815MOL0     H 9961  10.872   7.539   4.218 -2.9813 -0.4687  0.8142
  815MOL0     H 9962  10.987   7.768   4.062  0.0097 -0.3773 -2.2037
  815MOL0     H 9963  11.013   7.594   4.054  0.5503  0.5081  1.2454
  815MOL0     H 9964  10.788   7.563   3.943  2.7785 -1.0481  1.9528
  815MOL0     H 9965  10.728   7.715   3.987 -0.7421  3.1396 -3.7839
  815MOL0     H 9966  10.934   7.799   3.845  2.1048 -1.8741  1.1506
  815MOL0     H 9967  10.936   7.639   3.772 -0.2246 -1.1326  1.6239
  815MOL0     H 9968  10.713   7.837   3.753 -0.3270 -1.1384  1.9943
  815MOL0     H 9969  10.805   7.749   3.626  1.2234  3.0776  2.0945
  815MOL0     H 9970  10.695   7.549   3.670  2.9089  0.5589 -0.6373
  815MOL0     H 9971  10.600   7.632   3.797 -1.0098  1.3691 -0.5738
  815MOL0     H 9972  10.499   7.784   3.621 -0.4767 -0.0569  1.5311
  815MOL0     H 9973  10.593   7.708   3.493  3.2551  1.0686  2.4337
  815MOL0     H 9974  10.363   7.622   3.481  0.1785  0.1722 -0.3723
  815MOL0     H 9975  10.361   7.599   3.650 -0.0853  1.0546  0.1057
  815MOL0     H 9976  10.646   7.504   3.401  0.3908 -0.8888 -0.8096
  815MOL0     H 9977  10.731   7.274   3.310  0.8261 -0.7650  0.0995
  815MOL0     H 9978  10.648   7.123   3.351 -3.6851 -0.4895 -0.6568
  815MOL0     H 9979  10.524   7.325   3.162  2.0771 -0.3636 -0.5571
  815MOL0     H 9980  10.452   7.166   3.213  1.2715 -4.0161 -1.3424
  815MOL0     H 9981  10.626   7.049   3.087  1.6627 -0.4136  0.1754
  815MOL0     H 9982  10.730   7.175   3.076  0.6171 -0.3969 -0.3175
  815MOL0     H 9983  10.457   7.208   2.968  1.6102  0.7914  4.2436
  815MOL0     H 9984  10.581   7.118   2.877  4.4037  1.1806 -2.4219
  815MOL0     H 9985  10.444   7.507   2.937 -1.3321  2.1723 -1.4048
  815MOL0     H 9986  10.333   7.745   2.803  1.4294 -0.7121 -1.3395
  815MOL0     H 9987  10.182   7.657   2.769  1.5572 -0.1378 -3.0852
  815MOL0     H 9988  10.276   7.624   2.923 -0.0817  0.8479  0.1545
  815MOL0     H 9989  10.220   7.741   2.279 -0.6805 -1.6483 -2.7716
  815MOL0     H 9990  10.061   7.831   2.125  1.7909 -0.0134  0.2392
  815MOL0     H 9991   9.729   7.982   2.035  1.0563  1.8908 -1.1818
  815MOL0     H 9992   9.895   8.003   2.060  1.0234 -1.4354 -0.0510
  815MOL0     H 9993   9.886   7.883   1.841 -0.2445 -1.9778 -1.5990
  815MOL0     H 9994   9.928   7.761   1.956 -0.1206  0.0113  1.0487
  815MOL0     H 9995   9.670   7.834   1.823 -1.0210 -2.1739 -1.5412
  815MOL0     H 9996   9.657   7.752   1.972 -1.2790 -1.1266 -1.4527
  815MOL0     H 9997   9.807   7.683   1.716  0.9769  1.2495  0.4237
  815MOL0     H 9998   9.797   7.553   1.841  1.8923  0.0293 -1.5769
  815MOL0     H 9999   9.557   7.699   1.701  1.3552  1.3595  1.7151
  815MOL0     H10000   9.526   7.601   1.835 -1.4429 -2.8280 -1.7700
  815MOL0     H10001   9.611   7.398   1.723  0.0800  1.3390  1.5770
  815MOL0     H10002   9.482   7.476   1.631  0.4358  2.0615 -2.1382
  815MOL0     H10003   9.781   7.502   1.573 -0.4950  0.3014  0.6366
  815MOL0     H10004   9.656   7.589   1.487  1.6097  0.7106  1.0314
  815MOL0     H10005   9.757   7.303   1.500  1.4147  0.1606 -1.5600
  815MOL0     H10006   9.749   7.406   1.366  0.3822  0.5864  0.6316
  815MOL0     H10007   9.747   7.715   2.383  0.9140 -0.4321  0.8129
  815MOL0     H10008   9.898   7.622   2.553 -1.9151  1.5390  1.0455
  815MOL0     H10009  10.426   7.325   2.484 -2.4495 -1.0909 -0.4311
  815MOL0     H10010  10.576   7.228   2.640 -0.9322 -0.6760 -1.8327
  815MOL0     H10011  10.517   7.818   4.223 -0.9210  1.9544 -0.4865
  815MOL0     H10012  10.492   8.070   4.286 -1.3107 -1.9904 -3.4759
  815MOL0     H10013  10.621   8.438   4.187 -2.0140  1.3995 -0.3148
  815MOL0     H10014  10.619   8.652   4.136  1.6362  2.3178  0.1058
  815MOL0     H10015  10.794   8.981   4.153  1.4593 -1.1877  0.9196
  815MOL0     H10016  10.779   8.817   4.110 -0.9842 -1.5704  1.7411
  815MOL0     H10017  10.578   9.032   4.115  2.7039  0.3921 -0.1926
  815MOL0     H10018  10.516   8.855   4.097 -1.9150 -0.2544 -5.6764
  815MOL0     H10019  10.676   8.844   3.894 -1.3096 -0.9441 -2.0440
  815MOL0     H10020  10.692   9.013   3.904  0.2638 -1.7829 -1.5662
  815MOL0     H10021  10.445   9.040   3.911 -0.7387  1.0965 -2.7215
  815MOL0     H10022  10.434   8.870   3.879 -0.6138  1.1508  0.6473
  815MOL0     H10023  10.552   9.039   3.501 -2.6509 -2.6148 -1.2763
  815MOL0     H10024  10.762   8.769   4.520 -0.6910 -0.1230  0.2025
  815MOL0     H10025  10.776   8.529   4.586 -2.1611 -0.7741  0.1156
  816MOL0     O10026   2.713   5.982   1.130 -0.4217  0.6342 -0.5753
  816MOL0     C10027   2.712   6.090   1.191 -0.5582  0.2261 -0.1842
  816MOL0     O10028   2.607   6.187   1.198 -0.5952 -0.1647 -0.9520
  816MOL0     C10029   2.485   6.156   1.140  0.7658  0.3702  0.3319
  816MOL0     C10030   2.372   6.181   1.219 -0.2631  0.6604 -0.2846
  816MOL0     C10031   2.245   6.175   1.164  0.2044 -0.7060 -0.0690
  816MOL0     C10032   2.225   6.130   1.037  0.1553  0.2562  0.1434
  816MOL0     O10033   2.106   6.119   0.965 -0.5096 -0.0360  0.2256
  816MOL0     C10034   1.990   6.197   1.008 -0.0314 -0.7270 -0.4932
  816MOL0     C10035   1.922   6.237   0.878  0.6816  0.8265  0.2734
  816MOL0     C10036   1.872   6.115   0.790  0.8869  0.4582 -0.0383
  816MOL0     C10037   1.906   6.135   0.639 -0.5328 -0.5584 -0.2411
  816MOL0     C10038   1.917   5.999   0.566 -0.1883  0.2121  0.0479
  816MOL0     C10039   1.972   6.006   0.428  0.4336  0.2357 -0.2300
  816MOL0     C10040   1.908   6.086   0.312  0.9098  0.7688 -0.0451
  816MOL0     C10041   2.017   6.123   0.213 -0.4053  0.3212  0.2100
  816MOL0     N10042   1.954   6.220   0.118  0.1474  0.3670  0.2302
  816MOL0     C10043   1.966   6.353   0.133  0.6034 -1.5665 -0.0368
  816MOL0     C10044   1.889   6.411   0.034 -0.4339  0.6993 -0.5225
  816MOL0     C10045   1.879   6.556   0.014 -0.1564  0.4345  0.4260
  816MOL0     C10046   1.731   6.594  -0.008  0.4448 -0.2560 -1.0624
  816MOL0     C10047   1.679   6.678   0.116  0.3188  0.3216  0.3523
  816MOL0     C10048   1.682   6.589   0.237  0.7607  0.6305  0.3980
  816MOL0     O10049   1.643   6.657   0.358  0.3344 -1.4438 -0.3138
  816MOL0     C10050   1.614   6.588   0.476 -1.1448 -0.1451  0.6850
  816MOL0     C10051   1.538   6.634   0.582  0.5437 -0.0607 -0.1632
  816MOL0     C10052   1.518   6.564   0.702  0.4030 -0.2258  0.0586
  816MOL0     C10053   1.448   6.647   0.806  0.5124 -0.0741 -0.5102
  816MOL0     C10054   1.571   6.433   0.718  0.5372 -0.3945  0.4900
  816MOL0     C10055   1.547   6.349   0.838  0.0016 -0.6373 -0.0343
  816MOL0     O10056   1.541   6.221   0.808  0.1902 -0.0493  0.0870
  816MOL0     C10057   1.453   6.136   0.877  0.4740  0.0990  0.7895
  816MOL0     C10058   1.475   5.998   0.896  0.0538 -0.0234 -0.3603
  816MOL0     C10059   1.382   5.918   0.972  0.8968 -0.6564  0.2160
  816MOL0     C10060   1.264   5.966   1.022 -0.3526  0.3282 -0.1179
  816MOL0     O10061   1.181   5.880   1.092 -0.1271 -0.1988 -0.0553
  816MOL0     C10062   1.218   5.751   1.158  0.6729 -0.5014  0.0842
  816MOL0     C10063   1.195   5.622   1.079 -0.6778  0.4660  0.8586
  816MOL0     C10064   1.056   5.553   1.085  0.0730  0.3433  0.0022
  816MOL0     C10065   1.034   5.455   1.208 -0.6585  0.6096 -0.4097
  816MOL0     C10066   0.914   5.361   1.197 -0.5108 -0.0144 -0.2497
  816MOL0     C10067   0.888   5.257   1.306  1.2049  0.3325  0.0040
  816MOL0     C10068   0.767   5.167   1.277  0.3817  0.2971 -0.3174
  816MOL0     C10069   0.756   5.065   1.390 -0.2775  0.2749  0.4827
  816MOL0    Cl10070   0.691   5.139   1.547 -0.0107 -0.1457  0.1197
  816MOL0     C10071   1.231   6.096   0.987 -0.8091  0.1536 -0.2268
  816MOL0     C10072   1.329   6.181   0.931 -0.3287 -0.6630 -0.1732
  816MOL0     O10073   1.547   6.407   0.948  0.3628  0.0825 -0.5754
  816MOL0     C10074   1.610   6.375   0.593  0.4288  0.3543  0.0884
  816MOL0     C10075   1.652   6.455   0.480  0.5167 -0.8639 -1.2847
  816MOL0     N10076   1.825   6.306  -0.037 -0.4051 -1.1942 -0.2254
  816MOL0     N10077   1.871   6.192   0.014  0.5653 -0.7969 -0.3833
  816MOL0     C10078   2.339   6.096   0.956  0.5935 -0.5411  0.4085
  816MOL0     C10079   2.464   6.111   1.007 -0.5304  0.6017 -0.1594
  816MOL0     C10080   2.827   6.115   1.280 -0.5747 -0.1619 -0.2765
  816MOL0     C10081   2.951   6.060   1.247 -0.3241 -0.5725 -0.4032
  816MOL0     C10082   3.063   6.079   1.332  0.0102  0.1643  1.1427
  816MOL0     C10083   3.056   6.154   1.455 -0.8653  0.7988 -0.4506
  816MOL0     O10084   3.150   6.164   1.552 -0.2552 -0.1934 -0.6504
  816MOL0     C10085   3.279   6.107   1.536 -0.1199  0.6214  0.9923
  816MOL0     C10086   3.358   6.222   1.476  0.3723 -0.7267 -0.6683
  816MOL0     C10087   3.379   6.328   1.583 -0.8868 -0.1505  0.3832
  816MOL0     C10088   3.471   6.440   1.533  0.6607  0.4091 -0.1785
  816MOL0     C10089   3.447   6.554   1.627 -0.2028  0.2299 -0.6199
  816MOL0     C10090   3.419   6.644   1.708 -0.2270  0.8191 -0.3526
  816MOL0     C10091   2.930   6.206   1.484  1.5097  0.7884 -0.3461
  816MOL0     C10092   2.817   6.186   1.400 -0.9134 -0.4737  0.0266
  816MOL0     H10093   2.382   6.225   1.317  0.7119 -0.1483 -0.0029
  816MOL0     H10094   2.155   6.201   1.219 -1.2554 -0.1569 -2.5514
  816MOL0     H10095   1.940   6.146   1.091  2.0826 -3.6724 -0.8679
  816MOL0     H10096   2.012   6.297   1.047  1.5165  0.3759 -3.8674
  816MOL0     H10097   1.823   6.274   0.906 -0.3847 -0.4544 -1.5684
  816MOL0     H10098   1.978   6.314   0.825  0.8814 -0.3151 -1.2677
  816MOL0     H10099   1.909   6.017   0.821  1.5459  0.3342 -1.1408
  816MOL0     H10100   1.764   6.102   0.799  0.8336 -0.8182 -1.9318
  816MOL0     H10101   1.830   6.194   0.587  0.4449 -0.3099 -1.4429
  816MOL0     H10102   2.009   6.171   0.639 -0.9434  0.6528  0.1414
  816MOL0     H10103   1.980   5.930   0.623 -1.9245 -1.2776  0.2872
  816MOL0     H10104   1.817   5.955   0.568 -1.3489  2.7062  1.2865
  816MOL0     H10105   2.076   6.035   0.438  0.5673  0.3257 -1.7350
  816MOL0     H10106   1.981   5.901   0.398 -0.0301  0.2100 -0.2917
  816MOL0     H10107   1.826   6.033   0.264  0.4413 -1.1615  2.6260
  816MOL0     H10108   1.860   6.173   0.358  1.5248  1.0004  0.1645
  816MOL0     H10109   2.068   6.038   0.167  0.2056  1.0945 -0.5618
  816MOL0     H10110   2.101   6.171   0.264  1.2165 -1.6704 -0.4627
  816MOL0     H10111   2.027   6.414   0.199 -0.6106  1.4515 -1.5152
  816MOL0     H10112   1.918   6.611   0.100 -0.5479 -0.4483  1.1910
  816MOL0     H10113   1.937   6.588  -0.073  0.3352 -0.2497  0.4900
  816MOL0     H10114   1.658   6.513  -0.014 -1.8065  1.4156  1.1499
  816MOL0     H10115   1.729   6.656  -0.099 -2.5986  0.2594 -0.7517
  816MOL0     H10116   1.580   6.713   0.086  0.2306  0.3543  0.6727
  816MOL0     H10117   1.747   6.760   0.139 -0.0163 -0.4893  5.5186
  816MOL0     H10118   1.778   6.537   0.247  1.5722  1.4414 -2.3065
  816MOL0     H10119   1.604   6.516   0.213 -0.6565  1.9771  0.8084
  816MOL0     H10120   1.518   6.741   0.586  3.5231  0.5590  2.5527
  816MOL0     H10121   1.523   6.679   0.879  0.2205 -4.8981  2.2869
  816MOL0     H10122   1.396   6.730   0.757 -0.2243 -2.3415 -3.8615
  816MOL0     H10123   1.378   6.584   0.861 -1.0078  0.9767 -1.1751
  816MOL0     H10124   1.568   5.957   0.858  0.1754  2.4139 -3.0634
  816MOL0     H10125   1.421   5.821   1.002  0.5292  0.2138  4.1020
  816MOL0     H10126   1.326   5.754   1.178  0.4647 -1.0344  1.3301
  816MOL0     H10127   1.165   5.750   1.254 -0.9436  2.6834 -0.6301
  816MOL0     H10128   1.206   5.640   0.971 -3.1013 -1.5275  0.1809
  816MOL0     H10129   1.273   5.549   1.105 -1.3591 -2.4338 -3.8357
  816MOL0     H10130   1.040   5.490   0.997 -2.6519  2.4557 -1.1530
  816MOL0     H10131   0.994   5.643   1.080  1.1208  1.1134  0.3609
  816MOL0     H10132   1.114   5.384   1.227 -1.9677 -0.5157  1.1716
  816MOL0     H10133   1.036   5.510   1.302 -0.1580 -0.4467  0.2122
  816MOL0     H10134   0.939   5.293   1.115  0.8486 -0.1745  0.2742
  816MOL0     H10135   0.823   5.419   1.176 -2.8353 -2.2004  2.8411
  816MOL0     H10136   0.981   5.202   1.322  2.0126  1.1800 -1.6144
  816MOL0     H10137   0.862   5.318   1.393  1.8821  1.3896 -0.5055
  816MOL0     H10138   0.778   5.127   1.177 -1.2849  0.8646 -0.7706
  816MOL0     H10139   0.670   5.219   1.284 -0.9832 -2.2255  0.7870
  816MOL0     H10140   0.855   5.020   1.405 -0.0295  0.4318 -0.6015
  816MOL0     H10141   0.689   4.986   1.355  0.1966  1.0278 -2.4827
  816MOL0     H10142   1.126   6.123   0.987 -0.2393  3.5169 -4.7550
  816MOL0     H10143   1.306   6.284   0.905  1.7008 -1.1224 -4.5479
  816MOL0     H10144   1.641   6.274   0.566  4.1832  2.2745 -4.2094
  816MOL0     H10145   1.698   6.393   0.405  0.1238 -3.7218  0.6730
  816MOL0     H10146   2.335   6.062   0.853  1.3449  0.9777 -0.1465
  816MOL0     H10147   2.555   6.104   0.949 -0.7693 -0.7030 -0.4064
  816MOL0     H10148   2.962   5.996   1.161  2.4534  0.0347 -0.6110
  816MOL0     H10149   3.150   6.018   1.309 -1.9522 -2.1916 -0.7155
  816MOL0     H10150   3.326   6.067   1.626  0.8430 -1.6159 -0.4191
  816MOL0     H10151   3.269   6.022   1.467 -0.2257 -0.2944  2.1099
  816MOL0     H10152   3.317   6.266   1.385 -0.5381 -3.7898 -1.8899
  816MOL0     H10153   3.456   6.184   1.446  0.4616  0.8618 -2.6012
  816MOL0     H10154   3.434   6.289   1.670 -1.3044 -0.0858  0.6793
  816MOL0     H10155   3.283   6.373   1.609  0.6156  1.8572  3.0941
  816MOL0     H10156   3.439   6.477   1.435 -1.0047 -1.7670 -0.5419
  816MOL0     H10157   3.574   6.403   1.530 -0.2211 -2.4044  1.0770
  816MOL0     H10158   3.374   6.714   1.776  2.7214 -0.8369  3.7237
  816MOL0     H10159   2.915   6.271   1.569 -0.7387 -1.7834  1.4086
  816MOL0     H10160   2.720   6.224   1.431  0.0893  1.0468  1.4472
  817MOL0     O10161   6.561  11.050  10.458  0.0950  0.4411 -0.0870
  817MOL0     C10162   6.676  11.074  10.477 -0.9332  0.0165 -0.0802
  817MOL0     O10163   6.738  11.064  10.597  0.1921 -0.2593  0.3536
  817MOL0     C10164   6.683  10.978  10.697 -0.1941 -1.0558  1.0961
  817MOL0     C10165   6.593  10.875  10.676 -0.6438  0.3810  0.0523
  817MOL0     C10166   6.541  10.803  10.783  0.1961 -0.0062 -0.5043
  817MOL0     C10167   6.588  10.825  10.920  0.8043 -0.2781  1.0613
  817MOL0     O10168   6.550  10.750  11.027  0.5838  0.0395  0.3265
  817MOL0     C10169   6.525  10.610  10.992  0.3623 -0.3408 -0.1516
  817MOL0     C10170   6.420  10.557  11.098  0.4395  0.5095 -0.5990
  817MOL0     C10171   6.479  10.558  11.249  0.9839 -0.0204 -0.4630
  817MOL0     C10172   6.398  10.487  11.360  0.5146  0.1418  0.0943
  817MOL0     C10173   6.257  10.545  11.385 -0.7906 -0.1613 -0.3318
  817MOL0     C10174   6.277  10.647  11.501  1.1755 -0.5485  0.1147
  817MOL0     C10175   6.153  10.743  11.490 -0.8349 -1.3831  0.5968
  817MOL0     C10176   6.115  10.799  11.622  0.7271 -0.9759  0.0327
  817MOL0     N10177   6.238  10.868  11.692 -0.5574 -0.8739  0.3913
  817MOL0     C10178   6.323  10.814  11.782  0.3640 -0.3891 -0.2117
  817MOL0     C10179   6.369  10.921  11.846  1.2006  1.2010 -0.8574
  817MOL0     C10180   6.444  10.915  11.978  0.5302  0.1324 -0.3074
  817MOL0     C10181   6.595  10.898  11.943 -0.6642  0.1323  0.2120
  817MOL0     C10182   6.679  10.896  12.072 -0.0210 -0.0822 -0.4938
  817MOL0     C10183   6.825  10.944  12.041 -0.4440 -0.2575  1.1642
  817MOL0     O10184   6.891  10.854  11.942  0.8200 -0.0260 -0.1137
  817MOL0     C10185   7.029  10.853  11.939 -0.2643 -0.0087 -0.2093
  817MOL0     C10186   7.092  10.757  11.859 -0.0527  0.2194 -0.1385
  817MOL0     C10187   7.233  10.761  11.826  0.0455  0.4817  0.0529
  817MOL0     C10188   7.272  10.680  11.708  0.7894 -0.0507  0.0766
  817MOL0     C10189   7.315  10.843  11.899 -0.0321  0.5195 -0.4057
  817MOL0     C10190   7.464  10.850  11.878  0.7520 -0.7255 -0.2036
  817MOL0     O10191   7.517  10.974  11.903 -0.5926  0.0478 -0.4724
  817MOL0     C10192   7.643  10.986  11.847  0.5397 -0.0469  0.3693
  817MOL0     C10193   7.758  11.003  11.924  0.1550 -0.1243 -0.2396
  817MOL0     C10194   7.878  11.027  11.871 -0.2789  0.7841  0.0989
  817MOL0     C10195   7.891  11.056  11.734  0.4127 -0.3503 -0.9325
  817MOL0     O10196   8.019  11.083  11.705 -0.8664  0.1829 -0.0205
  817MOL0     C10197   8.066  11.146  11.585  0.9864 -0.3913  0.3382
  817MOL0     C10198   8.207  11.113  11.570 -0.9699  0.2051 -0.3330
  817MOL0     C10199   8.274  11.146  11.442 -0.4739  0.5511 -0.7467
  817MOL0     C10200   8.267  11.301  11.409  0.3047  0.2512  0.3962
  817MOL0     C10201   8.332  11.317  11.270 -0.7081 -0.3945 -0.2523
  817MOL0     C10202   8.315  11.470  11.227  0.6340 -0.1961 -0.4797
  817MOL0     C10203   8.371  11.493  11.089 -0.2341 -1.0269  0.6266
  817MOL0     C10204   8.524  11.493  11.079 -0.4082 -0.0944  0.7470
  817MOL0    Cl10205   8.614  11.645  11.133 -0.3152  0.3582  0.1654
  817MOL0     C10206   7.772  11.049  11.655 -0.1628  0.5660  0.0517
  817MOL0     C10207   7.650  11.011  11.708 -0.3475 -0.0244  1.0664
  817MOL0     O10208   7.531  10.750  11.872  0.0718 -0.0954 -1.0566
  817MOL0     C10209   7.254  10.934  11.984 -0.0231  0.4768 -0.5218
  817MOL0     C10210   7.112  10.937  12.005  0.1912  0.1825 -0.2298
  817MOL0     N10211   6.324  11.039  11.783  0.6437 -0.0221 -1.0077
  817MOL0     N10212   6.249  11.009  11.681  0.9828  0.0067  0.2197
  817MOL0     C10213   6.692  10.923  10.939 -0.3144 -1.0162 -0.6308
  817MOL0     C10214   6.741  10.993  10.825 -0.5901  0.8221  0.1307
  817MOL0     C10215   6.766  11.114  10.365  0.3176 -0.6138  0.0573
  817MOL0     C10216   6.720  11.102  10.232 -0.1857 -0.3022 -0.0726
  817MOL0     C10217   6.799  11.149  10.125  0.1946 -0.2843 -0.1980
  817MOL0     C10218   6.928  11.208  10.147  0.0064 -0.2712 -1.0936
  817MOL0     O10219   7.008  11.248  10.048 -0.7011 -0.0796  0.5280
  817MOL0     C10220   7.092  11.144  10.011  0.2310 -0.3146 -0.3063
  817MOL0     C10221   7.094  11.126   9.854  0.2842 -0.1300  0.4633
  817MOL0     C10222   7.179  11.002   9.802  0.1122  0.3493 -0.3883
  817MOL0     C10223   7.093  10.878   9.776  0.0942  0.2850  0.3075
  817MOL0     C10224   7.114  10.779   9.880  0.4803  1.1904 -0.9292
  817MOL0     C10225   7.126  10.682   9.953 -0.4833 -0.0456 -0.2011
  817MOL0     C10226   6.977  11.210  10.280  0.5303  0.1909 -0.2330
  817MOL0     C10227   6.900  11.165  10.389 -0.4120  0.3321  0.0074
  817MOL0     H10228   6.549  10.846  10.581  1.2661 -3.0196  0.0552
  817MOL0     H10229   6.466  10.730  10.754 -0.5745  0.2731  0.7302
  817MOL0     H10230   6.471  10.600  10.898  1.5543 -0.3376 -0.8597
  817MOL0     H10231   6.621  10.557  10.991  0.3168 -0.4599 -2.7980
  817MOL0     H10232   6.336  10.626  11.108  1.1800  1.0825  3.4562
  817MOL0     H10233   6.390  10.458  11.064  0.9449  0.4631 -0.9154
  817MOL0     H10234   6.583  10.526  11.242  1.1011 -0.3011  1.8507
  817MOL0     H10235   6.490  10.662  11.280 -1.0027  0.4188 -1.0480
  817MOL0     H10236   6.380  10.381  11.336 -4.3465  0.4724  1.2083
  817MOL0     H10237   6.456  10.495  11.452 -0.1982 -0.6602  0.6402
  817MOL0     H10238   6.218  10.592  11.294  1.2222  0.6621 -0.8058
  817MOL0     H10239   6.193  10.461  11.417 -0.2201 -1.3394 -2.1061
  817MOL0     H10240   6.267  10.606  11.602 -0.4190  0.9032  0.6143
  817MOL0     H10241   6.378  10.688  11.496  0.8030  0.6090  1.3784
  817MOL0     H10242   6.179  10.822  11.419  1.4509 -0.0263  2.7875
  817MOL0     H10243   6.065  10.692  11.450 -1.2263 -0.2990  0.0242
  817MOL0     H10244   6.068  10.724  11.686 -1.9246 -0.6555 -1.3906
  817MOL0     H10245   6.047  10.883  11.603  0.5944 -0.6643  1.7183
  817MOL0     H10246   6.356  10.714  11.807  1.2924 -0.5401 -1.8769
  817MOL0     H10247   6.435  11.012  12.028  1.7644  0.9265 -1.5483
  817MOL0     H10248   6.397  10.838  12.039  0.1068  0.6948  0.0938
  817MOL0     H10249   6.632  10.974  11.874  1.3364 -1.5769 -0.6851
  817MOL0     H10250   6.609  10.803  11.891  1.1052  1.1198 -1.2221
  817MOL0     H10251   6.681  10.805  12.133  0.3600  1.0009  1.1714
  817MOL0     H10252   6.645  10.972  12.144  3.2610  0.0779  1.1078
  817MOL0     H10253   6.880  10.947  12.136 -0.2854 -1.3747  1.1186
  817MOL0     H10254   6.811  11.043  11.997 -0.4043 -0.2288  1.2142
  817MOL0     H10255   7.029  10.695  11.796 -2.3955 -1.2631  3.3209
  817MOL0     H10256   7.326  10.752  11.646 -1.5106  2.2548  0.5909
  817MOL0     H10257   7.332  10.590  11.727  3.8284  1.5932 -1.1095
  817MOL0     H10258   7.194  10.648  11.638  2.1779 -0.0008 -1.5766
  817MOL0     H10259   7.740  10.999  12.031  2.3972  1.0145  0.2514
  817MOL0     H10260   7.964  11.032  11.938 -0.5706 -1.8322  0.7514
  817MOL0     H10261   8.017  11.108  11.495 -0.2230  0.9352  0.4001
  817MOL0     H10262   8.063  11.254  11.596 -0.0568 -0.2451 -1.1101
  817MOL0     H10263   8.251  11.170  11.652 -0.3458 -1.4270  0.4959
  817MOL0     H10264   8.226  11.010  11.602  0.4834  1.1982  2.2740
  817MOL0     H10265   8.223  11.086  11.366 -0.7038 -2.2389  1.4386
  817MOL0     H10266   8.378  11.113  11.453  0.2416  3.1704  1.4426
  817MOL0     H10267   8.162  11.324  11.388  0.6612  0.3907 -1.4040
  817MOL0     H10268   8.315  11.358  11.488  0.6922 -1.0195  1.1138
  817MOL0     H10269   8.295  11.242  11.199 -0.6350  0.4094 -1.1589
  817MOL0     H10270   8.439  11.292  11.268 -0.4801  0.5213 -2.7553
  817MOL0     H10271   8.208  11.495  11.229  0.4114 -1.1435  0.1380
  817MOL0     H10272   8.362  11.544  11.293  1.2955 -0.8458 -0.2049
  817MOL0     H10273   8.344  11.594  11.057 -0.2811 -0.1671  3.1722
  817MOL0     H10274   8.332  11.426  11.012  3.4278 -3.1435  0.3567
  817MOL0     H10275   8.557  11.453  10.982 -2.1224  0.3011 -0.0352
  817MOL0     H10276   8.565  11.407  11.133 -0.1139  1.2056  2.7013
  817MOL0     H10277   7.779  11.070  11.549 -3.7930 -1.2389 -0.6931
  817MOL0     H10278   7.558  11.005  11.650 -1.4674 -0.9548  2.8154
  817MOL0     H10279   7.321  11.002  12.036  0.6554  1.5288 -2.6480
  817MOL0     H10280   7.078  11.022  12.064  2.4234  1.6707 -0.9587
  817MOL0     H10281   6.733  10.957  11.033 -0.9505 -1.8990 -0.0177
  817MOL0     H10282   6.809  11.076  10.837  1.0987 -0.6189  0.8706
  817MOL0     H10283   6.628  11.046  10.218  1.2413 -3.5150  2.1428
  817MOL0     H10284   6.769  11.135  10.022  1.4812 -2.5370 -0.3564
  817MOL0     H10285   7.195  11.160  10.042 -0.8526  0.2190  3.4818
  817MOL0     H10286   7.061  11.046  10.048 -0.1542 -0.3822 -0.7894
  817MOL0     H10287   7.133  11.221   9.816 -1.9574  0.5643 -0.2030
  817MOL0     H10288   6.991  11.112   9.820  0.8615 -0.1067 -1.4232
  817MOL0     H10289   7.259  10.991   9.876 -1.3112 -2.0389  0.9059
  817MOL0     H10290   7.215  11.033   9.703 -1.5096 -1.0362 -1.4664
  817MOL0     H10291   7.110  10.842   9.674  1.7115  2.8475 -0.4324
  817MOL0     H10292   6.987  10.897   9.793 -1.7350 -6.3481 -0.9925
  817MOL0     H10293   7.141  10.602  10.023 -0.0485  0.8591  0.7570
  817MOL0     H10294   7.073  11.255  10.304  0.4362  0.6146 -0.6267
  817MOL0     H10295   6.936  11.185  10.489  1.5104  1.1671 -0.7998
  818MOL0     O10296   9.304  10.269   4.431 -0.3921  0.2120  0.0215
  818MOL0     C10297   9.393  10.289   4.355  0.2163  0.0318  1.0859
  818MOL0     O10298   9.381  10.384   4.253 -0.0047  0.0040  0.3450
  818MOL0     C10299   9.262  10.439   4.233  0.3724 -0.6082  0.0767
  818MOL0     C10300   9.182  10.395   4.118  0.9895  0.4903  0.6419
  818MOL0     C10301   9.049  10.433   4.108  0.8174 -0.5393 -0.5811
  818MOL0     C10302   8.985  10.523   4.201  0.2460  0.5323 -1.0705
  818MOL0     O10303   8.846  10.559   4.208  0.2205 -0.1263 -1.1808
  818MOL0     C10304   8.746  10.464   4.177 -0.0534  0.4916  0.3734
  818MOL0     C10305   8.701  10.508   4.048 -0.4467  0.1659 -0.3448
  818MOL0     C10306   8.600  10.416   3.980  0.9209  0.3724 -0.2327
  818MOL0     C10307   8.472  10.397   4.064  0.4955  0.6342 -0.2021
  818MOL0     C10308   8.366  10.294   4.005  0.3267 -0.2851  0.6682
  818MOL0     C10309   8.311  10.340   3.865 -0.3705 -0.1821 -0.2992
  818MOL0     C10310   8.200  10.241   3.814  0.1724 -0.6242 -0.7112
  818MOL0     C10311   8.167  10.284   3.670  0.8676  0.1462 -0.3493
  818MOL0     N10312   8.026  10.243   3.643  0.4433 -0.6164 -0.7592
  818MOL0     C10313   7.913  10.288   3.711 -0.2806 -0.7627  0.3783
  818MOL0     C10314   7.807  10.225   3.640  0.3014 -1.0110 -0.7003
  818MOL0     C10315   7.660  10.227   3.653 -1.0860 -0.2277 -0.2539
  818MOL0     C10316   7.620  10.133   3.770  0.5821 -0.6332  0.2203
  818MOL0     C10317   7.463  10.130   3.799 -0.8112 -0.3637  0.4480
  818MOL0     C10318   7.409   9.998   3.864 -0.5107  0.0148  0.7257
  818MOL0     O10319   7.278  10.023   3.916 -0.1539  0.0403  0.0007
  818MOL0     C10320   7.173  10.050   3.832 -0.7184 -0.6630  0.3152
  818MOL0     C10321   7.150  10.021   3.689 -1.5852  0.5681 -0.6566
  818MOL0     C10322   7.035  10.056   3.623 -0.0076  0.3895 -0.2815
  818MOL0     C10323   7.027  10.046   3.474  0.0648 -0.1192 -0.1042
  818MOL0     C10324   6.921  10.109   3.691 -0.0293  0.2518 -0.0626
  818MOL0     C10325   6.791  10.154   3.640  0.7318  0.3017  0.9709
  818MOL0     O10326   6.670  10.116   3.706  0.0737  1.0066 -0.0709
  818MOL0     C10327   6.538  10.139   3.676  1.0500 -0.6658 -0.1030
  818MOL0     C10328   6.443  10.057   3.732 -0.7011  0.2298 -0.0148
  818MOL0     C10329   6.305  10.066   3.712 -0.4598  0.0835  0.5503
  818MOL0     C10330   6.260  10.145   3.612  0.0256 -0.3837  0.1285
  818MOL0     O10331   6.127  10.163   3.579  0.0214 -0.1354  0.1792
  818MOL0     C10332   6.043  10.196   3.688 -0.9134  0.3417 -0.4695
  818MOL0     C10333   5.905  10.149   3.653  0.7890 -0.7009 -0.5400
  818MOL0     C10334   5.845  10.230   3.542 -0.6325 -0.2813 -0.1001
  818MOL0     C10335   5.709  10.158   3.513 -0.0042 -0.5495  0.8716
  818MOL0     C10336   5.652  10.231   3.390 -0.5935 -1.2453 -0.6088
  818MOL0     C10337   5.608  10.383   3.408  1.1173  0.3239  1.0373
  818MOL0     C10338   5.566  10.441   3.276 -1.0308  0.0720 -0.9368
  818MOL0     C10339   5.559  10.584   3.295  0.2777 -0.3633  0.0535
  818MOL0    Cl10340   5.449  10.640   3.163 -0.1653 -0.6221  0.3075
  818MOL0     C10341   6.351  10.231   3.539  0.5217  0.2049  0.0836
  818MOL0     C10342   6.490  10.226   3.577  0.1422 -0.0095 -0.6704
  818MOL0     O10343   6.797  10.210   3.531  0.6943 -0.2682  0.1455
  818MOL0     C10344   6.941  10.134   3.831 -0.0129  0.1396  1.3497
  818MOL0     C10345   7.059  10.119   3.892  0.3999  0.2801 -0.6241
  818MOL0     N10346   7.870  10.143   3.545  0.0745 -0.3665 -0.6958
  818MOL0     N10347   7.995  10.146   3.551  0.0064 -0.2092  0.3029
  818MOL0     C10348   9.061  10.561   4.313  0.3380 -0.0364 -0.8696
  818MOL0     C10349   9.201  10.528   4.325  0.3818 -0.3600  0.0643
  818MOL0     C10350   9.521  10.222   4.375 -1.3072  0.4309  0.2872
  818MOL0     C10351   9.632  10.258   4.298  1.3548  0.3647  0.4696
  818MOL0     C10352   9.758  10.198   4.301  0.4094  1.1064 -0.1720
  818MOL0     C10353   9.775  10.085   4.380 -0.4471  0.4571  0.5418
  818MOL0     O10354   9.890  10.010   4.365 -0.2929 -0.1042 -0.3829
  818MOL0     C10355  10.020  10.068   4.325 -0.6019 -0.7632  0.3938
  818MOL0     C10356  10.123  10.072   4.439 -1.1339 -0.3704 -0.0893
  818MOL0     C10357  10.082  10.163   4.557  0.0532  0.3096  0.6239
  818MOL0     C10358  10.118  10.309   4.552 -0.0675  0.5725 -0.7658
  818MOL0     C10359  10.054  10.370   4.436 -0.5105  0.5640  0.4969
  818MOL0     C10360  10.005  10.422   4.341 -0.3578 -0.0272 -0.3233
  818MOL0     C10361   9.669  10.040   4.456 -1.1336 -0.1757 -0.0919
  818MOL0     C10362   9.550  10.106   4.452  0.1491  0.1866  0.1299
  818MOL0     H10363   9.211  10.322   4.044 -4.6450  2.2603 -4.0165
  818MOL0     H10364   8.993  10.389   4.026 -0.7209  1.3079 -0.5818
  818MOL0     H10365   8.768  10.358   4.179 -2.4961 -0.1203  3.4531
  818MOL0     H10366   8.661  10.484   4.245 -1.0111 -1.1880 -0.2761
  818MOL0     H10367   8.666  10.610   4.068  2.0710  1.0989 -0.3019
  818MOL0     H10368   8.782  10.528   3.978 -0.2071  1.0521  0.1592
  818MOL0     H10369   8.562  10.473   3.895 -1.2997  3.0937  2.3748
  818MOL0     H10370   8.642  10.316   3.966  1.7138  0.8364 -1.2870
  818MOL0     H10371   8.505  10.375   4.166 -2.0624  0.1922  0.6000
  818MOL0     H10372   8.422  10.492   4.084 -1.4416 -0.6223  1.1961
  818MOL0     H10373   8.398  10.190   3.995 -0.2293 -0.2874 -1.4916
  818MOL0     H10374   8.275  10.287   4.066 -0.0978  0.6635  0.1620
  818MOL0     H10375   8.257  10.435   3.865 -0.3537 -0.0576 -3.3317
  818MOL0     H10376   8.395  10.337   3.796 -0.7263 -0.2645 -0.7372
  818MOL0     H10377   8.242  10.141   3.795 -1.3935 -0.9963 -2.6355
  818MOL0     H10378   8.118  10.237   3.885 -0.0478 -2.0059 -1.0055
  818MOL0     H10379   8.230  10.250   3.588  0.8809 -2.2663  0.5782
  818MOL0     H10380   8.162  10.393   3.668  0.0182  0.1170 -0.3507
  818MOL0     H10381   7.911  10.350   3.801  0.1956 -2.0829  1.3426
  818MOL0     H10382   7.644  10.331   3.683 -0.9435 -0.1851 -0.3244
  818MOL0     H10383   7.603  10.204   3.562  0.9289  1.5245 -2.0478
  818MOL0     H10384   7.669  10.177   3.858 -0.5521  1.4294 -0.1185
  818MOL0     H10385   7.656  10.033   3.741  2.3182  0.1098 -0.3139
  818MOL0     H10386   7.415  10.145   3.702 -0.6315 -0.7561  0.2976
  818MOL0     H10387   7.445  10.218   3.862 -0.9997  0.1018 -0.2502
  818MOL0     H10388   7.483   9.952   3.930  1.1418  0.0646 -1.0173
  818MOL0     H10389   7.388   9.921   3.789 -3.8390  2.9658 -1.7554
  818MOL0     H10390   7.219   9.953   3.641 -2.3573 -1.0442  0.4218
  818MOL0     H10391   6.995  10.142   3.433  0.5459 -0.8845 -2.4365
  818MOL0     H10392   7.125  10.020   3.433  0.8734  1.0490  1.0049
  818MOL0     H10393   6.947   9.973   3.459 -2.1206  1.8991  0.9750
  818MOL0     H10394   6.487   9.979   3.793 -0.6252 -0.4638 -0.9464
  818MOL0     H10395   6.244  10.007   3.779 -1.8857  4.4896  3.5692
  818MOL0     H10396   6.078  10.151   3.781 -0.1580  0.8579 -0.4972
  818MOL0     H10397   6.030  10.303   3.702  0.0885  1.0763 -4.1700
  818MOL0     H10398   5.914  10.043   3.629 -0.0792 -0.9391  0.1276
  818MOL0     H10399   5.840  10.161   3.740  0.9581  0.4208 -0.5514
  818MOL0     H10400   5.905  10.238   3.450 -1.5490 -1.0131 -0.7869
  818MOL0     H10401   5.827  10.329   3.585  0.0676  0.0095 -0.4444
  818MOL0     H10402   5.730  10.053   3.492  0.3306  0.2608 -3.8766
  818MOL0     H10403   5.634  10.175   3.591 -2.9678  0.0893 -1.9014
  818MOL0     H10404   5.572  10.172   3.345  1.0420 -3.4133 -0.8355
  818MOL0     H10405   5.744  10.231   3.330 -1.1704 -2.0107 -1.5153
  818MOL0     H10406   5.529  10.400   3.481  0.8781 -1.4009  1.2244
  818MOL0     H10407   5.700  10.438   3.432  0.7525  1.8824 -0.8819
  818MOL0     H10408   5.465  10.409   3.251 -1.8616 -0.5081  2.5940
  818MOL0     H10409   5.635  10.402   3.200  1.5722 -0.3495  1.4398
  818MOL0     H10410   5.655  10.634   3.274  0.8348 -1.6969 -0.7090
  818MOL0     H10411   5.516  10.623   3.387 -2.1456  4.8629 -2.8222
  818MOL0     H10412   6.306  10.282   3.455 -1.2469 -0.3470  0.6516
  818MOL0     H10413   6.566  10.285   3.526  0.2789  0.4618  0.0653
  818MOL0     H10414   6.862  10.180   3.890  0.3789  0.0509  1.9451
  818MOL0     H10415   7.067  10.145   3.997  3.1156  0.8723 -0.9216
  818MOL0     H10416   9.027  10.634   4.386  2.4373 -0.0673  0.2060
  818MOL0     H10417   9.244  10.551   4.422 -1.4590 -0.0417  0.8498
  818MOL0     H10418   9.620  10.336   4.224 -2.3474 -1.4738 -1.1493
  818MOL0     H10419   9.827  10.256   4.240  1.6132  1.4537  1.4593
  818MOL0     H10420  10.063  10.001   4.250  0.9497 -0.2954  0.8326
  818MOL0     H10421  10.009  10.167   4.282 -0.2518 -1.5966 -1.7354
  818MOL0     H10422  10.221  10.109   4.409 -0.4582 -0.3936  1.9062
  818MOL0     H10423  10.145   9.972   4.477  0.1261 -0.2659 -0.5158
  818MOL0     H10424  10.118  10.134   4.656  0.2190  0.9328  0.7471
  818MOL0     H10425   9.973  10.158   4.560 -0.0133  0.8155 -0.4256
  818MOL0     H10426  10.225  10.331   4.541 -0.1360  0.7644 -1.0643
  818MOL0     H10427  10.085  10.346   4.650 -2.7205 -2.6046 -0.2966
  818MOL0     H10428   9.970  10.476   4.255 -0.5354  1.1601  0.4880
  818MOL0     H10429   9.690   9.954   4.519  0.6835 -2.3091 -3.3140
  818MOL0     H10430   9.471  10.072   4.518 -0.8763  2.5572  0.2252
  819MOL0     O10431   1.194   8.156   2.144 -0.1042  0.1441  0.1636
  819MOL0     C10432   1.144   8.159   2.037 -0.3453  0.2236 -0.6646
  819MOL0     O10433   1.210   8.133   1.928 -0.5536 -0.1079  0.0891
  819MOL0     C10434   1.334   8.069   1.924  0.3842  0.6717 -0.4193
  819MOL0     C10435   1.429   8.120   1.832 -0.0265 -0.7298  1.2199
  819MOL0     C10436   1.562   8.062   1.830 -0.0026  1.6313 -1.3498
  819MOL0     C10437   1.594   7.967   1.927 -0.5812 -0.4717 -0.1601
  819MOL0     O10438   1.730   7.938   1.943  1.0169  0.3840  2.0319
  819MOL0     C10439   1.827   8.039   1.956 -0.8405  0.4132  0.0230
  819MOL0     C10440   1.830   8.083   2.097  0.1405 -0.2044  0.1425
  819MOL0     C10441   1.970   8.131   2.140  0.1826  0.4319  0.3695
  819MOL0     C10442   1.974   8.161   2.292 -0.0843 -0.5050  0.3460
  819MOL0     C10443   2.091   8.250   2.345  1.2204 -0.3051 -0.0969
  819MOL0     C10444   2.080   8.403   2.304  0.3845 -0.7468 -0.1968
  819MOL0     C10445   2.184   8.486   2.366 -0.3654  0.1209 -0.3145
  819MOL0     C10446   2.159   8.635   2.350 -0.0011  0.0223 -0.0659
  819MOL0     N10447   2.172   8.686   2.205  0.6602  0.0232 -0.0424
  819MOL0     C10448   2.289   8.732   2.145  0.6097  0.3571 -0.0894
  819MOL0     C10449   2.253   8.766   2.015  0.6604  0.5652  0.7523
  819MOL0     C10450   2.334   8.812   1.892 -0.0245  0.0773 -0.2198
  819MOL0     C10451   2.454   8.897   1.925 -0.5809 -0.3221  0.1304
  819MOL0     C10452   2.533   8.921   1.791 -0.7534 -0.5778  0.1841
  819MOL0     C10453   2.641   9.027   1.817  0.1673  1.1502  0.4023
  819MOL0     O10454   2.755   9.022   1.726 -0.1134  0.6837 -0.5781
  819MOL0     C10455   2.881   9.053   1.757 -0.8094  0.4948 -0.4616
  819MOL0     C10456   2.916   9.125   1.878  0.0831  0.4849 -0.4929
  819MOL0     C10457   3.053   9.156   1.905 -0.8106  0.4937 -0.3490
  819MOL0     C10458   3.073   9.233   2.042 -0.5833 -0.0056 -0.2311
  819MOL0     C10459   3.157   9.107   1.817  0.4152 -0.4091  0.0210
  819MOL0     C10460   3.305   9.129   1.843  0.3428  0.2158  0.1692
  819MOL0     O10461   3.393   9.037   1.795  0.3411  0.1391 -0.2052
  819MOL0     C10462   3.524   9.057   1.812  0.5370 -0.2792  0.0937
  819MOL0     C10463   3.601   9.115   1.706  0.1109  1.0726  0.2553
  819MOL0     C10464   3.740   9.137   1.715  0.1167  0.2113 -0.2110
  819MOL0     C10465   3.801   9.114   1.835  0.0618 -0.0696 -0.2626
  819MOL0     O10466   3.938   9.141   1.838 -0.5199  0.5801 -0.1948
  819MOL0     C10467   3.995   9.130   1.963 -0.2513 -0.8310 -0.2685
  819MOL0     C10468   4.123   9.222   1.970  0.4689 -0.1327 -0.2630
  819MOL0     C10469   4.126   9.266   2.124 -0.6829  0.3149 -0.2620
  819MOL0     C10470   4.243   9.355   2.154 -0.1870  0.5862  0.4716
  819MOL0     C10471   4.377   9.288   2.134 -0.8041  0.1737  0.4509
  819MOL0     C10472   4.494   9.378   2.168  0.1386 -0.7161 -0.4819
  819MOL0     C10473   4.604   9.369   2.072  0.3451 -0.8051  0.6054
  819MOL0     C10474   4.706   9.475   2.092 -0.1382 -0.4436 -0.8045
  819MOL0    Cl10475   4.806   9.451   2.233  0.0953  0.2785 -0.1049
  819MOL0     C10476   3.726   9.045   1.935  0.3251 -0.0421 -0.8480
  819MOL0     C10477   3.592   9.005   1.924  0.0681  0.1845  0.5006
  819MOL0     O10478   3.343   9.235   1.898 -0.2211  0.0791 -0.7818
  819MOL0     C10479   3.122   9.022   1.716  0.5689  0.9788 -0.0642
  819MOL0     C10480   2.987   8.999   1.672 -0.3165  0.1702 -0.1476
  819MOL0     N10481   2.118   8.752   2.006  0.1918  0.7814 -0.0432
  819MOL0     N10482   2.066   8.698   2.120  0.0712  0.0454 -0.8542
  819MOL0     C10483   1.501   7.924   2.025  0.7752  0.5261  0.1342
  819MOL0     C10484   1.373   7.970   2.015  0.1905  0.1307 -1.0348
  819MOL0     C10485   1.006   8.209   2.024 -0.0831  0.2046  0.3752
  819MOL0     C10486   0.948   8.221   1.893  0.1339 -0.3933 -0.2915
  819MOL0     C10487   0.816   8.261   1.876  0.9529 -0.0218  0.1890
  819MOL0     C10488   0.728   8.279   1.985  0.1149  0.3168  0.0886
  819MOL0     O10489   0.597   8.319   1.977 -0.0777 -0.6418 -0.0436
  819MOL0     C10490   0.535   8.374   2.096 -0.5171 -0.4220  0.4520
  819MOL0     C10491   0.392   8.420   2.079 -0.2125  0.5585 -0.4508
  819MOL0     C10492   0.308   8.316   2.001  0.9352 -0.3686  0.0240
  819MOL0     C10493   0.161   8.352   1.995 -1.5854 -0.6110 -0.9138
  819MOL0     C10494   0.101   8.297   1.883  0.3315 -0.1632  0.0339
  819MOL0     C10495   0.061   8.248   1.778  0.0246  0.1156 -0.5919
  819MOL0     C10496   0.796   8.281   2.115 -0.4430  0.1802 -0.2936
  819MOL0     C10497   0.929   8.239   2.131  0.0575  0.3600  0.7223
  819MOL0     H10498   1.410   8.200   1.761  1.4454 -0.3056  1.2623
  819MOL0     H10499   1.646   8.081   1.765  0.4802  2.1469 -0.5996
  819MOL0     H10500   1.928   8.004   1.931 -0.6309  0.7386  0.4063
  819MOL0     H10501   1.808   8.117   1.882 -0.0629  0.1525 -0.4687
  819MOL0     H10502   1.757   8.159   2.123  1.9987  2.0985 -1.0070
  819MOL0     H10503   1.802   7.995   2.157 -4.2470 -0.0699 -1.3830
  819MOL0     H10504   2.055   8.064   2.123  1.8449  2.2087  1.3260
  819MOL0     H10505   1.992   8.223   2.085 -1.9375  0.6733 -0.1483
  819MOL0     H10506   1.880   8.203   2.329  0.4724  0.5171  0.6446
  819MOL0     H10507   1.990   8.059   2.327 -1.4362 -1.0657 -0.5642
  819MOL0     H10508   2.064   8.264   2.450 -2.3378  3.5125 -1.2406
  819MOL0     H10509   2.191   8.209   2.328  1.1457 -0.4292 -0.2472
  819MOL0     H10510   2.080   8.422   2.197 -0.5480 -0.7120 -0.1959
  819MOL0     H10511   1.989   8.438   2.354  1.9391  0.9808  1.5815
  819MOL0     H10512   2.206   8.470   2.472  0.3462  0.4467 -0.4060
  819MOL0     H10513   2.279   8.456   2.319 -0.1434 -0.8093  0.6835
  819MOL0     H10514   2.241   8.686   2.402  0.7607 -0.4438 -0.7843
  819MOL0     H10515   2.058   8.661   2.382  0.1680 -0.1501  0.6315
  819MOL0     H10516   2.388   8.741   2.188 -0.2755  4.5969  1.6218
  819MOL0     H10517   2.384   8.718   1.867  0.1483 -0.0754  0.6559
  819MOL0     H10518   2.278   8.842   1.803  0.1289  0.4599 -0.1899
  819MOL0     H10519   2.521   8.841   1.990  0.3127  2.7114  1.9886
  819MOL0     H10520   2.417   8.991   1.966  1.5632  0.5515  0.1669
  819MOL0     H10521   2.467   8.946   1.708 -4.7170 -2.3638  2.5026
  819MOL0     H10522   2.587   8.831   1.760  0.6361  0.1075  0.5491
  819MOL0     H10523   2.680   9.010   1.918  0.9375 -0.3815 -0.1100
  819MOL0     H10524   2.595   9.126   1.820  1.2622  1.6743  0.3208
  819MOL0     H10525   2.831   9.164   1.933  0.4783  0.2277  0.3145
  819MOL0     H10526   3.134   9.167   2.105  0.0657 -1.4285 -2.2553
  819MOL0     H10527   3.114   9.334   2.031  1.5547 -0.3103  3.3310
  819MOL0     H10528   2.975   9.258   2.084  0.7501  1.2480  2.3954
  819MOL0     H10529   3.542   9.141   1.619 -3.6710 -1.4815  1.7593
  819MOL0     H10530   3.802   9.167   1.631 -1.3615 -1.1001 -1.8668
  819MOL0     H10531   3.928   9.164   2.042  2.3703  4.3664  0.1733
  819MOL0     H10532   4.035   9.029   1.977  1.1444 -0.2605  0.0974
  819MOL0     H10533   4.213   9.164   1.946  1.2510 -0.2709  2.6776
  819MOL0     H10534   4.125   9.314   1.910  0.5006 -0.2800 -0.4914
  819MOL0     H10535   4.142   9.182   2.193  0.8848  1.1302  0.4302
  819MOL0     H10536   4.038   9.323   2.156 -0.4288  1.0903 -0.9173
  819MOL0     H10537   4.236   9.448   2.096 -2.4270  1.8256  2.5270
  819MOL0     H10538   4.237   9.381   2.260  2.0892  2.3871  0.2465
  819MOL0     H10539   4.381   9.252   2.030 -0.6027  0.2356  0.4370
  819MOL0     H10540   4.403   9.201   2.194 -0.3140 -0.0958 -0.1351
  819MOL0     H10541   4.460   9.481   2.153  1.4940 -0.2502 -0.4973
  819MOL0     H10542   4.534   9.363   2.268 -5.0197  0.1097  2.0597
  819MOL0     H10543   4.561   9.389   1.974 -1.6966 -0.6974  1.4888
  819MOL0     H10544   4.636   9.264   2.081 -0.9537 -1.2307  0.3933
  819MOL0     H10545   4.656   9.572   2.101 -0.9633 -0.9990  1.4381
  819MOL0     H10546   4.771   9.481   2.004 -0.1703 -0.3471 -0.8216
  819MOL0     H10547   3.784   9.016   2.022  2.2862 -1.3037 -2.4603
  819MOL0     H10548   3.562   8.938   2.004  0.4357 -3.4290 -2.1756
  819MOL0     H10549   3.187   8.961   1.654  1.7786  4.0211 -2.0266
  819MOL0     H10550   2.960   8.934   1.589 -1.7506  0.1553  0.3073
  819MOL0     H10551   1.513   7.852   2.104  0.5261 -2.1294 -2.0938
  819MOL0     H10552   1.312   7.931   2.097  0.7283  0.8238 -0.2855
  819MOL0     H10553   1.006   8.207   1.802  0.4261 -0.6370 -0.0679
  819MOL0     H10554   0.777   8.254   1.774  2.3415  1.2139 -0.4624
  819MOL0     H10555   0.523   8.295   2.171 -3.8918  2.2097  3.0445
  819MOL0     H10556   0.593   8.456   2.140 -0.1732 -1.8246  2.7742
  819MOL0     H10557   0.399   8.513   2.022 -2.7487  0.1582 -1.5816
  819MOL0     H10558   0.343   8.436   2.175 -0.1325 -0.9854 -0.1284
  819MOL0     H10559   0.306   8.223   2.059 -3.2036  1.2653  3.0343
  819MOL0     H10560   0.345   8.302   1.899  3.0325  0.1193  0.6697
  819MOL0     H10561   0.153   8.461   1.989 -3.3046 -0.4701  1.8469
  819MOL0     H10562   0.102   8.321   2.082 -1.7138  0.1251 -0.7302
  819MOL0     H10563   0.023   8.191   1.695  1.5831 -1.5806 -0.2004
  819MOL0     H10564   0.739   8.298   2.205 -2.2780 -1.4241 -1.0793
  819MOL0     H10565   0.970   8.240   2.232  0.5960 -2.8765  0.6522
  820MOL0     O10566   7.202   8.872   8.353 -0.3480 -0.0536 -0.1644
  820MOL0     C10567   7.202   8.962   8.274  0.2741 -0.2610  0.6414
  820MOL0     O10568   7.133   9.075   8.290 -0.8075  0.4550 -0.2694
  820MOL0     C10569   7.059   9.087   8.402 -0.3259  0.1007 -0.4862
  820MOL0     C10570   6.928   9.045   8.390  0.1568 -0.0324  0.3992
  820MOL0     C10571   6.834   9.070   8.491  0.9358  0.0313 -0.0931
  820MOL0     C10572   6.873   9.146   8.601  0.7388  0.1926 -0.0021
  820MOL0     O10573   6.787   9.186   8.699  0.2288  0.1814  0.6710
  820MOL0     C10574   6.658   9.117   8.694 -0.8811  0.0375 -1.1758
  820MOL0     C10575   6.602   9.124   8.835  0.0093 -0.5427 -0.0673
  820MOL0     C10576   6.648   9.022   8.944 -0.9732 -0.0860  0.3169
  820MOL0     C10577   6.620   9.061   9.084  0.4526 -0.5379 -0.2830
  820MOL0     C10578   6.477   9.106   9.117 -0.5589 -0.6343 -0.1693
  820MOL0     C10579   6.379   8.983   9.102  0.2097 -0.5254 -0.5743
  820MOL0     C10580   6.246   9.047   9.136 -0.4893 -0.2721  0.0543
  820MOL0     C10581   6.120   8.963   9.121 -0.2760  0.9286  0.5143
  820MOL0     N10582   6.011   9.017   9.199 -0.1461  0.3566 -0.5271
  820MOL0     C10583   5.984   9.148   9.207 -0.0996  0.2750  0.5963
  820MOL0     C10584   5.860   9.157   9.274 -0.3056  0.3230  0.1369
  820MOL0     C10585   5.788   9.281   9.305  0.3940  0.3258 -0.5777
  820MOL0     C10586   5.852   9.383   9.400  0.6824  0.8516 -0.1431
  820MOL0     C10587   5.885   9.347   9.544 -0.0698 -0.6881 -0.0245
  820MOL0     C10588   5.927   9.462   9.636  0.4102  0.4447 -0.2875
  820MOL0     O10589   5.839   9.571   9.617 -0.2910  0.3310 -0.4285
  820MOL0     C10590   5.705   9.556   9.656  0.1050 -0.4526  0.2484
  820MOL0     C10591   5.654   9.459   9.743 -0.3907  0.6665  0.1422
  820MOL0     C10592   5.515   9.431   9.760 -0.5401 -1.0192 -0.3695
  820MOL0     C10593   5.479   9.310   9.843 -0.8961  0.7599 -0.0443
  820MOL0     C10594   5.421   9.519   9.694  0.3894 -0.1278 -0.3342
  820MOL0     C10595   5.276   9.533   9.723 -0.2656 -0.5100 -0.3393
  820MOL0     O10596   5.204   9.637   9.677  0.4473 -0.0746 -0.5309
  820MOL0     C10597   5.071   9.643   9.702 -0.5418  0.4234  0.1894
  820MOL0     C10598   4.982   9.628   9.603  0.7001 -0.3480  0.5836
  820MOL0     C10599   4.845   9.641   9.626  0.0935 -0.9859 -0.4501
  820MOL0     C10600   4.789   9.663   9.748 -0.1889  0.2396  0.6859
  820MOL0     O10601   4.653   9.658   9.762 -0.1524  0.7110 -0.1000
  820MOL0     C10602   4.596   9.648   9.901 -0.9339  0.5436  0.3656
  820MOL0     C10603   4.451   9.632   9.885  0.0420 -0.4972 -0.7446
  820MOL0     C10604   4.381   9.760   9.839 -0.2785 -0.1201  0.3839
  820MOL0     C10605   4.229   9.739   9.819 -0.3692 -0.3999 -0.1726
  820MOL0     C10606   4.158   9.880   9.805 -0.0361 -0.0138 -0.5197
  820MOL0     C10607   4.016   9.857   9.742  0.2266  0.4105 -0.4494
  820MOL0     C10608   3.911   9.953   9.806 -0.1856  0.7428 -0.0409
  820MOL0     C10609   3.762   9.937   9.767 -0.4487 -0.1480 -0.9797
  820MOL0    Cl10610   3.746   9.958   9.585 -0.4841 -0.2023 -0.0341
  820MOL0     C10611   4.887   9.676   9.854  0.6439  0.2756  0.0900
  820MOL0     C10612   5.023   9.653   9.835 -0.7974  0.5811  0.0549
  820MOL0     O10613   5.229   9.436   9.790 -0.4515  0.3263  0.4189
  820MOL0     C10614   5.471   9.616   9.612 -0.1047 -0.4389 -0.0259
  820MOL0     C10615   5.612   9.636   9.589  0.2228 -1.3826 -1.3041
  820MOL0     N10616   5.819   9.025   9.314 -0.7425 -0.3541 -0.1045
  820MOL0     N10617   5.921   8.947   9.271 -0.3348 -0.5310  0.4890
  820MOL0     C10618   7.007   9.192   8.606 -1.4757  0.1074 -0.1183
  820MOL0     C10619   7.105   9.166   8.508 -0.6253 -0.4704  0.4963
  820MOL0     C10620   7.261   8.957   8.133  0.4967  1.1066 -1.3381
  820MOL0     C10621   7.372   8.874   8.122 -0.3693  0.1974  0.4921
  820MOL0     C10622   7.433   8.870   7.999  0.2414 -0.3368  0.3315
  820MOL0     C10623   7.390   8.954   7.899  1.2682  1.3413 -0.3172
  820MOL0     O10624   7.460   8.944   7.780  0.2661 -0.5052  0.0612
  820MOL0     C10625   7.573   9.033   7.769  0.7519  0.7627  0.5934
  820MOL0     C10626   7.571   9.127   7.651 -0.0373  0.3646 -0.2888
  820MOL0     C10627   7.566   9.270   7.691  0.2158  0.0600  1.1023
  820MOL0     C10628   7.440   9.319   7.751  0.9713  0.8595  1.4716
  820MOL0     C10629   7.321   9.318   7.662 -0.5411  0.2689 -0.1336
  820MOL0     C10630   7.228   9.322   7.584  0.0939  0.1344 -0.7788
  820MOL0     C10631   7.276   9.035   7.910 -0.6028  0.1699  0.1586
  820MOL0     C10632   7.207   9.041   8.025  0.6962  0.7982 -0.0970
  820MOL0     H10633   6.886   8.999   8.301 -0.3966  1.7690 -0.3231
  820MOL0     H10634   6.733   9.035   8.472  0.7321 -0.9799  2.4936
  820MOL0     H10635   6.596   9.180   8.629 -0.7111  0.1415 -1.2403
  820MOL0     H10636   6.647   9.014   8.660 -2.7278  0.5648 -2.2890
  820MOL0     H10637   6.627   9.223   8.874 -0.0978 -2.1146  4.5304
  820MOL0     H10638   6.495   9.115   8.815 -0.5108  1.7176  1.3553
  820MOL0     H10639   6.607   8.922   8.935  0.1060 -0.4560 -0.7681
  820MOL0     H10640   6.756   9.007   8.934 -0.6166  0.4357  2.6891
  820MOL0     H10641   6.644   8.979   9.151  1.8258 -1.1144 -1.4299
  820MOL0     H10642   6.687   9.143   9.110 -0.5240 -0.5921  2.7030
  820MOL0     H10643   6.477   9.144   9.220 -0.2540  0.0636 -0.4225
  820MOL0     H10644   6.448   9.195   9.060  0.0532  0.0662  0.5810
  820MOL0     H10645   6.375   8.945   8.999  0.7810  1.3810 -1.3602
  820MOL0     H10646   6.422   8.905   9.165  1.4088 -0.6847 -1.5439
  820MOL0     H10647   6.257   9.073   9.242  3.3763 -1.2963  0.0339
  820MOL0     H10648   6.223   9.131   9.070 -1.4603 -2.0038 -1.9305
  820MOL0     H10649   6.139   8.859   9.148 -1.3434  0.5383 -0.1409
  820MOL0     H10650   6.104   8.948   9.014 -0.2787 -1.0373  0.7607
  820MOL0     H10651   6.037   9.232   9.164 -0.3524  1.5804  2.7082
  820MOL0     H10652   5.784   9.329   9.207  2.0888 -1.3316 -1.5219
  820MOL0     H10653   5.687   9.253   9.337  0.6741  0.8284  0.8324
  820MOL0     H10654   5.782   9.467   9.400  0.1175  0.3966 -0.5852
  820MOL0     H10655   5.943   9.411   9.346  0.0446  2.1122 -0.6126
  820MOL0     H10656   5.958   9.266   9.533 -0.2942 -0.5964 -3.1257
  820MOL0     H10657   5.796   9.297   9.584 -0.2319 -0.5045 -0.1553
  820MOL0     H10658   6.024   9.497   9.599  1.7363 -3.2908 -0.7833
  820MOL0     H10659   5.943   9.433   9.740 -2.0060  1.1327  0.3412
  820MOL0     H10660   5.719   9.392   9.798 -1.2399 -0.1648  0.1401
  820MOL0     H10661   5.562   9.244   9.871 -3.1721 -2.2477  0.1292
  820MOL0     H10662   5.433   9.333   9.940 -1.0989 -2.4985  0.7714
  820MOL0     H10663   5.414   9.239   9.790  1.3108 -1.9769  0.7017
  820MOL0     H10664   5.020   9.607   9.503  0.9722  0.8077  0.4292
  820MOL0     H10665   4.779   9.647   9.540 -0.4689 -0.5806  0.0075
  820MOL0     H10666   4.647   9.570   9.958  1.3204  1.9982  0.4707
  820MOL0     H10667   4.626   9.736   9.959 -0.1853  0.7168 -0.2704
  820MOL0     H10668   4.434   9.552   9.811  3.1965 -0.4546 -1.6700
  820MOL0     H10669   4.397   9.607   9.977  2.2275 -3.4340 -0.1191
  820MOL0     H10670   4.425   9.795   9.745  1.3216 -4.8254 -0.9156
  820MOL0     H10671   4.395   9.842   9.910 -0.6863  1.5018 -1.3187
  820MOL0     H10672   4.213   9.692   9.721 -2.4491  4.3646 -2.4715
  820MOL0     H10673   4.188   9.683   9.904 -1.1678 -2.8118 -2.0209
  820MOL0     H10674   4.214   9.941   9.734  1.0251  2.8337  2.5200
  820MOL0     H10675   4.160   9.938   9.898  3.0467 -0.8092 -0.0075
  820MOL0     H10676   4.032   9.855   9.634 -0.5223  2.6603 -0.6522
  820MOL0     H10677   3.987   9.754   9.767  0.6882  0.4264  0.1749
  820MOL0     H10678   3.931  10.059   9.791 -0.6878  0.6011 -1.8229
  820MOL0     H10679   3.924   9.935   9.914 -1.9837  2.4618  0.5175
  820MOL0     H10680   3.701  10.009   9.822  2.1998  0.4453  1.4328
  820MOL0     H10681   3.731   9.840   9.808  1.4813 -0.6698 -0.6429
  820MOL0     H10682   4.848   9.685   9.954 -0.3786 -1.0396 -0.1671
  820MOL0     H10683   5.086   9.647   9.923 -2.9805 -0.6463  1.6135
  820MOL0     H10684   5.397   9.671   9.555 -1.2948 -0.5197  1.4120
  820MOL0     H10685   5.645   9.703   9.510  1.3556  1.3591  1.3157
  820MOL0     H10686   7.035   9.260   8.686  3.4002 -0.5764 -0.9436
  820MOL0     H10687   7.206   9.206   8.496 -1.1232  0.3281 -1.2962
  820MOL0     H10688   7.412   8.809   8.199  0.5530 -1.3841 -1.2298
  820MOL0     H10689   7.511   8.796   7.988  1.4260  0.9233  0.0142
  820MOL0     H10690   7.601   9.082   7.862  3.8552  1.4669 -0.5728
  820MOL0     H10691   7.641   8.948   7.755 -1.5773 -0.8267 -2.0463
  820MOL0     H10692   7.486   9.114   7.583  2.7538  0.9464 -4.2205
  820MOL0     H10693   7.655   9.107   7.584 -1.7864  0.2700 -2.5897
  820MOL0     H10694   7.588   9.327   7.600 -1.8708 -2.9970 -1.5337
  820MOL0     H10695   7.639   9.285   7.771  0.6517 -0.1448  0.7511
  820MOL0     H10696   7.447   9.425   7.776  2.2652  1.3536 -0.7749
  820MOL0     H10697   7.418   9.258   7.839 -2.2984 -0.9597 -0.4256
  820MOL0     H10698   7.165   9.320   7.497  1.0471 -2.0391 -1.4823
  820MOL0     H10699   7.245   9.082   7.818  1.2854 -0.4644 -0.8718
  820MOL0     H10700   7.120   9.105   8.035 -0.2140 -0.5581  1.2592
  821MOL0     O10701   3.574   6.337   8.506 -0.3521 -0.6090 -0.5933
  821MOL0     C10702   3.549   6.286   8.615  0.2893 -0.6620  0.8923
  821MOL0     O10703   3.418   6.259   8.660 -0.0507  0.5633  0.1387
  821MOL0     C10704   3.309   6.315   8.605  0.0881 -0.2769  0.7457
  821MOL0     C10705   3.310   6.436   8.539 -0.3543 -0.0819  0.3606
  821MOL0     C10706   3.193   6.484   8.478  0.1529  1.3302  0.2313
  821MOL0     C10707   3.073   6.414   8.492 -0.7234 -0.3223  0.8858
  821MOL0     O10708   2.956   6.466   8.442  0.1538 -0.3361  0.5141
  821MOL0     C10709   2.893   6.374   8.346 -0.2976 -0.1617 -0.9204
  821MOL0     C10710   2.781   6.459   8.274 -0.3740  0.4043 -0.7994
  821MOL0     C10711   2.688   6.527   8.381  0.3377 -0.4477  0.6118
  821MOL0     C10712   2.539   6.508   8.342 -0.0098 -0.3026 -0.2222
  821MOL0     C10713   2.478   6.621   8.266 -0.1178 -0.2612 -0.2887
  821MOL0     C10714   2.321   6.614   8.266  0.1276  0.5876 -0.4729
  821MOL0     C10715   2.256   6.736   8.198 -0.8356 -0.0124  0.1232
  821MOL0     C10716   2.115   6.696   8.155 -0.5119  0.3729  0.8892
  821MOL0     N10717   2.035   6.820   8.119 -0.1577 -0.6749  0.0621
  821MOL0     C10718   1.969   6.820   7.994 -0.1046  0.2314  0.7450
  821MOL0     C10719   1.899   6.930   8.006  0.6410  0.0791  0.7562
  821MOL0     C10720   1.823   6.988   7.889  1.3071 -0.4415  0.0150
  821MOL0     C10721   1.723   7.105   7.931  0.1304  0.2848  0.8144
  821MOL0     C10722   1.627   7.139   7.813  0.4993  0.0550 -1.4455
  821MOL0     C10723   1.543   7.258   7.859  0.3761 -0.3236 -0.5260
  821MOL0     O10724   1.427   7.269   7.771  0.3155 -0.9008  0.8138
  821MOL0     C10725   1.443   7.370   7.673 -0.0745  0.0532  0.2217
  821MOL0     C10726   1.560   7.406   7.616  0.1939 -0.3887  0.1757
  821MOL0     C10727   1.577   7.484   7.500  0.0252 -0.3273 -0.5274
  821MOL0     C10728   1.720   7.516   7.456  0.6701  1.4071 -0.0987
  821MOL0     C10729   1.455   7.534   7.443  0.7613 -0.0759 -0.2104
  821MOL0     C10730   1.459   7.641   7.337  1.1274  0.5086  0.3831
  821MOL0     O10731   1.343   7.658   7.267  0.3925 -0.5909 -0.1949
  821MOL0     C10732   1.341   7.756   7.166 -0.8450 -0.3600  0.0770
  821MOL0     C10733   1.380   7.889   7.200  0.4697 -1.0362  0.5832
  821MOL0     C10734   1.399   7.991   7.102  0.0189 -0.0468 -0.0434
  821MOL0     C10735   1.369   7.952   6.970 -0.7238 -0.9534 -0.0730
  821MOL0     O10736   1.402   8.044   6.866  0.7116  0.2528 -0.7162
  821MOL0     C10737   1.397   8.187   6.896  0.3933  0.0810  0.8414
  821MOL0     C10738   1.415   8.274   6.776 -0.0186 -0.1196 -0.3180
  821MOL0     C10739   1.547   8.223   6.704 -0.1161  0.0761 -0.0978
  821MOL0     C10740   1.677   8.260   6.776  0.1393  0.4968 -0.2757
  821MOL0     C10741   1.788   8.275   6.666  0.3362 -0.1901 -0.3268
  821MOL0     C10742   1.900   8.358   6.726 -0.7319 -0.2896  0.6080
  821MOL0     C10743   1.994   8.263   6.804  0.2838  0.2622 -0.0131
  821MOL0     C10744   2.111   8.316   6.880 -0.5074 -0.1850 -0.4647
  821MOL0    Cl10745   2.049   8.408   7.024 -0.0071  0.6030  0.6874
  821MOL0     C10746   1.330   7.815   6.943  0.6150 -0.9209 -0.2442
  821MOL0     C10747   1.315   7.716   7.038 -0.0313 -0.4160 -0.2654
  821MOL0     O10748   1.570   7.698   7.308  0.3159 -0.6293 -0.3284
  821MOL0     C10749   1.326   7.493   7.499  1.2182  0.2397  0.3275
  821MOL0     C10750   1.323   7.422   7.621 -0.4896  0.1028 -0.0600
  821MOL0     N10751   1.923   6.993   8.127 -0.5454 -0.0242 -0.2020
  821MOL0     N10752   2.006   6.923   8.203 -0.3421  0.4657  0.6155
  821MOL0     C10753   3.066   6.305   8.576  0.6872  0.2558  0.8535
  821MOL0     C10754   3.183   6.255   8.632 -0.1602 -0.2853 -0.0106
  821MOL0     C10755   3.660   6.246   8.712  0.3658 -0.6498 -0.4115
  821MOL0     C10756   3.639   6.188   8.835 -0.6258 -0.2333 -0.7085
  821MOL0     C10757   3.750   6.133   8.911  0.2660 -0.5091 -0.1075
  821MOL0     C10758   3.877   6.141   8.856  0.0281  0.5590 -0.4891
  821MOL0     O10759   3.971   6.069   8.928 -0.0241  0.0063 -0.7679
  821MOL0     C10760   4.103   6.043   8.882 -0.5078  1.0020  0.4215
  821MOL0     C10761   4.133   5.902   8.826 -0.5596  0.7617  1.0661
  821MOL0     C10762   4.035   5.857   8.720 -0.5704  1.4115 -0.8180
  821MOL0     C10763   4.051   5.705   8.687 -1.2985 -0.5458 -0.1240
  821MOL0     C10764   4.170   5.672   8.610 -0.3478  0.4988  0.2517
  821MOL0     C10765   4.263   5.664   8.533  1.0047 -0.2282 -0.5467
  821MOL0     C10766   3.902   6.210   8.742 -0.8583  0.2884  0.7051
  821MOL0     C10767   3.790   6.268   8.673 -1.0267 -0.4006 -0.0938
  821MOL0     H10768   3.398   6.497   8.524 -1.2901  1.5722  1.2337
  821MOL0     H10769   3.192   6.566   8.407  2.2411  1.0590 -0.1861
  821MOL0     H10770   2.972   6.341   8.278 -0.5759  2.4703 -2.6729
  821MOL0     H10771   2.841   6.292   8.398  2.1033 -1.1132  0.0950
  821MOL0     H10772   2.836   6.528   8.208  2.2469 -1.5050 -0.7584
  821MOL0     H10773   2.713   6.392   8.221 -2.9228  2.6777 -0.6343
  821MOL0     H10774   2.703   6.475   8.476  0.2154  3.6532  3.1331
  821MOL0     H10775   2.721   6.630   8.399 -2.4792  0.6469 -0.0621
  821MOL0     H10776   2.523   6.423   8.275 -1.0170  1.1389 -1.9145
  821MOL0     H10777   2.482   6.501   8.435  0.3620 -0.0337  0.0271
  821MOL0     H10778   2.514   6.713   8.314  0.0496  0.8954 -2.5308
  821MOL0     H10779   2.522   6.621   8.166  0.5510 -0.8696 -0.0024
  821MOL0     H10780   2.283   6.521   8.223  2.1692 -0.0608 -0.9941
  821MOL0     H10781   2.299   6.617   8.373  2.1288 -1.0285  0.0424
  821MOL0     H10782   2.251   6.812   8.276  3.0469 -1.7883  2.4405
  821MOL0     H10783   2.310   6.773   8.110 -1.7206 -2.6807 -1.6548
  821MOL0     H10784   2.067   6.651   8.242 -2.2163  1.3827  0.5120
  821MOL0     H10785   2.113   6.621   8.075  1.6786  0.7945  0.3656
  821MOL0     H10786   1.968   6.738   7.923  0.7154  0.2003  0.7594
  821MOL0     H10787   1.889   7.044   7.821 -2.5075  4.1494 -0.3966
  821MOL0     H10788   1.756   6.915   7.843 -3.8886  0.7498  4.6879
  821MOL0     H10789   1.779   7.198   7.947  1.9818 -0.7711  0.6914
  821MOL0     H10790   1.675   7.071   8.024  1.1807  1.1306  1.6938
  821MOL0     H10791   1.567   7.048   7.803 -0.8816  0.5780  1.1828
  821MOL0     H10792   1.683   7.158   7.721  1.1575 -2.9289 -1.7781
  821MOL0     H10793   1.605   7.345   7.881 -0.8954 -0.0636  2.5582
  821MOL0     H10794   1.510   7.239   7.962  0.4595  0.5600 -0.3256
  821MOL0     H10795   1.653   7.369   7.658  0.9079 -0.4456 -1.3861
  821MOL0     H10796   1.787   7.448   7.510 -2.0943 -2.7772 -1.4626
  821MOL0     H10797   1.740   7.523   7.349 -1.2962  1.7764 -0.4724
  821MOL0     H10798   1.745   7.616   7.494 -0.2620  1.2312  1.0305
  821MOL0     H10799   1.389   7.934   7.298  0.5261  1.8756 -0.6444
  821MOL0     H10800   1.422   8.095   7.119 -0.5549  0.2606 -1.0959
  821MOL0     H10801   1.310   8.210   6.958  0.4821  1.9475  0.3361
  821MOL0     H10802   1.483   8.205   6.961  1.0005 -2.2367  0.7705
  821MOL0     H10803   1.327   8.283   6.711 -0.0288 -3.8432 -0.9981
  821MOL0     H10804   1.431   8.378   6.806 -1.1344 -0.4639  1.7484
  821MOL0     H10805   1.543   8.271   6.605 -1.1466  0.1930 -0.0168
  821MOL0     H10806   1.549   8.119   6.672  0.3285  0.1201 -0.2216
  821MOL0     H10807   1.652   8.350   6.834  1.9529  2.6345 -2.6157
  821MOL0     H10808   1.710   8.180   6.843  1.8356  2.6105  1.5839
  821MOL0     H10809   1.752   8.340   6.586 -1.0891  1.3792  1.4954
  821MOL0     H10810   1.819   8.180   6.622 -0.1575 -1.5121  1.9826
  821MOL0     H10811   1.961   8.403   6.647  1.6015 -0.3299  2.2886
  821MOL0     H10812   1.863   8.439   6.790 -1.8581 -0.9857  0.8498
  821MOL0     H10813   2.025   8.180   6.739  4.2873 -1.8848  4.1042
  821MOL0     H10814   1.939   8.212   6.884  2.3221 -0.7195  0.8298
  821MOL0     H10815   2.171   8.379   6.814 -0.1677 -1.4947 -1.4584
  821MOL0     H10816   2.158   8.224   6.918 -5.0986 -1.9208  1.7182
  821MOL0     H10817   1.311   7.800   6.837  0.0734 -2.4332  0.0378
  821MOL0     H10818   1.294   7.614   7.007  0.5136  0.1291 -2.7246
  821MOL0     H10819   1.236   7.529   7.452  0.6637 -3.2931 -1.7095
  821MOL0     H10820   1.232   7.387   7.669 -0.2142  1.2287  1.3670
  821MOL0     H10821   2.976   6.245   8.586 -0.1313  1.2921 -0.1182
  821MOL0     H10822   3.170   6.154   8.670  3.2890 -1.4220 -1.4980
  821MOL0     H10823   3.537   6.166   8.866 -0.3264  0.7332  1.1404
  821MOL0     H10824   3.726   6.066   8.994 -0.5954 -3.6171 -2.6622
  821MOL0     H10825   4.139   6.114   8.807  4.7126  1.5628  3.0442
  821MOL0     H10826   4.171   6.041   8.967  4.0005 -0.4107 -2.8379
  821MOL0     H10827   4.136   5.829   8.908 -4.4273 -1.7024 -0.6488
  821MOL0     H10828   4.226   5.908   8.768 -1.5414  1.5008 -0.5105
  821MOL0     H10829   4.045   5.917   8.629 -0.4022  0.6982 -1.2776
  821MOL0     H10830   3.939   5.872   8.771 -0.0979  1.2681  0.1403
  821MOL0     H10831   3.967   5.682   8.621 -0.1006  0.7562 -2.1960
  821MOL0     H10832   4.039   5.642   8.776  1.6031 -1.6348 -0.3963
  821MOL0     H10833   4.344   5.670   8.463  1.7891  2.3455  0.4857
  821MOL0     H10834   3.994   6.236   8.689 -0.7520  0.0701  0.7831
  821MOL0     H10835   3.807   6.322   8.580 -1.6425 -1.2820 -0.7338
  822MOL0     O10836   6.294  10.213   5.569  0.3543 -0.2075  0.9292
  822MOL0     C10837   6.199  10.283   5.547  0.4457 -0.1077 -0.3499
  822MOL0     O10838   6.119  10.336   5.653 -0.1500  0.0912 -0.0148
  822MOL0     C10839   6.146  10.285   5.772 -0.4509 -0.6909  0.2655
  822MOL0     C10840   6.078  10.169   5.817 -0.1979  0.3104  0.3138
  822MOL0     C10841   6.096  10.123   5.947 -0.3012 -0.1226 -0.5135
  822MOL0     C10842   6.170  10.190   6.046  0.4827  0.2304  0.4635
  822MOL0     O10843   6.185  10.132   6.170  0.1998  0.0453 -0.3987
  822MOL0     C10844   6.260  10.202   6.276  0.0644 -0.2928  0.5792
  822MOL0     C10845   6.413  10.194   6.262 -0.8153  0.2495  0.4183
  822MOL0     C10846   6.502  10.258   6.376 -0.4861  0.0831  0.1012
  822MOL0     C10847   6.489  10.407   6.379  0.2601  0.8105  0.3053
  822MOL0     C10848   6.542  10.457   6.512  0.5142 -0.3420  0.7096
  822MOL0     C10849   6.693  10.435   6.525 -0.6407  0.0725 -0.6512
  822MOL0     C10850   6.715  10.495   6.677  0.3755  0.0210  0.5392
  822MOL0     C10851   6.862  10.472   6.710  0.2027  1.0272 -0.5439
  822MOL0     N10852   6.898  10.540   6.838  0.2708  0.6872  0.2680
  822MOL0     C10853   6.881  10.669   6.866 -0.1296 -1.2459  0.9807
  822MOL0     C10854   6.946  10.683   6.983 -0.4958 -0.1300 -0.1380
  822MOL0     C10855   6.960  10.806   7.061  0.5206 -0.4010  0.1625
  822MOL0     C10856   6.856  10.797   7.179 -0.1185 -0.3838  0.0892
  822MOL0     C10857   6.892  10.695   7.290 -0.3816 -0.4975  0.0314
  822MOL0     C10858   6.781  10.698   7.391  0.0908 -0.8366  1.2050
  822MOL0     O10859   6.819  10.622   7.510  0.6089 -0.0503  0.6516
  822MOL0     C10860   6.749  10.509   7.553 -0.1023 -0.0203 -0.5219
  822MOL0     C10861   6.808  10.436   7.655  0.5036  0.1347 -0.0641
  822MOL0     C10862   6.755  10.307   7.698  0.5643 -0.4144 -0.3730
  822MOL0     C10863   6.830  10.233   7.805  0.1034 -0.5453  0.1954
  822MOL0     C10864   6.636  10.253   7.633  0.1408 -0.3502 -0.7487
  822MOL0     C10865   6.572  10.119   7.671  0.2598  0.0299  0.9114
  822MOL0     O10866   6.475  10.069   7.582  0.2739  0.0064  0.7850
  822MOL0     C10867   6.403   9.955   7.615 -1.0028  1.3194  0.0347
  822MOL0     C10868   6.407   9.844   7.530  0.9471  0.4276  0.3296
  822MOL0     C10869   6.321   9.741   7.553 -0.5668  0.6767 -0.1789
  822MOL0     C10870   6.229   9.743   7.655 -0.2640 -0.2806 -0.2299
  822MOL0     O10871   6.135   9.650   7.671  0.1352  0.2895  0.2222
  822MOL0     C10872   6.181   9.539   7.745 -1.2996  0.6705 -0.8843
  822MOL0     C10873   6.070   9.433   7.770  0.4646  0.5310 -0.0911
  822MOL0     C10874   5.983   9.456   7.884  0.1129 -0.1855  0.3508
  822MOL0     C10875   5.859   9.355   7.886 -0.4086 -0.7392  0.7749
  822MOL0     C10876   5.746   9.409   7.990  0.4834  0.9395 -0.4768
  822MOL0     C10877   5.618   9.336   7.995  0.6452  0.3886  0.2401
  822MOL0     C10878   5.497   9.400   8.052  1.1997  0.4869 -0.0246
  822MOL0     C10879   5.523   9.461   8.190 -0.0548  0.1292 -0.5068
  822MOL0    Cl10880   5.564   9.632   8.176  0.3030  0.1878 -0.0028
  822MOL0     C10881   6.231   9.853   7.744  0.5938 -0.3814 -0.4621
  822MOL0     C10882   6.316   9.961   7.717 -0.6347  0.1461  0.3526
  822MOL0     O10883   6.595  10.081   7.779  0.3298  0.6934  0.5883
  822MOL0     C10884   6.575  10.330   7.536 -1.1545 -1.2752 -0.9027
  822MOL0     C10885   6.626  10.463   7.507  1.3309 -0.5402  0.0059
  822MOL0     N10886   7.001  10.563   7.021  0.3109  0.8308 -0.2507
  822MOL0     N10887   6.974  10.476   6.930 -0.1355  0.9149 -0.4428
  822MOL0     C10888   6.225  10.309   6.003 -0.1893  0.1690  0.5331
  822MOL0     C10889   6.219  10.352   5.872 -0.3286 -0.8417 -0.9853
  822MOL0     C10890   6.174  10.321   5.402 -0.6472 -0.1674 -0.0105
  822MOL0     C10891   6.276  10.329   5.299 -0.2100 -0.8714 -0.9515
  822MOL0     C10892   6.238  10.377   5.181 -0.5094 -0.4312  0.3136
  822MOL0     C10893   6.112  10.399   5.145 -0.3876  0.5894 -0.0769
  822MOL0     O10894   6.087  10.422   5.010  0.4364 -0.0326  0.6488
  822MOL0     C10895   5.957  10.461   4.961 -0.2894 -0.4511  0.7983
  822MOL0     C10896   5.958  10.555   4.844 -0.6618 -0.0759 -0.6684
  822MOL0     C10897   6.027  10.507   4.717 -0.3949  0.2205 -0.0591
  822MOL0     C10898   6.060  10.615   4.619  0.1844 -0.2489  0.8176
  822MOL0     C10899   5.933  10.678   4.574  0.1209  0.7690 -0.4141
  822MOL0     C10900   5.839  10.741   4.533 -0.8378  0.0933  0.4259
  822MOL0     C10901   6.009  10.368   5.237  0.0336 -0.3326  0.4105
  822MOL0     C10902   6.046  10.328   5.366  0.0950  0.0662 -0.7119
  822MOL0     H10903   6.013  10.118   5.746 -1.2808  1.6654  0.3091
  822MOL0     H10904   6.026  10.040   5.956 -0.6491  0.1744 -0.4689
  822MOL0     H10905   6.227  10.306   6.282 -1.9318 -0.9102  0.8321
  822MOL0     H10906   6.224  10.162   6.372  2.0334 -0.8915  1.1206
  822MOL0     H10907   6.445  10.089   6.253 -1.8592  0.0596 -2.1527
  822MOL0     H10908   6.454  10.233   6.168  1.1653  0.0003  1.1260
  822MOL0     H10909   6.479  10.219   6.475  1.3080  1.4577  1.1217
  822MOL0     H10910   6.603  10.222   6.354 -0.8252 -0.9074  0.0742
  822MOL0     H10911   6.542  10.452   6.294 -4.5199  1.6713 -2.6244
  822MOL0     H10912   6.384  10.438   6.374 -0.0595 -0.2408  0.1646
  822MOL0     H10913   6.522  10.565   6.517  0.8749 -0.2926  1.1525
  822MOL0     H10914   6.472  10.414   6.584 -0.4059 -1.3715 -0.7476
  822MOL0     H10915   6.708  10.327   6.536  1.6135  0.6226  3.2276
  822MOL0     H10916   6.750  10.482   6.445  1.0229  0.7558  0.8794
  822MOL0     H10917   6.684  10.600   6.676 -0.1299 -0.0245  3.2743
  822MOL0     H10918   6.651  10.455   6.756 -0.4868 -0.7749 -0.5302
  822MOL0     H10919   6.926  10.513   6.632  1.8001  1.1636  0.7610
  822MOL0     H10920   6.886  10.366   6.719 -1.9384  0.5493  0.2040
  822MOL0     H10921   6.840  10.747   6.804  0.2854  0.0494  2.2713
  822MOL0     H10922   7.062  10.825   7.095  1.0759 -1.8849 -0.5825
  822MOL0     H10923   6.934  10.893   7.001 -2.0627 -2.1700 -1.5069
  822MOL0     H10924   6.758  10.773   7.136  0.3742 -1.9763 -0.1961
  822MOL0     H10925   6.849  10.896   7.226  2.6666 -0.2833  0.4226
  822MOL0     H10926   6.988  10.698   7.343 -1.6840  1.0987  2.4766
  822MOL0     H10927   6.896  10.598   7.240 -0.7492 -1.1149  1.1683
  822MOL0     H10928   6.698  10.657   7.332  1.5447 -1.3926 -0.5734
  822MOL0     H10929   6.760  10.802   7.414  3.3425 -0.3122  2.3002
  822MOL0     H10930   6.897  10.485   7.691  0.8932 -0.2197 -0.5175
  822MOL0     H10931   6.923  10.278   7.839 -0.4624 -1.1808  2.8045
  822MOL0     H10932   6.774  10.229   7.899  0.3202  0.4636  0.3824
  822MOL0     H10933   6.845  10.127   7.783  0.8900 -0.6040  0.9750
  822MOL0     H10934   6.472   9.846   7.443  2.2360  2.4643  1.2640
  822MOL0     H10935   6.311   9.663   7.477  0.6113  2.0401 -1.8136
  822MOL0     H10936   6.243   9.487   7.671  0.0426 -2.2486  2.0329
  822MOL0     H10937   6.240   9.579   7.827 -2.3507  2.3927 -0.9254
  822MOL0     H10938   6.006   9.399   7.689  1.2461  0.2277 -0.6001
  822MOL0     H10939   6.131   9.345   7.792 -0.5607 -0.3269 -0.5956
  822MOL0     H10940   5.933   9.553   7.879 -0.4379 -0.2482  3.0055
  822MOL0     H10941   6.035   9.450   7.981 -0.3640  1.2118  0.7145
  822MOL0     H10942   5.814   9.347   7.786  2.5319  0.6299 -0.7956
  822MOL0     H10943   5.891   9.257   7.921 -1.5418 -1.2970  0.2969
  822MOL0     H10944   5.721   9.513   7.968 -1.4857  0.7039  0.4580
  822MOL0     H10945   5.784   9.401   8.093  0.6593  1.6986 -0.4780
  822MOL0     H10946   5.598   9.308   7.891 -0.8027  0.0219  0.6028
  822MOL0     H10947   5.638   9.238   8.038 -0.3285  0.2792  0.4774
  822MOL0     H10948   5.419   9.326   8.071  0.4492  1.4039  0.5470
  822MOL0     H10949   5.445   9.468   7.984 -0.7199 -0.9381 -0.0534
  822MOL0     H10950   5.610   9.420   8.242  1.7911  2.2152 -1.7772
  822MOL0     H10951   5.432   9.449   8.249 -0.6825  2.4423 -0.9099
  822MOL0     H10952   6.170   9.865   7.833 -1.5373 -0.2881 -1.8700
  822MOL0     H10953   6.306  10.049   7.779  0.2880  0.4896  0.0346
  822MOL0     H10954   6.471  10.310   7.512 -1.6213  0.4536 -0.4660
  822MOL0     H10955   6.566  10.513   7.431 -0.6745 -1.8494  0.6437
  822MOL0     H10956   6.269  10.375   6.077 -1.0281 -0.0097  1.2048
  822MOL0     H10957   6.240  10.457   5.856 -1.5883 -0.3579  0.2798
  822MOL0     H10958   6.381  10.310   5.315 -0.5747 -0.2554  3.3106
  822MOL0     H10959   6.307  10.392   5.098 -1.4080  2.6597  0.0059
  822MOL0     H10960   5.902  10.373   4.929  3.0291 -1.7727 -1.7916
  822MOL0     H10961   5.900  10.525   5.030  0.0210  2.9001 -1.8092
  822MOL0     H10962   6.030  10.625   4.889 -0.2999 -0.1999 -1.0467
  822MOL0     H10963   5.863  10.606   4.828 -0.5908  1.3347  2.6533
  822MOL0     H10964   5.966  10.426   4.676  0.0816  0.0537 -0.4543
  822MOL0     H10965   6.117  10.453   4.745 -0.0851 -0.5302 -2.3059
  822MOL0     H10966   6.114  10.559   4.542 -1.9052 -0.4457 -0.5957
  822MOL0     H10967   6.136  10.683   4.659  1.0996 -0.7347 -0.0646
  822MOL0     H10968   5.755  10.798   4.499 -2.1875 -1.4857  0.9622
  822MOL0     H10969   5.904  10.373   5.210  0.0811  0.8184  0.4058
  822MOL0     H10970   5.975  10.320   5.447  0.3189 -2.3665 -0.7022
  823MOL0     O10971   3.111   9.804   7.375  0.3896 -0.8067 -0.5341
  823MOL0     C10972   3.042   9.708   7.370  0.0652  0.7578  0.0662
  823MOL0     O10973   2.909   9.694   7.369 -0.1350 -0.2582  0.4849
  823MOL0     C10974   2.815   9.785   7.395 -0.3825  0.5535  0.6316
  823MOL0     C10975   2.826   9.924   7.413 -0.1863  1.2101  0.1670
  823MOL0     C10976   2.715  10.007   7.445 -1.2172  0.1956  0.0352
  823MOL0     C10977   2.587   9.954   7.448  0.5877  0.0406 -0.7929
  823MOL0     O10978   2.481  10.040   7.477 -0.2465  0.1687  0.4120
  823MOL0     C10979   2.349   9.985   7.467  0.8040 -0.2224 -0.7443
  823MOL0     C10980   2.243  10.089   7.488 -0.3508  0.4656 -0.6451
  823MOL0     C10981   2.217  10.125   7.632  0.8112  0.5228 -0.1706
  823MOL0     C10982   2.135  10.261   7.618  0.1506  0.4392 -0.9794
  823MOL0     C10983   2.130  10.332   7.755  0.3867 -0.4086  0.3140
  823MOL0     C10984   2.073  10.475   7.741  0.5137  0.9705 -0.1650
  823MOL0     C10985   1.921  10.497   7.705 -0.2224 -0.0547  0.2796
  823MOL0     C10986   1.828  10.455   7.818  0.3127  0.6171 -0.4971
  823MOL0     N10987   1.685  10.475   7.785  0.1568  0.3330 -0.9694
  823MOL0     C10988   1.627  10.413   7.680 -0.2496 -1.0125 -0.7488
  823MOL0     C10989   1.492  10.456   7.692 -0.6085  1.0859 -0.0141
  823MOL0     C10990   1.377  10.410   7.604  0.1071 -0.2659 -0.4595
  823MOL0     C10991   1.334  10.267   7.646 -0.0071 -0.5170 -0.5946
  823MOL0     C10992   1.223  10.217   7.547 -0.0827  0.1264  1.3333
  823MOL0     C10993   1.178  10.075   7.585  0.0476 -0.5560  0.4393
  823MOL0     O10994   1.057  10.055   7.526  0.7419  0.0197  0.7123
  823MOL0     C10995   0.999   9.931   7.519 -0.3901  0.1488 -0.4821
  823MOL0     C10996   1.066   9.830   7.451 -0.3619  0.0256  0.5502
  823MOL0     C10997   1.009   9.694   7.460  0.5331 -0.3010 -0.1128
  823MOL0     C10998   1.098   9.587   7.405 -0.1630 -0.1764  0.5074
  823MOL0     C10999   0.878   9.677   7.505  0.1068 -1.4850 -0.8522
  823MOL0     C11000   0.820   9.544   7.506 -0.5091  0.6497  0.1998
  823MOL0     O11001   0.903   9.438   7.535  0.2616  0.5299 -0.5664
  823MOL0     C11002   0.849   9.325   7.603  0.2066  0.2357  0.4783
  823MOL0     C11003   0.761   9.332   7.711 -0.0653  0.5146  0.1451
  823MOL0     C11004   0.722   9.226   7.785  0.1182  0.5806  0.6375
  823MOL0     C11005   0.786   9.098   7.759  0.0429 -0.5410  0.2334
  823MOL0     O11006   0.754   8.983   7.826 -0.3718 -0.6092 -0.1825
  823MOL0     C11007   0.620   8.944   7.837 -0.4956  0.0889 -0.1396
  823MOL0     C11008   0.623   8.789   7.863 -0.4728  0.3838  1.0138
  823MOL0     C11009   0.500   8.731   7.910 -0.3305 -0.1248 -0.6937
  823MOL0     C11010   0.498   8.727   8.057 -0.6397  0.1239 -0.8250
  823MOL0     C11011   0.400   8.631   8.118  0.1767 -0.0963 -0.1275
  823MOL0     C11012   0.413   8.630   8.275 -0.3629 -0.0619  0.0426
  823MOL0     C11013   0.293   8.591   8.350  0.8919 -0.2221 -1.2678
  823MOL0     C11014   0.267   8.667   8.489 -1.2112  0.1296 -0.4827
  823MOL0    Cl11015   0.129   8.584   8.575  0.7664 -0.0603  0.9317
  823MOL0     C11016   0.870   9.084   7.649  0.8687 -0.0557 -0.9848
  823MOL0     C11017   0.906   9.194   7.579  0.2039  0.0644 -0.5148
  823MOL0     O11018   0.698   9.532   7.510 -0.7469 -0.2987 -0.0499
  823MOL0     C11019   0.805   9.791   7.558 -0.1260  0.4803  0.4639
  823MOL0     C11020   0.870   9.916   7.568  0.6465 -0.4747  1.5141
  823MOL0     N11021   1.477  10.525   7.812  0.1363 -0.1135  1.0830
  823MOL0     N11022   1.595  10.539   7.861  0.3951 -0.3964 -0.4176
  823MOL0     C11023   2.578   9.816   7.427 -0.3122  0.0748 -0.8458
  823MOL0     C11024   2.689   9.736   7.402  0.1374  0.3413 -0.0201
  823MOL0     C11025   3.107   9.584   7.373 -0.3864  0.4191  0.8894
  823MOL0     C11026   3.059   9.468   7.323  0.4139 -0.2509  0.8164
  823MOL0     C11027   3.111   9.337   7.333 -0.0364 -0.7941  0.5392
  823MOL0     C11028   3.225   9.314   7.406 -0.0799  0.1916 -0.0458
  823MOL0     O11029   3.263   9.183   7.424  0.1252 -0.2492  0.8855
  823MOL0     C11030   3.177   9.083   7.474  0.5841 -0.3729  0.1095
  823MOL0     C11031   3.154   8.964   7.388  0.6037  0.1868 -0.0083
  823MOL0     C11032   3.287   8.875   7.377  0.0069  0.7198 -0.3315
  823MOL0     C11033   3.270   8.781   7.257  0.2866 -0.1765 -0.4818
  823MOL0     C11034   3.161   8.685   7.285 -0.2142  0.4305  0.4525
  823MOL0     C11035   3.054   8.620   7.288  0.1119  0.5825  1.1385
  823MOL0     C11036   3.287   9.423   7.458 -1.0869 -0.4637 -0.1765
  823MOL0     C11037   3.224   9.553   7.441  0.5041 -0.4494  0.5744
  823MOL0     H11038   2.924   9.967   7.398  1.0083 -2.2721 -4.0387
  823MOL0     H11039   2.721  10.111   7.474 -0.1455 -0.1922  1.2911
  823MOL0     H11040   2.329   9.948   7.366 -2.0814 -0.0622 -0.3138
  823MOL0     H11041   2.334   9.902   7.537  4.0352 -0.1593  0.1618
  823MOL0     H11042   2.284  10.180   7.444 -1.5955  0.0084 -2.8801
  823MOL0     H11043   2.150  10.078   7.431 -1.1503  4.9255 -0.5786
  823MOL0     H11044   2.158  10.044   7.676 -0.5433 -0.3102 -3.2429
  823MOL0     H11045   2.313  10.140   7.680  0.4632 -0.1052  0.7535
  823MOL0     H11046   2.176  10.332   7.545 -0.7838  2.6999  0.5831
  823MOL0     H11047   2.033  10.235   7.591 -0.6946  1.2363  1.2122
  823MOL0     H11048   2.067  10.282   7.829  1.6885 -1.5081  0.7194
  823MOL0     H11049   2.226  10.326   7.806 -0.1648  0.7941  1.5298
  823MOL0     H11050   2.076  10.516   7.843  0.1150 -4.2152  2.2756
  823MOL0     H11051   2.139  10.535   7.677 -1.3962  2.1870 -1.0568
  823MOL0     H11052   1.911  10.603   7.680  1.5992 -0.0337 -0.4630
  823MOL0     H11053   1.908  10.444   7.610  2.4957 -0.5810  0.1424
  823MOL0     H11054   1.842  10.516   7.908  2.6365 -0.3678 -0.1259
  823MOL0     H11055   1.848  10.347   7.826 -2.0461  0.2399  1.7501
  823MOL0     H11056   1.672  10.347   7.607 -0.4334 -3.1340  0.9495
  823MOL0     H11057   1.297  10.485   7.607  1.7826  1.6323 -0.8257
  823MOL0     H11058   1.420  10.416   7.504 -2.7686  2.0406 -1.7041
  823MOL0     H11059   1.294  10.282   7.747  1.1018  0.5928 -0.2902
  823MOL0     H11060   1.413  10.192   7.647 -1.2789 -1.9252 -1.2434
  823MOL0     H11061   1.252  10.211   7.442 -1.6942 -5.7162  0.8776
  823MOL0     H11062   1.138  10.283   7.566  1.0704  1.7165  1.2069
  823MOL0     H11063   1.166  10.067   7.693  0.3315  1.3125  0.6419
  823MOL0     H11064   1.259  10.003   7.567  1.5933  1.4177 -0.9594
  823MOL0     H11065   1.162   9.850   7.404 -0.7363 -1.8560 -1.1589
  823MOL0     H11066   1.034   9.524   7.343 -0.6858  1.6246 -0.8602
  823MOL0     H11067   1.185   9.631   7.356  0.7729 -2.2560  0.1725
  823MOL0     H11068   1.142   9.537   7.492 -0.1652  2.3065  2.0268
  823MOL0     H11069   0.729   9.432   7.739  1.2365  0.9713  0.0758
  823MOL0     H11070   0.659   9.236   7.873 -0.4737  1.4573  0.1261
  823MOL0     H11071   0.566   8.996   7.916  0.3457  0.1264  0.4148
  823MOL0     H11072   0.579   8.963   7.737  0.5220 -0.9350 -0.7775
  823MOL0     H11073   0.652   8.725   7.779  0.1304  0.2841  1.2877
  823MOL0     H11074   0.701   8.759   7.934  2.7714  0.7274 -2.1083
  823MOL0     H11075   0.492   8.629   7.870  0.4544  0.2590 -1.9058
  823MOL0     H11076   0.419   8.791   7.866 -0.6605 -0.4723 -0.5690
  823MOL0     H11077   0.598   8.702   8.095 -0.1208  1.3504 -1.3594
  823MOL0     H11078   0.491   8.827   8.101  2.0063  0.0284  0.0367
  823MOL0     H11079   0.401   8.523   8.098 -1.8992 -0.0620 -0.6508
  823MOL0     H11080   0.306   8.661   8.070  0.2339  0.9156  0.3603
  823MOL0     H11081   0.500   8.572   8.306  0.9274  1.3332 -0.8056
  823MOL0     H11082   0.435   8.732   8.309 -1.3691 -0.8007  3.3127
  823MOL0     H11083   0.297   8.483   8.366  1.0379  0.0668  0.9184
  823MOL0     H11084   0.209   8.615   8.285 -0.0975 -0.8224 -0.2459
  823MOL0     H11085   0.247   8.773   8.470 -0.8363  0.1625 -0.7119
  823MOL0     H11086   0.351   8.668   8.560 -0.7567  0.2884 -1.0159
  823MOL0     H11087   0.917   8.986   7.642  0.9944 -0.1877  1.0658
  823MOL0     H11088   0.983   9.190   7.502  0.6454  3.5912 -0.4136
  823MOL0     H11089   0.702   9.785   7.592 -0.0384  0.4726  0.7334
  823MOL0     H11090   0.815   9.992   7.622  2.4615  0.0181  2.7933
  823MOL0     H11091   2.475   9.782   7.416 -0.6996  0.9628 -0.1340
  823MOL0     H11092   2.664   9.640   7.358  1.3310  1.4683 -3.4882
  823MOL0     H11093   2.967   9.487   7.269  1.0079  2.4571  0.5857
  823MOL0     H11094   3.070   9.250   7.282  0.0082  0.0709 -1.0487
  823MOL0     H11095   3.218   9.044   7.568 -2.8815 -0.1443  1.8725
  823MOL0     H11096   3.087   9.141   7.494  1.7358  2.1699 -1.4437
  823MOL0     H11097   3.120   9.002   7.291 -1.7070  1.9993  1.3753
  823MOL0     H11098   3.069   8.906   7.424  1.6562  0.6978  3.8840
  823MOL0     H11099   3.307   8.823   7.471 -2.4454  1.7511  0.8492
  823MOL0     H11100   3.376   8.938   7.364  1.9378 -1.7837 -0.0365
  823MOL0     H11101   3.365   8.729   7.242  0.1419 -0.2902 -1.0192
  823MOL0     H11102   3.253   8.837   7.164 -0.5463  1.1510  0.4333
  823MOL0     H11103   2.975   8.548   7.290 -2.9156  3.6168  2.4356
  823MOL0     H11104   3.382   9.410   7.511 -1.0810 -1.0404 -0.3237
  823MOL0     H11105   3.283   9.628   7.494  1.8616 -1.8380  1.1206
  824MOL0     O11106   4.658   6.850   0.913 -0.5394  0.3958 -0.0850
  824MOL0     C11107   4.758   6.857   0.838  0.3265  0.6523 -0.4388
  824MOL0     O11108   4.761   6.903   0.704  0.4199 -0.5282 -0.4600
  824MOL0     C11109   4.657   6.950   0.624 -0.2623  1.7413  0.8689
  824MOL0     C11110   4.628   6.865   0.512  0.1760 -0.7305 -1.1570
  824MOL0     C11111   4.539   6.914   0.408 -0.3045  0.0480 -1.1309
  824MOL0     C11112   4.477   7.043   0.409  0.0812  0.1963 -0.6839
  824MOL0     O11113   4.418   7.092   0.298  0.5637 -0.2265  0.0904
  824MOL0     C11114   4.364   7.228   0.297  0.6004 -0.4949  0.2271
  824MOL0     C11115   4.319   7.271   0.153 -0.0368 -0.2601 -0.4239
  824MOL0     C11116   4.266   7.416   0.165  0.1211 -0.5317  0.2903
  824MOL0     C11117   4.123   7.398   0.232  0.3554 -1.1804 -0.2959
  824MOL0     C11118   4.022   7.514   0.204  0.6816 -0.6351  0.4188
  824MOL0     C11119   3.922   7.532   0.317  0.7364  0.1547  0.0308
  824MOL0     C11120   3.814   7.639   0.282  0.5176  0.7526  0.6654
  824MOL0     C11121   3.850   7.778   0.325 -0.4682 -0.2835 -0.4371
  824MOL0     N11122   3.850   7.792   0.473  0.3426  0.7048 -0.4807
  824MOL0     C11123   3.903   7.890   0.547  0.0149 -0.5696  0.1638
  824MOL0     C11124   3.916   7.854   0.675 -0.0693  0.5436  0.0392
  824MOL0     C11125   3.976   7.928   0.794  0.5394 -0.6504 -0.0454
  824MOL0     C11126   3.919   7.892   0.936 -0.4945 -0.7803  0.8338
  824MOL0     C11127   3.993   7.962   1.052 -0.2426 -0.0509  0.6468
  824MOL0     C11128   4.107   7.881   1.111 -0.6703  0.0983 -0.2154
  824MOL0     O11129   4.084   7.741   1.120  0.2478 -0.2735  0.8842
  824MOL0     C11130   4.170   7.662   1.183  0.0795  0.0899 -0.5278
  824MOL0     C11131   4.293   7.694   1.240 -0.0131  0.2904 -0.2302
  824MOL0     C11132   4.367   7.598   1.316  0.0234  0.2783  0.8515
  824MOL0     C11133   4.467   7.661   1.398 -0.8043 -0.1752  0.9417
  824MOL0     C11134   4.315   7.464   1.328  0.5181  0.1868  0.3330
  824MOL0     C11135   4.371   7.368   1.417 -0.0575 -0.8706  0.2795
  824MOL0     O11136   4.308   7.249   1.427 -1.3385  0.2535  0.8356
  824MOL0     C11137   4.381   7.134   1.441  1.1804  0.1748  1.0418
  824MOL0     C11138   4.509   7.114   1.391  1.6632 -0.9950  0.4417
  824MOL0     C11139   4.572   6.988   1.405 -0.2946  0.3345 -0.5257
  824MOL0     C11140   4.503   6.874   1.477  0.4361 -1.6540  0.0791
  824MOL0     O11141   4.557   6.756   1.481 -1.2849 -0.5423  0.0264
  824MOL0     C11142   4.492   6.638   1.546 -0.9955 -0.3478  0.5145
  824MOL0     C11143   4.376   6.580   1.466  0.5821 -0.1966 -0.0711
  824MOL0     C11144   4.336   6.446   1.516  0.4091  0.5940 -1.6058
  824MOL0     C11145   4.248   6.452   1.645  0.0894  0.3085  0.2527
  824MOL0     C11146   4.263   6.321   1.731 -0.9892 -0.7786  0.7402
  824MOL0     C11147   4.204   6.208   1.662  0.0126 -1.0883  0.0920
  824MOL0     C11148   4.240   6.074   1.721  1.0348 -0.0697 -1.0102
  824MOL0     C11149   4.388   6.018   1.735  0.7675 -0.5937 -0.2283
  824MOL0    Cl11150   4.386   5.865   1.825 -0.2006  0.4208  0.3186
  824MOL0     C11151   4.369   6.899   1.521 -0.9929 -0.0303  0.4239
  824MOL0     C11152   4.314   7.024   1.502  0.0053 -0.4711 -0.1744
  824MOL0     O11153   4.471   7.392   1.477 -0.2176  0.7376 -0.0582
  824MOL0     C11154   4.198   7.429   1.258  0.3945 -0.6701  0.9101
  824MOL0     C11155   4.131   7.529   1.186 -0.0528 -0.1771  0.1932
  824MOL0     N11156   3.857   7.727   0.680  1.0770 -0.3007 -0.1488
  824MOL0     N11157   3.805   7.708   0.560 -0.0999 -0.3774 -0.9903
  824MOL0     C11158   4.502   7.123   0.522  0.1021  0.7127 -0.3076
  824MOL0     C11159   4.587   7.073   0.629 -0.1783 -0.1772 -0.4438
  824MOL0     C11160   4.889   6.837   0.901 -0.6392  0.3689 -0.2143
  824MOL0     C11161   4.908   6.769   1.024  1.4405  0.4301  0.0584
  824MOL0     C11162   5.037   6.763   1.074 -0.3042 -0.1971 -0.1787
  824MOL0     C11163   5.154   6.801   0.998  0.8485 -0.3656 -0.7246
  824MOL0     O11164   5.279   6.785   1.041  0.2722  0.1490  0.3635
  824MOL0     C11165   5.310   6.848   1.169  0.3124  0.0714  1.3068
  824MOL0     C11166   5.407   6.766   1.264 -0.3664  0.0227  0.5198
  824MOL0     C11167   5.415   6.831   1.406 -0.6504  0.3765 -0.4187
  824MOL0     C11168   5.538   6.929   1.419  0.0575 -0.0560  0.4598
  824MOL0     C11169   5.527   7.002   1.545  0.5894 -0.4741  0.8528
  824MOL0     C11170   5.522   7.059   1.653 -0.8559  0.1628  0.5895
  824MOL0     C11171   5.134   6.855   0.874 -1.2942 -1.1554  0.2207
  824MOL0     C11172   5.003   6.883   0.832 -0.7096 -0.5213  0.4168
  824MOL0     H11173   4.672   6.766   0.506  0.6750 -0.7040  1.1260
  824MOL0     H11174   4.536   6.857   0.316  0.2830  1.3139 -1.9649
  824MOL0     H11175   4.287   7.240   0.374  0.1024  1.4592 -0.5155
  824MOL0     H11176   4.443   7.294   0.334 -0.1376 -1.1893  3.3854
  824MOL0     H11177   4.405   7.290   0.089 -0.2812  1.3742 -0.3187
  824MOL0     H11178   4.265   7.195   0.096 -1.5636 -1.4942  2.4272
  824MOL0     H11179   4.317   7.480   0.238 -3.6994 -0.5578  3.3106
  824MOL0     H11180   4.258   7.465   0.067  4.8645  0.2838  0.1111
  824MOL0     H11181   4.076   7.307   0.196 -0.5263 -1.0188  0.4281
  824MOL0     H11182   4.128   7.390   0.341 -1.2620 -2.4629 -0.2910
  824MOL0     H11183   4.080   7.604   0.185 -0.6280  0.5361  1.7531
  824MOL0     H11184   3.971   7.483   0.112 -2.6757  0.7654  1.6740
  824MOL0     H11185   3.871   7.436   0.324 -2.7288  1.8938  0.7395
  824MOL0     H11186   3.963   7.554   0.416  1.4429 -1.1205  0.0399
  824MOL0     H11187   3.808   7.643   0.173  0.2849 -0.7860  0.6000
  824MOL0     H11188   3.714   7.612   0.318  0.5578  0.4639  0.5647
  824MOL0     H11189   3.779   7.853   0.288 -0.8034 -1.6375 -2.7242
  824MOL0     H11190   3.944   7.814   0.283 -0.7492  1.6065  0.4649
  824MOL0     H11191   3.936   7.981   0.496  1.7588 -0.8535  0.7154
  824MOL0     H11192   4.084   7.945   0.796  0.6720 -0.8282  4.2898
  824MOL0     H11193   3.937   8.026   0.766 -0.5572 -0.9447  0.4126
  824MOL0     H11194   3.914   7.784   0.954 -2.1042 -0.8158  0.3489
  824MOL0     H11195   3.813   7.920   0.924 -0.8698 -1.4638  2.3628
  824MOL0     H11196   3.916   7.966   1.129  1.6725 -1.6462  2.7662
  824MOL0     H11197   4.032   8.061   1.023  1.9700 -1.3718 -1.2299
  824MOL0     H11198   4.126   7.916   1.213  1.6193 -0.3824 -0.4381
  824MOL0     H11199   4.193   7.919   1.056  0.2145  0.1068  1.1401
  824MOL0     H11200   4.326   7.796   1.228 -0.2502  0.1291 -2.6332
  824MOL0     H11201   4.453   7.652   1.507  1.2293 -0.1488  1.2316
  824MOL0     H11202   4.566   7.620   1.379  0.4237  2.6739  0.5613
  824MOL0     H11203   4.479   7.766   1.369  0.3014 -0.8073 -1.0286
  824MOL0     H11204   4.537   7.199   1.330 -1.9656 -1.3328 -2.0020
  824MOL0     H11205   4.668   6.980   1.356 -0.0413  2.0099 -0.3572
  824MOL0     H11206   4.568   6.559   1.542  1.4751  1.8048  1.6364
  824MOL0     H11207   4.470   6.656   1.651  1.9727  0.0580  1.1707
  824MOL0     H11208   4.282   6.636   1.468 -1.3487 -3.2449  2.2865
  824MOL0     H11209   4.412   6.558   1.365  4.8087 -4.4630  1.9862
  824MOL0     H11210   4.424   6.388   1.546 -0.3936  0.7174  1.2110
  824MOL0     H11211   4.285   6.384   1.441  0.6005 -1.0950 -0.4169
  824MOL0     H11212   4.288   6.537   1.702  0.8649  0.3899 -0.4080
  824MOL0     H11213   4.142   6.474   1.633 -0.1106 -0.4094  0.6215
  824MOL0     H11214   4.203   6.344   1.819 -0.7079 -1.7430  1.1974
  824MOL0     H11215   4.368   6.320   1.763  0.0582 -1.0660 -2.3128
  824MOL0     H11216   4.098   6.237   1.665  0.5765  1.2463  3.2034
  824MOL0     H11217   4.231   6.204   1.557  1.8071 -1.4456  0.5342
  824MOL0     H11218   4.171   6.009   1.667  0.6361 -0.2287 -0.3194
  824MOL0     H11219   4.202   6.055   1.822  2.8102 -0.0624 -0.2905
  824MOL0     H11220   4.464   6.082   1.781 -0.9135 -0.5650  2.7880
  824MOL0     H11221   4.424   5.997   1.634 -2.8364 -0.4863 -1.7037
  824MOL0     H11222   4.317   6.817   1.570  0.9018 -1.1643  0.6274
  824MOL0     H11223   4.220   7.048   1.550  0.8544  2.9698  0.0301
  824MOL0     H11224   4.158   7.329   1.244  0.1546 -0.4042 -0.4669
  824MOL0     H11225   4.040   7.511   1.130  1.5228 -0.5931 -2.3916
  824MOL0     H11226   4.468   7.226   0.525 -0.3697  0.5994 -1.2462
  824MOL0     H11227   4.620   7.134   0.712  2.0607 -0.3314 -1.1713
  824MOL0     H11228   4.825   6.735   1.086  1.1877  0.6807 -0.1352
  824MOL0     H11229   5.047   6.730   1.177  1.1582  4.1530  1.2645
  824MOL0     H11230   5.346   6.950   1.150 -1.8005  0.3611 -2.0027
  824MOL0     H11231   5.221   6.855   1.232  0.9891  1.6681  2.1642
  824MOL0     H11232   5.504   6.750   1.218 -0.5956  1.3734 -0.5102
  824MOL0     H11233   5.352   6.672   1.271  3.7614 -2.4717  2.6962
  824MOL0     H11234   5.438   6.759   1.485 -1.3970 -0.0335 -0.5700
  824MOL0     H11235   5.322   6.884   1.431 -1.6024 -0.5690 -1.7923
  824MOL0     H11236   5.525   7.005   1.342  2.0992 -0.1669 -0.0570
  824MOL0     H11237   5.638   6.884   1.414  1.5217  2.8952  0.9425
  824MOL0     H11238   5.506   7.120   1.740 -2.7045  3.6984 -1.9443
  824MOL0     H11239   5.216   6.882   0.809 -0.8543 -0.8841  0.8789
  824MOL0     H11240   4.993   6.945   0.744 -0.6771 -1.9931 -0.6563
  825MOL0     O11241  10.657   1.909   4.861  0.3879 -0.0938 -0.6250
  825MOL0     C11242  10.737   1.983   4.806  0.1753  0.2237  0.4451
  825MOL0     O11243  10.732   2.020   4.671  0.3420  0.1069 -0.9308
  825MOL0     C11244  10.631   1.964   4.596  0.0376 -0.1242 -0.1189
  825MOL0     C11245  10.629   1.823   4.575 -0.1029 -0.3784  0.7305
  825MOL0     C11246  10.539   1.767   4.487  0.6589  0.7153 -0.2872
  825MOL0     C11247  10.441   1.849   4.426 -0.3164 -0.5304 -0.4130
  825MOL0     O11248  10.351   1.790   4.345 -0.3037 -0.0057  0.2152
  825MOL0     C11249  10.404   1.724   4.234 -0.3398  0.5955  1.1378
  825MOL0     C11250  10.331   1.593   4.205  1.0444  0.1391  0.8438
  825MOL0     C11251  10.396   1.533   4.087  0.2429  0.9134 -0.3152
  825MOL0     C11252  10.339   1.391   4.073  0.1185  0.2558  0.4208
  825MOL0     C11253  10.397   1.327   3.941 -0.5723  0.6634 -0.0366
  825MOL0     C11254  10.388   1.178   3.945  0.3069  0.9831 -1.0717
  825MOL0     C11255  10.491   1.113   4.043  0.5168  0.5437  0.8371
  825MOL0     C11256  10.625   1.144   4.001  0.0126  0.0737  0.6996
  825MOL0     N11257  10.716   1.054   4.078  0.5862  0.3526 -0.8377
  825MOL0     C11258  10.780   1.082   4.192 -0.4819 -1.0028  0.6737
  825MOL0     C11259  10.875   0.983   4.206  0.2412 -0.3502  1.2457
  825MOL0     C11260  10.966   0.968   4.324 -0.4983  0.1872  1.4695
  825MOL0     C11261  11.110   0.967   4.274 -0.0114  0.3028 -0.4581
  825MOL0     C11262  11.199   0.903   4.391 -0.1887 -0.1412 -0.4222
  825MOL0     C11263  11.345   0.902   4.363  0.3695 -0.0575 -0.1316
  825MOL0     O11264  11.391   1.030   4.301  0.8023  0.3950  0.3693
  825MOL0     C11265  11.487   1.105   4.363  0.5290 -0.0179 -0.4210
  825MOL0     C11266  11.532   1.216   4.284  0.8325  0.4256  0.0131
  825MOL0     C11267  11.641   1.295   4.329  0.4103  0.0853  0.7125
  825MOL0     C11268  11.683   1.407   4.244  0.1201 -0.3120  0.0548
  825MOL0     C11269  11.690   1.271   4.463  0.3373 -0.0001  0.6246
  825MOL0     C11270  11.805   1.337   4.523 -0.0023 -0.1459 -0.1041
  825MOL0     O11271  11.859   1.288   4.643 -0.5873  0.3746 -0.1620
  825MOL0     C11272  11.943   1.357   4.724  0.2106 -0.0347  0.3170
  825MOL0     C11273  11.941   1.314   4.857 -0.2643  1.5837  0.3666
  825MOL0     C11274  12.024   1.373   4.944  0.7491  0.4849  0.5234
  825MOL0     C11275  12.113   1.479   4.912  0.4558 -0.1771 -0.0437
  825MOL0     O11276  12.185   1.537   5.008  0.4576  0.0490  0.2274
  825MOL0     C11277  12.269   1.443   5.077 -0.6973  0.7603 -0.5565
  825MOL0     C11278  12.320   1.498   5.206  0.7476 -1.3246 -0.2984
  825MOL0     C11279  12.210   1.540   5.304  1.0468  0.0002  0.0370
  825MOL0     C11280  12.269   1.588   5.434  0.4324  0.2068  0.2572
  825MOL0     C11281  12.156   1.616   5.540 -0.5883 -0.1061 -0.3664
  825MOL0     C11282  12.032   1.517   5.550  0.4463  1.3858  0.0881
  825MOL0     C11283  12.069   1.374   5.595  0.4301 -0.8926 -0.0650
  825MOL0     C11284  12.142   1.382   5.736  0.1533 -0.7445 -0.2524
  825MOL0    Cl11285  12.017   1.433   5.860  0.0941 -0.2704  0.1975
  825MOL0     C11286  12.111   1.521   4.783 -0.8428 -0.4623  0.0509
  825MOL0     C11287  12.039   1.454   4.690  0.2255  0.2583 -0.4197
  825MOL0     O11288  11.851   1.439   4.458  0.0125 -0.1641  0.0597
  825MOL0     C11289  11.644   1.156   4.530  0.1858 -0.3872 -0.7267
  825MOL0     C11290  11.545   1.073   4.486 -0.5159 -0.0847 -0.6743
  825MOL0     N11291  10.879   0.910   4.086  1.3720  0.0031 -0.3440
  825MOL0     N11292  10.776   0.953   4.011 -0.3277 -0.0009 -0.6011
  825MOL0     C11293  10.444   1.990   4.452 -0.2579 -0.0409  0.8566
  825MOL0     C11294  10.541   2.052   4.535 -0.2374  0.3993  0.4552
  825MOL0     C11295  10.826   2.060   4.893  0.2433  0.1964 -0.8352
  825MOL0     C11296  10.950   2.112   4.844  0.3131 -0.5612 -0.7727
  825MOL0     C11297  11.026   2.193   4.933 -1.0073 -0.0595  0.2838
  825MOL0     C11298  11.007   2.191   5.069 -0.1509  0.5026 -0.2551
  825MOL0     O11299  11.094   2.237   5.159 -0.1518 -0.5082  0.2946
  825MOL0     C11300  11.083   2.375   5.169 -0.4102 -0.7548  0.5959
  825MOL0     C11301  10.957   2.414   5.254  0.1133  0.2181 -0.2065
  825MOL0     C11302  10.982   2.415   5.405 -1.1568  0.7916  0.1326
  825MOL0     C11303  11.019   2.263   5.458  0.3583  0.7248 -0.4171
  825MOL0     C11304  11.050   2.283   5.597 -0.6706  0.3264  0.3021
  825MOL0     C11305  11.079   2.298   5.714  0.0613  0.1868 -0.8288
  825MOL0     C11306  10.891   2.123   5.111  0.4065 -0.9937  0.0430
  825MOL0     C11307  10.803   2.075   5.027  0.3070  0.5293  0.3498
  825MOL0     H11308  10.698   1.775   4.643  0.7896  0.1327  0.2095
  825MOL0     H11309  10.526   1.659   4.486 -1.2477  0.8848  0.8713
  825MOL0     H11310  10.404   1.791   4.147 -0.4235  0.1920  0.8248
  825MOL0     H11311  10.507   1.692   4.250  0.3263  2.2921  0.4843
  825MOL0     H11312  10.331   1.532   4.296  4.3815 -0.9617  0.2527
  825MOL0     H11313  10.226   1.620   4.186  1.3987 -0.2550 -2.2282
  825MOL0     H11314  10.372   1.594   3.999 -0.0016  3.6599  1.5303
  825MOL0     H11315  10.504   1.519   4.097 -0.0367  0.4255  2.9004
  825MOL0     H11316  10.382   1.333   4.155  2.3426  0.6192 -0.4108
  825MOL0     H11317  10.230   1.385   4.078  0.1388  0.7615  2.4365
  825MOL0     H11318  10.322   1.349   3.865  0.2655  1.4654 -0.6713
  825MOL0     H11319  10.499   1.366   3.930 -0.3693 -0.4832 -2.7382
  825MOL0     H11320  10.286   1.162   3.980  0.3818 -0.9844 -1.5809
  825MOL0     H11321  10.394   1.131   3.846  0.1811  0.9305 -1.0541
  825MOL0     H11322  10.486   1.143   4.148  3.4120  4.3395  0.1068
  825MOL0     H11323  10.485   1.005   4.028 -0.8583  0.8337 -1.1438
  825MOL0     H11324  10.648   1.246   4.033  0.3650 -0.6831  3.0018
  825MOL0     H11325  10.642   1.127   3.894  2.1646 -0.6691  1.1247
  825MOL0     H11326  10.746   1.162   4.257 -0.2749  1.3745 -1.9353
  825MOL0     H11327  10.955   1.055   4.389 -1.7485  2.2178 -1.2210
  825MOL0     H11328  10.928   0.881   4.378 -1.7643 -1.6310 -2.0212
  825MOL0     H11329  11.150   1.066   4.252 -0.8199  1.0277  1.1646
  825MOL0     H11330  11.118   0.909   4.182 -1.0394 -1.6431  0.6255
  825MOL0     H11331  11.177   0.796   4.402  1.5615 -0.2901  2.5289
  825MOL0     H11332  11.175   0.962   4.480 -0.9853  1.7931 -1.8431
  825MOL0     H11333  11.372   0.825   4.290 -0.7034 -3.1479  2.4793
  825MOL0     H11334  11.397   0.872   4.454  2.5676 -2.0572 -1.9086
  825MOL0     H11335  11.469   1.243   4.199 -1.2385  0.1310  1.3896
  825MOL0     H11336  11.780   1.393   4.195  0.3981  1.9298 -0.1498
  825MOL0     H11337  11.608   1.450   4.176 -0.2116  4.2259  2.8882
  825MOL0     H11338  11.694   1.499   4.301 -2.5292 -0.2861  0.6646
  825MOL0     H11339  11.875   1.235   4.891 -3.1916  2.5043 -2.5827
  825MOL0     H11340  12.005   1.359   5.050 -1.7221  3.6533  0.6407
  825MOL0     H11341  12.208   1.355   5.101 -0.6510  1.0663  0.7367
  825MOL0     H11342  12.347   1.403   5.012 -0.9756 -1.0865  0.1588
  825MOL0     H11343  12.386   1.424   5.252  0.8571 -1.4206 -0.6032
  825MOL0     H11344  12.380   1.585   5.179 -0.7734  0.1414  0.8770
  825MOL0     H11345  12.135   1.461   5.312 -0.4163  1.2557 -0.6224
  825MOL0     H11346  12.145   1.622   5.272 -0.1583 -0.9218  0.0632
  825MOL0     H11347  12.330   1.506   5.473 -0.5197  0.2419  1.9067
  825MOL0     H11348  12.338   1.671   5.419  1.4727 -0.8796 -1.1696
  825MOL0     H11349  12.114   1.713   5.512 -1.8028 -1.3773 -3.3702
  825MOL0     H11350  12.185   1.629   5.645  1.8570  0.3076 -1.0211
  825MOL0     H11351  11.954   1.556   5.616  0.6139  0.7992  0.6307
  825MOL0     H11352  11.970   1.514   5.459  1.5402  0.1634 -0.6617
  825MOL0     H11353  12.133   1.328   5.519  0.8339 -1.4550  0.6019
  825MOL0     H11354  11.980   1.311   5.602  0.2447 -1.0250 -2.7335
  825MOL0     H11355  12.234   1.439   5.745 -0.0716 -0.5872  1.2295
  825MOL0     H11356  12.176   1.281   5.761 -2.4362 -1.4940  0.6122
  825MOL0     H11357  12.177   1.603   4.759 -1.1081  0.5103  2.4140
  825MOL0     H11358  12.047   1.489   4.588  0.1416  0.8111 -0.2422
  825MOL0     H11359  11.703   1.127   4.616 -2.0256 -0.0743  1.0008
  825MOL0     H11360  11.522   0.995   4.558  0.7726  0.7410  0.6858
  825MOL0     H11361  10.365   2.052   4.409  1.9443  2.0010 -0.4935
  825MOL0     H11362  10.538   2.158   4.558 -2.4251  1.5390 -3.9440
  825MOL0     H11363  10.983   2.113   4.741  0.3669  1.8596 -0.8111
  825MOL0     H11364  11.118   2.237   4.895  0.5116 -0.9262  2.7155
  825MOL0     H11365  11.175   2.409   5.217 -0.2559  0.6494 -0.6231
  825MOL0     H11366  11.081   2.428   5.073 -1.2864  0.5566  1.3096
  825MOL0     H11367  10.870   2.349   5.239  0.0183  0.3951 -0.4495
  825MOL0     H11368  10.918   2.509   5.216 -1.7953 -0.7285 -0.7492
  825MOL0     H11369  10.897   2.453   5.463  0.3281  0.1919  2.8489
  825MOL0     H11370  11.057   2.493   5.416  0.0837 -0.2455 -0.6866
  825MOL0     H11371  11.107   2.223   5.406  0.3070 -1.2597  0.9126
  825MOL0     H11372  10.938   2.189   5.462 -2.2325  2.9911  7.3344
  825MOL0     H11373  11.098   2.278   5.817  0.9186  0.4548 -0.9233
  825MOL0     H11374  10.876   2.109   5.218 -0.9988 -1.9016 -0.2329
  825MOL0     H11375  10.711   2.041   5.074  1.1001 -0.8086  0.9878
  826MOL0     O11376   0.493  11.020   9.082 -0.0347  0.4306  1.0612
  826MOL0     C11377   0.478  10.955   8.977 -0.0324 -1.2484  0.4192
  826MOL0     O11378   0.477  10.828   8.966 -0.3284  0.8490  0.9891
  826MOL0     C11379   0.459  10.756   9.080  0.3794  0.2454 -0.0842
  826MOL0     C11380   0.563  10.728   9.167  0.2356 -0.4489 -0.3489
  826MOL0     C11381   0.542  10.661   9.295 -0.3962 -0.2570 -0.5008
  826MOL0     C11382   0.424  10.613   9.333  0.1538 -0.4648 -0.6224
  826MOL0     O11383   0.412  10.549   9.452 -0.3249  1.2014 -0.7010
  826MOL0     C11384   0.328  10.436   9.454  1.0192 -0.1149  0.3709
  826MOL0     C11385   0.366  10.349   9.582 -0.0021  0.2389 -0.4742
  826MOL0     C11386   0.279  10.217   9.594 -0.6140  0.0827  0.3386
  826MOL0     C11387   0.146  10.257   9.655  0.1560 -0.7061  0.4157
  826MOL0     C11388   0.040  10.146   9.631 -0.1966 -0.6626  0.7838
  826MOL0     C11389  -0.110  10.203   9.651 -0.3195 -0.1375 -0.5872
  826MOL0     C11390  -0.141  10.229   9.794 -0.0514 -0.0716  0.1835
  826MOL0     C11391  -0.268  10.316   9.806  0.6760 -0.3441 -0.3979
  826MOL0     N11392  -0.390  10.258   9.751 -0.2529  0.1239  0.3823
  826MOL0     C11393  -0.484  10.335   9.693 -0.0279 -0.4897  0.0917
  826MOL0     C11394  -0.551  10.250   9.619  0.8122 -0.1579 -0.1567
  826MOL0     C11395  -0.671  10.300   9.536  0.7452 -0.2685  0.5355
  826MOL0     C11396  -0.625  10.345   9.395  1.0460 -0.7571 -1.4932
  826MOL0     C11397  -0.720  10.308   9.289 -0.6474 -0.1553 -0.6695
  826MOL0     C11398  -0.703  10.386   9.158  0.1874 -0.6906  0.6389
  826MOL0     O11399  -0.584  10.367   9.091 -0.3001  0.1758 -0.1340
  826MOL0     C11400  -0.491  10.455   9.114 -0.5513  0.4149  0.7731
  826MOL0     C11401  -0.373  10.410   9.165 -0.0938  0.8056  0.1766
  826MOL0     C11402  -0.266  10.487   9.192 -0.2023 -0.7874  0.4718
  826MOL0     C11403  -0.149  10.427   9.269 -0.2967 -0.2253 -0.3146
  826MOL0     C11404  -0.267  10.619   9.140 -0.1870 -0.4156 -0.5633
  826MOL0     C11405  -0.143  10.715   9.148 -0.9049  0.1080  0.4272
  826MOL0     O11406  -0.163  10.839   9.092  0.4119  0.1230 -0.0818
  826MOL0     C11407  -0.077  10.931   9.145 -0.2321 -0.7576  0.4324
  826MOL0     C11408  -0.103  10.989   9.273 -0.1815 -0.5409  0.9463
  826MOL0     C11409  -0.038  11.114   9.299  0.2167  0.7254 -0.4013
  826MOL0     C11410   0.072  11.165   9.232  0.2246  1.0151  0.2755
  826MOL0     O11411   0.119  11.286   9.252 -0.2161  0.2777 -0.1587
  826MOL0     C11412   0.114  11.396   9.150  0.2909  1.0466 -0.3458
  826MOL0     C11413   0.249  11.457   9.135 -0.6338 -0.7007 -0.8969
  826MOL0     C11414   0.278  11.542   9.261 -0.0833  0.5641 -0.5458
  826MOL0     C11415   0.434  11.561   9.275  0.0706 -0.1872  1.0465
  826MOL0     C11416   0.477  11.649   9.389 -0.1140  0.4233 -0.0464
  826MOL0     C11417   0.629  11.657   9.388 -0.5634  1.2272  0.0312
  826MOL0     C11418   0.693  11.745   9.499 -0.9705  0.9914 -0.0722
  826MOL0     C11419   0.734  11.673   9.625 -0.2463  0.2186  0.1866
  826MOL0    Cl11420   0.781  11.800   9.745  0.1108 -0.3704  0.0347
  826MOL0     C11421   0.099  11.087   9.116  0.7162 -0.8061  0.6002
  826MOL0     C11422   0.028  10.981   9.063 -0.0661  0.3463 -0.0440
  826MOL0     O11423  -0.032  10.677   9.178  0.5979 -0.4415 -0.3277
  826MOL0     C11424  -0.389  10.661   9.090 -1.0775 -1.4073 -0.3819
  826MOL0     C11425  -0.500  10.583   9.072 -0.0574 -0.9851 -0.0468
  826MOL0     N11426  -0.518  10.120   9.632 -0.3360  0.6625  0.6033
  826MOL0     N11427  -0.430  10.127   9.731 -0.4937 -0.3766  0.7081
  826MOL0     C11428   0.310  10.630   9.238  0.1747  0.2672  1.1673
  826MOL0     C11429   0.329  10.708   9.122 -0.4792  0.2654  0.4392
  826MOL0     C11430   0.475  11.023   8.846  0.6827 -0.1400  0.2490
  826MOL0     C11431   0.511  11.161   8.824 -0.7898  0.9546 -0.3709
  826MOL0     C11432   0.486  11.226   8.701 -0.1447  0.4095 -1.0550
  826MOL0     C11433   0.429  11.158   8.595  0.0542  0.1154  0.5041
  826MOL0     O11434   0.388  11.221   8.481  0.5103 -0.7799  0.8565
  826MOL0     C11435   0.369  11.149   8.355 -0.2073 -0.3563 -0.0849
  826MOL0     C11436   0.229  11.171   8.291 -0.2492  0.0061  0.2879
  826MOL0     C11437   0.187  11.319   8.288 -0.6038  0.0578 -0.1647
  826MOL0     C11438   0.049  11.338   8.236  0.9705 -0.5389 -0.2391
  826MOL0     C11439   0.034  11.306   8.091  0.3726 -0.0640 -0.8634
  826MOL0     C11440   0.016  11.287   7.973  0.1591 -0.3106 -0.0676
  826MOL0     C11441   0.395  11.029   8.616  0.9753  1.1489  0.3482
  826MOL0     C11442   0.418  10.965   8.736 -0.3487  0.4926 -0.2447
  826MOL0     H11443   0.664  10.758   9.141  0.1898 -0.4183 -0.4949
  826MOL0     H11444   0.617  10.657   9.372 -1.8737  0.2141  1.0276
  826MOL0     H11445   0.222  10.462   9.462  1.5131  1.6603  1.8434
  826MOL0     H11446   0.345  10.380   9.361  0.5608  2.2066 -1.1825
  826MOL0     H11447   0.466  10.307   9.567 -1.4452 -3.4472 -0.7964
  826MOL0     H11448   0.360  10.398   9.680 -2.1552 -2.9974  1.2098
  826MOL0     H11449   0.259  10.167   9.499 -0.4216 -0.8498  0.7780
  826MOL0     H11450   0.325  10.149   9.666 -1.2112  0.6382  1.2604
  826MOL0     H11451   0.167  10.253   9.763  2.6202 -4.3214 -0.0305
  826MOL0     H11452   0.105  10.353   9.621 -0.1191 -1.0935 -0.3509
  826MOL0     H11453   0.037  10.103   9.531 -0.9056  2.1585 -0.5037
  826MOL0     H11454   0.061  10.062   9.698 -0.0172 -1.2009  0.0603
  826MOL0     H11455  -0.127  10.298   9.599  1.0832  1.6871  2.0366
  826MOL0     H11456  -0.185  10.135   9.611 -4.3238  3.5584 -0.0694
  826MOL0     H11457  -0.159  10.131   9.839 -2.7553 -0.1526 -0.9069
  826MOL0     H11458  -0.064  10.278   9.853 -1.2212 -2.7950  4.4540
  826MOL0     H11459  -0.262  10.409   9.750 -4.2705 -0.2673 -1.2008
  826MOL0     H11460  -0.281  10.340   9.912 -0.1597  0.3536 -0.6501
  826MOL0     H11461  -0.492  10.443   9.694  1.2130 -0.3870  1.0481
  826MOL0     H11462  -0.728  10.210   9.512  1.4664 -0.5913 -0.0012
  826MOL0     H11463  -0.734  10.367   9.596 -1.1318  0.2407 -1.8683
  826MOL0     H11464  -0.534  10.286   9.379 -0.1994 -2.5813 -2.1070
  826MOL0     H11465  -0.606  10.453   9.395 -0.2065 -0.5110 -0.4651
  826MOL0     H11466  -0.825  10.320   9.316 -1.0217 -1.7673 -1.2573
  826MOL0     H11467  -0.718  10.199   9.276 -2.0669  0.0506 -3.3045
  826MOL0     H11468  -0.727  10.489   9.188  2.7525 -0.5180  2.4960
  826MOL0     H11469  -0.780  10.346   9.092 -0.5418  0.6023  0.6733
  826MOL0     H11470  -0.378  10.307   9.201  0.0475  1.4592  2.1982
  826MOL0     H11471  -0.173  10.326   9.303 -2.0208  0.6351  1.2033
  826MOL0     H11472  -0.060  10.418   9.206  1.9116  1.3374  2.3583
  826MOL0     H11473  -0.133  10.476   9.365  3.4521 -1.5655 -0.0696
  826MOL0     H11474  -0.174  10.945   9.341  0.0961 -2.8199 -0.1391
  826MOL0     H11475  -0.057  11.148   9.401  1.0198 -1.7221  0.6410
  826MOL0     H11476   0.076  11.371   9.051  0.4501  1.6809 -0.5756
  826MOL0     H11477   0.046  11.475   9.182  0.7739  1.1408  0.4827
  826MOL0     H11478   0.312  11.368   9.123  1.8074  0.5602  1.4122
  826MOL0     H11479   0.260  11.520   9.046  1.8719 -0.3481 -0.4169
  826MOL0     H11480   0.231  11.500   9.351 -0.1607  0.6264 -0.5577
  826MOL0     H11481   0.243  11.645   9.254  0.7322  0.9779  1.0191
  826MOL0     H11482   0.466  11.457   9.281  0.9745 -0.0251 -0.4209
  826MOL0     H11483   0.470  11.605   9.182 -1.1645  1.7703  1.4397
  826MOL0     H11484   0.436  11.609   9.483  1.6169 -0.7625  0.2650
  826MOL0     H11485   0.430  11.746   9.372 -0.9074 -0.0125 -0.4105
  826MOL0     H11486   0.659  11.552   9.392  1.5945  1.8122  3.2787
  826MOL0     H11487   0.663  11.696   9.292 -0.5849  1.0879 -0.0327
  826MOL0     H11488   0.624  11.822   9.533 -1.6352  1.3136 -1.9833
  826MOL0     H11489   0.783  11.796   9.464 -0.7035  1.1423  0.8113
  826MOL0     H11490   0.819  11.608   9.597 -1.1841 -0.3238 -1.5509
  826MOL0     H11491   0.657  11.601   9.654  1.7433 -1.2213  2.3387
  826MOL0     H11492   0.180  11.121   9.052 -0.7908  0.5355 -0.6768
  826MOL0     H11493   0.071  10.959   8.966  2.6017  0.8448  0.9244
  826MOL0     H11494  -0.410  10.766   9.075  0.3993 -0.3382  3.6657
  826MOL0     H11495  -0.588  10.617   9.019 -1.5176 -1.5508  1.9302
  826MOL0     H11496   0.212  10.599   9.272 -1.1836  1.5919 -1.2488
  826MOL0     H11497   0.230  10.723   9.078 -0.4941 -0.0372  0.3668
  826MOL0     H11498   0.553  11.211   8.911 -0.9517  0.1568  0.1802
  826MOL0     H11499   0.518  11.330   8.701  2.1298 -0.1744  1.4172
  826MOL0     H11500   0.457  11.175   8.295  1.1147  2.1506  2.6840
  826MOL0     H11501   0.367  11.040   8.358 -0.5596 -0.3919 -1.1360
  826MOL0     H11502   0.154  11.129   8.359  2.2665 -1.5030  2.3174
  826MOL0     H11503   0.239  11.133   8.189  2.3516 -0.1279  0.5147
  826MOL0     H11504   0.264  11.362   8.223  0.4472 -0.5906  0.6109
  826MOL0     H11505   0.183  11.359   8.390 -1.1704 -1.2412  0.3551
  826MOL0     H11506   0.027  11.443   8.259 -1.4804 -0.4330 -2.4948
  826MOL0     H11507  -0.020  11.275   8.294  2.2225 -0.6495  1.1747
  826MOL0     H11508   0.009  11.261   7.870 -2.1577 -0.4145  0.0634
  826MOL0     H11509   0.332  10.973   8.548  1.9303 -0.9155  1.0982
  826MOL0     H11510   0.389  10.861   8.750 -1.5135  1.1017  2.5195
  827MOL0     O11511  10.686   2.099   1.116 -0.4631 -0.3460  0.3649
  827MOL0     C11512  10.571   2.112   1.066 -0.8309  0.1556  0.1427
  827MOL0     O11513  10.540   2.099   0.935  0.6908 -0.5166  0.2069
  827MOL0     C11514  10.634   2.042   0.855  0.1492 -0.1233 -0.4309
  827MOL0     C11515  10.776   2.061   0.859 -0.3881  0.1443 -0.4763
  827MOL0     C11516  10.856   2.007   0.759 -0.5514 -0.0486 -1.2399
  827MOL0     C11517  10.809   1.911   0.668  0.0782  0.5599  0.4548
  827MOL0     O11518  10.887   1.834   0.581 -0.3513 -0.2982  0.5573
  827MOL0     C11519  11.011   1.885   0.534  1.1759  0.5331  0.2100
  827MOL0     C11520  11.048   1.799   0.413  0.2167  0.3582  0.3928
  827MOL0     C11521  11.187   1.846   0.361  0.2976 -0.0218  0.2124
  827MOL0     C11522  11.249   1.763   0.243  0.6780 -0.2343  0.3128
  827MOL0     C11523  11.406   1.764   0.260  0.3378  0.2797 -0.0925
  827MOL0     C11524  11.461   1.690   0.142  0.4768 -0.6099 -0.2839
  827MOL0     C11525  11.613   1.677   0.142  0.1439 -0.3344  0.3198
  827MOL0     C11526  11.673   1.809   0.089  0.3621  0.6291  0.3887
  827MOL0     N11527  11.808   1.799   0.038  0.4223  0.5665 -0.6219
  827MOL0     C11528  11.866   1.735  -0.065 -0.5227  0.6263  0.0807
  827MOL0     C11529  11.997   1.743  -0.054 -0.1565  0.6602  0.2717
  827MOL0     C11530  12.091   1.681  -0.158 -0.4584 -0.2550  0.3268
  827MOL0     C11531  12.243   1.696  -0.116  0.0052  0.1341  0.6915
  827MOL0     C11532  12.307   1.830  -0.152 -0.2770 -0.6038 -0.0797
  827MOL0     C11533  12.422   1.861  -0.057  0.2377  0.2775 -0.5900
  827MOL0     O11534  12.479   1.995  -0.090 -0.1482 -0.4744  0.3924
  827MOL0     C11535  12.432   2.118  -0.031 -0.2137  1.0002 -0.4336
  827MOL0     C11536  12.489   2.241  -0.070 -0.2686  0.3700  0.3325
  827MOL0     C11537  12.466   2.355   0.018 -0.0172  0.6059 -0.1534
  827MOL0     C11538  12.548   2.483  -0.008 -1.1609 -0.3253 -0.7955
  827MOL0     C11539  12.379   2.352   0.124 -0.5676  0.4725 -0.5451
  827MOL0     C11540  12.343   2.468   0.216  0.0239 -0.6905  0.2117
  827MOL0     O11541  12.438   2.565   0.229 -0.6579 -0.3340  0.2723
  827MOL0     C11542  12.391   2.676   0.297  0.9246  0.2234  0.8745
  827MOL0     C11543  12.347   2.785   0.223  0.6121  0.8658 -0.4127
  827MOL0     C11544  12.275   2.889   0.294 -0.5638 -0.9374  1.1591
  827MOL0     C11545  12.253   2.877   0.429 -0.0144 -0.2752  0.0620
  827MOL0     O11546  12.174   2.970   0.488 -0.3852  0.3815 -0.7553
  827MOL0     C11547  12.065   2.907   0.567  0.2545 -0.5484  0.0137
  827MOL0     C11548  11.962   3.016   0.612  0.6312  0.7446 -0.6269
  827MOL0     C11549  11.876   3.070   0.495  0.4369 -0.7517 -0.2799
  827MOL0     C11550  11.816   3.206   0.538 -0.0621 -0.5088  0.3901
  827MOL0     C11551  11.758   3.285   0.425 -0.4999  0.5547 -0.0439
  827MOL0     C11552  11.655   3.392   0.470  0.2917 -0.2539 -0.7535
  827MOL0     C11553  11.553   3.342   0.586 -0.4292 -0.1189  0.3478
  827MOL0     C11554  11.425   3.421   0.554  0.3894  0.4186  0.0808
  827MOL0    Cl11555  11.333   3.315   0.449 -0.0509 -0.3197  0.5832
  827MOL0     C11556  12.307   2.774   0.497 -0.0975 -0.2799  0.0425
  827MOL0     C11557  12.388   2.685   0.436 -0.0058 -0.1661 -0.3480
  827MOL0     O11558  12.231   2.462   0.272 -0.2890 -0.8875  0.0529
  827MOL0     C11559  12.315   2.229   0.147  0.4387  1.1564 -0.6145
  827MOL0     C11560  12.336   2.117   0.066 -0.0716  0.0491 -0.4819
  827MOL0     N11561  12.021   1.834   0.053  0.4956  1.1332 -0.0113
  827MOL0     N11562  11.903   1.860   0.110 -0.8250  0.0378  0.7839
  827MOL0     C11563  10.672   1.880   0.669 -0.7920  0.0476 -0.0016
  827MOL0     C11564  10.584   1.954   0.752 -0.1331  0.1895  0.3047
  827MOL0     C11565  10.458   2.148   1.160  0.5766 -0.6543  0.2368
  827MOL0     C11566  10.331   2.169   1.115  0.1174  0.0074  0.3680
  827MOL0     C11567  10.222   2.204   1.188 -0.7033  0.2738  0.3130
  827MOL0     C11568  10.239   2.204   1.329 -0.1119 -0.1809 -0.3001
  827MOL0     O11569  10.141   2.200   1.424  0.5450  0.1830  0.3679
  827MOL0     C11570  10.007   2.195   1.369  0.2095  0.4225  0.2139
  827MOL0     C11571   9.902   2.190   1.467 -0.1749 -0.3853  0.1775
  827MOL0     C11572   9.906   2.070   1.558  0.0673  0.4290  0.3165
  827MOL0     C11573   9.948   2.109   1.703 -0.4046  0.3331 -0.1826
  827MOL0     C11574   9.927   2.002   1.794  0.0692 -0.2604 -0.6738
  827MOL0     C11575   9.870   1.921   1.864 -0.5855  0.0884 -0.2889
  827MOL0     C11576  10.372   2.177   1.381  1.1164  0.0562 -0.0627
  827MOL0     C11577  10.475   2.144   1.296 -0.0523  1.0376 -1.2717
  827MOL0     H11578  10.822   2.127   0.932 -0.9419 -0.3034  0.2956
  827MOL0     H11579  10.956   2.050   0.761 -0.3616 -0.3756 -2.8565
  827MOL0     H11580  11.004   1.993   0.522 -1.2430  0.5529  1.3150
  827MOL0     H11581  11.086   1.860   0.610  0.7643 -1.0595  0.1441
  827MOL0     H11582  11.056   1.692   0.434  1.3673  0.7898  2.3761
  827MOL0     H11583  10.977   1.808   0.330  0.1802 -1.9566  0.1017
  827MOL0     H11584  11.181   1.955   0.351 -0.6179  0.6232  5.2275
  827MOL0     H11585  11.254   1.844   0.448 -2.5369  1.3549  2.5892
  827MOL0     H11586  11.201   1.669   0.273 -1.9311  0.5792 -1.0416
  827MOL0     H11587  11.206   1.789   0.146 -2.7993 -1.5337  1.3390
  827MOL0     H11588  11.449   1.865   0.259  1.2932  0.0221  2.8922
  827MOL0     H11589  11.430   1.709   0.352  1.3474  1.4761  0.4003
  827MOL0     H11590  11.418   1.590   0.152  0.6129 -0.6908 -0.5055
  827MOL0     H11591  11.432   1.729   0.044  0.3541  0.7664  0.2807
  827MOL0     H11592  11.657   1.660   0.241 -1.3972 -1.0880  0.8981
  827MOL0     H11593  11.633   1.595   0.072  4.8125  2.3290 -2.0006
  827MOL0     H11594  11.670   1.889   0.162 -1.6914  2.0382 -1.0937
  827MOL0     H11595  11.608   1.839   0.006  0.4118  0.1566  0.1766
  827MOL0     H11596  11.813   1.680  -0.142  2.7498  3.2085 -4.4709
  827MOL0     H11597  12.079   1.574  -0.174  1.2204 -0.7448  1.9734
  827MOL0     H11598  12.068   1.715  -0.259  1.0411 -0.0981  0.0043
  827MOL0     H11599  12.295   1.620  -0.174 -0.2888  0.2133  0.3227
  827MOL0     H11600  12.262   1.669  -0.012  1.9757 -0.5759  0.1966
  827MOL0     H11601  12.236   1.913  -0.141  0.6201  0.1056  0.5471
  827MOL0     H11602  12.349   1.820  -0.252  3.0514 -2.4846  1.3696
  827MOL0     H11603  12.495   1.779  -0.051 -1.6163 -1.3442  1.3023
  827MOL0     H11604  12.388   1.864   0.046  1.5312  5.7087 -0.0190
  827MOL0     H11605  12.559   2.243  -0.153  1.6071  1.3932  1.8517
  827MOL0     H11606  12.598   2.454  -0.101  2.3772 -2.4342  1.5329
  827MOL0     H11607  12.480   2.568  -0.021 -3.2364 -1.9095 -0.8260
  827MOL0     H11608  12.619   2.505   0.073 -1.9098  1.2587 -0.5262
  827MOL0     H11609  12.382   2.787   0.121  0.1405  0.6090 -0.5835
  827MOL0     H11610  12.241   2.970   0.230  2.8852  1.1201  1.6853
  827MOL0     H11611  12.021   2.834   0.499 -0.0170 -0.1059 -0.2913
  827MOL0     H11612  12.104   2.841   0.645  0.4216 -3.1789 -2.1389
  827MOL0     H11613  11.897   2.962   0.681  3.4425 -0.5442  1.1559
  827MOL0     H11614  12.014   3.097   0.663 -2.5198  1.5521  1.6492
  827MOL0     H11615  11.801   2.995   0.465  0.3661 -0.5830 -0.5309
  827MOL0     H11616  11.940   3.085   0.407  1.9759  1.5859  1.1392
  827MOL0     H11617  11.744   3.195   0.620 -0.6630  0.8966  0.0840
  827MOL0     H11618  11.902   3.260   0.579 -0.1500 -1.2274  1.5838
  827MOL0     H11619  11.710   3.220   0.352 -0.1329  0.2007  0.0314
  827MOL0     H11620  11.839   3.343   0.380 -0.3502 -0.2869 -0.8806
  827MOL0     H11621  11.705   3.480   0.512 -1.8404  0.4713  0.4110
  827MOL0     H11622  11.604   3.410   0.376  1.2594 -0.2785 -1.2956
  827MOL0     H11623  11.596   3.369   0.683  0.6140 -1.1062  0.1924
  827MOL0     H11624  11.530   3.235   0.589 -0.8669 -0.0131  0.9125
  827MOL0     H11625  11.460   3.520   0.525  0.3358  0.2944 -0.4179
  827MOL0     H11626  11.356   3.443   0.636  1.2556  1.6706  0.5117
  827MOL0     H11627  12.294   2.772   0.605 -2.0136  0.9250 -0.1144
  827MOL0     H11628  12.434   2.612   0.502 -0.6522 -0.2869 -0.0189
  827MOL0     H11629  12.243   2.207   0.226  0.4424 -2.5002 -1.4626
  827MOL0     H11630  12.273   2.034   0.095  0.8752 -1.8599 -3.3898
  827MOL0     H11631  10.640   1.813   0.590  3.4157 -1.3273 -0.8198
  827MOL0     H11632  10.476   1.947   0.741 -0.1932  1.8789 -0.5453
  827MOL0     H11633  10.318   2.157   1.008 -2.7719  0.0466  0.6359
  827MOL0     H11634  10.129   2.224   1.136 -1.3386 -4.7284 -0.9903
  827MOL0     H11635   9.995   2.290   1.317 -1.2318 -0.2079 -0.6622
  827MOL0     H11636   9.997   2.111   1.300 -2.6587  0.9103 -0.0716
  827MOL0     H11637   9.804   2.196   1.419 -0.9573 -0.3480  1.7138
  827MOL0     H11638   9.915   2.287   1.516  2.8862  0.0214 -1.2369
  827MOL0     H11639   9.961   1.995   1.502  0.5655  2.2555 -1.7952
  827MOL0     H11640   9.807   2.031   1.583  0.6653  0.8347  3.8951
  827MOL0     H11641   9.893   2.199   1.729  1.4395  1.3711  0.3154
  827MOL0     H11642  10.053   2.135   1.716 -0.5003  0.3267  0.6123
  827MOL0     H11643   9.826   1.847   1.927  2.6341  0.2104  2.4188
  827MOL0     H11644  10.386   2.170   1.489 -0.1217  1.0180  0.1814
  827MOL0     H11645  10.566   2.121   1.350 -2.1168  0.7243  2.3945
  828MOL0     O11646   7.494   1.634   7.726  0.1848  1.0182  0.7502
  828MOL0     C11647   7.511   1.524   7.779  0.3385 -0.2557 -0.9063
  828MOL0     O11648   7.621   1.442   7.768  0.0748 -0.9482 -0.4037
  828MOL0     C11649   7.745   1.462   7.704  0.3670 -0.1523 -0.6976
  828MOL0     C11650   7.806   1.346   7.666  0.6368  0.0463  0.8790
  828MOL0     C11651   7.932   1.339   7.612 -0.3036  0.2752 -0.3491
  828MOL0     C11652   7.996   1.458   7.587 -0.3450 -0.2255  0.7725
  828MOL0     O11653   8.126   1.474   7.543  0.1971  0.7439 -0.3627
  828MOL0     C11654   8.206   1.362   7.522 -0.7541  0.7325 -1.2016
  828MOL0     C11655   8.292   1.328   7.645 -0.0521 -0.3396 -0.1225
  828MOL0     C11656   8.369   1.190   7.623  0.0796  0.2891 -0.2844
  828MOL0     C11657   8.442   1.159   7.752  0.4154 -0.7641 -0.9059
  828MOL0     C11658   8.347   1.108   7.859 -0.1709  0.3955 -1.0612
  828MOL0     C11659   8.418   1.011   7.951 -0.5969  0.2664 -1.0104
  828MOL0     C11660   8.537   1.078   8.029 -0.7440  0.4217 -0.0583
  828MOL0     C11661   8.575   1.011   8.175  0.0930 -0.3936  0.7901
  828MOL0     N11662   8.459   0.999   8.267 -0.4986 -0.3298  0.0989
  828MOL0     C11663   8.438   0.908   8.372 -0.4095 -0.0898 -0.1035
  828MOL0     C11664   8.313   0.940   8.419  0.1368  0.5385  0.0410
  828MOL0     C11665   8.236   0.854   8.509  0.5539 -1.0934  0.4959
  828MOL0     C11666   8.297   0.837   8.640  0.0014  0.0438 -0.2985
  828MOL0     C11667   8.217   0.756   8.734 -0.0878 -0.5145  0.5076
  828MOL0     C11668   8.080   0.821   8.763  0.3109  0.0736  0.1048
  828MOL0     O11669   7.991   0.800   8.651  0.1998  0.9562 -1.0756
  828MOL0     C11670   7.869   0.853   8.648 -0.2374  1.5888 -0.4662
  828MOL0     C11671   7.792   0.892   8.753  0.3863  0.2138  0.2016
  828MOL0     C11672   7.655   0.938   8.736 -0.2736  0.0367  0.2926
  828MOL0     C11673   7.582   0.975   8.858 -0.1221 -0.0405  0.3769
  828MOL0     C11674   7.596   0.952   8.613  0.4080 -0.0191  0.0470
  828MOL0     C11675   7.469   1.027   8.587 -0.5718  0.3736 -0.0049
  828MOL0     O11676   7.433   1.132   8.665  0.2952  0.1986 -0.5704
  828MOL0     C11677   7.321   1.211   8.642  0.3650 -0.2352  0.6796
  828MOL0     C11678   7.273   1.275   8.754 -0.5551 -0.0587  0.8092
  828MOL0     C11679   7.159   1.348   8.738  0.2770  0.6719  0.1350
  828MOL0     C11680   7.103   1.386   8.620 -0.4678 -0.5625 -0.0850
  828MOL0     O11681   7.008   1.485   8.620 -0.3989  0.0277 -0.0414
  828MOL0     C11682   6.946   1.513   8.494 -0.3264  0.2259 -0.6663
  828MOL0     C11683   6.856   1.624   8.533 -0.4839 -0.1067  0.1872
  828MOL0     C11684   6.932   1.759   8.543  0.8525  0.2155  0.4486
  828MOL0     C11685   7.030   1.782   8.664 -0.6575 -0.6591 -0.2805
  828MOL0     C11686   7.118   1.912   8.631  0.2410 -0.5684  0.3148
  828MOL0     C11687   7.046   2.050   8.608 -0.3987 -0.0889 -0.0648
  828MOL0     C11688   7.150   2.171   8.609  0.2409 -0.2807 -0.3674
  828MOL0     C11689   7.101   2.294   8.520  0.0815 -0.0268  0.1197
  828MOL0    Cl11690   7.078   2.231   8.361 -0.1397 -0.1661 -0.2957
  828MOL0     C11691   7.165   1.332   8.501  0.3689 -0.0067 -0.3136
  828MOL0     C11692   7.265   1.244   8.516 -0.0254 -0.1241  0.1733
  828MOL0     O11693   7.405   0.988   8.488 -0.2955 -0.4022  0.5786
  828MOL0     C11694   7.673   0.907   8.508 -0.7190  0.8337  0.5029
  828MOL0     C11695   7.806   0.863   8.527  0.3680 -0.3760  0.3382
  828MOL0     N11696   8.272   1.058   8.351  0.0959  0.4923  0.1634
  828MOL0     N11697   8.361   1.091   8.273  0.2069  0.7409 -0.1548
  828MOL0     C11698   7.934   1.579   7.611 -0.3853 -0.1678 -0.5249
  828MOL0     C11699   7.816   1.590   7.679  0.5246  0.4521  0.0320
  828MOL0     C11700   7.395   1.474   7.862 -0.1380 -0.3971 -0.3396
  828MOL0     C11701   7.389   1.340   7.893 -0.6446  0.7921 -0.3304
  828MOL0     C11702   7.295   1.285   7.980 -0.1863  0.2051  0.4664
  828MOL0     C11703   7.193   1.368   8.013  0.8871  0.3662 -0.1873
  828MOL0     O11704   7.090   1.311   8.084  0.5213 -0.2641 -0.0561
  828MOL0     C11705   6.970   1.377   8.106 -0.1025  0.5251 -0.2868
  828MOL0     C11706   6.864   1.281   8.153 -0.1523  0.5284  0.3310
  828MOL0     C11707   6.727   1.352   8.164  0.6920 -0.1768 -0.1608
  828MOL0     C11708   6.615   1.248   8.183 -0.6381 -0.0491 -0.0081
  828MOL0     C11709   6.486   1.302   8.206 -0.3718  0.3043 -0.1705
  828MOL0     C11710   6.373   1.350   8.240  0.6852 -0.5931 -0.0328
  828MOL0     C11711   7.194   1.513   7.977  0.3239 -0.0565 -0.1320
  828MOL0     C11712   7.294   1.562   7.898  0.6011 -0.4520 -0.8515
  828MOL0     H11713   7.750   1.254   7.674  0.6241 -0.3319 -2.3461
  828MOL0     H11714   7.970   1.239   7.593  2.1622  1.2715 -1.1089
  828MOL0     H11715   8.146   1.278   7.488 -2.8177 -0.4139  4.2706
  828MOL0     H11716   8.272   1.378   7.437 -1.0478  0.5754 -1.4594
  828MOL0     H11717   8.362   1.408   7.669  0.4357 -0.6183 -0.6093
  828MOL0     H11718   8.219   1.317   7.727  1.4735 -0.4945  1.2674
  828MOL0     H11719   8.295   1.112   7.605  0.3662  0.0037 -0.2226
  828MOL0     H11720   8.432   1.199   7.535 -1.8290  1.2502 -1.6427
  828MOL0     H11721   8.510   1.074   7.735  1.0330 -0.5016  0.1563
  828MOL0     H11722   8.503   1.239   7.795  1.6262 -3.2240  2.3820
  828MOL0     H11723   8.314   1.196   7.914  1.4688  3.0870 -4.0371
  828MOL0     H11724   8.258   1.066   7.811 -1.2451 -0.0318  1.1691
  828MOL0     H11725   8.343   0.974   8.022 -2.8671  3.3343 -1.5592
  828MOL0     H11726   8.460   0.926   7.896 -2.9386 -2.2237  0.7709
  828MOL0     H11727   8.629   1.070   7.970 -0.1841 -2.2945  1.0014
  828MOL0     H11728   8.525   1.184   8.051  2.0117  0.7747  0.1747
  828MOL0     H11729   8.650   1.077   8.218  0.0557 -0.7647  1.4401
  828MOL0     H11730   8.632   0.918   8.168  2.1480  0.9048 -0.5799
  828MOL0     H11731   8.508   0.828   8.396  1.4575  1.9353  1.5826
  828MOL0     H11732   8.137   0.899   8.508 -0.2138 -2.5206 -2.8375
  828MOL0     H11733   8.219   0.751   8.476 -2.3517 -0.2576 -0.9318
  828MOL0     H11734   8.311   0.936   8.684 -2.8097 -0.2258  1.4419
  828MOL0     H11735   8.397   0.795   8.624  1.0597  2.8011 -1.5913
  828MOL0     H11736   8.279   0.740   8.823  0.7007  0.4634  0.1583
  828MOL0     H11737   8.196   0.663   8.681 -1.0498  1.0765 -2.0905
  828MOL0     H11738   8.091   0.927   8.786 -0.8759  0.0543  0.8123
  828MOL0     H11739   8.030   0.773   8.847 -1.6209  0.7670 -0.6083
  828MOL0     H11740   7.834   0.881   8.853 -0.7801 -1.4453  0.5381
  828MOL0     H11741   7.594   1.082   8.878  1.8615  0.1352 -1.3039
  828MOL0     H11742   7.480   0.940   8.844 -0.2105  0.8726 -1.8176
  828MOL0     H11743   7.632   0.918   8.937  0.8061  1.0118  0.5789
  828MOL0     H11744   7.313   1.251   8.852  1.3582 -1.4814 -0.2496
  828MOL0     H11745   7.115   1.395   8.825 -1.0880  0.6057 -0.4907
  828MOL0     H11746   7.020   1.548   8.422 -0.8500  0.7478 -0.9618
  828MOL0     H11747   6.895   1.429   8.443 -0.3014  0.8161 -1.6991
  828MOL0     H11748   6.776   1.638   8.461 -1.4623 -1.1662  1.0144
  828MOL0     H11749   6.808   1.590   8.625 -0.2128  0.8429  0.6881
  828MOL0     H11750   6.859   1.840   8.549 -0.6766 -1.1754  1.8075
  828MOL0     H11751   6.990   1.775   8.452 -0.7474  1.7733 -0.3492
  828MOL0     H11752   6.975   1.804   8.756 -1.2941 -0.2886 -0.7402
  828MOL0     H11753   7.105   1.703   8.677  0.9818  0.5655 -1.7550
  828MOL0     H11754   7.179   1.895   8.542 -1.2629 -3.6451 -0.2688
  828MOL0     H11755   7.181   1.916   8.720 -0.6741  1.1150  0.9416
  828MOL0     H11756   6.986   2.037   8.518 -1.1545  3.7617 -0.2728
  828MOL0     H11757   6.981   2.073   8.693  0.1597  0.4031  0.2445
  828MOL0     H11758   7.251   2.143   8.579  0.5122 -1.6897  1.6904
  828MOL0     H11759   7.161   2.207   8.712 -0.4239  1.6014 -0.9047
  828MOL0     H11760   7.170   2.378   8.520 -0.4915  0.5393  2.6783
  828MOL0     H11761   7.006   2.330   8.561 -0.4149 -3.6568  2.6878
  828MOL0     H11762   7.111   1.334   8.407 -1.3525  0.3552  0.6330
  828MOL0     H11763   7.311   1.196   8.431  0.3655  0.7472 -0.1134
  828MOL0     H11764   7.631   0.909   8.408 -0.3461 -0.0846  0.3116
  828MOL0     H11765   7.863   0.834   8.440  0.9492 -0.4299  0.7383
  828MOL0     H11766   7.981   1.671   7.578  1.1880 -0.9722 -0.6682
  828MOL0     H11767   7.786   1.693   7.694 -1.9330 -0.3582  1.2888
  828MOL0     H11768   7.469   1.279   7.851 -2.7770  0.4198 -4.3222
  828MOL0     H11769   7.303   1.182   8.013  0.7538  0.2992  0.5659
  828MOL0     H11770   6.975   1.460   8.177 -0.6821  0.3933 -0.0821
  828MOL0     H11771   6.934   1.422   8.013 -0.0591  1.0174 -0.0675
  828MOL0     H11772   6.890   1.245   8.253 -0.0951 -2.9902 -0.8049
  828MOL0     H11773   6.866   1.190   8.093  0.0637  1.7157 -1.5536
  828MOL0     H11774   6.706   1.422   8.082  0.8609  1.2975  0.9968
  828MOL0     H11775   6.729   1.407   8.259  2.0115  0.4252 -0.5223
  828MOL0     H11776   6.627   1.185   8.271 -1.8239  2.1146  1.7956
  828MOL0     H11777   6.614   1.187   8.092  0.2859 -1.6373  0.9964
  828MOL0     H11778   6.283   1.380   8.289  0.0167 -2.2817 -0.1502
  828MOL0     H11779   7.124   1.588   8.015 -0.6523 -1.9092  1.9916
  828MOL0     H11780   7.295   1.661   7.855  0.7906  0.9798  2.2208
  829MOL0     O11781   5.183   1.313   3.075  0.1332 -0.1685 -0.8891
  829MOL0     C11782   5.300   1.347   3.087  0.6529  0.2139  0.4770
  829MOL0     O11783   5.404   1.271   3.046  0.1652 -0.2655  0.5581
  829MOL0     C11784   5.380   1.179   2.948 -0.3396  0.4940  0.2674
  829MOL0     C11785   5.467   1.071   2.944  0.8610  0.4601 -0.1549
  829MOL0     C11786   5.460   0.976   2.840 -0.3907  0.0641  0.2596
  829MOL0     C11787   5.363   0.972   2.745 -0.1831  0.7529  0.5042
  829MOL0     O11788   5.371   0.860   2.657  0.1096 -0.2907  0.0776
  829MOL0     C11789   5.273   0.847   2.548  0.3469  0.1767  0.1328
  829MOL0     C11790   5.133   0.823   2.602 -0.7849  0.7856 -0.3067
  829MOL0     C11791   5.032   0.879   2.502  1.0003 -0.2225  0.4504
  829MOL0     C11792   4.896   0.883   2.569  0.3600 -0.6638 -0.1256
  829MOL0     C11793   4.780   0.926   2.471  0.2439 -0.9677 -0.0961
  829MOL0     C11794   4.779   1.076   2.417  0.8320 -0.5436 -0.0440
  829MOL0     C11795   4.816   1.094   2.269 -0.1756  0.6240 -0.3400
  829MOL0     C11796   4.792   1.241   2.220  0.2008  0.6235 -0.4982
  829MOL0     N11797   4.881   1.340   2.284 -0.0982  0.4071  0.6412
  829MOL0     C11798   4.922   1.455   2.210 -0.5404 -0.1573  0.2510
  829MOL0     C11799   4.984   1.533   2.298 -0.0758 -0.2325 -0.3125
  829MOL0     C11800   5.052   1.663   2.252  0.2139  0.1931 -0.2580
  829MOL0     C11801   5.116   1.753   2.373  0.4040 -0.2114 -0.1522
  829MOL0     C11802   5.270   1.736   2.363  0.4827 -0.5371  0.8812
  829MOL0     C11803   5.297   1.604   2.425  0.9884 -0.9438 -0.1061
  829MOL0     O11804   5.429   1.578   2.400 -0.0414 -0.2414 -0.7589
  829MOL0     C11805   5.531   1.590   2.489 -0.0593 -0.0975  0.3016
  829MOL0     C11806   5.522   1.544   2.621  0.6874 -0.0833  0.3093
  829MOL0     C11807   5.620   1.562   2.722  0.3959  1.4895  0.6396
  829MOL0     C11808   5.592   1.522   2.860  0.1811 -0.0463 -0.1196
  829MOL0     C11809   5.731   1.644   2.681 -0.2854 -0.5961 -0.5189
  829MOL0     C11810   5.828   1.690   2.787 -0.0272  0.4932  0.2389
  829MOL0     O11811   5.876   1.605   2.887  0.0673 -1.0480 -0.9633
  829MOL0     C11812   5.976   1.657   2.964 -0.0463 -0.2248 -0.6396
  829MOL0     C11813   5.957   1.685   3.096 -0.0618 -0.4107 -0.9335
  829MOL0     C11814   6.062   1.731   3.180  0.3556  0.1670  0.5457
  829MOL0     C11815   6.186   1.741   3.123 -0.2834 -1.8249  0.0136
  829MOL0     O11816   6.297   1.784   3.199  0.0824  0.2001  0.8782
  829MOL0     C11817   6.286   1.848   3.321  0.1221 -0.8269  0.1239
  829MOL0     C11818   6.409   1.940   3.331 -0.5915 -1.0961  0.3692
  829MOL0     C11819   6.455   1.995   3.464  0.2374  0.5347 -0.8865
  829MOL0     C11820   6.340   2.072   3.531 -0.2522  0.4063  0.0259
  829MOL0     C11821   6.380   2.084   3.673  0.4099 -0.0605 -0.3684
  829MOL0     C11822   6.308   2.197   3.743 -0.0175  0.4753  1.2406
  829MOL0     C11823   6.310   2.171   3.888 -0.0365  0.2531 -0.6268
  829MOL0     C11824   6.230   2.290   3.951  0.9922  0.8239  0.5820
  829MOL0    Cl11825   6.051   2.292   3.906 -0.0587 -0.0185  0.0217
  829MOL0     C11826   6.214   1.710   2.995  0.3240  0.4519 -0.0610
  829MOL0     C11827   6.106   1.661   2.918  0.5588 -0.1941  1.1803
  829MOL0     O11828   5.852   1.809   2.783  0.7689 -0.4527 -0.1501
  829MOL0     C11829   5.742   1.701   2.547 -0.0051  0.1465 -0.2066
  829MOL0     C11830   5.642   1.669   2.455  0.4357  0.1596 -0.6478
  829MOL0     N11831   4.971   1.481   2.418 -0.1134  0.0663 -0.6251
  829MOL0     N11832   4.915   1.363   2.417  0.8560  0.1053  1.0625
  829MOL0     C11833   5.273   1.087   2.749  0.5965  0.4025  0.3422
  829MOL0     C11834   5.284   1.198   2.842 -0.5753 -0.1455 -0.1556
  829MOL0     C11835   5.332   1.467   3.161  0.1139  0.1581  0.2845
  829MOL0     C11836   5.462   1.503   3.193 -0.6775  0.0982 -0.5249
  829MOL0     C11837   5.486   1.633   3.250  0.1608  0.9068 -0.6750
  829MOL0     C11838   5.389   1.731   3.274  0.0246  0.6907 -2.0087
  829MOL0     O11839   5.434   1.856   3.314  0.3638  0.7173  0.1119
  829MOL0     C11840   5.363   1.971   3.281  0.9035 -0.1885  0.4321
  829MOL0     C11841   5.344   2.069   3.394  0.1213 -0.0245  0.0613
  829MOL0     C11842   5.257   2.000   3.499 -1.6418  0.1665  0.3241
  829MOL0     C11843   5.240   2.085   3.626  0.2783 -0.5399  0.8435
  829MOL0     C11844   5.165   2.211   3.614 -0.2821  0.9624 -0.2697
  829MOL0     C11845   5.101   2.314   3.598  0.4334  0.0354 -0.4167
  829MOL0     C11846   5.260   1.695   3.243 -0.6303 -0.0361  0.5739
  829MOL0     C11847   5.235   1.567   3.185 -0.2944 -0.7028  0.7485
  829MOL0     H11848   5.555   1.068   3.007 -0.5848  1.4549  2.0546
  829MOL0     H11849   5.535   0.899   2.824 -1.0151 -0.4473 -0.2453
  829MOL0     H11850   5.283   0.943   2.496  1.1331 -0.1788 -0.4064
  829MOL0     H11851   5.292   0.769   2.473 -0.7467  2.0983 -2.2628
  829MOL0     H11852   5.116   0.718   2.627 -2.0798  1.2192  0.7731
  829MOL0     H11853   5.124   0.871   2.700  1.8968 -0.9340  0.9216
  829MOL0     H11854   5.062   0.981   2.475 -0.4349 -0.0111 -0.4413
  829MOL0     H11855   5.036   0.824   2.408  2.8104 -0.0147  0.3645
  829MOL0     H11856   4.873   0.782   2.605  3.1305 -1.7048 -0.9745
  829MOL0     H11857   4.896   0.953   2.653 -3.7028 -0.9245  0.2925
  829MOL0     H11858   4.793   0.857   2.387  1.6594  0.6226 -1.2626
  829MOL0     H11859   4.686   0.906   2.523  0.4232 -1.7758 -0.0659
  829MOL0     H11860   4.676   1.114   2.423  0.2119 -0.3129 -5.9613
  829MOL0     H11861   4.845   1.134   2.482 -0.7331 -0.9026  1.9719
  829MOL0     H11862   4.920   1.061   2.255 -0.6175 -1.5046  0.9629
  829MOL0     H11863   4.749   1.029   2.212  1.7453 -2.2132  0.4156
  829MOL0     H11864   4.685   1.264   2.212 -0.5723 -2.1583  0.5135
  829MOL0     H11865   4.819   1.246   2.114 -0.0096  0.9083 -0.5396
  829MOL0     H11866   4.902   1.461   2.103 -1.9356 -1.4234  0.3966
  829MOL0     H11867   5.127   1.640   2.177 -1.6991 -0.6272 -2.0014
  829MOL0     H11868   4.976   1.730   2.212 -0.3004  0.3132  0.8722
  829MOL0     H11869   5.077   1.727   2.472 -0.7044  0.3154 -0.4341
  829MOL0     H11870   5.093   1.859   2.357 -2.0023 -0.1488  2.7547
  829MOL0     H11871   5.316   1.822   2.412 -0.9769 -0.5138  2.3097
  829MOL0     H11872   5.300   1.743   2.258  0.2620 -0.5285  0.8179
  829MOL0     H11873   5.235   1.525   2.380 -1.3507  1.7956 -2.1277
  829MOL0     H11874   5.278   1.612   2.532  0.0356 -2.1133 -0.1648
  829MOL0     H11875   5.429   1.497   2.652 -1.6115  1.1207 -3.9498
  829MOL0     H11876   5.671   1.469   2.914  0.0967  0.3235  0.3753
  829MOL0     H11877   5.576   1.613   2.919  1.3150  0.4863 -0.5931
  829MOL0     H11878   5.502   1.461   2.872  0.9217 -1.5511 -1.7019
  829MOL0     H11879   5.869   1.657   3.152  0.2326 -0.4150 -0.4644
  829MOL0     H11880   6.035   1.752   3.283  2.2130  0.8394  0.9395
  829MOL0     H11881   6.200   1.915   3.322  0.7273 -0.0212 -0.1990
  829MOL0     H11882   6.276   1.779   3.405  1.4653  0.3842  1.3405
  829MOL0     H11883   6.508   1.904   3.301  2.3506  5.5447  0.4327
  829MOL0     H11884   6.403   2.018   3.255 -2.9411 -2.6830 -1.2216
  829MOL0     H11885   6.542   2.062   3.461  0.1935  0.6033 -0.6024
  829MOL0     H11886   6.485   1.910   3.525 -2.7534  0.2720  0.3568
  829MOL0     H11887   6.322   2.166   3.477  2.0080  0.1741 -1.2706
  829MOL0     H11888   6.249   2.012   3.527  0.6246 -0.9012 -1.1897
  829MOL0     H11889   6.487   2.105   3.687  0.6574 -1.0488 -0.7139
  829MOL0     H11890   6.363   1.988   3.723 -4.4580  0.9654  0.5164
  829MOL0     H11891   6.358   2.291   3.714  1.8339 -1.2362 -1.6464
  829MOL0     H11892   6.213   2.221   3.695  0.7910  0.3297 -0.5395
  829MOL0     H11893   6.414   2.166   3.921 -0.6748  1.0749  1.7327
  829MOL0     H11894   6.259   2.076   3.909  0.4639  0.5380  2.3432
  829MOL0     H11895   6.274   2.387   3.926 -3.8981  2.6876 -2.0534
  829MOL0     H11896   6.239   2.280   4.060 -0.4352 -1.1617  0.5673
  829MOL0     H11897   6.316   1.716   2.960  0.3078  1.7604  0.0728
  829MOL0     H11898   6.129   1.641   2.814 -1.0491  0.3194  0.6926
  829MOL0     H11899   5.829   1.760   2.520 -0.8755  1.6883  0.2370
  829MOL0     H11900   5.643   1.715   2.356 -0.3596 -0.1415 -0.8022
  829MOL0     H11901   5.196   1.090   2.672 -1.2455 -0.8415  2.0302
  829MOL0     H11902   5.210   1.277   2.839 -1.7511 -1.1908  0.2334
  829MOL0     H11903   5.548   1.443   3.166 -0.1433  1.0581 -1.0137
  829MOL0     H11904   5.586   1.670   3.271 -0.0804  0.4344  1.5490
  829MOL0     H11905   5.413   2.027   3.201 -1.0719  1.7602  0.4577
  829MOL0     H11906   5.262   1.955   3.242  0.9265  2.0703 -0.7162
  829MOL0     H11907   5.285   2.157   3.366 -0.1166  0.9849  3.3997
  829MOL0     H11908   5.442   2.104   3.430 -0.3009 -0.5849  1.8340
  829MOL0     H11909   5.305   1.909   3.537 -3.4187 -0.2768  1.6022
  829MOL0     H11910   5.166   1.971   3.445 -1.6522  0.3046  0.2667
  829MOL0     H11911   5.337   2.113   3.667 -0.2329 -0.3592  1.9772
  829MOL0     H11912   5.202   2.024   3.709  0.5760 -0.0362  1.3629
  829MOL0     H11913   5.071   2.417   3.605 -0.4223  0.0675 -3.1636
  829MOL0     H11914   5.176   1.762   3.255 -0.4251  0.4599 -0.6202
  829MOL0     H11915   5.134   1.539   3.157 -0.5025 -1.3505  2.0593
  830MOL0     O11916   9.708   5.080   7.282  0.1432  0.1180  0.6972
  830MOL0     C11917   9.604   5.069   7.217 -0.4600 -0.3448 -0.1318
  830MOL0     O11918   9.516   5.168   7.185 -0.5370 -0.0022  0.2739
  830MOL0     C11919   9.563   5.299   7.174 -1.0084  0.3092  0.5579
  830MOL0     C11920   9.535   5.407   7.264 -0.0718  0.6901  0.3198
  830MOL0     C11921   9.610   5.531   7.268  1.2371  0.1891 -0.2947
  830MOL0     C11922   9.693   5.559   7.162  0.2768 -0.1583  0.9991
  830MOL0     O11923   9.758   5.680   7.132  0.1967 -0.1432 -0.4143
  830MOL0     C11924   9.711   5.802   7.199  0.0353 -0.4189  0.4723
  830MOL0     C11925   9.574   5.851   7.159  0.5199  0.0982  0.1982
  830MOL0     C11926   9.517   5.932   7.274  0.4576  0.0013  0.0162
  830MOL0     C11927   9.463   5.854   7.391  0.1122  0.1969 -1.1769
  830MOL0     C11928   9.364   5.935   7.477 -0.2641 -0.5689  0.0572
  830MOL0     C11929   9.305   5.858   7.593 -0.2593 -0.1383 -0.1347
  830MOL0     C11930   9.198   5.755   7.552 -0.7657 -0.2953  0.3805
  830MOL0     C11931   9.131   5.685   7.659  0.0824 -0.5543 -0.5001
  830MOL0     N11932   9.072   5.563   7.618 -0.3764 -0.0375  0.8357
  830MOL0     C11933   8.943   5.527   7.629 -0.1915 -0.2804 -0.2739
  830MOL0     C11934   8.935   5.400   7.586 -0.1481  0.0457 -0.1205
  830MOL0     C11935   8.812   5.321   7.588  0.2571  0.4095 -0.8535
  830MOL0     C11936   8.816   5.224   7.716  0.2288  0.0391 -0.1856
  830MOL0     C11937   8.927   5.118   7.695 -0.5473  0.0969  0.1271
  830MOL0     C11938   8.896   5.007   7.793 -0.0828 -0.5550  0.1085
  830MOL0     O11939   8.896   5.051   7.929  0.6981  0.6754 -0.2508
  830MOL0     C11940   8.846   4.962   8.026 -0.2982 -0.9880 -0.9592
  830MOL0     C11941   8.830   5.020   8.154 -0.2797 -0.0684  0.1055
  830MOL0     C11942   8.788   4.956   8.271 -0.5089  0.5776  0.2283
  830MOL0     C11943   8.764   5.011   8.407 -0.9327 -0.5739 -0.3700
  830MOL0     C11944   8.764   4.813   8.250  0.1066 -0.2324  0.6848
  830MOL0     C11945   8.711   4.723   8.355 -0.3736 -0.2636  0.9476
  830MOL0     O11946   8.753   4.602   8.363 -0.5792  0.2097 -0.2991
  830MOL0     C11947   8.672   4.506   8.411 -1.1032 -0.5129  0.7834
  830MOL0     C11948   8.657   4.471   8.543 -0.3819  0.4879 -0.2148
  830MOL0     C11949   8.578   4.358   8.577 -0.8257 -0.4137 -0.6985
  830MOL0     C11950   8.536   4.262   8.487  0.7624 -0.6324  0.3341
  830MOL0     O11951   8.468   4.147   8.523 -0.4647 -0.3285 -0.8826
  830MOL0     C11952   8.477   4.040   8.433 -0.6832  0.6411 -0.4219
  830MOL0     C11953   8.405   3.918   8.496  0.2861  1.0301  0.2353
  830MOL0     C11954   8.431   3.788   8.403 -0.3045  0.6967  0.8142
  830MOL0     C11955   8.374   3.673   8.491 -0.2020  0.9585  0.0443
  830MOL0     C11956   8.388   3.535   8.419 -0.2532  0.5496  0.0036
  830MOL0     C11957   8.524   3.473   8.438  0.6867 -0.1363 -0.2863
  830MOL0     C11958   8.531   3.343   8.365  0.4705  0.5253 -0.3421
  830MOL0     C11959   8.673   3.273   8.381 -0.3250 -0.1555 -0.2718
  830MOL0    Cl11960   8.810   3.372   8.308  0.0676 -0.3546  0.1060
  830MOL0     C11961   8.562   4.296   8.352 -0.5721 -0.2097 -0.4965
  830MOL0     C11962   8.639   4.410   8.307  0.0423  0.5289  0.9064
  830MOL0     O11963   8.620   4.769   8.430  0.2802 -0.6580 -0.1479
  830MOL0     C11964   8.788   4.750   8.124 -0.2977  0.6590  0.0254
  830MOL0     C11965   8.819   4.826   8.016 -0.1819 -0.2164 -0.2763
  830MOL0     N11966   9.053   5.376   7.525  0.1462 -0.5972  0.1754
  830MOL0     N11967   9.139   5.470   7.548 -0.6165  0.1594  0.2502
  830MOL0     C11968   9.712   5.457   7.069 -0.4376  0.4808  1.6152
  830MOL0     C11969   9.653   5.329   7.070  0.8633  0.1626  0.1474
  830MOL0     C11970   9.562   4.925   7.186 -1.0943 -0.7980  0.0840
  830MOL0     C11971   9.607   4.821   7.267  0.3313 -0.3951  0.8095
  830MOL0     C11972   9.547   4.695   7.246  0.1346 -0.2711  0.4323
  830MOL0     C11973   9.459   4.674   7.134 -0.2379 -0.0525 -1.0312
  830MOL0     O11974   9.422   4.543   7.106  0.7719  0.2982  0.0557
  830MOL0     C11975   9.535   4.450   7.090  0.0500  0.0178 -0.2401
  830MOL0     C11976   9.542   4.325   7.168 -0.5633 -1.0053  1.0492
  830MOL0     C11977   9.669   4.246   7.144  0.4999 -0.4974  0.8611
  830MOL0     C11978   9.763   4.241   7.266 -0.0622  0.5763 -0.0689
  830MOL0     C11979   9.834   4.363   7.291 -0.5309 -0.1767 -0.8191
  830MOL0     C11980   9.879   4.470   7.314  0.7123 -0.0292  0.0874
  830MOL0     C11981   9.430   4.778   7.049  0.5771  1.1284  0.3572
  830MOL0     C11982   9.477   4.911   7.073  0.2937  0.3046 -0.9673
  830MOL0     H11983   9.466   5.383   7.344 -3.7420  2.3887 -2.0602
  830MOL0     H11984   9.578   5.596   7.348  0.2148 -1.3041  0.5596
  830MOL0     H11985   9.704   5.762   7.301 -1.1015  0.0363  0.5906
  830MOL0     H11986   9.786   5.881   7.190  2.1401 -2.1732  1.7364
  830MOL0     H11987   9.583   5.905   7.064 -1.2984  1.2711  0.6273
  830MOL0     H11988   9.509   5.764   7.141  0.6523 -0.5027  2.3629
  830MOL0     H11989   9.598   5.997   7.308  1.0636 -1.4296  1.4515
  830MOL0     H11990   9.430   5.987   7.235 -1.5274 -0.3120  3.5489
  830MOL0     H11991   9.413   5.766   7.349  1.4266 -2.6157  2.5103
  830MOL0     H11992   9.549   5.818   7.448  0.1316  1.6151 -0.2673
  830MOL0     H11993   9.428   6.014   7.518  0.7623 -1.1786 -0.3196
  830MOL0     H11994   9.281   5.974   7.418 -0.5486 -0.9255  0.2156
  830MOL0     H11995   9.382   5.807   7.651  0.9906  0.4441 -1.2427
  830MOL0     H11996   9.260   5.927   7.665 -2.1944 -3.3003  1.9545
  830MOL0     H11997   9.127   5.802   7.483  0.8831  1.8686  0.0487
  830MOL0     H11998   9.247   5.682   7.488  0.1413  0.1469  0.5585
  830MOL0     H11999   9.058   5.742   7.717  0.9487 -1.1549  1.2299
  830MOL0     H12000   9.202   5.655   7.735 -2.5569 -1.9929  1.5645
  830MOL0     H12001   8.870   5.595   7.670  1.1284  0.7359  0.4659
  830MOL0     H12002   8.719   5.376   7.601 -0.2948 -0.3124 -1.5703
  830MOL0     H12003   8.808   5.268   7.492  0.3348 -1.0824 -0.0769
  830MOL0     H12004   8.721   5.171   7.704  1.2530 -1.5276 -2.1138
  830MOL0     H12005   8.835   5.286   7.804  0.3428 -1.7507  1.1307
  830MOL0     H12006   9.016   5.177   7.720 -0.2404 -0.9691  1.7190
  830MOL0     H12007   8.937   5.079   7.594  0.0121  0.6644 -0.0391
  830MOL0     H12008   8.960   4.920   7.779 -2.6075 -2.1566 -2.8996
  830MOL0     H12009   8.799   4.972   7.756 -0.3075 -0.1380  0.3023
  830MOL0     H12010   8.846   5.127   8.154 -2.1262  0.2375  0.4599
  830MOL0     H12011   8.656   5.026   8.416 -0.7953  1.1380 -1.0863
  830MOL0     H12012   8.806   4.954   8.490 -1.3394  0.0551  0.2767
  830MOL0     H12013   8.823   5.104   8.405 -1.3876 -0.2875 -1.1795
  830MOL0     H12014   8.694   4.539   8.620 -3.0542  2.7694 -0.7881
  830MOL0     H12015   8.575   4.337   8.683  0.2777 -0.6155 -0.6888
  830MOL0     H12016   8.428   4.067   8.340  1.1671  1.6845 -1.1537
  830MOL0     H12017   8.584   4.018   8.420 -0.3549  1.1710  1.0953
  830MOL0     H12018   8.443   3.899   8.597 -3.5544  2.7186  2.2045
  830MOL0     H12019   8.298   3.937   8.498  0.3664  1.4943  0.2039
  830MOL0     H12020   8.533   3.767   8.372 -1.0946 -0.9989 -0.8305
  830MOL0     H12021   8.366   3.787   8.315  0.0231 -5.4361  0.2478
  830MOL0     H12022   8.416   3.673   8.592  0.7454  0.9395 -0.3385
  830MOL0     H12023   8.269   3.700   8.506  0.3141  4.7976 -1.9607
  830MOL0     H12024   8.382   3.554   8.311 -0.6787  1.3052  0.1480
  830MOL0     H12025   8.304   3.469   8.443  0.3613  0.1715  1.1552
  830MOL0     H12026   8.606   3.539   8.407 -0.0734  3.4448  4.2439
  830MOL0     H12027   8.544   3.450   8.543  0.5654  0.7180 -0.0682
  830MOL0     H12028   8.509   3.359   8.260  0.2622 -1.2052 -0.5974
  830MOL0     H12029   8.445   3.280   8.389  1.4413 -0.5094  0.5911
  830MOL0     H12030   8.676   3.173   8.337  0.5672  0.0296 -0.6472
  830MOL0     H12031   8.686   3.263   8.490 -0.8748  1.7431  0.0017
  830MOL0     H12032   8.519   4.236   8.272 -0.8067 -1.9741  0.8791
  830MOL0     H12033   8.664   4.433   8.204  2.5491 -2.0484  0.7818
  830MOL0     H12034   8.787   4.643   8.108  1.7601  0.3375  1.6209
  830MOL0     H12035   8.833   4.784   7.917 -0.9322 -2.9717  0.6877
  830MOL0     H12036   9.785   5.484   6.994 -0.2515  0.4314  1.7764
  830MOL0     H12037   9.658   5.253   6.993 -1.1340 -1.0534  1.1331
  830MOL0     H12038   9.670   4.835   7.354  1.2809  1.5036 -0.1318
  830MOL0     H12039   9.576   4.612   7.311 -1.3517 -2.6390 -1.7230
  830MOL0     H12040   9.520   4.414   6.988  0.6611 -1.8954  0.3091
  830MOL0     H12041   9.627   4.509   7.088 -1.2837  2.2648  0.8115
  830MOL0     H12042   9.451   4.270   7.142 -1.1026  1.4406 -2.9916
  830MOL0     H12043   9.530   4.363   7.270  1.7186  0.6168  0.7844
  830MOL0     H12044   9.725   4.274   7.054  0.9375 -0.8958  1.0037
  830MOL0     H12045   9.633   4.142   7.139  0.7830 -0.5885  0.6700
  830MOL0     H12046   9.836   4.159   7.256 -0.8543 -0.1304 -0.1524
  830MOL0     H12047   9.709   4.205   7.355  2.2038  1.1941  1.6673
  830MOL0     H12048   9.931   4.563   7.322  1.3839 -0.3514 -0.3213
  830MOL0     H12049   9.374   4.770   6.957  1.2116  3.1037 -0.2521
  830MOL0     H12050   9.434   5.000   7.028  2.6163  2.8261  1.4619
  831MOL0     O12051   7.185   5.447   0.464 -0.2249  0.0714  0.1566
  831MOL0     C12052   7.190   5.560   0.416  0.3763  0.1589  0.3928
  831MOL0     O12053   7.100   5.666   0.441  0.8109  0.4997 -0.0285
  831MOL0     C12054   6.980   5.630   0.493  0.2759  0.0155  0.0228
  831MOL0     C12055   6.856   5.639   0.425 -0.8040  0.0887  0.5049
  831MOL0     C12056   6.740   5.618   0.492 -0.8741 -0.9041  0.2515
  831MOL0     C12057   6.741   5.586   0.629 -0.1572 -1.1601  0.4286
  831MOL0     O12058   6.627   5.586   0.692 -0.7513 -0.3578  0.8079
  831MOL0     C12059   6.592   5.717   0.736 -0.0061  0.2482 -0.0883
  831MOL0     C12060   6.481   5.726   0.832  0.2960 -0.3764 -0.3280
  831MOL0     C12061   6.356   5.633   0.806 -0.1617  0.2293  0.4509
  831MOL0     C12062   6.279   5.593   0.930 -0.4852 -0.0818 -0.1482
  831MOL0     C12063   6.348   5.536   1.045 -0.1475 -0.7692  0.5970
  831MOL0     C12064   6.454   5.436   1.011 -0.9239  0.3108 -0.1761
  831MOL0     C12065   6.527   5.369   1.129 -0.1469 -0.0840 -0.6660
  831MOL0     C12066   6.561   5.214   1.104  0.0513 -0.5059  0.6807
  831MOL0     N12067   6.627   5.156   1.228 -0.5398  0.3220  0.7278
  831MOL0     C12068   6.622   5.020   1.252 -0.4638  0.4708 -0.6135
  831MOL0     C12069   6.709   5.004   1.360  0.3451 -0.4177  0.5260
  831MOL0     C12070   6.755   4.869   1.405  0.1938  0.4529  0.3353
  831MOL0     C12071   6.906   4.869   1.406  1.0899 -0.4443  0.6335
  831MOL0     C12072   6.978   4.899   1.272  0.1627  0.2358 -0.2665
  831MOL0     C12073   6.984   4.770   1.184  0.8560 -0.1761  0.1617
  831MOL0     O12074   6.844   4.749   1.141  0.8327 -0.4387 -0.2186
  831MOL0     C12075   6.815   4.632   1.080  0.4733  0.4711 -0.7345
  831MOL0     C12076   6.907   4.534   1.031  0.2388  0.8395 -0.7201
  831MOL0     C12077   6.872   4.415   0.965  0.3052 -0.3090  0.6743
  831MOL0     C12078   6.992   4.335   0.923  1.1535 -1.4719 -1.0737
  831MOL0     C12079   6.737   4.390   0.937  0.3421  0.1319  0.1065
  831MOL0     C12080   6.691   4.264   0.878 -0.7918  0.5922  0.1553
  831MOL0     O12081   6.568   4.266   0.813  0.3619  0.2753 -0.5582
  831MOL0     C12082   6.523   4.149   0.755  0.0411  0.0189  0.9274
  831MOL0     C12083   6.428   4.066   0.810 -0.6679 -0.6106 -0.5349
  831MOL0     C12084   6.368   3.958   0.739 -0.9965  0.0209 -0.3036
  831MOL0     C12085   6.427   3.927   0.613 -0.0871  1.1614  0.7558
  831MOL0     O12086   6.389   3.819   0.535  0.3800  0.5259  0.0742
  831MOL0     C12087   6.266   3.753   0.565 -0.3328  0.6363  0.1684
  831MOL0     C12088   6.253   3.637   0.465 -0.3044  0.4050 -1.0635
  831MOL0     C12089   6.336   3.516   0.507  0.4425 -0.0021 -0.0622
  831MOL0     C12090   6.294   3.389   0.430  0.4538 -0.1818 -0.1598
  831MOL0     C12091   6.378   3.258   0.455 -0.5294 -0.4751  1.0141
  831MOL0     C12092   6.332   3.141   0.363 -0.6659 -0.9899 -0.0471
  831MOL0     C12093   6.205   3.078   0.410 -0.1934 -0.1726  0.0419
  831MOL0     C12094   6.147   2.956   0.330  0.1332 -0.7990 -0.4049
  831MOL0    Cl12095   6.272   2.835   0.302 -0.1932 -0.3478  0.3946
  831MOL0     C12096   6.523   4.004   0.554 -0.7646 -0.2788  0.0281
  831MOL0     C12097   6.569   4.115   0.625 -0.3379 -0.4011  0.2961
  831MOL0     O12098   6.753   4.159   0.900  0.2943  0.5636  0.4453
  831MOL0     C12099   6.639   4.487   0.976 -0.2518  0.5349  0.6345
  831MOL0     C12100   6.677   4.602   1.046  0.1612  0.3581 -0.3566
  831MOL0     N12101   6.760   5.128   1.405 -0.5916  0.6995  0.5219
  831MOL0     N12102   6.713   5.212   1.320 -0.6335 -0.0280  0.5737
  831MOL0     C12103   6.865   5.567   0.694 -0.5184  0.0313 -0.6977
  831MOL0     C12104   6.980   5.591   0.628  0.3054 -0.2050  1.5977
  831MOL0     C12105   7.288   5.575   0.302 -0.0923  0.5652 -0.3425
  831MOL0     C12106   7.392   5.477   0.291 -0.7574 -0.0546 -0.5747
  831MOL0     C12107   7.492   5.477   0.194 -0.7541  0.6649  0.1478
  831MOL0     C12108   7.470   5.583   0.091 -1.0518  0.4349 -0.9334
  831MOL0     O12109   7.540   5.585  -0.025 -0.9270 -0.3703 -0.4040
  831MOL0     C12110   7.637   5.486  -0.059  0.2407  1.0036  0.2364
  831MOL0     C12111   7.576   5.373  -0.148 -0.1605  0.3175 -0.1377
  831MOL0     C12112   7.693   5.276  -0.183 -0.3039  0.1618  0.3069
  831MOL0     C12113   7.660   5.144  -0.121 -1.0693 -1.0905 -0.5939
  831MOL0     C12114   7.783   5.055  -0.115 -0.1353 -1.1781  1.1861
  831MOL0     C12115   7.872   4.977  -0.111 -0.7947 -0.1941 -0.1805
  831MOL0     C12116   7.375   5.684   0.111 -0.3255  0.1861 -0.1292
  831MOL0     C12117   7.279   5.678   0.219  0.2186 -0.8494  0.3466
  831MOL0     H12118   6.857   5.659   0.319 -1.9081 -2.1377  0.0103
  831MOL0     H12119   6.651   5.619   0.429 -3.3289 -6.4283  2.9505
  831MOL0     H12120   6.681   5.765   0.777 -0.2743  0.1703  0.6162
  831MOL0     H12121   6.566   5.773   0.646 -1.7038  1.5216  1.0992
  831MOL0     H12122   6.522   5.710   0.932  0.6578 -0.8237 -0.5418
  831MOL0     H12123   6.431   5.823   0.823  3.1284  1.0215 -2.9549
  831MOL0     H12124   6.276   5.661   0.737 -1.0444 -0.5758  1.1214
  831MOL0     H12125   6.399   5.539   0.771  0.2062  0.2855  0.7399
  831MOL0     H12126   6.241   5.691   0.958  1.7236  1.3516 -1.8101
  831MOL0     H12127   6.202   5.521   0.902 -0.1944  0.0219 -1.2673
  831MOL0     H12128   6.388   5.615   1.109 -3.0598  0.0432  1.6207
  831MOL0     H12129   6.281   5.483   1.114  0.9216  0.7721  2.9686
  831MOL0     H12130   6.401   5.366   0.946 -0.2217 -0.6176  0.2456
  831MOL0     H12131   6.532   5.494   0.961  0.0020  2.6642  3.5581
  831MOL0     H12132   6.621   5.424   1.136 -0.1559 -0.2555  2.1686
  831MOL0     H12133   6.472   5.384   1.222  1.1489 -2.4052  0.5840
  831MOL0     H12134   6.611   5.193   1.009  0.5444  2.3156  0.2043
  831MOL0     H12135   6.467   5.159   1.097 -0.7702  0.9359 -0.4559
  831MOL0     H12136   6.568   4.936   1.210 -1.5265 -1.5199  4.0667
  831MOL0     H12137   6.718   4.834   1.502  0.9025  3.1790  1.6998
  831MOL0     H12138   6.721   4.798   1.329 -0.8838  0.8623  0.4132
  831MOL0     H12139   6.928   4.768   1.439 -1.6782 -0.6518  2.1398
  831MOL0     H12140   6.947   4.941   1.477  2.3913 -1.9092  1.3959
  831MOL0     H12141   7.082   4.919   1.300 -0.0397  0.4136  0.3592
  831MOL0     H12142   6.938   4.991   1.228  1.2910  2.2979  2.6740
  831MOL0     H12143   7.026   4.684   1.237  0.4972 -0.2888  0.2667
  831MOL0     H12144   7.048   4.789   1.098  1.7439  0.1036  0.8756
  831MOL0     H12145   7.014   4.551   1.044  0.7151 -0.6531 -2.4246
  831MOL0     H12146   7.078   4.402   0.926 -1.0726  1.5385  1.0280
  831MOL0     H12147   7.010   4.243   0.979 -0.1922 -0.7398  0.6441
  831MOL0     H12148   6.978   4.310   0.817 -0.1032  1.7795 -1.7872
  831MOL0     H12149   6.403   4.089   0.913  1.8201 -0.1659  0.0478
  831MOL0     H12150   6.295   3.888   0.779 -0.8715  0.4177  0.6533
  831MOL0     H12151   6.256   3.713   0.667 -1.9147 -2.2410 -1.0045
  831MOL0     H12152   6.184   3.826   0.567 -0.4194  0.5466 -0.0770
  831MOL0     H12153   6.145   3.622   0.458 -0.3070 -0.6920  0.7522
  831MOL0     H12154   6.284   3.674   0.367 -1.1564  2.4554 -0.6239
  831MOL0     H12155   6.316   3.506   0.614 -4.1639  0.4764 -0.6908
  831MOL0     H12156   6.445   3.530   0.508  0.4225  0.1501  1.2994
  831MOL0     H12157   6.189   3.367   0.450  0.5863  1.2503  2.6137
  831MOL0     H12158   6.299   3.400   0.321  0.4624 -2.7238 -0.4681
  831MOL0     H12159   6.366   3.236   0.561 -1.9353  2.9760  1.7201
  831MOL0     H12160   6.482   3.288   0.436 -1.6368  1.4015 -3.3522
  831MOL0     H12161   6.308   3.181   0.264 -0.0692 -0.5718 -0.0309
  831MOL0     H12162   6.413   3.066   0.356 -0.4492 -1.1131  2.8183
  831MOL0     H12163   6.115   3.141   0.411 -0.9722 -1.1745  2.8999
  831MOL0     H12164   6.219   3.038   0.510 -1.4224 -0.2160  0.2176
  831MOL0     H12165   6.118   2.985   0.228  5.7500 -1.2619 -2.5318
  831MOL0     H12166   6.063   2.918   0.388  1.0031 -0.8991  0.8322
  831MOL0     H12167   6.572   3.985   0.459 -0.5974 -1.2005  0.2867
  831MOL0     H12168   6.658   4.163   0.584  0.8966 -1.0041  2.1332
  831MOL0     H12169   6.533   4.476   0.953  0.4273 -1.6359 -1.9084
  831MOL0     H12170   6.604   4.663   1.097  1.3381  0.7029  0.9828
  831MOL0     H12171   6.862   5.552   0.801 -1.0553 -2.0367 -0.9478
  831MOL0     H12172   7.070   5.576   0.686 -0.0350 -1.0733  1.9232
  831MOL0     H12173   7.415   5.405   0.369  1.0243  1.9617  0.8797
  831MOL0     H12174   7.561   5.395   0.178  1.4780  2.0577  1.9678
  831MOL0     H12175   7.719   5.535  -0.113 -2.1256  2.2676 -2.4386
  831MOL0     H12176   7.697   5.442   0.022  1.6433 -1.0114 -1.7853
  831MOL0     H12177   7.530   5.420  -0.235  0.2818  0.9490 -0.0426
  831MOL0     H12178   7.500   5.322  -0.087  0.9569  0.2213  1.2347
  831MOL0     H12179   7.787   5.315  -0.142 -0.6986  0.3243  1.0792
  831MOL0     H12180   7.699   5.277  -0.292 -0.4294  0.9749  0.3023
  831MOL0     H12181   7.579   5.093  -0.173  0.1281 -0.3206 -3.3867
  831MOL0     H12182   7.635   5.175  -0.019  1.7676 -0.7189  0.0879
  831MOL0     H12183   7.944   4.899  -0.122 -0.6353 -0.2316  1.0414
  831MOL0     H12184   7.369   5.752   0.027 -2.1209 -0.4534 -0.5408
  831MOL0     H12185   7.198   5.750   0.209  1.1866  0.1612 -0.7094
  832MOL0     O12186   0.923   9.700   5.766 -0.2096  0.0793 -0.2444
  832MOL0     C12187   0.887   9.747   5.658  1.4688 -0.1051  0.0190
  832MOL0     O12188   0.753   9.754   5.620 -1.0776 -0.3599 -0.4453
  832MOL0     C12189   0.659   9.711   5.709  0.3878 -0.4593  0.7761
  832MOL0     C12190   0.543   9.657   5.650  0.2186 -1.0862  0.3703
  832MOL0     C12191   0.422   9.622   5.727 -0.4180  0.5977  0.7291
  832MOL0     C12192   0.429   9.629   5.868  0.2239 -0.7203  0.0736
  832MOL0     O12193   0.309   9.587   5.917 -0.0925 -0.0419 -0.5536
  832MOL0     C12194   0.318   9.490   6.019  0.1574 -0.3028 -0.0975
  832MOL0     C12195   0.263   9.543   6.149  0.3582  0.0943  0.1976
  832MOL0     C12196   0.113   9.537   6.165  0.4689  0.3371  0.4304
  832MOL0     C12197   0.058   9.572   6.303 -0.6266  0.3625  0.8934
  832MOL0     C12198  -0.091   9.557   6.334 -0.0516 -0.0497  0.1942
  832MOL0     C12199  -0.121   9.596   6.479 -1.1905 -0.2651 -0.6450
  832MOL0     C12200  -0.270   9.625   6.492 -0.5051  0.2485 -0.7403
  832MOL0     C12201  -0.347   9.499   6.468  0.0101 -0.5658  0.5204
  832MOL0     N12202  -0.486   9.511   6.502  1.0257  0.2972  0.0004
  832MOL0     C12203  -0.580   9.526   6.409 -0.6644 -0.1828 -0.3213
  832MOL0     C12204  -0.696   9.531   6.476  1.0662 -0.0649  0.5106
  832MOL0     C12205  -0.844   9.543   6.434 -0.4540  0.1933  0.4218
  832MOL0     C12206  -0.904   9.401   6.455 -0.7783  0.7692 -0.7362
  832MOL0     C12207  -0.823   9.296   6.381 -0.3052 -0.3300 -0.2944
  832MOL0     C12208  -0.891   9.165   6.358  0.0082 -0.3199  0.3131
  832MOL0     O12209  -0.964   9.184   6.237  0.5056 -0.6346 -0.0448
  832MOL0     C12210  -0.981   9.070   6.167 -0.1991 -0.7329  0.6381
  832MOL0     C12211  -0.951   9.071   6.032  0.2168 -0.0020  0.7444
  832MOL0     C12212  -0.970   8.963   5.947 -0.4283  0.9320  0.4269
  832MOL0     C12213  -0.914   8.974   5.811  0.2232 -1.0124  0.5133
  832MOL0     C12214  -1.033   8.841   6.001 -0.2019 -0.2442  0.0028
  832MOL0     C12215  -1.050   8.721   5.915 -0.1506  0.4259  0.0615
  832MOL0     O12216  -0.955   8.670   5.827  0.3064 -0.0635  0.5429
  832MOL0     C12217  -0.993   8.588   5.723  0.1707  1.1413  0.2691
  832MOL0     C12218  -1.109   8.608   5.646 -0.1331 -0.5094 -0.5942
  832MOL0     C12219  -1.144   8.511   5.555  0.4169 -0.2971  0.4444
  832MOL0     C12220  -1.064   8.404   5.536 -0.4042 -0.0542 -0.3095
  832MOL0     O12221  -1.100   8.301   5.447 -0.4629 -0.5592  0.3654
  832MOL0     C12222  -1.189   8.210   5.515  0.7090 -0.9847 -0.6929
  832MOL0     C12223  -1.227   8.098   5.411 -0.8519  0.4969 -0.5924
  832MOL0     C12224  -1.285   8.153   5.287  0.2445 -0.3268  0.1825
  832MOL0     C12225  -1.388   8.058   5.218 -0.7301  0.3067 -0.0462
  832MOL0     C12226  -1.430   8.126   5.085 -0.0458 -0.0465  0.1525
  832MOL0     C12227  -1.544   8.063   5.006 -0.0131 -0.3415  0.0717
  832MOL0     C12228  -1.595   8.160   4.896 -0.0139 -0.4124  0.6316
  832MOL0     C12229  -1.500   8.196   4.784 -0.3074 -1.2100 -0.8746
  832MOL0    Cl12230  -1.493   8.096   4.644  0.7145 -0.4370 -0.0671
  832MOL0     C12231  -0.937   8.399   5.594 -0.1255 -0.0953 -0.0008
  832MOL0     C12232  -0.902   8.488   5.693 -0.7095 -0.0011 -0.5610
  832MOL0     O12233  -1.161   8.668   5.935 -0.5192 -0.2420  0.4094
  832MOL0     C12234  -1.067   8.843   6.134  0.2621  0.4394 -0.3157
  832MOL0     C12235  -1.042   8.951   6.216 -0.3369 -0.6434  0.4215
  832MOL0     N12236  -0.662   9.532   6.612 -0.0426  0.3690  0.5023
  832MOL0     N12237  -0.532   9.517   6.626  0.1718 -0.0170  0.9156
  832MOL0     C12238   0.535   9.689   5.930  0.1894  0.1093  0.4785
  832MOL0     C12239   0.646   9.734   5.855 -0.1385  0.3463  0.3059
  832MOL0     C12240   0.991   9.808   5.577 -0.0389 -0.0531  0.9086
  832MOL0     C12241   0.966   9.801   5.440 -0.1710 -0.9553  0.2884
  832MOL0     C12242   1.061   9.827   5.344  0.3424 -0.7720  0.6176
  832MOL0     C12243   1.193   9.867   5.376  0.1120  0.0778  1.0233
  832MOL0     O12244   1.301   9.903   5.291  0.0084  0.2192  0.8191
  832MOL0     C12245   1.298   9.841   5.170  0.4571 -0.4994  0.2911
  832MOL0     C12246   1.421   9.903   5.104  0.0225 -0.4962 -0.3904
  832MOL0     C12247   1.555   9.884   5.185  0.6235  1.0618 -0.4947
  832MOL0     C12248   1.672   9.941   5.093  0.1378 -0.0283 -0.2209
  832MOL0     C12249   1.671  10.091   5.079 -0.6246  0.7571  0.5583
  832MOL0     C12250   1.694  10.208   5.089  0.6810 -0.7192 -0.1945
  832MOL0     C12251   1.219   9.880   5.510 -0.2489  0.7462 -0.6263
  832MOL0     C12252   1.124   9.848   5.612  0.1166 -0.9661  0.3529
  832MOL0     H12253   0.553   9.649   5.543 -1.8574 -0.5798  0.0929
  832MOL0     H12254   0.338   9.585   5.669 -0.1247 -1.2408  1.4249
  832MOL0     H12255   0.254   9.405   5.993  2.5883 -2.7926  1.4621
  832MOL0     H12256   0.420   9.451   6.031 -0.1340 -0.5071  2.0766
  832MOL0     H12257   0.309   9.490   6.233  0.4821 -1.6986 -0.9443
  832MOL0     H12258   0.291   9.648   6.161  0.8140 -0.0155  0.1051
  832MOL0     H12259   0.074   9.591   6.078  0.4732 -1.9189 -1.0273
  832MOL0     H12260   0.082   9.433   6.156 -0.6732  0.6294  0.8057
  832MOL0     H12261   0.118   9.509   6.369 -0.5956 -1.4337 -0.7374
  832MOL0     H12262   0.081   9.679   6.307 -3.9562  1.3413 -1.6914
  832MOL0     H12263  -0.156   9.610   6.265  0.7672  4.0705  2.2533
  832MOL0     H12264  -0.110   9.451   6.317 -1.7573  0.4509 -1.2848
  832MOL0     H12265  -0.084   9.519   6.547  0.0240  0.2768 -0.6703
  832MOL0     H12266  -0.070   9.688   6.508 -2.6802  1.6197 -3.5107
  832MOL0     H12267  -0.293   9.652   6.595  2.0412  1.3318 -0.3724
  832MOL0     H12268  -0.300   9.708   6.428 -1.1987  0.4362 -0.1781
  832MOL0     H12269  -0.296   9.434   6.539 -0.9477  0.2087  1.9710
  832MOL0     H12270  -0.333   9.454   6.369  0.9618  0.8756 -0.0239
  832MOL0     H12271  -0.559   9.535   6.303  1.5207  0.1331  0.0729
  832MOL0     H12272  -0.893   9.617   6.497  2.4022  2.4233  0.2534
  832MOL0     H12273  -0.870   9.585   6.336  1.6939  1.2117  0.2146
  832MOL0     H12274  -1.005   9.386   6.417 -0.4229 -2.7354 -0.6013
  832MOL0     H12275  -0.901   9.375   6.561  2.7243 -0.5945 -1.0142
  832MOL0     H12276  -0.748   9.263   6.453 -1.7515 -1.2073  0.8754
  832MOL0     H12277  -0.781   9.335   6.287 -0.5159 -3.2492 -1.7149
  832MOL0     H12278  -0.962   9.145   6.439 -0.1914 -0.0922  0.1959
  832MOL0     H12279  -0.824   9.079   6.353  1.7115  0.8545  1.4545
  832MOL0     H12280  -0.897   9.155   5.988  0.5049 -0.4680  0.1922
  832MOL0     H12281  -0.814   8.931   5.808  0.7245  0.1646 -1.5905
  832MOL0     H12282  -0.976   8.916   5.742 -0.6667  0.9452 -0.4229
  832MOL0     H12283  -0.912   9.079   5.778 -0.2269 -0.9494  0.6764
  832MOL0     H12284  -1.178   8.691   5.656  1.3247  0.8147 -1.0896
  832MOL0     H12285  -1.238   8.515   5.500  0.5499 -0.3040  0.2167
  832MOL0     H12286  -1.140   8.160   5.600 -1.7841 -1.0166  0.8321
  832MOL0     H12287  -1.280   8.261   5.550  1.0637 -1.9720  1.9047
  832MOL0     H12288  -1.134   8.043   5.394 -1.1817 -0.0825 -0.5300
  832MOL0     H12289  -1.295   8.029   5.462 -0.8273  0.0791 -1.1204
  832MOL0     H12290  -1.204   8.180   5.219 -1.0744  1.9726 -0.5873
  832MOL0     H12291  -1.323   8.254   5.308  5.3746  1.4290  2.5792
  832MOL0     H12292  -1.340   7.964   5.191 -2.9721  0.0071 -3.6640
  832MOL0     H12293  -1.470   8.025   5.282  1.7134 -2.3283  1.9720
  832MOL0     H12294  -1.349   8.144   5.013  1.5002  3.3428  2.4611
  832MOL0     H12295  -1.466   8.225   5.117  2.0004  0.5920  0.6305
  832MOL0     H12296  -1.519   7.967   4.960  0.9702 -0.9517  1.8130
  832MOL0     H12297  -1.621   8.048   5.082  3.8919 -0.1005  4.4945
  832MOL0     H12298  -1.623   8.254   4.945 -0.6052  0.3632 -1.1140
  832MOL0     H12299  -1.688   8.124   4.851  0.9097 -2.8152  0.4956
  832MOL0     H12300  -1.397   8.195   4.821  0.0614 -1.7824 -1.8822
  832MOL0     H12301  -1.543   8.293   4.755 -1.2456 -0.3161  2.9442
  832MOL0     H12302  -0.879   8.310   5.570 -3.6444 -3.2677  2.1391
  832MOL0     H12303  -0.815   8.486   5.758 -1.1031  1.2917  0.0211
  832MOL0     H12304  -1.120   8.758   6.177 -1.9757  0.0169 -3.5768
  832MOL0     H12305  -1.059   8.940   6.322  0.3210 -2.4245  0.3917
  832MOL0     H12306   0.525   9.714   6.036 -0.7057  1.0303  0.2015
  832MOL0     H12307   0.729   9.786   5.903  1.5993 -0.5118 -1.6194
  832MOL0     H12308   0.867   9.770   5.406  1.4072 -2.0937 -3.9859
  832MOL0     H12309   1.033   9.830   5.240 -1.1280  0.2347  1.0182
  832MOL0     H12310   1.301   9.734   5.191 -2.3025 -0.7934 -0.3891
  832MOL0     H12311   1.208   9.868   5.114 -0.5488 -0.0520  2.0717
  832MOL0     H12312   1.420  10.012   5.100 -1.1771 -0.2981  2.5625
  832MOL0     H12313   1.421   9.867   5.001  2.7691  1.0504 -1.0217
  832MOL0     H12314   1.579   9.781   5.210  0.1231  0.6162 -1.7776
  832MOL0     H12315   1.556   9.939   5.280  0.1461  1.5337 -0.7585
  832MOL0     H12316   1.651   9.902   4.993 -1.3374 -1.6078  0.6531
  832MOL0     H12317   1.771   9.901   5.116 -0.8594 -1.6975  1.3892
  832MOL0     H12318   1.704  10.313   5.109 -2.9327  0.4308 -3.2517
  832MOL0     H12319   1.321   9.912   5.529 -0.4977  1.6937 -0.8506
  832MOL0     H12320   1.145   9.855   5.718 -4.3443  1.1956  1.3445
  833MOL0     O12321   4.757   5.242   1.198 -0.4439  0.0835  0.2062
  833MOL0     C12322   4.860   5.313   1.174  0.1434 -0.0461  0.4351
  833MOL0     O12323   4.995   5.274   1.190 -0.2371 -0.7005  0.0485
  833MOL0     C12324   5.031   5.155   1.239  0.5586 -0.2564 -0.6698
  833MOL0     C12325   5.148   5.157   1.324 -0.0685 -0.2012  0.3039
  833MOL0     C12326   5.193   5.036   1.386 -1.4969  1.3439 -0.3151
  833MOL0     C12327   5.123   4.913   1.360  0.3459 -0.0461 -0.4596
  833MOL0     O12328   5.154   4.791   1.408 -0.5718  0.2688  0.9675
  833MOL0     C12329   5.291   4.759   1.412  0.2650 -0.6996 -0.3901
  833MOL0     C12330   5.310   4.609   1.421  0.0508  0.0290 -0.4192
  833MOL0     C12331   5.412   4.573   1.532  0.4152  0.7675  0.1698
  833MOL0     C12332   5.476   4.427   1.521  0.4492  0.7452  0.2466
  833MOL0     C12333   5.369   4.315   1.511 -0.2361  0.1263  0.7295
  833MOL0     C12334   5.427   4.184   1.456 -0.5300  0.5482 -0.4753
  833MOL0     C12335   5.414   4.202   1.295  0.8666  1.1225 -0.3081
  833MOL0     C12336   5.437   4.067   1.214  0.0814  0.3419 -0.2132
  833MOL0     N12337   5.569   4.016   1.247 -0.0554 -0.0345 -0.6019
  833MOL0     C12338   5.697   4.078   1.230  1.4272  0.6853  0.3418
  833MOL0     C12339   5.793   3.990   1.273  0.1601  0.4131  0.0844
  833MOL0     C12340   5.942   4.005   1.256  0.1228  0.2353 -0.4145
  833MOL0     C12341   5.979   4.054   1.112 -0.1113  0.9056 -0.1061
  833MOL0     C12342   6.135   4.076   1.083 -0.2713 -0.3326 -0.0747
  833MOL0     C12343   6.210   4.149   1.196 -0.1866  0.0581  0.7529
  833MOL0     O12344   6.333   4.217   1.177  0.3246 -0.1890  0.4550
  833MOL0     C12345   6.316   4.348   1.157 -0.7928  0.0035  0.1640
  833MOL0     C12346   6.213   4.409   1.078 -0.2499 -0.4620  0.0807
  833MOL0     C12347   6.201   4.550   1.071  0.2868  0.4870  0.1621
  833MOL0     C12348   6.104   4.612   0.970  1.1066  0.6712  0.6490
  833MOL0     C12349   6.284   4.640   1.152 -0.5408  1.4945 -0.6628
  833MOL0     C12350   6.268   4.792   1.143  1.1061  0.6853 -0.4679
  833MOL0     O12351   6.134   4.835   1.126 -1.0647  0.3038  0.5104
  833MOL0     C12352   6.096   4.964   1.119  0.0520  0.2567 -0.2273
  833MOL0     C12353   6.148   5.072   1.193 -0.7989  0.4420  0.2051
  833MOL0     C12354   6.100   5.200   1.192 -0.6825 -0.0708  0.3376
  833MOL0     C12355   5.999   5.235   1.104  0.2832 -0.8037  0.4979
  833MOL0     O12356   5.976   5.369   1.081 -0.1314  0.2844  0.0803
  833MOL0     C12357   5.879   5.412   0.979  0.1715 -0.2025 -0.1831
  833MOL0     C12358   5.876   5.569   0.976  0.4073 -0.3711 -0.0590
  833MOL0     C12359   5.806   5.620   1.105  0.8311  1.0766 -0.1011
  833MOL0     C12360   5.820   5.776   1.098 -0.4251  0.8532 -0.0472
  833MOL0     C12361   5.741   5.831   1.210 -0.4231 -0.0602 -0.2263
  833MOL0     C12362   5.761   5.986   1.219  0.1424 -0.8837 -0.8066
  833MOL0     C12363   5.698   6.044   1.349  0.3190  0.6135 -0.5827
  833MOL0     C12364   5.737   6.188   1.363 -0.3324 -0.9284  0.1361
  833MOL0    Cl12365   5.626   6.299   1.280  0.1874  0.2409 -0.0340
  833MOL0     C12366   5.938   5.130   1.035  1.6506  1.0954 -0.7206
  833MOL0     C12367   5.986   4.991   1.043  0.0881 -0.8319 -0.7437
  833MOL0     O12368   6.362   4.865   1.141 -0.0202 -0.3627  0.4611
  833MOL0     C12369   6.384   4.573   1.238 -0.2352  0.5123 -0.1840
  833MOL0     C12370   6.381   4.430   1.242 -0.0827  0.3157 -0.1921
  833MOL0     N12371   5.728   3.875   1.311 -0.2420  0.8765  0.2998
  833MOL0     N12372   5.602   3.896   1.300  0.1073  0.2656  0.7247
  833MOL0     C12373   5.015   4.917   1.274  0.3376  0.0507  0.6437
  833MOL0     C12374   4.965   5.035   1.217 -0.1025  0.3715  0.9245
  833MOL0     C12375   4.845   5.447   1.121  0.1740 -0.7205  0.4392
  833MOL0     C12376   4.925   5.558   1.159  0.5528  0.7158  1.1985
  833MOL0     C12377   4.903   5.685   1.106  0.0485 -0.1601 -0.3294
  833MOL0     C12378   4.801   5.713   1.015 -0.8882 -0.1076 -0.9610
  833MOL0     O12379   4.797   5.841   0.968 -0.1504  0.4587 -0.0448
  833MOL0     C12380   4.703   5.863   0.861 -0.7038  0.1376 -0.8506
  833MOL0     C12381   4.751   5.993   0.801  0.3457  0.1823 -0.0335
  833MOL0     C12382   4.661   6.042   0.682 -0.7689  0.4950  0.5164
  833MOL0     C12383   4.684   5.966   0.551 -0.2353  0.2331  0.9081
  833MOL0     C12384   4.652   6.057   0.432  1.2957 -0.2531 -0.0471
  833MOL0     C12385   4.636   6.145   0.347  0.0821  0.0252 -0.1929
  833MOL0     C12386   4.730   5.595   0.967 -0.4677  0.0183 -0.7029
  833MOL0     C12387   4.740   5.463   1.021  0.7861 -0.2854 -0.6184
  833MOL0     H12388   5.192   5.255   1.337 -0.4052  0.0964 -0.6791
  833MOL0     H12389   5.281   5.021   1.448 -2.1093  2.3922  0.8517
  833MOL0     H12390   5.344   4.785   1.320  1.0350  1.1856  0.5256
  833MOL0     H12391   5.329   4.805   1.504 -3.5808  0.8920  0.6103
  833MOL0     H12392   5.216   4.555   1.440  0.4954 -1.1703 -1.4136
  833MOL0     H12393   5.329   4.565   1.322 -1.1499 -2.2610  0.2901
  833MOL0     H12394   5.494   4.645   1.528  2.0197 -1.0183 -2.3755
  833MOL0     H12395   5.370   4.568   1.633 -1.8142 -2.5671 -0.7547
  833MOL0     H12396   5.531   4.408   1.429  0.2735 -0.9817  0.4714
  833MOL0     H12397   5.537   4.409   1.610  0.9612  0.7063 -0.1057
  833MOL0     H12398   5.323   4.296   1.608 -0.8886 -0.8983  0.2497
  833MOL0     H12399   5.285   4.349   1.449 -0.7275  1.5708  2.1330
  833MOL0     H12400   5.529   4.159   1.485 -0.0331  1.0974 -1.6944
  833MOL0     H12401   5.365   4.097   1.479  0.4472 -0.4047 -1.3104
  833MOL0     H12402   5.310   4.227   1.271 -0.5445 -1.9593  1.9345
  833MOL0     H12403   5.482   4.277   1.253  1.0222 -0.4836 -3.2231
  833MOL0     H12404   5.448   4.071   1.106 -0.3843 -1.8333 -0.3666
  833MOL0     H12405   5.357   3.998   1.242 -0.3388  1.3831  1.3290
  833MOL0     H12406   5.708   4.178   1.190 -0.4347  0.8815  0.2099
  833MOL0     H12407   5.970   4.069   1.340 -0.6763 -0.1334  0.1577
  833MOL0     H12408   5.989   3.907   1.268 -0.2275 -0.0618 -1.3983
  833MOL0     H12409   5.919   4.144   1.095 -2.1141  0.0246  1.7968
  833MOL0     H12410   5.945   3.966   1.056  0.1704 -0.6828  2.0756
  833MOL0     H12411   6.140   4.145   0.998  0.3252  0.4751  0.5929
  833MOL0     H12412   6.185   3.981   1.061  0.3119  0.1089 -0.6662
  833MOL0     H12413   6.243   4.068   1.262  2.5587 -1.8358 -2.6465
  833MOL0     H12414   6.142   4.205   1.261 -0.3185 -0.7616  1.3443
  833MOL0     H12415   6.146   4.351   1.015 -0.9702 -0.7104  1.0544
  833MOL0     H12416   6.083   4.540   0.891 -2.0513 -0.6918  2.5447
  833MOL0     H12417   6.012   4.616   1.028 -0.0169  0.0018 -1.0338
  833MOL0     H12418   6.136   4.709   0.931 -0.9770  1.6974  1.4031
  833MOL0     H12419   6.236   5.060   1.255 -0.9440  2.3851  0.8394
  833MOL0     H12420   6.134   5.283   1.253  0.9681 -1.6156  1.6292
  833MOL0     H12421   5.909   5.353   0.892  0.2363 -3.3326  1.8063
  833MOL0     H12422   5.778   5.373   0.996  1.3553 -2.0135  3.7794
  833MOL0     H12423   5.974   5.617   0.969  1.1420 -1.7659  0.3239
  833MOL0     H12424   5.821   5.600   0.886  1.1782 -2.8959 -1.4933
  833MOL0     H12425   5.827   5.580   1.204 -1.7551  1.0085  0.4926
  833MOL0     H12426   5.703   5.583   1.097  1.2802 -1.3365  3.1723
  833MOL0     H12427   5.926   5.797   1.119 -0.5848  1.0973  0.5623
  833MOL0     H12428   5.788   5.814   1.001 -0.8521 -0.3860 -0.3943
  833MOL0     H12429   5.775   5.788   1.305 -0.8329 -0.1583 -0.1191
  833MOL0     H12430   5.635   5.802   1.214 -0.4493 -0.0100 -0.5485
  833MOL0     H12431   5.868   6.006   1.210  0.1574 -0.7680 -0.3882
  833MOL0     H12432   5.727   6.038   1.129  0.4131  1.4059  0.3590
  833MOL0     H12433   5.740   5.983   1.430  1.9101  0.7798 -1.2392
  833MOL0     H12434   5.589   6.039   1.353  0.2110  2.6617  1.7683
  833MOL0     H12435   5.834   6.204   1.315 -0.5554 -1.1716 -0.3954
  833MOL0     H12436   5.754   6.228   1.464  1.2248  1.4322 -0.9723
  833MOL0     H12437   5.860   5.139   0.960 -1.7088 -0.7289  2.2420
  833MOL0     H12438   5.940   4.910   0.987  0.1456 -0.1842 -1.7637
  833MOL0     H12439   6.454   4.626   1.302 -0.4191 -0.5148  0.9208
  833MOL0     H12440   6.454   4.394   1.315 -0.8373  0.6138  0.7216
  833MOL0     H12441   4.959   4.827   1.252 -0.4549  0.9500 -1.3189
  833MOL0     H12442   4.874   5.020   1.160  1.9251 -4.4400 -1.5873
  833MOL0     H12443   4.995   5.537   1.239 -0.6179  0.2446  2.1232
  833MOL0     H12444   4.958   5.773   1.138 -1.0163  0.0884  0.8994
  833MOL0     H12445   4.706   5.784   0.786  2.4558 -3.3125  2.4328
  833MOL0     H12446   4.602   5.864   0.903 -0.5082  1.0543 -0.3716
  833MOL0     H12447   4.851   5.961   0.770 -0.4622 -1.7978 -0.7430
  833MOL0     H12448   4.767   6.071   0.876  4.0129 -0.2371 -0.1604
  833MOL0     H12449   4.692   6.146   0.665 -0.5150  0.1719 -1.1654
  833MOL0     H12450   4.553   6.043   0.700 -0.8452 -2.7892  0.7801
  833MOL0     H12451   4.620   5.877   0.542  0.8612 -0.5569  0.6199
  833MOL0     H12452   4.781   5.917   0.536 -0.7546 -1.5432  2.7583
  833MOL0     H12453   4.647   6.229   0.281  0.9551  0.0673 -0.0144
  833MOL0     H12454   4.660   5.606   0.884 -0.6142  2.3166 -0.3592
  833MOL0     H12455   4.679   5.377   0.992 -0.3417  1.4177 -3.7767
  834MOL0     O12456   7.849   1.167   5.806  0.2832  0.0239 -0.2900
  834MOL0     C12457   7.825   1.282   5.800  0.3598 -0.5229  0.2235
  834MOL0     O12458   7.907   1.372   5.739 -0.0702  0.1868 -0.9741
  834MOL0     C12459   8.020   1.330   5.682 -0.5079 -0.4285  0.5351
  834MOL0     C12460   8.141   1.322   5.748  0.6268  0.6839 -0.7785
  834MOL0     C12461   8.249   1.267   5.683 -1.2267 -0.5512 -0.3447
  834MOL0     C12462   8.242   1.221   5.554 -0.6071  0.2260 -0.3464
  834MOL0     O12463   8.356   1.160   5.512 -0.2208  0.7120 -0.6738
  834MOL0     C12464   8.350   1.086   5.387  0.5621  0.1839 -0.2231
  834MOL0     C12465   8.456   0.978   5.395 -0.5465  0.5627  0.2020
  834MOL0     C12466   8.449   0.887   5.267  0.2556 -0.4565  0.7073
  834MOL0     C12467   8.565   0.781   5.270  0.5951 -0.3498  0.1156
  834MOL0     C12468   8.595   0.721   5.131 -0.0355 -0.2617 -1.2917
  834MOL0     C12469   8.492   0.607   5.107  0.5482  0.8817 -0.1770
  834MOL0     C12470   8.513   0.555   4.965  0.7175 -0.5786 -0.1196
  834MOL0     C12471   8.430   0.431   4.922  0.6460 -0.0196 -0.5405
  834MOL0     N12472   8.465   0.315   5.011  0.0699  0.2330 -0.0530
  834MOL0     C12473   8.588   0.269   5.031  0.2909  0.5257  0.0169
  834MOL0     C12474   8.574   0.158   5.110 -0.1671 -0.0222 -1.1496
  834MOL0     C12475   8.699   0.071   5.138  0.4420 -0.4394 -0.3915
  834MOL0     C12476   8.790   0.053   5.015  0.4235  0.7053  0.9250
  834MOL0     C12477   8.883  -0.064   5.038  0.5328 -0.1837  0.9210
  834MOL0     C12478   8.952  -0.099   4.910 -0.1971  0.4952 -0.4062
  834MOL0     O12479   9.051  -0.198   4.940 -0.4302 -1.0976 -0.3126
  834MOL0     C12480   9.184  -0.198   4.882  0.0216 -0.1448 -0.6228
  834MOL0     C12481   9.287  -0.259   4.955  0.7141 -0.1828  0.6112
  834MOL0     C12482   9.420  -0.260   4.917 -0.1521 -0.3585 -0.5543
  834MOL0     C12483   9.514  -0.341   5.008  0.3216 -0.0003 -0.1444
  834MOL0     C12484   9.455  -0.211   4.786 -0.2284 -0.2918  0.0924
  834MOL0     C12485   9.584  -0.208   4.733 -0.0639  0.3207  0.1385
  834MOL0     O12486   9.686  -0.228   4.825 -0.2646 -0.2060 -0.0159
  834MOL0     C12487   9.818  -0.236   4.791  0.4716 -0.0816 -0.1066
  834MOL0     C12488   9.882  -0.149   4.696 -0.8073 -0.1198  0.0287
  834MOL0     C12489  10.022  -0.157   4.676  0.4050  0.1652  0.2899
  834MOL0     C12490  10.088  -0.261   4.727  0.1978  0.0040 -0.6237
  834MOL0     O12491  10.214  -0.269   4.697 -0.7313 -0.1792  0.1630
  834MOL0     C12492  10.306  -0.365   4.757 -0.2361 -1.1549  0.4121
  834MOL0     C12493  10.445  -0.337   4.710  0.2692  0.5289 -0.7608
  834MOL0     C12494  10.553  -0.427   4.765  0.8995  0.1673  0.2434
  834MOL0     C12495  10.703  -0.388   4.738  0.6337 -0.1361  0.1208
  834MOL0     C12496  10.808  -0.478   4.808  0.1179  0.2282 -0.2939
  834MOL0     C12497  10.950  -0.427   4.816 -0.4546 -0.3600  0.1420
  834MOL0     C12498  11.044  -0.490   4.924 -0.2617  0.4427  0.1489
  834MOL0     C12499  11.073  -0.640   4.904  0.4591 -0.3898  0.3827
  834MOL0    Cl12500  11.250  -0.664   4.881  0.6280 -0.0771 -0.0455
  834MOL0     C12501  10.027  -0.348   4.816 -0.4192 -0.5636  0.2580
  834MOL0     C12502   9.894  -0.335   4.850  0.3264  0.5641 -0.4623
  834MOL0     O12503   9.598  -0.180   4.617 -0.4211 -1.3188  0.4710
  834MOL0     C12504   9.345  -0.153   4.713 -0.2295 -0.5476 -0.4138
  834MOL0     C12505   9.215  -0.151   4.763 -0.8902 -0.0303 -0.3097
  834MOL0     N12506   8.446   0.146   5.146  0.1464 -0.3860  0.4524
  834MOL0     N12507   8.376   0.235   5.082 -0.4592  0.6754 -0.4524
  834MOL0     C12508   8.122   1.242   5.483  0.0252 -0.1464 -0.3968
  834MOL0     C12509   8.013   1.295   5.542 -0.1015  0.1611  0.2140
  834MOL0     C12510   7.690   1.326   5.854  1.1300  0.7138 -0.3582
  834MOL0     C12511   7.612   1.240   5.942  0.4500 -0.6184 -0.1880
  834MOL0     C12512   7.494   1.281   6.008  0.0030 -0.3019  0.3050
  834MOL0     C12513   7.448   1.415   5.988  0.7895  0.4243  0.7883
  834MOL0     O12514   7.327   1.477   6.035  0.4406 -0.2060  0.0308
  834MOL0     C12515   7.226   1.402   6.100 -0.6185  0.6753  0.5678
  834MOL0     C12516   7.152   1.493   6.202  0.3974  0.2870 -0.4094
  834MOL0     C12517   7.221   1.510   6.346  0.7284  0.0741  0.7975
  834MOL0     C12518   7.360   1.571   6.339 -0.7540  0.3255  0.2386
  834MOL0     C12519   7.359   1.703   6.276 -1.1068  0.6999 -0.3982
  834MOL0     C12520   7.346   1.804   6.213 -0.7409 -0.8879 -0.4801
  834MOL0     C12521   7.526   1.493   5.905  0.2836  0.3607 -0.6339
  834MOL0     C12522   7.634   1.451   5.835 -0.6739  0.5747 -0.2412
  834MOL0     H12523   8.137   1.334   5.856  2.4498 -2.2176 -0.2795
  834MOL0     H12524   8.339   1.236   5.735 -1.8124 -2.1764 -0.2458
  834MOL0     H12525   8.251   1.040   5.382 -0.1756  1.8501 -1.8112
  834MOL0     H12526   8.370   1.151   5.302 -0.7416  0.7741 -0.1061
  834MOL0     H12527   8.560   1.009   5.406  1.2538 -3.3446 -3.0127
  834MOL0     H12528   8.426   0.908   5.473 -0.0360  0.2094  0.0824
  834MOL0     H12529   8.352   0.836   5.269 -0.6535  0.9662 -2.0474
  834MOL0     H12530   8.455   0.950   5.178 -0.5197 -1.5839 -0.1627
  834MOL0     H12531   8.654   0.832   5.308  0.1135 -1.4125  2.8999
  834MOL0     H12532   8.540   0.711   5.349  1.8442  0.7251  1.5233
  834MOL0     H12533   8.579   0.800   5.058 -0.6522  2.2211  1.3604
  834MOL0     H12534   8.698   0.684   5.128  0.5758  1.3918 -1.5915
  834MOL0     H12535   8.506   0.531   5.184 -2.5844  1.9312  1.6023
  834MOL0     H12536   8.388   0.641   5.116 -0.6299 -0.4883 -5.2364
  834MOL0     H12537   8.477   0.636   4.901 -2.2460 -0.4249  1.5343
  834MOL0     H12538   8.616   0.521   4.951  0.3514 -2.1228  0.6809
  834MOL0     H12539   8.442   0.385   4.823  1.7830 -4.0151  1.2029
  834MOL0     H12540   8.323   0.445   4.936  0.1695 -1.2203 -2.5384
  834MOL0     H12541   8.677   0.295   4.975 -0.3680  0.6255 -1.0000
  834MOL0     H12542   8.754   0.096   5.229  2.2526 -2.1340 -0.9378
  834MOL0     H12543   8.667  -0.032   5.159 -0.2580 -0.5582 -1.8653
  834MOL0     H12544   8.843   0.147   4.998  0.0051  1.0031  1.2424
  834MOL0     H12545   8.727   0.024   4.931 -1.1728 -0.2244  2.3633
  834MOL0     H12546   8.827  -0.149   5.078  0.6230 -0.6342  0.1007
  834MOL0     H12547   8.967  -0.039   5.104  0.9766 -0.5495  0.4994
  834MOL0     H12548   8.988  -0.004   4.868 -4.2731  1.7558 -1.4439
  834MOL0     H12549   8.883  -0.125   4.829  0.0578 -0.6290 -0.2763
  834MOL0     H12550   9.243  -0.307   5.041  0.2498 -1.0511 -0.0952
  834MOL0     H12551   9.579  -0.409   4.951 -0.1382 -0.9772  0.4739
  834MOL0     H12552   9.572  -0.287   5.084  2.0876 -0.8875 -0.7932
  834MOL0     H12553   9.448  -0.406   5.066 -2.4136  2.1505 -0.6398
  834MOL0     H12554   9.832  -0.071   4.640  2.6712  2.0547 -0.3070
  834MOL0     H12555  10.079  -0.086   4.617  0.0302  1.4211  1.4113
  834MOL0     H12556  10.304  -0.355   4.865  1.1345  0.4526  0.3313
  834MOL0     H12557  10.272  -0.464   4.725 -1.8073 -1.0488  1.6316
  834MOL0     H12558  10.454  -0.354   4.602  0.8080  1.0316 -0.7990
  834MOL0     H12559  10.480  -0.236   4.734 -1.2386  0.3889  2.6130
  834MOL0     H12560  10.526  -0.531   4.745 -0.8155  0.5353  0.4632
  834MOL0     H12561  10.548  -0.409   4.873 -1.6225  1.2696  0.0175
  834MOL0     H12562  10.717  -0.387   4.629  1.0502 -1.6389  0.1491
  834MOL0     H12563  10.719  -0.290   4.785  0.6813 -1.2337  2.5518
  834MOL0     H12564  10.797  -0.576   4.762  3.1440  0.7877 -2.4789
  834MOL0     H12565  10.764  -0.475   4.908 -2.1011  0.9112 -1.2116
  834MOL0     H12566  11.000  -0.440   4.719  0.1494  1.2929  0.1946
  834MOL0     H12567  10.942  -0.323   4.849 -0.4578 -0.3428  0.0892
  834MOL0     H12568  10.991  -0.460   5.015 -2.0037 -1.2218 -0.2389
  834MOL0     H12569  11.141  -0.440   4.929  0.8409 -1.6309  0.8936
  834MOL0     H12570  11.022  -0.687   4.819  1.1181 -0.4424  0.0087
  834MOL0     H12571  11.043  -0.704   4.988  0.6449 -1.4859 -0.3556
  834MOL0     H12572  10.074  -0.428   4.873  0.1819  0.3993  1.1468
  834MOL0     H12573   9.841  -0.401   4.917  0.0075 -0.3971 -1.6261
  834MOL0     H12574   9.358  -0.124   4.610 -0.2879  0.4654 -0.1475
  834MOL0     H12575   9.143  -0.106   4.695  1.0039  0.7989 -1.8552
  834MOL0     H12576   8.120   1.205   5.381  1.0278  0.6886 -0.7365
  834MOL0     H12577   7.928   1.332   5.486  2.0061  3.3156 -1.2056
  834MOL0     H12578   7.649   1.139   5.958  2.1233  0.0352  0.1842
  834MOL0     H12579   7.433   1.209   6.061  0.7405 -2.3113 -1.4127
  834MOL0     H12580   7.150   1.365   6.029 -0.4004 -1.3521  1.3145
  834MOL0     H12581   7.270   1.320   6.158 -2.2418 -1.3824 -0.9256
  834MOL0     H12582   7.047   1.466   6.218 -0.1885  1.9352 -1.2690
  834MOL0     H12583   7.134   1.593   6.163  0.3809  0.5716  0.3030
  834MOL0     H12584   7.202   1.410   6.386 -2.2700 -0.1288 -0.8070
  834MOL0     H12585   7.161   1.578   6.408 -1.6370 -0.4990 -0.6991
  834MOL0     H12586   7.427   1.509   6.280  0.8202  1.2124  1.0302
  834MOL0     H12587   7.419   1.581   6.431  1.6489 -3.3966 -0.6816
  834MOL0     H12588   7.332   1.901   6.168 -1.3893 -0.2709  0.9910
  834MOL0     H12589   7.487   1.595   5.903  0.2170  0.3351 -0.6807
  834MOL0     H12590   7.676   1.528   5.771  0.5375 -0.7849 -1.1449
  835MOL0     O12591   4.789   0.054   0.882  0.4585  0.1379  0.6155
  835MOL0     C12592   4.760   0.024   0.996  0.6989 -1.1744 -0.0234
  835MOL0     O12593   4.842   0.043   1.108  0.9331 -0.0707 -0.3416
  835MOL0     C12594   4.967   0.088   1.068 -0.2796  0.6497 -0.5084
  835MOL0     C12595   5.055  -0.007   1.026  0.0210  0.1039 -0.0516
  835MOL0     C12596   5.191   0.014   0.993  0.1810 -1.0284 -0.1999
  835MOL0     C12597   5.239   0.151   0.998  0.3859  0.0614 -0.6574
  835MOL0     O12598   5.365   0.166   0.952 -0.0267  0.6637  0.8424
  835MOL0     C12599   5.431   0.289   0.985 -0.7805 -0.2465  0.1280
  835MOL0     C12600   5.583   0.279   0.953  0.6760 -0.2125  0.8299
  835MOL0     C12601   5.646   0.408   0.901  0.4480  0.9067  0.7442
  835MOL0     C12602   5.635   0.527   0.990  0.1468  0.0537 -0.5520
  835MOL0     C12603   5.735   0.633   0.937  0.7721 -1.1387 -0.0799
  835MOL0     C12604   5.704   0.688   0.797 -0.1958  1.0781 -0.9473
  835MOL0     C12605   5.765   0.827   0.789 -0.0806  0.1084 -0.4440
  835MOL0     C12606   5.669   0.926   0.860 -0.4005 -1.0379  0.3030
  835MOL0     N12607   5.710   1.057   0.820  0.2490  0.2606 -0.2045
  835MOL0     C12608   5.783   1.162   0.887  0.0280  0.1379 -0.4399
  835MOL0     C12609   5.806   1.264   0.799 -0.3200  0.2349 -0.2709
  835MOL0     C12610   5.879   1.400   0.822  0.5713  0.1049  0.3828
  835MOL0     C12611   6.024   1.396   0.777 -0.2798  0.5152 -0.4542
  835MOL0     C12612   6.097   1.529   0.832 -0.1455  0.8373 -0.0394
  835MOL0     C12613   6.241   1.522   0.809 -0.5443 -0.0919  0.4488
  835MOL0     O12614   6.305   1.628   0.882  0.2747 -0.1252 -0.2577
  835MOL0     C12615   6.437   1.602   0.910 -0.8270 -0.1469 -1.1314
  835MOL0     C12616   6.476   1.544   1.026 -0.3501 -0.1750 -0.5435
  835MOL0     C12617   6.606   1.512   1.071 -0.4620  1.2359  0.2486
  835MOL0     C12618   6.623   1.444   1.205 -0.7442 -0.2287  0.0918
  835MOL0     C12619   6.712   1.547   0.984  0.4777  0.2416 -0.6386
  835MOL0     C12620   6.854   1.554   1.026 -0.0449 -0.1120 -0.4574
  835MOL0     O12621   6.884   1.577   1.158 -0.2417  0.3734  0.1082
  835MOL0     C12622   7.015   1.600   1.194  0.0736  0.0399 -1.5909
  835MOL0     C12623   7.088   1.696   1.118  0.2152 -0.1747  0.2535
  835MOL0     C12624   7.225   1.729   1.154 -0.1753 -0.1913 -0.2700
  835MOL0     C12625   7.276   1.675   1.270 -1.0190  0.6390  0.3629
  835MOL0     O12626   7.416   1.680   1.274 -0.1854  0.1667 -0.3842
  835MOL0     C12627   7.488   1.569   1.329  0.1636  0.2854  0.2688
  835MOL0     C12628   7.631   1.605   1.344 -0.3464 -0.0560  0.0631
  835MOL0     C12629   7.690   1.650   1.211  0.1168  0.6623 -0.2459
  835MOL0     C12630   7.738   1.525   1.130  0.4405 -0.8409  0.6121
  835MOL0     C12631   7.768   1.567   0.992  0.5009  0.2717  0.2513
  835MOL0     C12632   7.817   1.448   0.913 -1.0177 -0.7368  0.7570
  835MOL0     C12633   7.896   1.488   0.794 -0.7556  0.0553 -0.0453
  835MOL0     C12634   7.945   1.353   0.726  0.4127 -1.1222 -0.4949
  835MOL0    Cl12635   7.813   1.237   0.669  0.2595 -0.0636 -0.0381
  835MOL0     C12636   7.199   1.594   1.355 -0.6623  0.1221  0.2567
  835MOL0     C12637   7.070   1.560   1.319  0.3315  0.2445  0.2721
  835MOL0     O12638   6.939   1.520   0.944  0.2009  0.9044 -0.2450
  835MOL0     C12639   6.676   1.588   0.850 -0.8743 -0.1164  0.2546
  835MOL0     C12640   6.538   1.617   0.808 -0.6729 -0.3662 -0.0757
  835MOL0     N12641   5.733   1.227   0.685 -0.0165  0.1880 -0.2054
  835MOL0     N12642   5.693   1.095   0.694  0.4038 -0.2340  0.1297
  835MOL0     C12643   5.146   0.252   1.036 -0.6393  0.3974 -0.0090
  835MOL0     C12644   5.019   0.222   1.081 -1.1684 -0.3546 -0.8848
  835MOL0     C12645   4.625  -0.020   1.008  0.3072 -0.3542  0.1075
  835MOL0     C12646   4.557  -0.073   0.899 -0.5809  0.8147 -0.3487
  835MOL0     C12647   4.434  -0.128   0.923  0.4482  0.4868  0.8080
  835MOL0     C12648   4.371  -0.111   1.045 -0.5025 -0.5450  0.1164
  835MOL0     O12649   4.236  -0.133   1.061 -0.1753  0.0896 -0.7661
  835MOL0     C12650   4.196  -0.271   1.064 -0.3368 -0.7112 -0.5436
  835MOL0     C12651   4.055  -0.273   1.136 -0.3594  0.5382 -0.5099
  835MOL0     C12652   4.010  -0.413   1.183 -0.5488 -0.7865 -0.2297
  835MOL0     C12653   3.873  -0.412   1.247 -0.2375 -0.1046  0.4930
  835MOL0     C12654   3.890  -0.339   1.375 -0.1662  0.4564 -0.5383
  835MOL0     C12655   3.899  -0.283   1.485 -0.0920 -0.5720 -0.6345
  835MOL0     C12656   4.431  -0.045   1.149  0.7073  0.6597  0.3625
  835MOL0     C12657   4.560  -0.009   1.133 -0.3008 -0.1142  0.2103
  835MOL0     H12658   5.039  -0.111   1.052 -0.0331 -0.3727 -1.8703
  835MOL0     H12659   5.238  -0.076   0.955 -1.1662 -1.9050  0.1620
  835MOL0     H12660   5.378   0.371   0.936  0.5760  0.8770  0.5026
  835MOL0     H12661   5.430   0.307   1.092  3.2904 -1.1393  0.4597
  835MOL0     H12662   5.633   0.251   1.046  0.1208  1.2803  1.5960
  835MOL0     H12663   5.607   0.207   0.874 -3.0586  1.4039 -2.0301
  835MOL0     H12664   5.753   0.389   0.883  0.3357  3.4915 -4.2293
  835MOL0     H12665   5.614   0.443   0.803 -3.5504 -1.3111  1.0525
  835MOL0     H12666   5.534   0.568   0.989  0.1187 -0.0173 -0.6287
  835MOL0     H12667   5.653   0.486   1.089 -1.4198 -1.0027 -0.6765
  835MOL0     H12668   5.721   0.715   1.008  1.1028 -1.4539  0.3574
  835MOL0     H12669   5.838   0.597   0.934  1.7425  1.3491  0.9191
  835MOL0     H12670   5.761   0.634   0.721  0.2687  2.9959 -2.0343
  835MOL0     H12671   5.596   0.687   0.778 -0.5991 -0.6611  1.1879
  835MOL0     H12672   5.869   0.830   0.824 -0.0591  1.0710 -0.5667
  835MOL0     H12673   5.773   0.843   0.681  0.2231  0.0585 -0.4302
  835MOL0     H12674   5.670   0.923   0.969 -3.7356  2.6796  0.6456
  835MOL0     H12675   5.567   0.911   0.822  0.5589 -1.1879 -2.4300
  835MOL0     H12676   5.815   1.169   0.991  0.4132  4.3518 -0.6562
  835MOL0     H12677   5.828   1.480   0.767 -1.0366 -2.6879 -2.6027
  835MOL0     H12678   5.870   1.424   0.928  0.9308  1.4027  0.1351
  835MOL0     H12679   6.026   1.385   0.668  0.1801  1.3487 -0.5436
  835MOL0     H12680   6.064   1.308   0.827  1.0815  1.2793 -0.1326
  835MOL0     H12681   6.073   1.523   0.938  1.2608 -3.4653  0.2088
  835MOL0     H12682   6.058   1.618   0.781  0.9984  1.1287 -0.4160
  835MOL0     H12683   6.251   1.539   0.701 -0.5564 -2.4016  0.0288
  835MOL0     H12684   6.301   1.433   0.829  2.5912  1.5643 -0.8454
  835MOL0     H12685   6.397   1.515   1.095 -0.6474  0.4364 -0.6146
  835MOL0     H12686   6.618   1.508   1.294 -2.6131  0.9904 -0.8210
  835MOL0     H12687   6.544   1.370   1.215 -0.0005 -0.8875  1.4616
  835MOL0     H12688   6.715   1.385   1.208 -0.3408  0.4108  2.4482
  835MOL0     H12689   7.045   1.721   1.021  0.4609 -0.0462  0.1766
  835MOL0     H12690   7.300   1.778   1.093  1.1499  0.6237  1.9084
  835MOL0     H12691   7.457   1.538   1.429  0.4422 -4.5579 -0.8765
  835MOL0     H12692   7.484   1.484   1.260  2.5967  0.7097 -0.5224
  835MOL0     H12693   7.626   1.686   1.418 -2.8374  0.0650 -0.1605
  835MOL0     H12694   7.692   1.526   1.388  1.7194  1.9541  1.0085
  835MOL0     H12695   7.781   1.708   1.227  2.1488 -2.6949  1.7363
  835MOL0     H12696   7.613   1.704   1.156 -0.0056  0.2349 -0.5037
  835MOL0     H12697   7.827   1.507   1.191 -0.4437  1.1729  2.6609
  835MOL0     H12698   7.687   1.429   1.136 -0.3929 -0.5766 -1.3247
  835MOL0     H12699   7.827   1.659   0.989  0.9940 -0.0131  0.9952
  835MOL0     H12700   7.676   1.604   0.945 -1.8251 -4.1769  0.7368
  835MOL0     H12701   7.882   1.390   0.980 -2.2615 -1.4107  1.4300
  835MOL0     H12702   7.739   1.385   0.870 -1.8874  1.6981 -1.4408
  835MOL0     H12703   7.991   1.530   0.829 -0.3166 -0.2719 -0.8133
  835MOL0     H12704   7.850   1.566   0.733  0.6004  1.1017  0.2249
  835MOL0     H12705   8.004   1.301   0.801  1.5937  1.0902  0.1933
  835MOL0     H12706   8.020   1.363   0.647  2.7766 -2.3962  1.4639
  835MOL0     H12707   7.253   1.546   1.436  0.2112 -0.0395 -0.3999
  835MOL0     H12708   7.005   1.501   1.384 -1.6374  2.4401  0.4611
  835MOL0     H12709   6.756   1.613   0.781 -0.2394  1.6891  1.5433
  835MOL0     H12710   6.503   1.669   0.719  1.5744  0.4656 -0.5531
  835MOL0     H12711   5.168   0.358   1.035 -0.4296  0.3693 -1.5743
  835MOL0     H12712   4.959   0.301   1.127 -0.7018  0.6841 -2.0056
  835MOL0     H12713   4.602  -0.089   0.802  1.1581 -1.3091  0.7228
  835MOL0     H12714   4.381  -0.185   0.847 -0.0017  0.6258  1.0147
  835MOL0     H12715   4.192  -0.308   0.961  3.2781  0.8318 -1.3878
  835MOL0     H12716   4.270  -0.337   1.109  1.4813  1.3377 -0.3705
  835MOL0     H12717   3.978  -0.229   1.071 -0.0125 -1.1263 -2.1337
  835MOL0     H12718   4.087  -0.211   1.221  2.5938 -0.7009 -0.6150
  835MOL0     H12719   4.083  -0.452   1.254 -0.0657  0.5944  0.0690
  835MOL0     H12720   4.013  -0.479   1.096  1.1255 -0.8815 -0.1179
  835MOL0     H12721   3.843  -0.516   1.265 -0.1351 -0.0928  0.7303
  835MOL0     H12722   3.800  -0.353   1.191 -0.5715  0.3984  1.4418
  835MOL0     H12723   3.913  -0.228   1.576  0.7932 -2.3207  0.3429
  835MOL0     H12724   4.364  -0.009   1.227 -1.1442  1.8380 -1.6826
  835MOL0     H12725   4.612   0.032   1.220 -1.3662  0.8382  0.4244
  836MOL0     O12726  10.525  11.430   9.950 -0.1065  0.7425  0.8310
  836MOL0     C12727  10.439  11.353   9.922 -0.0932  0.0974 -0.8648
  836MOL0     O12728  10.311  11.391   9.879  0.4828 -0.4315 -0.9097
  836MOL0     C12729  10.245  11.515   9.896 -0.1399  0.1732 -0.1927
  836MOL0     C12730  10.127  11.539   9.825  1.3479  0.1138 -0.1221
  836MOL0     C12731  10.062  11.664   9.832 -0.1020  0.4767  0.3213
  836MOL0     C12732  10.120  11.767   9.908  0.5357 -0.0794  0.1909
  836MOL0     O12733  10.049  11.879   9.912  0.3713  0.0006 -0.2476
  836MOL0     C12734  10.115  12.007   9.910  0.5314  0.2451  0.7289
  836MOL0     C12735  10.103  12.070   9.777 -0.2366 -0.7508 -1.0160
  836MOL0     C12736   9.956  12.135   9.753 -0.5552 -0.2466 -0.3475
  836MOL0     C12737   9.951  12.222   9.622  0.7525  0.0300 -0.1669
  836MOL0     C12738   9.803  12.241   9.580 -0.3103 -0.2238  0.6506
  836MOL0     C12739   9.789  12.358   9.489  0.1585  0.2437  0.3758
  836MOL0     C12740   9.637  12.375   9.448 -0.0593  0.1035  0.5957
  836MOL0     C12741   9.577  12.261   9.362 -0.3554  0.0282 -0.0988
  836MOL0     N12742   9.444  12.289   9.304  0.1659  0.3413 -0.0510
  836MOL0     C12743   9.337  12.306   9.370  1.1477 -0.0816 -1.3860
  836MOL0     C12744   9.244  12.354   9.280 -0.1699 -0.8259 -0.6076
  836MOL0     C12745   9.111  12.407   9.292 -0.3023  0.2180 -0.9121
  836MOL0     C12746   9.083  12.443   9.443 -0.7738 -0.0664  0.0751
  836MOL0     C12747   9.155  12.567   9.493 -0.4941  0.2472  0.1993
  836MOL0     C12748   9.152  12.585   9.646  0.3570  0.2115 -0.0257
  836MOL0     O12749   9.256  12.505   9.704 -0.1730  0.3565 -0.4130
  836MOL0     C12750   9.250  12.493   9.843 -0.6479  0.8276  0.0416
  836MOL0     C12751   9.161  12.560   9.928  0.0907 -0.0174  0.1134
  836MOL0     C12752   9.195  12.570  10.062  0.3958 -0.3668  0.0281
  836MOL0     C12753   9.099  12.664  10.134 -0.4347 -0.3537 -0.9604
  836MOL0     C12754   9.301  12.499  10.119  0.1904 -0.4573  0.0684
  836MOL0     C12755   9.347  12.507  10.266 -0.5204 -0.8470  0.1602
  836MOL0     O12756   9.447  12.421  10.310  0.1195  0.3981  0.2582
  836MOL0     C12757   9.483  12.418  10.444 -0.0948 -0.2124 -0.2080
  836MOL0     C12758   9.450  12.315  10.526  0.5059  0.0106 -1.2704
  836MOL0     C12759   9.524  12.290  10.642 -0.5534  0.4414 -0.2314
  836MOL0     C12760   9.637  12.369  10.679 -0.0439  0.5033 -0.6239
  836MOL0     O12761   9.708  12.328  10.793 -0.0707 -0.0546  0.4612
  836MOL0     C12762   9.779  12.202  10.779 -0.2165 -0.2893 -0.1856
  836MOL0     C12763   9.886  12.185  10.890  0.0416  1.0493 -0.6140
  836MOL0     C12764   9.818  12.163  11.025 -0.8794  0.8506 -0.1876
  836MOL0     C12765   9.917  12.107  11.129 -0.1797 -0.2802 -0.0295
  836MOL0     C12766   9.839  12.041  11.244  0.3081 -0.4067 -0.3140
  836MOL0     C12767   9.798  11.892  11.212 -0.2256 -0.6982  0.4087
  836MOL0     C12768   9.742  11.831  11.336  0.4478 -0.5916 -1.0542
  836MOL0     C12769   9.660  11.717  11.285  0.3863 -0.0568 -0.0679
  836MOL0    Cl12770   9.771  11.590  11.233  0.0011  0.2398 -0.4914
  836MOL0     C12771   9.662  12.481  10.606 -0.3303 -0.8008  0.6163
  836MOL0     C12772   9.591  12.503  10.484 -0.5059 -0.9166 -0.5794
  836MOL0     O12773   9.297  12.589  10.343 -0.6035 -0.8656  0.1536
  836MOL0     C12774   9.376  12.409  10.039  0.1783 -0.3822  0.2953
  836MOL0     C12775   9.350  12.411   9.897 -0.1411 -1.2161  0.2784
  836MOL0     N12776   9.300  12.333   9.151  0.1986 -0.2146 -0.1363
  836MOL0     N12777   9.415  12.284   9.173  0.7168 -0.2482  0.3196
  836MOL0     C12778  10.238  11.740   9.966 -1.0963  0.9996 -0.6944
  836MOL0     C12779  10.304  11.619   9.967 -0.4797  0.0493  1.0626
  836MOL0     C12780  10.459  11.209   9.895  0.0797 -0.6416  0.1712
  836MOL0     C12781  10.361  11.126   9.838  0.7058 -0.2117 -0.0117
  836MOL0     C12782  10.377  10.983   9.824  0.0583  0.2180 -0.5197
  836MOL0     C12783  10.502  10.931   9.864  0.1439  0.4997  0.2027
  836MOL0     O12784  10.511  10.799   9.834 -0.5960 -0.2878 -0.2337
  836MOL0     C12785  10.632  10.726   9.871  0.5634  0.2234  0.1244
  836MOL0     C12786  10.616  10.580   9.838 -0.1108  0.5195 -0.1653
  836MOL0     C12787  10.504  10.510   9.923  0.9202 -0.0231 -0.3997
  836MOL0     C12788  10.470  10.365   9.888  1.0640  0.0875  0.5925
  836MOL0     C12789  10.438  10.345   9.743 -0.9974 -0.1457  0.4754
  836MOL0     C12790  10.424  10.315   9.632 -0.3717  0.1080  0.3976
  836MOL0     C12791  10.598  11.016   9.924  0.0123  0.4958  0.0652
  836MOL0     C12792  10.578  11.147   9.944  0.3674  0.1043  0.0085
  836MOL0     H12793  10.086  11.458   9.764  3.4258  0.8119 -2.6368
  836MOL0     H12794   9.963  11.678   9.789 -2.6220 -1.0998  4.8837
  836MOL0     H12795  10.073  12.077   9.982 -3.7307 -0.5640 -0.7222
  836MOL0     H12796  10.219  11.988   9.940 -0.8823 -3.5228  4.1586
  836MOL0     H12797  10.183  12.145   9.768 -2.5656  2.6752  3.2346
  836MOL0     H12798  10.130  12.002   9.696  0.4929 -1.9601  0.2179
  836MOL0     H12799   9.878  12.058   9.759 -1.5783  0.8794  1.8244
  836MOL0     H12800   9.925  12.197   9.837 -2.9878 -0.3552 -1.0914
  836MOL0     H12801  10.003  12.316   9.641  0.5280  0.1024  0.0910
  836MOL0     H12802  10.013  12.162   9.555 -3.3774 -4.7974 -0.2480
  836MOL0     H12803   9.750  12.151   9.550  0.4873 -0.0660 -1.4534
  836MOL0     H12804   9.735  12.263   9.663 -2.8413  2.2491 -1.8419
  836MOL0     H12805   9.828  12.445   9.542  3.1321 -0.8048  0.0694
  836MOL0     H12806   9.846  12.339   9.397  2.0883  0.3634  1.5094
  836MOL0     H12807   9.587  12.383   9.544 -1.9577  0.4639 -0.3722
  836MOL0     H12808   9.618  12.468   9.393 -2.7310  0.0979  1.3812
  836MOL0     H12809   9.576  12.168   9.420  2.0095 -0.6818 -1.0426
  836MOL0     H12810   9.645  12.250   9.276 -0.9042  3.3088 -1.0904
  836MOL0     H12811   9.328  12.305   9.478 -1.1289  1.1423 -1.5022
  836MOL0     H12812   9.111  12.492   9.224  2.0820  1.2224  0.2118
  836MOL0     H12813   9.050  12.327   9.249  4.4045 -4.5176  0.0740
  836MOL0     H12814   9.116  12.359   9.505  1.0610  0.3512 -0.2705
  836MOL0     H12815   8.974  12.452   9.454 -0.8070 -0.0347 -0.2621
  836MOL0     H12816   9.121  12.658   9.443  1.1688  0.0003 -1.4750
  836MOL0     H12817   9.260  12.571   9.461 -0.7495 -1.4732 -0.9997
  836MOL0     H12818   9.054  12.554   9.684  0.5423  0.1599  0.4204
  836MOL0     H12819   9.149  12.691   9.673  1.9361 -0.0939  1.5282
  836MOL0     H12820   9.091  12.633   9.889  2.7309  1.8757 -1.4321
  836MOL0     H12821   9.156  12.717  10.211 -0.6713  1.2193 -1.8327
  836MOL0     H12822   9.067  12.732  10.055  0.7434 -2.5454 -3.4811
  836MOL0     H12823   9.012  12.627  10.190 -0.0676 -1.6356 -1.2144
  836MOL0     H12824   9.384  12.239  10.486 -0.6718  1.4309 -2.1686
  836MOL0     H12825   9.492  12.205  10.702 -0.6632  0.8504  0.2991
  836MOL0     H12826   9.701  12.125  10.779 -0.3700 -0.2338  2.3588
  836MOL0     H12827   9.849  12.196  10.695  0.8013  0.6445  0.5596
  836MOL0     H12828   9.943  12.093  10.870 -1.4344 -0.0139 -0.0726
  836MOL0     H12829   9.957  12.267  10.903 -2.1825  3.6459 -3.3755
  836MOL0     H12830   9.739  12.087  11.015  0.8890 -0.8484 -2.3482
  836MOL0     H12831   9.787  12.259  11.068 -0.7904 -0.1943  2.3432
  836MOL0     H12832   9.986  12.032  11.087  1.4489  0.9103  0.4200
  836MOL0     H12833   9.979  12.186  11.172  0.0474 -0.2945 -0.3268
  836MOL0     H12834   9.746  12.097  11.261  0.1613  0.0728 -2.4937
  836MOL0     H12835   9.907  12.042  11.330 -0.8304 -1.2721  0.6320
  836MOL0     H12836   9.717  11.892  11.138 -1.9800 -2.3009  2.2015
  836MOL0     H12837   9.880  11.837  11.165 -1.3662 -3.4427  1.4499
  836MOL0     H12838   9.682  11.903  11.393  2.7611  0.5442  0.0817
  836MOL0     H12839   9.811  11.788  11.409  1.1939  3.2523  0.7421
  836MOL0     H12840   9.586  11.743  11.210 -3.6157 -1.9411  2.8458
  836MOL0     H12841   9.604  11.683  11.372 -0.4237 -1.1297 -0.9814
  836MOL0     H12842   9.728  12.563  10.634 -4.2604  3.3753 -0.9372
  836MOL0     H12843   9.618  12.577  10.410  2.8653 -1.1903  0.2251
  836MOL0     H12844   9.452  12.340  10.075  0.5085 -0.8386 -1.2030
  836MOL0     H12845   9.417  12.357   9.831 -0.0685 -1.8169  0.8253
  836MOL0     H12846  10.285  11.817  10.026  0.9903 -1.9067  1.7105
  836MOL0     H12847  10.392  11.623  10.031 -2.5400  3.2666  3.9990
  836MOL0     H12848  10.261  11.162   9.814  1.5447  1.6793 -0.9227
  836MOL0     H12849  10.294  10.926   9.784  0.0702  0.7951 -1.3990
  836MOL0     H12850  10.723  10.762   9.822  1.3495 -2.1047 -0.2673
  836MOL0     H12851  10.638  10.741   9.979 -1.5335 -3.2174  0.8574
  836MOL0     H12852  10.709  10.526   9.858 -0.8960 -0.4014  1.1661
  836MOL0     H12853  10.599  10.574   9.730  0.1086 -1.0706 -0.1421
  836MOL0     H12854  10.414  10.572   9.920  1.0029  0.1714  0.7799
  836MOL0     H12855  10.535  10.516  10.028 -0.5482  1.0804  0.0002
  836MOL0     H12856  10.390  10.323   9.949  0.2560 -0.5151 -0.8345
  836MOL0     H12857  10.552  10.298   9.915  0.3821 -0.5895  1.0190
  836MOL0     H12858  10.413  10.299   9.526 -1.1577  0.0529  0.4877
  836MOL0     H12859  10.689  10.964   9.954 -0.1183  0.7502  0.9283
  836MOL0     H12860  10.647  11.217   9.992  0.0054 -0.3018  1.1502
  837MOL0     O12861   1.026   0.397   4.369 -0.4730 -0.0854  0.5023
  837MOL0     C12862   1.075   0.449   4.269 -1.6138  0.1855  0.7403
  837MOL0     O12863   1.202   0.427   4.224  0.0732 -0.5959 -0.6111
  837MOL0     C12864   1.303   0.377   4.306 -0.4010  0.3832  0.0348
  837MOL0     C12865   1.367   0.253   4.276 -0.4588  0.3029 -0.2481
  837MOL0     C12866   1.464   0.197   4.354 -0.5948 -0.5532  0.3466
  837MOL0     C12867   1.518   0.276   4.458 -0.2123  0.2334 -0.1081
  837MOL0     O12868   1.623   0.209   4.527 -0.1304  0.0996 -0.2138
  837MOL0     C12869   1.668   0.264   4.649  0.2060  0.3838 -1.0204
  837MOL0     C12870   1.765   0.155   4.701  0.1606 -0.4103 -0.1106
  837MOL0     C12871   1.829   0.202   4.833  0.3305  0.1616  0.6434
  837MOL0     C12872   1.894   0.089   4.900 -0.2282  0.3933  0.0614
  837MOL0     C12873   1.795   0.010   4.990  0.0123 -0.1689 -0.4204
  837MOL0     C12874   1.785   0.093   5.115 -0.6122  0.6264  0.2923
  837MOL0     C12875   1.687   0.029   5.222 -0.1069  0.2143 -0.3684
  837MOL0     C12876   1.726  -0.115   5.274 -0.9610  0.1483  0.3424
  837MOL0     N12877   1.625  -0.160   5.372  1.3076  0.0657 -0.3644
  837MOL0     C12878   1.485  -0.144   5.374  0.7636  0.9099  0.8551
  837MOL0     C12879   1.446  -0.204   5.496 -0.0064 -0.0424  0.1375
  837MOL0     C12880   1.304  -0.202   5.543  1.6056 -1.0169  0.3718
  837MOL0     C12881   1.276  -0.066   5.609  0.1329 -0.4737 -0.3149
  837MOL0     C12882   1.127  -0.055   5.620 -0.8798 -0.5799 -0.9221
  837MOL0     C12883   1.091   0.083   5.685  0.5530  0.6120 -0.2050
  837MOL0     O12884   1.150   0.098   5.821 -0.2994 -0.0080  1.4204
  837MOL0     C12885   1.109   0.015   5.916 -0.3053 -0.6369 -0.7769
  837MOL0     C12886   0.982  -0.023   5.948  0.1562 -0.1968 -0.1407
  837MOL0     C12887   0.956  -0.127   6.041 -0.5264  0.6537  0.1356
  837MOL0     C12888   0.805  -0.168   6.046 -0.7538  0.1051 -0.1376
  837MOL0     C12889   1.065  -0.194   6.100  1.1297 -0.3867 -0.2948
  837MOL0     C12890   1.035  -0.308   6.191  0.1014 -0.3183  0.6561
  837MOL0     O12891   1.140  -0.338   6.277 -0.1707 -1.2890 -0.3283
  837MOL0     C12892   1.125  -0.450   6.354  0.7292 -0.0796 -0.3454
  837MOL0     C12893   1.122  -0.582   6.300 -0.6806 -0.7897  0.3841
  837MOL0     C12894   1.107  -0.688   6.397  0.6865  0.0557 -0.1296
  837MOL0     C12895   1.071  -0.661   6.534  0.7046  0.6387  0.4472
  837MOL0     O12896   1.050  -0.752   6.624 -0.2937  0.1837 -0.2396
  837MOL0     C12897   0.989  -0.875   6.592  0.3920 -0.1530 -0.0942
  837MOL0     C12898   0.966  -0.957   6.722 -1.3315  0.6190  0.3106
  837MOL0     C12899   0.896  -1.093   6.695 -0.1865 -0.1766 -0.3076
  837MOL0     C12900   0.908  -1.202   6.805  0.0648 -0.3731  0.7720
  837MOL0     C12901   0.897  -1.350   6.755 -0.1297  0.2218 -1.0461
  837MOL0     C12902   0.981  -1.454   6.835  0.1392 -0.8708 -0.4832
  837MOL0     C12903   0.937  -1.463   6.984 -0.0090  0.4068 -0.2877
  837MOL0     C12904   0.795  -1.515   7.013 -0.3436 -0.9692 -1.0833
  837MOL0    Cl12905   0.753  -1.496   7.193  0.0582 -0.5154  0.0515
  837MOL0     C12906   1.067  -0.529   6.579  0.8550  1.2945  1.0425
  837MOL0     C12907   1.096  -0.425   6.494 -0.1492  0.2065 -0.1164
  837MOL0     O12908   0.941  -0.370   6.170 -0.0053  0.4460  0.1186
  837MOL0     C12909   1.194  -0.141   6.088 -0.1111 -0.9105 -0.8441
  837MOL0     C12910   1.214  -0.032   6.000  0.1943  0.7588  0.4797
  837MOL0     N12911   1.563  -0.253   5.558 -0.9221 -0.6919 -0.2021
  837MOL0     N12912   1.660  -0.239   5.476  0.1965 -0.5615 -0.3752
  837MOL0     C12913   1.463   0.401   4.491  0.3654  0.1713  0.1193
  837MOL0     C12914   1.359   0.456   4.409  0.0142  0.9729 -0.5729
  837MOL0     C12915   0.995   0.509   4.170 -1.1988 -0.0040  0.0077
  837MOL0     C12916   1.048   0.622   4.106 -0.5855 -0.6493  0.3226
  837MOL0     C12917   0.971   0.699   4.022 -0.0491  0.7245  0.4535
  837MOL0     C12918   0.833   0.670   4.003 -0.4487 -0.2424 -0.2163
  837MOL0     O12919   0.736   0.745   3.932 -0.2253 -0.5404  0.5066
  837MOL0     C12920   0.782   0.874   3.885 -0.0425 -0.4000 -0.4592
  837MOL0     C12921   0.835   0.859   3.739 -0.5522 -0.3069 -0.2754
  837MOL0     C12922   0.744   0.785   3.645 -0.2128 -0.0600 -0.6197
  837MOL0     C12923   0.617   0.865   3.599 -0.0793 -0.0271 -0.2639
  837MOL0     C12924   0.555   0.805   3.485 -1.1562  0.1570 -0.4432
  837MOL0     C12925   0.497   0.763   3.390  0.0891  0.0127 -0.3446
  837MOL0     C12926   0.778   0.556   4.073  0.3056 -0.0170 -0.5714
  837MOL0     C12927   0.864   0.474   4.154  0.3953  0.0584 -0.6040
  837MOL0     H12928   1.326   0.198   4.192  0.1702 -0.0683 -0.3230
  837MOL0     H12929   1.501   0.101   4.321  0.1249 -0.9470  2.1716
  837MOL0     H12930   1.711   0.364   4.638 -2.9673  2.1346  1.0531
  837MOL0     H12931   1.581   0.264   4.715 -0.0608 -1.4056 -1.3102
  837MOL0     H12932   1.713   0.060   4.710  1.0170 -0.7015  2.8342
  837MOL0     H12933   1.839   0.138   4.622  0.9193  0.0958  0.4738
  837MOL0     H12934   1.905   0.278   4.811  2.4838 -2.2651 -0.9562
  837MOL0     H12935   1.770   0.258   4.906  2.0766  1.6275  1.0055
  837MOL0     H12936   1.937   0.022   4.825  1.1743 -0.0449  1.2257
  837MOL0     H12937   1.980   0.117   4.961  1.6887 -2.6510 -1.0369
  837MOL0     H12938   1.695  -0.005   4.950 -0.9658  0.9233  1.4918
  837MOL0     H12939   1.838  -0.087   5.017 -1.2280  0.0873  3.0236
  837MOL0     H12940   1.883   0.082   5.161 -1.0279 -2.1752  0.6567
  837MOL0     H12941   1.755   0.197   5.099  0.2599  0.6103 -1.8443
  837MOL0     H12942   1.672   0.098   5.305  3.0348  0.4092  0.1847
  837MOL0     H12943   1.590   0.022   5.174  0.2248  0.4099 -1.0769
  837MOL0     H12944   1.830  -0.112   5.307 -0.4794  0.3793 -1.1029
  837MOL0     H12945   1.727  -0.174   5.181  0.0822  2.2688 -1.0721
  837MOL0     H12946   1.415  -0.098   5.304 -3.3470 -3.2544  1.7062
  837MOL0     H12947   1.240  -0.219   5.456  0.2301  2.5211  0.5244
  837MOL0     H12948   1.283  -0.286   5.610 -0.2109 -1.4492 -0.6519
  837MOL0     H12949   1.312   0.011   5.539 -1.1348 -0.3120 -0.8179
  837MOL0     H12950   1.320  -0.063   5.709 -0.9916 -1.0911  0.2164
  837MOL0     H12951   1.093  -0.146   5.671  0.8469 -0.4927  0.5021
  837MOL0     H12952   1.089  -0.071   5.519 -0.5799 -0.8920 -0.9916
  837MOL0     H12953   0.982   0.093   5.693  0.5112  0.4653 -0.5638
  837MOL0     H12954   1.137   0.167   5.632 -0.6758  0.8045 -1.0188
  837MOL0     H12955   0.902   0.018   5.888  1.1179 -1.5038 -2.4508
  837MOL0     H12956   0.769  -0.187   6.148  1.5093  0.2138  0.7434
  837MOL0     H12957   0.742  -0.094   5.996 -3.2681 -1.5997  0.3403
  837MOL0     H12958   0.794  -0.266   6.000 -0.0288  0.2809 -0.7070
  837MOL0     H12959   1.124  -0.605   6.194  1.2813 -0.0982  0.2350
  837MOL0     H12960   1.118  -0.790   6.361 -3.7317 -1.6634  2.5387
  837MOL0     H12961   0.895  -0.863   6.537 -1.5009 -2.7735  2.2611
  837MOL0     H12962   1.047  -0.932   6.520 -1.3330 -3.6053  1.0535
  837MOL0     H12963   1.065  -0.969   6.767 -0.4585  1.9243 -1.1474
  837MOL0     H12964   0.904  -0.889   6.782  0.0173  4.2272 -2.0234
  837MOL0     H12965   0.942  -1.120   6.599 -0.7615  3.8092 -1.8901
  837MOL0     H12966   0.793  -1.075   6.663 -1.2356 -1.4906  2.0578
  837MOL0     H12967   1.004  -1.194   6.857  0.0100 -0.7689  0.9424
  837MOL0     H12968   0.829  -1.180   6.877  0.4188  1.0953  0.7299
  837MOL0     H12969   0.939  -1.350   6.654  6.7402 -0.7150  1.2956
  837MOL0     H12970   0.789  -1.369   6.767 -0.3473  1.0221 -1.6454
  837MOL0     H12971   0.955  -1.556   6.807  2.3820 -1.5772 -0.2286
  837MOL0     H12972   1.088  -1.429   6.831 -0.4032  1.6603 -3.8148
  837MOL0     H12973   0.963  -1.373   7.040  1.6658 -1.5311  2.2890
  837MOL0     H12974   1.003  -1.535   7.033 -0.5755 -2.3589 -3.1575
  837MOL0     H12975   0.790  -1.620   6.984 -0.1440 -0.9150 -1.3193
  837MOL0     H12976   0.723  -1.465   6.947  1.3916  1.3096 -1.3879
  837MOL0     H12977   1.057  -0.516   6.686  0.6358  0.5812  1.1130
  837MOL0     H12978   1.104  -0.325   6.535  1.6337  0.4773 -1.0065
  837MOL0     H12979   1.271  -0.185   6.150 -1.8873 -1.4293  1.1222
  837MOL0     H12980   1.313   0.012   6.000  1.0125 -0.9462  1.9639
  837MOL0     H12981   1.499   0.452   4.580 -0.2833  1.1463 -0.1603
  837MOL0     H12982   1.319   0.557   4.413 -1.2407  0.4988 -0.6984
  837MOL0     H12983   1.155   0.635   4.122 -0.6843 -0.4143  0.8284
  837MOL0     H12984   1.011   0.789   3.977 -1.2330  1.8874  1.6573
  837MOL0     H12985   0.696   0.941   3.890 -1.4145 -2.1528  1.5104
  837MOL0     H12986   0.857   0.917   3.951  0.3992  0.3445 -1.4229
  837MOL0     H12987   0.931   0.808   3.750 -1.2787 -1.1871  3.2208
  837MOL0     H12988   0.846   0.959   3.697 -3.0961  0.0730 -0.1608
  837MOL0     H12989   0.720   0.682   3.673 -0.8415  0.2693  0.1041
  837MOL0     H12990   0.802   0.788   3.552  1.8525  1.7889  0.6191
  837MOL0     H12991   0.626   0.973   3.582  0.2580 -0.1865 -1.1199
  837MOL0     H12992   0.537   0.864   3.674 -4.4490  0.9161 -4.4266
  837MOL0     H12993   0.451   0.733   3.298  0.2225  1.4157 -0.8957
  837MOL0     H12994   0.670   0.551   4.062  0.2018 -1.4426  0.7201
  837MOL0     H12995   0.819   0.389   4.205 -1.2521  0.2339 -1.6873
  838MOL0     O12996  10.878   2.976   0.590 -0.0414  0.8041  0.2372
  838MOL0     C12997  10.838   2.867   0.539  0.0233 -0.5587  0.7049
  838MOL0     O12998  10.729   2.799   0.576  0.1812  0.3208 -0.3733
  838MOL0     C12999  10.646   2.837   0.678  0.6072 -0.0297  0.7293
  838MOL0     C13000  10.568   2.735   0.709 -0.0357  0.7347 -0.6584
  838MOL0     C13001  10.484   2.738   0.818 -0.1137 -1.3655 -0.3677
  838MOL0     C13002  10.456   2.855   0.891 -0.2186  0.1004  0.3073
  838MOL0     O13003  10.372   2.852   1.003  0.7002  0.4193  0.5868
  838MOL0     C13004  10.242   2.801   0.974 -0.5637 -0.2596  0.2916
  838MOL0     C13005  10.121   2.893   1.026  0.1888 -0.0027 -0.0792
  838MOL0     C13006   9.986   2.863   0.964 -0.2417 -0.3902  0.9281
  838MOL0     C13007   9.876   2.935   1.038 -0.3686  1.1300 -0.7757
  838MOL0     C13008   9.742   2.927   0.960  0.4371  0.2382 -0.4787
  838MOL0     C13009   9.637   3.013   1.026  0.0546  0.6181 -0.3616
  838MOL0     C13010   9.499   2.995   0.967  0.4541 -0.0786 -0.4177
  838MOL0     C13011   9.395   3.097   1.011 -0.8511 -0.2352  0.9711
  838MOL0     N13012   9.322   3.037   1.122 -0.0785 -0.7513 -0.4993
  838MOL0     C13013   9.364   2.955   1.220 -0.0676  0.3338  0.3523
  838MOL0     C13014   9.255   2.937   1.292 -0.8749 -0.2816  0.4318
  838MOL0     C13015   9.250   2.847   1.412  0.4243  0.0261 -0.1097
  838MOL0     C13016   9.250   2.919   1.544 -0.0496  0.8405 -0.3166
  838MOL0     C13017   9.208   2.832   1.664  0.2093  0.1253  0.0309
  838MOL0     C13018   9.053   2.830   1.680 -0.4057 -0.7234 -0.1609
  838MOL0     O13019   8.981   2.757   1.587  0.1334 -0.0882  0.2696
  838MOL0     C13020   8.847   2.726   1.620  0.4478  0.4302 -0.6721
  838MOL0     C13021   8.779   2.659   1.518 -0.2935 -0.1584  0.2104
  838MOL0     C13022   8.645   2.614   1.528  0.8611  0.7638 -0.8520
  838MOL0     C13023   8.603   2.527   1.411  0.4596 -0.1756  0.0597
  838MOL0     C13024   8.579   2.620   1.655 -0.6282  0.7944 -0.0762
  838MOL0     C13025   8.441   2.564   1.683  0.0307  0.0056  0.1528
  838MOL0     O13026   8.388   2.489   1.592 -0.2968 -0.2133 -0.8842
  838MOL0     C13027   8.256   2.452   1.603  0.4822 -0.8399 -0.8378
  838MOL0     C13028   8.223   2.317   1.591 -0.0414  0.0245  0.8944
  838MOL0     C13029   8.092   2.271   1.596 -0.6432 -0.2441  0.2734
  838MOL0     C13030   7.994   2.366   1.612 -0.9129  0.2129 -0.0851
  838MOL0     O13031   7.871   2.315   1.619 -0.0928 -0.1276  0.6000
  838MOL0     C13032   7.756   2.373   1.687 -0.2291 -0.7271  0.1812
  838MOL0     C13033   7.705   2.284   1.792 -0.5664  0.8320 -0.3509
  838MOL0     C13034   7.574   2.337   1.844 -0.5148  0.6693 -0.2868
  838MOL0     C13035   7.455   2.320   1.745  0.7543 -0.7916 -0.7465
  838MOL0     C13036   7.330   2.391   1.795 -0.5069  0.6918  0.1601
  838MOL0     C13037   7.225   2.368   1.684 -0.0383  0.4616  0.1310
  838MOL0     C13038   7.087   2.386   1.738  0.1113 -0.1266  0.0038
  838MOL0     C13039   6.974   2.358   1.636 -0.7220 -1.0420 -1.6341
  838MOL0    Cl13040   6.965   2.494   1.515 -0.2186 -0.0644  0.0139
  838MOL0     C13041   8.026   2.496   1.647 -0.0318 -0.1632  0.4944
  838MOL0     C13042   8.152   2.540   1.634 -0.4062 -0.2343 -0.5206
  838MOL0     O13043   8.388   2.608   1.784  0.1857 -0.6322  0.5352
  838MOL0     C13044   8.651   2.683   1.759 -0.2395  0.2670  0.5981
  838MOL0     C13045   8.777   2.741   1.750  0.0094  0.4273  0.3495
  838MOL0     N13046   9.153   3.015   1.244  0.2753 -0.2263 -0.0160
  838MOL0     N13047   9.201   3.093   1.151 -0.1363  0.6767 -0.2416
  838MOL0     C13048  10.535   2.961   0.856  0.3639  0.0998 -0.1259
  838MOL0     C13049  10.625   2.959   0.747 -1.3642 -0.3438  0.2004
  838MOL0     C13050  10.909   2.809   0.432  0.4147 -0.1936 -0.5028
  838MOL0     C13051  11.026   2.855   0.375 -0.8668  0.2387 -0.1667
  838MOL0     C13052  11.092   2.785   0.271  0.0051 -0.3195  0.3483
  838MOL0     C13053  11.037   2.674   0.213  0.1521 -0.4146 -0.0824
  838MOL0     O13054  11.094   2.592   0.121  0.0301 -0.3772  0.8777
  838MOL0     C13055  11.220   2.643   0.072 -0.2192  0.1951 -0.2552
  838MOL0     C13056  11.301   2.526   0.003 -0.1421 -0.1322 -0.3613
  838MOL0     C13057  11.453   2.559  -0.003  1.3484  0.3647  0.5804
  838MOL0     C13058  11.536   2.452  -0.087  0.4871 -0.3883 -0.7032
  838MOL0     C13059  11.519   2.441  -0.235  0.0861 -1.3463 -0.3563
  838MOL0     C13060  11.472   2.447  -0.348 -0.1909 -0.7043 -0.1061
  838MOL0     C13061  10.925   2.625   0.264  1.7553  0.3301  0.6838
  838MOL0     C13062  10.859   2.693   0.371  0.5399 -0.0715  0.5781
  838MOL0     H13063  10.595   2.636   0.672 -0.2224 -1.0791  3.5636
  838MOL0     H13064  10.424   2.655   0.854 -1.5183  0.3344  1.4222
  838MOL0     H13065  10.230   2.791   0.866  0.3877 -1.2281  0.2623
  838MOL0     H13066  10.228   2.703   1.019 -3.3624  0.2255  0.6587
  838MOL0     H13067  10.105   2.883   1.134  1.2602  0.0270  0.0988
  838MOL0     H13068  10.157   2.993   0.999  4.8712 -0.7282  2.3965
  838MOL0     H13069  10.001   2.900   0.862  1.6275 -1.6838  0.6786
  838MOL0     H13070   9.956   2.758   0.966 -0.9894 -0.2684 -1.2371
  838MOL0     H13071   9.869   2.896   1.140 -0.5748 -1.6172 -1.7585
  838MOL0     H13072   9.906   3.039   1.055  0.7673  0.8534 -0.9837
  838MOL0     H13073   9.746   2.942   0.852 -1.2642  1.9939 -0.3454
  838MOL0     H13074   9.708   2.823   0.966 -4.2679  1.5774 -0.2421
  838MOL0     H13075   9.631   2.992   1.134 -0.6423  0.3264 -0.4493
  838MOL0     H13076   9.671   3.116   1.017 -0.0841  1.0147  2.5688
  838MOL0     H13077   9.511   3.003   0.858 -0.0598  4.8689 -0.3066
  838MOL0     H13078   9.476   2.889   0.984  0.4787  0.0980  0.8083
  838MOL0     H13079   9.332   3.111   0.923  0.3846 -0.3173  0.0403
  838MOL0     H13080   9.435   3.190   1.051  0.8659 -0.8991  0.8864
  838MOL0     H13081   9.456   2.898   1.231  0.0717  0.4998  0.0508
  838MOL0     H13082   9.155   2.794   1.400 -0.2265  1.0454  0.3509
  838MOL0     H13083   9.334   2.778   1.409 -1.2532 -2.1131 -3.2016
  838MOL0     H13084   9.174   2.996   1.530  0.4185  1.3319 -0.1901
  838MOL0     H13085   9.343   2.970   1.573 -0.0293 -1.3586  4.4891
  838MOL0     H13086   9.255   2.870   1.755  2.5159  2.3020 -1.9028
  838MOL0     H13087   9.244   2.729   1.655 -1.5933 -0.3940 -2.5717
  838MOL0     H13088   9.013   2.931   1.691  0.8760 -0.1658 -0.4026
  838MOL0     H13089   9.048   2.791   1.782  2.4944 -0.7388  0.0535
  838MOL0     H13090   8.847   2.650   1.434  2.3558  3.7599  1.6194
  838MOL0     H13091   8.619   2.428   1.455  0.0812 -0.0613  0.4682
  838MOL0     H13092   8.501   2.545   1.375  0.5710  1.6160  0.5585
  838MOL0     H13093   8.664   2.549   1.323 -0.9917 -1.6539 -1.3885
  838MOL0     H13094   8.303   2.246   1.571  1.5896  1.9661  0.1640
  838MOL0     H13095   8.070   2.166   1.578  1.0664 -0.3782 -1.3079
  838MOL0     H13096   7.773   2.475   1.722  0.9816 -0.5016 -0.9760
  838MOL0     H13097   7.670   2.372   1.618 -0.1088  0.4998 -0.0045
  838MOL0     H13098   7.691   2.182   1.757  1.7457 -0.7583  2.8571
  838MOL0     H13099   7.781   2.277   1.870 -3.3186 -0.9007  2.3719
  838MOL0     H13100   7.594   2.444   1.856  0.1161  0.4602  0.5883
  838MOL0     H13101   7.547   2.289   1.938 -2.9829 -2.5912 -2.4217
  838MOL0     H13102   7.474   2.357   1.644  1.1810  2.9898  0.5722
  838MOL0     H13103   7.426   2.215   1.734  0.3446 -0.7995  0.2936
  838MOL0     H13104   7.349   2.497   1.813 -2.5826  0.9110  1.3768
  838MOL0     H13105   7.298   2.354   1.892  2.7375  1.6733  1.7406
  838MOL0     H13106   7.248   2.430   1.596 -0.0464 -1.6983 -1.4847
  838MOL0     H13107   7.232   2.264   1.650  0.1574  0.4560  0.1882
  838MOL0     H13108   7.081   2.486   1.780  6.8555 -0.2410  2.3922
  838MOL0     H13109   7.086   2.307   1.815  5.1392 -1.2665 -0.7153
  838MOL0     H13110   6.882   2.354   1.694  0.6970 -0.5957  0.7455
  838MOL0     H13111   6.991   2.261   1.587  2.7240  0.0580 -2.8366
  838MOL0     H13112   7.949   2.557   1.694 -2.8827 -1.7513 -1.7753
  838MOL0     H13113   8.163   2.645   1.659 -2.8082 -0.4798  2.1377
  838MOL0     H13114   8.605   2.683   1.857 -2.4001  3.6522 -0.2536
  838MOL0     H13115   8.831   2.777   1.837  3.1025 -0.6989 -0.9668
  838MOL0     H13116  10.536   3.050   0.917 -1.3970  0.0091  0.0812
  838MOL0     H13117  10.687   3.044   0.722 -0.5264 -1.3830 -1.3799
  838MOL0     H13118  11.076   2.945   0.409  1.8462 -0.9658 -0.6429
  838MOL0     H13119  11.186   2.822   0.233 -0.8731 -0.5413 -2.2589
  838MOL0     H13120  11.210   2.729   0.005 -2.9388 -0.0265 -0.2306
  838MOL0     H13121  11.289   2.663   0.155  3.5652 -1.8446 -2.6334
  838MOL0     H13122  11.253   2.510  -0.095 -0.5372 -2.2889  0.1373
  838MOL0     H13123  11.299   2.431   0.057 -0.2231 -0.2082 -0.4965
  838MOL0     H13124  11.487   2.541   0.099 -1.3412  1.6918  1.8152
  838MOL0     H13125  11.471   2.659  -0.044  0.4227  0.3147  0.0216
  838MOL0     H13126  11.515   2.350  -0.051 -0.1591 -1.1714 -3.0951
  838MOL0     H13127  11.639   2.473  -0.059  0.2851 -0.5032  0.1586
  838MOL0     H13128  11.412   2.438  -0.436  0.4090  0.3904 -0.6366
  838MOL0     H13129  10.882   2.536   0.220  1.1592  0.8125  0.2523
  838MOL0     H13130  10.767   2.641   0.397  0.6886 -1.6058 -1.6409
  839MOL0     O13131  10.266   9.304   8.951 -0.4749 -0.3816 -0.3216
  839MOL0     C13132  10.378   9.340   8.922 -0.1909  0.0362  0.0020
  839MOL0     O13133  10.421   9.373   8.790 -0.4770  0.4816 -1.4066
  839MOL0     C13134  10.328   9.380   8.691 -1.0124  0.2675 -0.4519
  839MOL0     C13135  10.300   9.496   8.626  0.3405  0.6139  0.5026
  839MOL0     C13136  10.210   9.506   8.516  0.3421  0.6869 -0.5496
  839MOL0     C13137  10.143   9.387   8.483 -0.6687 -0.3270  0.0347
  839MOL0     O13138  10.054   9.382   8.380  0.3501  0.6734 -1.2872
  839MOL0     C13139  10.097   9.423   8.252 -0.7220  0.6461  0.3558
  839MOL0     C13140   9.982   9.469   8.154  0.4910 -0.0389 -0.0372
  839MOL0     C13141  10.033   9.464   8.012  0.3672 -0.0399  0.0863
  839MOL0     C13142   9.920   9.525   7.927  0.0217 -0.2062 -0.4901
  839MOL0     C13143   9.953   9.542   7.778  0.5266 -0.4974  0.5414
  839MOL0     C13144   9.840   9.597   7.682 -0.4946  0.0600 -0.9444
  839MOL0     C13145   9.882   9.634   7.542  0.1641  0.0983 -0.3029
  839MOL0     C13146   9.870   9.516   7.440 -0.0587 -0.3344 -0.8222
  839MOL0     N13147   9.890   9.546   7.299  0.6889 -0.1731  0.3198
  839MOL0     C13148   9.975   9.639   7.244 -0.4669 -0.8087  0.1158
  839MOL0     C13149  10.000   9.595   7.117 -0.1680  0.5663  0.2798
  839MOL0     C13150  10.101   9.655   7.015  0.5493  0.3327 -0.4579
  839MOL0     C13151  10.043   9.744   6.904 -0.0818 -0.2628 -0.3895
  839MOL0     C13152  10.018   9.887   6.953 -0.7482  0.7348 -0.2848
  839MOL0     C13153   9.883   9.925   7.001 -0.5030 -0.5448 -0.2999
  839MOL0     O13154   9.792   9.918   6.890 -0.7299  0.5439 -0.7388
  839MOL0     C13155   9.696  10.009   6.872  0.3626 -0.5572  0.0330
  839MOL0     C13156   9.667  10.030   6.741 -0.4659 -0.4262  0.7932
  839MOL0     C13157   9.575  10.138   6.701  0.2676 -0.6781  0.5851
  839MOL0     C13158   9.549  10.157   6.551 -0.8460 -0.0784 -0.0711
  839MOL0     C13159   9.521  10.224   6.804 -0.0347 -0.3124  0.4685
  839MOL0     C13160   9.445  10.343   6.785  1.5098 -0.6328 -0.5241
  839MOL0     O13161   9.351  10.380   6.883  0.3684 -0.4729  0.0103
  839MOL0     C13162   9.294  10.506   6.888 -0.8779  1.3179 -0.5803
  839MOL0     C13163   9.180  10.523   6.963  0.6357 -0.9015  0.5136
  839MOL0     C13164   9.123  10.656   6.971  0.3841 -0.2528 -0.0295
  839MOL0     C13165   9.181  10.773   6.910  0.9617 -0.5133 -0.7745
  839MOL0     O13166   9.123  10.895   6.939  0.4965 -0.1137 -0.8124
  839MOL0     C13167   9.130  11.007   6.842  0.7795  0.0543 -0.4465
  839MOL0     C13168   9.157  11.133   6.932 -0.2149 -0.1550  0.0799
  839MOL0     C13169   9.188  11.267   6.861 -0.3124 -0.2329 -0.0123
  839MOL0     C13170   9.238  11.374   6.959 -0.2851 -0.0640 -1.2300
  839MOL0     C13171   9.280  11.511   6.895 -0.3811 -0.3423  0.6281
  839MOL0     C13172   9.406  11.566   6.958  0.1221  0.1722 -0.6026
  839MOL0     C13173   9.459  11.674   6.876 -0.2602  0.4028 -0.0700
  839MOL0     C13174   9.357  11.794   6.854  0.0032  0.1233  0.4455
  839MOL0    Cl13175   9.425  11.912   6.739  0.0058 -0.0155 -0.1147
  839MOL0     C13176   9.299  10.750   6.843  0.0781 -0.8834 -0.3415
  839MOL0     C13177   9.352  10.622   6.835 -0.5969 -0.5516 -0.3298
  839MOL0     O13178   9.468  10.417   6.689 -0.7252  1.0819  0.3010
  839MOL0     C13179   9.544  10.196   6.930 -0.4896  0.0422  0.3482
  839MOL0     C13180   9.633  10.088   6.970  0.2433 -0.2339  0.2002
  839MOL0     N13181   9.915   9.484   7.094  0.2460 -0.3760  0.0797
  839MOL0     N13182   9.854   9.459   7.203 -0.4483 -0.4121 -0.0695
  839MOL0     C13183  10.161   9.268   8.552  0.2280  0.2837 -0.1370
  839MOL0     C13184  10.255   9.258   8.654  0.6257  0.3803 -1.5198
  839MOL0     C13185  10.472   9.370   9.028 -0.2730 -0.8108 -0.3856
  839MOL0     C13186  10.430   9.425   9.153  1.0640 -0.3354 -0.4055
  839MOL0     C13187  10.527   9.446   9.249 -0.3355  0.1828  1.3270
  839MOL0     C13188  10.664   9.415   9.234 -0.1960 -1.3048  0.2950
  839MOL0     O13189  10.758   9.428   9.333  0.0982  0.1933  0.0233
  839MOL0     C13190  10.732   9.520   9.441 -0.6106  0.2486  0.5244
  839MOL0     C13191  10.863   9.534   9.518 -0.2846  0.8564  0.0348
  839MOL0     C13192  10.919   9.404   9.589  0.1956  0.0779 -0.4402
  839MOL0     C13193  11.051   9.428   9.658 -0.1014  0.7361  0.3954
  839MOL0     C13194  11.164   9.470   9.573 -0.1862  0.1682  0.1679
  839MOL0     C13195  11.249   9.513   9.497 -0.1193  1.0850  0.3025
  839MOL0     C13196  10.689   9.377   9.107 -0.4615  0.4374  0.3411
  839MOL0     C13197  10.608   9.350   9.007 -0.2194  0.3759  0.4514
  839MOL0     H13198  10.346   9.588   8.663 -1.0206  0.7121  2.0875
  839MOL0     H13199  10.182   9.592   8.456 -3.0395 -1.1515 -1.8626
  839MOL0     H13200  10.165   9.507   8.268  2.0759 -1.3091 -0.4665
  839MOL0     H13201  10.159   9.344   8.210 -0.3314 -0.1800  2.3400
  839MOL0     H13202   9.885   9.423   8.173  1.4762 -0.6909  4.2949
  839MOL0     H13203   9.970   9.574   8.181  1.1452 -0.2850  1.2868
  839MOL0     H13204  10.132   9.508   7.992 -0.1952  1.6421  0.7713
  839MOL0     H13205  10.041   9.357   7.993  1.0470  0.1579 -0.8182
  839MOL0     H13206   9.840   9.451   7.921  0.0811 -0.2429 -0.8814
  839MOL0     H13207   9.883   9.617   7.973  1.1661  0.9350 -1.7541
  839MOL0     H13208  10.042   9.606   7.769 -0.6243  0.8543 -2.3664
  839MOL0     H13209   9.996   9.453   7.733  0.9139  0.1862 -0.4732
  839MOL0     H13210   9.755   9.529   7.682 -0.5083 -0.1576  3.1727
  839MOL0     H13211   9.811   9.689   7.734 -1.2286 -1.0397  0.6464
  839MOL0     H13212   9.795   9.695   7.518 -0.1340  0.6884  2.0462
  839MOL0     H13213   9.980   9.683   7.547 -0.1302  0.5846  3.1342
  839MOL0     H13214   9.771   9.470   7.450 -0.4273  0.8279  1.6030
  839MOL0     H13215   9.941   9.437   7.470 -1.6586 -1.7836 -0.7009
  839MOL0     H13216  10.017   9.728   7.291 -2.2818  0.0034  0.2533
  839MOL0     H13217  10.171   9.715   7.073 -3.3713  2.1619  2.9503
  839MOL0     H13218  10.157   9.576   6.964 -0.1099 -0.4711  0.0342
  839MOL0     H13219   9.954   9.691   6.868 -1.2137  0.6159  0.9792
  839MOL0     H13220  10.120   9.743   6.826  0.7665 -5.3857  0.2095
  839MOL0     H13221  10.055   9.956   6.877  1.8442 -0.9419 -0.6744
  839MOL0     H13222  10.089   9.910   7.032 -2.8161  1.5084  1.4301
  839MOL0     H13223   9.874  10.020   7.055 -2.8060 -1.2778  0.7704
  839MOL0     H13224   9.863   9.851   7.079  0.7558  0.7874  1.3652
  839MOL0     H13225   9.703   9.964   6.663  0.4292 -0.3575  1.1454
  839MOL0     H13226   9.587  10.067   6.502 -2.8867 -1.2176  0.3002
  839MOL0     H13227   9.440  10.158   6.544 -0.8098  0.0074 -0.6475
  839MOL0     H13228   9.603  10.244   6.513  1.4035 -1.2055  0.3974
  839MOL0     H13229   9.135  10.434   7.007  0.2246  0.2476  2.5656
  839MOL0     H13230   9.028  10.678   7.018  2.0078  1.0648  2.8735
  839MOL0     H13231   9.206  10.997   6.763  2.7116  3.4273  0.7490
  839MOL0     H13232   9.029  11.030   6.807 -1.2078  3.6058  5.8925
  839MOL0     H13233   9.060  11.132   6.982 -1.2374 -2.3677 -1.7812
  839MOL0     H13234   9.241  11.114   7.000  2.4518 -2.5777 -3.4949
  839MOL0     H13235   9.104  11.305   6.802 -3.4550 -2.8688  2.3784
  839MOL0     H13236   9.269  11.242   6.792  1.4662 -0.5037  2.0402
  839MOL0     H13237   9.163  11.393   7.037 -0.5545  1.1772 -1.7539
  839MOL0     H13238   9.321  11.326   7.012 -1.3214  2.2607  2.9686
  839MOL0     H13239   9.205  11.590   6.906  0.2551  0.6872 -1.7662
  839MOL0     H13240   9.313  11.496   6.792  3.3126 -2.3569  1.9021
  839MOL0     H13241   9.367  11.618   7.046 -3.1687 -0.1264 -1.7393
  839MOL0     H13242   9.485  11.492   6.972 -0.4721 -0.6174 -1.3202
  839MOL0     H13243   9.483  11.637   6.776 -0.1440  0.2705  0.0065
  839MOL0     H13244   9.550  11.713   6.923  1.1539 -2.6494 -0.0653
  839MOL0     H13245   9.355  11.842   6.953 -2.0043 -1.8317  1.4401
  839MOL0     H13246   9.253  11.770   6.831  1.0651 -3.1371 -1.7326
  839MOL0     H13247   9.366  10.826   6.803  2.2928 -2.4051  0.3725
  839MOL0     H13248   9.447  10.620   6.782  0.2436  1.9219  0.9214
  839MOL0     H13249   9.489  10.245   7.010  1.8640  0.5601  1.7364
  839MOL0     H13250   9.640  10.066   7.076  0.8231  3.0116  0.9566
  839MOL0     H13251  10.094   9.190   8.516 -0.3844  2.1132 -3.2763
  839MOL0     H13252  10.276   9.158   8.691 -0.1486  0.1491 -1.6769
  839MOL0     H13253  10.326   9.425   9.183  0.8687  2.8233 -0.7462
  839MOL0     H13254  10.491   9.472   9.348  1.5060  0.3310  1.9974
  839MOL0     H13255  10.700   9.619   9.408 -0.2404  0.6041  1.2234
  839MOL0     H13256  10.661   9.466   9.505  1.0273 -0.7884  1.5341
  839MOL0     H13257  10.849   9.611   9.594  1.5064  1.0842  0.1766
  839MOL0     H13258  10.937   9.569   9.446 -0.1275 -3.0876 -1.9520
  839MOL0     H13259  10.928   9.326   9.513  3.1583  0.0224 -0.1263
  839MOL0     H13260  10.846   9.366   9.660 -1.4108  0.3708 -1.8552
  839MOL0     H13261  11.089   9.343   9.716 -1.4394  1.4952  2.5269
  839MOL0     H13262  11.038   9.513   9.727  1.5424  1.5614 -0.2600
  839MOL0     H13263  11.310   9.545   9.415  0.5234 -6.0868 -2.7856
  839MOL0     H13264  10.793   9.354   9.087  0.0138  3.4894 -1.3504
  839MOL0     H13265  10.630   9.311   8.908 -1.9347 -0.0196  0.1945
  840MOL0     O13266   3.151   5.130   3.583  0.2341 -0.1108 -0.1608
  840MOL0     C13267   3.196   5.224   3.644 -0.3966  0.4093  0.5373
  840MOL0     O13268   3.325   5.266   3.643 -0.8116 -0.6766 -0.4846
  840MOL0     C13269   3.424   5.208   3.558 -0.0512 -0.4964 -0.8456
  840MOL0     C13270   3.477   5.286   3.456  0.1923  0.0507  0.9033
  840MOL0     C13271   3.565   5.235   3.363 -0.3913 -0.0245  0.2644
  840MOL0     C13272   3.603   5.105   3.361  0.1854  0.4993 -0.1476
  840MOL0     O13273   3.702   5.062   3.275  0.0169 -0.2049 -0.8170
  840MOL0     C13274   3.816   5.015   3.337  0.1903 -0.2001 -0.2463
  840MOL0     C13275   3.897   4.929   3.236 -0.4725 -0.6739  0.1476
  840MOL0     C13276   4.047   4.903   3.287  0.9416  1.4221  0.6950
  840MOL0     C13277   4.142   5.015   3.246  0.1100 -0.6305  0.3544
  840MOL0     C13278   4.291   5.001   3.298 -0.5273 -0.1713  0.2412
  840MOL0     C13279   4.308   5.059   3.438 -0.0639  0.3377  0.0286
  840MOL0     C13280   4.342   5.203   3.445  0.0214  0.8959  0.8401
  840MOL0     C13281   4.363   5.247   3.580  0.2292  0.1973 -0.1454
  840MOL0     N13282   4.417   5.386   3.592 -0.6309  0.6287 -0.2260
  840MOL0     C13283   4.533   5.443   3.547 -0.3053 -0.4664  0.4451
  840MOL0     C13284   4.535   5.571   3.584  0.5789 -0.8027  0.5480
  840MOL0     C13285   4.660   5.647   3.572 -0.1080 -0.5154 -1.2419
  840MOL0     C13286   4.713   5.665   3.718  0.5124  0.9049 -0.1850
  840MOL0     C13287   4.822   5.776   3.732  0.7158 -0.0344  0.0818
  840MOL0     C13288   4.879   5.781   3.867 -0.3901 -0.2590  0.0910
  840MOL0     O13289   4.976   5.882   3.870  0.1199 -0.1991  0.0391
  840MOL0     C13290   4.936   6.007   3.929  0.7037  0.1079  0.0917
  840MOL0     C13291   4.848   6.023   4.046 -0.3172 -0.3047 -0.7524
  840MOL0     C13292   4.820   6.151   4.102 -0.4124 -0.7755 -1.0096
  840MOL0     C13293   4.710   6.164   4.208  0.0542 -0.5574 -0.1781
  840MOL0     C13294   4.885   6.269   4.044  0.9369 -0.3455  0.7751
  840MOL0     C13295   4.880   6.407   4.107  0.9450 -0.1092  0.5015
  840MOL0     O13296   4.914   6.519   4.036 -0.3841 -0.0095  0.4470
  840MOL0     C13297   4.910   6.646   4.092 -0.0512  0.3892 -1.0872
  840MOL0     C13298   4.804   6.685   4.172  0.3810 -0.7925 -0.4096
  840MOL0     C13299   4.787   6.806   4.236 -0.0320 -0.2483  0.3017
  840MOL0     C13300   4.890   6.898   4.217 -0.7668 -0.5315  0.7738
  840MOL0     O13301   4.864   7.028   4.261  0.1590 -0.0784  0.6342
  840MOL0     C13302   4.972   7.121   4.275 -0.0385 -0.3465 -0.5102
  840MOL0     C13303   5.072   7.086   4.388  0.9409 -0.0958  0.0908
  840MOL0     C13304   4.993   7.070   4.525  0.2701  0.1805 -0.3211
  840MOL0     C13305   5.090   7.036   4.638  0.1943  0.3641 -0.1657
  840MOL0     C13306   5.036   7.099   4.765  0.0944 -0.1575  0.1248
  840MOL0     C13307   5.144   7.082   4.869 -0.1454  0.0815  0.7369
  840MOL0     C13308   5.118   7.162   4.997 -0.0602 -0.3266  0.0193
  840MOL0     C13309   5.112   7.310   4.987 -0.6617  0.2667 -0.1437
  840MOL0    Cl13310   5.132   7.366   5.161 -0.0097 -0.1692 -0.1851
  840MOL0     C13311   5.008   6.865   4.143 -1.2227  0.4674 -0.0223
  840MOL0     C13312   5.018   6.736   4.079  0.9366 -0.0304  0.0540
  840MOL0     O13313   4.849   6.414   4.225  0.4197  0.0120 -0.1132
  840MOL0     C13314   4.966   6.253   3.936 -0.5207  0.8769  0.2831
  840MOL0     C13315   4.992   6.125   3.874 -0.4209 -0.4844 -0.0839
  840MOL0     N13316   4.410   5.598   3.634  0.6597  0.1336 -0.3673
  840MOL0     N13317   4.341   5.489   3.644  0.1394 -0.0953 -0.1495
  840MOL0     C13318   3.561   5.022   3.471 -0.1861 -0.4847  0.6856
  840MOL0     C13319   3.469   5.073   3.567 -1.0439 -0.4507  0.6379
  840MOL0     C13320   3.108   5.281   3.747 -0.7085 -0.4089 -0.3818
  840MOL0     C13321   3.166   5.382   3.817  0.1221  0.2243  0.1685
  840MOL0     C13322   3.096   5.465   3.908  1.2058 -0.1937 -0.2947
  840MOL0     C13323   2.963   5.432   3.947  0.7193 -0.3325 -0.9899
  840MOL0     O13324   2.893   5.506   4.038 -0.1969  0.3931  0.0536
  840MOL0     C13325   2.772   5.437   4.096 -0.8654 -0.3992 -0.3060
  840MOL0     C13326   2.721   5.520   4.214  0.2568  0.7388 -0.6512
  840MOL0     C13327   2.784   5.490   4.349 -0.4487  0.0118  0.2780
  840MOL0     C13328   2.765   5.597   4.455 -0.6995 -0.3969 -0.2135
  840MOL0     C13329   2.825   5.732   4.436 -1.1418  0.4742 -0.2559
  840MOL0     C13330   2.892   5.833   4.417 -0.5793 -0.3346 -0.1076
  840MOL0     C13331   2.906   5.326   3.872  0.6936 -0.7069  1.3840
  840MOL0     C13332   2.978   5.255   3.769  0.7382 -0.2680 -0.3580
  840MOL0     H13333   3.456   5.390   3.437 -0.2571 -0.0311  0.9506
  840MOL0     H13334   3.604   5.309   3.294 -1.9199 -0.1327 -0.7709
  840MOL0     H13335   3.877   5.103   3.360  0.6708 -0.1220 -1.6803
  840MOL0     H13336   3.798   4.955   3.426  1.5376 -2.6051 -1.4957
  840MOL0     H13337   3.845   4.835   3.216  0.5965 -0.8037 -2.4501
  840MOL0     H13338   3.911   4.981   3.141  1.4914  0.0997  0.7999
  840MOL0     H13339   4.042   4.902   3.397  1.0670 -3.3099  0.8641
  840MOL0     H13340   4.079   4.807   3.247 -0.5517  1.0098  0.4570
  840MOL0     H13341   4.146   5.012   3.137  0.9776 -1.3142  0.3885
  840MOL0     H13342   4.095   5.102   3.291  1.6262  0.6044 -0.3682
  840MOL0     H13343   4.313   4.894   3.299 -1.9695 -0.4984  1.7699
  840MOL0     H13344   4.365   5.049   3.233 -0.3011  2.0732  2.0512
  840MOL0     H13345   4.214   5.030   3.484  0.1845 -1.6774 -0.6203
  840MOL0     H13346   4.383   5.004   3.496 -0.0281 -0.2541 -0.5595
  840MOL0     H13347   4.439   5.212   3.395  0.3456  1.2356  1.5123
  840MOL0     H13348   4.262   5.259   3.394  1.2250  1.4613 -0.5030
  840MOL0     H13349   4.439   5.182   3.626 -0.7536 -0.4139  0.6685
  840MOL0     H13350   4.273   5.241   3.643  0.8879  0.4688  0.8513
  840MOL0     H13351   4.613   5.381   3.511 -1.4047 -0.0322 -3.0784
  840MOL0     H13352   4.738   5.598   3.513 -0.6063 -0.4003 -2.0181
  840MOL0     H13353   4.640   5.744   3.524  0.4288 -0.5570 -1.5633
  840MOL0     H13354   4.760   5.576   3.760 -0.3324  1.5365  2.2983
  840MOL0     H13355   4.632   5.697   3.785  0.5384  1.6725 -0.5066
  840MOL0     H13356   4.776   5.871   3.704  0.4395 -0.1991 -0.0225
  840MOL0     H13357   4.900   5.755   3.659 -1.1348 -0.7152 -1.7775
  840MOL0     H13358   4.918   5.685   3.901 -1.6914 -0.1858  1.9308
  840MOL0     H13359   4.796   5.812   3.931  1.0469  1.8776  1.0547
  840MOL0     H13360   4.802   5.936   4.092  3.7665 -2.0169  0.5453
  840MOL0     H13361   4.655   6.257   4.220  1.3397 -0.0347  2.4005
  840MOL0     H13362   4.640   6.082   4.187  0.1050 -1.0980  1.6030
  840MOL0     H13363   4.746   6.139   4.308 -0.8801  1.6129  0.7520
  840MOL0     H13364   4.732   6.609   4.198 -0.5817 -0.5842 -2.3095
  840MOL0     H13365   4.709   6.834   4.306 -1.0442  0.9499 -1.2565
  840MOL0     H13366   5.022   7.142   4.180  1.4398 -0.9983  0.1016
  840MOL0     H13367   4.933   7.217   4.310 -1.4104 -1.0454 -0.0299
  840MOL0     H13368   5.116   6.989   4.364 -2.8357 -2.0366  0.2342
  840MOL0     H13369   5.143   7.168   4.401 -1.7530  2.0037  3.0843
  840MOL0     H13370   4.922   6.988   4.515  1.6380 -0.7712 -3.9851
  840MOL0     H13371   4.936   7.159   4.553  1.1211  0.9823 -1.0369
  840MOL0     H13372   5.091   6.927   4.649 -2.1899  0.3463  0.4947
  840MOL0     H13373   5.192   7.072   4.622  0.8500 -1.2327  0.2366
  840MOL0     H13374   4.952   7.046   4.810  1.2283 -1.4158  0.8753
  840MOL0     H13375   5.013   7.202   4.737  0.2975 -0.3564 -0.8136
  840MOL0     H13376   5.169   6.976   4.881  3.4417  0.6298 -0.7752
  840MOL0     H13377   5.236   7.119   4.823 -0.3024 -1.4555 -0.9009
  840MOL0     H13378   5.193   7.133   5.072 -0.7884 -1.8094  0.2151
  840MOL0     H13379   5.020   7.133   5.036  0.1232 -0.7253  0.1816
  840MOL0     H13380   5.017   7.341   4.942 -0.8976 -1.0806 -0.6276
  840MOL0     H13381   5.195   7.344   4.924 -1.5454  3.2500  0.1608
  840MOL0     H13382   5.099   6.923   4.126  0.6615 -2.0694  0.7965
  840MOL0     H13383   5.117   6.714   4.040 -0.2458 -2.6795 -1.6943
  840MOL0     H13384   5.014   6.340   3.893 -1.2615 -0.2899 -3.2589
  840MOL0     H13385   5.056   6.130   3.786 -0.5074  0.3716 -0.1056
  840MOL0     H13386   3.590   4.918   3.456  1.6996  0.1194 -0.0766
  840MOL0     H13387   3.429   5.001   3.637 -0.9520 -0.7847  0.3541
  840MOL0     H13388   3.266   5.420   3.797  0.6017 -0.1717  1.6743
  840MOL0     H13389   3.146   5.550   3.955  0.6104  0.1772 -0.3173
  840MOL0     H13390   2.691   5.425   4.024  2.4769  1.0647 -4.8209
  840MOL0     H13391   2.788   5.335   4.133  3.9545  0.8131  1.8003
  840MOL0     H13392   2.614   5.504   4.224  0.6310 -0.7708  1.8218
  840MOL0     H13393   2.734   5.629   4.206 -2.0173  1.5413  3.5620
  840MOL0     H13394   2.890   5.497   4.322 -1.0328  3.0546 -1.7003
  840MOL0     H13395   2.745   5.396   4.390  0.4835 -0.8178 -0.6668
  840MOL0     H13396   2.796   5.558   4.552 -0.5083 -2.2026 -0.9606
  840MOL0     H13397   2.656   5.611   4.463 -0.8402 -0.5947 -1.6212
  840MOL0     H13398   2.934   5.927   4.385 -2.1553  0.4737  0.0924
  840MOL0     H13399   2.799   5.309   3.885  0.5741  0.3219  1.8120
  840MOL0     H13400   2.926   5.178   3.713 -0.2269  1.0593 -1.3407
  841MOL0     O13401   1.478  11.255   7.843  0.3124  0.1063 -0.2378
  841MOL0     C13402   1.373  11.317   7.805 -0.1976 -0.2231  0.3777
  841MOL0     O13403   1.250  11.319   7.863  0.1329 -0.6024 -0.5035
  841MOL0     C13404   1.237  11.242   7.970 -0.3080  0.3138 -0.2124
  841MOL0     C13405   1.188  11.110   7.970  0.1207 -0.3719 -1.7145
  841MOL0     C13406   1.185  11.033   8.088 -0.3711 -0.1865 -0.2105
  841MOL0     C13407   1.212  11.091   8.214 -0.2646 -0.5051  0.2055
  841MOL0     O13408   1.188  11.031   8.334 -0.0866  0.6468  0.2736
  841MOL0     C13409   1.121  10.909   8.348  0.3350 -0.1382 -0.3007
  841MOL0     C13410   1.139  10.853   8.487  0.0535  0.2180  0.3711
  841MOL0     C13411   1.287  10.825   8.521  0.8320  0.6419 -0.3362
  841MOL0     C13412   1.314  10.779   8.670  0.0128 -0.3534 -0.1351
  841MOL0     C13413   1.471  10.787   8.695 -1.0402 -0.8170  0.6000
  841MOL0     C13414   1.517  10.761   8.842  0.8609 -0.4687 -0.8636
  841MOL0     C13415   1.431  10.662   8.923  0.4304 -0.4860  0.4091
  841MOL0     C13416   1.494  10.630   9.055 -0.2821  0.9449 -0.7519
  841MOL0     N13417   1.402  10.531   9.132 -1.1722 -0.1701  0.8298
  841MOL0     C13418   1.401  10.398   9.106  0.7297 -0.0568  0.1056
  841MOL0     C13419   1.327  10.345   9.208 -0.4197 -0.2515 -0.7513
  841MOL0     C13420   1.294  10.198   9.231  1.2959 -0.2233 -0.4761
  841MOL0     C13421   1.135  10.184   9.253 -1.3096  0.5013 -0.5182
  841MOL0     C13422   1.096  10.033   9.277  0.2384 -0.6095  0.6111
  841MOL0     C13423   1.135   9.945   9.148  0.4074  0.0189 -0.8231
  841MOL0     O13424   1.084   9.996   9.027 -0.1109 -0.3469 -0.3172
  841MOL0     C13425   0.947  10.003   8.996 -0.6827 -0.0846 -0.1873
  841MOL0     C13426   0.845   9.920   9.044  1.1690  0.5223 -0.3965
  841MOL0     C13427   0.711   9.913   8.989  0.2023  0.0433 -0.0254
  841MOL0     C13428   0.620   9.810   9.042  0.4293 -0.3421 -0.1783
  841MOL0     C13429   0.678  10.005   8.887 -0.8422 -0.2609  1.1160
  841MOL0     C13430   0.552  10.000   8.812  0.5818 -1.0051  0.9213
  841MOL0     O13431   0.528  10.117   8.739  0.1875  0.2054 -0.1638
  841MOL0     C13432   0.422  10.116   8.657 -0.2739  1.0156 -0.2761
  841MOL0     C13433   0.296  10.123   8.712 -0.6323 -0.6134  0.2876
  841MOL0     C13434   0.189  10.124   8.630 -0.5686 -0.0030 -1.0549
  841MOL0     C13435   0.202  10.131   8.490  0.0963 -0.4969  0.2305
  841MOL0     O13436   0.083  10.132   8.422  0.3679 -0.3112  0.3776
  841MOL0     C13437   0.065  10.232   8.323 -0.1663 -0.6262  0.2340
  841MOL0     C13438  -0.073  10.236   8.255  0.3755  0.0496 -1.1808
  841MOL0     C13439  -0.084  10.318   8.127  0.2685 -0.5870  0.4145
  841MOL0     C13440  -0.224  10.328   8.050 -0.6299 -0.3059  0.6548
  841MOL0     C13441  -0.203  10.407   7.918 -0.4354 -0.7407 -0.0480
  841MOL0     C13442  -0.324  10.401   7.828 -0.0162 -0.3136  0.9965
  841MOL0     C13443  -0.297  10.461   7.683  0.0359  0.3181 -0.2576
  841MOL0     C13444  -0.425  10.489   7.611  0.1693  0.4098 -0.2855
  841MOL0    Cl13445  -0.482  10.655   7.663 -0.6496 -0.2102 -0.0019
  841MOL0     C13446   0.328  10.108   8.436  0.3599  0.2337 -0.0746
  841MOL0     C13447   0.438  10.091   8.524  0.8647  0.7335  0.2425
  841MOL0     O13448   0.475   9.906   8.816 -0.0704 -0.0195 -0.3613
  841MOL0     C13449   0.776  10.097   8.844  0.7564 -0.6451 -0.3207
  841MOL0     C13450   0.905  10.102   8.901 -0.1530 -0.1862  0.1102
  841MOL0     N13451   1.274  10.443   9.285 -0.4048 -0.6566  0.6115
  841MOL0     N13452   1.328  10.550   9.242  0.0384  0.0750 -1.0370
  841MOL0     C13453   1.268  11.220   8.212 -0.5201 -0.2825 -0.7957
  841MOL0     C13454   1.271  11.297   8.095 -0.2305  0.9736  0.9841
  841MOL0     C13455   1.377  11.400   7.688 -0.0853 -0.2438 -0.2375
  841MOL0     C13456   1.498  11.404   7.605 -0.1212 -1.0565 -0.2674
  841MOL0     C13457   1.506  11.489   7.497  0.3925  0.0783  0.0668
  841MOL0     C13458   1.406  11.586   7.468 -0.3887 -0.9355 -0.2409
  841MOL0     O13459   1.408  11.670   7.357 -0.1431  0.9913  0.0046
  841MOL0     C13460   1.539  11.711   7.315  0.0724 -0.1407 -0.2165
  841MOL0     C13461   1.597  11.813   7.420  0.1541  0.6042  0.1676
  841MOL0     C13462   1.739  11.853   7.386 -0.3786  0.2165  0.6188
  841MOL0     C13463   1.752  12.003   7.365 -1.1258 -0.1262  0.6286
  841MOL0     C13464   1.742  12.083   7.489  0.0746 -0.2675  0.6939
  841MOL0     C13465   1.748  12.155   7.579 -0.2279  0.2654 -0.7208
  841MOL0     C13466   1.288  11.582   7.552 -0.3067 -0.0983 -0.2231
  841MOL0     C13467   1.278  11.487   7.659 -0.3448  0.3299 -1.0237
  841MOL0     H13468   1.138  11.086   7.876 -1.5701 -0.8404 -0.7268
  841MOL0     H13469   1.151  10.930   8.087 -0.4110 -0.4271  4.4300
  841MOL0     H13470   1.013  10.924   8.340  0.2997  0.4827  0.9688
  841MOL0     H13471   1.161  10.832   8.281  1.1645 -1.6466  1.8114
  841MOL0     H13472   1.099  10.935   8.548 -2.5480 -0.6881  0.0119
  841MOL0     H13473   1.082  10.760   8.495 -2.4483  1.5727 -0.5465
  841MOL0     H13474   1.316  10.741   8.457 -1.3592  1.2664 -2.3003
  841MOL0     H13475   1.344  10.911   8.485  2.0003 -1.1459 -3.1419
  841MOL0     H13476   1.273  10.854   8.738 -0.1689  0.5211 -1.1839
  841MOL0     H13477   1.263  10.683   8.680 -2.7210  1.2123  2.2839
  841MOL0     H13478   1.513  10.717   8.623  0.7124  0.3062  0.4904
  841MOL0     H13479   1.504  10.889   8.675 -2.1953 -0.5947 -0.2783
  841MOL0     H13480   1.620  10.723   8.844  0.5458 -1.3624  1.5814
  841MOL0     H13481   1.511  10.858   8.892  1.3127 -0.6914 -0.3689
  841MOL0     H13482   1.326  10.692   8.921  0.7791  0.8410 -2.5210
  841MOL0     H13483   1.431  10.576   8.856  0.6992 -0.3317  0.2121
  841MOL0     H13484   1.496  10.724   9.111  0.8462 -0.4570  1.6858
  841MOL0     H13485   1.596  10.594   9.041 -0.1691 -0.5248  2.9192
  841MOL0     H13486   1.455  10.336   9.035 -2.6928 -0.0262 -2.8155
  841MOL0     H13487   1.328  10.143   9.143  1.2330 -1.0607  0.0146
  841MOL0     H13488   1.337  10.147   9.318 -1.5834 -1.6334  0.2262
  841MOL0     H13489   1.085  10.222   9.163 -2.9521 -1.2129 -0.3999
  841MOL0     H13490   1.110  10.244   9.341  1.8103  0.1226  0.7649
  841MOL0     H13491   0.997  10.024   9.322  0.9407  1.9748  2.9545
  841MOL0     H13492   1.150   9.995   9.365  1.5270 -1.1118 -0.3706
  841MOL0     H13493   1.099   9.843   9.165 -1.4135  0.6345 -0.6794
  841MOL0     H13494   1.243   9.934   9.142  0.5591  1.1541 -0.4589
  841MOL0     H13495   0.883   9.860   9.126  1.1921  0.9813 -0.0664
  841MOL0     H13496   0.526   9.863   9.060  1.3722  2.0540 -1.8256
  841MOL0     H13497   0.606   9.737   8.962 -0.3890 -1.0387  0.5660
  841MOL0     H13498   0.664   9.750   9.122  3.8754 -0.9416 -2.3256
  841MOL0     H13499   0.271  10.138   8.816 -1.3589  0.9199 -0.0836
  841MOL0     H13500   0.091  10.129   8.677 -1.4193  0.0761 -2.7788
  841MOL0     H13501   0.081  10.323   8.381 -1.7571 -2.1180  3.2843
  841MOL0     H13502   0.136  10.218   8.241 -1.2637  0.9230 -1.0187
  841MOL0     H13503  -0.087  10.135   8.215  2.5027  0.2078 -2.4496
  841MOL0     H13504  -0.142  10.269   8.333  3.8079  0.5769  1.9202
  841MOL0     H13505   0.000  10.288   8.065  0.0995  0.5850 -0.4114
  841MOL0     H13506  -0.066  10.423   8.155 -1.1508 -0.1881 -0.0555
  841MOL0     H13507  -0.256  10.226   8.025  1.0428 -0.4842 -1.0409
  841MOL0     H13508  -0.295  10.379   8.116  2.1992  2.1041  2.0341
  841MOL0     H13509  -0.117  10.360   7.869  0.0718  0.6693 -0.5658
  841MOL0     H13510  -0.178  10.512   7.933  3.5651 -1.7658  1.9234
  841MOL0     H13511  -0.354  10.296   7.814  1.2102 -0.7005  1.1253
  841MOL0     H13512  -0.402  10.450   7.886  0.7073  1.6561  0.3842
  841MOL0     H13513  -0.241  10.393   7.619  1.3050 -0.6652  1.7789
  841MOL0     H13514  -0.245  10.558   7.687 -1.2520  1.0115  0.1664
  841MOL0     H13515  -0.499  10.411   7.631  1.6528 -1.0311 -0.2765
  841MOL0     H13516  -0.417  10.486   7.502  1.0835 -2.6976 -0.2197
  841MOL0     H13517   0.342  10.091   8.330  0.1514 -1.6605  0.1767
  841MOL0     H13518   0.531  10.072   8.472  0.9288 -0.1597  0.6847
  841MOL0     H13519   0.751  10.167   8.765 -2.4412 -0.9310  0.2876
  841MOL0     H13520   0.973  10.175   8.860 -0.6877 -0.0313 -0.5155
  841MOL0     H13521   1.281  11.262   8.312 -1.1299 -2.1318  0.0939
  841MOL0     H13522   1.299  11.402   8.094  1.1744  0.6243 -0.7062
  841MOL0     H13523   1.585  11.343   7.626  0.8980  0.0893 -1.0810
  841MOL0     H13524   1.597  11.476   7.439  0.3922 -2.1817  0.4935
  841MOL0     H13525   1.617  11.636   7.299  1.2260  0.5667  1.7233
  841MOL0     H13526   1.538  11.764   7.220 -3.4908  0.9277  0.2815
  841MOL0     H13527   1.597  11.769   7.521 -4.0056 -2.0344 -0.7609
  841MOL0     H13528   1.535  11.904   7.421  1.1149  1.3028  1.8462
  841MOL0     H13529   1.785  11.803   7.301  1.2108  2.4407  0.0706
  841MOL0     H13530   1.808  11.841   7.471  0.7532  0.9619 -0.1574
  841MOL0     H13531   1.676  12.046   7.299 -0.0468 -1.3285 -1.5245
  841MOL0     H13532   1.851  12.010   7.318 -0.8354 -0.6931  1.1422
  841MOL0     H13533   1.748  12.202   7.676  1.0081 -3.3272  1.2023
  841MOL0     H13534   1.209  11.657   7.557 -3.0249 -2.7775 -0.0022
  841MOL0     H13535   1.204  11.501   7.736  3.2982 -0.6294  3.0506
  842MOL0     O13536   3.111   7.293   9.144  0.5853  0.0196  0.6327
  842MOL0     C13537   3.215   7.325   9.085  0.1350  0.1161  0.1668
  842MOL0     O13538   3.256   7.445   9.052  0.3048 -0.3377  0.1261
  842MOL0     C13539   3.174   7.544   9.091 -0.1423  0.8931 -0.4025
  842MOL0     C13540   3.090   7.615   9.013  0.2311  0.8374 -0.5220
  842MOL0     C13541   3.000   7.710   9.069  0.8391  0.4698 -0.3044
  842MOL0     C13542   2.992   7.734   9.204  0.0860 -0.8553 -1.2687
  842MOL0     O13543   2.898   7.805   9.277  0.4693 -0.3576 -0.0389
  842MOL0     C13544   2.762   7.797   9.243  0.1655  0.4851 -0.4446
  842MOL0     C13545   2.719   7.645   9.249 -0.0667 -1.1032 -0.7456
  842MOL0     C13546   2.571   7.621   9.227 -0.8097 -0.7917  0.8490
  842MOL0     C13547   2.496   7.626   9.359 -0.6509 -0.4439  0.4024
  842MOL0     C13548   2.349   7.674   9.337  0.8969  0.8009 -0.5705
  842MOL0     C13549   2.271   7.549   9.292  0.4010 -0.2834  0.2859
  842MOL0     C13550   2.132   7.586   9.256  0.0298 -0.1948 -0.2162
  842MOL0     C13551   2.040   7.456   9.244 -0.6112 -0.2135  0.8307
  842MOL0     N13552   1.902   7.481   9.218 -0.1874 -0.4312 -0.2085
  842MOL0     C13553   1.831   7.436   9.113 -0.1280 -0.5934  0.2912
  842MOL0     C13554   1.698   7.460   9.140 -0.0293  0.0545 -1.0756
  842MOL0     C13555   1.575   7.457   9.053 -0.2084  0.2033 -0.5373
  842MOL0     C13556   1.590   7.538   8.921 -0.7650 -0.7535 -0.2913
  842MOL0     C13557   1.617   7.692   8.946 -0.1129 -0.7654 -0.4563
  842MOL0     C13558   1.680   7.760   8.825  0.8142 -1.0619 -0.6889
  842MOL0     O13559   1.593   7.796   8.718 -0.9727 -0.2046 -0.1170
  842MOL0     C13560   1.639   7.876   8.614 -0.9118 -0.0575 -0.2747
  842MOL0     C13561   1.630   7.827   8.485 -0.0271  0.7564 -1.1754
  842MOL0     C13562   1.668   7.912   8.376  1.0336  0.7159  0.1207
  842MOL0     C13563   1.648   7.863   8.230  0.0189 -0.5533 -0.2920
  842MOL0     C13564   1.725   8.040   8.397 -0.2870  0.0443 -0.3653
  842MOL0     C13565   1.776   8.122   8.285  0.0588  0.6821  0.5666
  842MOL0     O13566   1.764   8.250   8.279  0.8193 -1.2517  0.8693
  842MOL0     C13567   1.757   8.320   8.159  0.1087 -0.8132 -0.4531
  842MOL0     C13568   1.733   8.262   8.033  0.0858  0.4125  0.5482
  842MOL0     C13569   1.723   8.337   7.918 -0.1353  0.0189 -0.2289
  842MOL0     C13570   1.736   8.471   7.906  0.4544 -0.3593 -1.2043
  842MOL0     O13571   1.723   8.546   7.792  0.0704  0.5405 -0.2704
  842MOL0     C13572   1.755   8.478   7.671 -0.2764  0.2139 -0.2929
  842MOL0     C13573   1.629   8.476   7.581 -0.7540 -0.0416  0.0663
  842MOL0     C13574   1.579   8.620   7.555 -0.1983 -0.3033  0.8317
  842MOL0     C13575   1.675   8.713   7.476 -0.7088  0.5557 -0.0422
  842MOL0     C13576   1.602   8.847   7.451 -0.4161  0.2717 -1.1323
  842MOL0     C13577   1.657   8.931   7.343  0.2253 -0.2032  1.2965
  842MOL0     C13578   1.605   9.074   7.334  0.5824 -0.0047  0.6786
  842MOL0     C13579   1.652   9.134   7.208 -0.3015 -0.1868 -0.3396
  842MOL0    Cl13580   1.624   9.310   7.213 -0.3174 -0.1174 -0.5498
  842MOL0     C13581   1.752   8.535   8.028 -0.2346  0.5979  0.2582
  842MOL0     C13582   1.769   8.462   8.155 -0.4664  0.1606  0.3406
  842MOL0     O13583   1.854   8.054   8.215  0.0156  0.0773  0.0011
  842MOL0     C13584   1.724   8.080   8.531  0.8717 -0.3918 -0.0834
  842MOL0     C13585   1.681   7.999   8.640  0.1243 -0.1356  0.1162
  842MOL0     N13586   1.680   7.511   9.264  0.8625 -0.0465  0.0315
  842MOL0     N13587   1.802   7.518   9.307 -0.7144  0.2638 -0.5902
  842MOL0     C13588   3.071   7.654   9.286  0.0143  0.9878  0.7881
  842MOL0     C13589   3.162   7.565   9.226 -0.4093  0.8012 -0.1069
  842MOL0     C13590   3.315   7.220   9.060 -0.4247  0.2437 -0.0423
  842MOL0     C13591   3.415   7.224   8.961  0.3410 -0.3866 -0.0658
  842MOL0     C13592   3.513   7.127   8.966  0.0157  0.6876  0.0714
  842MOL0     C13593   3.512   7.018   9.051 -0.3462 -0.0753  0.5530
  842MOL0     O13594   3.610   6.930   9.067  0.4874  0.0805  0.0089
  842MOL0     C13595   3.732   6.997   9.108 -0.2460 -1.2628  0.6426
  842MOL0     C13596   3.768   6.967   9.254 -0.6910  0.3707  0.4487
  842MOL0     C13597   3.670   7.001   9.357  0.4915  0.0983  0.6289
  842MOL0     C13598   3.710   7.000   9.503  0.2657 -0.3092  0.0740
  842MOL0     C13599   3.798   7.118   9.537 -0.6664 -0.4886  0.3362
  842MOL0     C13600   3.857   7.222   9.565 -0.3771 -0.1076 -0.2584
  842MOL0     C13601   3.399   7.003   9.134 -0.1842 -0.2508  0.3194
  842MOL0     C13602   3.309   7.110   9.152  0.0235  0.4318  0.2670
  842MOL0     H13603   3.088   7.581   8.910 -1.0018 -1.1416  0.1131
  842MOL0     H13604   2.921   7.760   9.014 -0.3698 -0.4408  0.5400
  842MOL0     H13605   2.708   7.867   9.308 -2.0718 -1.1596 -0.4073
  842MOL0     H13606   2.752   7.823   9.138  1.9070 -0.3400 -0.8466
  842MOL0     H13607   2.777   7.588   9.177  1.9883 -0.3912  0.2624
  842MOL0     H13608   2.749   7.607   9.347  4.5848 -0.6532 -1.7917
  842MOL0     H13609   2.541   7.699   9.157 -0.6004 -0.9787  0.5496
  842MOL0     H13610   2.558   7.525   9.176  0.5785 -1.5552  1.8489
  842MOL0     H13611   2.491   7.527   9.406 -2.9173  0.9977  3.5404
  842MOL0     H13612   2.539   7.694   9.433 -0.0693 -1.2156  0.7948
  842MOL0     H13613   2.300   7.704   9.430  2.9074 -1.0288  1.1739
  842MOL0     H13614   2.345   7.747   9.256 -0.9856  1.9536  0.4865
  842MOL0     H13615   2.329   7.500   9.213  2.1249 -0.5942  1.6767
  842MOL0     H13616   2.256   7.481   9.377 -1.2421  0.4306  0.6138
  842MOL0     H13617   2.093   7.651   9.334  0.6065  0.7465 -0.6993
  842MOL0     H13618   2.132   7.647   9.165  1.1093  0.3544  0.1353
  842MOL0     H13619   2.045   7.392   9.332 -3.3754 -0.3681  0.9569
  842MOL0     H13620   2.079   7.397   9.160 -1.3994  0.1850  0.1760
  842MOL0     H13621   1.862   7.397   9.016 -2.2556  3.0659 -2.1102
  842MOL0     H13622   1.544   7.353   9.039 -0.0899  0.2201 -0.9453
  842MOL0     H13623   1.481   7.494   9.094 -0.7607 -0.7979 -0.8818
  842MOL0     H13624   1.506   7.523   8.853 -0.9734  2.0736 -0.7997
  842MOL0     H13625   1.681   7.506   8.869  0.8749  4.2256 -1.0249
  842MOL0     H13626   1.691   7.702   9.025 -0.3590  0.6714 -0.3691
  842MOL0     H13627   1.528   7.747   8.977  1.2586 -0.1174  2.6522
  842MOL0     H13628   1.751   7.684   8.790  5.0887  0.6102  3.2507
  842MOL0     H13629   1.740   7.847   8.855 -1.0939  0.0858 -0.0344
  842MOL0     H13630   1.587   7.730   8.464  0.6899  0.4832 -1.4428
  842MOL0     H13631   1.645   7.946   8.159  2.3303 -0.4639 -0.3860
  842MOL0     H13632   1.734   7.803   8.198  2.8131  2.1290  1.5356
  842MOL0     H13633   1.557   7.803   8.223 -0.7443  0.6528 -0.9509
  842MOL0     H13634   1.712   8.155   8.033  2.1338 -0.0218 -0.4950
  842MOL0     H13635   1.679   8.280   7.837  0.7576 -0.4157 -0.4191
  842MOL0     H13636   1.840   8.526   7.623  1.6719 -0.0807  2.6054
  842MOL0     H13637   1.796   8.377   7.675  0.4602  0.3148 -3.3630
  842MOL0     H13638   1.656   8.422   7.489  0.4521  0.7699 -0.0811
  842MOL0     H13639   1.556   8.419   7.638 -0.6747 -0.5222 -0.3044
  842MOL0     H13640   1.548   8.671   7.647 -2.9682  1.1803 -0.7978
  842MOL0     H13641   1.488   8.609   7.495  0.3935 -0.7194  0.0075
  842MOL0     H13642   1.770   8.717   7.531  0.3368 -1.0183 -1.6168
  842MOL0     H13643   1.703   8.653   7.389  1.9620  0.3024  0.8927
  842MOL0     H13644   1.569   8.898   7.542 -1.6732  0.4327 -1.6467
  842MOL0     H13645   1.499   8.822   7.422 -0.2563 -0.4776 -1.0775
  842MOL0     H13646   1.766   8.929   7.353  0.6086  4.8432  0.6911
  842MOL0     H13647   1.633   8.896   7.243  0.8689 -0.6548  1.2970
  842MOL0     H13648   1.637   9.127   7.424 -2.0132  1.3402  0.8930
  842MOL0     H13649   1.497   9.076   7.319  0.6795 -0.7046 -0.1674
  842MOL0     H13650   1.609   9.083   7.121  0.1257 -0.1784 -0.5576
  842MOL0     H13651   1.761   9.129   7.197 -0.1067  2.0766 -0.0505
  842MOL0     H13652   1.763   8.642   8.042  0.5555  0.4343  0.9135
  842MOL0     H13653   1.781   8.513   8.249  0.0980 -0.8706  0.8511
  842MOL0     H13654   1.768   8.175   8.561  2.6855 -1.0062 -0.7254
  842MOL0     H13655   1.690   8.042   8.740  2.3534  2.0366 -0.8979
  842MOL0     H13656   3.055   7.658   9.393  2.9850 -1.1051  1.4390
  842MOL0     H13657   3.234   7.499   9.274 -0.9483 -1.3026 -1.9639
  842MOL0     H13658   3.410   7.302   8.886  0.4874 -0.1377  0.1854
  842MOL0     H13659   3.595   7.132   8.895 -0.0877  4.4525  0.0348
  842MOL0     H13660   3.813   6.977   9.038 -0.4694 -0.0605  0.0163
  842MOL0     H13661   3.728   7.106   9.100  1.2843 -1.2273  0.2113
  842MOL0     H13662   3.865   7.008   9.285  0.4178 -1.8811  0.1805
  842MOL0     H13663   3.792   6.860   9.248 -0.2846  0.5166 -1.0107
  842MOL0     H13664   3.580   6.944   9.333  2.2474 -1.5173 -2.7610
  842MOL0     H13665   3.653   7.108   9.341 -0.5128  0.0589  1.3132
  842MOL0     H13666   3.752   6.904   9.535 -0.1869 -0.2466  0.8885
  842MOL0     H13667   3.616   7.003   9.559 -1.5994 -0.5866 -2.8334
  842MOL0     H13668   3.907   7.313   9.591 -2.9829  1.3914 -0.1427
  842MOL0     H13669   3.401   6.927   9.211 -0.6616 -0.4641  0.1263
  842MOL0     H13670   3.232   7.109   9.228  0.0238 -0.7463  0.2676
  843MOL0     O13671   3.617   1.898   6.595 -0.8071  0.0351  0.5737
  843MOL0     C13672   3.732   1.907   6.564 -0.0123  0.5240 -0.2102
  843MOL0     O13673   3.840   1.945   6.647  0.3523  0.3568  1.1381
  843MOL0     C13674   3.823   1.962   6.780  0.0843 -0.1459 -0.4736
  843MOL0     C13675   3.882   2.076   6.834 -0.2551 -0.5502 -0.1848
  843MOL0     C13676   3.856   2.112   6.971 -0.7817  0.3946  0.0002
  843MOL0     C13677   3.798   2.025   7.064  0.7729  0.2948  0.5280
  843MOL0     O13678   3.792   2.056   7.195  0.4195  0.0988  0.7405
  843MOL0     C13679   3.889   1.993   7.276  0.2014 -0.6718 -0.3874
  843MOL0     C13680   3.846   2.019   7.422  1.2162 -0.9027 -0.1847
  843MOL0     C13681   3.722   1.945   7.461 -0.2462  0.7335  0.9327
  843MOL0     C13682   3.700   1.936   7.614  0.0639  0.4089  0.3337
  843MOL0     C13683   3.556   1.900   7.644 -0.8783  0.2125  0.7677
  843MOL0     C13684   3.543   1.886   7.795 -0.8472  0.6874  0.1743
  843MOL0     C13685   3.392   1.878   7.841 -1.3191  0.1078 -0.6867
  843MOL0     C13686   3.328   1.749   7.813 -0.1112 -1.3945  0.5590
  843MOL0     N13687   3.185   1.768   7.847  1.7764 -0.3207 -0.2341
  843MOL0     C13688   3.096   1.838   7.771 -0.2523 -0.8165  0.1506
  843MOL0     C13689   2.979   1.841   7.844  0.3258 -0.4029 -1.0967
  843MOL0     C13690   2.844   1.872   7.784  0.9473  0.8255 -0.4651
  843MOL0     C13691   2.783   1.755   7.704  0.3608  0.4806 -0.7027
  843MOL0     C13692   2.631   1.766   7.661 -0.8115 -0.3188 -0.9234
  843MOL0     C13693   2.594   1.894   7.586  0.4316  0.3740  0.0595
  843MOL0     O13694   2.452   1.920   7.589  0.3785 -0.2057 -0.1539
  843MOL0     C13695   2.374   1.856   7.492 -1.1418  0.6620 -0.7262
  843MOL0     C13696   2.236   1.865   7.497  0.7383  0.6059 -0.6906
  843MOL0     C13697   2.148   1.778   7.425 -0.2347 -0.3526 -0.0224
  843MOL0     C13698   2.008   1.805   7.441  0.2784  0.8496 -0.0565
  843MOL0     C13699   2.202   1.680   7.338 -0.5387  0.9441 -0.1208
  843MOL0     C13700   2.128   1.585   7.257 -0.3552  1.1499  0.6870
  843MOL0     O13701   2.191   1.510   7.165 -1.0943 -0.1459  0.6101
  843MOL0     C13702   2.114   1.430   7.089  0.1224 -0.1599 -0.0224
  843MOL0     C13703   1.999   1.468   7.011 -0.3151  0.0582 -1.5096
  843MOL0     C13704   1.935   1.378   6.931 -0.1855 -0.8094 -0.2720
  843MOL0     C13705   1.984   1.248   6.911  0.2246  1.0347 -0.0137
  843MOL0     O13706   1.930   1.157   6.823 -0.1943  1.0009  0.4138
  843MOL0     C13707   1.791   1.133   6.836 -0.1326 -0.3758 -0.3251
  843MOL0     C13708   1.741   1.040   6.718 -0.6367 -0.4768 -0.7084
  843MOL0     C13709   1.585   1.014   6.730 -0.1695  0.8381 -0.7450
  843MOL0     C13710   1.561   0.863   6.771 -0.0553  0.4089  1.1052
  843MOL0     C13711   1.419   0.808   6.739 -0.2611 -0.1587  0.1052
  843MOL0     C13712   1.408   0.668   6.801 -0.3215 -0.0852  0.2590
  843MOL0     C13713   1.261   0.616   6.792  0.1534  0.2340  0.0669
  843MOL0     C13714   1.253   0.468   6.845 -0.4966 -0.7438  0.0272
  843MOL0    Cl13715   1.100   0.407   6.797  0.1103  0.2425  0.2887
  843MOL0     C13716   2.080   1.204   6.999  0.5367 -0.2591  0.4123
  843MOL0     C13717   2.145   1.297   7.092 -0.1968  0.1189  0.1996
  843MOL0     O13718   2.010   1.584   7.277  0.1929 -0.4497  1.3979
  843MOL0     C13719   2.343   1.669   7.333 -0.1918  0.1681  0.3656
  843MOL0     C13720   2.429   1.760   7.405  0.8858  0.6861 -0.8587
  843MOL0     N13721   2.997   1.761   7.964 -0.2031  0.6648  1.1657
  843MOL0     N13722   3.123   1.729   7.965  0.1530 -0.5680  0.6435
  843MOL0     C13723   3.751   1.903   7.006  0.3839 -0.5374 -0.2278
  843MOL0     C13724   3.755   1.876   6.862 -0.4890  0.2598 -0.7634
  843MOL0     C13725   3.761   1.902   6.415  0.2639 -0.5153 -0.3200
  843MOL0     C13726   3.873   1.967   6.362 -0.1560 -0.9893  0.9157
  843MOL0     C13727   3.912   1.955   6.231  0.5255  0.2360 -0.7206
  843MOL0     C13728   3.831   1.884   6.134 -1.0344 -0.5398 -0.2448
  843MOL0     O13729   3.857   1.866   5.995  0.3145  0.1598  0.0736
  843MOL0     C13730   3.985   1.888   5.934  0.2673 -0.1598 -0.7760
  843MOL0     C13731   4.061   1.758   5.937 -0.3164  0.4711 -0.1501
  843MOL0     C13732   4.217   1.772   5.890 -0.5207  0.1357  0.2513
  843MOL0     C13733   4.305   1.657   5.943  0.2007  0.0914 -0.4923
  843MOL0     C13734   4.254   1.538   5.864 -0.5977  0.7182 -0.6347
  843MOL0     C13735   4.194   1.466   5.789 -0.2962  0.1482 -0.1798
  843MOL0     C13736   3.715   1.825   6.187 -0.7297  0.4313 -0.4840
  843MOL0     C13737   3.679   1.829   6.325 -0.7907  0.3885  0.4962
  843MOL0     H13738   3.933   2.144   6.765  0.0296 -2.0230 -1.4765
  843MOL0     H13739   3.911   2.198   7.008 -0.5613 -0.4384  1.6726
  843MOL0     H13740   3.885   1.885   7.262 -4.1796 -0.5484 -1.6283
  843MOL0     H13741   3.989   2.035   7.263  0.6474 -0.3697  3.1753
  843MOL0     H13742   3.932   1.992   7.485 -0.1900 -1.5501  1.5362
  843MOL0     H13743   3.827   2.126   7.435  1.8766 -1.0375  2.4766
  843MOL0     H13744   3.637   2.001   7.421  0.1623 -1.4153 -3.5019
  843MOL0     H13745   3.722   1.842   7.426  2.4560  1.1907 -0.6325
  843MOL0     H13746   3.759   1.869   7.677  1.0708  0.3560 -0.6329
  843MOL0     H13747   3.722   2.037   7.649 -1.0673  0.4958  0.8353
  843MOL0     H13748   3.508   1.994   7.615 -0.5097  0.4365  0.8742
  843MOL0     H13749   3.520   1.811   7.591  1.9085 -1.0610  0.8714
  843MOL0     H13750   3.593   1.797   7.835  1.0135  2.4980  2.1721
  843MOL0     H13751   3.587   1.978   7.834 -1.2924  1.4667 -1.1154
  843MOL0     H13752   3.398   1.891   7.949  1.6752  2.3808 -0.9939
  843MOL0     H13753   3.333   1.958   7.796  0.5171  1.0405 -1.5300
  843MOL0     H13754   3.372   1.684   7.889  1.7051  1.9590  2.6431
  843MOL0     H13755   3.347   1.710   7.712  1.1129 -0.0590  0.2427
  843MOL0     H13756   3.107   1.886   7.675 -2.1402  0.4732  0.5272
  843MOL0     H13757   2.768   1.896   7.859  2.2850  2.4873  0.4310
  843MOL0     H13758   2.855   1.953   7.713  0.0292 -0.5657 -2.2782
  843MOL0     H13759   2.788   1.666   7.767  1.7413  0.6671 -0.5109
  843MOL0     H13760   2.848   1.738   7.618 -0.6453 -1.8639 -1.0848
  843MOL0     H13761   2.564   1.773   7.747 -1.3146 -0.1066 -1.3252
  843MOL0     H13762   2.604   1.674   7.609 -0.0923 -1.2818  0.3405
  843MOL0     H13763   2.625   1.927   7.486 -0.4553  3.1712  0.6226
  843MOL0     H13764   2.635   1.972   7.651  0.7826  0.9338 -0.8048
  843MOL0     H13765   2.204   1.926   7.581  1.1852  0.1428 -0.1774
  843MOL0     H13766   1.993   1.898   7.498 -1.1247 -0.7433  2.3520
  843MOL0     H13767   1.958   1.814   7.344 -0.8854 -2.0662  0.1752
  843MOL0     H13768   1.961   1.719   7.488  0.3455 -1.3914 -3.7133
  843MOL0     H13769   1.963   1.571   7.009 -1.5063 -0.1270  2.4940
  843MOL0     H13770   1.855   1.405   6.863 -0.2477 -0.0230  0.1097
  843MOL0     H13771   1.786   1.087   6.934  0.9746  1.5416  0.7023
  843MOL0     H13772   1.732   1.225   6.830 -1.6295 -1.3480 -1.0528
  843MOL0     H13773   1.767   1.093   6.626 -1.3642 -0.5648 -0.9766
  843MOL0     H13774   1.808   0.954   6.711  0.3317  0.3813 -2.6500
  843MOL0     H13775   1.534   1.029   6.635 -1.8378 -1.9236 -0.4167
  843MOL0     H13776   1.538   1.081   6.802  1.2871  1.3429 -0.2135
  843MOL0     H13777   1.633   0.808   6.710 -0.9426 -0.1225  0.5283
  843MOL0     H13778   1.581   0.848   6.878  0.7882 -2.1269  0.6670
  843MOL0     H13779   1.403   0.811   6.631 -4.4304  2.3527  0.5688
  843MOL0     H13780   1.343   0.874   6.782 -1.7593 -1.7746  0.0352
  843MOL0     H13781   1.474   0.599   6.749 -0.0468  0.0736  0.3966
  843MOL0     H13782   1.442   0.670   6.905 -0.5414  0.3344  0.3264
  843MOL0     H13783   1.214   0.616   6.694 -0.7615 -0.3485  0.4880
  843MOL0     H13784   1.193   0.671   6.857 -0.2739  0.5620 -0.6522
  843MOL0     H13785   1.260   0.467   6.954 -3.3617  1.5428  0.3355
  843MOL0     H13786   1.324   0.396   6.802 -0.7819 -1.6022  0.9391
  843MOL0     H13787   2.102   1.098   7.007 -0.3498 -0.4265  0.7642
  843MOL0     H13788   2.226   1.251   7.149  0.4650  0.5755 -0.3556
  843MOL0     H13789   2.392   1.591   7.275  0.5068 -2.7873  4.4639
  843MOL0     H13790   2.533   1.734   7.390  0.6792 -1.3565  0.8412
  843MOL0     H13791   3.699   1.830   7.067 -1.7910  0.6168 -0.5886
  843MOL0     H13792   3.721   1.782   6.821  0.3710  0.1031 -1.1517
  843MOL0     H13793   3.936   2.016   6.435 -2.0840 -0.9365  2.6120
  843MOL0     H13794   3.994   2.015   6.194 -1.9790  4.8764  0.5540
  843MOL0     H13795   3.969   1.932   5.835  1.9074  1.8772 -0.1878
  843MOL0     H13796   4.053   1.946   5.996  3.8240 -4.6566  0.0276
  843MOL0     H13797   3.999   1.688   5.880 -1.2532  0.0541  1.3391
  843MOL0     H13798   4.079   1.722   6.038 -1.7711  3.5973  1.3511
  843MOL0     H13799   4.260   1.859   5.940  0.0346  1.7666 -2.8093
  843MOL0     H13800   4.230   1.780   5.782  1.3255  0.6825  0.4920
  843MOL0     H13801   4.293   1.632   6.049  1.3702 -0.4997 -0.4870
  843MOL0     H13802   4.409   1.677   5.914 -0.2281  1.5690 -1.1104
  843MOL0     H13803   4.143   1.396   5.726  0.0034 -1.3644  1.1857
  843MOL0     H13804   3.643   1.768   6.128 -1.6278  1.6657 -0.6130
  843MOL0     H13805   3.583   1.789   6.354 -0.8260 -0.2696 -0.4854
  844MOL0     O13806   3.294   3.201   8.120  1.0912 -0.3908 -0.1481
  844MOL0     C13807   3.341   3.135   8.026  0.1512  0.0864 -0.7246
  844MOL0     O13808   3.470   3.085   8.027  0.3772 -0.0084 -0.2710
  844MOL0     C13809   3.558   3.109   8.131 -0.8002  0.2108 -0.0217
  844MOL0     C13810   3.522   3.122   8.261  0.3127  0.8039  0.0051
  844MOL0     C13811   3.620   3.156   8.356 -1.1035 -1.3194 -0.2211
  844MOL0     C13812   3.756   3.173   8.323  0.2500 -0.5023 -0.5906
  844MOL0     O13813   3.858   3.197   8.413 -0.1149  0.2687 -0.3986
  844MOL0     C13814   3.850   3.331   8.478 -0.9829  1.4558  0.1539
  844MOL0     C13815   3.921   3.438   8.397  0.6888 -0.2631 -1.4678
  844MOL0     C13816   4.064   3.453   8.453 -0.5785  0.2078  0.4103
  844MOL0     C13817   4.165   3.347   8.394 -0.4767 -0.0494 -0.3150
  844MOL0     C13818   4.251   3.286   8.510  0.1132 -0.9367  0.4050
  844MOL0     C13819   4.356   3.379   8.567  0.5042  1.1021 -0.2384
  844MOL0     C13820   4.428   3.327   8.694 -0.4058  0.3245 -0.5532
  844MOL0     C13821   4.519   3.443   8.740  0.7607 -0.6648  0.2872
  844MOL0     N13822   4.603   3.423   8.854  0.2164  0.4961 -0.4121
  844MOL0     C13823   4.719   3.342   8.843  0.5310  0.7946  0.2337
  844MOL0     C13824   4.761   3.339   8.975 -0.4821  0.9601 -0.0284
  844MOL0     C13825   4.897   3.301   9.024  0.4237 -0.2101 -0.1848
  844MOL0     C13826   4.882   3.179   9.124  0.1206 -0.6823  0.2389
  844MOL0     C13827   4.908   3.044   9.053 -0.1429  0.1234  0.2610
  844MOL0     C13828   4.899   2.917   9.138 -0.0359  1.2601  0.2178
  844MOL0     O13829   4.959   2.818   9.064  0.1500  0.4995 -0.2587
  844MOL0     C13830   4.896   2.756   8.956 -0.5504  0.0199  0.1272
  844MOL0     C13831   4.765   2.764   8.918 -0.1150 -0.6261  0.3660
  844MOL0     C13832   4.725   2.693   8.814 -0.0007  0.2389  0.4088
  844MOL0     C13833   4.588   2.727   8.764  0.3842 -0.0435  0.3012
  844MOL0     C13834   4.807   2.588   8.752 -0.7954  1.1117 -0.7242
  844MOL0     C13835   4.748   2.486   8.656  0.0296 -0.0504  0.0337
  844MOL0     O13836   4.832   2.382   8.643  0.0325  0.1698  0.7265
  844MOL0     C13837   4.821   2.301   8.535 -0.2280 -0.0586  0.1970
  844MOL0     C13838   4.841   2.162   8.554 -0.3907  0.0941 -0.3044
  844MOL0     C13839   4.846   2.080   8.434  0.1569 -0.4553 -0.0918
  844MOL0     C13840   4.851   2.140   8.307  0.1903  0.1841 -0.2940
  844MOL0     O13841   4.881   2.060   8.192 -0.6985  0.4206  0.4691
  844MOL0     C13842   4.984   2.110   8.103 -0.2282 -0.3230 -0.3357
  844MOL0     C13843   4.937   2.148   7.967  0.5596  0.0672 -0.7312
  844MOL0     C13844   4.902   2.023   7.876  0.1111 -0.5565 -0.7324
  844MOL0     C13845   4.915   2.053   7.726 -0.2558 -0.3693  0.3613
  844MOL0     C13846   4.859   1.933   7.655  0.7226 -0.4087  0.5514
  844MOL0     C13847   4.895   1.932   7.507 -0.2316 -0.5513  0.1570
  844MOL0     C13848   4.810   1.824   7.431 -0.4737 -0.0308  0.1993
  844MOL0     C13849   4.884   1.777   7.306  0.2731 -0.0692  0.9776
  844MOL0    Cl13850   4.776   1.680   7.190  0.0636  0.1545  0.7856
  844MOL0     C13851   4.830   2.275   8.284 -0.1715 -0.1258 -0.9764
  844MOL0     C13852   4.811   2.358   8.398  0.0019 -1.4505  0.6840
  844MOL0     O13853   4.636   2.503   8.599 -1.1484  0.4559  0.0216
  844MOL0     C13854   4.945   2.581   8.781  0.3907 -0.0980  0.1750
  844MOL0     C13855   4.988   2.671   8.877  1.1899  0.0301 -0.4067
  844MOL0     N13856   4.676   3.414   9.059 -0.0005 -0.2288  0.5743
  844MOL0     N13857   4.575   3.456   8.983  1.0232  0.3068  0.0518
  844MOL0     C13858   3.796   3.149   8.190 -0.2116  0.5031 -0.5970
  844MOL0     C13859   3.692   3.118   8.097 -0.0727 -0.1687 -0.9111
  844MOL0     C13860   3.264   3.101   7.907 -0.5875  0.0540  0.5388
  844MOL0     C13861   3.136   3.145   7.888 -0.1858  0.7163 -0.2045
  844MOL0     C13862   3.064   3.124   7.770  0.0864  0.1059 -1.2637
  844MOL0     C13863   3.129   3.056   7.666 -1.1297 -0.2068 -0.2670
  844MOL0     O13864   3.051   3.027   7.553  0.1825 -0.2641 -0.1723
  844MOL0     C13865   3.109   2.974   7.434  0.6901  0.4142 -0.4070
  844MOL0     C13866   3.103   2.822   7.423 -0.2256  0.4341 -0.1891
  844MOL0     C13867   3.182   2.789   7.291  0.1400 -0.8907  0.6173
  844MOL0     C13868   3.169   2.644   7.261  0.2248  0.4059  0.1947
  844MOL0     C13869   3.284   2.606   7.180  0.5802 -0.3884  1.2213
  844MOL0     C13870   3.383   2.569   7.105  0.1384 -0.9796 -0.7482
  844MOL0     C13871   3.265   3.032   7.678 -0.3399 -0.0260  0.6103
  844MOL0     C13872   3.329   3.053   7.800  0.9428  0.8178  0.0454
  844MOL0     H13873   3.422   3.097   8.295 -0.2974  0.8028 -1.7170
  844MOL0     H13874   3.607   3.161   8.464  1.1325 -2.0859  0.1339
  844MOL0     H13875   3.750   3.364   8.507 -0.3622  0.0791  4.5681
  844MOL0     H13876   3.898   3.322   8.576 -1.7623  2.8441  0.6880
  844MOL0     H13877   3.929   3.408   8.292 -1.5181 -0.3429 -1.6577
  844MOL0     H13878   3.863   3.526   8.427 -1.6772 -2.0697 -0.3226
  844MOL0     H13879   4.093   3.555   8.426 -2.2426 -0.3643 -4.3366
  844MOL0     H13880   4.065   3.447   8.562 -1.8005 -0.3638  0.3991
  844MOL0     H13881   4.105   3.268   8.348 -3.7786  1.9623  0.2152
  844MOL0     H13882   4.235   3.384   8.318  0.4221  0.4530  0.7319
  844MOL0     H13883   4.182   3.256   8.590 -0.3619 -0.1881  0.2837
  844MOL0     H13884   4.308   3.200   8.473 -1.5623 -0.8484 -2.7541
  844MOL0     H13885   4.427   3.421   8.495  0.8570  3.1382  1.1998
  844MOL0     H13886   4.305   3.467   8.607  0.9435  1.0047  0.5462
  844MOL0     H13887   4.360   3.306   8.777  0.7447 -5.1687 -0.6493
  844MOL0     H13888   4.490   3.239   8.674  2.4187  1.9837  0.2591
  844MOL0     H13889   4.457   3.532   8.758  0.6626  0.0275 -2.8839
  844MOL0     H13890   4.575   3.478   8.653 -1.0024  3.8596  0.7276
  844MOL0     H13891   4.757   3.308   8.747 -2.1649 -1.9528 -0.0181
  844MOL0     H13892   4.946   3.272   8.931 -3.8588 -3.0104 -1.8673
  844MOL0     H13893   4.934   3.388   9.080  3.4802 -2.6322  1.8859
  844MOL0     H13894   4.791   3.195   9.182  0.0157 -1.2330  0.2284
  844MOL0     H13895   4.962   3.187   9.199 -2.1584  2.0246  2.6412
  844MOL0     H13896   5.014   3.055   9.028 -0.6189 -0.6141 -2.3665
  844MOL0     H13897   4.842   3.039   8.967 -1.3312 -1.4882  1.2093
  844MOL0     H13898   4.798   2.899   9.176 -0.0733  2.8375  0.9581
  844MOL0     H13899   4.965   2.927   9.224 -0.9680 -0.1640  1.1351
  844MOL0     H13900   4.700   2.835   8.968 -1.2596 -1.8583  0.6949
  844MOL0     H13901   4.522   2.648   8.799 -1.8285  2.6144  2.6307
  844MOL0     H13902   4.555   2.824   8.802 -2.4255 -1.5108  1.8899
  844MOL0     H13903   4.595   2.739   8.655  1.3082  0.0628  0.3599
  844MOL0     H13904   4.846   2.111   8.649 -3.1798  1.9294  0.9840
  844MOL0     H13905   4.865   1.974   8.445  0.0148 -0.5794 -0.9761
  844MOL0     H13906   5.043   2.193   8.146  0.2707 -0.5048 -0.6586
  844MOL0     H13907   5.051   2.029   8.074  2.5483  1.5359  0.3894
  844MOL0     H13908   4.853   2.210   7.999  2.2217  0.6690  2.9095
  844MOL0     H13909   5.009   2.211   7.914  0.2002 -0.1036 -1.4492
  844MOL0     H13910   4.797   2.013   7.904 -0.0776 -1.1480 -1.6153
  844MOL0     H13911   4.954   1.929   7.897  0.1463  0.2476  3.6693
  844MOL0     H13912   4.875   2.151   7.698  3.7840  0.7599 -2.4763
  844MOL0     H13913   5.017   2.061   7.686 -1.3832 -0.4764 -2.7665
  844MOL0     H13914   4.751   1.937   7.671  0.7597 -1.0059  0.9613
  844MOL0     H13915   4.901   1.847   7.707 -1.8136  0.1432  3.7933
  844MOL0     H13916   4.879   2.030   7.461  1.0583  1.0794  2.9391
  844MOL0     H13917   5.000   1.902   7.506  0.1952  0.8574  0.7076
  844MOL0     H13918   4.717   1.874   7.403  0.3927  2.4189  1.4490
  844MOL0     H13919   4.795   1.733   7.490  1.8199 -1.0374 -0.6408
  844MOL0     H13920   4.978   1.729   7.334 -0.5682 -0.2789  3.7572
  844MOL0     H13921   4.924   1.868   7.260 -1.7560 -0.0904 -0.9703
  844MOL0     H13922   4.836   2.319   8.185  0.2118  0.9585 -0.4860
  844MOL0     H13923   4.802   2.465   8.388  1.2485 -1.4069 -0.1777
  844MOL0     H13924   5.016   2.512   8.736  3.9385  2.9995  0.4736
  844MOL0     H13925   5.095   2.677   8.897  0.9552  0.3551  0.8283
  844MOL0     H13926   3.903   3.152   8.173  0.0708  2.6741  1.0569
  844MOL0     H13927   3.719   3.088   7.996 -0.2832 -1.1976 -0.6798
  844MOL0     H13928   3.094   3.208   7.965 -2.1714  0.7458 -1.2560
  844MOL0     H13929   2.961   3.156   7.755 -0.3828 -0.9751 -0.4729
  844MOL0     H13930   3.062   3.020   7.346 -1.1291  4.3252  2.2990
  844MOL0     H13931   3.212   3.008   7.419  1.6322 -2.0468  0.0973
  844MOL0     H13932   3.000   2.787   7.419  0.5533 -2.1042  0.3125
  844MOL0     H13933   3.161   2.773   7.502 -3.0343 -0.3049  1.5493
  844MOL0     H13934   3.286   2.809   7.320 -0.2048  1.1010  0.6098
  844MOL0     H13935   3.151   2.853   7.209  0.0684  1.3980  2.3261
  844MOL0     H13936   3.081   2.625   7.199  0.2573  1.6275 -0.2633
  844MOL0     H13937   3.162   2.582   7.351 -3.2663 -1.9442 -1.5049
  844MOL0     H13938   3.460   2.540   7.035 -2.4732 -2.3867 -3.2547
  844MOL0     H13939   3.315   2.978   7.599 -0.4727 -0.0931  0.5718
  844MOL0     H13940   3.437   3.045   7.797  1.0150  1.1924 -4.1915
  845MOL0     O13941   7.714  10.443   3.928 -0.2064  0.2275  1.0587
  845MOL0     C13942   7.640  10.536   3.905  0.1197 -0.2423  0.6389
  845MOL0     O13943   7.684  10.653   3.838  0.0644  0.8672  0.5283
  845MOL0     C13944   7.812  10.642   3.800 -0.5856 -0.5972  0.0921
  845MOL0     C13945   7.910  10.695   3.885 -1.3003  0.1256 -0.3179
  845MOL0     C13946   8.046  10.711   3.855 -0.2788  0.0400  0.0419
  845MOL0     C13947   8.087  10.680   3.726  0.7630 -0.3026  0.3007
  845MOL0     O13948   8.220  10.712   3.696 -0.0812  1.3325  0.0414
  845MOL0     C13949   8.266  10.716   3.555  0.7237 -0.2776  0.1825
  845MOL0     C13950   8.403  10.762   3.534 -0.4554 -0.8058  0.9475
  845MOL0     C13951   8.504  10.675   3.623  0.4877 -0.3907 -0.8305
  845MOL0     C13952   8.645  10.711   3.596 -0.2233 -0.2394 -0.9421
  845MOL0     C13953   8.743  10.618   3.660 -0.6413  0.0832  0.2822
  845MOL0     C13954   8.876  10.638   3.593  0.2089 -0.5300  0.0666
  845MOL0     C13955   8.988  10.548   3.670  0.6170 -0.5003 -0.2264
  845MOL0     C13956   9.102  10.526   3.579 -1.0457 -0.7537  0.1987
  845MOL0     N13957   9.201  10.452   3.662  0.2472 -0.2032  0.0616
  845MOL0     C13958   9.284  10.503   3.766 -0.5983  0.0928 -0.5261
  845MOL0     C13959   9.375  10.400   3.787  0.2246  0.0709  1.0864
  845MOL0     C13960   9.478  10.395   3.891 -0.3071  0.2856  0.2759
  845MOL0     C13961   9.621  10.443   3.847 -0.3890 -0.1497 -0.4606
  845MOL0     C13962   9.719  10.392   3.962  0.3489 -0.1997  1.1917
  845MOL0     C13963   9.863  10.413   3.904 -0.3950  0.4049 -0.4132
  845MOL0     O13964   9.949  10.342   3.988  0.6493 -0.3570  0.1586
  845MOL0     C13965  10.078  10.320   3.944 -0.6575  0.3835  0.2432
  845MOL0     C13966  10.112  10.185   3.962  0.2779 -1.4179  0.2749
  845MOL0     C13967  10.235  10.141   3.926  0.1256  0.2420  0.1330
  845MOL0     C13968  10.258   9.992   3.972 -0.0177 -0.1679 -0.7917
  845MOL0     C13969  10.327  10.232   3.865 -0.1093 -0.8315  0.6738
  845MOL0     C13970  10.474  10.206   3.847 -0.5410  0.0165  1.0301
  845MOL0     O13971  10.540  10.279   3.742  0.1897  0.3134 -0.2078
  845MOL0     C13972  10.672  10.237   3.720 -0.5089 -0.2427 -0.2363
  845MOL0     C13973  10.767  10.245   3.828  0.5408 -0.2009  1.0036
  845MOL0     C13974  10.907  10.210   3.802 -0.4170  0.1871  0.3097
  845MOL0     C13975  10.941  10.180   3.670 -1.1753  0.1302 -0.6027
  845MOL0     O13976  11.080  10.163   3.649 -0.4406  0.1101 -0.0057
  845MOL0     C13977  11.107  10.020   3.636 -0.4826  0.3015  0.4357
  845MOL0     C13978  11.070   9.954   3.505  0.3926 -0.5739  0.6071
  845MOL0     C13979  11.116  10.034   3.382  0.3589 -0.9710  0.0817
  845MOL0     C13980  11.271  10.031   3.375  0.0677 -0.1712 -0.2398
  845MOL0     C13981  11.322  10.108   3.252 -0.3520 -0.5257  0.8564
  845MOL0     C13982  11.462  10.160   3.259  0.1869  0.8592  0.0435
  845MOL0     C13983  11.483  10.287   3.325 -0.0163 -0.0773  0.0106
  845MOL0     C13984  11.625  10.314   3.350  0.3073  0.2736  0.5204
  845MOL0    Cl13985  11.666  10.235   3.500 -0.1645  0.4104  0.1489
  845MOL0     C13986  10.849  10.189   3.567  0.1503 -0.1927  1.0948
  845MOL0     C13987  10.714  10.217   3.582  0.4023  0.9826 -0.2004
  845MOL0     O13988  10.526  10.125   3.917 -0.4606 -0.1420 -0.2132
  845MOL0     C13989  10.289  10.367   3.843 -0.1060 -0.4645 -0.4495
  845MOL0     C13990  10.158  10.404   3.873 -0.3495  0.2396 -0.4800
  845MOL0     N13991   9.337  10.295   3.702 -0.2207  0.4298  0.0323
  845MOL0     N13992   9.227  10.324   3.634  0.5156 -0.0386 -0.1822
  845MOL0     C13993   7.991  10.620   3.645 -0.0040 -0.6468  0.5016
  845MOL0     C13994   7.850  10.617   3.670 -0.6027  0.8500 -0.7318
  845MOL0     C13995   7.504  10.533   3.956 -0.1527  0.2642 -0.0350
  845MOL0     C13996   7.465  10.437   4.048 -0.9730  0.1069 -0.0808
  845MOL0     C13997   7.329  10.426   4.084  0.0378  0.1532 -0.2064
  845MOL0     C13998   7.237  10.524   4.056  0.1003  0.0417 -0.4927
  845MOL0     O13999   7.117  10.501   4.117  1.0646  0.3518 -0.1721
  845MOL0     C14000   7.056  10.625   4.155 -0.2163  0.3384  0.0463
  845MOL0     C14001   6.928  10.598   4.238  0.4987 -0.8497 -0.3767
  845MOL0     C14002   6.951  10.563   4.385 -0.0951 -0.9291  0.1542
  845MOL0     C14003   6.816  10.544   4.454 -0.7365  0.5776 -0.0038
  845MOL0     C14004   6.832  10.476   4.587 -0.8346 -0.5260 -0.1486
  845MOL0     C14005   6.835  10.419   4.691 -0.6006  1.3671  0.5098
  845MOL0     C14006   7.281  10.628   3.969 -0.6099 -0.9688  0.5587
  845MOL0     C14007   7.410  10.632   3.922 -0.5957  0.6760  0.4736
  845MOL0     H14008   7.875  10.724   3.983 -2.1488  1.5509 -1.0092
  845MOL0     H14009   8.120  10.756   3.920 -0.2302 -0.5317  0.3853
  845MOL0     H14010   8.256  10.618   3.507  0.3333  1.1087 -2.7588
  845MOL0     H14011   8.203  10.788   3.503  0.6237 -1.3367 -1.2429
  845MOL0     H14012   8.432  10.759   3.429 -0.8135 -1.3748  0.8574
  845MOL0     H14013   8.413  10.864   3.570 -1.5931 -1.4735  3.3458
  845MOL0     H14014   8.480  10.689   3.729 -1.0689  0.5905 -1.2754
  845MOL0     H14015   8.486  10.570   3.600 -3.4177 -0.1134  0.2197
  845MOL0     H14016   8.640  10.701   3.488 -1.5647 -1.7835 -0.7677
  845MOL0     H14017   8.670  10.815   3.621 -2.1596  0.1105 -0.2716
  845MOL0     H14018   8.742  10.643   3.767  0.0291 -2.9854  1.0920
  845MOL0     H14019   8.705  10.516   3.654  1.5954 -0.6989 -2.9633
  845MOL0     H14020   8.881  10.610   3.487  3.7130  1.9815 -0.6453
  845MOL0     H14021   8.912  10.742   3.596  2.9360 -1.4221  1.3537
  845MOL0     H14022   9.010  10.594   3.766 -3.3795  1.6765 -0.1442
  845MOL0     H14023   8.947  10.447   3.683  1.5265 -1.4331 -3.5018
  845MOL0     H14024   9.141  10.619   3.537  1.3111 -0.1671  3.3265
  845MOL0     H14025   9.056  10.469   3.498 -1.8541 -1.1733  0.9359
  845MOL0     H14026   9.277  10.592   3.828 -0.2419 -2.6539  3.9470
  845MOL0     H14027   9.439  10.451   3.977 -1.8598 -1.1084  0.5426
  845MOL0     H14028   9.467  10.288   3.911 -1.0586  0.5020  1.0918
  845MOL0     H14029   9.640  10.549   3.826 -0.4838  0.3882  1.9285
  845MOL0     H14030   9.649  10.391   3.755  2.0166  0.3811 -0.0961
  845MOL0     H14031   9.697  10.294   4.006  2.6780 -1.2215  0.1951
  845MOL0     H14032   9.695  10.460   4.044  0.9705 -1.4111  2.4349
  845MOL0     H14033   9.902  10.515   3.903 -1.4123  0.8100  0.0623
  845MOL0     H14034   9.871  10.372   3.803 -0.3711 -1.8253  0.4317
  845MOL0     H14035  10.044  10.112   4.005  0.5964 -1.8671  0.0177
  845MOL0     H14036  10.289   9.990   4.077  1.0988  0.7258 -1.0832
  845MOL0     H14037  10.170   9.927   3.968 -0.8493  0.8389  0.2758
  845MOL0     H14038  10.337   9.939   3.919  0.2833 -1.0788  0.5192
  845MOL0     H14039  10.745  10.274   3.930 -1.5251 -0.0678  0.5546
  845MOL0     H14040  10.990  10.201   3.871 -1.1051  0.2019  1.1408
  845MOL0     H14041  11.212  10.003   3.662 -0.7785  1.6852  2.9733
  845MOL0     H14042  11.054   9.968   3.717  1.4836 -2.1481  0.2564
  845MOL0     H14043  11.103   9.850   3.497 -1.7373 -1.3166  0.7521
  845MOL0     H14044  10.962   9.948   3.490  0.4459 -0.8374  0.3215
  845MOL0     H14045  11.089  10.138   3.402  0.5949 -0.9360  0.2280
  845MOL0     H14046  11.068  10.004   3.288  0.5245  0.1417 -0.3827
  845MOL0     H14047  11.309  10.093   3.456  1.0290 -0.5723 -0.3721
  845MOL0     H14048  11.312   9.930   3.368  4.0658  1.3178 -0.7853
  845MOL0     H14049  11.263  10.196   3.224  0.2487 -0.4363 -0.1972
  845MOL0     H14050  11.331  10.040   3.166  0.1454 -0.1511  0.6102
  845MOL0     H14051  11.525  10.085   3.308  1.1019  0.2432 -1.9785
  845MOL0     H14052  11.508  10.160   3.160  1.8160 -1.6168  0.7095
  845MOL0     H14053  11.423  10.296   3.416  2.0738 -0.3734  1.5095
  845MOL0     H14054  11.449  10.371   3.265  2.4734  1.7588  0.9963
  845MOL0     H14055  11.647  10.421   3.358  1.6795 -0.0031  0.6748
  845MOL0     H14056  11.696  10.271   3.279  0.4439  2.3869 -0.7105
  845MOL0     H14057  10.887  10.174   3.467 -2.6130 -0.8656  0.0566
  845MOL0     H14058  10.648  10.223   3.497 -0.5750 -0.3062  0.4393
  845MOL0     H14059  10.364  10.437   3.807  1.3671 -1.0699  1.3081
  845MOL0     H14060  10.121  10.506   3.865  2.0459  1.6233  3.2882
  845MOL0     H14061   8.023  10.589   3.546  1.0357  0.3437  0.4999
  845MOL0     H14062   7.778  10.600   3.590  0.5200 -1.4386 -1.3320
  845MOL0     H14063   7.529  10.353   4.075 -0.7841  0.1621 -0.3551
  845MOL0     H14064   7.302  10.331   4.129  0.6705  0.2121  0.3090
  845MOL0     H14065   7.132  10.685   4.205  1.5667 -2.8044  1.4667
  845MOL0     H14066   7.021  10.666   4.060  1.0397  0.2810 -0.4676
  845MOL0     H14067   6.862  10.526   4.189  3.5521 -1.4919 -3.8975
  845MOL0     H14068   6.877  10.694   4.227  0.9799 -0.5572 -0.1013
  845MOL0     H14069   7.010  10.643   4.430 -0.9144  1.4807 -2.7159
  845MOL0     H14070   7.008  10.470   4.380 -0.6965 -1.4574  2.1092
  845MOL0     H14071   6.750  10.484   4.392 -0.3673  2.0920 -1.9876
  845MOL0     H14072   6.772  10.643   4.471  1.4768  1.7914 -0.9796
  845MOL0     H14073   6.841  10.374   4.788  0.6821 -0.9781 -0.5469
  845MOL0     H14074   7.219  10.708   3.930  0.4266  0.1527  1.1642
  845MOL0     H14075   7.444  10.701   3.846 -1.5511 -0.6632 -1.2385
  846MOL0     O14076   1.078   4.133   1.845  0.7576  0.0530  0.5480
  846MOL0     C14077   1.155   4.037   1.824 -0.4955  0.0280 -0.7468
  846MOL0     O14078   1.290   4.038   1.824 -1.0535 -0.5030 -0.4693
  846MOL0     C14079   1.364   4.142   1.865 -0.1025 -0.2418  1.1805
  846MOL0     C14080   1.441   4.131   1.984 -1.0402 -0.2859 -0.6632
  846MOL0     C14081   1.517   4.244   2.023  0.2385 -0.6048 -0.4176
  846MOL0     C14082   1.525   4.357   1.936 -0.5322  0.8881 -0.0196
  846MOL0     O14083   1.591   4.470   1.961 -0.5682 -0.2708  0.2421
  846MOL0     C14084   1.634   4.487   2.097 -0.5451 -0.6219 -0.6113
  846MOL0     C14085   1.687   4.632   2.127  0.0323 -0.6657  0.8844
  846MOL0     C14086   1.711   4.642   2.278 -0.3631  0.6527 -0.2786
  846MOL0     C14087   1.592   4.657   2.359 -0.3007 -0.1584  0.6441
  846MOL0     C14088   1.607   4.732   2.496  1.5538 -0.4868 -0.4367
  846MOL0     C14089   1.476   4.729   2.572  0.3663  0.4071  0.3474
  846MOL0     C14090   1.500   4.745   2.721 -0.5381  0.2979 -0.3233
  846MOL0     C14091   1.364   4.730   2.803 -0.8951 -0.5539  0.5679
  846MOL0     N14092   1.344   4.588   2.824 -0.1451  0.3058 -0.6172
  846MOL0     C14093   1.420   4.521   2.919 -1.0362  0.8228 -1.1037
  846MOL0     C14094   1.387   4.393   2.919 -0.5544  0.0672  0.7036
  846MOL0     C14095   1.442   4.284   3.011  0.3370  0.1871 -0.3993
  846MOL0     C14096   1.342   4.258   3.135 -0.1063 -0.2055  0.1644
  846MOL0     C14097   1.333   4.383   3.234 -0.1989  0.5124  0.1843
  846MOL0     C14098   1.188   4.452   3.216 -0.4720  0.7534  0.3508
  846MOL0     O14099   1.152   4.540   3.322 -0.3194  0.2944 -0.0791
  846MOL0     C14100   1.038   4.603   3.316 -0.1090  0.7310  0.1610
  846MOL0     C14101   1.022   4.735   3.283 -0.2899 -0.5785 -0.1142
  846MOL0     C14102   0.896   4.798   3.282  0.0403 -0.7720 -0.1228
  846MOL0     C14103   0.899   4.945   3.262  0.3357  0.1413 -0.9604
  846MOL0     C14104   0.786   4.706   3.295 -0.1492 -0.9364  0.2296
  846MOL0     C14105   0.644   4.748   3.281 -0.3529 -0.1184 -0.6693
  846MOL0     O14106   0.547   4.648   3.297  0.0599  0.1656  0.3789
  846MOL0     C14107   0.419   4.690   3.283  0.2676  0.6287 -0.5013
  846MOL0     C14108   0.325   4.662   3.388 -0.1709  0.1524 -0.1710
  846MOL0     C14109   0.191   4.707   3.385  0.8087 -0.0735  0.1590
  846MOL0     C14110   0.146   4.784   3.270 -1.8565 -0.0826 -0.1133
  846MOL0     O14111   0.013   4.830   3.255 -0.3093  0.2531 -0.2375
  846MOL0     C14112  -0.059   4.749   3.163 -0.2915  0.3886 -0.1414
  846MOL0     C14113  -0.110   4.840   3.047  0.6198 -0.1726 -0.4674
  846MOL0     C14114  -0.190   4.759   2.950 -0.3211  0.3746 -0.3625
  846MOL0     C14115  -0.212   4.839   2.819 -0.1591  0.0439 -0.3443
  846MOL0     C14116  -0.357   4.835   2.775 -0.0446  0.0172 -0.1056
  846MOL0     C14117  -0.445   4.908   2.881 -0.2722 -0.3356  0.1981
  846MOL0     C14118  -0.596   4.913   2.850  0.0467 -0.1046  0.1693
  846MOL0     C14119  -0.672   4.787   2.823  0.4813  0.2729 -0.1610
  846MOL0    Cl14120  -0.630   4.665   2.944 -0.0576 -0.1138 -0.0243
  846MOL0     C14121   0.241   4.801   3.159  0.3272 -0.2481 -0.0129
  846MOL0     C14122   0.373   4.764   3.177  0.0793  0.8961  0.7719
  846MOL0     O14123   0.620   4.864   3.250  0.1393  0.1920 -0.2652
  846MOL0     C14124   0.806   4.571   3.321 -0.1675 -0.6351 -0.6999
  846MOL0     C14125   0.929   4.513   3.332  0.2935  0.4744 -0.5814
  846MOL0     N14126   1.290   4.385   2.821  0.4319 -0.2807  0.2284
  846MOL0     N14127   1.265   4.497   2.759 -0.0180 -0.0857  0.1492
  846MOL0     C14128   1.447   4.371   1.822 -0.5328  0.0571 -0.5689
  846MOL0     C14129   1.377   4.258   1.779  0.0456 -0.3464 -0.3790
  846MOL0     C14130   1.102   3.917   1.771 -0.1692  0.3801  0.2990
  846MOL0     C14131   1.005   3.923   1.668 -0.1093  0.1631 -0.1638
  846MOL0     C14132   0.944   3.808   1.625 -0.7366  0.0940  0.1382
  846MOL0     C14133   0.993   3.685   1.666  0.0381  0.9569  0.3837
  846MOL0     O14134   0.946   3.561   1.636  0.5569  0.3736 -0.5636
  846MOL0     C14135   0.829   3.536   1.550  0.6459 -0.6107  0.2410
  846MOL0     C14136   0.834   3.568   1.406 -0.0511 -0.4433  0.2159
  846MOL0     C14137   0.977   3.554   1.345  0.4144 -0.0175  0.3750
  846MOL0     C14138   0.977   3.497   1.203 -0.5399  0.0601  0.4096
  846MOL0     C14139   0.933   3.600   1.112 -0.1089 -1.2389  0.1315
  846MOL0     C14140   0.904   3.691   1.031  0.4201 -0.6876  0.1070
  846MOL0     C14141   1.098   3.677   1.751 -0.8931  0.2010 -0.8106
  846MOL0     C14142   1.153   3.794   1.802 -0.5375 -0.5042 -0.8196
  846MOL0     H14143   1.433   4.042   2.046  2.2062  0.5242  1.1948
  846MOL0     H14144   1.566   4.238   2.120  0.7093 -0.2473 -0.6302
  846MOL0     H14145   1.545   4.459   2.154 -0.7377 -1.3014 -1.2210
  846MOL0     H14146   1.711   4.415   2.129 -1.5910 -1.2096  0.6615
  846MOL0     H14147   1.779   4.651   2.071 -0.7744  0.7636 -0.0078
  846MOL0     H14148   1.616   4.714   2.110  2.5538  2.0686  2.5672
  846MOL0     H14149   1.773   4.560   2.317  1.4474  1.3718 -1.5156
  846MOL0     H14150   1.767   4.733   2.297  2.2390 -0.4664 -2.0309
  846MOL0     H14151   1.507   4.702   2.308  1.2495 -0.5761 -2.5557
  846MOL0     H14152   1.565   4.555   2.388  1.0132 -0.9705 -0.8548
  846MOL0     H14153   1.678   4.686   2.566  3.1578  2.4281 -0.0046
  846MOL0     H14154   1.637   4.836   2.483 -1.3087  0.4826 -0.1464
  846MOL0     H14155   1.400   4.801   2.540 -3.7627 -2.9293  1.6519
  846MOL0     H14156   1.427   4.632   2.567 -1.6905  1.4285 -0.4780
  846MOL0     H14157   1.579   4.677   2.756 -1.7119 -0.6858  0.5050
  846MOL0     H14158   1.531   4.850   2.724 -0.9328  0.4241 -0.5577
  846MOL0     H14159   1.277   4.769   2.751  0.1238  2.1332  0.7005
  846MOL0     H14160   1.368   4.789   2.895 -3.2516  0.6753 -0.0494
  846MOL0     H14161   1.483   4.571   2.992 -0.9056  0.8750 -1.2544
  846MOL0     H14162   1.444   4.188   2.957 -0.7729  0.0663 -0.2534
  846MOL0     H14163   1.547   4.300   3.038  0.8218 -0.0464 -2.0288
  846MOL0     H14164   1.376   4.169   3.188 -1.5303 -0.2680  1.0052
  846MOL0     H14165   1.241   4.232   3.103 -0.3855 -0.0999  0.9496
  846MOL0     H14166   1.418   4.451   3.221  2.5756 -2.5116  1.1195
  846MOL0     H14167   1.338   4.345   3.337  1.3358 -0.9836 -0.3939
  846MOL0     H14168   1.111   4.375   3.207  0.4032 -0.0795 -0.1602
  846MOL0     H14169   1.183   4.496   3.116 -2.3061 -0.8537 -0.3346
  846MOL0     H14170   1.111   4.787   3.250 -0.4084 -0.4860 -0.2916
  846MOL0     H14171   0.861   4.970   3.162 -0.5183  3.0888  0.0219
  846MOL0     H14172   0.829   5.003   3.322 -1.1614 -1.2103 -1.3084
  846MOL0     H14173   1.000   4.987   3.262 -0.0934  1.2473  0.5424
  846MOL0     H14174   0.362   4.608   3.475  1.5599 -1.6522 -1.9073
  846MOL0     H14175   0.118   4.691   3.464  0.3115  1.1569 -0.0316
  846MOL0     H14176  -0.000   4.667   3.122 -1.6581  0.3286 -2.1647
  846MOL0     H14177  -0.145   4.700   3.211 -0.0411 -0.1011 -0.1906
  846MOL0     H14178  -0.165   4.927   3.083  0.4198 -0.0248 -1.1324
  846MOL0     H14179  -0.022   4.891   3.007 -1.1915  2.2391 -1.5905
  846MOL0     H14180  -0.276   4.721   3.006 -0.0219 -0.9884 -0.8035
  846MOL0     H14181  -0.126   4.672   2.936  1.5286  1.5903  0.1156
  846MOL0     H14182  -0.176   4.942   2.825  0.0069 -0.0765  0.9499
  846MOL0     H14183  -0.167   4.788   2.734 -0.2689 -1.9427  0.7477
  846MOL0     H14184  -0.383   4.730   2.762 -0.7103  0.2995 -1.1762
  846MOL0     H14185  -0.375   4.875   2.675  0.5527  1.5076  0.3476
  846MOL0     H14186  -0.429   4.868   2.982  1.4360  2.8761  1.3259
  846MOL0     H14187  -0.407   5.010   2.878  0.6038 -0.6547 -2.6729
  846MOL0     H14188  -0.598   4.978   2.763  3.3825  1.6779  1.2231
  846MOL0     H14189  -0.645   4.961   2.935  1.4295  2.2152 -0.2561
  846MOL0     H14190  -0.646   4.747   2.725  4.3715 -1.1198  1.2552
  846MOL0     H14191  -0.780   4.801   2.831 -0.2969 -2.8256 -3.0670
  846MOL0     H14192   0.209   4.869   3.081  2.1417 -1.0371 -1.5368
  846MOL0     H14193   0.445   4.779   3.097 -0.9475 -0.5916 -0.4874
  846MOL0     H14194   0.723   4.502   3.322 -1.1889  0.4362  2.3598
  846MOL0     H14195   0.945   4.406   3.333  0.7904  0.5163  1.3272
  846MOL0     H14196   1.457   4.462   1.763  1.5184  0.1557 -0.1541
  846MOL0     H14197   1.322   4.266   1.686 -4.7307  2.0963  2.2858
  846MOL0     H14198   0.968   4.015   1.623 -0.0964 -0.2937 -1.1496
  846MOL0     H14199   0.860   3.803   1.556 -2.7969  1.0987  2.4014
  846MOL0     H14200   0.809   3.428   1.541 -2.7357  0.0956 -3.1359
  846MOL0     H14201   0.741   3.589   1.586  2.1516  1.0574  1.6306
  846MOL0     H14202   0.799   3.672   1.407 -0.7450 -0.6580  1.9271
  846MOL0     H14203   0.760   3.515   1.346  0.1930  1.0187 -1.4405
  846MOL0     H14204   1.037   3.493   1.413 -2.8109 -0.5109  3.0027
  846MOL0     H14205   1.014   3.656   1.331 -0.7875  0.0768 -3.0863
  846MOL0     H14206   0.907   3.413   1.203 -0.1434 -0.2801 -0.0669
  846MOL0     H14207   1.076   3.456   1.180 -0.3073  0.1769  1.1818
  846MOL0     H14208   0.906   3.763   0.951 -1.5694 -0.7204 -0.0286
  846MOL0     H14209   1.132   3.586   1.800  1.0448  3.0899  3.8472
  846MOL0     H14210   1.240   3.800   1.867  2.0611  0.2679 -4.0739
  847MOL0     O14211   3.227  10.434   2.426  0.2404 -0.0389  0.3252
  847MOL0     C14212   3.296  10.371   2.349 -0.4006  0.4441  0.1075
  847MOL0     O14213   3.428  10.339   2.374  0.1090 -0.2418  0.7262
  847MOL0     C14214   3.487  10.357   2.504  0.0231 -0.6236  0.1501
  847MOL0     C14215   3.426  10.340   2.630  0.4389  0.6809 -0.5135
  847MOL0     C14216   3.491  10.360   2.754  0.0837 -0.8347 -0.4671
  847MOL0     C14217   3.626  10.398   2.755 -0.3384 -0.0917  0.4734
  847MOL0     O14218   3.684  10.456   2.861 -0.0732  0.0360 -0.1005
  847MOL0     C14219   3.690  10.370   2.980 -0.1346 -0.5789  0.6919
  847MOL0     C14220   3.775  10.432   3.085  0.1211  0.4428  0.5362
  847MOL0     C14221   3.926  10.434   3.052 -0.3388 -0.2705 -0.0919
  847MOL0     C14222   3.988  10.569   3.036 -0.6892 -0.4560  0.4645
  847MOL0     C14223   4.135  10.554   3.005 -0.3611  0.2844 -0.4221
  847MOL0     C14224   4.206  10.701   2.972 -0.2366 -0.0399  0.0323
  847MOL0     C14225   4.352  10.673   2.972 -1.1087 -0.4526 -1.5691
  847MOL0     C14226   4.431  10.776   2.899 -0.1650 -0.1437  0.3525
  847MOL0     N14227   4.572  10.753   2.917 -0.3739 -0.9076  1.3815
  847MOL0     C14228   4.643  10.775   3.036  0.7544  0.3759  0.7336
  847MOL0     C14229   4.775  10.726   3.006  0.3458 -0.0215 -0.6964
  847MOL0     C14230   4.900  10.754   3.091  0.4169  0.0909  0.7714
  847MOL0     C14231   4.953  10.632   3.172  0.6947  0.4368 -0.1974
  847MOL0     C14232   5.060  10.560   3.088 -0.5867  0.6523 -0.2532
  847MOL0     C14233   5.083  10.412   3.122 -0.0971 -0.3430 -0.2747
  847MOL0     O14234   4.967  10.333   3.111 -0.7086 -0.0440  0.0237
  847MOL0     C14235   4.988  10.197   3.132  0.4140  1.2862 -0.1917
  847MOL0     C14236   5.100  10.125   3.085 -0.0985 -0.1364 -0.1044
  847MOL0     C14237   5.110   9.986   3.088 -0.1419 -0.1628  0.1338
  847MOL0     C14238   5.248   9.920   3.058  0.1231  1.0252 -0.1053
  847MOL0     C14239   5.011   9.907   3.148  0.1167  0.9401 -0.8155
  847MOL0     C14240   5.002   9.762   3.159  0.3172  0.8826  0.2961
  847MOL0     O14241   5.091   9.695   3.070  0.7351 -0.2345 -0.1031
  847MOL0     C14242   5.082   9.558   3.040 -0.1497 -0.3488  0.6321
  847MOL0     C14243   5.077   9.464   3.141  0.0531  0.5104 -0.7849
  847MOL0     C14244   5.049   9.332   3.124 -0.6123  1.8500 -0.3750
  847MOL0     C14245   5.005   9.293   3.000  1.1147  0.0628  0.5562
  847MOL0     O14246   4.952   9.167   2.968  0.7061  0.3291  0.0038
  847MOL0     C14247   4.886   9.107   3.077 -0.0014  0.5893  0.7350
  847MOL0     C14248   4.802   8.993   3.024  0.0247  0.6052 -0.5412
  847MOL0     C14249   4.672   9.038   2.953 -0.3743  0.0198  0.0847
  847MOL0     C14250   4.593   8.926   2.877 -0.1535 -0.1353 -0.2432
  847MOL0     C14251   4.685   8.840   2.792 -0.7048  0.3384  0.3273
  847MOL0     C14252   4.606   8.742   2.715 -0.3214 -0.9762 -0.5524
  847MOL0     C14253   4.547   8.631   2.810  0.4696  0.1978 -0.5398
  847MOL0     C14254   4.637   8.513   2.834  0.4109 -0.0351  0.5765
  847MOL0    Cl14255   4.664   8.433   2.685 -0.6880  0.6080 -0.1071
  847MOL0     C14256   5.006   9.384   2.895  0.0710 -0.4578 -0.4924
  847MOL0     C14257   5.047   9.510   2.915 -0.1790 -1.0416  0.9357
  847MOL0     O14258   4.912   9.713   3.227 -0.9261  1.0040  0.1289
  847MOL0     C14259   4.911   9.976   3.213 -0.0929 -0.4275 -0.0931
  847MOL0     C14260   4.899  10.120   3.207 -0.4405 -0.2910  0.5853
  847MOL0     N14261   4.781  10.672   2.888  0.5751  0.5948 -0.9686
  847MOL0     N14262   4.662  10.675   2.837  0.1063  0.7559 -0.2519
  847MOL0     C14263   3.697  10.417   2.631  0.1545  0.8886  0.3686
  847MOL0     C14264   3.626  10.391   2.511 -0.2954 -0.6008 -0.7819
  847MOL0     C14265   3.229  10.306   2.237 -0.3358  0.2027  0.1612
  847MOL0     C14266   3.307  10.253   2.136 -0.1894  0.2732  0.1037
  847MOL0     C14267   3.251  10.179   2.033  0.2114 -0.6510 -0.2475
  847MOL0     C14268   3.115  10.163   2.013 -0.3582  0.5746 -0.1749
  847MOL0     O14269   3.073  10.081   1.902  0.0481 -0.5349  0.3639
  847MOL0     C14270   2.939  10.090   1.856  0.2922 -0.2668  0.2776
  847MOL0     C14271   2.925  10.222   1.763  0.6803  0.1039 -0.0584
  847MOL0     C14272   2.990  10.234   1.626 -0.3030  0.1805 -0.6356
  847MOL0     C14273   3.144  10.235   1.626  0.0304  0.9868 -0.1837
  847MOL0     C14274   3.204  10.278   1.500 -1.7392 -0.0844  0.1707
  847MOL0     C14275   3.270  10.309   1.403 -0.7893  0.0627  0.1619
  847MOL0     C14276   3.032  10.223   2.106 -0.0047 -0.7926  0.6818
  847MOL0     C14277   3.088  10.295   2.214  0.4348  0.4041 -0.2293
  847MOL0     H14278   3.321  10.317   2.620  0.0919  2.3273 -0.9957
  847MOL0     H14279   3.440  10.371   2.849  1.7340  3.0102  0.1689
  847MOL0     H14280   3.593  10.344   3.025  0.2159 -3.4310 -0.0266
  847MOL0     H14281   3.741  10.281   2.942 -1.6817 -1.0951 -0.2713
  847MOL0     H14282   3.728  10.525   3.116 -3.0223 -0.7991 -0.1324
  847MOL0     H14283   3.770  10.372   3.177 -1.9499 -1.7647 -0.9118
  847MOL0     H14284   3.975  10.377   3.132 -0.5917 -2.8658 -1.6613
  847MOL0     H14285   3.951  10.372   2.966  0.5448  0.7012 -0.5529
  847MOL0     H14286   3.934  10.616   2.953 -3.2087 -2.5854  0.7660
  847MOL0     H14287   3.983  10.627   3.128 -2.4481 -1.8443  1.3138
  847MOL0     H14288   4.185  10.500   3.086  1.6702  2.6538  0.0251
  847MOL0     H14289   4.151  10.492   2.917  0.4884 -0.9898  0.5865
  847MOL0     H14290   4.162  10.747   2.884  1.5336  0.5020 -0.6185
  847MOL0     H14291   4.189  10.768   3.057  0.1045  0.9622 -0.6813
  847MOL0     H14292   4.380  10.687   3.077 -1.8535  2.4616 -1.6811
  847MOL0     H14293   4.389  10.573   2.949 -0.0045  0.0933 -2.2165
  847MOL0     H14294   4.410  10.879   2.930  3.3381 -0.0395  3.1016
  847MOL0     H14295   4.407  10.773   2.793 -0.2402  1.2850  0.3002
  847MOL0     H14296   4.603  10.831   3.120  1.4730 -0.6912  1.8105
  847MOL0     H14297   4.985  10.790   3.032  3.2126 -4.3073  1.6248
  847MOL0     H14298   4.877  10.837   3.159 -0.2255  2.2422 -1.8831
  847MOL0     H14299   4.874  10.557   3.179  1.9006 -0.9189 -0.5974
  847MOL0     H14300   4.990  10.657   3.272 -0.0561 -1.9040  0.7289
  847MOL0     H14301   5.153  10.616   3.104 -0.5356  0.3492  0.5816
  847MOL0     H14302   5.038  10.562   2.981  2.1598 -0.3424 -0.9166
  847MOL0     H14303   5.131  10.403   3.220  0.5487 -1.8976 -0.7010
  847MOL0     H14304   5.164  10.381   3.056  0.8189  0.4152  0.4629
  847MOL0     H14305   5.176  10.178   3.027 -0.1910  0.5619  0.4107
  847MOL0     H14306   5.316   9.992   3.013 -1.9098  2.1770 -1.5004
  847MOL0     H14307   5.289   9.876   3.150  2.8542 -1.2056 -2.1978
  847MOL0     H14308   5.240   9.836   2.987  3.3423  1.2295 -0.8639
  847MOL0     H14309   5.097   9.497   3.243  0.0283 -1.4831 -0.0914
  847MOL0     H14310   5.048   9.268   3.212  0.3857  2.2524 -0.0608
  847MOL0     H14311   4.962   9.072   3.148 -0.4952 -0.0150  0.9811
  847MOL0     H14312   4.826   9.183   3.127 -3.0678  0.0126 -1.8266
  847MOL0     H14313   4.869   8.939   2.957  3.2263 -0.6851  3.3046
  847MOL0     H14314   4.776   8.936   3.114  0.3871  0.3409 -0.6039
  847MOL0     H14315   4.692   9.122   2.886  4.8547 -2.4399 -1.9958
  847MOL0     H14316   4.605   9.066   3.035  0.7401  0.7033  0.7985
  847MOL0     H14317   4.546   8.867   2.956 -0.2768 -1.9077 -1.5822
  847MOL0     H14318   4.516   8.963   2.808 -0.5866 -1.0903 -0.2946
  847MOL0     H14319   4.763   8.788   2.848 -1.2502  1.8929  2.6448
  847MOL0     H14320   4.731   8.906   2.718 -0.6895  1.2977  1.1704
  847MOL0     H14321   4.523   8.788   2.659 -0.6829 -1.7293 -0.6430
  847MOL0     H14322   4.672   8.702   2.638  0.4544  1.5436 -1.3132
  847MOL0     H14323   4.453   8.606   2.761 -0.2397  3.8081 -1.3711
  847MOL0     H14324   4.532   8.670   2.911  2.6797  1.9676 -0.7906
  847MOL0     H14325   4.584   8.434   2.889 -2.4624  1.3459 -0.0853
  847MOL0     H14326   4.723   8.539   2.897 -0.9917  0.9067  2.2016
  847MOL0     H14327   4.980   9.367   2.791 -0.2346  2.3827 -0.9742
  847MOL0     H14328   5.041   9.576   2.829  0.5495 -0.8331  1.0341
  847MOL0     H14329   4.840   9.932   3.282  1.5245 -0.9768  1.2896
  847MOL0     H14330   4.830  10.186   3.259  0.6645  0.3963  1.2146
  847MOL0     H14331   3.795  10.463   2.625  0.0320  0.9656 -1.5889
  847MOL0     H14332   3.666  10.419   2.415 -0.6426  0.6801 -0.5746
  847MOL0     H14333   3.414  10.244   2.151 -0.1926 -3.6692 -1.1233
  847MOL0     H14334   3.320  10.138   1.960  0.7976 -2.1907  1.1278
  847MOL0     H14335   2.928   9.995   1.803 -1.2369 -0.9259  1.6777
  847MOL0     H14336   2.869  10.076   1.939  0.6016 -2.2791  0.2344
  847MOL0     H14337   2.946  10.310   1.825 -3.2663  1.9887 -1.0188
  847MOL0     H14338   2.820  10.238   1.734  1.7527  2.6572 -3.1838
  847MOL0     H14339   2.956  10.327   1.578  2.8481  1.7823 -0.0110
  847MOL0     H14340   2.955  10.145   1.572 -0.5071 -0.8451  1.1335
  847MOL0     H14341   3.193  10.146   1.667 -2.2777  0.9911  2.8789
  847MOL0     H14342   3.179  10.310   1.697  2.3827 -0.3030  0.1244
  847MOL0     H14343   3.320  10.332   1.311  1.2711 -0.0843  1.2004
  847MOL0     H14344   2.926  10.235   2.088 -0.1565  1.2314  2.4672
  847MOL0     H14345   3.023  10.347   2.283 -0.1875  0.3315 -0.7465
  848MOL0     O14346   9.080   9.839   0.378 -0.0870 -0.6271  0.0040
  848MOL0     C14347   8.959   9.832   0.389  0.2047 -0.3301 -0.1369
  848MOL0     O14348   8.875   9.755   0.307 -0.3770 -0.4431 -0.0608
  848MOL0     C14349   8.910   9.703   0.188 -0.0657 -0.5500 -1.0484
  848MOL0     C14350   8.816   9.624   0.128 -0.1301  0.3002 -0.5910
  848MOL0     C14351   8.831   9.571   0.003  0.1503 -0.7188 -0.4051
  848MOL0     C14352   8.946   9.597  -0.080 -0.1935  0.2520 -0.5541
  848MOL0     O14353   8.947   9.548  -0.210 -0.5484  1.3606 -0.3818
  848MOL0     C14354   9.062   9.600  -0.286 -0.5635  0.3828  1.1065
  848MOL0     C14355   9.045   9.546  -0.426 -0.1080  0.0094 -0.1910
  848MOL0     C14356   8.912   9.595  -0.493 -0.0489  0.3576 -0.3728
  848MOL0     C14357   8.922   9.614  -0.636  0.3143  0.4632  0.1176
  848MOL0     C14358   8.927   9.478  -0.703  0.7457  0.2927  0.1050
  848MOL0     C14359   8.936   9.507  -0.858  1.2667 -0.6565  0.6568
  848MOL0     C14360   9.069   9.569  -0.892  0.4989 -0.5267  0.1780
  848MOL0     C14361   9.057   9.581  -1.048 -0.2199  0.0495  0.3231
  848MOL0     N14362   9.186   9.620  -1.103 -0.2250 -0.0608  0.4601
  848MOL0     C14363   9.293   9.541  -1.142  0.3322  1.3525  0.5975
  848MOL0     C14364   9.372   9.615  -1.224  0.1750  0.2107 -1.1267
  848MOL0     C14365   9.493   9.566  -1.294 -0.7854 -0.3090 -0.3870
  848MOL0     C14366   9.463   9.559  -1.446 -0.6579  0.6082 -0.2622
  848MOL0     C14367   9.435   9.690  -1.516 -0.7225 -0.1182  0.4741
  848MOL0     C14368   9.376   9.657  -1.654  0.0693  0.0577  0.0860
  848MOL0     O14369   9.459   9.591  -1.740  0.0018  0.4541 -0.5890
  848MOL0     C14370   9.405   9.530  -1.853  0.6041 -0.0864  0.0604
  848MOL0     C14371   9.270   9.507  -1.878  0.4862 -0.0612  0.3145
  848MOL0     C14372   9.224   9.445  -1.993 -0.2385  0.1113  1.0157
  848MOL0     C14373   9.079   9.404  -1.995 -0.3828 -0.2852  0.1986
  848MOL0     C14374   9.311   9.416  -2.104 -0.7811 -0.8015  0.6610
  848MOL0     C14375   9.270   9.351  -2.237  0.5412 -1.2482 -0.4716
  848MOL0     O14376   9.347   9.272  -2.308 -0.0603 -0.2981  0.0755
  848MOL0     C14377   9.301   9.216  -2.421 -0.1706  0.2945  0.6843
  848MOL0     C14378   9.399   9.215  -2.529  0.6358 -0.6093 -0.0138
  848MOL0     C14379   9.354   9.178  -2.657  0.6604  0.1812  0.3217
  848MOL0     C14380   9.229   9.119  -2.682  0.8404 -0.6101 -0.1515
  848MOL0     O14381   9.184   9.070  -2.801 -1.3074 -0.2149  0.1968
  848MOL0     C14382   9.265   9.073  -2.917 -0.6356 -0.1343  0.3524
  848MOL0     C14383   9.204   9.002  -3.034  0.2528 -0.2493  1.1974
  848MOL0     C14384   9.100   9.074  -3.115 -0.6892 -0.6154  0.7173
  848MOL0     C14385   9.049   8.977  -3.231 -0.1636  0.3738 -0.3195
  848MOL0     C14386   8.935   8.887  -3.187 -0.5870 -0.7180 -1.0206
  848MOL0     C14387   8.931   8.767  -3.281 -0.1490 -0.0173  0.5534
  848MOL0     C14388   8.813   8.673  -3.251  0.5438 -0.8936  0.3618
  848MOL0     C14389   8.791   8.579  -3.361  0.1754 -0.1888  0.4922
  848MOL0    Cl14390   8.759   8.685  -3.517 -0.2891  0.7977  0.0107
  848MOL0     C14391   9.144   9.113  -2.573  0.1659  1.2414 -0.6502
  848MOL0     C14392   9.177   9.158  -2.444  0.4224  0.6114 -0.6876
  848MOL0     O14393   9.159   9.396  -2.275 -0.1993 -0.5059 -0.3681
  848MOL0     C14394   9.450   9.443  -2.080  0.2375  0.1124  1.1057
  848MOL0     C14395   9.493   9.497  -1.957 -0.8338  0.4521 -0.0116
  848MOL0     N14396   9.317   9.744  -1.225 -0.4508 -0.4207 -0.2055
  848MOL0     N14397   9.208   9.738  -1.157  0.6905 -0.3540 -0.4460
  848MOL0     C14398   9.052   9.677  -0.017  0.5049 -0.0254  0.1733
  848MOL0     C14399   9.035   9.736   0.113 -0.7545 -0.2857 -0.4501
  848MOL0     C14400   8.887   9.893   0.506 -0.2867 -0.3583  1.1926
  848MOL0     C14401   8.742   9.899   0.502 -0.2327 -0.0035 -0.1804
  848MOL0     C14402   8.673   9.957   0.612 -0.2130 -0.1586  0.0313
  848MOL0     C14403   8.740  10.033   0.707  0.5679  0.3514 -1.0216
  848MOL0     O14404   8.675  10.115   0.797 -0.3357 -0.6081  0.2128
  848MOL0     C14405   8.534  10.138   0.799  0.8802  0.9152  0.7191
  848MOL0     C14406   8.494  10.221   0.917 -0.7053 -0.3959  0.4980
  848MOL0     C14407   8.339  10.255   0.934 -1.0565  0.5247  0.0181
  848MOL0     C14408   8.323  10.300   1.082 -0.1437  1.0494  0.7196
  848MOL0     C14409   8.378  10.430   1.116 -0.0479  0.3622 -0.6825
  848MOL0     C14410   8.416  10.534   1.150  0.2616 -1.0256 -0.0205
  848MOL0     C14411   8.880  10.016   0.722  0.4458 -0.4852  0.2966
  848MOL0     C14412   8.954   9.954   0.616 -0.9895  0.8307  0.5372
  848MOL0     H14413   8.725   9.599   0.182  0.3866 -3.2225 -1.0958
  848MOL0     H14414   8.746   9.512  -0.030 -1.1031 -0.4792  2.1027
  848MOL0     H14415   9.060   9.709  -0.285  2.1845  0.5178  2.7061
  848MOL0     H14416   9.157   9.565  -0.244 -1.2785 -0.7323  1.8609
  848MOL0     H14417   9.129   9.597  -0.472 -0.3785 -0.4786 -1.2750
  848MOL0     H14418   9.065   9.438  -0.422  1.2530  0.2738  0.8115
  848MOL0     H14419   8.828   9.532  -0.464  1.6531 -1.0509  1.8160
  848MOL0     H14420   8.894   9.691  -0.445  1.2235 -0.5603  2.1122
  848MOL0     H14421   8.832   9.666  -0.668 -1.5731 -2.9628 -0.5917
  848MOL0     H14422   9.011   9.678  -0.647  0.9419 -0.1789  1.2380
  848MOL0     H14423   9.011   9.420  -0.666  0.3326 -0.2091  0.2727
  848MOL0     H14424   8.832   9.426  -0.685 -0.1591  1.7980 -0.1238
  848MOL0     H14425   8.915   9.401  -0.879  0.5212 -0.3487 -0.2102
  848MOL0     H14426   8.855   9.570  -0.896  2.4010  1.3935  1.4642
  848MOL0     H14427   9.074   9.670  -0.851 -1.7480 -0.3966  0.2499
  848MOL0     H14428   9.149   9.505  -0.854 -0.5514 -1.4678  0.8675
  848MOL0     H14429   8.982   9.655  -1.077 -1.6713 -0.3458  2.7750
  848MOL0     H14430   9.025   9.485  -1.090 -1.8483  1.8150 -2.8438
  848MOL0     H14431   9.314   9.442  -1.105 -3.5487  0.7478  1.6762
  848MOL0     H14432   9.578   9.621  -1.251 -1.5855 -0.4671  1.4780
  848MOL0     H14433   9.516   9.465  -1.260 -4.2763 -1.2357 -0.4189
  848MOL0     H14434   9.375   9.495  -1.453  0.9785 -1.8320  0.3822
  848MOL0     H14435   9.546   9.499  -1.486 -0.8149  0.2793 -0.0977
  848MOL0     H14436   9.530   9.744  -1.523  0.3101 -2.1103 -2.2134
  848MOL0     H14437   9.378   9.768  -1.465 -1.6290  1.4636 -2.6878
  848MOL0     H14438   9.362   9.755  -1.700  0.1048 -0.3063 -0.7080
  848MOL0     H14439   9.282   9.602  -1.643  1.0267 -1.8789 -0.8859
  848MOL0     H14440   9.194   9.556  -1.818  2.3757  4.2482 -0.4805
  848MOL0     H14441   9.038   9.380  -1.897  0.3580  2.6289  1.3331
  848MOL0     H14442   9.019   9.487  -2.034 -1.2108 -0.9308  0.0659
  848MOL0     H14443   9.053   9.324  -2.065  0.4463 -0.6021  0.2535
  848MOL0     H14444   9.495   9.259  -2.506 -0.0944  0.2088  1.6709
  848MOL0     H14445   9.423   9.182  -2.740 -1.2471 -0.5646 -1.3971
  848MOL0     H14446   9.312   9.170  -2.940 -0.2261 -0.4559 -0.1850
  848MOL0     H14447   9.361   9.022  -2.903  1.4242  2.3829 -2.9538
  848MOL0     H14448   9.287   8.984  -3.103 -0.2576  2.3536 -0.2376
  848MOL0     H14449   9.175   8.902  -3.002  0.3076  0.0854  2.3680
  848MOL0     H14450   9.153   9.155  -3.165 -3.6374 -0.0468 -1.8132
  848MOL0     H14451   9.022   9.113  -3.049 -2.2920  0.8660 -1.8686
  848MOL0     H14452   9.008   9.045  -3.307  1.3591  1.5609 -0.1440
  848MOL0     H14453   9.129   8.913  -3.271 -1.5670 -1.3872 -0.4116
  848MOL0     H14454   8.843   8.945  -3.199 -0.8096 -0.6300  0.8533
  848MOL0     H14455   8.926   8.866  -3.080  3.3493  1.2310 -0.0949
  848MOL0     H14456   8.923   8.807  -3.382  1.8544 -0.6113  0.0998
  848MOL0     H14457   9.020   8.704  -3.269 -1.7606 -2.4522  0.5927
  848MOL0     H14458   8.719   8.721  -3.223 -0.7167 -2.2121 -1.3695
  848MOL0     H14459   8.839   8.610  -3.166  4.5339  0.0496  0.0355
  848MOL0     H14460   8.706   8.511  -3.373 -0.7055  1.2503 -2.1532
  848MOL0     H14461   8.884   8.522  -3.374 -0.0828 -0.8293  1.3461
  848MOL0     H14462   9.049   9.069  -2.602  1.6658 -2.3813 -0.7026
  848MOL0     H14463   9.121   9.151  -2.351  3.5575 -1.1106  1.2411
  848MOL0     H14464   9.525   9.424  -2.156 -1.1238 -0.3187 -0.1728
  848MOL0     H14465   9.597   9.527  -1.946 -0.2343 -0.8678 -1.5514
  848MOL0     H14466   9.148   9.691  -0.064  0.2818 -0.0204 -0.2871
  848MOL0     H14467   9.109   9.808   0.148 -4.1451  2.6005  1.4028
  848MOL0     H14468   8.684   9.845   0.428 -0.8883  0.6232 -0.1407
  848MOL0     H14469   8.566   9.943   0.613 -0.2348 -0.1175  2.1183
  848MOL0     H14470   8.489  10.174   0.706  0.5191  2.5810  1.5079
  848MOL0     H14471   8.472  10.049   0.814 -1.4314  1.8565 -2.1479
  848MOL0     H14472   8.542  10.318   0.901 -0.7913 -0.2732  0.9543
  848MOL0     H14473   8.538  10.168   1.002 -0.6315 -2.0614 -0.5397
  848MOL0     H14474   8.287  10.159   0.930 -0.4423  0.2021 -0.5183
  848MOL0     H14475   8.304  10.332   0.864 -1.9698 -1.7548 -2.1871
  848MOL0     H14476   8.347  10.221   1.155 -0.6482 -1.9432 -2.1195
  848MOL0     H14477   8.216  10.315   1.093 -0.8615 -1.6687 -1.4746
  848MOL0     H14478   8.434  10.631   1.192 -2.1613 -0.3656 -0.3702
  848MOL0     H14479   8.932  10.067   0.803  4.1304  0.7967 -2.5848
  848MOL0     H14480   9.062   9.945   0.622 -0.4781  0.1148 -4.6208
  849MOL0     O14481   8.062   5.267  10.559 -0.6862  0.1434 -0.1537
  849MOL0     C14482   8.079   5.235  10.444 -0.3645  0.3995  0.4190
  849MOL0     O14483   7.981   5.183  10.367  0.0900  0.1186  0.5643
  849MOL0     C14484   7.855   5.154  10.400 -0.0934 -0.2849  0.5237
  849MOL0     C14485   7.802   5.130  10.523 -0.3488  0.4215 -0.7746
  849MOL0     C14486   7.666   5.102  10.546 -0.2128  0.1075  0.2761
  849MOL0     C14487   7.581   5.086  10.440 -0.0656 -0.9634  0.4136
  849MOL0     O14488   7.450   5.045  10.464  0.2785 -0.1064 -0.4887
  849MOL0     C14489   7.424   4.955  10.576  0.0050  0.6583  0.2506
  849MOL0     C14490   7.289   4.891  10.560 -0.1162  0.7283  0.0982
  849MOL0     C14491   7.282   4.779  10.441 -0.4162  0.3904 -0.8230
  849MOL0     C14492   7.164   4.687  10.485  0.1256  0.1501  0.2484
  849MOL0     C14493   7.155   4.572  10.384 -0.0925  0.6715  0.1508
  849MOL0     C14494   7.018   4.494  10.391 -0.3610 -0.1473  0.1716
  849MOL0     C14495   7.005   4.371  10.289  0.5592  0.9904  0.1765
  849MOL0     C14496   6.910   4.274  10.342 -0.1316  0.7182  0.4035
  849MOL0     N14497   6.916   4.139  10.263  0.2260 -0.9668 -0.9557
  849MOL0     C14498   6.964   4.026  10.322  0.1663 -0.1882  0.0506
  849MOL0     C14499   6.943   3.932  10.220  1.0840 -0.6954 -0.0908
  849MOL0     C14500   6.967   3.782  10.235 -0.0983 -0.6951  0.1192
  849MOL0     C14501   7.095   3.751  10.159  0.1143  0.2845 -0.4848
  849MOL0     C14502   7.145   3.608  10.175  0.2931  0.0528  0.5724
  849MOL0     C14503   7.287   3.583  10.136 -0.4827 -0.0752  0.9793
  849MOL0     O14504   7.281   3.574   9.989 -0.4592 -0.3417 -0.0576
  849MOL0     C14505   7.363   3.661   9.918  0.3738  0.2869 -0.2381
  849MOL0     C14506   7.484   3.598   9.870  0.5256 -0.4464 -0.5037
  849MOL0     C14507   7.575   3.673   9.794  0.1762 -0.7857  0.3035
  849MOL0     C14508   7.699   3.605   9.763 -0.1190 -0.5012  0.7388
  849MOL0     C14509   7.540   3.805   9.751  0.3406  0.5141  0.5024
  849MOL0     C14510   7.622   3.890   9.665 -0.5383 -0.0096  0.1848
  849MOL0     O14511   7.560   4.003   9.623  0.4023 -0.7797 -0.6617
  849MOL0     C14512   7.605   4.092   9.521  0.5221  0.7345 -0.5825
  849MOL0     C14513   7.717   4.080   9.436 -0.3244  0.2071  0.9687
  849MOL0     C14514   7.740   4.172   9.334  0.7491  0.6384  0.2868
  849MOL0     C14515   7.648   4.276   9.308  0.4231  0.5386  0.0623
  849MOL0     O14516   7.666   4.365   9.205 -0.2154 -0.5512 -0.6326
  849MOL0     C14517   7.773   4.340   9.115 -0.8866 -0.1629  0.4375
  849MOL0     C14518   7.774   4.454   9.013  1.2093 -0.7313 -0.1177
  849MOL0     C14519   7.630   4.481   8.948  0.3935 -1.1934  0.3765
  849MOL0     C14520   7.574   4.628   8.979 -0.4165  0.8185 -0.9937
  849MOL0     C14521   7.649   4.758   8.944  0.4875 -0.1844  0.1772
  849MOL0     C14522   7.668   4.773   8.788  0.2645  0.1210  0.3455
  849MOL0     C14523   7.749   4.899   8.752 -0.5160 -0.4852  0.4894
  849MOL0     C14524   7.886   4.873   8.698  0.3621 -0.5292  0.3259
  849MOL0    Cl14525   8.010   4.899   8.820 -0.3619  0.3738  0.0493
  849MOL0     C14526   7.541   4.301   9.399  0.8341 -0.0530 -0.3582
  849MOL0     C14527   7.525   4.208   9.511 -0.0357  0.0624 -0.9523
  849MOL0     O14528   7.730   3.847   9.623 -0.2223  0.6599 -0.7173
  849MOL0     C14529   7.420   3.864   9.805  0.6067  0.8327  0.7842
  849MOL0     C14530   7.331   3.789   9.885 -0.3293 -0.7386 -0.0961
  849MOL0     N14531   6.889   3.990  10.106  0.4216  0.6782 -0.5679
  849MOL0     N14532   6.864   4.112  10.143 -0.8471 -0.4746  0.4171
  849MOL0     C14533   7.636   5.104  10.305 -0.3136 -0.1664 -0.1210
  849MOL0     C14534   7.771   5.133  10.292 -0.3321 -0.9948 -0.0169
  849MOL0     C14535   8.219   5.250  10.395  0.2655 -0.6610  0.2201
  849MOL0     C14536   8.256   5.245  10.259  0.3106  0.5018 -0.3727
  849MOL0     C14537   8.394   5.231  10.226 -0.3936 -0.2554 -0.2979
  849MOL0     C14538   8.499   5.237  10.327  0.9173  0.4549  0.2170
  849MOL0     O14539   8.622   5.238  10.276  0.1479  0.3539 -0.1379
  849MOL0     C14540   8.723   5.280  10.370  0.2804 -1.1629  1.5298
  849MOL0     C14541   8.863   5.266  10.303  0.4694  0.7915 -0.2881
  849MOL0     C14542   8.871   5.315  10.160 -0.5383  0.3299 -0.1769
  849MOL0     C14543   9.009   5.349  10.111 -0.7410  0.6322  0.1037
  849MOL0     C14544   9.070   5.226  10.061  0.4041  0.0900 -0.5920
  849MOL0     C14545   9.124   5.130  10.012 -0.0504  0.1199  0.1029
  849MOL0     C14546   8.461   5.249  10.460 -0.0124 -0.1533 -0.9355
  849MOL0     C14547   8.323   5.249  10.484 -0.1053 -0.3131 -0.2520
  849MOL0     H14548   7.859   5.141  10.615  0.3980  1.1403 -1.3058
  849MOL0     H14549   7.630   5.109  10.648  0.9421  3.0115  0.5814
  849MOL0     H14550   7.503   4.879  10.581 -0.9535 -0.2929  1.1875
  849MOL0     H14551   7.430   5.027  10.658 -0.8601  2.2249 -0.9969
  849MOL0     H14552   7.247   4.853  10.653  0.7274  1.0053  0.6012
  849MOL0     H14553   7.220   4.968  10.523 -1.5631 -1.2125 -1.4889
  849MOL0     H14554   7.275   4.819  10.340  1.4300  0.1892 -1.0565
  849MOL0     H14555   7.371   4.717  10.457 -0.3172  1.0399  1.6317
  849MOL0     H14556   7.171   4.637  10.582  0.7905 -4.6782 -1.9926
  849MOL0     H14557   7.065   4.733  10.483 -1.5294 -3.1355 -1.6601
  849MOL0     H14558   7.160   4.602  10.278 -1.6523 -1.9505 -0.7482
  849MOL0     H14559   7.241   4.511  10.414  0.6045  1.1820 -0.7413
  849MOL0     H14560   7.020   4.451  10.491 -0.8141 -3.8615 -1.2308
  849MOL0     H14561   6.934   4.564  10.385 -0.5731 -0.3947  0.2609
  849MOL0     H14562   6.985   4.400  10.186 -0.5912 -2.6692 -0.7965
  849MOL0     H14563   7.104   4.324  10.286  0.7339  1.4157 -1.0419
  849MOL0     H14564   6.808   4.311  10.329 -0.0074  0.4590 -1.6263
  849MOL0     H14565   6.913   4.238  10.445 -1.3960 -3.1065 -0.6979
  849MOL0     H14566   7.011   4.018  10.419  2.9418  3.0980 -0.8101
  849MOL0     H14567   6.979   3.769  10.343 -1.0874 -0.0484  0.3142
  849MOL0     H14568   6.880   3.726  10.201 -1.3407  0.2576  1.6179
  849MOL0     H14569   7.171   3.813  10.208  0.4191  1.1568 -2.0110
  849MOL0     H14570   7.083   3.784  10.056 -0.1808  1.7706 -0.0128
  849MOL0     H14571   7.088   3.532  10.120  0.9550 -0.2614  0.3100
  849MOL0     H14572   7.121   3.577  10.277 -0.2031 -0.3799  0.3304
  849MOL0     H14573   7.319   3.496  10.193  0.9872  1.4092  2.5606
  849MOL0     H14574   7.353   3.662  10.173 -0.6758  0.9455 -0.7693
  849MOL0     H14575   7.502   3.499   9.911 -0.4253 -0.1601  0.6608
  849MOL0     H14576   7.785   3.669   9.789  0.3052 -0.6748 -0.1670
  849MOL0     H14577   7.698   3.507   9.810 -3.5261 -0.9447 -0.0511
  849MOL0     H14578   7.705   3.577   9.657  0.1698 -0.0366  0.6276
  849MOL0     H14579   7.795   4.005   9.448  0.8134  1.3240  0.7553
  849MOL0     H14580   7.830   4.158   9.275 -0.3511 -2.3450 -0.8586
  849MOL0     H14581   7.874   4.337   9.156  0.3334  2.5196 -1.9916
  849MOL0     H14582   7.745   4.249   9.061 -0.9013 -0.2764  0.6373
  849MOL0     H14583   7.803   4.544   9.068  0.9257  0.5048 -1.8974
  849MOL0     H14584   7.841   4.434   8.929  0.1658  2.2055 -1.8190
  849MOL0     H14585   7.556   4.404   8.971 -0.6592 -1.7802 -4.0475
  849MOL0     H14586   7.645   4.469   8.840  0.1734 -1.7373  0.4013
  849MOL0     H14587   7.478   4.640   8.927 -1.6184 -0.3034  0.8514
  849MOL0     H14588   7.551   4.625   9.086  1.0312 -4.1301 -0.6125
  849MOL0     H14589   7.753   4.748   8.979  0.4545 -0.4334  0.2099
  849MOL0     H14590   7.601   4.849   8.980  1.3843  0.7120 -0.8226
  849MOL0     H14591   7.715   4.684   8.745 -1.1627 -0.4352 -0.1198
  849MOL0     H14592   7.566   4.786   8.751 -1.0017  1.5283  3.8407
  849MOL0     H14593   7.751   4.970   8.836 -1.9544 -0.6427  0.6705
  849MOL0     H14594   7.693   4.936   8.666  2.1678 -0.9870 -1.6010
  849MOL0     H14595   7.902   4.939   8.611 -2.8674 -2.3545 -1.8641
  849MOL0     H14596   7.884   4.772   8.657 -2.7752  0.5635 -2.6710
  849MOL0     H14597   7.479   4.390   9.400 -1.7675 -1.7567 -0.6769
  849MOL0     H14598   7.452   4.231   9.589  1.6814  2.0579  0.1790
  849MOL0     H14599   7.387   3.967   9.803 -2.3437 -0.0155 -0.8313
  849MOL0     H14600   7.255   3.848   9.934  0.4725  1.1221 -1.0228
  849MOL0     H14601   7.575   5.082  10.218  1.8642 -5.0393 -0.7441
  849MOL0     H14602   7.809   5.144  10.191 -0.5114 -2.8398 -0.3057
  849MOL0     H14603   8.193   5.234  10.171  0.9439 -2.0612 -0.5719
  849MOL0     H14604   8.422   5.226  10.121 -2.5813 -1.5059 -0.8671
  849MOL0     H14605   8.697   5.380  10.406 -2.4613 -0.7839 -1.0971
  849MOL0     H14606   8.716   5.222  10.462  1.4280  1.4619  3.4095
  849MOL0     H14607   8.895   5.162  10.304  2.8408  1.3694 -2.8881
  849MOL0     H14608   8.938   5.316  10.366  2.4249  0.6240 -2.3767
  849MOL0     H14609   8.805   5.401  10.147 -1.7671 -0.9371 -3.4120
  849MOL0     H14610   8.833   5.234  10.097  0.9259 -0.7490  0.2664
  849MOL0     H14611   9.079   5.377  10.190  1.7846 -5.5004  0.6232
  849MOL0     H14612   9.000   5.424  10.032  1.9304 -0.4826 -1.3922
  849MOL0     H14613   9.160   5.031   9.991 -1.1443 -0.9040  2.5779
  849MOL0     H14614   8.528   5.267  10.544 -1.3611 -1.3136  0.4581
  849MOL0     H14615   8.300   5.246  10.590  0.8412 -0.9252 -0.0512
  850MOL0     O14616   3.689   3.771   8.365  0.3122 -0.4135 -0.3500
  850MOL0     C14617   3.798   3.813   8.381  0.5759 -0.7742 -0.4470
  850MOL0     O14618   3.869   3.889   8.291  0.2058  0.0377 -0.4735
  850MOL0     C14619   3.821   3.908   8.164 -0.1661 -0.5075  0.4085
  850MOL0     C14620   3.732   4.008   8.132 -0.1012 -0.2359  1.0950
  850MOL0     C14621   3.685   4.008   8.004 -0.0854 -0.3069 -0.0944
  850MOL0     C14622   3.739   3.918   7.901  0.0002 -0.5728 -0.7107
  850MOL0     O14623   3.686   3.912   7.776  0.2320  0.3441 -0.6419
  850MOL0     C14624   3.679   4.037   7.705  0.7361 -0.1388  0.1983
  850MOL0     C14625   3.817   4.078   7.633  0.2772  0.5538  0.2315
  850MOL0     C14626   3.823   4.218   7.576 -0.3978 -0.0362 -0.1651
  850MOL0     C14627   3.941   4.220   7.471  0.2302 -0.2415 -0.0660
  850MOL0     C14628   3.937   4.361   7.407  0.0499  0.6222 -0.4241
  850MOL0     C14629   3.989   4.357   7.263 -0.7071 -0.2219 -0.1668
  850MOL0     C14630   4.143   4.321   7.277 -0.6304 -0.4220  0.6054
  850MOL0     C14631   4.197   4.302   7.135  0.1780  0.3435 -0.0962
  850MOL0     N14632   4.170   4.178   7.054 -0.0506 -1.4561 -0.0326
  850MOL0     C14633   4.169   4.060   7.126 -0.9158 -0.1775  1.2127
  850MOL0     C14634   4.101   3.976   7.039 -0.2454 -0.9932  0.1942
  850MOL0     C14635   4.055   3.840   7.076  0.0322 -0.6597 -0.3984
  850MOL0     C14636   4.114   3.740   6.987 -0.2020  1.0334  0.7396
  850MOL0     C14637   4.024   3.680   6.878  0.1055  0.3202 -1.3427
  850MOL0     C14638   3.981   3.777   6.770  1.0902  0.3657  0.3712
  850MOL0     O14639   3.899   3.709   6.668 -0.5466  0.7211 -0.3992
  850MOL0     C14640   3.912   3.746   6.534  0.3751  0.1151 -0.6586
  850MOL0     C14641   3.893   3.656   6.433  0.8183  0.7272  0.3407
  850MOL0     C14642   3.878   3.689   6.302 -0.5740 -0.5575 -0.5271
  850MOL0     C14643   3.859   3.585   6.194  0.5249  0.4477  0.1108
  850MOL0     C14644   3.881   3.828   6.260 -0.6698  0.4112  0.6019
  850MOL0     C14645   3.836   3.892   6.131  0.2184 -0.4903 -0.1136
  850MOL0     O14646   3.894   4.015   6.093  0.1995 -0.1148 -1.0816
  850MOL0     C14647   3.855   4.078   5.983  0.2055 -0.5961 -0.5085
  850MOL0     C14648   3.729   4.070   5.935  1.1609  0.1191 -0.0467
  850MOL0     C14649   3.679   4.147   5.828  1.2245 -0.6887 -0.0323
  850MOL0     C14650   3.760   4.238   5.753 -0.3165 -0.2552  0.4005
  850MOL0     O14651   3.723   4.313   5.644 -0.7719  0.0806 -0.2223
  850MOL0     C14652   3.587   4.357   5.635  1.4753  0.3195 -0.8701
  850MOL0     C14653   3.554   4.384   5.491 -0.4789  1.2044 -0.2997
  850MOL0     C14654   3.636   4.496   5.435 -1.0143  1.0069  0.0179
  850MOL0     C14655   3.635   4.529   5.287  0.5434  1.1333  0.4574
  850MOL0     C14656   3.741   4.621   5.247  0.3139 -0.0420  0.7810
  850MOL0     C14657   3.749   4.755   5.328  1.3084  0.2931 -1.0259
  850MOL0     C14658   3.857   4.849   5.283 -0.0978  0.7180 -0.1620
  850MOL0     C14659   3.994   4.791   5.244 -1.1406 -0.3193  0.4214
  850MOL0    Cl14660   4.068   4.708   5.389  0.2410 -0.0199  0.8740
  850MOL0     C14661   3.896   4.235   5.797  0.2433 -0.7209  0.8025
  850MOL0     C14662   3.949   4.155   5.908  0.1989 -0.9629  0.0541
  850MOL0     O14663   3.754   3.823   6.071 -0.0882  0.4796  0.6489
  850MOL0     C14664   3.910   3.917   6.366  0.5433  0.1261 -0.5650
  850MOL0     C14665   3.922   3.876   6.505 -0.6422  0.0569 -0.9833
  850MOL0     N14666   4.072   4.040   6.927  0.4464 -0.2742 -0.0819
  850MOL0     N14667   4.107   4.161   6.935  0.2497  0.9677 -0.3587
  850MOL0     C14668   3.829   3.824   7.936  0.3246  0.0106 -0.0073
  850MOL0     C14669   3.869   3.819   8.066 -0.3680 -0.2244  0.3965
  850MOL0     C14670   3.861   3.780   8.515  0.3996 -0.0177  0.3674
  850MOL0     C14671   3.998   3.803   8.535 -0.1096 -1.3230  0.2730
  850MOL0     C14672   4.065   3.729   8.637 -0.0140 -1.0464  0.4967
  850MOL0     C14673   3.994   3.648   8.729 -0.6104 -1.2795 -0.7249
  850MOL0     O14674   4.074   3.584   8.819 -0.8676  0.3621 -0.4611
  850MOL0     C14675   4.019   3.535   8.952  0.7445  0.3710  1.2158
  850MOL0     C14676   3.957   3.399   8.949 -0.3215  0.1152 -0.0137
  850MOL0     C14677   4.050   3.300   8.870 -0.6092  0.0895  0.5239
  850MOL0     C14678   4.002   3.155   8.854  0.4580  0.1378 -0.3783
  850MOL0     C14679   4.109   3.071   8.798 -0.4668  0.8279 -0.5533
  850MOL0     C14680   4.209   3.012   8.760  0.4571 -0.9128 -1.5553
  850MOL0     C14681   3.852   3.640   8.718 -0.0254 -0.0253 -0.2902
  850MOL0     C14682   3.787   3.703   8.612  0.3167  0.1881 -0.4365
  850MOL0     H14683   3.691   4.076   8.207  0.2560  1.9963 -0.6404
  850MOL0     H14684   3.609   4.084   7.990 -0.2451 -0.0802  1.8315
  850MOL0     H14685   3.603   4.019   7.629  0.9551 -1.9119  0.3563
  850MOL0     H14686   3.652   4.118   7.774  0.3414  2.2980 -2.6307
  850MOL0     H14687   3.907   4.067   7.694  0.7338 -0.8409 -0.6676
  850MOL0     H14688   3.820   4.000   7.556 -4.3928 -3.7826  3.8135
  850MOL0     H14689   3.727   4.241   7.528  0.1241  0.6829 -0.8860
  850MOL0     H14690   3.832   4.275   7.669 -0.9182 -1.7132  0.9749
  850MOL0     H14691   4.039   4.208   7.517  1.1756 -2.2181 -2.3581
  850MOL0     H14692   3.906   4.143   7.401 -1.6279 -0.2725  0.8344
  850MOL0     H14693   3.837   4.406   7.403  0.7982  2.3110 -0.8769
  850MOL0     H14694   4.014   4.412   7.465  2.4624 -3.5403  0.4534
  850MOL0     H14695   3.930   4.283   7.208  1.1162 -1.0596 -1.0845
  850MOL0     H14696   3.974   4.455   7.216  2.5870  1.1801  1.3769
  850MOL0     H14697   4.205   4.404   7.313  1.4561 -0.2030 -2.9992
  850MOL0     H14698   4.162   4.231   7.336 -1.8566 -1.2786 -0.2667
  850MOL0     H14699   4.306   4.297   7.146  0.1518 -4.9076  0.7164
  850MOL0     H14700   4.174   4.386   7.069 -1.9336  0.0035  0.1463
  850MOL0     H14701   4.199   4.036   7.227 -0.2077 -1.1689  0.7842
  850MOL0     H14702   4.089   3.830   7.180  1.7315 -1.4290 -0.9862
  850MOL0     H14703   3.947   3.823   7.077 -0.1554  0.3275  1.9157
  850MOL0     H14704   4.139   3.644   7.034  1.4193 -1.2153 -3.9586
  850MOL0     H14705   4.211   3.773   6.948  1.4841 -2.5195  1.4751
  850MOL0     H14706   3.933   3.641   6.924 -0.4753  3.4054  0.4427
  850MOL0     H14707   4.071   3.598   6.824  1.1158  0.9564 -1.4561
  850MOL0     H14708   4.077   3.819   6.739  2.5093 -0.9825  2.6499
  850MOL0     H14709   3.929   3.866   6.807  2.9471  2.6873 -2.2114
  850MOL0     H14710   3.888   3.552   6.465 -0.4878  0.3347 -1.0690
  850MOL0     H14711   3.860   3.481   6.227 -0.2552  0.6109  0.6892
  850MOL0     H14712   3.768   3.604   6.137 -0.3383  0.4917  1.4537
  850MOL0     H14713   3.939   3.605   6.121 -0.3047  5.0342  0.1577
  850MOL0     H14714   3.658   4.015   5.996 -0.9390  3.0364  0.3149
  850MOL0     H14715   3.575   4.131   5.802  0.9476 -0.3583  0.8321
  850MOL0     H14716   3.516   4.276   5.658  0.7557 -0.0182 -3.9165
  850MOL0     H14717   3.550   4.434   5.704 -1.3272 -3.3053  2.1362
  850MOL0     H14718   3.575   4.299   5.425  1.9169  0.8758  0.7564
  850MOL0     H14719   3.449   4.405   5.468 -1.0713 -1.4668 -0.3855
  850MOL0     H14720   3.739   4.488   5.471 -1.1333  2.8195  0.8823
  850MOL0     H14721   3.600   4.587   5.483 -0.8102  0.9887  0.2047
  850MOL0     H14722   3.635   4.443   5.220  0.4778  2.2296 -1.0164
  850MOL0     H14723   3.543   4.589   5.287  0.0693  0.8629  5.9235
  850MOL0     H14724   3.743   4.652   5.142 -3.0407 -0.4260  0.4991
  850MOL0     H14725   3.831   4.562   5.266  0.0686 -0.7028 -0.0521
  850MOL0     H14726   3.652   4.803   5.342  0.9623 -0.8209  0.6401
  850MOL0     H14727   3.774   4.722   5.429 -0.0411 -0.6446 -0.9789
  850MOL0     H14728   3.868   4.930   5.355 -1.1752 -0.4146  1.3299
  850MOL0     H14729   3.814   4.902   5.197  0.5279  0.8838 -0.3803
  850MOL0     H14730   4.058   4.873   5.212 -1.5466 -1.0085 -2.4591
  850MOL0     H14731   3.979   4.718   5.163  2.6144 -2.0250  1.0244
  850MOL0     H14732   3.959   4.295   5.732 -2.2854  1.0654 -0.1785
  850MOL0     H14733   4.049   4.174   5.947  0.6172  1.6069 -2.0224
  850MOL0     H14734   3.902   4.025   6.358 -3.4396  0.0689  0.7329
  850MOL0     H14735   3.940   3.947   6.586 -0.3460 -0.3401 -0.6991
  850MOL0     H14736   3.869   3.768   7.852 -0.5055 -1.4952  0.5648
  850MOL0     H14737   3.943   3.742   8.087  1.7859  0.8772 -2.5376
  850MOL0     H14738   4.058   3.862   8.468 -0.2864 -2.7681 -1.2314
  850MOL0     H14739   4.173   3.738   8.640 -0.0027  1.7820 -2.3407
  850MOL0     H14740   4.103   3.543   9.022  0.5023  0.3389  1.5115
  850MOL0     H14741   3.945   3.606   8.988 -2.8390 -0.9275 -2.8021
  850MOL0     H14742   3.856   3.411   8.909 -0.8702 -1.1646  0.8994
  850MOL0     H14743   3.949   3.355   9.049 -1.0860 -3.0347 -1.3311
  850MOL0     H14744   4.136   3.293   8.937  0.2984 -1.9542 -0.7742
  850MOL0     H14745   4.083   3.338   8.773 -0.6707 -1.0162  0.0627
  850MOL0     H14746   3.908   3.154   8.798  0.1756  4.2811 -0.3033
  850MOL0     H14747   3.985   3.119   8.956 -0.0686  2.0496  0.2486
  850MOL0     H14748   4.309   2.986   8.732  1.4201  1.5110 -0.6419
  850MOL0     H14749   3.794   3.585   8.791 -0.6526  1.0878  0.0764
  850MOL0     H14750   3.679   3.706   8.605  0.2137  2.4895  0.9903
  851MOL0     O14751   3.391   3.472   0.020  0.0673  0.2360  0.1726
  851MOL0     C14752   3.467   3.408  -0.062  0.1844 -0.1228  0.0778
  851MOL0     O14753   3.573   3.325  -0.030 -0.8076 -0.2115  0.1317
  851MOL0     C14754   3.612   3.301   0.101 -0.8476  0.4447 -0.8475
  851MOL0     C14755   3.550   3.320   0.224  1.1313 -0.2053  0.0280
  851MOL0     C14756   3.613   3.299   0.342 -0.7273  0.0518 -0.2126
  851MOL0     C14757   3.750   3.282   0.342 -0.3924 -0.7115 -0.9208
  851MOL0     O14758   3.811   3.260   0.460 -0.3596 -0.2544 -0.3791
  851MOL0     C14759   3.821   3.376   0.551 -0.6387  0.0657 -2.1009
  851MOL0     C14760   3.961   3.398   0.613  0.0281  1.0189 -0.1063
  851MOL0     C14761   4.053   3.469   0.509 -0.3305  0.7666  1.1003
  851MOL0     C14762   4.202   3.466   0.546 -0.2912 -0.5412 -0.6792
  851MOL0     C14763   4.291   3.538   0.432  0.2177  0.8472 -0.8850
  851MOL0     C14764   4.294   3.479   0.283  0.6620  1.0179  0.6433
  851MOL0     C14765   4.348   3.337   0.257  0.0321  0.3244 -0.5970
  851MOL0     C14766   4.499   3.325   0.270 -0.3853 -0.5469  0.4950
  851MOL0     N14767   4.584   3.372   0.159 -0.9509 -0.2687  0.7270
  851MOL0     C14768   4.562   3.345   0.023 -0.2526  0.8948  0.0209
  851MOL0     C14769   4.667   3.402  -0.045 -0.2943 -0.4022 -0.4039
  851MOL0     C14770   4.728   3.369  -0.185  0.5114 -0.8486 -0.4945
  851MOL0     C14771   4.840   3.257  -0.193  0.1843 -1.2484  0.0420
  851MOL0     C14772   4.973   3.313  -0.137 -0.9180  0.2090 -1.0223
  851MOL0     C14773   5.023   3.449  -0.195  0.7166  0.3136 -0.2589
  851MOL0     O14774   5.163   3.476  -0.161 -0.1253 -0.3228 -0.1338
  851MOL0     C14775   5.226   3.581  -0.222 -0.2291  0.1461 -0.1594
  851MOL0     C14776   5.165   3.703  -0.217 -0.0373  0.1161 -0.3974
  851MOL0     C14777   5.209   3.815  -0.294  0.2400  0.1664  0.4108
  851MOL0     C14778   5.136   3.942  -0.269 -0.4151 -0.1601  0.2544
  851MOL0     C14779   5.317   3.797  -0.384  0.6078  1.5444  0.3977
  851MOL0     C14780   5.358   3.882  -0.498  0.5643 -0.2598  0.0119
  851MOL0     O14781   5.475   3.858  -0.563 -0.3555 -0.3892  0.7073
  851MOL0     C14782   5.535   3.972  -0.622  0.2274  0.8442  0.2456
  851MOL0     C14783   5.621   4.048  -0.543 -0.2317  0.2152 -0.6454
  851MOL0     C14784   5.692   4.164  -0.591  0.7197 -0.2941  1.3085
  851MOL0     C14785   5.664   4.210  -0.719 -0.5076  0.1637  0.0350
  851MOL0     O14786   5.698   4.341  -0.746  0.3726  1.0405  0.4523
  851MOL0     C14787   5.837   4.376  -0.765 -0.6445  0.0980 -0.1720
  851MOL0     C14788   5.905   4.287  -0.872  0.8011 -0.4351  0.2287
  851MOL0     C14789   5.842   4.320  -1.013 -0.0347  0.1710  0.3703
  851MOL0     C14790   5.898   4.230  -1.116 -1.3588  0.5191 -1.1424
  851MOL0     C14791   5.842   4.260  -1.250 -0.3427 -0.3407  0.7392
  851MOL0     C14792   5.881   4.403  -1.308  0.7896  0.1161 -0.4690
  851MOL0     C14793   5.921   4.400  -1.457  1.1781  0.2263  0.5628
  851MOL0     C14794   6.054   4.334  -1.491  0.2152 -0.2443 -0.3427
  851MOL0    Cl14795   6.166   4.470  -1.474  0.0428 -0.5038 -0.8460
  851MOL0     C14796   5.574   4.135  -0.799 -0.0893  0.7868 -0.0790
  851MOL0     C14797   5.515   4.011  -0.755 -0.1987  0.2784 -0.2309
  851MOL0     O14798   5.283   3.971  -0.521  0.0866 -0.3162  0.0610
  851MOL0     C14799   5.376   3.669  -0.394  0.5648 -0.1043 -0.2602
  851MOL0     C14800   5.330   3.565  -0.314 -0.0301  0.1566  0.4753
  851MOL0     N14801   4.740   3.468   0.052  0.3569 -0.0200  0.2941
  851MOL0     N14802   4.686   3.465   0.173  0.3073  0.1559  0.6459
  851MOL0     C14803   3.821   3.258   0.221 -0.4415  0.0948 -0.4795
  851MOL0     C14804   3.751   3.267   0.101 -0.3683 -0.7399 -0.2057
  851MOL0     C14805   3.437   3.430  -0.211  0.4232  0.0181  0.3793
  851MOL0     C14806   3.544   3.400  -0.304  0.6161  0.4762 -0.8692
  851MOL0     C14807   3.511   3.404  -0.436  0.8686 -0.3474  0.7081
  851MOL0     C14808   3.387   3.447  -0.489  0.7653 -0.0859  0.9818
  851MOL0     O14809   3.362   3.465  -0.623  0.5507 -0.6537 -0.8845
  851MOL0     C14810   3.261   3.379  -0.668 -0.1875 -0.2712  0.5746
  851MOL0     C14811   3.189   3.427  -0.795 -0.1127 -0.0256  0.2915
  851MOL0     C14812   3.077   3.325  -0.826 -0.3281 -0.3586  0.6916
  851MOL0     C14813   3.014   3.365  -0.967  0.1363 -0.9936  0.3974
  851MOL0     C14814   2.945   3.251  -1.030 -0.1802  0.2317  0.4679
  851MOL0     C14815   2.881   3.166  -1.081 -0.7414  0.1816  0.5432
  851MOL0     C14816   3.284   3.489  -0.401 -0.1908  0.9253  0.3383
  851MOL0     C14817   3.309   3.476  -0.262 -0.0724  0.6167  0.3577
  851MOL0     H14818   3.446   3.343   0.244  1.2486 -1.7932  2.9237
  851MOL0     H14819   3.555   3.298   0.434  1.0006 -3.1454  1.0094
  851MOL0     H14820   3.787   3.467   0.502 -0.5406  0.9125 -0.6543
  851MOL0     H14821   3.747   3.360   0.630 -0.7733  1.2076 -1.9787
  851MOL0     H14822   3.936   3.459   0.700 -1.3860  0.8165 -0.3379
  851MOL0     H14823   3.993   3.295   0.634  0.8674  1.1203 -0.8583
  851MOL0     H14824   4.046   3.405   0.421  1.7068 -0.0006  1.4513
  851MOL0     H14825   4.014   3.568   0.481 -2.9853  0.1436  2.2726
  851MOL0     H14826   4.213   3.512   0.645 -1.1989 -2.3497  0.3092
  851MOL0     H14827   4.250   3.368   0.553  3.0485  0.5012 -4.9709
  851MOL0     H14828   4.259   3.642   0.421 -3.8299 -0.3201 -1.7225
  851MOL0     H14829   4.398   3.541   0.455 -0.3754  0.9946  2.2512
  851MOL0     H14830   4.203   3.501   0.228  1.5114  3.8308  0.2038
  851MOL0     H14831   4.367   3.542   0.231 -1.7457  4.7701  1.3587
  851MOL0     H14832   4.309   3.282   0.344 -0.7043  0.5066 -0.8040
  851MOL0     H14833   4.313   3.301   0.160 -0.9029  2.0165 -0.9259
  851MOL0     H14834   4.512   3.217   0.282 -0.2999 -0.4283  1.4798
  851MOL0     H14835   4.521   3.384   0.359 -2.8368  1.7283 -0.2400
  851MOL0     H14836   4.496   3.273  -0.023  2.9573 -0.6313 -2.6128
  851MOL0     H14837   4.651   3.320  -0.245 -0.0303 -1.8441  0.9472
  851MOL0     H14838   4.752   3.461  -0.239 -0.3135 -0.5172 -0.3075
  851MOL0     H14839   4.854   3.229  -0.298 -2.1530 -1.2990 -0.3023
  851MOL0     H14840   4.810   3.162  -0.148  1.7607 -2.1107 -0.6432
  851MOL0     H14841   5.048   3.234  -0.137 -0.2262  0.8480 -1.4379
  851MOL0     H14842   4.957   3.326  -0.029 -2.9439  0.2072 -1.2933
  851MOL0     H14843   4.965   3.537  -0.167 -0.2225  0.1167 -1.5031
  851MOL0     H14844   5.028   3.437  -0.303  0.4081 -1.1462 -0.1307
  851MOL0     H14845   5.086   3.708  -0.143  2.3978  1.3268  2.3395
  851MOL0     H14846   5.199   4.028  -0.293  1.5075 -0.8126  2.5547
  851MOL0     H14847   5.052   3.934  -0.339  0.1859 -0.6261 -0.4290
  851MOL0     H14848   5.102   3.951  -0.165 -0.7684  2.7457 -0.0448
  851MOL0     H14849   5.642   4.015  -0.441 -1.0416 -0.3027 -0.6391
  851MOL0     H14850   5.767   4.214  -0.531  0.1521  1.0155  0.9646
  851MOL0     H14851   5.849   4.480  -0.796 -0.0236  0.8650  2.3942
  851MOL0     H14852   5.880   4.373  -0.665 -0.3702 -1.9415 -0.3028
  851MOL0     H14853   6.011   4.302  -0.891  0.8890 -1.7729 -0.4713
  851MOL0     H14854   5.895   4.179  -0.855  0.9807 -0.5885 -0.5748
  851MOL0     H14855   5.868   4.423  -1.041  1.3691 -0.4535 -0.7702
  851MOL0     H14856   5.735   4.306  -1.000 -0.3853  3.7313  2.5962
  851MOL0     H14857   6.005   4.249  -1.109 -1.5285  1.1246  0.0444
  851MOL0     H14858   5.869   4.128  -1.088 -0.2846  0.1853 -1.2081
  851MOL0     H14859   5.736   4.243  -1.266  0.0602 -0.6649 -2.1621
  851MOL0     H14860   5.895   4.194  -1.319  0.7410  0.5176  0.7226
  851MOL0     H14861   5.800   4.473  -1.289  0.6344 -1.0077  3.8831
  851MOL0     H14862   5.972   4.427  -1.252 -0.9402 -1.0655  3.0740
  851MOL0     H14863   5.934   4.505  -1.482 -0.4668  0.2798 -0.2416
  851MOL0     H14864   5.839   4.359  -1.518  0.6673  1.1099  0.6414
  851MOL0     H14865   6.054   4.308  -1.598  2.0495  1.2064 -0.7552
  851MOL0     H14866   6.088   4.251  -1.428 -1.1154 -0.6483 -0.1400
  851MOL0     H14867   5.537   4.176  -0.893 -0.0123 -0.4433 -0.6635
  851MOL0     H14868   5.465   3.943  -0.822 -0.0396 -0.3390  0.2685
  851MOL0     H14869   5.451   3.638  -0.465  1.5881  0.7714  0.4126
  851MOL0     H14870   5.364   3.463  -0.326  1.5206  0.9493 -3.4254
  851MOL0     H14871   3.929   3.244   0.223 -0.3898  0.0329  3.2787
  851MOL0     H14872   3.797   3.268   0.003 -2.0489 -2.1350 -1.0550
  851MOL0     H14873   3.642   3.360  -0.278 -1.1406 -2.5123  1.8734
  851MOL0     H14874   3.587   3.376  -0.508  0.2187  1.3686 -0.7287
  851MOL0     H14875   3.318   3.286  -0.683 -1.1150 -0.4361 -2.3585
  851MOL0     H14876   3.181   3.351  -0.598 -2.1305  0.3270 -1.3215
  851MOL0     H14877   3.259   3.447  -0.877  2.3916  2.5414  2.8097
  851MOL0     H14878   3.146   3.524  -0.767 -0.5978 -0.3337  0.6212
  851MOL0     H14879   2.990   3.339  -0.761  0.3767 -0.3004  1.6373
  851MOL0     H14880   3.111   3.222  -0.808 -1.0006 -0.3595  2.0413
  851MOL0     H14881   3.091   3.406  -1.034  0.2999 -0.7678  0.7247
  851MOL0     H14882   2.950   3.452  -0.953  4.0494  2.3121 -0.1487
  851MOL0     H14883   2.806   3.101  -1.118  0.4725 -2.2559  2.0662
  851MOL0     H14884   3.191   3.520  -0.448  0.3503  1.3683 -0.4441
  851MOL0     H14885   3.228   3.489  -0.191 -1.8001 -0.6988 -1.2696
  852MOL0     O14886   5.009   4.738   9.207  0.6037 -0.0340 -0.1636
  852MOL0     C14887   5.106   4.727   9.280 -0.9064  0.0389  0.9388
  852MOL0     O14888   5.216   4.644   9.243  0.5046 -0.2991  0.0276
  852MOL0     C14889   5.207   4.546   9.149 -0.0245  0.3224 -0.0984
  852MOL0     C14890   5.313   4.456   9.155 -0.0639  0.9457 -0.6631
  852MOL0     C14891   5.320   4.349   9.068  0.3088 -0.0850  0.5762
  852MOL0     C14892   5.230   4.326   8.967  1.7723 -0.2623  1.0642
  852MOL0     O14893   5.251   4.243   8.859  0.0963 -0.1995  0.8157
  852MOL0     C14894   5.380   4.188   8.830 -0.1681 -0.1536 -0.4836
  852MOL0     C14895   5.403   4.052   8.894  0.5779  0.3669 -0.5870
  852MOL0     C14896   5.349   3.933   8.818  0.0233  0.1779  0.1628
  852MOL0     C14897   5.329   3.820   8.923 -0.4248  0.1254 -0.2101
  852MOL0     C14898   5.456   3.776   8.994  0.2383  0.7960 -0.7231
  852MOL0     C14899   5.435   3.632   9.040 -0.3571  0.2510 -0.2235
  852MOL0     C14900   5.564   3.587   9.117  0.6898  0.4849  0.0495
  852MOL0     C14901   5.615   3.657   9.245 -0.1505  0.9874 -0.6305
  852MOL0     N14902   5.739   3.594   9.296  0.0797  0.1100  0.0317
  852MOL0     C14903   5.864   3.582   9.237  0.1964  0.2499 -0.1677
  852MOL0     C14904   5.937   3.520   9.336  0.4500  0.4175  0.2132
  852MOL0     C14905   6.083   3.487   9.321  0.5148  0.8567  0.8396
  852MOL0     C14906   6.126   3.359   9.391 -0.0711 -0.1279 -0.8949
  852MOL0     C14907   6.277   3.329   9.412  0.6132 -1.0134  0.6719
  852MOL0     C14908   6.357   3.314   9.281  0.1915 -0.4647 -0.3260
  852MOL0     O14909   6.333   3.191   9.219  0.0703  0.3995 -0.2515
  852MOL0     C14910   6.371   3.194   9.089  0.5661  0.0290 -0.5217
  852MOL0     C14911   6.488   3.258   9.052 -0.7797  0.0170  0.1760
  852MOL0     C14912   6.546   3.257   8.924  0.7070 -1.0501 -0.1665
  852MOL0     C14913   6.670   3.342   8.906 -0.1138 -0.5109  0.6738
  852MOL0     C14914   6.476   3.175   8.825  0.5645  0.1693 -0.4734
  852MOL0     C14915   6.532   3.146   8.690 -0.1303  0.0005 -0.0354
  852MOL0     O14916   6.503   3.026   8.631 -0.0290  0.2531 -0.2915
  852MOL0     C14917   6.537   2.996   8.505  0.2155  0.3559  0.4394
  852MOL0     C14918   6.673   3.006   8.453  0.1845  0.3760  0.0674
  852MOL0     C14919   6.700   2.978   8.322 -0.1272 -0.0667  0.4351
  852MOL0     C14920   6.593   2.917   8.247  0.2788 -0.3679  0.0863
  852MOL0     O14921   6.608   2.862   8.120 -0.6891  0.9658 -0.1764
  852MOL0     C14922   6.724   2.902   8.039  0.0341 -0.6377 -0.2061
  852MOL0     C14923   6.697   2.880   7.886  0.0568  0.5478  0.5710
  852MOL0     C14924   6.741   2.738   7.853  0.1031 -0.2130  0.4262
  852MOL0     C14925   6.678   2.671   7.736  0.8177  0.0005  0.6591
  852MOL0     C14926   6.747   2.700   7.597 -0.2374 -0.6278 -0.8002
  852MOL0     C14927   6.763   2.844   7.537  0.2538  0.7981 -0.0080
  852MOL0     C14928   6.626   2.920   7.518 -0.7472  0.7497 -0.3403
  852MOL0     C14929   6.672   3.063   7.471 -0.2808 -0.3357 -0.4132
  852MOL0    Cl14930   6.764   3.162   7.608 -0.6416 -0.1398 -0.0138
  852MOL0     C14931   6.468   2.889   8.295 -0.5271  0.2384 -0.3904
  852MOL0     C14932   6.436   2.932   8.422  0.6693  0.2435  0.2554
  852MOL0     O14933   6.600   3.234   8.635  0.3152  0.4517  0.8892
  852MOL0     C14934   6.366   3.097   8.875  1.5180 -0.1668 -0.0867
  852MOL0     C14935   6.303   3.110   8.996 -0.6440  0.4493  0.0981
  852MOL0     N14936   5.864   3.509   9.449  0.3010  0.1709 -0.3043
  852MOL0     N14937   5.744   3.546   9.426  0.1842 -0.0213 -0.0970
  852MOL0     C14938   5.127   4.416   8.954  0.0525 -0.4163 -0.5237
  852MOL0     C14939   5.116   4.524   9.043 -0.8665 -0.2272 -0.1536
  852MOL0     C14940   5.122   4.818   9.396  0.4537 -0.0508  0.5810
  852MOL0     C14941   5.028   4.921   9.412  0.3565 -0.0079 -1.1077
  852MOL0     C14942   5.009   4.983   9.535 -0.4177  0.3091  0.4321
  852MOL0     C14943   5.100   4.961   9.641  0.2642  0.0407  0.2616
  852MOL0     O14944   5.080   5.028   9.766 -0.2686 -0.0740  0.4611
  852MOL0     C14945   5.173   5.002   9.871 -0.8429  0.5658 -0.1870
  852MOL0     C14946   5.140   5.065   9.995 -0.3828  0.0246  0.7893
  852MOL0     C14947   5.232   5.025  10.114  0.5811  0.4016  0.7348
  852MOL0     C14948   5.386   5.040  10.080 -0.0876  1.0826 -0.4426
  852MOL0     C14949   5.423   5.172  10.030 -0.7405  0.2065 -0.7592
  852MOL0     C14950   5.457   5.285   9.995  0.4790  0.5177  0.5628
  852MOL0     C14951   5.206   4.876   9.617 -0.3639 -0.4020  0.2810
  852MOL0     C14952   5.215   4.801   9.501 -0.3793  0.2450 -0.1424
  852MOL0     H14953   5.388   4.466   9.233 -0.9020 -1.3942  0.5428
  852MOL0     H14954   5.403   4.280   9.079 -0.1290 -0.8894 -0.8683
  852MOL0     H14955   5.392   4.186   8.722 -0.7446 -1.5005 -0.5428
  852MOL0     H14956   5.454   4.263   8.862 -0.8056  0.9554 -1.5459
  852MOL0     H14957   5.511   4.043   8.911  0.5437  1.4530  0.3507
  852MOL0     H14958   5.354   4.054   8.991  1.3489  2.9939 -0.1806
  852MOL0     H14959   5.260   3.950   8.758  0.0801 -0.7538 -0.1957
  852MOL0     H14960   5.419   3.899   8.741 -1.6004  0.9791 -1.7675
  852MOL0     H14961   5.242   3.837   8.986 -0.9031 -0.6788 -0.6285
  852MOL0     H14962   5.296   3.745   8.851  0.0467 -0.5295  0.2494
  852MOL0     H14963   5.541   3.773   8.925  2.2753 -2.0537  1.7040
  852MOL0     H14964   5.475   3.846   9.076  0.3889  0.7665 -0.7318
  852MOL0     H14965   5.348   3.633   9.108  0.3758 -0.2883  0.7534
  852MOL0     H14966   5.421   3.564   8.956  1.0924 -0.8536  0.3967
  852MOL0     H14967   5.553   3.483   9.148  3.5544 -0.2365 -1.0704
  852MOL0     H14968   5.643   3.586   9.042  0.6132  0.1669 -0.0264
  852MOL0     H14969   5.540   3.657   9.325 -1.5680  0.6031 -1.9142
  852MOL0     H14970   5.640   3.757   9.210  1.9416 -0.0581 -2.3366
  852MOL0     H14971   5.889   3.606   9.134 -1.1497  0.6049 -0.4358
  852MOL0     H14972   6.096   3.473   9.213 -0.5049  1.4077  0.6354
  852MOL0     H14973   6.150   3.566   9.356  0.1042  2.2649 -1.3417
  852MOL0     H14974   6.069   3.273   9.354 -2.3580  0.9386 -0.0423
  852MOL0     H14975   6.101   3.365   9.498  0.7145  3.3674 -0.8037
  852MOL0     H14976   6.283   3.241   9.476 -1.3384 -2.0638 -0.5114
  852MOL0     H14977   6.316   3.412   9.471 -0.3721  0.0424 -0.1064
  852MOL0     H14978   6.460   3.318   9.317  0.5410  3.8167 -1.2857
  852MOL0     H14979   6.335   3.394   9.210  1.0563 -0.7892 -0.9759
  852MOL0     H14980   6.552   3.302   9.127  0.2475  2.3779 -1.9177
  852MOL0     H14981   6.658   3.451   8.904 -0.7619 -0.5692 -1.7127
  852MOL0     H14982   6.738   3.303   8.982 -0.8003 -0.2817  1.4259
  852MOL0     H14983   6.720   3.331   8.809 -2.8131 -0.2372 -0.8810
  852MOL0     H14984   6.748   3.047   8.520  1.3350  0.9267 -1.5062
  852MOL0     H14985   6.803   2.991   8.290  0.4109 -3.1568  0.6058
  852MOL0     H14986   6.760   3.005   8.044  0.1602 -0.4038 -3.5661
  852MOL0     H14987   6.811   2.850   8.080  2.6599  2.6657 -1.1674
  852MOL0     H14988   6.595   2.906   7.859  1.4033  1.6277 -4.5727
  852MOL0     H14989   6.763   2.943   7.825 -0.6584  0.2805 -0.4990
  852MOL0     H14990   6.722   2.675   7.940 -0.6080  0.9862  1.1829
  852MOL0     H14991   6.847   2.739   7.824 -0.5291  4.4853 -2.9257
  852MOL0     H14992   6.685   2.563   7.748  2.8394 -0.0768 -0.6977
  852MOL0     H14993   6.570   2.693   7.732  0.5588 -1.0664 -3.7887
  852MOL0     H14994   6.704   2.635   7.521  1.3390  0.3060 -2.5719
  852MOL0     H14995   6.846   2.654   7.605 -0.2935 -0.5446  0.5840
  852MOL0     H14996   6.817   2.899   7.614 -1.9376 -1.2521  3.2925
  852MOL0     H14997   6.824   2.823   7.449 -0.7415 -0.7421 -0.3834
  852MOL0     H14998   6.564   2.925   7.608 -0.4976 -2.1658  0.0752
  852MOL0     H14999   6.574   2.867   7.437  2.2993 -1.1106 -1.2214
  852MOL0     H15000   6.579   3.120   7.457  1.3024  3.0357  1.4411
  852MOL0     H15001   6.726   3.063   7.376 -1.1779  0.0742 -0.9305
  852MOL0     H15002   6.393   2.837   8.235 -0.3816 -0.9832  0.4307
  852MOL0     H15003   6.342   2.901   8.467  0.6548 -3.0980 -1.7224
  852MOL0     H15004   6.321   3.029   8.803 -1.0231  1.5674 -0.2750
  852MOL0     H15005   6.209   3.061   9.018 -1.4496  1.2037 -1.4738
  852MOL0     H15006   5.067   4.417   8.864 -0.3446 -2.0799 -0.3039
  852MOL0     H15007   5.046   4.604   9.018 -2.0922 -1.3028 -0.2418
  852MOL0     H15008   4.957   4.937   9.333 -1.3730 -1.9715 -0.0537
  852MOL0     H15009   4.925   5.049   9.555 -1.9721 -1.7222  0.9235
  852MOL0     H15010   5.193   4.896   9.885 -0.5909  1.0240  4.0861
  852MOL0     H15011   5.265   5.053   9.838 -0.9305  1.2518  0.5908
  852MOL0     H15012   5.035   5.046  10.018 -1.3491  2.9438 -0.7510
  852MOL0     H15013   5.149   5.172   9.976  0.5401 -0.2609 -0.5313
  852MOL0     H15014   5.209   4.921  10.142  0.9169  0.3711  0.8944
  852MOL0     H15015   5.211   5.091  10.198 -2.3640 -1.3936  1.5757
  852MOL0     H15016   5.413   4.956  10.015  1.0897 -2.2130  3.8407
  852MOL0     H15017   5.441   5.014  10.170  0.2455  2.7020 -0.1399
  852MOL0     H15018   5.509   5.376   9.975  0.7717 -0.2127 -2.5009
  852MOL0     H15019   5.279   4.848   9.692 -1.1158 -2.9767  0.1371
  852MOL0     H15020   5.297   4.730   9.500 -0.9240 -0.4298  1.0375
  853MOL0     O15021   8.899   6.829   5.316 -0.6978  0.9730 -0.6930
  853MOL0     C15022   8.961   6.835   5.213 -0.4905  0.0615  0.3910
  853MOL0     O15023   8.910   6.841   5.085  0.4473  0.3967 -0.1975
  853MOL0     C15024   8.781   6.868   5.069  0.2954  0.1648  0.2381
  853MOL0     C15025   8.714   6.785   4.976  0.1398  0.2864 -1.3385
  853MOL0     C15026   8.573   6.795   4.964 -0.2086 -0.2178  0.7248
  853MOL0     C15027   8.504   6.895   5.029  0.2397 -0.4320 -0.1637
  853MOL0     O15028   8.370   6.896   4.997 -1.0478 -0.6148 -0.2887
  853MOL0     C15029   8.295   7.016   5.024  0.0035 -0.5301 -0.0527
  853MOL0     C15030   8.153   7.000   4.961  0.4047  0.2196  1.0175
  853MOL0     C15031   8.123   6.863   4.897  0.6411 -0.5347 -0.5096
  853MOL0     C15032   7.985   6.867   4.824  0.4387 -0.5718  0.5745
  853MOL0     C15033   7.874   6.808   4.912  0.2776  0.5726 -0.3818
  853MOL0     C15034   7.732   6.844   4.859  0.2053  0.3004  0.3803
  853MOL0     C15035   7.614   6.756   4.911 -0.3314  0.3147  0.2531
  853MOL0     C15036   7.495   6.791   4.834 -0.5842 -0.2243 -0.4033
  853MOL0     N15037   7.451   6.934   4.860 -0.0244  0.8485 -0.2461
  853MOL0     C15038   7.373   6.970   4.957  1.0193 -0.6928 -0.0437
  853MOL0     C15039   7.368   7.104   4.954  0.3705 -0.2298  1.7572
  853MOL0     C15040   7.271   7.169   5.049  0.3208 -0.5598  0.7357
  853MOL0     C15041   7.255   7.320   5.010  0.2835 -0.2988  0.1272
  853MOL0     C15042   7.214   7.432   5.107  0.3323  0.4310  0.2281
  853MOL0     C15043   7.179   7.566   5.042  0.2790  0.0237  0.2956
  853MOL0     O15044   7.101   7.548   4.923 -0.5954  0.4129  0.2882
  853MOL0     C15045   7.067   7.654   4.847 -0.2980 -0.1747  0.4560
  853MOL0     C15046   6.971   7.630   4.749  0.2663 -0.6791  0.1564
  853MOL0     C15047   6.919   7.734   4.683 -0.7475  0.2542  0.4903
  853MOL0     C15048   6.801   7.707   4.598 -0.3094  0.4789 -0.0970
  853MOL0     C15049   6.976   7.866   4.689  0.5673 -0.1026 -0.0343
  853MOL0     C15050   6.944   7.983   4.594  0.3221 -0.0755  0.0582
  853MOL0     O15051   6.948   8.100   4.649 -0.2860  0.9755  0.1690
  853MOL0     C15052   6.880   8.198   4.587  0.3887 -0.5713  0.1710
  853MOL0     C15053   6.937   8.274   4.488  0.2670 -0.3960  0.2452
  853MOL0     C15054   6.870   8.380   4.424 -0.2285  0.0324 -0.2929
  853MOL0     C15055   6.737   8.402   4.459  0.1043  0.2791  0.9284
  853MOL0     O15056   6.684   8.505   4.384  0.9466 -0.3361  0.2987
  853MOL0     C15057   6.538   8.517   4.380 -1.1145  0.4456  0.4519
  853MOL0     C15058   6.506   8.583   4.250 -0.0116  0.2054 -0.0808
  853MOL0     C15059   6.354   8.603   4.232 -0.6780  0.0062  0.3509
  853MOL0     C15060   6.286   8.462   4.223 -0.2197 -0.6531  0.7787
  853MOL0     C15061   6.141   8.474   4.172 -0.3774  0.9079 -0.7411
  853MOL0     C15062   6.067   8.509   4.291  0.2229  0.9322 -0.7768
  853MOL0     C15063   5.917   8.513   4.258  0.6036  0.7447 -0.0144
  853MOL0     C15064   5.846   8.562   4.379  0.3768  0.9945 -0.5808
  853MOL0    Cl15065   5.851   8.462   4.521  0.0316  0.0838 -0.3774
  853MOL0     C15066   6.674   8.334   4.565  0.8040 -0.4464 -0.1712
  853MOL0     C15067   6.752   8.231   4.631 -0.3522  0.1382  0.5787
  853MOL0     O15068   6.913   7.960   4.478  0.0313 -0.6628 -0.4669
  853MOL0     C15069   7.083   7.884   4.783  0.7432  0.2075  0.7953
  853MOL0     C15070   7.124   7.779   4.864 -0.3341  0.1372  0.3870
  853MOL0     N15071   7.436   7.134   4.833 -0.5060  0.6947 -0.4236
  853MOL0     N15072   7.491   7.035   4.782  0.0149 -0.0318  0.1861
  853MOL0     C15073   8.569   6.993   5.109 -0.2064 -0.9693 -0.1461
  853MOL0     C15074   8.709   6.976   5.129  0.0753  0.4363  0.8274
  853MOL0     C15075   9.102   6.816   5.234  0.6760 -0.3354  0.2378
  853MOL0     C15076   9.190   6.841   5.124 -0.5395  1.0638  0.9977
  853MOL0     C15077   9.324   6.845   5.149 -0.5147 -1.1099 -0.4191
  853MOL0     C15078   9.379   6.828   5.280 -0.6931 -0.9250  0.8792
  853MOL0     O15079   9.520   6.835   5.285 -0.1406  0.4038 -0.4720
  853MOL0     C15080   9.578   6.834   5.425  0.8384  1.2104  0.0347
  853MOL0     C15081   9.736   6.826   5.425  0.3683  1.1567 -0.2321
  853MOL0     C15082   9.775   6.967   5.362  0.1973 -0.3141  0.0361
  853MOL0     C15083   9.920   6.979   5.320  0.0349 -0.0182  0.3649
  853MOL0     C15084   9.953   7.113   5.278  0.1389 -0.1232  0.9830
  853MOL0     C15085   9.996   7.228   5.259 -0.0185  0.1281  0.0510
  853MOL0     C15086   9.293   6.823   5.386  0.2794  0.5325 -0.3323
  853MOL0     C15087   9.152   6.818   5.373  0.3245 -0.0333  0.9375
  853MOL0     H15088   8.762   6.702   4.924 -1.6822 -1.5905 -0.1711
  853MOL0     H15089   8.500   6.741   4.905  0.4906 -0.8925  0.4566
  853MOL0     H15090   8.288   7.025   5.133  2.3836  0.2481  0.0951
  853MOL0     H15091   8.337   7.111   4.989 -0.3084  0.2278  1.5010
  853MOL0     H15092   8.065   7.030   5.019 -0.9970  1.1625 -1.4269
  853MOL0     H15093   8.147   7.073   4.879  0.2086  0.5257  1.3044
  853MOL0     H15094   8.203   6.849   4.823  0.6004  1.9127 -1.1256
  853MOL0     H15095   8.132   6.783   4.970  0.2133 -0.5472 -0.4723
  853MOL0     H15096   7.953   6.970   4.805 -1.0369 -0.8831  1.2651
  853MOL0     H15097   8.009   6.818   4.729  0.2109 -0.1390  0.2902
  853MOL0     H15098   7.887   6.700   4.920  0.8450  0.5877 -1.0549
  853MOL0     H15099   7.876   6.849   5.014 -0.2169 -2.3597  0.9264
  853MOL0     H15100   7.703   6.948   4.871  0.1175  0.2984  0.1896
  853MOL0     H15101   7.739   6.839   4.750 -1.1301 -0.6323  0.3098
  853MOL0     H15102   7.644   6.651   4.899 -0.9435  0.3495 -2.1017
  853MOL0     H15103   7.600   6.779   5.017  2.0229  3.0203  0.0865
  853MOL0     H15104   7.408   6.727   4.855 -0.9977  0.8437  1.3852
  853MOL0     H15105   7.512   6.775   4.728  1.7830 -0.0318 -0.1021
  853MOL0     H15106   7.328   6.908   5.034  0.4289  3.1445  3.0302
  853MOL0     H15107   7.173   7.123   5.039  1.0325 -1.8709 -0.5625
  853MOL0     H15108   7.302   7.165   5.154  0.3351 -0.5924  0.7303
  853MOL0     H15109   7.199   7.330   4.917  2.4676  1.2524 -1.1163
  853MOL0     H15110   7.354   7.354   4.979  0.1172  0.5513  0.4914
  853MOL0     H15111   7.287   7.444   5.187  0.3101 -3.5142  1.0569
  853MOL0     H15112   7.124   7.396   5.156 -0.8584  1.5149 -1.0746
  853MOL0     H15113   7.278   7.608   5.018  0.1972 -0.5570 -1.0982
  853MOL0     H15114   7.131   7.635   5.112 -1.5764  0.7540 -1.5979
  853MOL0     H15115   6.932   7.528   4.746  0.2071 -0.6455 -0.2408
  853MOL0     H15116   6.764   7.799   4.552 -0.7147  1.4011  1.9485
  853MOL0     H15117   6.829   7.634   4.522  4.1818  0.1446  1.5564
  853MOL0     H15118   6.717   7.662   4.651 -0.6713  0.1851 -0.9128
  853MOL0     H15119   7.041   8.253   4.467 -0.2838 -1.9603 -1.1366
  853MOL0     H15120   6.903   8.446   4.345 -1.0063  0.1337 -0.5457
  853MOL0     H15121   6.492   8.418   4.390  3.5970 -2.0452  0.2357
  853MOL0     H15122   6.519   8.592   4.458  0.1483 -1.1152  2.3456
  853MOL0     H15123   6.567   8.673   4.244 -1.0978  0.9710  0.0997
  853MOL0     H15124   6.528   8.515   4.167  0.2426  1.0676 -0.7308
  853MOL0     H15125   6.327   8.656   4.140 -1.9360 -1.8645 -0.4374
  853MOL0     H15126   6.319   8.665   4.315  0.3542  2.2415 -0.7913
  853MOL0     H15127   6.347   8.392   4.166  0.7942 -1.4041  2.7259
  853MOL0     H15128   6.286   8.411   4.319 -0.3434  1.5067  1.9837
  853MOL0     H15129   6.112   8.371   4.152  3.9454 -0.8640  0.9311
  853MOL0     H15130   6.141   8.554   4.096  1.5031  1.5440 -0.1419
  853MOL0     H15131   6.083   8.438   4.373  2.3557  2.3196  0.0977
  853MOL0     H15132   6.098   8.609   4.319  0.1164  0.9556 -0.7402
  853MOL0     H15133   5.873   8.415   4.239  1.1628  0.9310 -2.8289
  853MOL0     H15134   5.875   8.571   4.175 -0.5576 -0.9882 -0.7009
  853MOL0     H15135   5.741   8.586   4.363  0.1266  2.1214  2.0694
  853MOL0     H15136   5.882   8.658   4.418 -0.5597  1.5552 -1.0559
  853MOL0     H15137   6.569   8.353   4.586  0.6188 -1.4572 -0.1190
  853MOL0     H15138   6.729   8.169   4.717  2.9469 -0.6378  1.0285
  853MOL0     H15139   7.127   7.983   4.780 -0.1002  0.6317 -3.5056
  853MOL0     H15140   7.208   7.792   4.932 -0.1215 -2.9423  0.8300
  853MOL0     H15141   8.515   7.074   5.155 -3.3157 -0.7586 -3.6954
  853MOL0     H15142   8.759   7.039   5.202 -0.9165  2.5275 -0.1952
  853MOL0     H15143   9.170   6.845   5.017 -0.0747  1.6820  0.9324
  853MOL0     H15144   9.395   6.850   5.067  1.6521 -2.0250  1.3099
  853MOL0     H15145   9.536   6.919   5.478 -2.8680  0.3351 -1.1213
  853MOL0     H15146   9.531   6.748   5.475  1.1132  0.6866 -0.5896
  853MOL0     H15147   9.779   6.731   5.392 -0.1996  0.8083  0.0322
  853MOL0     H15148   9.771   6.838   5.528  2.0195  3.9041 -0.9838
  853MOL0     H15149   9.766   7.045   5.437 -1.1590 -2.1883  1.9398
  853MOL0     H15150   9.713   6.992   5.275 -0.8046 -0.5945  0.6528
  853MOL0     H15151   9.944   6.901   5.247  1.1146  0.3772  0.2859
  853MOL0     H15152   9.987   6.956   5.403  1.6804  0.1695 -0.8503
  853MOL0     H15153  10.055   7.313   5.233  2.5882 -0.1009  4.2754
  853MOL0     H15154   9.340   6.803   5.481  0.2852 -2.2680 -0.8421
  853MOL0     H15155   9.090   6.816   5.462 -4.7585  1.1241 -2.1749
  854MOL0     O15156   8.478   3.564   9.533  0.0733  0.8534  0.9499
  854MOL0     C15157   8.590   3.524   9.546 -0.0384 -0.8642  0.2246
  854MOL0     O15158   8.703   3.571   9.481  0.3235  0.2002  1.0621
  854MOL0     C15159   8.676   3.669   9.387 -0.1101 -0.3135 -0.5005
  854MOL0     C15160   8.612   3.627   9.271 -0.5459  1.1723  0.6247
  854MOL0     C15161   8.566   3.727   9.184  0.0233 -0.8335  0.1485
  854MOL0     C15162   8.574   3.862   9.210  0.5280 -0.4759 -1.0321
  854MOL0     O15163   8.522   3.956   9.126 -0.4444  0.1329  0.6348
  854MOL0     C15164   8.624   4.018   9.036  0.7151 -0.6239 -0.8617
  854MOL0     C15165   8.613   3.939   8.903 -0.2337 -0.4438  0.2528
  854MOL0     C15166   8.744   3.946   8.819  0.0595  0.6294  0.1052
  854MOL0     C15167   8.727   3.848   8.708  0.0761 -0.0208 -0.3515
  854MOL0     C15168   8.866   3.810   8.659  0.5330 -0.6313 -0.3975
  854MOL0     C15169   8.857   3.725   8.530  0.8222  0.1561 -0.6150
  854MOL0     C15170   8.976   3.720   8.446 -0.8876 -0.5174  0.1730
  854MOL0     C15171   9.088   3.653   8.521 -0.2179 -0.0359  0.1926
  854MOL0     N15172   9.076   3.507   8.543 -0.1161  0.1184 -0.2505
  854MOL0     C15173   9.142   3.407   8.473  0.5176  0.3343  1.1106
  854MOL0     C15174   9.097   3.289   8.528  0.0489 -0.0510  1.0284
  854MOL0     C15175   9.131   3.133   8.511 -0.8135 -0.1276  0.8658
  854MOL0     C15176   9.014   3.042   8.478 -0.1638 -0.4296 -0.0020
  854MOL0     C15177   8.981   3.045   8.329  1.4931 -0.2416  0.3050
  854MOL0     C15178   9.082   2.962   8.242 -0.2921 -0.4609 -0.2067
  854MOL0     O15179   9.012   2.896   8.143 -0.1989 -0.4643  0.2765
  854MOL0     C15180   9.059   2.791   8.066  0.7125  0.3924  0.6021
  854MOL0     C15181   9.184   2.726   8.090 -0.3750  0.3851  0.2503
  854MOL0     C15182   9.224   2.612   8.012  0.3541  0.2060  0.3616
  854MOL0     C15183   9.352   2.547   8.039 -1.1120  0.6599  0.3658
  854MOL0     C15184   9.129   2.557   7.915  0.5239 -0.0901  0.4602
  854MOL0     C15185   9.155   2.434   7.835 -0.9867  0.3287 -0.0058
  854MOL0     O15186   9.045   2.344   7.831 -0.7018 -0.4064 -0.8981
  854MOL0     C15187   9.057   2.208   7.795  0.0344  0.7377  0.7563
  854MOL0     C15188   9.163   2.150   7.723 -0.4457 -0.5369 -0.0575
  854MOL0     C15189   9.165   2.018   7.686 -0.1321  0.0653 -0.4142
  854MOL0     C15190   9.067   1.925   7.726 -0.2704 -0.0424 -0.3496
  854MOL0     O15191   9.064   1.794   7.692 -0.1970  1.0756  0.2412
  854MOL0     C15192   9.165   1.746   7.594 -0.4811  0.3690 -0.1122
  854MOL0     C15193   9.161   1.596   7.608 -0.1910  1.5227 -0.2109
  854MOL0     C15194   9.215   1.535   7.740 -0.1682 -0.6591  0.6630
  854MOL0     C15195   9.365   1.549   7.749 -0.2076  0.7986 -0.1922
  854MOL0     C15196   9.417   1.443   7.850  0.0272 -0.3531  0.5644
  854MOL0     C15197   9.571   1.429   7.873 -0.1318  0.0273  0.3226
  854MOL0     C15198   9.607   1.313   7.973  0.2972 -0.6108 -0.5855
  854MOL0     C15199   9.758   1.300   8.023  0.8025 -0.8011  0.5412
  854MOL0    Cl15200   9.791   1.154   8.107  0.1415  0.1170 -0.1213
  854MOL0     C15201   8.962   1.980   7.799  0.3387  0.1840  0.4106
  854MOL0     C15202   8.953   2.121   7.823  0.3921 -0.2215 -0.5667
  854MOL0     O15203   9.260   2.427   7.778  0.0932  0.4438 -0.1349
  854MOL0     C15204   9.005   2.628   7.896  0.4593 -0.0773 -0.0770
  854MOL0     C15205   8.975   2.740   7.961  0.7173 -0.4190  0.0073
  854MOL0     N15206   9.014   3.324   8.631  0.1638 -0.5651 -0.9016
  854MOL0     N15207   9.000   3.454   8.642  0.9995 -0.0017 -0.2076
  854MOL0     C15208   8.629   3.905   9.331 -1.3918  0.8582 -0.0831
  854MOL0     C15209   8.687   3.806   9.408 -0.1319 -0.2900 -0.3859
  854MOL0     C15210   8.602   3.441   9.670  0.4293 -0.3300 -0.0194
  854MOL0     C15211   8.502   3.416   9.763 -0.6062 -0.9074 -0.6276
  854MOL0     C15212   8.526   3.327   9.862  0.1047  0.3420  0.4330
  854MOL0     C15213   8.653   3.268   9.887  0.1151  0.3061 -0.3233
  854MOL0     O15214   8.683   3.187   9.998 -0.6331 -0.1423  0.3451
  854MOL0     C15215   8.575   3.126  10.070  0.0844  0.2920  0.6795
  854MOL0     C15216   8.533   3.207  10.190 -0.5735 -1.0421  0.3033
  854MOL0     C15217   8.410   3.157  10.252 -0.2632  0.4908  1.0388
  854MOL0     C15218   8.406   3.006  10.299  0.1375 -0.6232  1.3313
  854MOL0     C15219   8.518   2.976  10.394 -0.2980  0.1325  1.2602
  854MOL0     C15220   8.611   2.942  10.456  0.0654  0.2687 -0.1386
  854MOL0     C15221   8.748   3.277   9.786  0.4752 -0.5580 -0.5055
  854MOL0     C15222   8.715   3.360   9.675 -0.3466 -0.0885 -0.3458
  854MOL0     H15223   8.598   3.521   9.251 -0.6047  1.2983 -0.0373
  854MOL0     H15224   8.516   3.696   9.093 -1.4841 -3.3478  1.7080
  854MOL0     H15225   8.607   4.126   9.027  0.2687 -0.8251 -2.9652
  854MOL0     H15226   8.720   4.001   9.087  0.6924 -1.5383 -1.0999
  854MOL0     H15227   8.582   3.835   8.915 -1.0630  0.0724  3.4724
  854MOL0     H15228   8.529   3.979   8.846 -0.1230 -3.1131 -1.9988
  854MOL0     H15229   8.777   4.045   8.788  1.3376 -0.8787 -3.9699
  854MOL0     H15230   8.826   3.924   8.888 -1.3606  0.7637  1.9152
  854MOL0     H15231   8.665   3.760   8.726  0.2749 -0.4178 -1.5570
  854MOL0     H15232   8.665   3.890   8.628 -0.0003  1.5353  0.4828
  854MOL0     H15233   8.924   3.900   8.634 -1.1541  0.3183 -1.0986
  854MOL0     H15234   8.925   3.765   8.739  1.3414  1.3010  0.1452
  854MOL0     H15235   8.824   3.626   8.563  4.1412 -1.4941 -1.7705
  854MOL0     H15236   8.776   3.769   8.471 -0.1527  0.3536  0.8310
  854MOL0     H15237   8.964   3.661   8.355  2.7954 -2.9172  1.0390
  854MOL0     H15238   9.007   3.816   8.402  2.5027 -2.9998 -3.5687
  854MOL0     H15239   9.094   3.698   8.621 -0.6055 -1.4511  0.8792
  854MOL0     H15240   9.180   3.652   8.462 -0.0555 -0.8157  0.4458
  854MOL0     H15241   9.207   3.428   8.389 -0.6451 -0.7851 -0.0997
  854MOL0     H15242   9.211   3.122   8.438 -0.4672 -1.4697  1.4285
  854MOL0     H15243   9.188   3.104   8.600  1.6053 -0.8369 -0.8220
  854MOL0     H15244   8.933   3.064   8.548 -1.4628 -2.0785 -0.9125
  854MOL0     H15245   9.046   2.942   8.509 -1.8920 -1.2148 -0.6156
  854MOL0     H15246   8.977   3.152   8.307 -1.5166 -0.1910  0.6312
  854MOL0     H15247   8.878   3.008   8.322  0.9346  1.5218 -1.9889
  854MOL0     H15248   9.138   2.896   8.308  0.5579  0.6219  0.1754
  854MOL0     H15249   9.150   3.029   8.189  0.4753 -1.9043 -1.1058
  854MOL0     H15250   9.255   2.752   8.167  2.7588 -1.8103 -1.6236
  854MOL0     H15251   9.410   2.581   8.126 -1.3149 -3.0703  2.1407
  854MOL0     H15252   9.331   2.444   8.067  1.2913  0.2756  1.0468
  854MOL0     H15253   9.409   2.561   7.947 -3.0987  2.1735 -0.7044
  854MOL0     H15254   9.246   2.214   7.695  2.3143 -2.3485  3.1172
  854MOL0     H15255   9.243   1.976   7.623 -4.1904 -1.7905 -4.8376
  854MOL0     H15256   9.126   1.777   7.496 -3.0161 -1.5000  0.1832
  854MOL0     H15257   9.263   1.789   7.618 -0.6802  0.6251  0.2676
  854MOL0     H15258   9.055   1.567   7.604  0.3165 -0.4496 -0.4162
  854MOL0     H15259   9.216   1.546   7.528 -0.0595  0.1557  0.7047
  854MOL0     H15260   9.177   1.433   7.733  0.1823 -0.7169 -0.6669
  854MOL0     H15261   9.181   1.596   7.824  1.6675  6.1832 -2.7877
  854MOL0     H15262   9.414   1.527   7.654 -0.9580 -0.7660 -0.2637
  854MOL0     H15263   9.378   1.652   7.782  1.0073  1.3655 -2.2875
  854MOL0     H15264   9.367   1.351   7.819 -0.4385  0.1544 -0.2742
  854MOL0     H15265   9.378   1.470   7.948  0.9385  2.2895  0.2873
  854MOL0     H15266   9.618   1.407   7.776  1.3567  0.9121  0.8140
  854MOL0     H15267   9.613   1.525   7.903  1.5725 -0.6847  0.3031
  854MOL0     H15268   9.560   1.221   7.939 -1.2627 -0.8613  1.9825
  854MOL0     H15269   9.554   1.340   8.065 -0.2165  0.7703 -1.2489
  854MOL0     H15270   9.772   1.383   8.092  3.3613 -0.0249 -0.7918
  854MOL0     H15271   9.831   1.315   7.943 -1.5163  0.5574 -1.4883
  854MOL0     H15272   8.874   1.922   7.824  0.0388 -1.3792 -3.5731
  854MOL0     H15273   8.867   2.156   7.880  0.1229  1.0157 -1.6915
  854MOL0     H15274   8.930   2.587   7.829  0.8037 -4.3165  1.8216
  854MOL0     H15275   8.879   2.787   7.942 -0.1810 -2.5512 -1.0717
  854MOL0     H15276   8.647   4.007   9.361 -1.3569  0.5477  0.9983
  854MOL0     H15277   8.734   3.835   9.502  2.0254 -0.9260 -1.1991
  854MOL0     H15278   8.407   3.466   9.758 -0.3964 -0.2704  1.0157
  854MOL0     H15279   8.438   3.302   9.921 -2.4438  3.4897 -1.6771
  854MOL0     H15280   8.496   3.107   9.997  0.6316  0.1411  0.1209
  854MOL0     H15281   8.627   3.036  10.106 -0.6413 -1.3532 -2.0789
  854MOL0     H15282   8.515   3.305  10.144  1.9579 -2.0220 -3.2796
  854MOL0     H15283   8.619   3.212  10.256  0.2448 -0.0147 -0.7817
  854MOL0     H15284   8.327   3.164  10.180 -0.4004  1.5170  1.2768
  854MOL0     H15285   8.390   3.221  10.338 -0.8150 -1.1063  2.1360
  854MOL0     H15286   8.400   2.941  10.212  0.5307  2.5432 -1.2271
  854MOL0     H15287   8.310   3.000  10.352 -1.8038  2.8793 -1.3352
  854MOL0     H15288   8.700   2.916  10.509  0.7476 -2.0398 -2.2071
  854MOL0     H15289   8.849   3.238   9.796  2.2388  3.7439  0.3390
  854MOL0     H15290   8.786   3.355   9.593  0.5700 -0.8989  0.4729
  855MOL0     O15291   3.310   3.606   7.069  0.2185 -0.0107 -0.2550
  855MOL0     C15292   3.215   3.679   7.064  0.8315 -0.9320 -0.9788
  855MOL0     O15293   3.190   3.792   7.143  0.6391 -0.4142 -0.7775
  855MOL0     C15294   3.234   3.807   7.266  1.1191 -0.1439  0.2607
  855MOL0     C15295   3.216   3.935   7.330  0.9979 -0.1724  0.3656
  855MOL0     C15296   3.232   3.954   7.463 -0.5585  0.7271 -0.5270
  855MOL0     C15297   3.274   3.847   7.546 -0.1368  0.1313  1.0616
  855MOL0     O15298   3.318   3.878   7.669 -0.3409  0.1159  0.6182
  855MOL0     C15299   3.299   3.780   7.774  0.5913 -0.6548  0.6990
  855MOL0     C15300   3.332   3.831   7.916  0.2991 -0.3147  0.2590
  855MOL0     C15301   3.303   3.729   8.036  0.6430 -0.3733 -0.1265
  855MOL0     C15302   3.402   3.747   8.152 -0.5164  0.3128 -0.1409
  855MOL0     C15303   3.356   3.694   8.291  0.4781 -0.6175 -0.4072
  855MOL0     C15304   3.348   3.535   8.284  0.6113  0.4902  0.4696
  855MOL0     C15305   3.402   3.463   8.410 -0.3754  0.1048 -0.0205
  855MOL0     C15306   3.350   3.508   8.550 -0.7512 -0.5657  0.4006
  855MOL0     N15307   3.424   3.452   8.661 -0.2673 -0.6085 -0.1177
  855MOL0     C15308   3.406   3.491   8.795 -0.4955 -0.5077 -0.5120
  855MOL0     C15309   3.500   3.422   8.864 -0.1595  0.7096  0.4904
  855MOL0     C15310   3.527   3.430   9.011 -0.4680  1.3365 -0.6558
  855MOL0     C15311   3.482   3.307   9.088 -0.3842  0.6678 -0.2068
  855MOL0     C15312   3.342   3.238   9.066 -0.6551 -0.5335  0.6146
  855MOL0     C15313   3.327   3.161   8.934 -0.6198 -0.3526  0.3710
  855MOL0     O15314   3.188   3.133   8.908  0.3810 -0.4800  0.2560
  855MOL0     C15315   3.124   3.119   8.790  0.1533  0.4974  1.0311
  855MOL0     C15316   3.181   3.118   8.660  0.9741  0.0197  0.3583
  855MOL0     C15317   3.101   3.112   8.540  0.1181  1.1658  0.1977
  855MOL0     C15318   3.178   3.131   8.409  0.2135 -0.4775 -0.1645
  855MOL0     C15319   2.962   3.085   8.550  0.2161  0.1133 -0.4035
  855MOL0     C15320   2.873   3.051   8.437  0.2924  0.0847  0.3548
  855MOL0     O15321   2.932   3.036   8.311  0.1978  0.4016  0.1601
  855MOL0     C15322   2.842   3.015   8.206 -0.2928 -1.0158 -0.2025
  855MOL0     C15323   2.795   2.886   8.176  0.3409  0.3372 -0.6013
  855MOL0     C15324   2.705   2.873   8.069  1.1605  0.6227 -0.7118
  855MOL0     C15325   2.670   2.983   7.996  0.0871 -0.3378 -0.4091
  855MOL0     O15326   2.606   2.952   7.889  0.8058 -0.0926 -0.2891
  855MOL0     C15327   2.672   3.006   7.768  0.1606 -0.5983  0.1408
  855MOL0     C15328   2.611   2.930   7.644 -0.1874  0.6511 -1.1237
  855MOL0     C15329   2.716   2.914   7.533  0.1851  0.0888  0.4681
  855MOL0     C15330   2.648   2.825   7.429  0.5258  0.2366  0.2565
  855MOL0     C15331   2.697   2.856   7.285 -0.8715 -0.1535 -0.3396
  855MOL0     C15332   2.623   2.778   7.177 -0.2513 -0.0112  0.4084
  855MOL0     C15333   2.689   2.769   7.040 -0.7739  0.3274  0.2049
  855MOL0     C15334   2.600   2.728   6.916  0.5825 -0.1541 -0.2328
  855MOL0    Cl15335   2.500   2.588   6.965  0.1611 -0.1942 -0.3280
  855MOL0     C15336   2.712   3.115   8.029 -0.4420  0.3084  0.3376
  855MOL0     C15337   2.802   3.122   8.131 -0.8749  0.3741  0.5615
  855MOL0     O15338   2.757   3.040   8.466 -0.3013  0.5647 -0.0804
  855MOL0     C15339   2.911   3.075   8.686  0.2615 -0.2790  1.0280
  855MOL0     C15340   2.983   3.104   8.803  0.4749  0.9121 -0.6618
  855MOL0     N15341   3.584   3.354   8.776  0.6585  0.3437  0.7287
  855MOL0     N15342   3.541   3.380   8.656 -0.3417 -0.8141  0.9126
  855MOL0     C15343   3.275   3.723   7.485  0.0978  1.3804 -0.2056
  855MOL0     C15344   3.245   3.701   7.348 -0.9544  0.0507 -0.8690
  855MOL0     C15345   3.113   3.648   6.953 -0.4626 -0.7316 -0.0211
  855MOL0     C15346   3.124   3.536   6.865 -0.5372 -0.5338  0.1601
  855MOL0     C15347   3.024   3.513   6.770 -0.0382  0.9104  0.5288
  855MOL0     C15348   2.920   3.606   6.755  0.0788 -0.2306  0.4685
  855MOL0     O15349   2.824   3.605   6.651  0.1340  0.0170  0.4810
  855MOL0     C15350   2.811   3.483   6.587  0.5839  0.4920 -0.3154
  855MOL0     C15351   2.691   3.488   6.489  0.2146  0.9796 -0.4539
  855MOL0     C15352   2.549   3.509   6.558  0.1162  0.9839  0.0888
  855MOL0     C15353   2.435   3.487   6.457  0.8171  0.0492  0.4809
  855MOL0     C15354   2.303   3.524   6.498 -0.4555 -0.1834  0.0221
  855MOL0     C15355   2.192   3.532   6.545  0.2475 -0.0565 -0.2643
  855MOL0     C15356   2.916   3.720   6.837  0.2594 -0.1100  0.0713
  855MOL0     C15357   3.009   3.737   6.936 -0.3767  0.7824  0.7829
  855MOL0     H15358   3.188   4.016   7.264 -0.9974 -0.6298  0.5828
  855MOL0     H15359   3.246   4.051   7.508 -0.3854  1.0332 -1.2254
  855MOL0     H15360   3.197   3.740   7.769  1.3462 -2.6139 -0.1844
  855MOL0     H15361   3.361   3.690   7.767 -1.1843 -1.8699 -0.0257
  855MOL0     H15362   3.440   3.849   7.912  0.4215 -1.2203 -1.5973
  855MOL0     H15363   3.290   3.932   7.924  0.6758 -0.1704  0.4118
  855MOL0     H15364   3.203   3.757   8.068  0.4991  1.9308 -2.2246
  855MOL0     H15365   3.298   3.627   7.997  2.7613  0.0230 -1.6425
  855MOL0     H15366   3.495   3.694   8.128 -1.3624 -1.0088 -0.5831
  855MOL0     H15367   3.432   3.852   8.164 -0.8279  0.3127  0.6861
  855MOL0     H15368   3.420   3.731   8.372  0.5290 -2.3786  0.3898
  855MOL0     H15369   3.254   3.730   8.309  0.7744  1.1251 -1.9424
  855MOL0     H15370   3.243   3.503   8.282  1.6773 -3.5263  0.1173
  855MOL0     H15371   3.401   3.499   8.195 -0.0279 -1.9149  0.9865
  855MOL0     H15372   3.381   3.357   8.394 -1.2044  0.4253 -1.2258
  855MOL0     H15373   3.508   3.465   8.384 -1.3305  1.4714 -4.7321
  855MOL0     H15374   3.245   3.479   8.560 -0.8550  0.5375  3.8882
  855MOL0     H15375   3.363   3.617   8.548  0.3962 -0.6778 -1.9241
  855MOL0     H15376   3.326   3.557   8.827  1.1278  0.5399  1.5709
  855MOL0     H15377   3.634   3.432   9.030 -0.4151  0.0318 -0.7188
  855MOL0     H15378   3.480   3.525   9.038 -1.0689  1.2004 -1.1928
  855MOL0     H15379   3.498   3.336   9.192  0.0985  1.6553 -0.5404
  855MOL0     H15380   3.558   3.230   9.075 -1.5009 -0.3922 -0.6558
  855MOL0     H15381   3.249   3.292   9.083 -0.2527  1.5234 -2.9236
  855MOL0     H15382   3.334   3.156   9.139 -2.7302  0.0434  1.1025
  855MOL0     H15383   3.369   3.062   8.948 -1.0601 -0.4073  1.3806
  855MOL0     H15384   3.363   3.212   8.844  1.3103  1.2330  1.9274
  855MOL0     H15385   3.288   3.121   8.646  1.2892 -3.8247  1.0393
  855MOL0     H15386   3.280   3.168   8.421  1.4357 -2.8915 -2.1855
  855MOL0     H15387   3.192   3.030   8.370 -0.9918 -0.4117 -0.8126
  855MOL0     H15388   3.128   3.193   8.334  0.5318  1.0944  0.8891
  855MOL0     H15389   2.833   2.799   8.228  1.8065  1.5086  0.3785
  855MOL0     H15390   2.645   2.784   8.059 -0.2168  1.7391 -3.3773
  855MOL0     H15391   2.669   3.115   7.761 -0.8912 -0.7254 -2.7449
  855MOL0     H15392   2.778   2.977   7.763 -0.2584 -2.7338  1.8675
  855MOL0     H15393   2.580   2.829   7.671  1.2743  0.9169  1.9904
  855MOL0     H15394   2.531   2.988   7.598  0.8274  1.6789 -1.6516
  855MOL0     H15395   2.811   2.873   7.569  1.3449  2.1784 -0.0447
  855MOL0     H15396   2.748   3.012   7.496  5.4064 -2.2330 -2.2249
  855MOL0     H15397   2.664   2.722   7.462 -1.1433  0.4267  1.7642
  855MOL0     H15398   2.541   2.844   7.420  0.6495  0.4538 -0.8926
  855MOL0     H15399   2.806   2.852   7.280 -0.5014  2.1709  2.7079
  855MOL0     H15400   2.670   2.959   7.260 -5.6644 -1.6676 -2.7134
  855MOL0     H15401   2.623   2.677   7.218 -2.2615  0.7163  2.3910
  855MOL0     H15402   2.517   2.803   7.165 -0.1157  0.2494 -0.3176
  855MOL0     H15403   2.756   2.683   7.041 -4.0192 -2.4782 -1.4078
  855MOL0     H15404   2.742   2.862   7.016  1.9490 -1.4126 -0.9942
  855MOL0     H15405   2.654   2.701   6.825 -2.5533  0.8662 -2.5811
  855MOL0     H15406   2.532   2.810   6.891  0.3369 -0.3157 -0.0920
  855MOL0     H15407   2.679   3.203   7.974 -2.9111 -0.1300  1.0016
  855MOL0     H15408   2.830   3.221   8.166 -0.8381  0.1232  1.2517
  855MOL0     H15409   2.805   3.053   8.694 -0.0772  1.6270  2.5502
  855MOL0     H15410   2.927   3.097   8.896 -0.5241 -0.0869 -1.3168
  855MOL0     H15411   3.295   3.637   7.548 -4.0242 -0.6840 -1.3348
  855MOL0     H15412   3.233   3.599   7.311  0.9490 -0.2022 -0.8957
  855MOL0     H15413   3.208   3.469   6.880 -1.0729 -0.7669  2.6465
  855MOL0     H15414   3.036   3.428   6.703 -1.3233  0.4742  0.8227
  855MOL0     H15415   2.903   3.461   6.532  0.3418  3.0564 -1.8813
  855MOL0     H15416   2.786   3.402   6.657 -2.7021  0.7641 -1.0060
  855MOL0     H15417   2.696   3.401   6.423  2.8633 -0.3240  1.2832
  855MOL0     H15418   2.711   3.569   6.418  1.6825  0.6221 -0.4833
  855MOL0     H15419   2.563   3.610   6.599  0.6191 -0.0534  2.6307
  855MOL0     H15420   2.529   3.442   6.642  0.1374  0.0155 -0.6612
  855MOL0     H15421   2.429   3.384   6.423 -0.0971  0.2785 -0.0976
  855MOL0     H15422   2.459   3.546   6.368  1.2648 -2.2634 -1.0031
  855MOL0     H15423   2.093   3.539   6.586  0.4190  0.2038  0.1135
  855MOL0     H15424   2.839   3.794   6.816 -0.5786 -1.3754 -1.4933
  855MOL0     H15425   3.006   3.831   6.989 -2.3915  0.4732  1.2728
  856MOL0     O15426   2.132   8.954   4.965  0.1640 -0.2500  0.5054
  856MOL0     C15427   2.147   8.949   4.848 -0.5383  0.7303  0.0122
  856MOL0     O15428   2.052   8.938   4.753 -0.5840 -0.2791 -0.9101
  856MOL0     C15429   1.919   8.916   4.769 -0.1511  0.5185 -1.1270
  856MOL0     C15430   1.835   8.905   4.655 -0.0709  1.0605 -0.7670
  856MOL0     C15431   1.697   8.901   4.675  0.1207 -0.3901 -0.7185
  856MOL0     C15432   1.640   8.891   4.803 -0.0752 -0.2495 -0.1318
  856MOL0     O15433   1.503   8.870   4.821 -1.0230 -0.1776  0.1349
  856MOL0     C15434   1.416   8.898   4.712 -0.4539  0.6467  0.5560
  856MOL0     C15435   1.273   8.897   4.763  0.3809  0.5675 -0.1046
  856MOL0     C15436   1.200   8.769   4.725  0.3153 -0.3749  1.1880
  856MOL0     C15437   1.044   8.799   4.718 -0.4027  0.0026  0.1585
  856MOL0     C15438   0.969   8.685   4.660 -0.0925 -1.2426  0.3011
  856MOL0     C15439   0.968   8.562   4.745 -0.2706  0.9705 -0.6974
  856MOL0     C15440   0.904   8.440   4.687 -0.2714  0.4911 -1.0232
  856MOL0     C15441   0.972   8.388   4.559  0.0023 -0.5720 -0.3798
  856MOL0     N15442   0.921   8.259   4.496  0.8410  0.2956  0.4761
  856MOL0     C15443   0.884   8.141   4.557 -0.4071  0.3512  0.1803
  856MOL0     C15444   0.840   8.055   4.459 -0.1130 -0.1006 -0.0973
  856MOL0     C15445   0.767   7.923   4.482  0.2888 -0.0019 -0.6110
  856MOL0     C15446   0.757   7.857   4.346 -0.1016 -0.3061  0.5626
  856MOL0     C15447   0.704   7.712   4.341 -0.0416 -0.6810  0.5741
  856MOL0     C15448   0.550   7.727   4.373  0.1254  0.6027  0.1667
  856MOL0     O15449   0.527   7.761   4.508  0.1720 -0.3836 -0.1515
  856MOL0     C15450   0.396   7.771   4.547  0.0850 -0.3952 -0.1384
  856MOL0     C15451   0.381   7.727   4.679  0.3277 -0.9007 -0.1944
  856MOL0     C15452   0.251   7.725   4.729  0.3995 -0.0630 -0.7743
  856MOL0     C15453   0.250   7.687   4.869 -0.0625  0.9811 -0.0904
  856MOL0     C15454   0.146   7.785   4.655  0.5961  0.0783 -0.1131
  856MOL0     C15455  -0.004   7.799   4.697 -0.5457 -0.8287  0.4557
  856MOL0     O15456  -0.093   7.872   4.618  0.5730  0.3984 -0.3145
  856MOL0     C15457  -0.217   7.826   4.636  0.4018 -0.3364  0.2212
  856MOL0     C15458  -0.260   7.712   4.575  0.8386 -0.0743  0.0804
  856MOL0     C15459  -0.397   7.666   4.584 -0.7906  0.0450  0.5244
  856MOL0     C15460  -0.492   7.752   4.652  0.4917  0.6120  0.1645
  856MOL0     O15461  -0.628   7.729   4.672  0.3486 -0.5545 -0.1863
  856MOL0     C15462  -0.695   7.614   4.605 -0.1754 -0.8750 -0.0464
  856MOL0     C15463  -0.850   7.649   4.594  0.1719 -0.9225 -0.6340
  856MOL0     C15464  -0.942   7.555   4.514 -0.3508  0.3280  0.1749
  856MOL0     C15465  -0.965   7.415   4.558 -0.3826  0.4700 -0.1346
  856MOL0     C15466  -1.071   7.327   4.492  0.8703  0.7680 -0.0673
  856MOL0     C15467  -1.208   7.386   4.524 -0.3788 -0.2356 -0.4481
  856MOL0     C15468  -1.314   7.322   4.435 -0.3922  0.3034  0.1875
  856MOL0     C15469  -1.444   7.415   4.443  0.9302  0.7907 -0.5608
  856MOL0    Cl15470  -1.420   7.575   4.388 -0.3406 -0.3378 -0.3386
  856MOL0     C15471  -0.437   7.862   4.710 -0.3774 -0.5027  0.0093
  856MOL0     C15472  -0.305   7.910   4.704 -0.6046 -0.4132  0.5198
  856MOL0     O15473  -0.032   7.727   4.789 -0.2926 -0.0188 -0.0505
  856MOL0     C15474   0.171   7.835   4.532 -0.4353 -0.1856 -0.1275
  856MOL0     C15475   0.298   7.832   4.471 -0.5528 -0.3964 -0.4123
  856MOL0     N15476   0.855   8.123   4.345 -0.1499 -0.5444 -0.2514
  856MOL0     N15477   0.900   8.244   4.368  0.7049 -0.7548  0.8299
  856MOL0     C15478   1.722   8.916   4.910  0.6154 -0.2762  0.3720
  856MOL0     C15479   1.862   8.927   4.900  0.8549  0.7178  0.8586
  856MOL0     C15480   2.287   8.962   4.795  0.4739 -0.3280 -0.6309
  856MOL0     C15481   2.399   8.985   4.881 -0.2168  0.4877 -0.1294
  856MOL0     C15482   2.530   9.009   4.828 -0.1231  0.6111  1.0705
  856MOL0     C15483   2.546   9.011   4.683 -0.2628  0.6084 -0.1629
  856MOL0     O15484   2.666   9.038   4.624 -0.0067  0.2405 -0.2493
  856MOL0     C15485   2.778   9.049   4.717  0.6590  0.2278 -0.8014
  856MOL0     C15486   2.911   9.026   4.639 -0.1277  0.0081 -0.5323
  856MOL0     C15487   3.027   9.027   4.744  0.4338 -0.5646 -0.1610
  856MOL0     C15488   3.153   8.986   4.671 -0.2865  0.2430 -0.2054
  856MOL0     C15489   3.203   9.083   4.579  0.2488 -0.2261  0.3607
  856MOL0     C15490   3.235   9.168   4.499 -0.2564 -0.3694 -0.3151
  856MOL0     C15491   2.431   9.001   4.610 -0.4923  0.5643  0.2080
  856MOL0     C15492   2.307   8.968   4.654  0.5507 -0.1129 -0.1803
  856MOL0     H15493   1.861   8.901   4.550  2.3876  1.2926 -0.2095
  856MOL0     H15494   1.634   8.893   4.588  0.5812 -0.7411 -1.0235
  856MOL0     H15495   1.421   9.000   4.671 -0.0504  1.4234  2.4362
  856MOL0     H15496   1.433   8.828   4.629  3.5593  2.3270 -0.3301
  856MOL0     H15497   1.280   8.900   4.872  1.8507 -0.6733 -0.1324
  856MOL0     H15498   1.215   8.983   4.729  1.6237  0.6265 -2.2552
  856MOL0     H15499   1.227   8.714   4.635 -2.6421 -2.0981  1.2272
  856MOL0     H15500   1.212   8.692   4.802  0.4150 -0.3490  1.1997
  856MOL0     H15501   1.006   8.811   4.820 -0.7147 -2.4773  0.3917
  856MOL0     H15502   1.011   8.890   4.667  0.9910  0.9601  0.9010
  856MOL0     H15503   0.868   8.710   4.626 -0.3756 -2.2003  0.3851
  856MOL0     H15504   1.017   8.656   4.565 -2.9796 -0.4718 -1.5228
  856MOL0     H15505   1.068   8.521   4.762 -0.3144  0.9443 -0.5043
  856MOL0     H15506   0.935   8.588   4.846  3.2219  2.5031  0.1744
  856MOL0     H15507   0.894   8.364   4.766 -0.0968 -0.6902 -2.1048
  856MOL0     H15508   0.799   8.461   4.666 -0.4758  0.3836 -0.1628
  856MOL0     H15509   1.078   8.369   4.578  0.0723 -1.5988 -1.6695
  856MOL0     H15510   0.966   8.474   4.492 -2.5765 -0.2684  0.1363
  856MOL0     H15511   0.872   8.131   4.664  1.2921  1.6115  0.5317
  856MOL0     H15512   0.814   7.847   4.544 -4.0133 -2.2519  0.3028
  856MOL0     H15513   0.669   7.949   4.525  1.5140  0.2333  2.2825
  856MOL0     H15514   0.860   7.852   4.310 -0.8507 -2.2500 -1.5537
  856MOL0     H15515   0.700   7.921   4.278  0.0714  1.7802  2.2864
  856MOL0     H15516   0.751   7.638   4.406  0.6288 -1.2988 -0.5835
  856MOL0     H15517   0.716   7.680   4.238 -2.6566  0.4822 -0.1653
  856MOL0     H15518   0.489   7.638   4.355 -1.1134  1.2796  0.8303
  856MOL0     H15519   0.512   7.807   4.308  0.1491 -1.0910 -2.0384
  856MOL0     H15520   0.459   7.695   4.747 -1.2038 -0.2212  1.9725
  856MOL0     H15521   0.336   7.729   4.921 -0.7163  0.4738  1.4660
  856MOL0     H15522   0.167   7.739   4.917 -2.7876 -3.2342  0.2733
  856MOL0     H15523   0.235   7.579   4.883  1.2867  0.9002  0.9942
  856MOL0     H15524  -0.201   7.647   4.512  0.6130 -1.4804  1.2744
  856MOL0     H15525  -0.420   7.568   4.546  0.9653  0.8723 -3.0409
  856MOL0     H15526  -0.663   7.614   4.500  0.0855  1.6098 -0.0441
  856MOL0     H15527  -0.674   7.517   4.651  2.1284 -0.9235 -1.0435
  856MOL0     H15528  -0.892   7.663   4.694  0.7695  0.0462 -0.4981
  856MOL0     H15529  -0.853   7.745   4.542 -0.7154 -1.9675 -2.6180
  856MOL0     H15530  -0.913   7.544   4.409 -1.5198 -1.9884  0.0303
  856MOL0     H15531  -1.029   7.619   4.498  0.6505  1.6075 -0.3667
  856MOL0     H15532  -0.867   7.366   4.552 -0.5174 -0.3569  2.8542
  856MOL0     H15533  -0.992   7.415   4.664 -1.1996 -1.9339 -0.2683
  856MOL0     H15534  -1.079   7.227   4.536  1.6476  0.1850 -1.1970
  856MOL0     H15535  -1.058   7.313   4.384 -1.6610 -1.2476 -0.2316
  856MOL0     H15536  -1.238   7.351   4.623  1.9078 -4.1211 -0.9277
  856MOL0     H15537  -1.208   7.495   4.511 -1.2316 -0.4050 -2.1026
  856MOL0     H15538  -1.338   7.221   4.471 -0.9736  0.2432 -0.3606
  856MOL0     H15539  -1.281   7.295   4.334 -5.6520 -1.5287 -1.3467
  856MOL0     H15540  -1.463   7.423   4.551 -2.7764  0.3557 -1.0555
  856MOL0     H15541  -1.528   7.368   4.389 -0.5611 -1.3120  3.1811
  856MOL0     H15542  -0.508   7.921   4.766  0.8150  1.6213 -0.6314
  856MOL0     H15543  -0.268   8.001   4.749  0.1772 -0.8555  0.8002
  856MOL0     H15544   0.095   7.885   4.472 -0.3297 -1.1420 -1.0771
  856MOL0     H15545   0.327   7.890   4.383 -3.5769 -0.4338 -1.5373
  856MOL0     H15546   1.671   8.930   5.005  0.1570  0.8520 -0.0233
  856MOL0     H15547   1.914   8.939   4.994  1.7060  0.5771  0.4108
  856MOL0     H15548   2.387   8.973   4.988  3.3401 -3.7473  0.0938
  856MOL0     H15549   2.610   9.032   4.897  1.2491 -0.1541 -0.2099
  856MOL0     H15550   2.775   9.144   4.771  1.3363 -0.3007  0.2060
  856MOL0     H15551   2.782   8.975   4.798 -0.6643 -1.3014 -2.0607
  856MOL0     H15552   2.916   9.105   4.564 -0.4855  1.1134  0.5678
  856MOL0     H15553   2.905   8.928   4.592 -0.7477 -0.0964 -0.2392
  856MOL0     H15554   3.007   8.952   4.821  1.6254  0.8742  1.6426
  856MOL0     H15555   3.057   9.124   4.787 -2.9781 -0.3657  2.1611
  856MOL0     H15556   3.129   8.891   4.621  0.0463 -0.9068  1.7207
  856MOL0     H15557   3.229   8.962   4.746 -0.8521  1.6675  0.8641
  856MOL0     H15558   3.257   9.241   4.423  0.1168  0.6529  0.7466
  856MOL0     H15559   2.444   9.038   4.509 -0.0857  0.5322  0.2492
  856MOL0     H15560   2.220   8.959   4.589  0.8130  5.0588 -1.7433
  857MOL0     O15561  10.129   4.910   4.018  0.6884  0.7126 -0.0047
  857MOL0     C15562  10.191   4.919   3.915  0.3938  0.5606  0.1952
  857MOL0     O15563  10.221   5.040   3.839  0.4535 -1.2671  0.3918
  857MOL0     C15564  10.167   5.155   3.896 -0.4427  0.3195 -0.1368
  857MOL0     C15565  10.185   5.200   4.030  0.9111 -0.3608 -0.2109
  857MOL0     C15566  10.120   5.311   4.083  0.3961  1.2997 -0.3052
  857MOL0     C15567  10.043   5.390   4.003 -0.1585  0.4420 -0.0326
  857MOL0     O15568   9.971   5.497   4.036 -0.5997 -0.7690 -0.3189
  857MOL0     C15569   9.869   5.478   4.131  0.4942  0.3548 -0.1686
  857MOL0     C15570   9.833   5.614   4.197 -0.6825 -0.2863 -0.6216
  857MOL0     C15571   9.723   5.581   4.294  0.9335 -0.4769  0.1300
  857MOL0     C15572   9.714   5.694   4.398  0.5328  0.5046 -0.0537
  857MOL0     C15573   9.658   5.642   4.534 -0.6068 -0.1059  0.2267
  857MOL0     C15574   9.511   5.587   4.523 -0.3635 -0.4464 -0.5326
  857MOL0     C15575   9.472   5.540   4.661 -0.2490  0.5257 -0.0484
  857MOL0     C15576   9.455   5.645   4.765 -0.5926 -0.1815  0.1655
  857MOL0     N15577   9.360   5.609   4.871  0.2215 -0.3732  0.0402
  857MOL0     C15578   9.219   5.605   4.874  0.9550  0.1645  0.5296
  857MOL0     C15579   9.182   5.574   4.994 -0.5243 -0.4741  0.0749
  857MOL0     C15580   9.040   5.551   5.052 -0.2065 -0.5793 -0.0686
  857MOL0     C15581   8.928   5.607   4.966 -0.0851  0.3817  0.3590
  857MOL0     C15582   8.784   5.563   5.006  0.2536 -0.4122 -0.3930
  857MOL0     C15583   8.768   5.409   4.990 -0.4102 -0.4096 -0.5737
  857MOL0     O15584   8.810   5.331   5.106 -0.2694  0.4157 -0.4812
  857MOL0     C15585   8.825   5.198   5.096  0.1068 -0.5483 -1.5837
  857MOL0     C15586   8.869   5.124   5.212 -0.6601  0.5316  0.7408
  857MOL0     C15587   8.905   4.987   5.203  0.4718  0.1957 -0.7211
  857MOL0     C15588   8.976   4.932   5.326  0.1850  0.1676  0.7490
  857MOL0     C15589   8.886   4.912   5.083  0.4102 -0.2252  0.3748
  857MOL0     C15590   8.908   4.765   5.067 -0.0870  0.3005 -0.5864
  857MOL0     O15591   8.932   4.689   5.181  0.3240 -0.4860 -0.6116
  857MOL0     C15592   8.973   4.557   5.180  0.0688  0.0783 -0.3746
  857MOL0     C15593   9.040   4.510   5.291 -0.4015 -0.5268 -0.4604
  857MOL0     C15594   9.087   4.378   5.293 -0.7193 -0.7444 -0.0484
  857MOL0     C15595   9.066   4.279   5.190  0.1905 -0.5671 -0.3065
  857MOL0     O15596   9.112   4.150   5.205 -0.3278 -0.3683  0.5584
  857MOL0     C15597   9.178   4.115   5.328  0.7072 -0.1236  0.7057
  857MOL0     C15598   9.215   3.968   5.338 -0.4728 -0.1063 -0.2966
  857MOL0     C15599   9.291   3.944   5.472 -0.1495 -0.0459  0.1094
  857MOL0     C15600   9.193   3.928   5.592 -0.1792  0.3801 -0.0955
  857MOL0     C15601   9.246   3.869   5.729  0.8261  0.7648  0.2356
  857MOL0     C15602   9.158   3.918   5.852  0.7240 -0.4700  0.0400
  857MOL0     C15603   9.221   3.867   5.981  0.4865 -0.8231 -0.0172
  857MOL0     C15604   9.113   3.877   6.090 -0.0525  0.4431  0.2639
  857MOL0    Cl15605   9.079   4.054   6.122  0.5212  0.5463 -0.3064
  857MOL0     C15606   8.997   4.331   5.084  0.6631  0.1975  0.7856
  857MOL0     C15607   8.954   4.464   5.082  0.1312  0.2782  0.4646
  857MOL0     O15608   8.901   4.723   4.952  0.3388  0.3190 -0.1308
  857MOL0     C15609   8.832   4.984   4.970 -0.0663  0.7301  0.4599
  857MOL0     C15610   8.820   5.126   4.971 -0.1440 -0.4277  0.5849
  857MOL0     N15611   9.293   5.550   5.071 -0.4717 -0.2494  0.1432
  857MOL0     N15612   9.394   5.562   4.994 -0.2095  0.4368  0.0305
  857MOL0     C15613  10.035   5.362   3.869 -0.4656 -0.3845 -0.8952
  857MOL0     C15614  10.092   5.249   3.814  0.2691  0.3467  0.4975
  857MOL0     C15615  10.235   4.787   3.866  0.4820  0.5846  0.5744
  857MOL0     C15616  10.286   4.772   3.738 -0.3835 -0.1010  1.0171
  857MOL0     C15617  10.303   4.640   3.690 -0.5868 -0.3733 -0.2930
  857MOL0     C15618  10.280   4.523   3.761  0.0950 -0.6246 -0.5289
  857MOL0     O15619  10.324   4.394   3.720 -0.1095 -0.0377  0.3663
  857MOL0     C15620  10.432   4.379   3.623 -0.2396 -0.9990  0.3274
  857MOL0     C15621  10.556   4.437   3.691 -0.1544  0.0542  0.0520
  857MOL0     C15622  10.678   4.391   3.612  0.1392 -0.9452 -0.1235
  857MOL0     C15623  10.797   4.346   3.712  0.3455 -0.5061 -0.2560
  857MOL0     C15624  10.876   4.465   3.742  0.4399 -0.2720 -0.5666
  857MOL0     C15625  10.944   4.562   3.769 -0.3846 -0.1425 -0.3391
  857MOL0     C15626  10.235   4.551   3.892 -0.4670  0.7437 -0.6873
  857MOL0     C15627  10.198   4.671   3.943  0.1761  0.1230 -0.1520
  857MOL0     H15628  10.237   5.134   4.099 -2.3579  0.4001  3.3244
  857MOL0     H15629  10.121   5.325   4.191 -1.7559  0.0151 -0.0606
  857MOL0     H15630   9.785   5.431   4.080  1.2549 -1.8310  0.4677
  857MOL0     H15631   9.909   5.416   4.213  1.2384 -0.7663 -1.3362
  857MOL0     H15632   9.921   5.632   4.260  0.1533  1.3920 -2.1903
  857MOL0     H15633   9.811   5.694   4.127 -1.4441 -0.3638 -0.4796
  857MOL0     H15634   9.632   5.575   4.233  0.4853 -2.2492  0.9087
  857MOL0     H15635   9.743   5.488   4.347  3.5424 -0.9049 -1.4740
  857MOL0     H15636   9.817   5.725   4.418  0.5760  0.1448  0.2966
  857MOL0     H15637   9.661   5.782   4.361  2.8004  2.1419  0.3354
  857MOL0     H15638   9.716   5.562   4.581  0.8373  1.1353  0.6506
  857MOL0     H15639   9.668   5.725   4.605  0.1845 -2.0046  2.4654
  857MOL0     H15640   9.429   5.656   4.503  0.6182  1.2604  1.0256
  857MOL0     H15641   9.508   5.502   4.454  2.1449 -1.8485  0.9380
  857MOL0     H15642   9.380   5.481   4.657  0.7155 -1.0529  0.1609
  857MOL0     H15643   9.554   5.478   4.698 -0.7814 -0.4259 -0.4360
  857MOL0     H15644   9.423   5.740   4.721  4.3380  2.6632  1.9240
  857MOL0     H15645   9.555   5.664   4.805 -0.0578  0.1967 -1.2928
  857MOL0     H15646   9.152   5.624   4.791 -3.4443 -0.7916  3.5258
  857MOL0     H15647   9.027   5.444   5.071 -2.4076 -0.7345 -1.9957
  857MOL0     H15648   9.035   5.611   5.144 -2.5190 -0.4057 -0.2308
  857MOL0     H15649   8.944   5.574   4.863  1.6789  2.6192 -0.1652
  857MOL0     H15650   8.944   5.715   4.971  0.1050  0.3008  3.3928
  857MOL0     H15651   8.724   5.626   4.939  3.0712  2.4869 -0.4648
  857MOL0     H15652   8.762   5.597   5.108 -3.1280  2.6878 -1.9110
  857MOL0     H15653   8.836   5.381   4.909  2.3989 -2.3118  2.2398
  857MOL0     H15654   8.662   5.395   4.965 -0.7313 -0.4396  0.7611
  857MOL0     H15655   8.879   5.174   5.308  0.0131 -1.6774  1.8889
  857MOL0     H15656   8.915   4.852   5.370 -0.6213  0.0456 -0.5488
  857MOL0     H15657   9.072   4.886   5.301  0.5613 -0.3507  2.9235
  857MOL0     H15658   8.998   5.015   5.393  1.8552 -1.1038  1.8657
  857MOL0     H15659   9.054   4.579   5.373 -1.7284  1.8707 -2.1178
  857MOL0     H15660   9.129   4.346   5.388 -2.9048 -2.9612  0.2767
  857MOL0     H15661   9.262   4.185   5.337  1.0695 -0.6157  1.2201
  857MOL0     H15662   9.103   4.134   5.406  0.7952 -1.9723  1.2824
  857MOL0     H15663   9.125   3.907   5.324 -0.8936  0.4633 -0.1062
  857MOL0     H15664   9.290   3.943   5.262  0.4002  0.2839  0.4226
  857MOL0     H15665   9.367   4.019   5.497 -0.6991 -0.4989  3.5223
  857MOL0     H15666   9.356   3.856   5.468  1.0501  0.8467 -1.2181
  857MOL0     H15667   9.152   4.028   5.602 -1.8209 -0.1225 -1.3241
  857MOL0     H15668   9.105   3.867   5.568 -1.1085  1.8533 -0.5313
  857MOL0     H15669   9.346   3.912   5.738  0.5108  1.0465  3.3122
  857MOL0     H15670   9.247   3.760   5.729 -3.2257  0.5557 -0.3337
  857MOL0     H15671   9.152   4.027   5.852  0.0255 -0.3771 -4.0072
  857MOL0     H15672   9.055   3.883   5.838 -0.1844  0.3746  3.4782
  857MOL0     H15673   9.311   3.920   6.010  0.9482 -1.4302 -0.3082
  857MOL0     H15674   9.249   3.762   5.968  1.6065 -0.4880 -0.4095
  857MOL0     H15675   9.147   3.816   6.174  0.4110 -1.1002 -0.9972
  857MOL0     H15676   9.016   3.835   6.062 -0.8416 -0.4398  3.8073
  857MOL0     H15677   8.974   4.264   5.001 -0.2498 -1.4053  2.2522
  857MOL0     H15678   8.894   4.494   4.997  1.9480 -0.4938 -1.1715
  857MOL0     H15679   8.819   4.934   4.875  1.2795  0.6967  0.2848
  857MOL0     H15680   8.794   5.178   4.879  0.8443 -1.3436 -0.2317
  857MOL0     H15681   9.985   5.427   3.798 -2.9660 -2.8444 -1.6059
  857MOL0     H15682  10.079   5.237   3.707 -1.5568  0.3305  0.6862
  857MOL0     H15683  10.309   4.860   3.678  2.2696 -0.7483  0.9609
  857MOL0     H15684  10.332   4.636   3.585 -2.0046  3.8093 -1.0241
  857MOL0     H15685  10.438   4.270   3.610  2.5568 -0.8575 -0.1988
  857MOL0     H15686  10.401   4.423   3.527 -1.4320 -1.5277  0.4463
  857MOL0     H15687  10.571   4.406   3.795  3.9583 -1.9645 -0.9496
  857MOL0     H15688  10.548   4.546   3.690  1.5589  0.2309  0.9124
  857MOL0     H15689  10.722   4.466   3.546 -0.3753  0.2142  0.8154
  857MOL0     H15690  10.646   4.319   3.535 -2.6514 -0.3666  0.3666
  857MOL0     H15691  10.868   4.279   3.664  0.3564 -0.9071  0.3117
  857MOL0     H15692  10.747   4.303   3.799 -3.7202  4.4688  0.3854
  857MOL0     H15693  10.999   4.652   3.792  0.9194 -1.3038  1.4019
  857MOL0     H15694  10.223   4.460   3.950  0.4508 -2.1969 -4.6376
  857MOL0     H15695  10.163   4.669   4.045  0.8912 -0.5020  0.0925
  858MOL0     O15696   0.832   1.311   4.086 -0.5165 -0.3717  0.5929
  858MOL0     C15697   0.759   1.365   4.165 -0.0699 -0.1718  0.7050
  858MOL0     O15698   0.641   1.315   4.209  0.3963 -0.3102 -0.0936
  858MOL0     C15699   0.559   1.249   4.131  0.2848  0.8533 -0.7326
  858MOL0     C15700   0.471   1.175   4.210 -1.1339  0.2180  0.9122
  858MOL0     C15701   0.361   1.114   4.150  0.1842 -0.4107  0.4892
  858MOL0     C15702   0.341   1.125   4.011 -0.0692  0.1402  0.5091
  858MOL0     O15703   0.237   1.069   3.942  0.8586  0.1762  0.3004
  858MOL0     C15704   0.146   0.969   4.003  0.2204  0.4561  0.6522
  858MOL0     C15705   0.047   0.925   3.896 -0.7004  0.4370 -0.0896
  858MOL0     C15706  -0.072   0.855   3.961  0.5075 -0.2939 -0.2132
  858MOL0     C15707  -0.151   0.799   3.849  0.3500  0.6953  1.0027
  858MOL0     C15708  -0.298   0.767   3.883  0.8465  0.1240 -0.2049
  858MOL0     C15709  -0.311   0.681   4.013 -0.5671 -0.0223 -0.6943
  858MOL0     C15710  -0.245   0.543   3.991 -0.3354 -0.3356 -0.0544
  858MOL0     C15711  -0.268   0.455   4.110  0.2272  0.1709 -0.1674
  858MOL0     N15712  -0.181   0.500   4.218  0.4289 -0.0444 -0.2181
  858MOL0     C15713  -0.044   0.484   4.237  0.1030  0.6228  0.5926
  858MOL0     C15714  -0.021   0.527   4.363 -0.1397 -0.0871  0.2838
  858MOL0     C15715   0.096   0.497   4.443  0.6029  0.7647 -0.2409
  858MOL0     C15716   0.212   0.603   4.428 -0.0148 -0.3243 -0.1357
  858MOL0     C15717   0.236   0.667   4.289  0.2547  0.1425  0.7667
  858MOL0     C15718   0.358   0.766   4.272  0.2434  0.3126  0.2090
  858MOL0     O15719   0.419   0.799   4.400 -0.3950 -0.4442  0.1923
  858MOL0     C15720   0.521   0.888   4.399  0.4492  0.7831 -0.7247
  858MOL0     C15721   0.630   0.890   4.308 -0.5078 -0.0750  0.6612
  858MOL0     C15722   0.731   0.981   4.327  0.3300 -0.5936  0.0873
  858MOL0     C15723   0.835   0.976   4.222  0.4835 -0.7509  0.4405
  858MOL0     C15724   0.739   1.067   4.438  0.4539 -0.5979 -0.0811
  858MOL0     C15725   0.851   1.163   4.469  1.2137 -0.1725  0.0730
  858MOL0     O15726   0.868   1.214   4.591 -0.9649  0.0877 -0.5273
  858MOL0     C15727   0.978   1.295   4.631  0.0961  0.3821 -0.0767
  858MOL0     C15728   1.007   1.284   4.764  0.2816 -0.3100 -0.0124
  858MOL0     C15729   1.110   1.353   4.824  0.0212 -0.8312  0.0051
  858MOL0     C15730   1.181   1.453   4.755  0.1412 -0.1455  0.0712
  858MOL0     O15731   1.279   1.528   4.811  0.3561  0.1602 -0.1027
  858MOL0     C15732   1.232   1.595   4.927 -0.6220 -0.0359 -0.6602
  858MOL0     C15733   1.346   1.579   5.032 -0.5278 -0.3542 -0.2844
  858MOL0     C15734   1.303   1.635   5.168  0.5282 -1.1508 -0.4082
  858MOL0     C15735   1.418   1.638   5.275 -0.4266 -0.0847 -0.1926
  858MOL0     C15736   1.373   1.638   5.418 -0.0784 -0.8986  0.0024
  858MOL0     C15737   1.280   1.760   5.456  0.1365 -0.4482 -0.5023
  858MOL0     C15738   1.363   1.886   5.447  1.5699 -0.2259  0.4090
  858MOL0     C15739   1.272   2.011   5.455 -0.2694 -0.2202 -0.6134
  858MOL0    Cl15740   1.364   2.149   5.490  0.0087 -0.4501  0.2765
  858MOL0     C15741   1.138   1.475   4.619  0.9249  0.6934 -0.1914
  858MOL0     C15742   1.047   1.387   4.561 -0.2046  0.2858 -0.2741
  858MOL0     O15743   0.907   1.204   4.365 -0.2468 -0.0975 -0.5334
  858MOL0     C15744   0.627   1.056   4.537  0.4308 -0.9052  0.0810
  858MOL0     C15745   0.520   0.974   4.510  0.2814  0.0319  0.0033
  858MOL0     N15746  -0.139   0.569   4.418  0.8607 -0.5925  0.1954
  858MOL0     N15747  -0.232   0.551   4.333  0.3275 -0.4266  0.2337
  858MOL0     C15748   0.446   1.189   3.934 -0.0353 -0.1363 -0.6077
  858MOL0     C15749   0.548   1.255   4.000 -1.5291 -0.0782 -0.9926
  858MOL0     C15750   0.808   1.495   4.213 -0.4627 -0.3064 -0.0496
  858MOL0     C15751   0.725   1.549   4.312 -0.5724 -0.1498  0.3324
  858MOL0     C15752   0.770   1.669   4.377  0.5721  0.0875 -0.3771
  858MOL0     C15753   0.895   1.721   4.360  0.7828 -0.6185  0.4359
  858MOL0     O15754   0.919   1.844   4.430 -0.2762  0.1532 -0.2589
  858MOL0     C15755   1.055   1.885   4.458  1.1667  0.5112 -0.3775
  858MOL0     C15756   1.085   1.912   4.603 -0.5908  0.6492  0.1182
  858MOL0     C15757   0.978   2.005   4.662  0.7638 -0.3450  0.0553
  858MOL0     C15758   0.868   1.927   4.731 -0.1901  0.9053  0.3255
  858MOL0     C15759   0.897   1.868   4.860 -0.3305 -0.0208 -0.4659
  858MOL0     C15760   0.932   1.809   4.964 -0.1425  0.2127 -0.0408
  858MOL0     C15761   0.977   1.670   4.255  0.6015  0.0149 -0.0526
  858MOL0     C15762   0.938   1.554   4.193  0.0961 -0.3740  0.9024
  858MOL0     H15763   0.486   1.177   4.318  0.0435  2.4398  0.7726
  858MOL0     H15764   0.288   1.060   4.210  0.6462 -1.7126 -0.0753
  858MOL0     H15765   0.210   0.882   4.025 -0.3889  0.9428  5.6664
  858MOL0     H15766   0.095   1.010   4.091  0.6397 -0.2354  1.2302
  858MOL0     H15767  -0.002   1.003   3.837  0.9284  0.9937 -0.7506
  858MOL0     H15768   0.089   0.854   3.824  2.2530 -0.4701  2.3135
  858MOL0     H15769  -0.033   0.775   4.024  0.8883 -0.7103 -0.9616
  858MOL0     H15770  -0.121   0.924   4.031  0.5505  0.3982 -0.8446
  858MOL0     H15771  -0.145   0.869   3.765  0.8472  1.9972  2.0906
  858MOL0     H15772  -0.099   0.705   3.829 -1.2803  0.3016 -1.8876
  858MOL0     H15773  -0.367   0.852   3.887  0.4779 -0.0780 -1.5809
  858MOL0     H15774  -0.340   0.713   3.798 -2.7162  1.2086  0.6754
  858MOL0     H15775  -0.253   0.719   4.098 -0.2055 -3.0531  0.5400
  858MOL0     H15776  -0.413   0.672   4.052  0.7123 -0.8751  2.8371
  858MOL0     H15777  -0.305   0.496   3.912 -1.1981  1.2809 -0.3977
  858MOL0     H15778  -0.139   0.545   3.965 -0.5757 -0.7349 -1.0986
  858MOL0     H15779  -0.237   0.352   4.094 -0.3075 -0.1048  0.5441
  858MOL0     H15780  -0.372   0.459   4.142  0.7702 -1.9200  2.1941
  858MOL0     H15781   0.031   0.433   4.177 -3.0845 -1.2155 -2.2208
  858MOL0     H15782   0.063   0.494   4.547  0.2680  2.3799 -0.2768
  858MOL0     H15783   0.133   0.396   4.422  0.9757  0.5444  1.3305
  858MOL0     H15784   0.301   0.547   4.459 -1.7748 -3.2335  0.0974
  858MOL0     H15785   0.194   0.682   4.501  1.3751  0.6910 -0.8414
  858MOL0     H15786   0.151   0.736   4.294 -0.6963 -0.5855 -2.5795
  858MOL0     H15787   0.241   0.597   4.206 -0.4353 -0.4088  1.1829
  858MOL0     H15788   0.330   0.851   4.210 -1.2390  1.6248  2.5485
  858MOL0     H15789   0.428   0.703   4.216 -0.4590  0.1834 -0.5311
  858MOL0     H15790   0.615   0.815   4.231 -2.8046  0.3542  0.6122
  858MOL0     H15791   0.842   0.876   4.178  0.0584 -0.4303 -0.3651
  858MOL0     H15792   0.814   1.055   4.150  1.6669  3.8203  4.6067
  858MOL0     H15793   0.933   0.999   4.264 -0.2551  0.0678  1.7690
  858MOL0     H15794   0.939   1.238   4.835  0.7150 -2.2059 -0.7566
  858MOL0     H15795   1.143   1.320   4.922  2.5820  0.0818 -0.4723
  858MOL0     H15796   1.218   1.700   4.898  3.0297  1.0425  0.9840
  858MOL0     H15797   1.136   1.559   4.964  1.0421 -3.8908  0.3756
  858MOL0     H15798   1.368   1.472   5.026  1.1175  0.0529 -2.2709
  858MOL0     H15799   1.432   1.622   4.980 -1.2184 -2.8440 -3.8364
  858MOL0     H15800   1.212   1.595   5.213 -1.7884  1.2024 -2.6170
  858MOL0     H15801   1.287   1.741   5.146  0.7420 -0.8428  0.8618
  858MOL0     H15802   1.468   1.542   5.263  0.5467  0.2406  1.0124
  858MOL0     H15803   1.497   1.713   5.259 -0.7276  0.7282  1.8067
  858MOL0     H15804   1.466   1.636   5.475  0.1299  1.1170 -0.2022
  858MOL0     H15805   1.318   1.546   5.439 -0.3227 -0.4808  1.2823
  858MOL0     H15806   1.193   1.762   5.391  1.6581  0.8418 -2.6228
  858MOL0     H15807   1.247   1.740   5.559  1.4012 -0.9059 -0.1706
  858MOL0     H15808   1.424   1.900   5.358  1.6724  3.7541  0.9141
  858MOL0     H15809   1.435   1.887   5.529  4.0469 -1.6390 -1.5960
  858MOL0     H15810   1.201   1.991   5.536 -0.1007 -3.3716 -1.1105
  858MOL0     H15811   1.220   2.013   5.359  1.6463  0.5341 -1.6850
  858MOL0     H15812   1.193   1.545   4.557  2.2205  1.3108  1.5570
  858MOL0     H15813   1.025   1.403   4.456 -0.0748 -0.1780 -0.3768
  858MOL0     H15814   0.638   1.123   4.622  3.2008 -0.1857 -0.7317
  858MOL0     H15815   0.435   0.981   4.577  0.0538  2.3488 -0.4430
  858MOL0     H15816   0.444   1.207   3.827 -1.9295  1.2259 -0.3975
  858MOL0     H15817   0.621   1.317   3.948 -0.0100 -0.0751  1.0114
  858MOL0     H15818   0.623   1.513   4.322 -0.5880 -0.1798  0.0889
  858MOL0     H15819   0.710   1.718   4.453  0.6568 -0.6464  0.1736
  858MOL0     H15820   1.117   1.803   4.421 -0.3760 -0.2984 -1.2610
  858MOL0     H15821   1.075   1.972   4.394  3.3132  1.4221  1.3871
  858MOL0     H15822   1.190   1.934   4.624  0.0008 -2.4825  0.9416
  858MOL0     H15823   1.085   1.813   4.649  3.8158 -1.5920 -3.9127
  858MOL0     H15824   0.934   2.059   4.577 -1.8284 -2.5661 -0.1547
  858MOL0     H15825   1.018   2.072   4.739  0.5267  1.3785 -1.2677
  858MOL0     H15826   0.826   1.846   4.670 -0.1076 -0.6627  2.2833
  858MOL0     H15827   0.783   1.993   4.751  0.9225  2.6354 -0.4413
  858MOL0     H15828   0.965   1.756   5.051 -0.1039 -1.4186 -1.0045
  858MOL0     H15829   1.073   1.716   4.236  1.0226  0.3881  2.5697
  858MOL0     H15830   1.008   1.509   4.123 -0.9386  0.9660 -1.1070
  859MOL0     O15831   6.254   3.542   8.241 -0.3739 -0.0459  0.2228
  859MOL0     C15832   6.135   3.542   8.205  0.1330 -0.8510 -0.0127
  859MOL0     O15833   6.042   3.635   8.241 -0.5605  0.4549 -0.3101
  859MOL0     C15834   6.079   3.750   8.318  1.3486 -0.0224 -1.0171
  859MOL0     C15835   6.000   3.763   8.434 -0.2684 -0.3620 -0.9868
  859MOL0     C15836   6.035   3.873   8.524  0.1541  0.9016  0.0116
  859MOL0     C15837   6.140   3.954   8.501  0.0519  0.8134  0.5057
  859MOL0     O15838   6.158   4.058   8.599 -0.1135 -0.7587  0.5192
  859MOL0     C15839   6.286   4.085   8.642  0.2675  0.9834  0.2460
  859MOL0     C15840   6.285   4.197   8.747 -0.9621  0.0199 -1.0339
  859MOL0     C15841   6.265   4.330   8.673  0.3960 -0.1042 -0.4954
  859MOL0     C15842   6.269   4.446   8.766 -0.3869 -1.0112  0.0022
  859MOL0     C15843   6.253   4.578   8.680 -0.6171 -0.2790 -0.1409
  859MOL0     C15844   6.255   4.704   8.768  0.0832 -0.6964 -0.0692
  859MOL0     C15845   6.252   4.838   8.692 -0.2954 -1.1208  0.1704
  859MOL0     C15846   6.383   4.862   8.627  0.1405 -0.2765 -0.0655
  859MOL0     N15847   6.398   4.990   8.559 -0.2495 -0.2225  0.9626
  859MOL0     C15848   6.323   5.105   8.579  0.4255  0.1026 -0.0647
  859MOL0     C15849   6.383   5.196   8.501  0.1454 -0.7783  0.0072
  859MOL0     C15850   6.328   5.337   8.488  0.0557  0.5608 -0.4362
  859MOL0     C15851   6.382   5.417   8.605 -0.0417 -0.2528  1.5626
  859MOL0     C15852   6.304   5.554   8.597 -0.4338  0.4877 -0.7789
  859MOL0     C15853   6.332   5.629   8.734  0.8092  0.5644  0.5824
  859MOL0     O15854   6.473   5.650   8.755  0.2584 -0.6185  0.2389
  859MOL0     C15855   6.547   5.726   8.663 -0.0341 -0.0169  0.4761
  859MOL0     C15856   6.683   5.710   8.671  0.2275 -0.4655 -1.0347
  859MOL0     C15857   6.779   5.753   8.578 -0.4326  0.1864  0.0009
  859MOL0     C15858   6.917   5.705   8.590 -0.6999 -0.4625  0.0460
  859MOL0     C15859   6.736   5.848   8.489 -1.0890  0.0355  0.5116
  859MOL0     C15860   6.816   5.902   8.373  0.5422 -0.2437 -0.4499
  859MOL0     O15861   6.753   5.965   8.270  0.3966  0.1680 -0.4747
  859MOL0     C15862   6.833   6.049   8.191 -0.7963 -0.4864 -0.6154
  859MOL0     C15863   6.858   6.001   8.060  0.0240 -0.0577 -0.8776
  859MOL0     C15864   6.950   6.079   7.974  0.6559  0.2331 -1.0992
  859MOL0     C15865   7.001   6.199   8.021 -0.8531 -0.7226 -0.7447
  859MOL0     O15866   7.074   6.280   7.940  0.0755  0.6226 -0.1852
  859MOL0     C15867   7.159   6.212   7.849 -0.4011 -0.0051  0.1946
  859MOL0     C15868   7.247   6.323   7.785 -1.0647 -0.9373  0.1663
  859MOL0     C15869   7.178   6.435   7.711 -0.1013 -0.9917  0.0529
  859MOL0     C15870   7.276   6.541   7.649  0.9210 -0.4924  1.0486
  859MOL0     C15871   7.184   6.636   7.552 -0.0532 -0.3050  0.4387
  859MOL0     C15872   7.269   6.660   7.430  0.4796 -0.9246  1.3834
  859MOL0     C15873   7.174   6.720   7.324  0.0916  0.1549 -1.1003
  859MOL0     C15874   7.227   6.737   7.186 -0.0694  0.1144 -0.0821
  859MOL0    Cl15875   7.361   6.860   7.204  0.2474 -0.0836  0.1462
  859MOL0     C15876   6.962   6.251   8.141  0.0837  0.3279 -0.7845
  859MOL0     C15877   6.883   6.175   8.231  0.0127  0.2496 -0.4639
  859MOL0     O15878   6.941   5.901   8.389  0.4185 -0.5382  0.8442
  859MOL0     C15879   6.601   5.882   8.487  0.1368  0.7178 -1.0966
  859MOL0     C15880   6.507   5.824   8.570  0.5324  0.3474  0.1136
  859MOL0     N15881   6.501   5.146   8.451  0.6287  0.0835 -0.5980
  859MOL0     N15882   6.516   5.024   8.498  0.3469  0.5695 -0.2725
  859MOL0     C15883   6.210   3.942   8.384  0.3971 -0.1752 -0.4034
  859MOL0     C15884   6.189   3.840   8.295 -0.3518  0.8598 -0.5950
  859MOL0     C15885   6.071   3.440   8.126  0.5608 -0.0256 -0.0905
  859MOL0     C15886   6.152   3.357   8.044 -0.5868  0.4603  0.0768
  859MOL0     C15887   6.099   3.249   7.961  0.0043 -0.7338  0.4538
  859MOL0     C15888   5.961   3.240   7.947  0.2825  0.1814 -0.3348
  859MOL0     O15889   5.893   3.149   7.872 -0.8879  0.0515  0.4731
  859MOL0     C15890   5.959   3.081   7.764 -0.8227 -0.9366  0.1773
  859MOL0     C15891   5.865   2.967   7.723  0.0952 -0.0153  0.0878
  859MOL0     C15892   5.920   2.849   7.796  0.3262 -0.3156  0.0996
  859MOL0     C15893   6.023   2.764   7.708  0.1691 -0.6768  0.7147
  859MOL0     C15894   6.133   2.833   7.632 -0.1682  0.6001 -0.7563
  859MOL0     C15895   6.234   2.855   7.571 -0.0485 -0.4037  0.0894
  859MOL0     C15896   5.876   3.326   8.024  0.4115 -0.1874  0.3090
  859MOL0     C15897   5.933   3.426   8.111 -0.6722 -0.4750 -0.1227
  859MOL0     H15898   5.904   3.718   8.453  0.3087 -1.6768 -1.1081
  859MOL0     H15899   5.972   3.896   8.610 -3.7738  0.4913 -2.4896
  859MOL0     H15900   6.328   3.992   8.682  0.1585  2.0362  3.0154
  859MOL0     H15901   6.348   4.119   8.558 -1.9207  1.9230 -1.0831
  859MOL0     H15902   6.217   4.180   8.831 -0.5856  2.1790 -0.2231
  859MOL0     H15903   6.379   4.200   8.803 -0.8437  3.8606 -1.1521
  859MOL0     H15904   6.347   4.337   8.600  1.3589  0.7316  0.6343
  859MOL0     H15905   6.178   4.330   8.606  3.6013 -0.1191 -5.2115
  859MOL0     H15906   6.183   4.433   8.832  0.3704 -0.8094  1.0544
  859MOL0     H15907   6.357   4.444   8.831 -1.2700 -0.5582  1.2431
  859MOL0     H15908   6.331   4.589   8.604  0.8419  1.9101  1.5336
  859MOL0     H15909   6.161   4.584   8.622 -1.8667 -1.1976  1.6658
  859MOL0     H15910   6.167   4.703   8.832 -1.2442 -0.3136 -1.8328
  859MOL0     H15911   6.348   4.692   8.826  1.9911  0.0771 -2.7498
  859MOL0     H15912   6.193   4.839   8.600 -1.0996  1.0985  0.6421
  859MOL0     H15913   6.210   4.914   8.759  0.6108  1.4095 -1.9836
  859MOL0     H15914   6.390   4.778   8.556 -2.0637  0.0964 -0.7815
  859MOL0     H15915   6.470   4.862   8.694 -0.5522  2.9176  0.9742
  859MOL0     H15916   6.238   5.107   8.647  0.4910  1.6251 -0.0105
  859MOL0     H15917   6.369   5.395   8.404  1.6114  0.6494  0.3431
  859MOL0     H15918   6.219   5.344   8.489 -0.0635  2.0460 -4.4564
  859MOL0     H15919   6.488   5.438   8.587 -1.3972  4.3263 -4.0055
  859MOL0     H15920   6.378   5.364   8.701  0.7670 -1.5591  0.9019
  859MOL0     H15921   6.197   5.533   8.594 -0.8208  1.7200  1.7047
  859MOL0     H15922   6.342   5.609   8.511  1.0457  0.2682 -0.2932
  859MOL0     H15923   6.283   5.563   8.807  2.4747 -1.1224  0.2610
  859MOL0     H15924   6.289   5.729   8.737  2.1056  1.2157 -0.9749
  859MOL0     H15925   6.722   5.638   8.742  0.6675 -1.0197 -1.8215
  859MOL0     H15926   6.929   5.629   8.668  0.4197 -1.5441 -1.1340
  859MOL0     H15927   6.946   5.667   8.491  0.1350 -0.3609  0.2392
  859MOL0     H15928   6.978   5.795   8.605 -0.9429 -0.4922  1.3314
  859MOL0     H15929   6.803   5.914   8.027 -2.8051  1.7851 -1.4554
  859MOL0     H15930   6.972   6.053   7.871 -0.9379 -1.6956 -1.0121
  859MOL0     H15931   7.235   6.149   7.897  2.9015  1.7482 -2.3019
  859MOL0     H15932   7.106   6.170   7.763  1.8351  1.3380 -1.9653
  859MOL0     H15933   7.310   6.371   7.861 -3.1379 -0.1898  1.4952
  859MOL0     H15934   7.314   6.277   7.712 -1.0127  1.2018 -1.2135
  859MOL0     H15935   7.112   6.483   7.783  1.7887  1.2185  0.4204
  859MOL0     H15936   7.130   6.387   7.624  0.3531 -1.7887  0.2294
  859MOL0     H15937   7.328   6.602   7.724  1.9350 -1.2071  0.9448
  859MOL0     H15938   7.350   6.488   7.589 -0.1234  0.3383 -1.0874
  859MOL0     H15939   7.169   6.734   7.598 -0.8352 -0.3821  0.3776
  859MOL0     H15940   7.084   6.597   7.529 -1.2310  2.6739  0.1219
  859MOL0     H15941   7.348   6.732   7.453 -0.5621  0.5106  0.6532
  859MOL0     H15942   7.327   6.581   7.381  2.4241  2.0265 -1.5288
  859MOL0     H15943   7.143   6.818   7.362 -0.3673 -0.5764  0.4585
  859MOL0     H15944   7.087   6.655   7.318 -3.4849  4.3029  0.3260
  859MOL0     H15945   7.139   6.776   7.134 -0.6264 -1.6080 -0.5163
  859MOL0     H15946   7.277   6.644   7.159 -2.4820 -1.9428  1.9305
  859MOL0     H15947   6.991   6.350   8.174  0.8287 -0.5363  1.3349
  859MOL0     H15948   6.855   6.220   8.326  1.7402  0.2779  0.0585
  859MOL0     H15949   6.566   5.955   8.415 -0.8552  1.5568  0.2086
  859MOL0     H15950   6.403   5.852   8.572 -0.0813 -1.1511 -3.4290
  859MOL0     H15951   6.288   4.014   8.363  0.4064  0.5302  1.7624
  859MOL0     H15952   6.257   3.834   8.212 -1.5931 -0.3650 -1.5786
  859MOL0     H15953   6.258   3.381   8.043 -0.4532 -0.1186  0.0706
  859MOL0     H15954   6.168   3.182   7.911  1.0268 -0.2452  1.1780
  859MOL0     H15955   5.966   3.153   7.681 -2.0071  0.1510  0.9817
  859MOL0     H15956   6.064   3.061   7.786  0.2008  2.2278 -1.2159
  859MOL0     H15957   5.873   2.954   7.615 -0.7674 -2.3585  0.2633
  859MOL0     H15958   5.760   2.988   7.747  0.5755  0.6068  1.8000
  859MOL0     H15959   5.850   2.775   7.836  2.5282 -0.8407  3.4742
  859MOL0     H15960   5.982   2.881   7.881  3.8237 -3.2176 -1.0649
  859MOL0     H15961   5.969   2.692   7.646 -0.3285  1.0102 -0.8573
  859MOL0     H15962   6.080   2.699   7.776  0.4378 -1.7809 -0.5305
  859MOL0     H15963   6.322   2.876   7.513 -0.8401  1.2161 -0.6030
  859MOL0     H15964   5.770   3.319   8.004 -0.4738  0.8184  3.9505
  859MOL0     H15965   5.869   3.498   8.159 -1.0751 -0.1960 -1.0519
  860MOL0     O15966   9.856   9.696   4.495 -0.1617 -0.4361 -0.2010
  860MOL0     C15967   9.882   9.702   4.379  0.8586  0.7310  0.0511
  860MOL0     O15968   9.787   9.677   4.283 -0.5100  0.1560 -0.4981
  860MOL0     C15969   9.653   9.678   4.317  0.1243  0.0118 -0.2725
  860MOL0     C15970   9.598   9.569   4.393 -0.1291 -0.3088  0.2649
  860MOL0     C15971   9.460   9.573   4.428  0.6085  0.2677 -0.4349
  860MOL0     C15972   9.386   9.676   4.386  0.2868 -0.3044  0.7004
  860MOL0     O15973   9.250   9.670   4.416  0.2549  0.0491  0.0852
  860MOL0     C15974   9.191   9.792   4.480 -1.0300  0.0175 -0.2470
  860MOL0     C15975   9.052   9.814   4.410  0.6487  0.0150 -0.5011
  860MOL0     C15976   8.964   9.917   4.481 -0.7604  0.3909 -1.0113
  860MOL0     C15977   8.817   9.904   4.427  0.2505 -0.3251  0.2120
  860MOL0     C15978   8.712  10.005   4.476 -0.2705 -0.5678 -0.4869
  860MOL0     C15979   8.745  10.149   4.447 -0.2655 -0.2949  0.1311
  860MOL0     C15980   8.661  10.250   4.518  0.1736 -0.3063  0.9306
  860MOL0     C15981   8.510  10.220   4.500 -0.1493  0.2311 -0.2482
  860MOL0     N15982   8.432  10.333   4.545 -0.3701  1.0391 -0.2166
  860MOL0     C15983   8.425  10.364   4.676  0.2275  0.6711 -0.7822
  860MOL0     C15984   8.344  10.475   4.679  0.6474  0.7825 -0.2594
  860MOL0     C15985   8.318  10.543   4.805 -0.1816 -0.0600  0.4570
  860MOL0     C15986   8.223  10.665   4.794 -0.4379 -0.4452  0.6490
  860MOL0     C15987   8.216  10.739   4.923  1.1490 -0.6499 -0.8680
  860MOL0     C15988   8.141  10.659   5.036 -0.7987  1.2163 -0.3466
  860MOL0     O15989   8.128  10.741   5.154 -0.6348 -0.2500  0.7731
  860MOL0     C15990   8.036  10.697   5.238  1.0925 -0.2944 -0.3888
  860MOL0     C15991   8.027  10.570   5.294  0.3107  0.0740  0.9421
  860MOL0     C15992   7.935  10.535   5.388  1.2578  0.4352 -0.3325
  860MOL0     C15993   7.936  10.402   5.441 -0.0790  1.1115  0.9001
  860MOL0     C15994   7.835  10.632   5.419  0.5846  0.2858 -0.3455
  860MOL0     C15995   7.723  10.607   5.516 -0.0619 -0.5127 -0.0873
  860MOL0     O15996   7.729  10.507   5.604 -0.0576 -0.3658  0.0036
  860MOL0     C15997   7.633  10.485   5.702 -0.0203  0.7254 -0.9697
  860MOL0     C15998   7.671  10.378   5.784  0.2931  0.9629  0.5236
  860MOL0     C15999   7.575  10.321   5.867  0.2095  0.2847  0.1718
  860MOL0     C16000   7.450  10.368   5.881 -0.4353 -0.3147  0.4387
  860MOL0     O16001   7.358  10.282   5.935  0.3803 -0.1970  0.5009
  860MOL0     C16002   7.278  10.334   6.044  0.0403 -0.9907  0.8646
  860MOL0     C16003   7.360  10.341   6.173 -0.1411 -0.1502  0.9238
  860MOL0     C16004   7.282  10.423   6.277  0.7677  0.6091  0.3624
  860MOL0     C16005   7.372  10.487   6.379  0.5863  0.1635 -0.3244
  860MOL0     C16006   7.298  10.565   6.486  0.6700 -0.5541  0.1478
  860MOL0     C16007   7.225  10.695   6.444  0.0517 -0.7791 -0.0430
  860MOL0     C16008   7.145  10.749   6.571  0.2616 -0.9886  0.2864
  860MOL0     C16009   7.069  10.874   6.529  0.0252  0.0743 -0.1148
  860MOL0    Cl16010   7.185  11.006   6.553 -0.1662  0.4052  0.2119
  860MOL0     C16011   7.410  10.485   5.807  0.4641 -0.0634 -0.9020
  860MOL0     C16012   7.504  10.538   5.713 -0.3163  0.2586  0.5960
  860MOL0     O16013   7.639  10.698   5.516  0.6063 -0.6990  0.5254
  860MOL0     C16014   7.846  10.760   5.359 -0.5314  1.2297 -0.9221
  860MOL0     C16015   7.946  10.798   5.279 -0.0671  0.0161 -0.1065
  860MOL0     N16016   8.300  10.507   4.554 -0.6684  0.5673  1.0082
  860MOL0     N16017   8.350  10.417   4.473  0.3205 -0.2210 -0.1834
  860MOL0     C16018   9.439   9.786   4.313  0.4125  0.2466 -0.2027
  860MOL0     C16019   9.574   9.780   4.270  0.7931 -0.3432  0.0430
  860MOL0     C16020  10.022   9.707   4.340  0.0135  0.0347 -0.1978
  860MOL0     C16021  10.128   9.715   4.433  0.2986 -0.0159 -0.2565
  860MOL0     C16022  10.267   9.704   4.402  0.3947 -0.5156  0.4803
  860MOL0     C16023  10.300   9.694   4.267  1.0247 -0.9368 -0.5963
  860MOL0     O16024  10.428   9.653   4.228 -0.3529  0.2594  0.1823
  860MOL0     C16025  10.498   9.753   4.152  0.6644  0.3180  0.0579
  860MOL0     C16026  10.564   9.853   4.246  0.6239 -0.2066  0.6792
  860MOL0     C16027  10.662   9.782   4.334 -0.0631 -0.4140  0.9463
  860MOL0     C16028  10.791   9.740   4.250  0.4930  0.4088  0.4240
  860MOL0     C16029  10.891   9.708   4.352  0.6996  0.5759  1.2027
  860MOL0     C16030  10.985   9.680   4.419 -0.9142 -0.6063 -0.2735
  860MOL0     C16031  10.201   9.687   4.178 -0.0311  0.0403  0.8358
  860MOL0     C16032  10.061   9.690   4.211 -0.1804 -0.0537  0.2322
  860MOL0     H16033   9.670   9.496   4.431 -2.3286 -1.9332  1.5198
  860MOL0     H16034   9.411   9.504   4.496  2.3730 -0.8815 -0.2770
  860MOL0     H16035   9.179   9.775   4.587  0.5884 -1.1046 -0.2176
  860MOL0     H16036   9.257   9.879   4.474 -0.1794 -0.5290  0.8973
  860MOL0     H16037   9.075   9.858   4.312  3.3989  0.1606  0.1131
  860MOL0     H16038   9.001   9.719   4.395  1.9868 -0.9922  0.9821
  860MOL0     H16039   8.961   9.892   4.587 -3.7213 -1.6691 -1.4474
  860MOL0     H16040   9.018  10.012   4.475  2.4151 -1.1515  0.7457
  860MOL0     H16041   8.821   9.900   4.318  1.2395 -1.4976  0.2763
  860MOL0     H16042   8.772   9.808   4.455 -2.4887  0.5629 -0.7743
  860MOL0     H16043   8.618   9.977   4.427 -0.9316 -0.8938  0.9304
  860MOL0     H16044   8.691   9.997   4.583  0.4338  1.0916 -0.1911
  860MOL0     H16045   8.852  10.157   4.470 -0.0779 -4.3111  1.4735
  860MOL0     H16046   8.728  10.157   4.339 -1.6672 -1.6292  0.2210
  860MOL0     H16047   8.685  10.252   4.625 -0.2813 -0.6129  1.0424
  860MOL0     H16048   8.690  10.347   4.475  2.7967 -1.3915  0.0487
  860MOL0     H16049   8.475  10.123   4.534 -0.9087 -0.0529 -1.7524
  860MOL0     H16050   8.483  10.220   4.394 -0.7394  1.5020 -0.1244
  860MOL0     H16051   8.470  10.308   4.757 -0.2810  1.1367 -0.1628
  860MOL0     H16052   8.283  10.470   4.879  2.2213 -0.9724  0.7765
  860MOL0     H16053   8.408  10.584   4.850  0.0771 -0.0684 -0.0451
  860MOL0     H16054   8.125  10.622   4.772 -0.3660 -0.4911  0.4200
  860MOL0     H16055   8.245  10.726   4.706 -0.9925 -0.3885  0.5473
  860MOL0     H16056   8.170  10.837   4.914  3.5434  1.1213  3.3656
  860MOL0     H16057   8.313  10.776   4.958  0.1010  2.0958 -0.6702
  860MOL0     H16058   8.205  10.572   5.054  0.0508  1.7095 -0.9380
  860MOL0     H16059   8.045  10.629   4.993 -0.5224 -2.5934  1.3154
  860MOL0     H16060   8.111  10.505   5.274  3.3820  3.6062  1.3038
  860MOL0     H16061   7.841  10.350   5.435  2.4268 -3.9357  0.1189
  860MOL0     H16062   8.019  10.343   5.401  1.1087  1.8406  2.2247
  860MOL0     H16063   7.956  10.417   5.548  1.9469  0.1989  0.6931
  860MOL0     H16064   7.773  10.341   5.776  0.7334  2.1010  0.7343
  860MOL0     H16065   7.605  10.225   5.907  0.4245  0.4807  0.4931
  860MOL0     H16066   7.236  10.430   6.013 -0.6972 -1.6090 -0.1005
  860MOL0     H16067   7.188  10.274   6.061 -0.8044 -0.6320 -1.8425
  860MOL0     H16068   7.380  10.238   6.203 -3.1939 -1.4709 -1.0590
  860MOL0     H16069   7.456  10.392   6.157 -0.4809  0.1783 -0.1707
  860MOL0     H16070   7.196  10.365   6.311  1.2005 -0.2979 -0.0519
  860MOL0     H16071   7.247  10.516   6.231  0.9794  0.1190 -0.8378
  860MOL0     H16072   7.420  10.407   6.436 -2.7867 -0.9624  1.1841
  860MOL0     H16073   7.444  10.546   6.321 -1.3777 -0.1271 -3.2895
  860MOL0     H16074   7.372  10.585   6.565 -1.4342 -2.3277  2.7201
  860MOL0     H16075   7.219  10.506   6.531  2.2453 -1.3813  1.9482
  860MOL0     H16076   7.290  10.773   6.402 -2.0071  0.6540 -0.7643
  860MOL0     H16077   7.157  10.683   6.358 -0.4118  3.0515 -0.3809
  860MOL0     H16078   7.219  10.761   6.650 -1.7213  2.4303  1.8533
  860MOL0     H16079   7.069  10.679   6.608 -0.2984  0.8707  2.9501
  860MOL0     H16080   6.981  10.890   6.592  1.2336 -0.2993  1.7412
  860MOL0     H16081   7.040  10.882   6.424  2.7751  1.5077 -0.8561
  860MOL0     H16082   7.302  10.493   5.798  0.1746 -2.1859  0.1332
  860MOL0     H16083   7.455  10.616   5.654  0.7941  0.3175 -0.2708
  860MOL0     H16084   7.777  10.843   5.370 -0.5977  1.2559 -1.4884
  860MOL0     H16085   7.951  10.900   5.243  1.8804 -0.3876 -1.0974
  860MOL0     H16086   9.364   9.861   4.288 -1.6830 -2.2416 -1.9471
  860MOL0     H16087   9.617   9.861   4.211 -0.4836  1.8613  1.9829
  860MOL0     H16088  10.103   9.729   4.538  0.5293 -1.4276  0.0093
  860MOL0     H16089  10.344   9.691   4.477  0.2535 -1.3414  0.4940
  860MOL0     H16090  10.574   9.702   4.091 -1.3129 -0.3645 -1.9765
  860MOL0     H16091  10.436   9.822   4.094  3.5181  3.6031  0.5583
  860MOL0     H16092  10.485   9.897   4.307 -0.1653 -1.4347  0.5775
  860MOL0     H16093  10.600   9.937   4.186 -0.4897  1.6059  2.3992
  860MOL0     H16094  10.631   9.693   4.389  1.0139 -2.8169 -2.0224
  860MOL0     H16095  10.701   9.859   4.401  1.1628 -0.4933  0.3522
  860MOL0     H16096  10.836   9.818   4.188 -2.9066  1.2815 -1.1671
  860MOL0     H16097  10.765   9.660   4.180  0.4034  0.7379  0.0810
  860MOL0     H16098  11.075   9.656   4.472 -1.2181 -0.1138  0.4718
  860MOL0     H16099  10.229   9.666   4.075  2.0659 -0.6526  1.5025
  860MOL0     H16100   9.996   9.684   4.124  1.5955  2.3809 -1.4167
  861MOL0     O16101   9.516   8.117   6.159 -0.3917  0.2225 -0.1230
  861MOL0     C16102   9.484   8.230   6.200  0.3419  0.7817 -0.5673
  861MOL0     O16103   9.375   8.296   6.169  0.1564 -0.1535  0.8877
  861MOL0     C16104   9.274   8.241   6.094 -0.1196  0.0709 -0.1893
  861MOL0     C16105   9.229   8.111   6.101 -0.5960  0.3208  0.7541
  861MOL0     C16106   9.122   8.069   6.018 -0.9173 -0.2734 -0.3465
  861MOL0     C16107   9.048   8.155   5.940 -0.8283  0.3516 -0.5259
  861MOL0     O16108   8.944   8.116   5.862  0.2353 -0.0542  0.6669
  861MOL0     C16109   8.885   8.197   5.756 -0.2347  0.0352  0.1452
  861MOL0     C16110   8.817   8.111   5.657 -0.3056 -0.2477  0.6443
  861MOL0     C16111   8.663   8.121   5.685  0.3210  0.2689  0.2920
  861MOL0     C16112   8.579   8.093   5.552 -0.0033  0.2402  0.0374
  861MOL0     C16113   8.440   8.099   5.578 -0.1972 -0.9183 -0.6393
  861MOL0     C16114   8.361   8.095   5.453 -0.2928  0.1801  0.9119
  861MOL0     C16115   8.373   8.233   5.385  0.5400  0.2707 -0.3171
  861MOL0     C16116   8.280   8.224   5.263 -0.1273  0.4944  0.0750
  861MOL0     N16117   8.309   8.333   5.167 -0.4567  0.0056 -0.4669
  861MOL0     C16118   8.352   8.465   5.200 -0.2386 -0.8750 -0.1812
  861MOL0     C16119   8.404   8.514   5.087  0.5317  0.1949  0.6929
  861MOL0     C16120   8.465   8.648   5.070 -0.2981  0.4365 -0.5401
  861MOL0     C16121   8.614   8.649   5.037 -0.3799  0.4741  0.5716
  861MOL0     C16122   8.639   8.737   4.923  0.5073  0.3392 -0.1562
  861MOL0     C16123   8.616   8.889   4.967  0.2451  0.0735  0.8102
  861MOL0     O16124   8.495   8.940   4.900  0.2069 -0.3601  0.1661
  861MOL0     C16125   8.473   9.079   4.924  0.2213  0.5977  0.5194
  861MOL0     C16126   8.553   9.171   4.986  0.2128 -0.7171  0.4914
  861MOL0     C16127   8.499   9.302   5.029  0.1941  0.1941  0.7522
  861MOL0     C16128   8.602   9.393   5.087 -0.5287  0.5592 -0.4372
  861MOL0     C16129   8.365   9.340   5.007  0.2407  0.2008 -1.1337
  861MOL0     C16130   8.294   9.456   5.063 -0.0106 -0.9029  0.0654
  861MOL0     O16131   8.161   9.446   5.072  0.1101 -0.1859  0.4437
  861MOL0     C16132   8.090   9.537   5.136 -0.7011  0.0022  0.7601
  861MOL0     C16133   8.057   9.652   5.062  0.1594 -0.2653  0.0917
  861MOL0     C16134   7.973   9.747   5.121 -0.0970 -0.2108 -0.3053
  861MOL0     C16135   7.917   9.727   5.247  0.0762 -0.2891  0.3567
  861MOL0     O16136   7.838   9.818   5.305 -0.0267 -0.1138 -0.3654
  861MOL0     C16137   7.755   9.907   5.230 -0.3084 -0.4590 -0.1211
  861MOL0     C16138   7.648   9.952   5.332  0.6951  0.5250 -0.4891
  861MOL0     C16139   7.667  10.077   5.413 -0.5730 -0.3207 -0.1308
  861MOL0     C16140   7.610  10.065   5.559 -0.3233 -0.0211 -0.9793
  861MOL0     C16141   7.465  10.053   5.573 -0.4317  0.5266  1.2834
  861MOL0     C16142   7.390  10.180   5.529 -0.3715  0.3772 -0.0888
  861MOL0     C16143   7.232  10.166   5.536 -0.3419  0.0594  0.1765
  861MOL0     C16144   7.183  10.152   5.671  0.0165  0.0686 -0.3755
  861MOL0    Cl16145   7.121   9.998   5.701  0.1630 -0.2195 -0.1859
  861MOL0     C16146   7.950   9.612   5.318  0.1057  0.8979  0.7675
  861MOL0     C16147   8.031   9.513   5.258 -0.1678  0.2941  0.3372
  861MOL0     O16148   8.358   9.557   5.100 -1.0601  0.2455 -0.5102
  861MOL0     C16149   8.295   9.244   4.933 -0.5549  0.1895  0.7922
  861MOL0     C16150   8.340   9.118   4.902 -0.2606  0.6528  1.3042
  861MOL0     N16151   8.387   8.422   4.988 -0.9507  0.9210 -0.4732
  861MOL0     N16152   8.327   8.311   5.036 -0.0656  0.4026  0.3609
  861MOL0     C16153   9.099   8.286   5.937  0.6321 -0.4710 -0.2222
  861MOL0     C16154   9.211   8.329   6.011  0.0862 -0.7136 -0.4094
  861MOL0     C16155   9.575   8.277   6.309  0.0855  0.0375  1.4965
  861MOL0     C16156   9.701   8.221   6.336 -0.8850  0.4988 -0.1310
  861MOL0     C16157   9.794   8.283   6.420  0.3903 -0.3117 -0.2183
  861MOL0     C16158   9.755   8.397   6.490  0.6802  0.0854  0.0526
  861MOL0     O16159   9.849   8.472   6.567  0.2058 -0.0399  0.7116
  861MOL0     C16160   9.807   8.559   6.679  0.2694  0.1907 -0.1202
  861MOL0     C16161   9.719   8.479   6.766 -0.2641  0.7836 -0.7550
  861MOL0     C16162   9.789   8.345   6.801  0.1300  0.5439  0.0797
  861MOL0     C16163   9.730   8.259   6.909  0.0269  0.6346 -0.8499
  861MOL0     C16164   9.830   8.168   6.971  0.0713  1.1857 -0.0276
  861MOL0     C16165   9.909   8.094   7.020 -0.0172 -0.4130  0.2116
  861MOL0     C16166   9.623   8.445   6.470  0.8280  0.4862 -0.0268
  861MOL0     C16167   9.538   8.390   6.381  1.1676  0.2549 -0.2112
  861MOL0     H16168   9.287   8.040   6.160 -0.4803 -1.3190 -1.2270
  861MOL0     H16169   9.076   7.971   6.023 -0.5660 -0.6516 -2.9059
  861MOL0     H16170   8.816   8.272   5.794  2.7205  2.4036  1.3027
  861MOL0     H16171   8.965   8.257   5.710 -0.9265  1.3646  0.6326
  861MOL0     H16172   8.829   8.129   5.550 -2.6703 -1.9815  0.0188
  861MOL0     H16173   8.843   8.005   5.666  0.0273 -0.6609 -3.3429
  861MOL0     H16174   8.631   8.048   5.759  2.2601 -0.2091  0.6976
  861MOL0     H16175   8.631   8.221   5.716  3.0775  1.9256 -1.7201
  861MOL0     H16176   8.616   8.170   5.482 -1.3530  0.1813 -0.7674
  861MOL0     H16177   8.595   7.987   5.530  0.2556  0.4550 -0.8670
  861MOL0     H16178   8.405   8.024   5.650 -0.7454  0.8123  0.9706
  861MOL0     H16179   8.415   8.191   5.631 -0.7743 -1.4748  0.0690
  861MOL0     H16180   8.392   8.018   5.382  0.6356  3.7892 -3.0558
  861MOL0     H16181   8.257   8.074   5.481 -1.6204  1.5583 -2.4230
  861MOL0     H16182   8.323   8.303   5.452  2.5973  1.9548 -0.4367
  861MOL0     H16183   8.474   8.268   5.363 -0.2543  2.9661 -0.1022
  861MOL0     H16184   8.172   8.225   5.279 -0.2060  0.6962 -0.4246
  861MOL0     H16185   8.305   8.132   5.209  1.8153 -0.8021  2.9432
  861MOL0     H16186   8.342   8.514   5.296  1.0728  0.6386 -0.7722
  861MOL0     H16187   8.409   8.712   5.002 -0.9110  0.5909  0.1033
  861MOL0     H16188   8.448   8.708   5.159  2.4437  1.0766 -0.3459
  861MOL0     H16189   8.646   8.548   5.009  1.5539  0.8785  1.1354
  861MOL0     H16190   8.665   8.670   5.132 -0.9798 -1.8922  1.4872
  861MOL0     H16191   8.570   8.715   4.841  1.0001 -3.6691  0.3248
  861MOL0     H16192   8.743   8.730   4.890  1.3390  0.3111  2.2702
  861MOL0     H16193   8.699   8.951   4.933  1.0671  0.1536  2.8194
  861MOL0     H16194   8.615   8.903   5.076  0.9355 -0.5332  0.8986
  861MOL0     H16195   8.656   9.144   5.004  0.2876  0.7899  2.8050
  861MOL0     H16196   8.564   9.427   5.184 -1.3113 -1.5375  0.0423
  861MOL0     H16197   8.696   9.345   5.115 -2.7157 -3.5984  0.6807
  861MOL0     H16198   8.602   9.483   5.025 -1.7693  1.5325  0.8980
  861MOL0     H16199   8.095   9.662   4.961 -0.8575  2.0317 -0.1184
  861MOL0     H16200   7.948   9.830   5.055  3.3975 -0.2684 -1.9200
  861MOL0     H16201   7.816   9.979   5.174 -0.5567  0.8195  1.1923
  861MOL0     H16202   7.709   9.847   5.151 -0.3882  0.0847 -0.4901
  861MOL0     H16203   7.558   9.981   5.278  0.5684  2.5339  0.7273
  861MOL0     H16204   7.624   9.860   5.386 -0.4400  0.3357 -1.2879
  861MOL0     H16205   7.642  10.164   5.352  0.8328  0.2772  0.1008
  861MOL0     H16206   7.774  10.099   5.427 -0.5051  0.0504 -1.1749
  861MOL0     H16207   7.665   9.985   5.609  0.7867  1.3087  0.0100
  861MOL0     H16208   7.631  10.160   5.609  2.5314 -0.7612 -0.5814
  861MOL0     H16209   7.430  10.027   5.674 -0.2742 -3.1095  0.5220
  861MOL0     H16210   7.434   9.962   5.522  0.2266  0.8666  0.2540
  861MOL0     H16211   7.420  10.266   5.590 -0.2284  1.9562 -2.2524
  861MOL0     H16212   7.418  10.205   5.426 -0.1713 -1.0339 -0.3988
  861MOL0     H16213   7.196  10.083   5.474  2.4362  0.7107 -2.5890
  861MOL0     H16214   7.188  10.251   5.483 -1.0781 -1.2639 -1.4397
  861MOL0     H16215   7.101  10.223   5.680  0.3626  0.5242 -0.7756
  861MOL0     H16216   7.263  10.181   5.739  0.9205  2.6695 -2.3781
  861MOL0     H16217   7.921   9.598   5.421 -0.4358 -3.4662  0.2119
  861MOL0     H16218   8.053   9.416   5.301 -0.9513  0.1627  0.4539
  861MOL0     H16219   8.187   9.247   4.938 -0.6005 -0.9956  0.8508
  861MOL0     H16220   8.270   9.047   4.859 -0.4146 -0.8215  3.7728
  861MOL0     H16221   9.050   8.360   5.874 -0.2401 -0.7537  0.1017
  861MOL0     H16222   9.245   8.430   5.989 -3.0844  0.6385  0.3276
  861MOL0     H16223   9.748   8.145   6.274 -1.8896 -0.6213  0.4198
  861MOL0     H16224   9.894   8.251   6.445 -1.1988 -2.3893  4.5285
  861MOL0     H16225   9.897   8.605   6.722  0.4387 -0.2113 -0.0476
  861MOL0     H16226   9.743   8.638   6.636  1.2299  0.1769 -1.6299
  861MOL0     H16227   9.627   8.456   6.712 -1.3035  0.2527  1.1267
  861MOL0     H16228   9.693   8.549   6.847  2.9096 -0.4256  1.5237
  861MOL0     H16229   9.898   8.350   6.812 -0.0323  1.3837  1.6584
  861MOL0     H16230   9.766   8.282   6.715 -4.1399  0.5946  0.9955
  861MOL0     H16231   9.642   8.211   6.864 -0.0700 -1.4555  1.3664
  861MOL0     H16232   9.686   8.323   6.986  2.7448  1.2591  0.2697
  861MOL0     H16233   9.985   8.031   7.061 -1.4317 -1.7214  0.9137
  861MOL0     H16234   9.595   8.538   6.519  1.6734 -0.0165  1.4955
  861MOL0     H16235   9.446   8.444   6.357  1.8968  1.5922 -0.1221
  862MOL0     O16236  10.623   4.377   4.953  0.2300 -0.5830 -0.1488
  862MOL0     C16237  10.682   4.301   5.027 -0.2863  0.0083  0.8240
  862MOL0     O16238  10.758   4.193   4.987 -0.5140 -1.5020  1.0644
  862MOL0     C16239  10.796   4.176   4.852 -0.2145 -0.8804  0.3868
  862MOL0     C16240  10.817   4.042   4.809 -0.1991  0.0391 -0.2469
  862MOL0     C16241  10.888   4.006   4.696 -0.3384 -0.6410 -0.3108
  862MOL0     C16242  10.934   4.103   4.601 -0.3210 -0.6759 -0.1682
  862MOL0     O16243  10.984   4.079   4.474 -0.7479  0.1720 -0.1178
  862MOL0     C16244  10.941   3.950   4.412  0.0352 -0.5528 -0.4046
  862MOL0     C16245  10.958   3.940   4.256 -0.6927  0.9711 -0.1915
  862MOL0     C16246  10.849   3.850   4.197 -0.2011 -0.4021 -0.1848
  862MOL0     C16247  10.861   3.855   4.038 -1.2109  0.2562  0.3112
  862MOL0     C16248  10.966   3.766   3.977 -1.0309 -0.7604  0.2605
  862MOL0     C16249  11.008   3.786   3.838  0.1307 -0.9817 -0.2479
  862MOL0     C16250  10.909   3.777   3.723 -0.2975 -0.0066 -0.3705
  862MOL0     C16251  10.844   3.640   3.716 -0.5424 -0.6639 -0.2842
  862MOL0     N16252  10.753   3.627   3.601 -0.4067  0.5309  0.4663
  862MOL0     C16253  10.775   3.565   3.472 -0.3768 -1.0053 -0.0245
  862MOL0     C16254  10.659   3.577   3.409  0.5842  0.5126  0.9544
  862MOL0     C16255  10.617   3.506   3.279  0.4423  0.1405 -0.0755
  862MOL0     C16256  10.687   3.558   3.150 -0.1054  0.2073  0.5861
  862MOL0     C16257  10.841   3.524   3.142  0.4948  0.3494  0.6906
  862MOL0     C16258  10.898   3.515   3.005 -0.0288  0.1969  0.5828
  862MOL0     O16259  10.908   3.645   2.966 -0.3266  0.6920 -0.0814
  862MOL0     C16260  10.956   3.679   2.846 -2.0473 -0.0465  0.5977
  862MOL0     C16261  10.867   3.704   2.747  0.0686 -0.1626 -1.0572
  862MOL0     C16262  10.913   3.718   2.617 -1.2553 -1.3555 -0.8038
  862MOL0     C16263  10.812   3.704   2.510  0.2478 -0.2924 -1.4557
  862MOL0     C16264  11.048   3.741   2.590 -0.2466 -0.0738 -0.1724
  862MOL0     C16265  11.092   3.762   2.446 -0.3064  0.0225 -0.4679
  862MOL0     O16266  11.030   3.850   2.361  0.3879 -0.8451  0.1488
  862MOL0     C16267  11.115   3.881   2.256  0.0914  0.2460  0.3109
  862MOL0     C16268  11.063   3.862   2.127 -0.9138  0.7236  0.1160
  862MOL0     C16269  11.135   3.905   2.013  0.3192 -0.7417  0.1008
  862MOL0     C16270  11.254   3.972   2.037 -0.0142  0.5595  0.2901
  862MOL0     O16271  11.334   4.016   1.933  0.1251  0.5437 -0.2911
  862MOL0     C16272  11.472   3.975   1.921  0.1003 -1.0919 -0.1402
  862MOL0     C16273  11.496   3.824   1.886  0.1811  0.5543  0.3108
  862MOL0     C16274  11.379   3.761   1.808 -0.0502 -0.3878  0.1125
  862MOL0     C16275  11.386   3.613   1.812  0.5743 -0.1743 -0.9997
  862MOL0     C16276  11.262   3.563   1.739  1.1497  0.0494 -0.4412
  862MOL0     C16277  11.136   3.583   1.815 -0.5174 -0.2433 -0.6022
  862MOL0     C16278  11.024   3.489   1.772 -0.7084 -0.7367  0.9573
  862MOL0     C16279  10.905   3.466   1.866 -0.1901  0.3175  0.2033
  862MOL0    Cl16280  10.779   3.355   1.780  0.2498  0.3522 -0.1320
  862MOL0     C16281  11.297   4.002   2.159 -0.4476 -0.2963  0.2428
  862MOL0     C16282  11.227   3.963   2.270 -0.3333 -0.3037 -0.3503
  862MOL0     O16283  11.198   3.704   2.428 -0.3454  0.6187  0.9518
  862MOL0     C16284  11.141   3.712   2.691 -0.2368  1.4768 -0.7122
  862MOL0     C16285  11.095   3.681   2.819 -0.1283  0.5766 -0.5719
  862MOL0     N16286  10.565   3.641   3.488  0.2004 -0.1351  0.0765
  862MOL0     N16287  10.628   3.678   3.594 -0.4810 -0.3294  0.7553
  862MOL0     C16288  10.898   4.233   4.637  0.0119  0.9968 -0.4262
  862MOL0     C16289  10.839   4.269   4.756  0.7230  0.3475 -0.1391
  862MOL0     C16290  10.660   4.315   5.172 -0.3523  0.8702  0.4283
  862MOL0     C16291  10.571   4.415   5.216  0.0258  0.4917 -0.6631
  862MOL0     C16292  10.554   4.440   5.355 -0.2863 -0.0960 -0.2035
  862MOL0     C16293  10.615   4.365   5.452 -0.5199  0.4734  0.0020
  862MOL0     O16294  10.615   4.386   5.586  0.5406 -0.5948  0.3339
  862MOL0     C16295  10.510   4.462   5.643 -0.1933 -0.1275 -0.2243
  862MOL0     C16296  10.538   4.452   5.795  0.2271 -0.2518  0.1621
  862MOL0     C16297  10.519   4.314   5.861  0.1427 -0.2859  0.6146
  862MOL0     C16298  10.368   4.286   5.881 -0.8614  0.0478  0.1333
  862MOL0     C16299  10.350   4.149   5.928 -0.5135 -0.0888 -0.6256
  862MOL0     C16300  10.337   4.045   5.985  0.9921 -0.1305 -0.1833
  862MOL0     C16301  10.708   4.268   5.404  0.5324 -0.0278 -0.1399
  862MOL0     C16302  10.732   4.247   5.267  0.3514  0.1890  0.3699
  862MOL0     H16303  10.801   3.966   4.885  2.2849 -2.0655 -1.6799
  862MOL0     H16304  10.916   3.902   4.680 -0.7348 -0.8419  0.2633
  862MOL0     H16305  11.003   3.869   4.450  1.0304  0.8501  1.0429
  862MOL0     H16306  10.836   3.925   4.435 -0.2755 -0.5839 -1.7594
  862MOL0     H16307  10.945   4.041   4.217 -1.3622  1.4358  1.1811
  862MOL0     H16308  11.056   3.895   4.238 -0.8611 -0.0498  1.2468
  862MOL0     H16309  10.852   3.744   4.227 -0.1860 -1.2023 -2.7694
  862MOL0     H16310  10.754   3.887   4.235  0.1903  0.8734 -0.4050
  862MOL0     H16311  10.764   3.829   3.996 -1.7590  0.2702  1.5301
  862MOL0     H16312  10.877   3.960   4.012 -3.3314  0.3292 -0.8706
  862MOL0     H16313  11.049   3.766   4.049  1.2368 -2.8770 -2.1450
  862MOL0     H16314  10.928   3.664   3.986  0.6880 -1.2965  2.4902
  862MOL0     H16315  11.053   3.885   3.824  0.2331 -0.8197  1.1463
  862MOL0     H16316  11.086   3.710   3.829  0.2730 -0.7871 -0.7007
  862MOL0     H16317  10.833   3.853   3.742 -0.3544  0.0103 -0.6715
  862MOL0     H16318  10.967   3.793   3.632 -0.5827  0.6924 -0.4367
  862MOL0     H16319  10.782   3.648   3.805 -1.3995  1.4323 -0.9956
  862MOL0     H16320  10.921   3.563   3.718  1.3457  1.1545  0.6974
  862MOL0     H16321  10.861   3.519   3.425 -1.6600 -1.3427 -2.1824
  862MOL0     H16322  10.628   3.397   3.285 -0.6132  0.0434  0.3958
  862MOL0     H16323  10.510   3.526   3.266  0.0391 -2.8109 -2.3776
  862MOL0     H16324  10.684   3.667   3.153  0.4949  0.2072  1.3821
  862MOL0     H16325  10.632   3.507   3.070 -0.9657  0.8063  0.7795
  862MOL0     H16326  10.865   3.429   3.191 -0.0379 -1.7220 -2.7031
  862MOL0     H16327  10.891   3.603   3.198  1.9311  0.3969 -0.5927
  862MOL0     H16328  10.826   3.461   2.941  0.7995  0.0945 -0.2828
  862MOL0     H16329  10.984   3.447   3.011 -0.0360  0.2068  0.7982
  862MOL0     H16330  10.764   3.692   2.779  0.3797 -1.0368 -0.3340
  862MOL0     H16331  10.720   3.746   2.551  1.2156 -1.4183  2.3081
  862MOL0     H16332  10.837   3.750   2.414  2.2651  0.7082 -0.5024
  862MOL0     H16333  10.786   3.599   2.493 -1.9590 -0.1597  0.6592
  862MOL0     H16334  10.969   3.808   2.117 -0.6025 -0.0814  1.3285
  862MOL0     H16335  11.107   3.901   1.908  3.2758  0.2847 -0.8448
  862MOL0     H16336  11.514   4.049   1.852 -3.2039  3.1259  1.9014
  862MOL0     H16337  11.534   4.003   2.006 -0.6541  2.0488 -0.4988
  862MOL0     H16338  11.591   3.823   1.832  0.7515  1.4844  1.2466
  862MOL0     H16339  11.508   3.772   1.982  1.2554 -4.3591 -2.1507
  862MOL0     H16340  11.385   3.798   1.705  1.3923  2.6766  1.1821
  862MOL0     H16341  11.281   3.793   1.845 -0.2467 -0.7649 -0.0799
  862MOL0     H16342  11.481   3.566   1.783  1.8776  0.2161  2.1213
  862MOL0     H16343  11.367   3.585   1.916 -2.3196  0.6266 -1.2312
  862MOL0     H16344  11.269   3.454   1.734 -0.9684 -0.0931 -2.1861
  862MOL0     H16345  11.250   3.618   1.646  0.4327 -0.2180 -0.5151
  862MOL0     H16346  11.149   3.555   1.921  2.0624 -0.8083 -0.9879
  862MOL0     H16347  11.103   3.686   1.803  2.9306  0.9775 -0.5345
  862MOL0     H16348  11.066   3.391   1.751 -2.7419 -1.8374  1.7049
  862MOL0     H16349  10.984   3.527   1.677 -0.0048  0.5895  1.1687
  862MOL0     H16350  10.842   3.548   1.901 -1.4429 -1.1086  1.3778
  862MOL0     H16351  10.944   3.424   1.959  1.7727  0.1875 -0.6128
  862MOL0     H16352  11.388   4.062   2.170 -1.5692  1.2947  1.3118
  862MOL0     H16353  11.259   3.982   2.372 -0.2839 -0.7809 -0.2721
  862MOL0     H16354  11.248   3.728   2.680  0.0726 -0.6689 -1.2002
  862MOL0     H16355  11.154   3.646   2.902 -1.9087  0.4878  0.7296
  862MOL0     H16356  10.915   4.318   4.572  1.9891  1.8177  1.0528
  862MOL0     H16357  10.803   4.368   4.784  0.3292  0.0951  0.2683
  862MOL0     H16358  10.499   4.470   5.156 -1.4750  0.0260  0.6309
  862MOL0     H16359  10.500   4.527   5.391  1.3070  1.3772 -1.2417
  862MOL0     H16360  10.527   4.568   5.620  2.6544 -0.8308 -1.7377
  862MOL0     H16361  10.418   4.422   5.600  0.7943 -0.4472 -2.1309
  862MOL0     H16362  10.476   4.523   5.850 -1.9242 -0.0060 -2.3916
  862MOL0     H16363  10.636   4.491   5.821 -0.7641  1.3628  1.6932
  862MOL0     H16364  10.563   4.322   5.961 -2.2492 -0.2080  1.7390
  862MOL0     H16365  10.569   4.232   5.809  0.2943  0.7955 -1.0095
  862MOL0     H16366  10.303   4.308   5.795  0.1889  3.5416  0.0635
  862MOL0     H16367  10.346   4.357   5.961  2.6054  2.8893 -1.1668
  862MOL0     H16368  10.331   3.952   6.039  0.1369 -0.9191 -1.5856
  862MOL0     H16369  10.763   4.208   5.476 -2.7778 -2.2844  0.7486
  862MOL0     H16370  10.809   4.174   5.242  0.3124 -1.0060  3.2795
  863MOL0     O16371   7.531   9.725   8.879  0.1854 -0.3727  0.2484
  863MOL0     C16372   7.598   9.786   8.959  0.0150 -0.4672  0.1202
  863MOL0     O16373   7.702   9.731   9.024 -0.4170 -0.1392 -0.2094
  863MOL0     C16374   7.719   9.593   9.009 -0.2981 -0.0521 -0.0525
  863MOL0     C16375   7.623   9.495   9.056  0.5267 -0.5181  0.2193
  863MOL0     C16376   7.664   9.362   9.054 -0.7500 -0.4160  0.0701
  863MOL0     C16377   7.785   9.317   8.988  0.3703  0.5386  0.9528
  863MOL0     O16378   7.810   9.183   8.957  0.5880 -0.7524  0.5766
  863MOL0     C16379   7.700   9.094   8.932  0.0113 -0.0467  0.0811
  863MOL0     C16380   7.760   8.967   8.870  0.7871  0.4062 -0.0919
  863MOL0     C16381   7.647   8.868   8.824  0.1297  0.3254  0.5499
  863MOL0     C16382   7.695   8.737   8.771  0.3414  0.2854  0.3719
  863MOL0     C16383   7.650   8.624   8.855  0.8566  1.0723  0.1282
  863MOL0     C16384   7.640   8.499   8.772 -0.3012  0.1094  0.7954
  863MOL0     C16385   7.567   8.385   8.858 -0.3873 -0.6665  0.1072
  863MOL0     C16386   7.422   8.407   8.899  0.9333 -0.0737  0.6562
  863MOL0     N16387   7.336   8.460   8.789 -0.4373 -0.3590 -0.4538
  863MOL0     C16388   7.297   8.591   8.788 -0.3770 -0.5706  0.5446
  863MOL0     C16389   7.224   8.596   8.682  0.8466 -1.3673  0.0646
  863MOL0     C16390   7.144   8.719   8.647 -0.1074 -0.0431  0.0525
  863MOL0     C16391   7.005   8.755   8.713 -0.0776 -0.6337  0.4792
  863MOL0     C16392   7.001   8.794   8.869  0.0437  0.3975 -0.5252
  863MOL0     C16393   7.056   8.936   8.897 -0.7626 -0.1767  0.3621
  863MOL0     O16394   7.193   8.924   8.931 -0.6811  0.6496 -0.1485
  863MOL0     C16395   7.266   9.039   8.963 -0.2210  0.2130 -0.9318
  863MOL0     C16396   7.228   9.163   8.913 -0.3903  0.1791  1.1817
  863MOL0     C16397   7.258   9.284   8.979  0.0799  0.5892  0.3922
  863MOL0     C16398   7.217   9.409   8.923  0.1133  0.0750 -0.8253
  863MOL0     C16399   7.337   9.278   9.099  0.8513  1.2084  0.2659
  863MOL0     C16400   7.348   9.398   9.200 -0.1693  0.2368 -0.3613
  863MOL0     O16401   7.293   9.519   9.172 -0.9993  0.2772  1.0079
  863MOL0     C16402   7.318   9.630   9.245  0.6428 -1.1266 -0.6347
  863MOL0     C16403   7.227   9.740   9.225  0.2604 -0.0519 -0.4737
  863MOL0     C16404   7.234   9.863   9.298 -0.8526  1.1877 -0.1453
  863MOL0     C16405   7.333   9.880   9.388 -0.1814 -0.8390 -0.4384
  863MOL0     O16406   7.338  10.001   9.457  0.5728 -0.0245 -0.1687
  863MOL0     C16407   7.436  10.016   9.557 -0.2599  0.6261 -0.3415
  863MOL0     C16408   7.394  10.140   9.631  0.2115 -0.3331  0.6485
  863MOL0     C16409   7.302  10.102   9.752 -0.3818  0.2721  0.8680
  863MOL0     C16410   7.234  10.224   9.819 -0.9089 -0.6079 -0.2846
  863MOL0     C16411   7.335  10.331   9.859 -0.3273  0.2927  1.0206
  863MOL0     C16412   7.408  10.296   9.995  0.4462 -1.0000  0.2803
  863MOL0     C16413   7.545  10.385  10.019  0.0634 -0.5543 -0.0841
  863MOL0     C16414   7.518  10.522  10.059  0.0910 -0.4668 -0.3418
  863MOL0    Cl16415   7.416  10.546  10.204 -0.3763 -0.0811  0.2404
  863MOL0     C16416   7.411   9.768   9.422 -0.7915 -0.9115 -0.3936
  863MOL0     C16417   7.413   9.649   9.350  0.3856 -0.1719  0.1561
  863MOL0     O16418   7.421   9.381   9.293  0.2214  0.8689  0.1092
  863MOL0     C16419   7.383   9.157   9.144  0.5309  0.1139  0.5447
  863MOL0     C16420   7.357   9.034   9.073 -0.0195 -0.8551 -0.1487
  863MOL0     N16421   7.207   8.472   8.626  0.0387 -0.0076  0.5800
  863MOL0     N16422   7.278   8.386   8.693  0.6180  0.6268  0.2034
  863MOL0     C16423   7.871   9.410   8.947 -0.1928 -0.7920 -0.0456
  863MOL0     C16424   7.837   9.546   8.949 -0.5396 -0.2693  0.5743
  863MOL0     C16425   7.558   9.922   8.985  0.6303 -0.3441 -0.0688
  863MOL0     C16426   7.645  10.013   9.045 -0.3533  0.1304  0.3503
  863MOL0     C16427   7.602  10.146   9.077  0.4018  0.2921  0.8407
  863MOL0     C16428   7.467  10.183   9.061  0.6814  0.2341  0.1720
  863MOL0     O16429   7.414  10.293   9.113  0.7575 -0.9382 -0.3575
  863MOL0     C16430   7.434  10.285   9.258  0.5445  0.1397 -0.3953
  863MOL0     C16431   7.372  10.406   9.326 -0.8497  0.1244 -0.7081
  863MOL0     C16432   7.475  10.520   9.360 -1.1561 -0.6642  1.2438
  863MOL0     C16433   7.397  10.653   9.391 -0.0611  0.0867 -0.5096
  863MOL0     C16434   7.348  10.647   9.530  0.7325 -0.2899  0.1222
  863MOL0     C16435   7.302  10.636   9.639  0.3732  0.2205 -0.4981
  863MOL0     C16436   7.390  10.097   8.985  0.0167 -0.8016 -0.0384
  863MOL0     C16437   7.429   9.971   8.952  0.4289  0.1990  0.1204
  863MOL0     H16438   7.532   9.526   9.107  0.7565 -0.3898  0.5553
  863MOL0     H16439   7.598   9.277   9.073 -1.0650 -1.0424 -3.2039
  863MOL0     H16440   7.646   9.072   9.025 -0.0900  0.6291  0.1893
  863MOL0     H16441   7.633   9.134   8.854 -1.4876 -3.1011 -0.3311
  863MOL0     H16442   7.816   9.003   8.783  0.1544  1.0363 -0.2517
  863MOL0     H16443   7.835   8.920   8.933  0.6201  2.4601  1.7655
  863MOL0     H16444   7.578   8.855   8.908 -1.8841 -0.0498 -1.0800
  863MOL0     H16445   7.577   8.915   8.755 -2.9618 -1.1167  2.4911
  863MOL0     H16446   7.652   8.729   8.671  2.0015  1.0125 -0.4355
  863MOL0     H16447   7.803   8.732   8.755 -0.0330 -2.0539 -2.3295
  863MOL0     H16448   7.721   8.609   8.937 -1.5747  2.2984  2.6598
  863MOL0     H16449   7.553   8.658   8.895  1.3688  3.0131 -0.1670
  863MOL0     H16450   7.576   8.528   8.688 -0.7629 -1.6005  0.5233
  863MOL0     H16451   7.734   8.460   8.732 -0.6169  1.7156 -1.6988
  863MOL0     H16452   7.566   8.285   8.812 -0.8204 -1.3116  1.4619
  863MOL0     H16453   7.632   8.372   8.945 -2.7191  0.8367  2.1556
  863MOL0     H16454   7.417   8.486   8.974 -3.2964  2.1492 -1.6252
  863MOL0     H16455   7.381   8.308   8.922  0.4095 -0.5096 -1.8716
  863MOL0     H16456   7.325   8.663   8.865 -3.3459  1.3177  0.0225
  863MOL0     H16457   7.206   8.809   8.655  0.0717 -0.2582  1.1794
  863MOL0     H16458   7.124   8.702   8.541  1.8353  2.2128 -0.7771
  863MOL0     H16459   6.944   8.664   8.712 -2.7231  0.9629  3.1922
  863MOL0     H16460   6.943   8.822   8.653 -0.4063 -0.1926  1.3072
  863MOL0     H16461   7.044   8.726   8.943  1.2654  1.5650 -0.1187
  863MOL0     H16462   6.894   8.796   8.891 -0.6744 -1.0817 -3.2986
  863MOL0     H16463   7.010   8.978   8.986 -0.1714 -3.5735  2.4354
  863MOL0     H16464   7.049   8.999   8.808 -1.5903  1.1114  1.3221
  863MOL0     H16465   7.156   9.160   8.832 -0.1598  1.4854  0.9067
  863MOL0     H16466   7.121   9.433   8.969 -0.9679 -1.1909 -2.3603
  863MOL0     H16467   7.291   9.486   8.949  1.4959 -1.2330 -0.7032
  863MOL0     H16468   7.206   9.414   8.814 -0.1094 -0.3907 -0.8235
  863MOL0     H16469   7.138   9.732   9.164  0.5792 -2.3233 -0.7317
  863MOL0     H16470   7.157   9.936   9.279 -0.6392  2.1418  2.2365
  863MOL0     H16471   7.440   9.940   9.635  0.3754 -0.5755 -1.4953
  863MOL0     H16472   7.532  10.026   9.505 -0.4711  5.3999 -0.2366
  863MOL0     H16473   7.486  10.187   9.668  0.2311  0.1037  0.0474
  863MOL0     H16474   7.345  10.207   9.561  0.1768  0.5106  1.4586
  863MOL0     H16475   7.364  10.049   9.824 -0.1761  2.0314  2.0244
  863MOL0     H16476   7.215  10.045   9.718 -1.0223 -0.0393  2.9159
  863MOL0     H16477   7.192  10.279   9.734  0.5759  0.7273 -0.2197
  863MOL0     H16478   7.170  10.208   9.906  0.0826  1.5465  0.9292
  863MOL0     H16479   7.263  10.411   9.876 -2.1502 -1.8473  4.4740
  863MOL0     H16480   7.410  10.361   9.786  0.2449  1.3606  2.0035
  863MOL0     H16481   7.330  10.287  10.070  0.4228 -0.6879  0.2958
  863MOL0     H16482   7.441  10.192   9.986 -2.5635 -2.2710  2.3310
  863MOL0     H16483   7.609  10.380   9.931  0.1794 -3.8749  0.0551
  863MOL0     H16484   7.592  10.341  10.108 -0.4194 -0.1788  0.3619
  863MOL0     H16485   7.463  10.569   9.976 -5.1127 -3.2075  1.0921
  863MOL0     H16486   7.611  10.576  10.076 -1.3101  1.5108  1.6203
  863MOL0     H16487   7.490   9.784   9.495  1.3121  1.6557 -2.9875
  863MOL0     H16488   7.480   9.570   9.380 -3.3513 -3.6554  0.1375
  863MOL0     H16489   7.442   9.131   9.232  2.0095 -1.4784 -0.8309
  863MOL0     H16490   7.387   8.936   9.108 -0.0334 -0.3581  1.2874
  863MOL0     H16491   7.965   9.376   8.906  0.3388 -1.0054  1.3020
  863MOL0     H16492   7.913   9.616   8.914 -1.1710 -0.2906 -0.9030
  863MOL0     H16493   7.747   9.985   9.064 -0.2591 -0.4370 -0.9042
  863MOL0     H16494   7.667  10.218   9.125  1.5202 -1.5028  2.1690
  863MOL0     H16495   7.378  10.200   9.299 -0.3247  1.6973  1.8631
  863MOL0     H16496   7.537  10.270   9.293  1.0292 -0.8119 -2.1049
  863MOL0     H16497   7.330  10.365   9.418  1.0078  2.0114  1.0991
  863MOL0     H16498   7.291  10.448   9.266  2.4457  2.6453 -3.8747
  863MOL0     H16499   7.539  10.546   9.275 -0.6597 -0.6013  1.6416
  863MOL0     H16500   7.541  10.499   9.444  1.1243  2.9123  0.5423
  863MOL0     H16501   7.310  10.657   9.324 -0.5239  2.3588  0.1348
  863MOL0     H16502   7.457  10.741   9.369  2.2772 -1.7423 -1.9202
  863MOL0     H16503   7.244  10.640   9.729  4.0542  0.1002  2.0963
  863MOL0     H16504   7.291  10.132   8.960  0.2874  0.9370  1.1846
  863MOL0     H16505   7.367   9.905   8.894  0.8232 -0.1045  0.0403
  864MOL0     O16506  11.337   1.085   6.166 -0.0714  0.2728  0.9239
  864MOL0     C16507  11.378   1.076   6.280 -0.2430  0.4297  0.3805
  864MOL0     O16508  11.343   0.982   6.368  0.0720  0.2864  0.2085
  864MOL0     C16509  11.268   0.874   6.318  0.7053 -0.6495 -0.2853
  864MOL0     C16510  11.198   0.791   6.411 -0.2411 -0.0640 -0.3036
  864MOL0     C16511  11.124   0.675   6.364 -0.7554 -0.5244 -0.6380
  864MOL0     C16512  11.133   0.640   6.236 -0.3927 -0.0717  0.1673
  864MOL0     O16513  11.040   0.546   6.195 -0.0428  1.0888  0.2474
  864MOL0     C16514  11.095   0.442   6.109  0.0009 -0.3623  0.4854
  864MOL0     C16515  11.017   0.313   6.110  0.5692  0.0050 -0.0166
  864MOL0     C16516  10.988   0.257   6.256  0.0394 -0.5286 -0.4528
  864MOL0     C16517  10.864   0.330   6.334 -0.3343 -0.1802 -0.5319
  864MOL0     C16518  10.882   0.335   6.492  0.3114 -0.3268  0.1086
  864MOL0     C16519  10.825   0.212   6.558  0.5184 -1.0747 -0.7896
  864MOL0     C16520  10.671   0.227   6.580 -0.5040 -0.0211  0.5906
  864MOL0     C16521  10.616   0.110   6.654  0.7754  0.4495 -0.5540
  864MOL0     N16522  10.641  -0.017   6.578 -0.2838 -0.6146 -0.5701
  864MOL0     C16523  10.599  -0.037   6.450 -0.4515 -0.4457 -1.0950
  864MOL0     C16524  10.646  -0.152   6.403 -0.3855  0.0230 -0.2820
  864MOL0     C16525  10.626  -0.206   6.264  0.6815  0.0749  0.3808
  864MOL0     C16526  10.742  -0.148   6.182  0.6944  0.9055  0.6044
  864MOL0     C16527  10.847  -0.256   6.154 -0.9288  0.1706 -0.5807
  864MOL0     C16528  10.986  -0.198   6.110  0.0329 -0.4237  0.2537
  864MOL0     O16529  10.966  -0.116   5.989 -0.6175  0.0343 -0.2831
  864MOL0     C16530  11.077  -0.078   5.918 -1.9268 -0.1795  0.2389
  864MOL0     C16531  11.207  -0.141   5.918  0.5708 -0.3044  0.1115
  864MOL0     C16532  11.308  -0.100   5.835 -0.9515 -1.0057 -0.7054
  864MOL0     C16533  11.436  -0.179   5.835 -0.5788 -0.0127  1.0069
  864MOL0     C16534  11.295   0.016   5.756 -0.9524 -0.8338 -0.3550
  864MOL0     C16535  11.404   0.072   5.669 -0.0285  0.5109  0.9673
  864MOL0     O16536  11.363   0.152   5.559  0.2208 -0.6552 -1.1719
  864MOL0     C16537  11.466   0.199   5.476 -0.3958  0.5581 -0.0090
  864MOL0     C16538  11.575   0.271   5.521  0.2195 -0.5923  0.2403
  864MOL0     C16539  11.682   0.313   5.432 -0.3112  0.2825 -0.2065
  864MOL0     C16540  11.671   0.293   5.299  1.0768 -0.3851  0.4538
  864MOL0     O16541  11.761   0.317   5.200 -0.0088 -0.1384 -0.5774
  864MOL0     C16542  11.877   0.384   5.236  0.7719 -0.1609 -0.1409
  864MOL0     C16543  11.973   0.377   5.122  0.2481 -0.1426 -0.3338
  864MOL0     C16544  12.074   0.483   5.140 -0.7370 -0.4813  0.3814
  864MOL0     C16545  12.180   0.460   5.047 -0.6825  0.1280 -0.0112
  864MOL0     C16546  12.288   0.569   5.037 -0.3489  0.1272  0.1627
  864MOL0     C16547  12.425   0.517   4.988 -0.0581 -0.2476  1.1551
  864MOL0     C16548  12.528   0.630   4.986  0.1910  0.6508 -0.4954
  864MOL0     C16549  12.667   0.574   4.967  0.1914  0.1713  0.1281
  864MOL0    Cl16550  12.729   0.554   4.800  0.4168  0.3715 -0.0062
  864MOL0     C16551  11.548   0.220   5.255 -0.5691 -0.0523 -0.8274
  864MOL0     C16552  11.454   0.167   5.344 -0.9503  0.1299  0.0131
  864MOL0     O16553  11.528   0.049   5.689  0.2432 -0.0700 -0.6555
  864MOL0     C16554  11.165   0.070   5.740  0.2139  0.4598  0.5220
  864MOL0     C16555  11.060   0.025   5.822  0.4277  0.3225 -0.3778
  864MOL0     N16556  10.735  -0.197   6.507  0.5520 -0.6742  0.0156
  864MOL0     N16557  10.737  -0.110   6.605  0.8925 -0.2014  0.5276
  864MOL0     C16558  11.218   0.707   6.149  0.4299 -0.3297 -0.3867
  864MOL0     C16559  11.286   0.819   6.187  1.0732 -0.3000 -0.4918
  864MOL0     C16560  11.485   1.174   6.325 -0.4180 -0.0449  0.1609
  864MOL0     C16561  11.572   1.224   6.231  0.4721 -0.0686  0.4008
  864MOL0     C16562  11.665   1.333   6.267 -0.3142  0.9052 -0.1697
  864MOL0     C16563  11.667   1.380   6.397  0.2830 -0.7998 -0.3203
  864MOL0     O16564  11.752   1.475   6.446 -0.1965 -0.7559 -0.0173
  864MOL0     C16565  11.866   1.537   6.388  0.6748 -0.5476  0.2314
  864MOL0     C16566  11.924   1.620   6.488  0.0869  0.1764 -0.4745
  864MOL0     C16567  12.067   1.656   6.451 -0.8729  0.7950  1.1044
  864MOL0     C16568  12.139   1.759   6.537 -0.1214  0.2958 -1.1254
  864MOL0     C16569  12.115   1.733   6.686  0.4466  1.0885  0.4757
  864MOL0     C16570  12.086   1.678   6.793  0.4395  0.2111  0.2477
  864MOL0     C16571  11.570   1.327   6.492  0.2413 -0.4967 -0.5239
  864MOL0     C16572  11.482   1.221   6.459 -0.1871  0.0186 -0.1247
  864MOL0     H16573  11.189   0.818   6.516 -0.3375 -2.1867  0.2777
  864MOL0     H16574  11.050   0.614   6.415 -1.8282 -0.2680 -1.8305
  864MOL0     H16575  11.095   0.476   6.005 -1.5071 -1.5453  0.0774
  864MOL0     H16576  11.196   0.415   6.141  0.5120  1.1166  0.2220
  864MOL0     H16577  10.926   0.326   6.052  2.0880  0.6566 -2.3818
  864MOL0     H16578  11.075   0.240   6.052  0.3815 -1.4962  1.5732
  864MOL0     H16579  10.963   0.151   6.241 -0.6321 -0.2199 -1.5797
  864MOL0     H16580  11.075   0.273   6.320 -0.5458 -0.9457  0.4698
  864MOL0     H16581  10.856   0.434   6.302 -2.8943 -0.4299 -0.8816
  864MOL0     H16582  10.766   0.295   6.300  0.6112 -0.8318 -2.8209
  864MOL0     H16583  10.990   0.339   6.509  0.4342 -3.0784  0.4259
  864MOL0     H16584  10.822   0.418   6.530 -1.0099 -1.2808  0.1636
  864MOL0     H16585  10.852   0.137   6.483 -0.0177 -2.5328  0.4232
  864MOL0     H16586  10.882   0.194   6.649  2.5176  1.9529 -1.3004
  864MOL0     H16587  10.641   0.322   6.625 -1.8806  0.0478 -0.4229
  864MOL0     H16588  10.625   0.231   6.481 -1.6740 -0.0796  1.1203
  864MOL0     H16589  10.509   0.134   6.651  0.4102  0.0280  3.2676
  864MOL0     H16590  10.654   0.106   6.757  0.6836 -0.4971 -0.5498
  864MOL0     H16591  10.529   0.027   6.398  0.0852 -2.1958 -4.2355
  864MOL0     H16592  10.607  -0.314   6.263 -1.7672  0.4184  1.2947
  864MOL0     H16593  10.531  -0.163   6.231  1.8034  0.4149 -2.6882
  864MOL0     H16594  10.774  -0.058   6.234 -0.4833  1.5475  0.2552
  864MOL0     H16595  10.717  -0.103   6.086  1.0214  0.3648  0.2571
  864MOL0     H16596  10.811  -0.321   6.074 -0.4154  1.9507 -2.3438
  864MOL0     H16597  10.850  -0.310   6.249 -4.1625  0.5274 -0.1542
  864MOL0     H16598  11.047  -0.284   6.084 -2.5155 -3.1016  2.4549
  864MOL0     H16599  11.035  -0.134   6.185  0.8817  0.3959 -0.9634
  864MOL0     H16600  11.217  -0.231   5.978  0.0411  0.6533  1.6809
  864MOL0     H16601  11.451  -0.220   5.735  0.6134  1.6764  0.4550
  864MOL0     H16602  11.525  -0.120   5.858  0.6778 -1.0683 -0.8953
  864MOL0     H16603  11.433  -0.265   5.904  0.4702 -1.3280 -0.5230
  864MOL0     H16604  11.586   0.285   5.628 -1.0691 -0.2127  0.3304
  864MOL0     H16605  11.761   0.364   5.487  1.8991 -0.3184 -2.6465
  864MOL0     H16606  11.860   0.491   5.253  3.5504  0.3542 -0.0363
  864MOL0     H16607  11.918   0.354   5.333 -2.9014  2.2725  2.4155
  864MOL0     H16608  12.018   0.277   5.134  2.3551  0.8624  0.6594
  864MOL0     H16609  11.916   0.385   5.030  1.1553  2.1228 -0.7644
  864MOL0     H16610  12.116   0.475   5.241  1.9765  1.5348 -0.4629
  864MOL0     H16611  12.036   0.583   5.118  1.7202  0.4234 -0.0839
  864MOL0     H16612  12.231   0.368   5.075 -1.7023 -0.4681 -0.0874
  864MOL0     H16613  12.141   0.451   4.945 -1.0420  0.4672  0.0930
  864MOL0     H16614  12.302   0.608   5.139  0.3541 -0.9752  0.4954
  864MOL0     H16615  12.247   0.647   4.972 -1.5121  0.6022  1.3900
  864MOL0     H16616  12.469   0.434   5.045 -3.0804 -1.9632  1.1950
  864MOL0     H16617  12.416   0.482   4.885 -0.9629 -1.0274  1.4846
  864MOL0     H16618  12.523   0.673   5.087 -1.8448 -0.4839 -0.0459
  864MOL0     H16619  12.501   0.695   4.902 -1.3993 -2.7635 -2.8791
  864MOL0     H16620  12.679   0.477   5.018  0.3862  1.3276  2.4180
  864MOL0     H16621  12.742   0.636   5.017  0.5847 -1.2127  1.3271
  864MOL0     H16622  11.548   0.185   5.153 -0.8874 -3.6567  0.2861
  864MOL0     H16623  11.381   0.106   5.292 -2.6784  1.0419  1.2629
  864MOL0     H16624  11.140   0.149   5.669 -0.3648  2.1444  2.5002
  864MOL0     H16625  10.967   0.081   5.811  1.3487  1.5938 -2.2419
  864MOL0     H16626  11.249   0.667   6.053  0.7375  0.5502 -0.6710
  864MOL0     H16627  11.369   0.853   6.126  2.0135 -1.1653  0.2724
  864MOL0     H16628  11.576   1.176   6.134 -2.3371 -0.5185  0.4432
  864MOL0     H16629  11.740   1.358   6.193  0.2106 -0.1012  0.0089
  864MOL0     H16630  11.941   1.462   6.360  0.2886 -0.5643 -0.7864
  864MOL0     H16631  11.836   1.598   6.303 -1.2803 -2.7611 -0.7751
  864MOL0     H16632  11.930   1.555   6.576 -0.0149  0.6823 -0.0854
  864MOL0     H16633  11.866   1.710   6.511 -0.8116 -1.0532  2.5015
  864MOL0     H16634  12.081   1.678   6.345  0.0046 -1.2708  0.7350
  864MOL0     H16635  12.129   1.565   6.448 -0.5460  1.0095 -1.9167
  864MOL0     H16636  12.099   1.858   6.513 -1.8064 -0.6097 -2.2161
  864MOL0     H16637  12.248   1.770   6.528  0.8731 -1.4172  4.6461
  864MOL0     H16638  12.060   1.620   6.879  0.2712 -1.0092 -0.5948
  864MOL0     H16639  11.584   1.355   6.596  3.8644 -1.4790 -0.5881
  864MOL0     H16640  11.414   1.179   6.532  1.6411 -0.6251  1.2615
  865MOL0     O16641  10.720   8.709   2.813 -0.7295 -0.4537  0.3428
  865MOL0     C16642  10.626   8.632   2.808  0.0734  0.1704  1.1503
  865MOL0     O16643  10.505   8.663   2.755 -0.1199 -0.1130 -0.0946
  865MOL0     C16644  10.466   8.785   2.699 -0.1812  0.4417  0.0535
  865MOL0     C16645  10.382   8.778   2.587  0.1332  1.6023  0.5268
  865MOL0     C16646  10.331   8.897   2.527 -0.5973  0.5330  0.3259
  865MOL0     C16647  10.363   9.024   2.581 -0.4087  0.0237 -0.2221
  865MOL0     O16648  10.310   9.135   2.518 -0.6584  0.2147  0.3828
  865MOL0     C16649  10.249   9.231   2.610  0.4847  1.0109  0.4035
  865MOL0     C16650  10.168   9.317   2.520 -0.2644  0.6510 -1.0281
  865MOL0     C16651  10.064   9.407   2.590 -0.0528  1.0634 -0.0288
  865MOL0     C16652   9.982   9.332   2.698 -0.0608 -0.3664 -0.8129
  865MOL0     C16653   9.844   9.396   2.715 -0.9046 -0.6229 -0.0424
  865MOL0     C16654   9.857   9.540   2.774  0.0546  0.5837  1.1598
  865MOL0     C16655   9.728   9.608   2.758  0.2717 -0.5205 -0.0485
  865MOL0     C16656   9.708   9.633   2.605 -0.6800  0.0986  0.1312
  865MOL0     N16657   9.593   9.560   2.550  0.6255 -1.4720 -0.0109
  865MOL0     C16658   9.461   9.587   2.583 -0.6274 -0.3208 -0.4926
  865MOL0     C16659   9.382   9.517   2.522 -0.2474 -0.6930 -0.1645
  865MOL0     C16660   9.239   9.519   2.518  0.6449  0.4737 -1.2428
  865MOL0     C16661   9.169   9.556   2.654  0.1667 -0.1510  0.0326
  865MOL0     C16662   9.011   9.551   2.639 -0.3638 -0.2347  0.7436
  865MOL0     C16663   8.960   9.643   2.547  0.6818 -0.3707  0.4042
  865MOL0     O16664   8.817   9.626   2.540  0.1251 -0.4974 -0.0114
  865MOL0     C16665   8.763   9.510   2.532 -0.1720  0.0446  0.1983
  865MOL0     C16666   8.673   9.472   2.634 -0.5465 -0.6953 -0.2728
  865MOL0     C16667   8.606   9.348   2.637 -0.4669  0.4014  0.1491
  865MOL0     C16668   8.513   9.326   2.757  0.3878  0.1947 -0.4652
  865MOL0     C16669   8.624   9.258   2.525  0.0262 -0.9011  0.7941
  865MOL0     C16670   8.541   9.132   2.505  0.2610 -0.4967  0.2996
  865MOL0     O16671   8.460   9.083   2.607 -0.3596  0.5188 -0.8289
  865MOL0     C16672   8.372   8.974   2.581 -1.1824 -0.1750 -1.1793
  865MOL0     C16673   8.257   9.005   2.502  1.0760 -0.0276 -0.1552
  865MOL0     C16674   8.164   8.909   2.465 -0.2810 -0.6305  0.0542
  865MOL0     C16675   8.175   8.784   2.521  0.6454 -0.2949 -1.1734
  865MOL0     O16676   8.073   8.702   2.486 -0.5583 -0.4412 -0.0966
  865MOL0     C16677   8.066   8.579   2.559  0.0039 -0.4997  0.1201
  865MOL0     C16678   8.001   8.585   2.695 -1.1612  0.1301 -0.9127
  865MOL0     C16679   7.948   8.439   2.738  0.2886 -0.0704  0.1594
  865MOL0     C16680   7.888   8.430   2.886  0.4150 -0.1313  0.2222
  865MOL0     C16681   7.854   8.284   2.923 -0.1511 -0.8957 -0.0149
  865MOL0     C16682   7.813   8.271   3.070  0.4778 -0.2146 -0.5670
  865MOL0     C16683   7.802   8.129   3.116  0.8304 -0.4142  1.1199
  865MOL0     C16684   7.765   8.115   3.261  0.2420  0.3182 -0.5739
  865MOL0    Cl16685   7.592   8.141   3.261  0.7210 -0.1195  0.3789
  865MOL0     C16686   8.279   8.753   2.617 -0.6990 -0.1373 -0.1887
  865MOL0     C16687   8.386   8.849   2.647  0.9652  0.9118 -1.0551
  865MOL0     O16688   8.564   9.073   2.405  0.1150  0.7288  0.5391
  865MOL0     C16689   8.717   9.301   2.422  0.0430  0.3497 -0.2405
  865MOL0     C16690   8.791   9.422   2.433  0.3505  0.0246 -0.0332
  865MOL0     N16691   9.461   9.448   2.436  0.1105 -0.2391 -0.8987
  865MOL0     N16692   9.591   9.472   2.446  0.9832 -0.1227 -0.2924
  865MOL0     C16693  10.447   9.031   2.695  0.5350 -0.0268  0.5249
  865MOL0     C16694  10.494   8.912   2.755 -0.6847  0.5161  0.2156
  865MOL0     C16695  10.639   8.501   2.884  0.3526 -0.4192  1.4134
  865MOL0     C16696  10.760   8.462   2.937 -0.6785 -0.2726  0.7486
  865MOL0     C16697  10.771   8.332   2.987 -0.4185  0.1935 -0.4415
  865MOL0     C16698  10.671   8.232   2.978  0.0853 -0.2720  0.0179
  865MOL0     O16699  10.672   8.103   3.024 -0.2101 -0.1923 -0.1863
  865MOL0     C16700  10.799   8.036   2.989  0.1041  0.1741 -0.3114
  865MOL0     C16701  10.862   7.954   3.109 -0.8480 -0.6022 -0.1788
  865MOL0     C16702  10.767   7.865   3.184  0.2797 -0.2411  0.3971
  865MOL0     C16703  10.716   7.746   3.103  0.0787  0.2646 -0.2988
  865MOL0     C16704  10.594   7.689   3.157  0.3903 -0.1893 -0.3749
  865MOL0     C16705  10.480   7.655   3.186 -0.4112 -0.6911 -1.3577
  865MOL0     C16706  10.549   8.279   2.922 -0.2876 -0.0539 -0.3266
  865MOL0     C16707  10.532   8.408   2.880  0.4710 -0.8117  0.0938
  865MOL0     H16708  10.349   8.680   2.554  1.1638  0.4036  2.8145
  865MOL0     H16709  10.253   8.887   2.451 -1.3295  0.0553  1.1274
  865MOL0     H16710  10.195   9.184   2.693 -1.1710 -0.9598 -1.6652
  865MOL0     H16711  10.334   9.291   2.646  1.9221 -0.2268 -0.7944
  865MOL0     H16712  10.238   9.376   2.461  0.0261  0.7489 -0.5870
  865MOL0     H16713  10.112   9.241   2.464 -0.9566  1.2069 -1.1033
  865MOL0     H16714  10.110   9.495   2.637  1.0588  0.5998 -0.2281
  865MOL0     H16715  10.001   9.448   2.511  0.1054  2.1473  0.3853
  865MOL0     H16716   9.972   9.230   2.658  1.6637 -0.3234 -1.4389
  865MOL0     H16717  10.034   9.324   2.793 -1.7172  0.7659  0.2399
  865MOL0     H16718   9.798   9.395   2.616 -0.6794 -0.7446 -0.1469
  865MOL0     H16719   9.775   9.343   2.781 -2.7908  0.3468 -1.1521
  865MOL0     H16720   9.872   9.533   2.882  1.6306  0.1059  0.9323
  865MOL0     H16721   9.943   9.598   2.740  0.0760  0.3163  0.7415
  865MOL0     H16722   9.646   9.548   2.800  2.6610 -1.9312  2.9601
  865MOL0     H16723   9.728   9.708   2.802 -0.5411 -1.2755  1.7839
  865MOL0     H16724   9.799   9.616   2.548  0.0593  0.8089  1.0788
  865MOL0     H16725   9.699   9.741   2.586  3.0175  1.0622  2.7682
  865MOL0     H16726   9.438   9.670   2.650 -3.2538 -1.3874  0.0340
  865MOL0     H16727   9.220   9.599   2.445 -1.9852  3.3450  2.1794
  865MOL0     H16728   9.195   9.423   2.490 -1.5936  0.2120  2.4963
  865MOL0     H16729   9.198   9.655   2.690 -1.8296  0.6908 -0.4678
  865MOL0     H16730   9.197   9.482   2.729  0.2319 -0.3992 -0.2343
  865MOL0     H16731   8.967   9.583   2.734 -2.1936 -0.0458 -0.1122
  865MOL0     H16732   8.987   9.447   2.614 -1.9783 -0.4419  2.8404
  865MOL0     H16733   9.003   9.630   2.447 -0.0240 -6.5663  0.5414
  865MOL0     H16734   8.989   9.738   2.592  2.2470  0.5525 -2.3280
  865MOL0     H16735   8.667   9.544   2.714  2.6782 -1.2936  0.6628
  865MOL0     H16736   8.406   9.329   2.735  0.3157 -0.1545 -0.1679
  865MOL0     H16737   8.550   9.233   2.801  2.2660 -0.1491 -2.6253
  865MOL0     H16738   8.520   9.410   2.828 -2.3086  0.4868 -0.4365
  865MOL0     H16739   8.251   9.105   2.460  0.5878  0.3455  0.7831
  865MOL0     H16740   8.078   8.933   2.403 -2.7266 -0.6941  3.1529
  865MOL0     H16741   7.995   8.512   2.509  0.5970 -1.1856  0.1813
  865MOL0     H16742   8.166   8.536   2.567  0.3988  0.7442  3.6807
  865MOL0     H16743   8.072   8.610   2.774 -1.9411 -0.1586 -0.1113
  865MOL0     H16744   7.914   8.650   2.681 -1.1663  0.4532  0.4920
  865MOL0     H16745   8.039   8.379   2.733  0.9195  0.8766  0.1483
  865MOL0     H16746   7.881   8.406   2.658  0.5952  0.7567 -0.4502
  865MOL0     H16747   7.963   8.480   2.948 -1.8265  1.6469  1.6474
  865MOL0     H16748   7.791   8.480   2.894  0.7122  0.4390  0.2974
  865MOL0     H16749   7.947   8.227   2.918  0.3055 -0.4081  1.9512
  865MOL0     H16750   7.771   8.262   2.855  0.4678 -0.3809 -0.9648
  865MOL0     H16751   7.890   8.314   3.135  0.0615 -0.5908  0.1821
  865MOL0     H16752   7.720   8.322   3.099 -1.4875 -3.9789  0.3569
  865MOL0     H16753   7.904   8.089   3.116  2.1504  2.6546 -0.4479
  865MOL0     H16754   7.733   8.065   3.058 -0.0373 -0.2096  1.9009
  865MOL0     H16755   7.812   8.185   3.330 -1.9042 -0.1428  1.4679
  865MOL0     H16756   7.792   8.013   3.290  1.3397  1.3227  2.2759
  865MOL0     H16757   8.267   8.659   2.670 -3.7863  0.8632  1.1476
  865MOL0     H16758   8.475   8.814   2.698 -0.3062 -2.6948 -1.0092
  865MOL0     H16759   8.734   9.237   2.336 -0.3955 -1.1216  0.7265
  865MOL0     H16760   8.868   9.456   2.365  0.0720 -2.7631 -1.9504
  865MOL0     H16761  10.486   9.119   2.745 -0.1315  0.0382  0.9443
  865MOL0     H16762  10.560   8.924   2.840  1.6124 -1.3819 -1.1827
  865MOL0     H16763  10.838   8.536   2.946 -0.2657 -0.9443  3.6158
  865MOL0     H16764  10.864   8.311   3.040 -0.7165 -0.3082 -0.1200
  865MOL0     H16765  10.776   7.966   2.908 -0.1994  0.1315 -0.1901
  865MOL0     H16766  10.880   8.100   2.953 -0.3042  0.0384 -1.5135
  865MOL0     H16767  10.912   8.021   3.180  1.1021 -1.2664 -0.8587
  865MOL0     H16768  10.943   7.898   3.061  1.6398  0.2394  2.6703
  865MOL0     H16769  10.684   7.934   3.203 -0.1441 -0.2699 -1.1890
  865MOL0     H16770  10.805   7.834   3.282 -1.9782  0.0799  1.4436
  865MOL0     H16771  10.801   7.678   3.105  0.5973  0.9048 -0.4613
  865MOL0     H16772  10.687   7.785   3.005 -0.7495  3.5753  1.1141
  865MOL0     H16773  10.387   7.611   3.219 -0.5917  1.1400  0.8497
  865MOL0     H16774  10.492   8.188   2.905 -0.0874  0.0310 -1.5248
  865MOL0     H16775  10.442   8.451   2.839  2.0109  2.1842 -0.4231
  866MOL0     O16776   0.257   4.428   0.883 -0.4522 -0.8556 -0.2904
  866MOL0     C16777   0.263   4.306   0.885 -0.1870 -0.5617 -0.3717
  866MOL0     O16778   0.171   4.229   0.947 -0.0382  0.1565  0.5639
  866MOL0     C16779   0.066   4.285   1.021 -1.0104 -0.1946  0.0680
  866MOL0     C16780  -0.070   4.265   0.988 -0.2828  0.5287  1.6306
  866MOL0     C16781  -0.170   4.316   1.053 -0.0542 -0.0167 -0.5751
  866MOL0     C16782  -0.152   4.405   1.156  0.7495 -0.0291 -0.8640
  866MOL0     O16783  -0.265   4.459   1.214 -0.3321 -0.1408  0.1722
  866MOL0     C16784  -0.241   4.581   1.294  0.1902  0.3614  0.3767
  866MOL0     C16785  -0.378   4.618   1.370  0.5418  0.2700  0.7687
  866MOL0     C16786  -0.345   4.749   1.447 -0.9369 -1.0916 -0.0171
  866MOL0     C16787  -0.481   4.829   1.458 -1.1334 -0.6917 -1.1332
  866MOL0     C16788  -0.450   4.972   1.511  0.1683 -0.2304  0.7097
  866MOL0     C16789  -0.584   5.037   1.554  0.0718 -0.1802  0.0050
  866MOL0     C16790  -0.572   5.174   1.626  0.2382  0.4196 -1.1185
  866MOL0     C16791  -0.708   5.251   1.626  0.6268  0.0884 -0.2677
  866MOL0     N16792  -0.808   5.192   1.718  0.1632 -0.0096  0.2743
  866MOL0     C16793  -0.885   5.080   1.699 -0.3084 -0.4322  0.8545
  866MOL0     C16794  -0.968   5.071   1.802 -0.2542 -0.0581 -0.4949
  866MOL0     C16795  -1.090   4.991   1.807  0.4355  0.6380  0.0208
  866MOL0     C16796  -1.178   5.005   1.681  0.6011  0.4377 -0.0548
  866MOL0     C16797  -1.280   4.896   1.699  0.6308  1.4202 -0.4224
  866MOL0     C16798  -1.386   4.902   1.588  0.0670 -0.1993 -0.8816
  866MOL0     O16799  -1.471   4.784   1.595  0.3996 -0.5491 -0.2610
  866MOL0     C16800  -1.462   4.680   1.514 -0.3075  0.0142 -0.4345
  866MOL0     C16801  -1.464   4.561   1.581  0.3806  0.4757  1.0771
  866MOL0     C16802  -1.479   4.430   1.526  0.2951 -0.9177  0.6541
  866MOL0     C16803  -1.535   4.322   1.617 -0.4081 -0.1722  0.1568
  866MOL0     C16804  -1.448   4.420   1.390 -0.5361 -0.1644  0.3676
  866MOL0     C16805  -1.426   4.288   1.313 -0.4547  0.4647  0.0586
  866MOL0     O16806  -1.383   4.310   1.186 -0.0813  0.0820 -0.2385
  866MOL0     C16807  -1.313   4.211   1.113  0.7287  0.4311  0.3056
  866MOL0     C16808  -1.271   4.081   1.155 -0.3539  0.4195  0.7288
  866MOL0     C16809  -1.189   3.999   1.073 -0.0384 -0.8135  0.3659
  866MOL0     C16810  -1.136   4.049   0.947 -0.6110 -0.6962  1.1054
  866MOL0     O16811  -1.061   3.966   0.863  0.0690 -0.0289 -0.5808
  866MOL0     C16812  -1.114   3.942   0.728  0.0011 -0.1571  0.1642
  866MOL0     C16813  -1.010   3.982   0.631  0.0249  0.2652  0.7887
  866MOL0     C16814  -0.867   3.926   0.643 -0.1221  0.6174 -0.3387
  866MOL0     C16815  -0.870   3.773   0.626 -0.4548 -0.7141 -1.0302
  866MOL0     C16816  -0.746   3.700   0.682 -0.7274 -0.3325  0.6327
  866MOL0     C16817  -0.638   3.702   0.573 -1.5353 -0.6457 -0.1181
  866MOL0     C16818  -0.524   3.595   0.593  0.2251 -0.7760  0.3127
  866MOL0     C16819  -0.427   3.589   0.471  0.2411 -0.2547  0.5123
  866MOL0    Cl16820  -0.346   3.743   0.475 -0.5082  0.2999 -0.1152
  866MOL0     C16821  -1.177   4.174   0.907  0.1429  0.0315  0.1207
  866MOL0     C16822  -1.276   4.250   0.980  0.0007  0.5286 -0.4616
  866MOL0     O16823  -1.417   4.178   1.378 -0.1197 -0.4331 -0.0116
  866MOL0     C16824  -1.434   4.541   1.321  0.7982  0.3410  0.5841
  866MOL0     C16825  -1.448   4.663   1.381 -0.3427 -1.2528  0.3867
  866MOL0     N16826  -0.934   5.170   1.897  0.0268  0.4600  0.2671
  866MOL0     N16827  -0.843   5.240   1.844  0.7326 -0.7508  0.3464
  866MOL0     C16828  -0.022   4.424   1.206  0.1787 -0.3750 -0.2491
  866MOL0     C16829   0.091   4.366   1.137 -0.8221  0.3813  0.3577
  866MOL0     C16830   0.383   4.243   0.819  1.5455  0.4043 -0.1847
  866MOL0     C16831   0.471   4.333   0.749 -0.2900 -0.2424 -0.0235
  866MOL0     C16832   0.584   4.293   0.690  0.0130  0.7519  0.5437
  866MOL0     C16833   0.611   4.156   0.674 -0.0880 -0.5427  0.0686
  866MOL0     O16834   0.713   4.129   0.585 -0.1111 -0.3399  0.0101
  866MOL0     C16835   0.749   3.989   0.569 -0.3273  0.4414 -0.0741
  866MOL0     C16836   0.875   3.954   0.493 -0.3488 -1.0687 -0.0959
  866MOL0     C16837   0.918   3.805   0.500  0.0511 -0.6562  0.0011
  866MOL0     C16838   1.001   3.783   0.627 -0.3724  0.5493  0.6023
  866MOL0     C16839   1.057   3.643   0.617  0.2981  1.1805  0.0324
  866MOL0     C16840   1.100   3.527   0.618  0.4126 -0.9444 -0.2600
  866MOL0     C16841   0.533   4.056   0.750 -0.8613 -0.1566 -0.3089
  866MOL0     C16842   0.422   4.104   0.818  0.3245 -0.3952 -1.2238
  866MOL0     H16843  -0.092   4.209   0.898 -2.1944  1.7402  1.2936
  866MOL0     H16844  -0.273   4.312   1.019 -1.6467  4.2796  2.8716
  866MOL0     H16845  -0.166   4.561   1.371 -0.1605  0.5432  0.7716
  866MOL0     H16846  -0.211   4.670   1.237  0.1551  0.8986  1.1817
  866MOL0     H16847  -0.467   4.640   1.310  1.0890  1.4159  0.3480
  866MOL0     H16848  -0.409   4.537   1.437 -1.0936  0.7158  0.5942
  866MOL0     H16849  -0.302   4.731   1.546  1.8933 -1.0486 -1.1315
  866MOL0     H16850  -0.275   4.813   1.392 -1.1429  0.0267  0.9808
  866MOL0     H16851  -0.527   4.841   1.359 -0.2350 -0.2144 -1.5038
  866MOL0     H16852  -0.559   4.770   1.507 -2.5772 -0.5370 -3.0914
  866MOL0     H16853  -0.394   4.967   1.604  0.9838  1.5127  0.3670
  866MOL0     H16854  -0.402   5.029   1.431  0.2784 -3.9799 -2.1758
  866MOL0     H16855  -0.640   5.041   1.461  1.0529  1.3189 -0.5491
  866MOL0     H16856  -0.634   4.968   1.622 -1.1750 -1.1203 -1.7848
  866MOL0     H16857  -0.538   5.151   1.727 -0.9021 -0.3376 -0.8873
  866MOL0     H16858  -0.498   5.232   1.570  1.0171  0.5713  0.0408
  866MOL0     H16859  -0.745   5.256   1.524 -1.3210 -2.5258  0.1804
  866MOL0     H16860  -0.685   5.353   1.657 -0.0730 -0.0130  0.6346
  866MOL0     H16861  -0.890   5.025   1.605  0.5880 -0.1637  0.6428
  866MOL0     H16862  -1.041   4.893   1.803  1.6070  1.2238 -0.6355
  866MOL0     H16863  -1.141   5.004   1.903  2.8138  2.0899  1.1757
  866MOL0     H16864  -1.121   4.988   1.589 -1.5898 -0.5245 -1.3130
  866MOL0     H16865  -1.226   5.103   1.678 -2.0438 -0.7348  0.8777
  866MOL0     H16866  -1.335   4.907   1.793 -1.7557  1.6378 -1.7485
  866MOL0     H16867  -1.236   4.797   1.688 -0.9746  0.5197  0.7409
  866MOL0     H16868  -1.342   4.906   1.488 -1.1815 -2.8771 -1.6346
  866MOL0     H16869  -1.458   4.984   1.585  1.1798  1.0000  1.7145
  866MOL0     H16870  -1.480   4.562   1.689 -1.9340  0.5269  0.7863
  866MOL0     H16871  -1.566   4.360   1.715 -2.4184  0.2363 -0.5717
  866MOL0     H16872  -1.624   4.271   1.578 -0.2379 -1.3744  1.2544
  866MOL0     H16873  -1.457   4.246   1.630  1.7713  1.8286 -0.5883
  866MOL0     H16874  -1.301   4.032   1.246  0.3783  0.7147  1.1321
  866MOL0     H16875  -1.142   3.912   1.117  2.5899 -0.6743 -1.8655
  866MOL0     H16876  -1.135   3.836   0.709 -0.2819 -0.0757  0.0279
  866MOL0     H16877  -1.214   3.980   0.710  0.0854 -0.1875 -0.3987
  866MOL0     H16878  -1.037   3.973   0.525 -1.3746  1.7963  0.9757
  866MOL0     H16879  -1.013   4.091   0.642  2.0099  0.3871  0.6034
  866MOL0     H16880  -0.842   3.964   0.743 -3.1113  1.3378  0.2235
  866MOL0     H16881  -0.809   3.978   0.566 -3.6570  3.2886 -1.5121
  866MOL0     H16882  -0.956   3.740   0.686  0.7290  3.5555  3.6934
  866MOL0     H16883  -0.888   3.749   0.521  0.0991 -0.0828 -1.2783
  866MOL0     H16884  -0.770   3.598   0.714 -0.1530 -0.4689  0.6234
  866MOL0     H16885  -0.726   3.754   0.775 -0.5043 -2.5001  1.9092
  866MOL0     H16886  -0.679   3.675   0.475  3.3664  0.6639 -2.8658
  866MOL0     H16887  -0.598   3.803   0.564 -2.4949 -0.2986 -0.6589
  866MOL0     H16888  -0.569   3.496   0.604 -1.0884 -0.1110  1.0647
  866MOL0     H16889  -0.470   3.614   0.686  2.0382 -1.6501 -0.4979
  866MOL0     H16890  -0.472   3.579   0.372  1.0500  2.0871 -0.1482
  866MOL0     H16891  -0.354   3.509   0.490  2.8914  1.9795  0.3667
  866MOL0     H16892  -1.162   4.226   0.813 -1.1227  2.3660  1.1116
  866MOL0     H16893  -1.300   4.348   0.938  0.6439  0.8442 -0.1030
  866MOL0     H16894  -1.417   4.551   1.214  3.5900  4.2992  1.2016
  866MOL0     H16895  -1.432   4.749   1.317 -0.3513 -2.1309 -0.8426
  866MOL0     H16896  -0.002   4.490   1.289 -1.9990 -1.1405  0.9596
  866MOL0     H16897   0.194   4.378   1.168 -0.0831 -1.0593 -1.3835
  866MOL0     H16898   0.457   4.439   0.769 -2.3300 -0.6442  0.9303
  866MOL0     H16899   0.637   4.367   0.630 -0.8820  1.0248  0.0676
  866MOL0     H16900   0.761   3.945   0.669 -3.0434 -0.1684  0.0746
  866MOL0     H16901   0.668   3.941   0.513  1.4322  0.3135 -2.6663
  866MOL0     H16902   0.953   4.008   0.547  0.0549 -2.9944  1.3801
  866MOL0     H16903   0.872   3.978   0.387 -1.1904  0.8533  0.3249
  866MOL0     H16904   0.966   3.771   0.408 -1.0799  1.0627 -1.2862
  866MOL0     H16905   0.819   3.761   0.517 -0.4407  1.0793  1.9856
  866MOL0     H16906   0.943   3.800   0.718 -3.9782 -0.0266 -1.4197
  866MOL0     H16907   1.092   3.845   0.626  0.7264 -0.6256  5.0073
  866MOL0     H16908   1.156   3.436   0.616  0.1948 -1.0687 -1.3209
  866MOL0     H16909   0.558   3.951   0.743 -0.5383 -0.0719 -0.4257
  866MOL0     H16910   0.344   4.039   0.857 -2.7323  2.6191 -1.8446
  867MOL0     O16911   8.817  10.373   6.637 -0.2661  0.4173  0.6773
  867MOL0     C16912   8.931  10.419   6.646 -0.3732  0.9185  0.1397
  867MOL0     O16913   8.967  10.521   6.732 -0.0934  0.0226 -0.1809
  867MOL0     C16914   8.872  10.574   6.803 -0.5063  0.6527 -0.4160
  867MOL0     C16915   8.798  10.500   6.891 -0.9715 -0.0070  0.1425
  867MOL0     C16916   8.696  10.550   6.974 -0.8359 -0.5276  0.3027
  867MOL0     C16917   8.672  10.692   6.969 -0.9218  0.7006 -0.3315
  867MOL0     O16918   8.592  10.767   7.052  0.5196 -0.3731  0.6569
  867MOL0     C16919   8.525  10.699   7.152 -0.2113  0.1919 -0.3791
  867MOL0     C16920   8.452  10.784   7.266 -0.5569 -0.5608  0.0766
  867MOL0     C16921   8.331  10.868   7.222 -0.3294 -0.4503 -0.3413
  867MOL0     C16922   8.256  10.936   7.347  0.3625 -0.1712  0.1151
  867MOL0     C16923   8.148  11.033   7.312  0.6798 -0.9921  0.5388
  867MOL0     C16924   8.004  10.989   7.263  0.4428  0.4261 -0.0607
  867MOL0     C16925   7.903  11.107   7.269 -0.7648 -0.1404  0.0423
  867MOL0     C16926   7.766  11.055   7.203 -0.3528 -0.5922 -0.5988
  867MOL0     N16927   7.653  11.149   7.214 -0.0234  0.2220 -0.3192
  867MOL0     C16928   7.658  11.282   7.238  0.2611  0.0820 -0.3046
  867MOL0     C16929   7.528  11.319   7.250 -0.2991 -0.7427 -0.0177
  867MOL0     C16930   7.489  11.468   7.271  0.0438  0.3347  0.5646
  867MOL0     C16931   7.337  11.475   7.300  0.0638 -0.2835 -0.5134
  867MOL0     C16932   7.277  11.616   7.331 -2.1208  0.3513 -0.8911
  867MOL0     C16933   7.130  11.611   7.344 -0.6777 -0.1696 -0.6833
  867MOL0     O16934   7.077  11.581   7.472  0.1162 -0.3397  0.2504
  867MOL0     C16935   6.944  11.607   7.501  0.1168  0.1341 -0.2121
  867MOL0     C16936   6.844  11.636   7.405 -0.8154  0.0623  0.5299
  867MOL0     C16937   6.707  11.659   7.448 -0.4243 -0.9618  0.1634
  867MOL0     C16938   6.601  11.694   7.342  0.1808 -0.3690  0.0871
  867MOL0     C16939   6.676  11.643   7.579 -0.0741  0.0436 -0.1076
  867MOL0     C16940   6.540  11.654   7.637  0.4573  0.7527  0.2449
  867MOL0     O16941   6.535  11.728   7.751 -0.0369  0.2580  0.0756
  867MOL0     C16942   6.443  11.689   7.844 -0.5451  0.1311  0.5712
  867MOL0     C16943   6.417  11.568   7.898 -0.7514  0.1195  0.5068
  867MOL0     C16944   6.306  11.542   7.976 -0.0925 -0.4816 -0.7728
  867MOL0     C16945   6.196  11.629   7.980 -0.0044 -0.1818 -0.5540
  867MOL0     O16946   6.073  11.608   8.036  0.0605  0.2653 -0.0828
  867MOL0     C16947   6.057  11.520   8.147  0.1704 -0.5820 -0.0829
  867MOL0     C16948   5.924  11.541   8.225 -0.9021  0.7064  0.7070
  867MOL0     C16949   5.798  11.526   8.143  0.0886 -0.4666  0.4660
  867MOL0     C16950   5.755  11.378   8.110 -0.4043  0.7744 -0.3265
  867MOL0     C16951   5.613  11.382   8.044  0.3100  0.7653 -0.2988
  867MOL0     C16952   5.505  11.385   8.151  1.3243  0.2501 -0.6436
  867MOL0     C16953   5.493  11.259   8.242 -0.0490 -0.5500  0.0076
  867MOL0     C16954   5.358  11.265   8.319  0.5442 -0.6006 -0.4222
  867MOL0    Cl16955   5.358  11.111   8.402 -0.0129  0.2253 -0.0850
  867MOL0     C16956   6.219  11.758   7.925  0.2690  0.0807  0.5472
  867MOL0     C16957   6.343  11.785   7.865  0.9531  0.6838  0.8626
  867MOL0     O16958   6.445  11.610   7.575 -0.1894  0.6706  0.3873
  867MOL0     C16959   6.780  11.602   7.672  0.4388 -0.4667 -0.4636
  867MOL0     C16960   6.910  11.597   7.635 -0.4432  0.8677  0.4088
  867MOL0     N16961   7.444  11.207   7.260  0.3731  0.4786 -0.4904
  867MOL0     N16962   7.530  11.108   7.241  0.5647  0.5150 -1.0998
  867MOL0     C16963   8.752  10.767   6.886  0.5575 -0.4553  0.3830
  867MOL0     C16964   8.849  10.705   6.804 -0.0178 -0.8556  0.8811
  867MOL0     C16965   9.035  10.371   6.550  0.2379  0.4320 -0.3088
  867MOL0     C16966   9.000  10.285   6.446  0.7197  0.4736  0.7113
  867MOL0     C16967   9.092  10.217   6.369  0.6139 -0.2192  0.0817
  867MOL0     C16968   9.229  10.251   6.371 -0.3161 -0.4680  0.1741
  867MOL0     O16969   9.324  10.212   6.281 -0.5610  0.9876 -0.1311
  867MOL0     C16970   9.298  10.103   6.185 -0.8069 -0.0884  0.2185
  867MOL0     C16971   9.425  10.079   6.108 -0.9411 -0.4545  1.4051
  867MOL0     C16972   9.520  10.002   6.187 -0.2559  0.7484  0.1337
  867MOL0     C16973   9.497   9.854   6.157 -0.0491  0.4672 -0.2618
  867MOL0     C16974   9.546   9.777   6.272  0.0094  0.7885  0.0765
  867MOL0     C16975   9.591   9.736   6.378 -0.1549  1.2592 -0.0858
  867MOL0     C16976   9.263  10.344   6.469 -0.5466  0.0165 -0.4382
  867MOL0     C16977   9.170  10.404   6.560  0.3388  0.5314  0.8041
  867MOL0     H16978   8.817  10.393   6.899 -2.1126 -0.1200  1.9841
  867MOL0     H16979   8.635  10.483   7.034 -3.0511 -0.0502 -1.2840
  867MOL0     H16980   8.446  10.635   7.112 -1.1035  0.9163  0.2084
  867MOL0     H16981   8.590  10.630   7.208  0.6140  1.9304  0.8987
  867MOL0     H16982   8.409  10.711   7.336 -3.2225  0.0073 -0.8333
  867MOL0     H16983   8.527  10.846   7.316 -0.4015 -2.2430  2.0735
  867MOL0     H16984   8.370  10.940   7.150  1.4067 -0.6391  0.3532
  867MOL0     H16985   8.263  10.799   7.172 -0.8846  0.3251 -0.6697
  867MOL0     H16986   8.217  10.852   7.406 -2.5335  1.5834  0.8898
  867MOL0     H16987   8.334  10.989   7.402  0.2978 -1.6862  1.7763
  867MOL0     H16988   8.117  11.102   7.391 -0.4180 -0.7514 -0.0791
  867MOL0     H16989   8.185  11.104   7.238  0.2671  1.0576  2.2089
  867MOL0     H16990   8.000  10.945   7.163 -2.3227  2.8613 -1.1839
  867MOL0     H16991   7.974  10.908   7.329  2.0583 -0.5743 -0.5006
  867MOL0     H16992   7.876  11.135   7.372 -1.7572 -0.9882  0.0364
  867MOL0     H16993   7.956  11.190   7.222 -0.9930  0.4131  0.7379
  867MOL0     H16994   7.733  10.957   7.239  2.6790 -2.9354 -3.5220
  867MOL0     H16995   7.794  11.031   7.100  0.2728 -2.8742  0.0393
  867MOL0     H16996   7.742  11.350   7.240  0.6654 -0.3405 -1.7000
  867MOL0     H16997   7.554  11.500   7.354  0.4445  0.7343  0.1000
  867MOL0     H16998   7.517  11.518   7.178  2.9111 -1.3918  0.3688
  867MOL0     H16999   7.312  11.406   7.381 -0.1577 -0.6882 -0.9202
  867MOL0     H17000   7.293  11.443   7.205 -2.0070  2.0450 -0.4390
  867MOL0     H17001   7.317  11.697   7.269 -0.4142  3.2789  3.5285
  867MOL0     H17002   7.314  11.644   7.430  0.2427 -1.2595 -1.2285
  867MOL0     H17003   7.092  11.540   7.270  0.2547 -2.2264  0.7494
  867MOL0     H17004   7.092  11.709   7.313  0.3865  1.4084  2.5177
  867MOL0     H17005   6.869  11.637   7.299  0.0902 -2.1096  0.6748
  867MOL0     H17006   6.578  11.801   7.334 -4.2141 -1.2287 -1.5017
  867MOL0     H17007   6.650  11.671   7.247  0.0293  0.0438 -0.0936
  867MOL0     H17008   6.507  11.639   7.350 -0.6483  1.1886  1.7561
  867MOL0     H17009   6.493  11.491   7.893  1.4121  2.1514  0.4931
  867MOL0     H17010   6.298  11.438   8.004  1.4252 -0.2143  0.8150
  867MOL0     H17011   6.062  11.420   8.104 -0.3701 -0.0339 -1.5044
  867MOL0     H17012   6.140  11.540   8.215 -1.3222 -0.9174  1.9257
  867MOL0     H17013   5.921  11.490   8.321  2.0091 -0.5070  0.2927
  867MOL0     H17014   5.926  11.648   8.249 -0.3263  1.0636 -0.7552
  867MOL0     H17015   5.813  11.579   8.049  0.7763  0.5645  1.1432
  867MOL0     H17016   5.719  11.583   8.194 -0.2135  0.7327 -1.2578
  867MOL0     H17017   5.835  11.336   8.049 -0.8851  0.6479 -0.8763
  867MOL0     H17018   5.750  11.313   8.198 -3.2190 -1.3412 -1.8641
  867MOL0     H17019   5.599  11.286   7.993 -0.9808  0.3515  0.7853
  867MOL0     H17020   5.598  11.455   7.964  1.7448  3.2062  1.5149
  867MOL0     H17021   5.515  11.465   8.225 -2.9915 -1.6871  2.4713
  867MOL0     H17022   5.410  11.405   8.102 -1.1546  0.0662  3.5405
  867MOL0     H17023   5.580  11.261   8.309  1.4506  0.5125 -1.8638
  867MOL0     H17024   5.504  11.165   8.186 -0.5055  0.6110 -2.1372
  867MOL0     H17025   5.267  11.282   8.262  0.4942 -1.8736 -0.7521
  867MOL0     H17026   5.349  11.335   8.403 -2.2465 -1.6874  0.2802
  867MOL0     H17027   6.150  11.843   7.926 -1.8706 -1.3654  5.0501
  867MOL0     H17028   6.354  11.887   7.828  2.7961  0.1676 -0.1731
  867MOL0     H17029   6.754  11.555   7.766 -1.2395 -2.4190 -1.7976
  867MOL0     H17030   6.992  11.572   7.702  0.4605  1.2283 -0.5261
  867MOL0     H17031   8.730  10.873   6.870 -0.9766 -1.2382 -4.2320
  867MOL0     H17032   8.911  10.774   6.747 -2.7915  0.6375 -0.5219
  867MOL0     H17033   8.901  10.253   6.416  0.7320  0.2095  0.9432
  867MOL0     H17034   9.062  10.148   6.290  0.0049  0.0154  0.1020
  867MOL0     H17035   9.266  10.010   6.233 -1.7119  0.6814  1.1427
  867MOL0     H17036   9.217  10.136   6.120  0.5637 -0.6640 -1.8897
  867MOL0     H17037   9.471  10.172   6.076 -1.1411 -0.0243  2.3488
  867MOL0     H17038   9.394  10.028   6.016 -2.0932 -0.5266  1.8089
  867MOL0     H17039   9.519  10.019   6.295  1.2098 -1.8310  0.6433
  867MOL0     H17040   9.623  10.031   6.161  0.8120 -0.7049  2.3485
  867MOL0     H17041   9.540   9.825   6.061  0.8883  2.5572 -0.5241
  867MOL0     H17042   9.389   9.839   6.146  0.2134 -0.2355 -2.2440
  867MOL0     H17043   9.614   9.711   6.479  0.4699  0.0146 -0.5212
  867MOL0     H17044   9.368  10.373   6.466  0.1785 -2.3508 -3.4687
  867MOL0     H17045   9.204  10.474   6.636  1.6880  1.8058 -0.8717
  868MOL0     O17046   0.925   9.298   8.138 -0.0757  0.0532 -0.3188
  868MOL0     C17047   0.945   9.393   8.211 -0.2736 -0.4710  0.1460
  868MOL0     O17048   1.065   9.449   8.244 -0.1628  0.4207  0.7075
  868MOL0     C17049   1.179   9.419   8.171 -0.0109 -0.2914  0.3077
  868MOL0     C17050   1.300   9.474   8.216  0.6110 -0.9353  0.5012
  868MOL0     C17051   1.421   9.443   8.154  0.2496  0.1390  0.0510
  868MOL0     C17052   1.424   9.362   8.040 -0.0321  0.3662 -0.4394
  868MOL0     O17053   1.536   9.332   7.977  0.4235  0.2731  0.7104
  868MOL0     C17054   1.662   9.393   8.010  0.6613  0.2170  0.4258
  868MOL0     C17055   1.751   9.382   7.886  0.3829  0.2231 -0.0203
  868MOL0     C17056   1.890   9.417   7.933 -0.1745  0.6819 -0.1242
  868MOL0     C17057   1.996   9.403   7.819 -0.0894 -0.2154 -0.4454
  868MOL0     C17058   2.135   9.402   7.879  1.2073  0.0342  0.3692
  868MOL0     C17059   2.245   9.369   7.778 -0.9215 -0.3853 -0.3760
  868MOL0     C17060   2.384   9.334   7.847  0.5473 -1.2946 -0.6915
  868MOL0     C17061   2.387   9.194   7.886  0.1777 -0.5003 -0.5368
  868MOL0     N17062   2.445   9.104   7.782 -0.2653  0.1559  0.5091
  868MOL0     C17063   2.518   8.984   7.798  1.0519 -0.8575  0.1248
  868MOL0     C17064   2.553   8.944   7.672 -0.4478 -0.1613 -0.0297
  868MOL0     C17065   2.636   8.826   7.628 -0.2025  0.7753  0.6444
  868MOL0     C17066   2.785   8.833   7.662  0.4601 -0.5896  0.3930
  868MOL0     C17067   2.853   8.708   7.601 -0.2057  0.6207  0.9160
  868MOL0     C17068   2.999   8.674   7.647  1.4289 -0.4781  0.2666
  868MOL0     O17069   3.076   8.787   7.680  0.0512 -0.2976 -0.5132
  868MOL0     C17070   3.143   8.783   7.793 -0.3134 -0.0691 -1.1718
  868MOL0     C17071   3.280   8.751   7.797  0.2157  0.0543 -0.6616
  868MOL0     C17072   3.347   8.740   7.921  0.4724 -0.3559 -0.5614
  868MOL0     C17073   3.488   8.695   7.909  0.4459 -0.3053  0.6360
  868MOL0     C17074   3.272   8.763   8.044 -0.0559 -1.1126  0.7528
  868MOL0     C17075   3.337   8.739   8.177 -0.6919 -0.4780 -0.0630
  868MOL0     O17076   3.253   8.739   8.280 -0.1069  0.1886  0.4206
  868MOL0     C17077   3.302   8.662   8.383  0.0067 -0.5015  0.2355
  868MOL0     C17078   3.331   8.520   8.377  0.2024  0.0534 -0.0216
  868MOL0     C17079   3.357   8.438   8.479  0.1520 -0.3127 -1.3626
  868MOL0     C17080   3.374   8.492   8.612  0.1623  0.1493  0.9014
  868MOL0     O17081   3.404   8.405   8.705 -0.7071  1.2833 -0.1004
  868MOL0     C17082   3.435   8.437   8.843 -0.2915 -0.4840 -0.5151
  868MOL0     C17083   3.502   8.313   8.918 -0.5009  1.4549  0.0011
  868MOL0     C17084   3.647   8.291   8.871 -0.7888 -0.1569 -0.7767
  868MOL0     C17085   3.717   8.164   8.945  0.7879 -0.0581 -0.3443
  868MOL0     C17086   3.696   8.027   8.879 -0.0461 -0.0697  0.1791
  868MOL0     C17087   3.799   7.914   8.901  0.5594 -0.1354 -0.2096
  868MOL0     C17088   3.831   7.901   9.052 -1.0041  0.6232  0.6093
  868MOL0     C17089   3.903   7.770   9.081  0.2717 -0.3797 -0.5046
  868MOL0    Cl17090   3.795   7.644   9.144  0.0574  0.5275  0.2356
  868MOL0     C17091   3.346   8.630   8.629  0.3669 -0.2736  0.3053
  868MOL0     C17092   3.320   8.723   8.510 -1.3406  0.4872 -0.5067
  868MOL0     O17093   3.458   8.703   8.191  0.0441 -0.2733  0.4843
  868MOL0     C17094   3.141   8.815   8.030  0.1618 -0.2683 -0.8268
  868MOL0     C17095   3.077   8.830   7.903 -0.3853 -0.5118  0.3272
  868MOL0     N17096   2.484   9.031   7.581 -0.0779  0.7026  0.4187
  868MOL0     N17097   2.415   9.113   7.652  0.0142 -1.1340 -0.1790
  868MOL0     C17098   1.301   9.318   7.977  0.1491 -0.0359 -1.4513
  868MOL0     C17099   1.176   9.343   8.047 -0.3278 -0.6303 -0.3182
  868MOL0     C17100   0.829   9.439   8.290  0.2415  0.9324  0.3141
  868MOL0     C17101   0.840   9.553   8.376  0.6197 -0.5371  0.7251
  868MOL0     C17102   0.734   9.577   8.467 -0.4006 -0.1901  0.3004
  868MOL0     C17103   0.619   9.499   8.472 -0.4175 -0.3587  0.6246
  868MOL0     O17104   0.511   9.518   8.556 -0.5516 -0.9920 -0.5884
  868MOL0     C17105   0.486   9.656   8.607  0.0874  1.3758 -0.2903
  868MOL0     C17106   0.332   9.689   8.592  0.9651  0.3484  0.3056
  868MOL0     C17107   0.287   9.670   8.446 -1.2273  0.1765 -0.2954
  868MOL0     C17108   0.144   9.704   8.414 -0.4894  0.4368  0.4726
  868MOL0     C17109   0.127   9.708   8.272 -0.7063  0.4537 -0.8365
  868MOL0     C17110   0.121   9.708   8.157  0.3805 -0.6883  0.2064
  868MOL0     C17111   0.610   9.397   8.379  0.3424  0.1951 -0.0095
  868MOL0     C17112   0.709   9.360   8.289 -0.6949 -0.2557  0.5570
  868MOL0     H17113   1.306   9.526   8.311  2.4149 -1.3362  0.6406
  868MOL0     H17114   1.510   9.484   8.201 -0.6698  1.5068  0.6631
  868MOL0     H17115   1.646   9.496   8.043  1.1437  0.4032  0.0907
  868MOL0     H17116   1.696   9.336   8.097 -1.3691 -1.7979  0.0089
  868MOL0     H17117   1.757   9.283   7.841 -0.1248 -0.1457  0.7187
  868MOL0     H17118   1.714   9.453   7.810  1.9616  3.1824  1.7929
  868MOL0     H17119   1.893   9.509   7.991 -1.1274 -1.1865  3.1564
  868MOL0     H17120   1.917   9.340   8.006 -1.1494 -1.1390 -1.5836
  868MOL0     H17121   1.966   9.318   7.756 -2.1314 -1.0298  1.5001
  868MOL0     H17122   1.995   9.485   7.746  4.0120  0.3361 -0.1444
  868MOL0     H17123   2.156   9.501   7.922 -0.0722  1.8872 -2.9438
  868MOL0     H17124   2.143   9.328   7.959 -2.3169 -0.8644  0.0468
  868MOL0     H17125   2.221   9.277   7.724  0.6923 -0.2532 -1.3916
  868MOL0     H17126   2.255   9.455   7.710  2.4026 -1.6902 -1.7744
  868MOL0     H17127   2.469   9.347   7.779 -0.0822 -0.0735 -1.2628
  868MOL0     H17128   2.390   9.404   7.931  1.2793 -1.6690 -0.4245
  868MOL0     H17129   2.289   9.157   7.918  0.2577 -0.5915 -0.3974
  868MOL0     H17130   2.451   9.185   7.974 -3.2048 -2.1724  1.9602
  868MOL0     H17131   2.540   8.926   7.887 -1.8777  0.5835  1.9196
  868MOL0     H17132   2.598   8.736   7.676 -0.6321 -0.3747 -1.7088
  868MOL0     H17133   2.628   8.803   7.521  0.4382  1.0931  0.5219
  868MOL0     H17134   2.808   8.833   7.769  3.7997  0.1962 -0.2000
  868MOL0     H17135   2.823   8.933   7.636  1.1375 -0.2926  2.3517
  868MOL0     H17136   2.855   8.722   7.493  0.0527 -2.3545  0.4407
  868MOL0     H17137   2.799   8.614   7.617 -1.8586  0.8655 -2.4118
  868MOL0     H17138   3.052   8.621   7.567 -0.5283 -2.8858  0.4731
  868MOL0     H17139   2.982   8.608   7.732 -3.4545 -1.1023 -0.8778
  868MOL0     H17140   3.322   8.731   7.699  0.0635  1.5619 -1.0605
  868MOL0     H17141   3.524   8.697   7.805  2.8651  2.2555  1.4088
  868MOL0     H17142   3.557   8.757   7.967 -0.0498  0.9986 -0.1038
  868MOL0     H17143   3.493   8.591   7.941  0.9998 -0.9999 -1.5488
  868MOL0     H17144   3.334   8.468   8.282 -2.9217 -0.0469 -0.1637
  868MOL0     H17145   3.386   8.339   8.443  4.1164  0.8259 -1.7378
  868MOL0     H17146   3.500   8.525   8.855 -0.1817 -0.6183 -0.1242
  868MOL0     H17147   3.344   8.464   8.896  1.1947  3.8031  0.3127
  868MOL0     H17148   3.509   8.336   9.024 -0.6550  1.2265  0.0579
  868MOL0     H17149   3.450   8.217   8.916  1.4371  0.2701  2.1151
  868MOL0     H17150   3.707   8.379   8.896 -0.9642  0.3469 -2.0288
  868MOL0     H17151   3.648   8.282   8.761 -1.1581 -1.4742 -0.6890
  868MOL0     H17152   3.824   8.186   8.946  0.1248  3.7870 -0.4815
  868MOL0     H17153   3.682   8.172   9.048 -0.7174 -0.6014 -0.7813
  868MOL0     H17154   3.666   8.043   8.775 -0.7622 -2.4276 -0.0453
  868MOL0     H17155   3.594   7.988   8.894 -0.3784 -0.7436 -3.0313
  868MOL0     H17156   3.746   7.822   8.875 -2.1236  0.4992  2.4886
  868MOL0     H17157   3.882   7.933   8.832  0.9318 -0.7308  0.0697
  868MOL0     H17158   3.746   7.926   9.116 -3.1725 -1.5886 -1.1995
  868MOL0     H17159   3.911   7.974   9.072  0.5008  0.1284 -2.8985
  868MOL0     H17160   3.985   7.783   9.153 -0.1014  0.7988 -0.2666
  868MOL0     H17161   3.959   7.738   8.993 -2.6594  1.1166 -3.0923
  868MOL0     H17162   3.344   8.667   8.731 -0.8101 -1.9550  0.9455
  868MOL0     H17163   3.293   8.828   8.517 -3.0557  0.1241 -1.0515
  868MOL0     H17164   3.067   8.840   8.105 -0.5727  0.2469 -1.6911
  868MOL0     H17165   2.974   8.863   7.889 -0.0370 -0.6395 -3.9741
  868MOL0     H17166   1.301   9.268   7.882  2.2316 -1.0274 -0.9775
  868MOL0     H17167   1.096   9.301   7.988  1.6437 -1.4293 -2.6122
  868MOL0     H17168   0.917   9.629   8.385 -1.6237  2.0006  0.0453
  868MOL0     H17169   0.752   9.651   8.544 -0.1216 -1.3486  1.3973
  868MOL0     H17170   0.501   9.652   8.716 -1.3207  0.1940 -0.1092
  868MOL0     H17171   0.553   9.734   8.569  2.8083 -0.4630  0.4752
  868MOL0     H17172   0.304   9.789   8.626 -0.6910 -1.0895  3.7045
  868MOL0     H17173   0.266   9.623   8.649 -1.3157  0.7643 -1.6838
  868MOL0     H17174   0.296   9.565   8.419  0.2452  0.1174  0.3154
  868MOL0     H17175   0.366   9.718   8.389 -0.3208 -1.6031 -0.5919
  868MOL0     H17176   0.109   9.797   8.458  0.9233  0.9662  0.5311
  868MOL0     H17177   0.082   9.623   8.454  0.6886  0.7857  3.1758
  868MOL0     H17178   0.117   9.714   8.050 -4.4325  0.3185  0.2285
  868MOL0     H17179   0.522   9.334   8.372 -1.1793  2.4006 -3.1477
  868MOL0     H17180   0.697   9.269   8.230 -2.6972 -0.9023  1.8545
  869MOL0     O17181   4.811  10.824   7.617  0.4138 -1.2087 -0.1609
  869MOL0     C17182   4.705  10.873   7.576 -0.1975 -0.0128 -0.3590
  869MOL0     O17183   4.595  10.797   7.549  0.2800 -0.4859 -0.2904
  869MOL0     C17184   4.608  10.661   7.549 -0.5651 -0.3792  0.9702
  869MOL0     C17185   4.695  10.570   7.477  0.0828  0.2770 -0.2709
  869MOL0     C17186   4.682  10.428   7.486 -0.5369 -0.9011  0.2147
  869MOL0     C17187   4.589  10.372   7.566  0.0129  0.4804  0.7765
  869MOL0     O17188   4.537  10.240   7.547 -0.1780 -0.7449  0.0088
  869MOL0     C17189   4.568  10.163   7.429 -0.1686 -0.0220 -0.1721
  869MOL0     C17190   4.491  10.024   7.413  0.3742 -0.5086 -0.6551
  869MOL0     C17191   4.419   9.992   7.544 -0.5885  0.1201  0.1355
  869MOL0     C17192   4.345   9.864   7.538 -0.1479  0.0756 -0.4066
  869MOL0     C17193   4.290   9.794   7.667  0.4395 -0.0886  0.1995
  869MOL0     C17194   4.190   9.885   7.742  0.4089  0.0905 -0.5120
  869MOL0     C17195   4.100   9.814   7.840 -0.2299 -0.4173 -1.3774
  869MOL0     C17196   4.188   9.791   7.968 -0.5494 -0.4987 -0.3783
  869MOL0     N17197   4.105   9.758   8.086 -0.0391 -0.0091 -0.0398
  869MOL0     C17198   4.036   9.858   8.149 -1.5016  0.1294  0.0872
  869MOL0     C17199   3.948   9.792   8.231  0.1485 -0.4051 -0.6361
  869MOL0     C17200   3.856   9.837   8.332  0.1673 -0.1346 -0.1362
  869MOL0     C17201   3.724   9.872   8.257  0.1772  0.4681  0.1012
  869MOL0     C17202   3.620   9.927   8.355  0.3359  0.3385  0.6043
  869MOL0     C17203   3.494   9.987   8.285  0.1530 -0.1052  0.0971
  869MOL0     O17204   3.390   9.884   8.249  0.2765  0.1006  0.4946
  869MOL0     C17205   3.313   9.829   8.342  0.7848  0.3433 -0.3161
  869MOL0     C17206   3.242   9.711   8.306  0.5915 -0.4819 -0.4582
  869MOL0     C17207   3.167   9.637   8.406 -0.5699 -0.5981 -0.1259
  869MOL0     C17208   3.096   9.511   8.358 -1.0313  1.0041  0.0815
  869MOL0     C17209   3.166   9.672   8.542 -0.7333 -0.1224 -0.0020
  869MOL0     C17210   3.094   9.603   8.652  0.4982 -0.8824  0.7274
  869MOL0     O17211   3.092   9.674   8.763  1.2102  0.3792  0.1655
  869MOL0     C17212   3.053   9.615   8.883  0.3685  0.1626  0.8993
  869MOL0     C17213   2.972   9.689   8.969  0.6227  1.1297 -0.5855
  869MOL0     C17214   2.946   9.636   9.095  0.2999  0.4393 -0.3161
  869MOL0     C17215   2.990   9.511   9.136  0.5850 -0.1752  0.4757
  869MOL0     O17216   2.949   9.471   9.261  0.1391  0.3377 -0.2355
  869MOL0     C17217   3.046   9.398   9.335  0.0002  0.2893  0.2042
  869MOL0     C17218   3.118   9.487   9.449 -0.1536  0.9048  1.0127
  869MOL0     C17219   3.039   9.511   9.580 -0.1003 -0.2594  0.1795
  869MOL0     C17220   3.033   9.383   9.657  0.2801 -0.5886  0.3557
  869MOL0     C17221   2.904   9.381   9.740  0.3702 -0.6930 -0.3946
  869MOL0     C17222   2.891   9.259   9.832 -0.1644  0.3020  0.1861
  869MOL0     C17223   2.753   9.248   9.891 -0.7429  0.4625  0.0671
  869MOL0     C17224   2.726   9.109   9.945  0.8539 -0.6561  0.5027
  869MOL0    Cl17225   2.811   9.103  10.092 -0.0334 -0.1058 -0.1842
  869MOL0     C17226   3.074   9.444   9.046  0.0154  0.3368 -0.2498
  869MOL0     C17227   3.113   9.489   8.921  0.0955 -0.0797  0.6470
  869MOL0     O17228   3.042   9.493   8.647  0.3161  0.0540 -1.3013
  869MOL0     C17229   3.234   9.793   8.572 -0.4121  0.6376 -0.2152
  869MOL0     C17230   3.310   9.863   8.478 -0.3733  0.3007  0.1238
  869MOL0     N17231   3.960   9.660   8.192  0.8856  0.4307  0.2073
  869MOL0     N17232   4.057   9.637   8.114  1.3110  1.3719 -0.3677
  869MOL0     C17233   4.513  10.455   7.651 -0.0715  0.0245  0.1504
  869MOL0     C17234   4.529  10.594   7.641 -0.5816 -0.0049 -0.5605
  869MOL0     C17235   4.708  11.023   7.560  0.8592 -0.1335 -0.4067
  869MOL0     C17236   4.809  11.091   7.491  0.4432 -1.0862 -0.6358
  869MOL0     C17237   4.811  11.230   7.491 -0.4088  0.1745 -0.5259
  869MOL0     C17238   4.715  11.311   7.546 -0.4771  0.2352  0.2676
  869MOL0     O17239   4.713  11.450   7.545 -0.4308  0.9431  0.4929
  869MOL0     C17240   4.739  11.510   7.414  1.0144 -0.1375 -0.2373
  869MOL0     C17241   4.817  11.651   7.418  0.6145 -0.0616  0.5910
  869MOL0     C17242   4.949  11.655   7.489  0.1885 -0.2823 -0.2096
  869MOL0     C17243   5.065  11.649   7.392 -1.4686 -0.2738 -0.1001
  869MOL0     C17244   5.093  11.511   7.345  0.3242  0.0764 -0.1733
  869MOL0     C17245   5.125  11.411   7.291 -0.7157 -0.3111  1.0422
  869MOL0     C17246   4.602  11.245   7.603 -0.2612  0.3718  0.8110
  869MOL0     C17247   4.609  11.106   7.615 -0.0144  0.1540  0.8265
  869MOL0     H17248   4.773  10.611   7.413 -0.6181  0.1895 -1.2022
  869MOL0     H17249   4.734  10.380   7.404 -0.5803 -0.8330  0.1483
  869MOL0     H17250   4.554  10.212   7.333  1.7218  0.0793 -0.4321
  869MOL0     H17251   4.677  10.161   7.439 -0.2449  1.8010  1.8637
  869MOL0     H17252   4.417  10.023   7.333 -2.0820 -1.8899  1.5047
  869MOL0     H17253   4.575   9.954   7.404  2.5475  0.8259  4.9000
  869MOL0     H17254   4.497   9.986   7.621 -0.5890  1.7568  0.3046
  869MOL0     H17255   4.345  10.068   7.568 -2.1398 -1.2324 -0.1988
  869MOL0     H17256   4.257   9.884   7.477  1.0614  0.1612 -2.1983
  869MOL0     H17257   4.408   9.796   7.480  1.2665  0.7494  0.2880
  869MOL0     H17258   4.243   9.704   7.626 -0.5072  1.6807 -2.9019
  869MOL0     H17259   4.367   9.754   7.735 -1.5461  2.5907  4.4774
  869MOL0     H17260   4.225   9.974   7.794  3.1285 -1.1041 -0.1264
  869MOL0     H17261   4.126   9.911   7.656  3.4900 -1.0926 -3.3927
  869MOL0     H17262   4.014   9.880   7.857  0.8466  0.9359 -1.0183
  869MOL0     H17263   4.066   9.718   7.800 -2.4945 -1.2144  2.0521
  869MOL0     H17264   4.236   9.887   7.990 -1.1893 -0.0156 -1.0340
  869MOL0     H17265   4.263   9.714   7.950 -2.3521 -1.9299 -2.1864
  869MOL0     H17266   4.048   9.965   8.160 -0.1299 -0.1509  1.7124
  869MOL0     H17267   3.838   9.745   8.387 -0.4996 -1.2300 -2.0839
  869MOL0     H17268   3.898   9.915   8.397  2.6811 -1.5236  0.0206
  869MOL0     H17269   3.671   9.786   8.214 -0.3415  0.1632  1.3244
  869MOL0     H17270   3.749   9.949   8.183 -0.1077  1.5569  1.0989
  869MOL0     H17271   3.659  10.001   8.425 -3.1947  1.4387  1.6371
  869MOL0     H17272   3.590   9.837   8.408  1.2508 -0.2064  0.2227
  869MOL0     H17273   3.516  10.051   8.200  3.1549  0.5689  1.2565
  869MOL0     H17274   3.445  10.050   8.360 -0.6633  0.1923 -0.6690
  869MOL0     H17275   3.253   9.678   8.203  0.9487 -2.3907  0.1407
  869MOL0     H17276   3.106   9.425   8.425 -2.1789  1.3304  0.7024
  869MOL0     H17277   2.989   9.531   8.352 -2.2323 -4.1456 -1.3235
  869MOL0     H17278   3.143   9.472   8.267 -3.0197  0.0346 -0.5946
  869MOL0     H17279   2.940   9.789   8.941  0.1136  1.1372 -0.0146
  869MOL0     H17280   2.882   9.693   9.161 -1.4910  1.2374 -2.5905
  869MOL0     H17281   3.002   9.313   9.388  1.1135 -1.1248 -1.0554
  869MOL0     H17282   3.114   9.357   9.259 -2.4562 -1.2851 -1.2722
  869MOL0     H17283   3.214   9.440   9.473 -0.4989 -0.8700 -0.7692
  869MOL0     H17284   3.147   9.584   9.409 -0.8108 -0.8720 -4.7059
  869MOL0     H17285   2.936   9.539   9.558 -0.9403 -3.1671  0.0277
  869MOL0     H17286   3.078   9.594   9.640 -4.2742  0.8818  1.6576
  869MOL0     H17287   3.027   9.301   9.585 -1.2678  1.2266 -1.7098
  869MOL0     H17288   3.117   9.379   9.728 -1.3914 -1.6902  2.3693
  869MOL0     H17289   2.815   9.397   9.679  0.2011  0.3629  0.1051
  869MOL0     H17290   2.893   9.464   9.811 -1.2454 -0.1620 -1.2266
  869MOL0     H17291   2.916   9.166   9.779  1.4187  0.2654  0.9312
  869MOL0     H17292   2.964   9.264   9.913  0.7684 -0.9204 -0.5417
  869MOL0     H17293   2.679   9.278   9.816  0.3446 -0.8313 -1.5729
  869MOL0     H17294   2.752   9.319   9.974  2.1693  0.7957 -0.0917
  869MOL0     H17295   2.739   9.033   9.868 -1.7005  1.4278 -2.1880
  869MOL0     H17296   2.619   9.101   9.967  0.5262  2.7783  0.7293
  869MOL0     H17297   3.114   9.345   9.068  0.6313  0.8553  1.0132
  869MOL0     H17298   3.177   9.435   8.852 -2.3936 -0.1590 -1.7681
  869MOL0     H17299   3.236   9.846   8.666  3.8717  1.6610 -0.6872
  869MOL0     H17300   3.355   9.956   8.511 -1.3524  1.5531 -1.8920
  869MOL0     H17301   4.432  10.405   7.703  0.3266 -0.1445  0.6121
  869MOL0     H17302   4.461  10.639   7.713  0.9850 -0.3301  1.2148
  869MOL0     H17303   4.888  11.032   7.445  0.9780  0.0577 -1.1998
  869MOL0     H17304   4.906  11.270   7.456  1.3875 -1.2333  2.3404
  869MOL0     H17305   4.779  11.429   7.351 -1.3691 -0.4160 -1.5324
  869MOL0     H17306   4.642  11.530   7.368  1.2371  2.1999  0.2002
  869MOL0     H17307   4.748  11.719   7.469 -2.4216 -2.0350 -0.5938
  869MOL0     H17308   4.826  11.676   7.312 -0.2083 -0.4993  0.4135
  869MOL0     H17309   4.957  11.582   7.570 -3.6579  1.0940  1.6706
  869MOL0     H17310   4.960  11.755   7.530 -2.4956 -0.2792  0.6782
  869MOL0     H17311   5.153  11.685   7.447 -0.3028 -1.8547 -0.8263
  869MOL0     H17312   5.047  11.712   7.305 -1.3236  0.7288  0.5776
  869MOL0     H17313   5.134  11.319   7.236 -2.3183  0.3800 -0.4687
  869MOL0     H17314   4.520  11.306   7.641  1.1619  3.0952 -0.2627
  869MOL0     H17315   4.539  11.045   7.672 -1.2127  0.7025 -0.0246
  870MOL0     O17316   3.865   6.037   1.270  0.3393 -0.1246  0.2460
  870MOL0     C17317   3.858   6.100   1.375  0.0722 -0.0122  0.4189
  870MOL0     O17318   3.789   6.067   1.484 -0.5730  0.5298  0.6141
  870MOL0     C17319   3.725   5.942   1.490  0.0044 -0.6413 -0.0014
  870MOL0     C17320   3.649   5.877   1.384 -0.5614  0.5711  0.1929
  870MOL0     C17321   3.559   5.769   1.409 -0.1048  1.2095 -0.7403
  870MOL0     C17322   3.546   5.722   1.544  0.2543 -0.2749 -0.0435
  870MOL0     O17323   3.456   5.621   1.564 -0.3690  0.2156  0.1268
  870MOL0     C17324   3.421   5.589   1.694  0.3571 -1.6342 -0.8528
  870MOL0     C17325   3.332   5.699   1.761  0.0135  0.6287  0.3916
  870MOL0     C17326   3.241   5.789   1.667 -0.2530 -0.3145 -0.4123
  870MOL0     C17327   3.149   5.703   1.582 -0.8724  0.3299  0.5449
  870MOL0     C17328   3.104   5.777   1.461 -0.6324  0.1983 -0.2474
  870MOL0     C17329   2.993   5.692   1.381 -0.3955 -0.7184  0.0340
  870MOL0     C17330   2.850   5.719   1.433 -0.7769  0.5335 -0.0987
  870MOL0     C17331   2.765   5.588   1.417  0.4502  0.1041 -0.1916
  870MOL0     N17332   2.758   5.558   1.271  0.9786  0.3101  0.2861
  870MOL0     C17333   2.714   5.650   1.173  0.7535  0.8616  0.1757
  870MOL0     C17334   2.696   5.587   1.055  0.2634  1.3061  0.2893
  870MOL0     C17335   2.645   5.641   0.926  0.3696  0.4207  0.5163
  870MOL0     C17336   2.502   5.605   0.875 -0.5109  0.1262  0.9159
  870MOL0     C17337   2.505   5.462   0.815 -0.6279  0.3494 -0.7727
  870MOL0     C17338   2.358   5.421   0.773  1.3103  0.8547 -0.0634
  870MOL0     O17339   2.253   5.454   0.863 -0.6842 -0.1508 -0.0264
  870MOL0     C17340   2.132   5.399   0.838 -0.0294  0.6293 -0.1274
  870MOL0     C17341   2.092   5.340   0.714  0.0158  0.1141 -1.1846
  870MOL0     C17342   1.963   5.288   0.697  0.4638  0.2998  0.8129
  870MOL0     C17343   1.923   5.226   0.575 -0.2277  0.6058  0.2109
  870MOL0     C17344   1.867   5.301   0.799  0.2093  0.5628  0.4099
  870MOL0     C17345   1.726   5.272   0.792  0.1901 -0.5283  0.1251
  870MOL0     O17346   1.669   5.211   0.899  0.4207 -0.1643 -0.3506
  870MOL0     C17347   1.535   5.176   0.878  0.0081 -0.3153 -0.5210
  870MOL0     C17348   1.518   5.045   0.844 -0.7506  0.2882 -1.4959
  870MOL0     C17349   1.391   4.991   0.837  0.5311 -1.0304  0.2941
  870MOL0     C17350   1.279   5.070   0.841 -0.3484 -0.0347 -0.3341
  870MOL0     O17351   1.146   5.024   0.867 -0.2589 -0.1437 -0.5768
  870MOL0     C17352   1.118   4.887   0.839  0.5409 -0.0579  0.7402
  870MOL0     C17353   0.968   4.874   0.819 -0.0126 -0.9899 -0.1813
  870MOL0     C17354   0.940   4.727   0.797  0.3437 -1.4426  0.8841
  870MOL0     C17355   0.927   4.662   0.932 -0.8269  0.3419  0.0119
  870MOL0     C17356   0.889   4.514   0.905  0.1119  0.3433  0.2169
  870MOL0     C17357   0.853   4.435   1.026 -0.8565  0.3434  1.0278
  870MOL0     C17358   0.734   4.493   1.096  0.1770 -1.1338 -0.4915
  870MOL0     C17359   0.656   4.385   1.162  0.5453  0.4745  0.1592
  870MOL0    Cl17360   0.505   4.450   1.213  0.0640 -0.4463 -0.3487
  870MOL0     C17361   1.295   5.201   0.886  0.0797 -0.6897 -0.1902
  870MOL0     C17362   1.420   5.253   0.900  0.1198  0.2364  0.0848
  870MOL0     O17363   1.661   5.308   0.690  0.4900 -0.2599 -0.4469
  870MOL0     C17364   1.903   5.363   0.915  0.1342 -0.2774 -0.6558
  870MOL0     C17365   2.039   5.404   0.940 -0.8137 -0.0164  0.1123
  870MOL0     N17366   2.741   5.457   1.076  0.7125 -0.2503 -0.4035
  870MOL0     N17367   2.770   5.439   1.206 -0.2143 -1.4296  0.6445
  870MOL0     C17368   3.613   5.794   1.651 -0.5585  0.4228  0.9346
  870MOL0     C17369   3.704   5.896   1.622 -0.0704 -0.0680  0.8880
  870MOL0     C17370   3.911   6.242   1.378 -0.0528 -0.6760  0.3786
  870MOL0     C17371   3.863   6.332   1.476  0.2605 -0.5501  0.6066
  870MOL0     C17372   3.880   6.470   1.461 -0.3846 -0.1791  0.7930
  870MOL0     C17373   3.971   6.512   1.356  0.4518 -0.3779 -0.4457
  870MOL0     O17374   4.009   6.639   1.330  0.2186 -0.2797  0.1069
  870MOL0     C17375   3.967   6.751   1.410 -0.8091 -0.1181 -0.8141
  870MOL0     C17376   3.838   6.812   1.350 -0.1410  0.1913 -0.3320
  870MOL0     C17377   3.812   6.942   1.432  0.5727 -0.2520  0.2921
  870MOL0     C17378   3.914   7.057   1.433  0.5696  0.2194 -0.7865
  870MOL0     C17379   3.960   7.103   1.306  0.1109 -0.0700  1.0635
  870MOL0     C17380   3.986   7.135   1.193 -0.5537  0.2016 -0.0785
  870MOL0     C17381   4.016   6.423   1.262 -0.5116 -0.6503  0.1026
  870MOL0     C17382   3.989   6.289   1.268  0.3137  0.0624  0.7801
  870MOL0     H17383   3.639   5.914   1.283 -0.7534 -0.7585 -0.2897
  870MOL0     H17384   3.500   5.727   1.328 -1.1294  0.5214  0.3232
  870MOL0     H17385   3.359   5.499   1.697 -0.4506 -1.0582  1.3804
  870MOL0     H17386   3.504   5.568   1.762 -0.2148  1.3062  0.9359
  870MOL0     H17387   3.266   5.637   1.823  2.5446 -3.5903 -0.7181
  870MOL0     H17388   3.382   5.766   1.831 -2.7813  1.8730  1.3357
  870MOL0     H17389   3.192   5.859   1.735  0.8945 -1.3174  1.5311
  870MOL0     H17390   3.299   5.846   1.594  2.3638 -3.0247 -0.6610
  870MOL0     H17391   3.197   5.611   1.548 -4.3658 -1.7512  0.7507
  870MOL0     H17392   3.057   5.681   1.637 -2.3946  1.0619 -1.5745
  870MOL0     H17393   3.060   5.876   1.477 -1.8722 -0.3030 -0.4751
  870MOL0     H17394   3.189   5.794   1.394 -0.6733 -0.2553 -0.4132
  870MOL0     H17395   2.989   5.717   1.275  0.8026 -0.7276 -0.0178
  870MOL0     H17396   3.014   5.585   1.381  1.6585 -0.3508 -0.9981
  870MOL0     H17397   2.859   5.736   1.541  1.1597 -2.6794  0.3839
  870MOL0     H17398   2.807   5.806   1.383 -0.0433  2.2060  2.0365
  870MOL0     H17399   2.667   5.602   1.464  0.4214  1.8478 -0.6817
  870MOL0     H17400   2.807   5.504   1.472 -0.0975 -0.8480 -1.1858
  870MOL0     H17401   2.698   5.756   1.193 -1.0968  0.5142  0.7499
  870MOL0     H17402   2.644   5.749   0.942  0.1571  0.2624  1.6487
  870MOL0     H17403   2.710   5.630   0.839 -2.8626 -0.8616 -1.9350
  870MOL0     H17404   2.471   5.678   0.800  0.4914  0.4046  0.7554
  870MOL0     H17405   2.445   5.604   0.969 -3.3162 -0.5122 -0.6862
  870MOL0     H17406   2.524   5.382   0.887  0.0627 -0.5076 -1.8723
  870MOL0     H17407   2.576   5.462   0.733 -1.4597 -0.1171 -1.5172
  870MOL0     H17408   2.354   5.313   0.756  1.1721  1.0243 -1.1626
  870MOL0     H17409   2.332   5.474   0.681 -0.1550 -1.8118 -1.3021
  870MOL0     H17410   2.169   5.325   0.639  1.1583  0.6713 -0.1720
  870MOL0     H17411   1.865   5.294   0.512  0.0912 -0.8547 -1.7365
  870MOL0     H17412   2.018   5.209   0.524 -1.1370  1.6782 -1.9677
  870MOL0     H17413   1.870   5.131   0.589  1.4493 -0.5835 -1.1593
  870MOL0     H17414   1.606   4.981   0.840 -0.4328  0.6334 -0.5378
  870MOL0     H17415   1.380   4.886   0.812  2.3336 -1.6491  1.9101
  870MOL0     H17416   1.168   4.864   0.745 -2.2151  0.4201 -0.9742
  870MOL0     H17417   1.156   4.826   0.921  0.8653  0.6626  1.1407
  870MOL0     H17418   0.899   4.919   0.892  0.7669  0.5370 -0.3474
  870MOL0     H17419   0.951   4.932   0.728  2.3497 -0.7984 -0.5754
  870MOL0     H17420   1.018   4.681   0.735  1.3564  1.9977 -0.6342
  870MOL0     H17421   0.849   4.722   0.736  1.7977  1.9092 -1.9297
  870MOL0     H17422   1.020   4.656   0.989 -0.4426 -2.1210 -0.7824
  870MOL0     H17423   0.853   4.714   0.994  1.8527  2.2621  1.8514
  870MOL0     H17424   0.966   4.462   0.848 -1.4287 -0.2183 -1.4737
  870MOL0     H17425   0.803   4.523   0.837 -0.0077 -0.3282  0.2675
  870MOL0     H17426   0.818   4.339   0.987  3.3519 -0.3005 -1.9615
  870MOL0     H17427   0.947   4.418   1.080 -0.5140  1.9605  1.0024
  870MOL0     H17428   0.675   4.555   1.027  0.3382 -0.5894 -0.1491
  870MOL0     H17429   0.761   4.565   1.174 -1.8326  0.0665 -0.8218
  870MOL0     H17430   0.710   4.344   1.247  1.6102 -1.8345 -1.5177
  870MOL0     H17431   0.633   4.303   1.093  0.5534  0.7707 -0.1996
  870MOL0     H17432   1.209   5.256   0.923  2.7275  3.1559  0.8495
  870MOL0     H17433   1.424   5.358   0.927  0.5141  0.1836  0.2450
  870MOL0     H17434   1.830   5.393   0.989 -0.7687 -2.2614 -0.6550
  870MOL0     H17435   2.065   5.446   1.036 -0.9099 -0.1215  0.1838
  870MOL0     H17436   3.597   5.768   1.755 -1.6649  0.8079  0.8705
  870MOL0     H17437   3.739   5.960   1.702 -1.2611 -0.6354  1.9029
  870MOL0     H17438   3.805   6.288   1.557 -1.9312 -1.6887 -1.4690
  870MOL0     H17439   3.849   6.544   1.534  0.6632 -0.8088  1.9051
  870MOL0     H17440   3.960   6.733   1.517  1.5849  0.2092 -0.5485
  870MOL0     H17441   4.052   6.819   1.397  0.4356 -1.6486 -1.0433
  870MOL0     H17442   3.761   6.743   1.384  0.0328 -0.2813 -0.8686
  870MOL0     H17443   3.854   6.832   1.243  3.0884 -0.3737 -0.0753
  870MOL0     H17444   3.788   6.910   1.533 -0.2320 -2.1890 -0.4575
  870MOL0     H17445   3.724   6.990   1.388  1.5471  0.2773 -1.1908
  870MOL0     H17446   3.993   7.024   1.501  0.1715  0.7626 -0.0528
  870MOL0     H17447   3.864   7.148   1.465 -0.3721 -0.9778  1.3778
  870MOL0     H17448   4.013   7.149   1.090 -1.6530  2.3400 -0.1325
  870MOL0     H17449   4.055   6.465   1.169 -4.5854  3.0866 -0.2683
  870MOL0     H17450   4.022   6.225   1.186  0.8543  2.2331 -0.7928
  871MOL0     O17451   4.250   4.954   1.543  0.6960  0.2308  0.1083
  871MOL0     C17452   4.235   5.081   1.529 -0.9132 -0.0348  0.1008
  871MOL0     O17453   4.281   5.180   1.612  0.5228  0.4788  0.3517
  871MOL0     C17454   4.341   5.144   1.729  0.3932 -0.5478  1.0295
  871MOL0     C17455   4.287   5.199   1.851  0.4260  0.1364  0.5384
  871MOL0     C17456   4.343   5.171   1.973  0.8693 -0.1730 -0.3163
  871MOL0     C17457   4.450   5.088   1.986 -0.4391 -0.6705  0.0097
  871MOL0     O17458   4.525   5.051   2.097 -0.0743 -0.1079 -0.1326
  871MOL0     C17459   4.516   5.134   2.214 -0.4894  0.3201 -0.9751
  871MOL0     C17460   4.599   5.264   2.229 -0.1410 -0.2939 -0.0212
  871MOL0     C17461   4.580   5.367   2.114 -0.4392  1.1565  0.0113
  871MOL0     C17462   4.691   5.475   2.119  0.5643  0.4054 -0.3170
  871MOL0     C17463   4.661   5.575   2.007 -0.0230  0.9222 -0.4467
  871MOL0     C17464   4.760   5.692   2.025 -0.2502 -0.2648  0.8404
  871MOL0     C17465   4.722   5.801   1.931  0.0029  0.3509  0.3822
  871MOL0     C17466   4.806   5.926   1.949  0.5825 -0.9169  0.0723
  871MOL0     N17467   4.777   5.975   2.083 -0.3612 -0.8024  0.7999
  871MOL0     C17468   4.875   6.020   2.173 -0.3927  0.3459 -0.0976
  871MOL0     C17469   4.805   6.097   2.265  0.1821  0.6880 -0.3342
  871MOL0     C17470   4.840   6.193   2.384 -0.4041  0.1490  0.3591
  871MOL0     C17471   4.888   6.122   2.513  0.1729 -0.6347  0.1179
  871MOL0     C17472   4.788   6.025   2.571 -0.0784  0.4244 -0.2326
  871MOL0     C17473   4.851   5.911   2.668  1.0315  0.3474  0.2761
  871MOL0     O17474   4.730   5.854   2.735  0.6413 -0.9073  0.9021
  871MOL0     C17475   4.733   5.881   2.874 -0.1300 -0.8853 -0.1943
  871MOL0     C17476   4.831   5.826   2.959 -0.5465 -0.6064 -0.4833
  871MOL0     C17477   4.825   5.836   3.101 -1.0550 -0.4045 -0.2587
  871MOL0     C17478   4.928   5.763   3.184  0.5602  0.1476 -0.2284
  871MOL0     C17479   4.722   5.911   3.156 -0.1594  0.6150 -0.2743
  871MOL0     C17480   4.698   5.933   3.298  1.6241  0.2118  0.2068
  871MOL0     O17481   4.569   5.958   3.319 -0.2127 -0.3478 -0.1789
  871MOL0     C17482   4.533   5.990   3.452  0.7374 -0.7530 -0.6521
  871MOL0     C17483   4.593   6.086   3.537 -0.3561  0.3940 -0.0837
  871MOL0     C17484   4.538   6.126   3.660  0.4050  1.7249  0.1089
  871MOL0     C17485   4.432   6.053   3.713 -0.4636  0.6893  0.5264
  871MOL0     O17486   4.386   6.084   3.836 -0.4858 -0.1252 -0.3608
  871MOL0     C17487   4.444   6.000   3.935 -0.2157  0.1483 -0.6935
  871MOL0     C17488   4.355   5.993   4.063 -0.8060 -0.2516  0.3501
  871MOL0     C17489   4.228   5.915   4.045 -0.4712  0.2115 -0.2672
  871MOL0     C17490   4.230   5.766   4.064 -0.3091  0.5551  0.2976
  871MOL0     C17491   4.107   5.706   3.988 -0.0284  1.4710 -0.5145
  871MOL0     C17492   4.062   5.580   4.065 -1.2689 -0.5327  0.0221
  871MOL0     C17493   3.944   5.511   3.985 -0.0881 -0.1042 -1.1296
  871MOL0     C17494   3.856   5.433   4.079  0.3981  0.2739  0.9564
  871MOL0    Cl17495   3.923   5.340   4.228 -0.2177 -0.0535 -0.2341
  871MOL0     C17496   4.364   5.959   3.634 -0.2947 -0.5251 -0.3364
  871MOL0     C17497   4.407   5.935   3.504 -1.0884 -0.9185  0.3192
  871MOL0     O17498   4.791   5.931   3.378 -0.0005 -1.2337  0.4387
  871MOL0     C17499   4.626   5.979   3.067 -0.6039 -0.8742 -0.4093
  871MOL0     C17500   4.630   5.962   2.928  0.1989  0.5103 -0.1173
  871MOL0     N17501   4.673   6.080   2.233 -0.1567 -0.3663 -0.4621
  871MOL0     N17502   4.653   6.017   2.122  0.4346 -0.2175 -0.4988
  871MOL0     C17503   4.493   5.024   1.867  0.1295 -0.6836  0.1167
  871MOL0     C17504   4.443   5.052   1.744  0.3074 -0.3990 -0.1773
  871MOL0     C17505   4.176   5.124   1.397 -0.7416  0.0588  0.3268
  871MOL0     C17506   4.096   5.238   1.401 -0.0202  0.8629 -0.1621
  871MOL0     C17507   4.040   5.287   1.286  0.3507  0.5589  0.0761
  871MOL0     C17508   4.055   5.217   1.163  0.0435 -0.7794 -0.4173
  871MOL0     O17509   3.993   5.274   1.057  0.1475 -0.2816 -0.1746
  871MOL0     C17510   4.070   5.270   0.930  0.5493 -0.5134 -0.2939
  871MOL0     C17511   3.992   5.358   0.824  0.4069  0.4898 -0.6578
  871MOL0     C17512   3.841   5.324   0.812 -0.0417 -0.3076  0.4834
  871MOL0     C17513   3.770   5.423   0.722  0.4009  0.5496  0.1634
  871MOL0     C17514   3.811   5.417   0.580  0.2260 -0.2987  1.0140
  871MOL0     C17515   3.838   5.399   0.461 -1.1779  0.2073 -0.9729
  871MOL0     C17516   4.125   5.099   1.164  0.0975  0.0826  0.7908
  871MOL0     C17517   4.185   5.054   1.280  0.2331 -0.3686  0.5682
  871MOL0     H17518   4.204   5.269   1.854 -2.1511 -2.6144 -1.2514
  871MOL0     H17519   4.296   5.210   2.063 -0.7345 -2.0676 -0.2634
  871MOL0     H17520   4.409   5.152   2.230 -0.7429 -2.6692  1.6732
  871MOL0     H17521   4.551   5.078   2.301  1.2371  3.8307  0.7667
  871MOL0     H17522   4.553   5.319   2.311 -1.4262  0.0512 -0.9350
  871MOL0     H17523   4.706   5.250   2.247 -0.5584 -2.0412  1.3447
  871MOL0     H17524   4.596   5.305   2.025  1.3487 -1.9184  2.2549
  871MOL0     H17525   4.478   5.408   2.110 -1.6055 -1.3426  1.6818
  871MOL0     H17526   4.676   5.518   2.219 -1.4044 -1.8682  0.4651
  871MOL0     H17527   4.788   5.427   2.107  0.3387 -0.1022 -0.1076
  871MOL0     H17528   4.679   5.536   1.906 -0.6213  2.0750 -1.0116
  871MOL0     H17529   4.557   5.606   1.993  0.1603  0.6577 -3.0237
  871MOL0     H17530   4.742   5.738   2.122  0.3395  0.8077  0.4583
  871MOL0     H17531   4.865   5.662   2.012 -0.8130 -2.0421  0.0803
  871MOL0     H17532   4.737   5.759   1.831 -0.4523 -1.3847  1.0102
  871MOL0     H17533   4.618   5.826   1.952  0.4687  1.6659  1.2140
  871MOL0     H17534   4.789   5.998   1.868 -0.6964 -1.9608 -0.6337
  871MOL0     H17535   4.912   5.908   1.969  1.4897  4.1399  1.4179
  871MOL0     H17536   4.983   6.013   2.162 -0.1338 -2.7261  2.9028
  871MOL0     H17537   4.923   6.257   2.353 -1.7973  2.4002  1.0731
  871MOL0     H17538   4.758   6.259   2.415  0.7874  2.0398 -0.3239
  871MOL0     H17539   4.917   6.192   2.592  1.1088  1.5006 -2.0213
  871MOL0     H17540   4.978   6.067   2.485  1.0481  0.9238 -0.1978
  871MOL0     H17541   4.740   5.962   2.497 -1.3707 -1.5524  2.1406
  871MOL0     H17542   4.707   6.076   2.624 -1.5201 -2.9467  1.0828
  871MOL0     H17543   4.916   5.971   2.732 -1.9910  1.6644  2.3474
  871MOL0     H17544   4.912   5.834   2.621 -1.4270 -1.7054  0.2692
  871MOL0     H17545   4.904   5.758   2.917  0.0808  0.7169 -1.6068
  871MOL0     H17546   4.878   5.722   3.272  1.8500  1.8288  1.3708
  871MOL0     H17547   4.978   5.680   3.133  1.1310  0.6479 -0.4978
  871MOL0     H17548   5.019   5.819   3.207  0.5032  0.0560  0.2180
  871MOL0     H17549   4.678   6.143   3.499 -0.3212 -0.8094 -1.9502
  871MOL0     H17550   4.595   6.203   3.711  1.8981 -1.2128  3.2294
  871MOL0     H17551   4.454   5.895   3.907 -0.4808  0.2335 -1.1166
  871MOL0     H17552   4.544   6.038   3.958 -0.4396 -0.1147  0.8484
  871MOL0     H17553   4.422   5.957   4.142 -0.9224 -0.2362  0.4586
  871MOL0     H17554   4.329   6.097   4.088 -0.8918  0.8117 -3.5857
  871MOL0     H17555   4.193   5.938   3.944  1.7775  0.2319 -1.0794
  871MOL0     H17556   4.150   5.947   4.115  0.8234  0.8554  0.9133
  871MOL0     H17557   4.321   5.713   4.037  0.3300  0.8675  1.7601
  871MOL0     H17558   4.220   5.755   4.172  0.0374  2.6846  0.5930
  871MOL0     H17559   4.136   5.682   3.885  2.5687 -0.4058  0.5379
  871MOL0     H17560   4.018   5.769   3.998  0.6793  2.6080 -1.2042
  871MOL0     H17561   4.142   5.507   4.080 -0.5049 -0.0557 -1.5148
  871MOL0     H17562   4.028   5.599   4.167  2.0165  2.1359  0.7794
  871MOL0     H17563   3.987   5.432   3.923 -1.7672 -1.4648 -0.6350
  871MOL0     H17564   3.885   5.574   3.919 -0.1073 -1.4989 -2.5093
  871MOL0     H17565   3.797   5.365   4.017  0.5342  0.4479  0.6350
  871MOL0     H17566   3.785   5.507   4.118 -0.4020 -0.1868  0.4058
  871MOL0     H17567   4.264   5.935   3.670 -0.2848  2.9928  2.5946
  871MOL0     H17568   4.351   5.871   3.437 -3.8537  0.1992  1.3992
  871MOL0     H17569   4.531   6.021   3.100 -0.5614 -1.4653  0.5175
  871MOL0     H17570   4.554   6.018   2.873 -2.0107 -0.8160  1.4344
  871MOL0     H17571   4.571   4.949   1.869 -0.5431 -1.5550 -2.4319
  871MOL0     H17572   4.494   5.013   1.656 -0.2638 -0.2776 -0.5616
  871MOL0     H17573   4.078   5.281   1.499  1.1786  1.4230 -0.1631
  871MOL0     H17574   3.983   5.378   1.300  1.2069  0.9475  1.1604
  871MOL0     H17575   4.170   5.312   0.946  0.7336 -0.1794 -2.0813
  871MOL0     H17576   4.068   5.173   0.880  1.7736 -1.5377  1.5273
  871MOL0     H17577   4.040   5.344   0.727  2.7544  1.7374  0.2267
  871MOL0     H17578   3.999   5.464   0.848 -2.7654  0.3380  1.6397
  871MOL0     H17579   3.794   5.319   0.911  0.9091  0.6525  1.0126
  871MOL0     H17580   3.837   5.222   0.771 -0.2771 -0.1123  0.0173
  871MOL0     H17581   3.790   5.525   0.757  0.5981  1.2110 -1.7473
  871MOL0     H17582   3.662   5.408   0.725  0.4272  0.3582  0.1199
  871MOL0     H17583   3.853   5.376   0.357  0.7124 -0.2055 -0.6475
  871MOL0     H17584   4.115   5.040   1.073 -1.6578 -4.2659  3.4622
  871MOL0     H17585   4.229   4.955   1.274 -0.9248 -0.8479 -4.8898
  872MOL0     O17586   0.810  11.380   4.997  0.3313  0.2701 -0.0682
  872MOL0     C17587   0.754  11.277   5.038  0.2972  0.2352 -0.2688
  872MOL0     O17588   0.639  11.225   4.993 -0.2318 -0.0899  0.0739
  872MOL0     C17589   0.554  11.298   4.919  0.2289 -0.3244  0.8060
  872MOL0     C17590   0.458  11.226   4.835  0.6738 -1.0601  0.9121
  872MOL0     C17591   0.357  11.289   4.769 -0.5194 -0.0225 -0.3334
  872MOL0     C17592   0.351  11.425   4.778  0.7961  0.8424  0.2497
  872MOL0     O17593   0.250  11.480   4.692 -0.1143  0.4085 -0.9784
  872MOL0     C17594   0.198  11.613   4.732  0.5838 -0.5790  0.3691
  872MOL0     C17595   0.090  11.680   4.639 -0.1487  1.5219 -0.7273
  872MOL0     C17596  -0.025  11.589   4.616 -0.0082  0.6189 -0.0084
  872MOL0     C17597  -0.105  11.653   4.503  0.2869 -0.7278  0.4756
  872MOL0     C17598  -0.249  11.615   4.506 -0.3847 -0.2029  0.0691
  872MOL0     C17599  -0.322  11.660   4.382 -0.7793 -0.3657 -0.6573
  872MOL0     C17600  -0.465  11.617   4.391 -0.2759 -0.2972  1.0043
  872MOL0     C17601  -0.547  11.655   4.268  0.2693  0.6144  0.1607
  872MOL0     N17602  -0.505  11.571   4.155  0.0827  0.5748  0.3022
  872MOL0     C17603  -0.460  11.602   4.025  0.7767 -0.4041 -0.4358
  872MOL0     C17604  -0.467  11.486   3.953 -0.3874  0.7823 -0.1385
  872MOL0     C17605  -0.421  11.471   3.816  0.0727 -0.0366 -0.3893
  872MOL0     C17606  -0.524  11.550   3.726 -0.6686  0.7796  0.0799
  872MOL0     C17607  -0.488  11.527   3.578 -0.6425  0.3352  0.8084
  872MOL0     C17608  -0.603  11.562   3.502 -0.0872 -0.7080  0.1282
  872MOL0     O17609  -0.708  11.472   3.543  0.3648 -0.8262 -0.1068
  872MOL0     C17610  -0.822  11.466   3.465  0.5855 -0.5954 -0.7489
  872MOL0     C17611  -0.884  11.348   3.453  0.2610  0.0164  0.1131
  872MOL0     C17612  -0.990  11.321   3.370  0.8954  0.5257 -0.1382
  872MOL0     C17613  -1.057  11.185   3.373  0.5642 -0.7030  0.3025
  872MOL0     C17614  -1.045  11.436   3.292  0.2086 -0.0379  0.2286
  872MOL0     C17615  -1.171  11.436   3.204  0.5220 -0.3998  0.1317
  872MOL0     O17616  -1.187  11.543   3.126 -0.1954 -1.1582 -0.0157
  872MOL0     C17617  -1.280  11.539   3.036  0.8685 -0.3580 -0.4454
  872MOL0     C17618  -1.245  11.513   2.906 -0.5741 -1.0830 -0.0811
  872MOL0     C17619  -1.342  11.515   2.808 -0.2435 -0.1793  0.1864
  872MOL0     C17620  -1.474  11.542   2.836  0.1038  0.0747  0.4325
  872MOL0     O17621  -1.579  11.547   2.738 -0.5200  0.4472 -0.4805
  872MOL0     C17622  -1.579  11.451   2.636 -0.1015 -0.0249  0.9540
  872MOL0     C17623  -1.706  11.503   2.563  0.1565 -0.8208  0.1366
  872MOL0     C17624  -1.735  11.416   2.436 -0.6764  0.5961 -0.1666
  872MOL0     C17625  -1.852  11.450   2.344 -0.6426 -0.5210 -0.4614
  872MOL0     C17626  -1.988  11.369   2.373 -0.5327 -0.6404  0.3731
  872MOL0     C17627  -2.014  11.367   2.521  0.2443 -0.4762 -0.3291
  872MOL0     C17628  -2.150  11.320   2.577 -0.7782  0.6795  0.3355
  872MOL0     C17629  -2.255  11.423   2.534  0.2635 -0.7736 -0.2078
  872MOL0    Cl17630  -2.414  11.397   2.603 -0.3789 -0.0973 -0.2737
  872MOL0     C17631  -1.506  11.561   2.970  0.0496 -0.5458 -1.0989
  872MOL0     C17632  -1.413  11.571   3.067 -0.0104  0.7644 -0.5189
  872MOL0     O17633  -1.235  11.331   3.188  0.3576  0.2033 -0.0005
  872MOL0     C17634  -0.973  11.560   3.305 -0.4292 -0.0848  0.7000
  872MOL0     C17635  -0.860  11.575   3.389 -0.5889  0.0067 -0.1776
  872MOL0     N17636  -0.527  11.389   4.028 -0.1590 -0.5282  0.0234
  872MOL0     N17637  -0.534  11.438   4.142 -0.7741 -0.3352 -0.0482
  872MOL0     C17638   0.439  11.502   4.859  0.0113  0.0089  0.8401
  872MOL0     C17639   0.538  11.438   4.931 -1.5207 -0.3055  0.3765
  872MOL0     C17640   0.800  11.216   5.152  0.5722 -0.0641 -0.2674
  872MOL0     C17641   0.721  11.175   5.260 -0.1199  0.7161 -0.9632
  872MOL0     C17642   0.774  11.128   5.387  0.0524 -0.3969 -0.1682
  872MOL0     C17643   0.912  11.112   5.401 -0.0637 -0.4570 -0.3519
  872MOL0     O17644   0.973  11.083   5.515  0.0303 -0.2729 -0.2526
  872MOL0     C17645   0.892  11.086   5.637  0.8219 -0.3327  0.8551
  872MOL0     C17646   0.968  11.065   5.768  0.0541 -0.0060 -0.3794
  872MOL0     C17647   0.999  10.910   5.780 -0.2051  0.7174 -0.2247
  872MOL0     C17648   1.066  10.874   5.920  0.4547  0.2027 -1.0792
  872MOL0     C17649   1.180  10.971   5.946  0.7193  0.1577 -0.2901
  872MOL0     C17650   1.273  11.048   5.951  0.1030 -0.4870 -0.6036
  872MOL0     C17651   0.988  11.156   5.288 -0.1872 -0.2173  0.5023
  872MOL0     C17652   0.929  11.201   5.165  0.3078  0.5207 -0.0177
  872MOL0     H17653   0.465  11.119   4.821 -3.5036 -1.6641  2.0353
  872MOL0     H17654   0.300  11.230   4.697  3.5111 -3.4010 -1.1173
  872MOL0     H17655   0.156  11.605   4.833  2.5013  0.0174  1.2713
  872MOL0     H17656   0.283  11.682   4.736 -2.3150  3.5346 -1.4701
  872MOL0     H17657   0.069  11.782   4.674  1.2660  1.7620 -0.5018
  872MOL0     H17658   0.142  11.686   4.543  1.0351 -4.0371 -0.7413
  872MOL0     H17659   0.014  11.495   4.575 -0.6730  0.6431 -0.6940
  872MOL0     H17660  -0.087  11.570   4.704 -2.4299 -0.5441 -1.8695
  872MOL0     H17661  -0.117  11.761   4.519 -1.1919 -1.1877  3.0698
  872MOL0     H17662  -0.046  11.640   4.412 -0.0565 -0.6523  0.2392
  872MOL0     H17663  -0.253  11.506   4.495 -1.6321 -0.1209 -0.5340
  872MOL0     H17664  -0.303  11.651   4.594 -2.0032  1.1290 -1.4079
  872MOL0     H17665  -0.310  11.768   4.385 -1.1791 -0.3445  0.5811
  872MOL0     H17666  -0.280  11.611   4.293 -1.5192 -3.5644  0.6068
  872MOL0     H17667  -0.459  11.508   4.393  1.2180 -0.2536  0.0593
  872MOL0     H17668  -0.514  11.662   4.478 -3.1617  0.7753 -1.0023
  872MOL0     H17669  -0.524  11.759   4.245  1.2578  1.0811  2.9263
  872MOL0     H17670  -0.653  11.634   4.283  0.7027  0.1922  3.2329
  872MOL0     H17671  -0.433  11.702   3.993  4.4290 -1.2456 -0.4402
  872MOL0     H17672  -0.318  11.508   3.811  0.0806  0.3958  1.9770
  872MOL0     H17673  -0.422  11.371   3.772  0.3573 -0.9999  1.6780
  872MOL0     H17674  -0.512  11.658   3.743  0.3460  0.6830  0.0268
  872MOL0     H17675  -0.623  11.523   3.764 -0.3801 -0.9496 -0.2977
  872MOL0     H17676  -0.480  11.421   3.549  2.1389  0.1619  1.8880
  872MOL0     H17677  -0.407  11.589   3.540 -2.7255  1.9157 -1.3235
  872MOL0     H17678  -0.575  11.543   3.398 -0.5318 -1.5984  0.1577
  872MOL0     H17679  -0.631  11.666   3.517  4.6425  0.7555  0.3523
  872MOL0     H17680  -0.830  11.273   3.509  3.2996 -1.7205 -4.6374
  872MOL0     H17681  -1.132  11.197   3.451  0.5419  3.0676 -0.1181
  872MOL0     H17682  -1.119  11.167   3.285  1.6499  1.7653 -1.0674
  872MOL0     H17683  -0.986  11.103   3.386  1.3261 -0.2310 -0.8039
  872MOL0     H17684  -1.141  11.488   2.891  0.5695  2.7897  0.3007
  872MOL0     H17685  -1.320  11.498   2.703 -1.3595  3.5929 -0.8297
  872MOL0     H17686  -1.498  11.460   2.563 -1.8163 -1.1935 -1.2012
  872MOL0     H17687  -1.584  11.350   2.677  1.0431  0.3571  2.1012
  872MOL0     H17688  -1.789  11.486   2.633  1.3075  1.1264  2.0845
  872MOL0     H17689  -1.687  11.605   2.528 -2.7136 -0.2052  0.1003
  872MOL0     H17690  -1.734  11.310   2.462  1.4078  0.7665  0.6629
  872MOL0     H17691  -1.652  11.444   2.371 -0.5806  1.9417  0.5002
  872MOL0     H17692  -1.870  11.558   2.352 -2.2144 -0.3722 -4.1515
  872MOL0     H17693  -1.823  11.441   2.239  2.0748  0.2115  0.1530
  872MOL0     H17694  -1.984  11.269   2.329  2.3918  0.3474 -1.9894
  872MOL0     H17695  -2.065  11.423   2.318 -1.8254 -2.3527  0.4208
  872MOL0     H17696  -1.946  11.298   2.570  1.6292  1.9839  1.3986
  872MOL0     H17697  -2.008  11.469   2.558  1.8037 -0.9092  0.7192
  872MOL0     H17698  -2.151  11.324   2.686  3.8091  4.7018  0.5984
  872MOL0     H17699  -2.168  11.217   2.545  0.1196 -0.2121  2.4789
  872MOL0     H17700  -2.260  11.445   2.427  3.6334  0.4097 -0.2487
  872MOL0     H17701  -2.214  11.516   2.577  3.2520 -0.2843 -3.6230
  872MOL0     H17702  -1.610  11.566   3.000 -0.1930 -2.0266 -1.6286
  872MOL0     H17703  -1.444  11.613   3.163 -2.8453 -0.2686 -0.8753
  872MOL0     H17704  -1.017  11.645   3.254 -2.0587  0.7408  3.2984
  872MOL0     H17705  -0.813  11.671   3.404 -0.1748 -0.5288  2.5558
  872MOL0     H17706   0.425  11.609   4.858  2.2212  0.3796 -1.6939
  872MOL0     H17707   0.599  11.503   4.993  1.5197  0.0414 -2.7020
  872MOL0     H17708   0.613  11.184   5.254 -0.2415  0.7084  0.6907
  872MOL0     H17709   0.715  11.110   5.476  0.1942 -0.4415 -0.0829
  872MOL0     H17710   0.845  11.184   5.645 -1.3890 -1.2110 -0.3038
  872MOL0     H17711   0.812  11.012   5.621  1.6418 -0.7516 -1.7622
  872MOL0     H17712   0.908  11.094   5.854  0.0406 -2.0543  0.3464
  872MOL0     H17713   1.067  11.112   5.764  0.0227  0.3650  2.0077
  872MOL0     H17714   1.080  10.881   5.713  2.2965  3.0504  1.5803
  872MOL0     H17715   0.916  10.848   5.743  0.1853  1.6041 -2.7706
  872MOL0     H17716   1.109  10.774   5.911 -0.5387 -0.1510 -2.1121
  872MOL0     H17717   0.994  10.873   6.003  0.1481  0.5632 -1.3421
  872MOL0     H17718   1.353  11.118   5.961 -0.4831  0.3765 -1.7935
  872MOL0     H17719   1.096  11.159   5.301  0.1423 -2.1653 -1.2740
  872MOL0     H17720   0.994  11.214   5.079 -2.1073 -1.2642 -2.3155
  873MOL0     O17721   5.883  11.164   4.153  0.4504 -0.2987 -0.2740
  873MOL0     C17722   5.907  11.045   4.182  0.5054 -0.3353  0.1564
  873MOL0     O17723   5.815  10.950   4.205 -0.4979  0.6545  0.0326
  873MOL0     C17724   5.680  10.969   4.201  0.3322  0.0716  0.0150
  873MOL0     C17725   5.606  11.089   4.170 -0.6820  0.1707 -0.1900
  873MOL0     C17726   5.466  11.084   4.179  0.3918  0.6231  0.1865
  873MOL0     C17727   5.404  10.966   4.204  0.8571  0.9197 -0.2360
  873MOL0     O17728   5.261  10.981   4.220 -0.2982 -0.5134  0.0195
  873MOL0     C17729   5.194  10.909   4.328 -0.8423  0.9468  0.6538
  873MOL0     C17730   5.227  10.962   4.464  0.0500  0.6542  0.3953
  873MOL0     C17731   5.178  11.103   4.490  0.4323 -0.3366  0.1979
  873MOL0     C17732   5.027  11.105   4.524 -0.3041 -0.0666 -0.0561
  873MOL0     C17733   4.973  11.244   4.559  0.1461 -0.2779  0.2563
  873MOL0     C17734   4.816  11.240   4.566  1.1371 -0.5147  0.0068
  873MOL0     C17735   4.769  11.393   4.578  0.4906 -0.3189  0.7307
  873MOL0     C17736   4.802  11.444   4.719  0.4597 -0.1241  0.4714
  873MOL0     N17737   4.786  11.592   4.719 -0.5791 -0.7530 -0.0887
  873MOL0     C17738   4.669  11.667   4.734  0.1564 -0.3444  0.7897
  873MOL0     C17739   4.716  11.792   4.727  0.1748  0.3664  0.3102
  873MOL0     C17740   4.626  11.916   4.736  0.2076  0.2936 -0.0033
  873MOL0     C17741   4.507  11.926   4.837 -0.2599 -0.2446  0.0158
  873MOL0     C17742   4.438  12.057   4.848 -0.2444  0.0832  0.1621
  873MOL0     C17743   4.519  12.143   4.943  0.0500 -0.1309  0.0199
  873MOL0     O17744   4.470  12.285   4.934 -0.3477 -0.3368 -0.3929
  873MOL0     C17745   4.368  12.318   5.011 -0.7248 -0.3928 -0.6773
  873MOL0     C17746   4.247  12.348   4.956  0.5955  0.0463  0.3278
  873MOL0     C17747   4.141  12.400   5.024  0.2978 -0.1082 -0.2972
  873MOL0     C17748   4.014  12.415   4.940 -0.3831 -0.6087  0.4127
  873MOL0     C17749   4.165  12.444   5.161 -0.3050  0.4525  0.7484
  873MOL0     C17750   4.064  12.505   5.246 -0.6768 -1.0253  0.0872
  873MOL0     O17751   4.111  12.527   5.384  0.6684 -0.2173 -0.0300
  873MOL0     C17752   4.017  12.577   5.471 -0.3766 -0.2546  0.2607
  873MOL0     C17753   3.921  12.500   5.525  0.0612 -0.3030  0.9423
  873MOL0     C17754   3.829  12.554   5.614 -0.1874  0.3047  0.5413
  873MOL0     C17755   3.838  12.689   5.658  0.1843 -0.0770 -1.1629
  873MOL0     O17756   3.748  12.720   5.757 -0.0279  0.0216  0.0949
  873MOL0     C17757   3.785  12.839   5.834  0.4495  0.1058  0.0701
  873MOL0     C17758   3.710  12.840   5.959 -1.1064  0.0145 -0.0703
  873MOL0     C17759   3.809  12.814   6.088 -0.0046  0.8276 -0.0591
  873MOL0     C17760   3.902  12.928   6.129  0.8776 -0.2426 -0.2607
  873MOL0     C17761   3.964  12.904   6.267  0.2962 -0.3819  0.2692
  873MOL0     C17762   4.066  13.018   6.289  0.2530 -0.5493 -0.2095
  873MOL0     C17763   4.149  12.992   6.417  0.2023 -0.2888 -0.6134
  873MOL0     C17764   4.159  13.118   6.508 -0.6843 -0.2286  0.4442
  873MOL0    Cl17765   4.065  13.102   6.657 -0.4872 -0.1630 -0.2833
  873MOL0     C17766   3.936  12.773   5.593 -0.2201  0.4032 -0.3516
  873MOL0     C17767   4.027  12.712   5.502  0.1002 -0.4553  0.2890
  873MOL0     O17768   3.965  12.561   5.189 -0.5463  0.1802  1.0808
  873MOL0     C17769   4.295  12.409   5.219  0.4939 -0.8435  0.0361
  873MOL0     C17770   4.395  12.365   5.141 -0.2363 -0.2119  0.3251
  873MOL0     N17771   4.846  11.802   4.700 -0.5269  0.4275 -0.0342
  873MOL0     N17772   4.893  11.678   4.696 -0.3605  0.2315  0.1475
  873MOL0     C17773   5.475  10.846   4.214 -0.7792  0.3838 -0.4980
  873MOL0     C17774   5.613  10.853   4.220 -0.5943 -0.3295  0.5193
  873MOL0     C17775   6.049  11.009   4.202  0.7905  0.1999 -0.4429
  873MOL0     C17776   6.092  10.934   4.309 -1.2169 -0.3247  0.2627
  873MOL0     C17777   6.227  10.918   4.336 -0.0272 -0.7860 -0.0816
  873MOL0     C17778   6.318  10.968   4.248  1.6299 -0.3019  0.1906
  873MOL0     O17779   6.453  10.956   4.275 -0.6945 -0.4119 -0.3027
  873MOL0     C17780   6.529  10.894   4.168 -0.1470 -0.3175  0.8568
  873MOL0     C17781   6.488  10.752   4.143  0.2108  0.0846  0.4074
  873MOL0     C17782   6.508  10.656   4.261  0.4137  0.3503  0.5104
  873MOL0     C17783   6.439  10.518   4.235  0.9073  0.0866  0.3306
  873MOL0     C17784   6.516  10.447   4.136 -0.6946  0.4124  1.5833
  873MOL0     C17785   6.586  10.397   4.050  0.3589  0.2484  0.0848
  873MOL0     C17786   6.276  11.041   4.141 -0.3936  0.1367  0.3671
  873MOL0     C17787   6.139  11.059   4.123 -0.4164  0.7125 -0.5108
  873MOL0     H17788   5.659  11.178   4.139 -1.3626  0.3303 -0.9116
  873MOL0     H17789   5.399  11.165   4.151 -1.6209 -1.2447 -0.7573
  873MOL0     H17790   5.088  10.925   4.309 -0.2169  1.4433 -3.0079
  873MOL0     H17791   5.221  10.803   4.329  1.5991  1.4307 -1.5130
  873MOL0     H17792   5.204  10.898   4.549  0.7450 -0.4176 -0.1945
  873MOL0     H17793   5.336  10.956   4.472  0.0778 -1.2229 -0.5942
  873MOL0     H17794   5.238  11.140   4.574 -0.1970 -3.4800  2.2216
  873MOL0     H17795   5.207  11.153   4.397 -0.7485 -3.5117 -2.0511
  873MOL0     H17796   4.975  11.073   4.434 -0.7584  1.6913 -0.4677
  873MOL0     H17797   4.996  11.029   4.596 -4.1455 -0.8778 -2.3036
  873MOL0     H17798   5.023  11.284   4.648 -0.2373  1.8805 -0.4470
  873MOL0     H17799   5.016  11.315   4.488 -1.1179  1.4165  1.1099
  873MOL0     H17800   4.777  11.194   4.475 -0.8162 -0.8738  0.9748
  873MOL0     H17801   4.770  11.178   4.644 -1.1171  1.2658  0.1808
  873MOL0     H17802   4.818  11.455   4.503  1.6395 -1.1811  0.7298
  873MOL0     H17803   4.662  11.407   4.563  0.4544  0.8007  1.8660
  873MOL0     H17804   4.904  11.419   4.751  0.4296 -0.1660  0.5340
  873MOL0     H17805   4.730  11.399   4.788  0.1618  0.4596  0.5470
  873MOL0     H17806   4.571  11.621   4.733  1.7393 -4.3276 -2.5890
  873MOL0     H17807   4.696  11.996   4.760 -1.0311  1.8460 -1.3497
  873MOL0     H17808   4.579  11.934   4.639  2.1695  2.8699 -0.5748
  873MOL0     H17809   4.542  11.892   4.935 -0.2092  2.7115  1.1501
  873MOL0     H17810   4.429  11.859   4.802 -0.1787  0.2712 -1.2071
  873MOL0     H17811   4.338  12.036   4.886 -1.1337 -1.4069 -2.7585
  873MOL0     H17812   4.418  12.106   4.753 -4.3509  0.8500  1.2564
  873MOL0     H17813   4.621  12.149   4.905 -0.2592  2.5384 -0.5653
  873MOL0     H17814   4.520  12.115   5.049  1.8600 -0.3888 -0.0407
  873MOL0     H17815   4.234  12.328   4.850 -0.0275 -1.4640  0.6573
  873MOL0     H17816   3.926  12.368   4.984  0.0802  0.1465  2.2139
  873MOL0     H17817   4.000  12.524   4.939 -1.5971 -0.5938 -4.2928
  873MOL0     H17818   4.018  12.382   4.836 -0.4680  0.6388 -0.0092
  873MOL0     H17819   3.913  12.394   5.505 -0.7244 -0.4175  1.8166
  873MOL0     H17820   3.750  12.493   5.656 -0.6377  1.5625  1.5950
  873MOL0     H17821   3.892  12.832   5.857  0.8644  2.1376 -1.0659
  873MOL0     H17822   3.774  12.931   5.776 -1.2026 -0.0482  0.1045
  873MOL0     H17823   3.666  12.938   5.977  4.4434  2.4521  2.6962
  873MOL0     H17824   3.636  12.760   5.959  0.5408 -1.9069  5.2833
  873MOL0     H17825   3.861  12.719   6.071 -1.5963  0.4916 -4.2359
  873MOL0     H17826   3.749  12.806   6.179 -0.7665  4.5602 -0.0998
  873MOL0     H17827   3.975  12.947   6.051  1.7399 -0.7375  0.4124
  873MOL0     H17828   3.843  13.020   6.135 -2.2899 -1.7994 -3.6688
  873MOL0     H17829   4.010  12.806   6.280 -0.6578 -1.1831 -1.9853
  873MOL0     H17830   3.882  12.909   6.339 -0.4634 -0.6919 -0.5563
  873MOL0     H17831   4.131  13.026   6.201 -0.7049 -2.3814 -1.1286
  873MOL0     H17832   4.016  13.116   6.290 -0.7702 -1.0625 -0.3670
  873MOL0     H17833   4.248  12.959   6.384  0.0250  0.7289 -2.2892
  873MOL0     H17834   4.114  12.902   6.468  0.3572 -0.5619 -0.9777
  873MOL0     H17835   4.130  13.211   6.459 -1.7821 -1.1218 -0.6390
  873MOL0     H17836   4.264  13.131   6.536  0.5624  0.3359 -3.7962
  873MOL0     H17837   3.934  12.879   5.618  0.4876 -0.2826  3.0421
  873MOL0     H17838   4.113  12.769   5.470 -0.1781  0.6436  1.4174
  873MOL0     H17839   4.318  12.428   5.324 -1.7464  1.1285  0.2433
  873MOL0     H17840   4.490  12.341   5.187 -0.4077  0.9261  1.3031
  873MOL0     H17841   5.422  10.751   4.217 -1.7777  0.7586 -3.1015
  873MOL0     H17842   5.677  10.765   4.227 -0.1523 -0.4444 -3.0102
  873MOL0     H17843   6.012  10.900   4.374 -2.9254 -0.5404 -1.8397
  873MOL0     H17844   6.253  10.871   4.431  2.9338  0.4468 -0.1731
  873MOL0     H17845   6.532  10.962   4.083  0.4725  0.5898  1.5834
  873MOL0     H17846   6.631  10.904   4.206  0.5587  0.4211 -1.0967
  873MOL0     H17847   6.540  10.714   4.055 -0.2568  1.2183 -0.3773
  873MOL0     H17848   6.385  10.763   4.109  0.4931 -0.8830 -0.8203
  873MOL0     H17849   6.463  10.701   4.349 -4.5550  0.0155 -1.5142
  873MOL0     H17850   6.615  10.637   4.279  0.2721 -0.2407  0.7574
  873MOL0     H17851   6.336  10.530   4.200  1.4663 -0.2616 -1.5187
  873MOL0     H17852   6.449  10.449   4.319  4.5106 -1.3481 -1.0527
  873MOL0     H17853   6.645  10.376   3.963 -2.2604  3.0375 -2.6034
  873MOL0     H17854   6.335  11.109   4.081  0.5608 -1.3765 -0.4810
  873MOL0     H17855   6.118  11.115   4.032  1.7853  1.8087 -0.4161
  874MOL0     O17856  10.792   9.689   5.547  0.4608  0.4614 -0.0814
  874MOL0     C17857  10.837   9.752   5.448 -0.1604 -0.4711 -0.7878
  874MOL0     O17858  10.757   9.810   5.347  0.3096 -0.6243 -0.6639
  874MOL0     C17859  10.625   9.803   5.353 -0.4276  0.1946 -0.5730
  874MOL0     C17860  10.568   9.683   5.316  0.1782 -1.0997 -0.0702
  874MOL0     C17861  10.424   9.678   5.293 -1.1471 -0.4000 -0.5624
  874MOL0     C17862  10.350   9.801   5.318 -0.7979  0.3474 -1.5160
  874MOL0     O17863  10.213   9.812   5.307  0.2775  0.1234 -0.0231
  874MOL0     C17864  10.160   9.781   5.183 -0.5696 -0.1997  0.5593
  874MOL0     C17865  10.010   9.791   5.197 -0.8522 -0.6952  0.0566
  874MOL0     C17866   9.970   9.946   5.211 -0.1265  0.0461 -0.3535
  874MOL0     C17867   9.818   9.953   5.205 -0.2844  0.4864 -0.3313
  874MOL0     C17868   9.736   9.880   5.323 -0.0676  0.3156  0.3609
  874MOL0     C17869   9.611   9.815   5.258 -0.3984  0.2423 -0.7958
  874MOL0     C17870   9.540   9.722   5.357  0.7312  0.3517  1.1694
  874MOL0     C17871   9.424   9.657   5.287  0.9429 -0.0686 -0.4902
  874MOL0     N17872   9.323   9.752   5.232 -0.3112 -0.5465 -0.0939
  874MOL0     C17873   9.265   9.740   5.107 -0.2086 -0.4460 -0.0794
  874MOL0     C17874   9.170   9.847   5.094 -0.3180  0.1880 -1.0660
  874MOL0     C17875   9.090   9.878   4.978  0.3948  0.2593  0.7581
  874MOL0     C17876   9.172   9.966   4.878  0.2187 -0.0773  0.5959
  874MOL0     C17877   9.166  10.118   4.929  0.1848 -0.1687 -0.9958
  874MOL0     C17878   9.168  10.224   4.821 -0.1602 -0.0164 -0.4017
  874MOL0     O17879   9.052  10.215   4.738 -0.0127  0.8094  0.0372
  874MOL0     C17880   8.961  10.312   4.732  0.1932  0.6574  0.4933
  874MOL0     C17881   8.877  10.342   4.835 -0.2890  0.1442  1.0109
  874MOL0     C17882   8.798  10.459   4.838  0.0376 -0.8933  0.0389
  874MOL0     C17883   8.721  10.482   4.970  0.0002  0.4669 -0.2557
  874MOL0     C17884   8.788  10.541   4.718  0.1678  0.5806 -1.4007
  874MOL0     C17885   8.688  10.654   4.702  0.1184 -0.7586  0.9051
  874MOL0     O17886   8.658  10.659   4.569  0.1562  0.8219  0.2490
  874MOL0     C17887   8.557  10.738   4.515 -0.3928  0.3120 -0.0722
  874MOL0     C17888   8.558  10.714   4.377 -0.2683 -0.8875 -0.1691
  874MOL0     C17889   8.460  10.763   4.297 -0.1266  0.1156 -0.5618
  874MOL0     C17890   8.361  10.845   4.352 -0.3677 -0.2238 -0.0529
  874MOL0     O17891   8.270  10.886   4.262  0.5051 -0.0883 -0.4496
  874MOL0     C17892   8.171  10.982   4.301 -0.3715  0.2073 -0.2816
  874MOL0     C17893   8.049  10.978   4.202 -0.2143  0.0020 -0.0265
  874MOL0     C17894   7.931  11.059   4.259 -0.1574 -1.0262 -0.5418
  874MOL0     C17895   7.796  11.049   4.185  0.2787 -0.7116  0.2330
  874MOL0     C17896   7.682  11.130   4.232  1.2540 -0.4724 -0.0055
  874MOL0     C17897   7.634  11.058   4.360 -0.1108  0.0393  0.6640
  874MOL0     C17898   7.530  11.140   4.435 -1.0799  0.9305 -0.6246
  874MOL0     C17899   7.393  11.103   4.388  0.8912  0.9431 -0.7528
  874MOL0    Cl17900   7.321  10.959   4.467  0.4843 -0.0597 -0.1704
  874MOL0     C17901   8.360  10.875   4.488  0.0477 -0.2824 -0.8136
  874MOL0     C17902   8.451  10.816   4.578 -1.1067  0.5443  0.4537
  874MOL0     O17903   8.647  10.734   4.793 -0.6086 -0.7196  0.3624
  874MOL0     C17904   8.864  10.500   4.610 -0.3359 -0.0643  0.9307
  874MOL0     C17905   8.949  10.394   4.609 -0.1962  0.6010 -0.9153
  874MOL0     N17906   9.190   9.927   5.203 -0.0282  0.5956  0.2303
  874MOL0     N17907   9.272   9.862   5.293 -0.9496 -0.5515  0.7695
  874MOL0     C17908  10.417   9.916   5.351  0.0752 -0.0435  0.1622
  874MOL0     C17909  10.552   9.919   5.365 -1.1397 -0.3956  0.6893
  874MOL0     C17910  10.985   9.758   5.429 -0.5168  0.0722 -0.6366
  874MOL0     C17911  11.048   9.816   5.317  0.4199 -0.4226  0.1390
  874MOL0     C17912  11.189   9.837   5.308 -0.4978 -0.3484  0.0207
  874MOL0     C17913  11.265   9.779   5.401 -0.4426 -0.5071  0.0266
  874MOL0     O17914  11.403   9.796   5.380  0.2611 -0.9328 -0.5212
  874MOL0     C17915  11.483   9.826   5.491 -0.0271  0.7558 -0.7142
  874MOL0     C17916  11.607   9.740   5.492 -0.1795 -0.3936 -0.1385
  874MOL0     C17917  11.711   9.774   5.377  0.6529  0.8628  0.4764
  874MOL0     C17918  11.781   9.900   5.390 -0.0056 -0.9310  0.1998
  874MOL0     C17919  11.877   9.909   5.281 -0.0742 -0.2458 -0.3845
  874MOL0     C17920  11.961   9.915   5.190  0.7201  0.6186 -0.2870
  874MOL0     C17921  11.204   9.698   5.500  0.5518  0.1632  0.3923
  874MOL0     C17922  11.069   9.693   5.513  0.1015  0.0724 -0.0169
  874MOL0     H17923  10.638   9.601   5.301  2.6373 -0.0741  4.0046
  874MOL0     H17924  10.377   9.593   5.245  0.5757 -1.3095 -0.7419
  874MOL0     H17925  10.202   9.854   5.113 -0.0263 -0.5321  0.5267
  874MOL0     H17926  10.186   9.681   5.145  0.1834  0.9096 -2.0848
  874MOL0     H17927   9.955   9.745   5.115 -3.7717 -0.9468  2.0074
  874MOL0     H17928   9.982   9.732   5.284 -0.4123 -1.4057 -0.2800
  874MOL0     H17929   9.994   9.975   5.314 -1.3327 -2.1120  0.6152
  874MOL0     H17930  10.008  10.015   5.136 -0.5187  0.3950 -0.2346
  874MOL0     H17931   9.780  10.055   5.200 -0.3408  0.4654 -0.3265
  874MOL0     H17932   9.795   9.908   5.108  1.9482  1.3731 -1.3332
  874MOL0     H17933   9.796   9.797   5.362 -0.2185 -0.8806 -1.7807
  874MOL0     H17934   9.710   9.947   5.405  1.3016  5.5919 -2.9726
  874MOL0     H17935   9.536   9.891   5.237  2.3322  2.7131 -2.4116
  874MOL0     H17936   9.646   9.760   5.170  2.6864  2.0773 -0.8757
  874MOL0     H17937   9.608   9.638   5.374 -0.7201 -1.5061 -1.5223
  874MOL0     H17938   9.501   9.770   5.447 -1.8261 -1.9492  1.4532
  874MOL0     H17939   9.368   9.593   5.355 -2.1623  0.5284 -2.2770
  874MOL0     H17940   9.465   9.599   5.203  0.3599  0.8011 -1.4050
  874MOL0     H17941   9.306   9.668   5.038 -0.6486 -1.2716  0.5084
  874MOL0     H17942   9.065   9.780   4.938  1.8698  0.4560 -0.7742
  874MOL0     H17943   8.989   9.915   4.997 -1.0459 -2.6214 -0.6494
  874MOL0     H17944   9.137   9.960   4.775  2.1071  2.4549 -0.3173
  874MOL0     H17945   9.272   9.922   4.883 -0.4102 -1.7549 -0.8592
  874MOL0     H17946   9.258  10.148   4.981 -1.1930  2.6881 -0.0037
  874MOL0     H17947   9.079  10.129   4.994 -0.5154  0.0048 -1.9309
  874MOL0     H17948   9.258  10.190   4.769 -0.3937 -1.0801 -0.1519
  874MOL0     H17949   9.181  10.327   4.856 -1.4233 -0.2612  0.8300
  874MOL0     H17950   8.870  10.275   4.921 -1.6977 -1.1586 -0.0619
  874MOL0     H17951   8.684  10.395   5.025 -1.1386  1.0304 -0.0767
  874MOL0     H17952   8.785  10.547   5.031 -0.1173  0.5993 -0.2723
  874MOL0     H17953   8.629  10.541   4.957 -1.0982 -0.0223  3.9627
  874MOL0     H17954   8.647  10.665   4.339 -0.4007 -0.8240 -0.5561
  874MOL0     H17955   8.438  10.730   4.196 -2.7294 -1.0714  0.3096
  874MOL0     H17956   8.136  10.965   4.403 -1.1208 -0.7606 -0.6832
  874MOL0     H17957   8.223  11.079   4.300  3.7871 -1.7919 -1.4459
  874MOL0     H17958   8.087  11.019   4.108  1.2476  0.2967  0.6622
  874MOL0     H17959   8.011  10.876   4.188  0.4977 -0.5786  1.8647
  874MOL0     H17960   7.971  11.160   4.272  1.0375 -1.7975  2.7295
  874MOL0     H17961   7.912  11.031   4.364 -1.1708 -0.7766 -0.6515
  874MOL0     H17962   7.808  11.094   4.086  1.9221  0.3488  0.8729
  874MOL0     H17963   7.755  10.948   4.172  0.0889 -0.6860  0.6065
  874MOL0     H17964   7.601  11.131   4.158  0.7208  0.1202  0.5847
  874MOL0     H17965   7.714  11.232   4.252  1.4692 -0.4033 -0.6564
  874MOL0     H17966   7.596  10.961   4.329  1.4958 -0.2389 -0.5487
  874MOL0     H17967   7.720  11.046   4.427 -0.5412 -1.2907  0.9996
  874MOL0     H17968   7.553  11.246   4.423 -0.6472  1.0948  1.3529
  874MOL0     H17969   7.536  11.123   4.542 -1.1877 -0.0451 -0.7657
  874MOL0     H17970   7.393  11.080   4.281  0.1601 -2.2228 -0.1770
  874MOL0     H17971   7.324  11.184   4.415  2.7081  2.1104  0.6147
  874MOL0     H17972   8.294  10.952   4.527  3.1259  2.1689  0.0975
  874MOL0     H17973   8.451  10.831   4.686 -2.1987 -1.6777  0.8305
  874MOL0     H17974   8.876  10.566   4.525 -0.2346  1.3574  2.0109
  874MOL0     H17975   9.018  10.366   4.530  0.8093  0.4991 -0.0288
  874MOL0     H17976  10.345   9.998   5.359  0.1719  0.2445 -1.5659
  874MOL0     H17977  10.609  10.010   5.381  0.3342 -0.6796 -2.2824
  874MOL0     H17978  10.986   9.870   5.246 -0.8468  1.5336  2.5885
  874MOL0     H17979  11.235   9.890   5.225 -1.7034  0.3475 -0.2292
  874MOL0     H17980  11.507   9.933   5.493 -2.0833  1.2450  0.4948
  874MOL0     H17981  11.423   9.802   5.579  3.4011 -0.8622  1.3816
  874MOL0     H17982  11.575   9.636   5.503 -4.6957  1.0233  3.4177
  874MOL0     H17983  11.671   9.755   5.580  2.2574  2.4905 -2.2123
  874MOL0     H17984  11.664   9.776   5.278 -0.6796  1.3335  1.0987
  874MOL0     H17985  11.776   9.686   5.375 -1.4515 -0.7709  0.1643
  874MOL0     H17986  11.845   9.888   5.478  2.3555 -0.4627 -1.3284
  874MOL0     H17987  11.720   9.990   5.400  0.8851 -0.3470  0.5373
  874MOL0     H17988  12.032   9.911   5.110 -0.1003  2.0116 -1.1349
  874MOL0     H17989  11.277   9.642   5.557  3.7380  2.2563 -1.3629
  874MOL0     H17990  11.023   9.634   5.591  0.8051 -0.7994 -0.2432
  875MOL0     O17991   4.158   8.689   3.226  0.5157  0.3445  0.0219
  875MOL0     C17992   4.203   8.708   3.121 -0.6970  0.0624  0.2293
  875MOL0     O17993   4.331   8.743   3.091 -0.4588 -0.3097  0.2084
  875MOL0     C17994   4.421   8.779   3.193  0.2465  0.4073 -0.4264
  875MOL0     C17995   4.421   8.898   3.257  0.1365  0.5361  0.1196
  875MOL0     C17996   4.522   8.932   3.357  0.4474  1.2561 -0.5898
  875MOL0     C17997   4.619   8.842   3.395 -0.4293 -0.9459 -0.9095
  875MOL0     O17998   4.706   8.880   3.499  0.3843 -0.6333  0.0258
  875MOL0     C17999   4.815   8.801   3.529 -1.1742  0.7743 -0.2614
  875MOL0     C18000   4.852   8.817   3.672 -0.0477 -0.4429 -0.2656
  875MOL0     C18001   4.989   8.753   3.708 -0.4318  0.4170  0.4973
  875MOL0     C18002   4.995   8.600   3.739  0.6843 -0.2862  0.7067
  875MOL0     C18003   5.139   8.559   3.773  1.0059 -0.1185  0.6207
  875MOL0     C18004   5.165   8.410   3.793 -0.2000 -0.7946 -0.5259
  875MOL0     C18005   5.312   8.378   3.787  0.2592 -0.1509 -0.0990
  875MOL0     C18006   5.395   8.463   3.879  0.7350 -0.3942 -0.2992
  875MOL0     N18007   5.531   8.423   3.860 -0.0081 -0.1546  0.2047
  875MOL0     C18008   5.626   8.506   3.911 -0.7081  0.0168 -0.2562
  875MOL0     C18009   5.744   8.464   3.864  0.3923 -0.0655  0.3708
  875MOL0     C18010   5.885   8.518   3.888  0.4918 -0.4620 -0.9841
  875MOL0     C18011   5.963   8.533   3.758  0.5908 -0.8352 -1.0014
  875MOL0     C18012   6.099   8.591   3.797 -0.6689  0.2271  0.3532
  875MOL0     C18013   6.179   8.640   3.684  0.9466 -0.7929 -0.6197
  875MOL0     O18014   6.214   8.551   3.578  0.3809  0.3551 -0.2375
  875MOL0     C18015   6.326   8.565   3.497  0.5262  0.4076  0.7374
  875MOL0     C18016   6.388   8.690   3.477 -0.0824 -0.3164 -0.7286
  875MOL0     C18017   6.474   8.700   3.367 -0.6030 -1.5021 -0.6682
  875MOL0     C18018   6.537   8.845   3.348 -0.3963  0.7845  0.5227
  875MOL0     C18019   6.500   8.598   3.278 -0.6968  0.5710 -0.2278
  875MOL0     C18020   6.573   8.615   3.145  0.0756 -0.3484  0.2100
  875MOL0     O18021   6.698   8.676   3.143 -0.5165 -0.0404  0.2698
  875MOL0     C18022   6.770   8.683   3.022  0.4957 -0.5616  0.0818
  875MOL0     C18023   6.880   8.602   2.998 -0.3931  0.5701  0.0933
  875MOL0     C18024   6.953   8.606   2.868  0.1051  0.8317 -1.0244
  875MOL0     C18025   6.923   8.711   2.778 -0.9492  0.6217  0.6346
  875MOL0     O18026   7.003   8.721   2.665 -0.1432  0.3261  0.3959
  875MOL0     C18027   7.009   8.607   2.570  0.3461  0.1889 -1.1961
  875MOL0     C18028   6.873   8.533   2.543 -0.5139  0.7128  0.0532
  875MOL0     C18029   6.901   8.396   2.475 -0.1752  0.2698  0.7279
  875MOL0     C18030   6.949   8.284   2.557  0.1163 -0.2229 -0.9747
  875MOL0     C18031   6.972   8.151   2.477  0.3161 -0.6060 -0.9854
  875MOL0     C18032   7.037   8.161   2.340 -0.3908 -0.4335 -0.5265
  875MOL0     C18033   7.189   8.207   2.354 -0.1539  0.2999  0.4269
  875MOL0     C18034   7.256   8.215   2.215  0.3367 -0.4663 -0.8562
  875MOL0    Cl18035   7.182   8.329   2.109  0.1897  0.5572  0.3930
  875MOL0     C18036   6.814   8.786   2.801 -0.2688 -0.5865 -0.3573
  875MOL0     C18037   6.738   8.773   2.920 -0.2345  0.0594  0.5186
  875MOL0     O18038   6.518   8.571   3.043  0.3939 -0.3303 -0.5663
  875MOL0     C18039   6.434   8.477   3.300  0.3359  0.3989 -0.2632
  875MOL0     C18040   6.352   8.459   3.410  0.1774 -0.0262  0.4573
  875MOL0     N18041   5.718   8.365   3.778  0.6118 -0.0011 -0.1254
  875MOL0     N18042   5.590   8.336   3.775 -0.2444 -0.2016 -0.7313
  875MOL0     C18043   4.615   8.718   3.335  0.7021 -0.6020 -0.1158
  875MOL0     C18044   4.526   8.689   3.227 -0.5117 -0.8557  0.5970
  875MOL0     C18045   4.115   8.678   3.007  0.3802  0.2405 -0.7679
  875MOL0     C18046   3.986   8.629   3.034 -0.0978 -0.1210  0.9785
  875MOL0     C18047   3.901   8.602   2.931  0.0973  0.3037 -0.1332
  875MOL0     C18048   3.941   8.609   2.798 -0.2170  0.0536 -1.0697
  875MOL0     O18049   3.869   8.581   2.686 -0.1231 -0.0665 -0.0282
  875MOL0     C18050   3.761   8.487   2.701  0.6296 -0.5184  0.0753
  875MOL0     C18051   3.826   8.347   2.724  0.0322 -1.0672 -0.6463
  875MOL0     C18052   3.938   8.301   2.621  0.3335  1.2451 -0.5476
  875MOL0     C18053   3.916   8.349   2.486  0.6153 -0.3401  0.2873
  875MOL0     C18054   4.018   8.277   2.400 -0.4357 -0.9618 -0.3256
  875MOL0     C18055   4.092   8.243   2.303 -0.3659  0.5495  0.0890
  875MOL0     C18056   4.070   8.653   2.763  1.0011  0.8347 -0.4183
  875MOL0     C18057   4.154   8.692   2.873  0.2737  1.1710 -0.8468
  875MOL0     H18058   4.352   8.979   3.234 -0.3762  0.4447  1.2869
  875MOL0     H18059   4.522   9.029   3.406  0.5768  2.1389 -2.2419
  875MOL0     H18060   4.806   8.696   3.502  2.2778  0.3011  0.0241
  875MOL0     H18061   4.903   8.828   3.469 -0.2415 -0.3949  0.5574
  875MOL0     H18062   4.861   8.922   3.700 -2.4869 -0.8581  2.5551
  875MOL0     H18063   4.766   8.782   3.730  1.0703 -1.9029  0.5672
  875MOL0     H18064   5.061   8.773   3.629  2.2690 -2.7757  1.9356
  875MOL0     H18065   5.026   8.812   3.793  1.8303 -1.8895  1.2174
  875MOL0     H18066   4.916   8.571   3.810  0.8193 -3.6110 -0.3339
  875MOL0     H18067   4.964   8.549   3.648 -2.3333  1.4836  0.5762
  875MOL0     H18068   5.194   8.591   3.684 -0.2175 -0.8180 -0.4087
  875MOL0     H18069   5.174   8.617   3.860  2.2108  0.3507 -0.1523
  875MOL0     H18070   5.128   8.392   3.894  1.1772  0.0930  0.1479
  875MOL0     H18071   5.125   8.357   3.706  0.1056  0.4467 -1.4544
  875MOL0     H18072   5.328   8.272   3.808  1.1703  0.1297  0.7273
  875MOL0     H18073   5.349   8.377   3.684 -1.9891 -3.7788 -1.0803
  875MOL0     H18074   5.372   8.443   3.985 -3.6408  0.2800 -0.9408
  875MOL0     H18075   5.372   8.569   3.867 -1.5069 -1.1345 -4.4300
  875MOL0     H18076   5.611   8.581   3.988 -0.4904  0.8085 -0.9695
  875MOL0     H18077   5.880   8.616   3.935  0.2315  0.3262 -2.5932
  875MOL0     H18078   5.929   8.447   3.959 -1.7420  0.8537  1.9148
  875MOL0     H18079   5.919   8.596   3.680  0.4155  1.6906  1.0128
  875MOL0     H18080   5.978   8.433   3.716  1.1288 -0.5803 -1.4341
  875MOL0     H18081   6.157   8.518   3.854  0.6331  0.3020 -0.8051
  875MOL0     H18082   6.083   8.679   3.860  4.2114  1.8674 -0.2465
  875MOL0     H18083   6.266   8.688   3.730 -1.0882  2.1970  0.4726
  875MOL0     H18084   6.125   8.725   3.640  0.6200  1.1077  3.0150
  875MOL0     H18085   6.366   8.773   3.543 -1.1429  0.0309 -1.4877
  875MOL0     H18086   6.476   8.929   3.382  0.0518  2.8310 -3.1682
  875MOL0     H18087   6.629   8.841   3.407 -0.4337  0.3190  0.5525
  875MOL0     H18088   6.556   8.864   3.242  1.1621 -0.0725  0.6089
  875MOL0     H18089   6.887   8.521   3.069  0.8246  1.0886  0.5922
  875MOL0     H18090   7.043   8.548   2.849  0.1152  0.3293  0.4761
  875MOL0     H18091   7.043   8.657   2.479 -0.0424  1.2677 -0.7634
  875MOL0     H18092   7.079   8.536   2.614 -1.2154 -0.3152  0.6379
  875MOL0     H18093   6.827   8.506   2.638 -0.8587  0.3240 -0.2195
  875MOL0     H18094   6.814   8.597   2.477  2.4327  1.9107 -1.6323
  875MOL0     H18095   6.966   8.415   2.388  0.6281  3.1253  1.8238
  875MOL0     H18096   6.807   8.352   2.440 -1.3390  2.5113  0.8310
  875MOL0     H18097   7.045   8.318   2.598 -0.6183  1.1328 -0.2993
  875MOL0     H18098   6.882   8.278   2.643  4.0016 -0.5644  2.3334
  875MOL0     H18099   6.874   8.104   2.462 -0.6336  1.3901 -1.3718
  875MOL0     H18100   7.021   8.073   2.536 -2.3419 -2.6706 -1.3438
  875MOL0     H18101   7.037   8.064   2.290  5.1978 -0.6140 -0.8041
  875MOL0     H18102   6.986   8.225   2.268 -1.5800 -3.2693 -2.4030
  875MOL0     H18103   7.251   8.145   2.420  1.6499  2.1541  0.6042
  875MOL0     H18104   7.182   8.307   2.399 -1.4436  2.8882 -4.7032
  875MOL0     H18105   7.241   8.122   2.158 -2.5427 -0.4726 -0.2698
  875MOL0     H18106   7.357   8.252   2.235 -0.5300  1.2187  0.6522
  875MOL0     H18107   6.792   8.845   2.713  0.0804 -0.0542 -0.0897
  875MOL0     H18108   6.646   8.828   2.932 -0.3872 -0.6634  3.0937
  875MOL0     H18109   6.445   8.396   3.228  2.2567 -0.3045  0.7479
  875MOL0     H18110   6.279   8.380   3.421 -0.5387  0.2967 -1.5479
  875MOL0     H18111   4.676   8.640   3.378  4.0332  1.5212 -0.6842
  875MOL0     H18112   4.522   8.591   3.181 -0.9255 -0.6388  0.1674
  875MOL0     H18113   3.954   8.618   3.137 -2.4303  0.6640  0.4066
  875MOL0     H18114   3.805   8.561   2.962 -1.3041  2.1984 -1.6945
  875MOL0     H18115   3.693   8.512   2.783  0.3872 -2.1110  0.3964
  875MOL0     H18116   3.700   8.501   2.612 -0.9463 -0.6446  1.1046
  875MOL0     H18117   3.756   8.265   2.742  0.0951 -1.8511 -3.4459
  875MOL0     H18118   3.872   8.357   2.823  1.2078 -1.3591 -1.1447
  875MOL0     H18119   3.938   8.192   2.612  0.8568  1.3555 -2.2585
  875MOL0     H18120   4.032   8.348   2.652  0.8008  1.1966 -1.7999
  875MOL0     H18121   3.936   8.455   2.469  1.9381 -0.8405 -1.6491
  875MOL0     H18122   3.812   8.328   2.460  1.3861 -2.2448 -1.4938
  875MOL0     H18123   4.153   8.223   2.218  0.6350  0.1711  0.8646
  875MOL0     H18124   4.106   8.659   2.661  1.3346 -0.7943 -0.4335
  875MOL0     H18125   4.244   8.747   2.848  0.5148  1.5387  0.7216
  876MOL0     O18126   4.682   3.880   1.041 -0.4434 -0.3499  0.7440
  876MOL0     C18127   4.663   3.867   1.161  0.7326  0.0963  0.6689
  876MOL0     O18128   4.659   3.745   1.224 -0.5505  0.4413  0.7028
  876MOL0     C18129   4.737   3.637   1.169  0.4920 -0.4468  0.4606
  876MOL0     C18130   4.855   3.655   1.097 -0.6437  0.3156  0.2914
  876MOL0     C18131   4.936   3.551   1.054  1.2724  0.2062 -0.6431
  876MOL0     C18132   4.885   3.420   1.070  0.4437  1.1363 -0.4180
  876MOL0     O18133   4.948   3.299   1.039  0.1082  0.2480  0.0643
  876MOL0     C18134   5.089   3.316   1.026  0.1435 -0.1257 -0.9180
  876MOL0     C18135   5.148   3.172   1.024  0.0880  0.4833  0.1097
  876MOL0     C18136   5.312   3.180   1.019  0.2083  0.3655 -1.6419
  876MOL0     C18137   5.383   3.048   1.040  0.3403 -0.2674 -0.1259
  876MOL0     C18138   5.422   2.978   0.906  0.6490  0.0788  1.1450
  876MOL0     C18139   5.501   2.851   0.934 -0.0510 -0.3826 -0.2923
  876MOL0     C18140   5.487   2.761   0.806  0.5173  0.6555  0.4911
  876MOL0     C18141   5.581   2.635   0.826 -0.0127  0.8639  0.6888
  876MOL0     N18142   5.553   2.547   0.710  0.4396 -0.8830  0.7695
  876MOL0     C18143   5.551   2.411   0.713 -0.2737  0.5396 -0.9766
  876MOL0     C18144   5.537   2.375   0.586  0.5415  0.0605  0.0524
  876MOL0     C18145   5.556   2.227   0.542  0.3362  0.5339 -0.4765
  876MOL0     C18146   5.431   2.152   0.594 -0.0314  0.5439 -0.5647
  876MOL0     C18147   5.302   2.171   0.520  0.5687 -0.2635 -0.6141
  876MOL0     C18148   5.307   2.169   0.368  1.1509  0.8194  0.5325
  876MOL0     O18149   5.182   2.219   0.326  0.5357 -0.2845 -0.2178
  876MOL0     C18150   5.059   2.155   0.319 -0.5692  0.5801 -0.3602
  876MOL0     C18151   5.047   2.016   0.311  0.4864 -0.3404  0.1411
  876MOL0     C18152   4.917   1.953   0.306  0.3548  0.1596 -0.5931
  876MOL0     C18153   4.923   1.802   0.316  0.4160  0.4410 -0.5899
  876MOL0     C18154   4.800   2.038   0.293  0.5908 -0.8361  0.4235
  876MOL0     C18155   4.662   1.988   0.276  0.1685 -0.7033  0.4045
  876MOL0     O18156   4.648   1.854   0.252  0.5002  0.6526  0.7115
  876MOL0     C18157   4.550   1.780   0.321  0.0827  0.3917 -0.0821
  876MOL0     C18158   4.450   1.836   0.405  1.1487  0.2249  0.4620
  876MOL0     C18159   4.365   1.750   0.478 -1.0158  0.6065  0.0219
  876MOL0     C18160   4.380   1.616   0.475  0.8455  0.8662 -0.1090
  876MOL0     O18161   4.300   1.539   0.554  0.6208  1.0212 -0.4642
  876MOL0     C18162   4.359   1.440   0.650 -0.5933 -0.0751 -0.1084
  876MOL0     C18163   4.458   1.505   0.745  0.7179  0.3033  0.1751
  876MOL0     C18164   4.514   1.415   0.858 -0.7461  0.0133  1.0147
  876MOL0     C18165   4.621   1.482   0.936  0.2704 -0.1501 -0.0175
  876MOL0     C18166   4.607   1.439   1.084 -0.4324  0.0395 -0.0831
  876MOL0     C18167   4.733   1.489   1.167 -0.0358 -0.1198 -0.2626
  876MOL0     C18168   4.748   1.445   1.313  0.6652  0.4874  0.8220
  876MOL0     C18169   4.887   1.403   1.337  0.0016 -0.2522 -1.6913
  876MOL0    Cl18170   4.896   1.385   1.509 -0.6625  0.1914  0.5150
  876MOL0     C18171   4.482   1.559   0.389 -0.0207 -0.2111  0.5871
  876MOL0     C18172   4.560   1.641   0.311  0.3053 -0.1969 -0.1371
  876MOL0     O18173   4.571   2.066   0.271  0.2451 -0.3075 -0.1306
  876MOL0     C18174   4.825   2.180   0.285 -0.4564 -0.2179  0.2750
  876MOL0     C18175   4.952   2.230   0.294  0.7029  0.0881 -0.6351
  876MOL0     N18176   5.525   2.483   0.500  0.2128 -0.2192 -0.3910
  876MOL0     N18177   5.532   2.584   0.577 -0.0415 -0.2623 -0.7448
  876MOL0     C18178   4.761   3.408   1.124 -0.1478  0.0495 -0.8108
  876MOL0     C18179   4.690   3.506   1.187 -0.5804  0.2878  0.0236
  876MOL0     C18180   4.612   3.976   1.238 -0.5358 -0.6998 -1.1498
  876MOL0     C18181   4.626   4.106   1.183  0.6648 -1.0192  0.3607
  876MOL0     C18182   4.580   4.222   1.257 -0.1857  0.0937  0.8540
  876MOL0     C18183   4.522   4.208   1.382  0.6177  0.4749  0.0548
  876MOL0     O18184   4.474   4.321   1.446  0.4343  1.1231 -0.0121
  876MOL0     C18185   4.380   4.307   1.559 -0.8186  0.3597  0.2176
  876MOL0     C18186   4.338   4.448   1.608 -0.7447  0.1422 -0.5874
  876MOL0     C18187   4.240   4.522   1.510  0.1003 -0.4903 -0.0724
  876MOL0     C18188   4.115   4.455   1.454 -0.0402 -0.6377  0.0606
  876MOL0     C18189   4.030   4.402   1.560 -0.2798  0.3120 -0.5065
  876MOL0     C18190   3.951   4.375   1.644  0.3305 -0.7302 -0.7384
  876MOL0     C18191   4.526   4.080   1.444 -0.3943  0.6907 -0.2500
  876MOL0     C18192   4.577   3.966   1.378  0.7601  0.2315 -0.9125
  876MOL0     H18193   4.892   3.757   1.092  0.3269  0.1108  2.3631
  876MOL0     H18194   5.035   3.560   1.012  0.6202  1.8773 -1.9567
  876MOL0     H18195   5.112   3.354   0.926  0.9316  4.4497  0.7944
  876MOL0     H18196   5.136   3.374   1.106 -0.7634  2.4092 -2.1499
  876MOL0     H18197   5.123   3.120   1.116  3.1015 -2.8637 -0.7214
  876MOL0     H18198   5.118   3.112   0.938 -0.8501  0.5862  0.3552
  876MOL0     H18199   5.328   3.235   0.926 -2.1368  2.6085 -0.8443
  876MOL0     H18200   5.346   3.246   1.099  2.0308  2.4251 -3.9752
  876MOL0     H18201   5.477   3.073   1.089  0.2166 -1.1559  0.5963
  876MOL0     H18202   5.322   2.994   1.113 -0.3130 -0.3088 -0.6829
  876MOL0     H18203   5.334   2.955   0.844  3.4344 -1.1433 -2.7078
  876MOL0     H18204   5.479   3.048   0.844 -1.1329 -2.7552 -4.4585
  876MOL0     H18205   5.608   2.869   0.944 -0.4793  1.5206  1.3716
  876MOL0     H18206   5.463   2.808   1.027  2.5714 -0.8927  0.6143
  876MOL0     H18207   5.386   2.718   0.806  0.5834  0.4179  2.1682
  876MOL0     H18208   5.513   2.802   0.708  1.6149 -1.8351 -0.3377
  876MOL0     H18209   5.562   2.578   0.917 -1.1954 -5.5913 -2.9867
  876MOL0     H18210   5.689   2.654   0.835 -0.2135  1.6323  1.7860
  876MOL0     H18211   5.588   2.361   0.802  3.5651  1.4319 -1.8933
  876MOL0     H18212   5.569   2.216   0.434  2.1512  3.4790 -0.6482
  876MOL0     H18213   5.647   2.192   0.591 -0.4616 -1.1727 -0.1382
  876MOL0     H18214   5.424   2.195   0.695 -0.6844  3.0437 -1.5900
  876MOL0     H18215   5.444   2.044   0.601 -0.3276  0.4823 -0.9692
  876MOL0     H18216   5.264   2.267   0.559  2.4973 -0.4126  1.8491
  876MOL0     H18217   5.235   2.097   0.564  0.2097  0.3272 -0.1408
  876MOL0     H18218   5.321   2.070   0.322  1.2603  0.9532  0.2739
  876MOL0     H18219   5.376   2.242   0.323  0.7755  0.7517 -0.1749
  876MOL0     H18220   5.126   1.942   0.328 -1.6487 -2.4065  1.8273
  876MOL0     H18221   5.013   1.765   0.365 -1.0094 -1.4421  0.7488
  876MOL0     H18222   4.837   1.763   0.371 -1.6742  3.7013 -1.2433
  876MOL0     H18223   4.927   1.764   0.214  0.6546 -1.1655 -0.0160
  876MOL0     H18224   4.441   1.941   0.432  0.4010 -0.4304  3.1334
  876MOL0     H18225   4.295   1.785   0.553 -2.6836 -3.1708  0.4881
  876MOL0     H18226   4.269   1.407   0.703 -1.7587  1.7293 -0.8683
  876MOL0     H18227   4.410   1.356   0.602  3.1535  2.1756 -0.4350
  876MOL0     H18228   4.545   1.540   0.688 -0.8397  1.3220 -1.6893
  876MOL0     H18229   4.415   1.596   0.787 -0.8551  0.0070 -0.7238
  876MOL0     H18230   4.550   1.331   0.797 -1.7303  2.6849 -3.7789
  876MOL0     H18231   4.430   1.387   0.922 -2.0722 -3.9113 -2.0504
  876MOL0     H18232   4.716   1.440   0.901  0.8949  0.4522  0.8821
  876MOL0     H18233   4.610   1.590   0.924 -0.7308 -0.3368 -0.8682
  876MOL0     H18234   4.591   1.332   1.101 -1.7069  0.5090  2.0969
  876MOL0     H18235   4.516   1.477   1.130  0.2901 -1.5196  2.8921
  876MOL0     H18236   4.820   1.446   1.116 -0.0210 -4.1026  2.6055
  876MOL0     H18237   4.738   1.597   1.149 -2.0233 -0.2992 -2.2728
  876MOL0     H18238   4.682   1.358   1.325 -0.3910  1.4572  2.4770
  876MOL0     H18239   4.712   1.524   1.380 -0.7712  0.0174  0.6504
  876MOL0     H18240   4.951   1.486   1.305 -3.6200  1.7658 -4.3174
  876MOL0     H18241   4.916   1.314   1.281  1.2857  0.5205 -2.3272
  876MOL0     H18242   4.485   1.451   0.391  0.2789 -0.2224 -0.2144
  876MOL0     H18243   4.637   1.591   0.254  0.1334 -3.3539  2.1185
  876MOL0     H18244   4.741   2.247   0.273  0.9297  1.7727  1.0925
  876MOL0     H18245   4.960   2.338   0.287  0.3760  0.0118 -5.2288
  876MOL0     H18246   4.732   3.305   1.140  0.4835  0.0950  0.8624
  876MOL0     H18247   4.606   3.477   1.249 -0.6065  1.7059  0.6847
  876MOL0     H18248   4.665   4.128   1.085  1.5115  1.5819  1.1939
  876MOL0     H18249   4.614   4.312   1.206  2.9967 -2.9149 -2.9775
  876MOL0     H18250   4.297   4.240   1.534 -0.5705  0.5093 -1.0596
  876MOL0     H18251   4.417   4.249   1.644 -2.3449  1.2787  1.5685
  876MOL0     H18252   4.429   4.505   1.629  0.8133 -0.4083 -4.8567
  876MOL0     H18253   4.288   4.428   1.703 -0.2489  1.0242 -0.1204
  876MOL0     H18254   4.292   4.561   1.422 -3.9645  1.6362 -1.8174
  876MOL0     H18255   4.202   4.609   1.564  0.3471  0.0697 -0.7842
  876MOL0     H18256   4.133   4.369   1.389 -0.8344 -0.1482 -0.8259
  876MOL0     H18257   4.059   4.535   1.406  0.2715 -0.2325  0.3696
  876MOL0     H18258   3.890   4.362   1.731  1.4121 -0.0503  0.1561
  876MOL0     H18259   4.481   4.054   1.539 -1.0526 -0.2407 -0.8037
  876MOL0     H18260   4.580   3.869   1.427 -2.4136 -0.1345 -1.2677
  877MOL0     O18261   2.598   5.186   2.599  0.2539 -0.3190 -0.0057
  877MOL0     C18262   2.616   5.166   2.720 -0.9885 -0.2827 -0.0244
  877MOL0     O18263   2.532   5.197   2.831  0.3838  0.2823  0.3827
  877MOL0     C18264   2.408   5.255   2.825  0.2092 -0.4632 -0.6232
  877MOL0     C18265   2.366   5.343   2.930  0.3058  0.1375  0.2632
  877MOL0     C18266   2.248   5.416   2.930 -0.1949 -0.1674  0.0610
  877MOL0     C18267   2.161   5.394   2.818 -0.8770 -0.4405 -0.5608
  877MOL0     O18268   2.035   5.452   2.820 -0.3294 -0.6399  0.1341
  877MOL0     C18269   1.945   5.418   2.931  0.6961  0.4608  0.0784
  877MOL0     C18270   1.878   5.551   2.975  0.1882  0.8642  0.1257
  877MOL0     C18271   1.751   5.514   3.064 -0.4923 -1.2966 -1.1110
  877MOL0     C18272   1.728   5.629   3.171  0.5842 -0.4692 -0.2186
  877MOL0     C18273   1.586   5.616   3.228  0.1048  0.6463  0.0592
  877MOL0     C18274   1.541   5.477   3.268 -1.0657 -0.0354  1.3458
  877MOL0     C18275   1.416   5.484   3.333 -0.2864 -0.0567 -0.2075
  877MOL0     C18276   1.350   5.347   3.362  0.1559  0.0565 -0.4520
  877MOL0     N18277   1.215   5.366   3.403 -0.1083  0.1273 -0.4133
  877MOL0     C18278   1.167   5.415   3.523 -0.8210 -0.1121 -0.5400
  877MOL0     C18279   1.038   5.456   3.488 -0.7004  0.9166 -0.0858
  877MOL0     C18280   0.963   5.532   3.598  0.7053 -0.1547  0.2095
  877MOL0     C18281   0.870   5.646   3.540 -0.4659 -0.0804 -0.0066
  877MOL0     C18282   0.955   5.744   3.468 -0.6661 -0.6068  0.8263
  877MOL0     C18283   0.870   5.833   3.381  0.3925  0.0999  0.0539
  877MOL0     O18284   0.941   5.954   3.380  0.8498  0.3524  0.3429
  877MOL0     C18285   0.935   6.040   3.263 -0.1006 -0.0564  0.3523
  877MOL0     C18286   0.993   6.167   3.276 -0.5488 -0.3506  0.5800
  877MOL0     C18287   1.002   6.269   3.168 -0.1837  0.2549  0.8508
  877MOL0     C18288   1.067   6.403   3.206 -0.3191 -0.7469 -1.3713
  877MOL0     C18289   0.958   6.230   3.037 -0.3836  0.3896  0.3035
  877MOL0     C18290   0.975   6.306   2.916 -0.8327  0.8062 -0.2887
  877MOL0     O18291   0.858   6.314   2.840 -0.0865  0.2636 -0.2144
  877MOL0     C18292   0.843   6.413   2.745  0.7072  0.3109  0.0127
  877MOL0     C18293   0.726   6.401   2.678 -0.4896  0.4101  0.1531
  877MOL0     C18294   0.677   6.499   2.599 -0.0922 -0.1703  0.1286
  877MOL0     C18295   0.755   6.612   2.562 -0.1780  0.8416 -0.3150
  877MOL0     O18296   0.707   6.715   2.484 -0.6742 -0.3734 -0.6958
  877MOL0     C18297   0.580   6.772   2.512  0.3056  0.1913  0.6118
  877MOL0     C18298   0.580   6.837   2.644  0.3518 -0.5140  0.1136
  877MOL0     C18299   0.459   6.925   2.681  0.1656 -0.2093 -0.4341
  877MOL0     C18300   0.457   7.063   2.608 -0.3905  0.6675 -0.0828
  877MOL0     C18301   0.351   7.168   2.662  0.5560  0.0215  0.4269
  877MOL0     C18302   0.355   7.293   2.591 -0.6461 -0.0685  0.5111
  877MOL0     C18303   0.311   7.296   2.438  0.6104 -0.4712  0.0209
  877MOL0     C18304   0.295   7.433   2.388 -0.4425 -1.2875 -0.1881
  877MOL0    Cl18305   0.151   7.504   2.462 -0.3958 -0.2633 -0.5123
  877MOL0     C18306   0.887   6.619   2.617  0.4651  0.9935 -0.0800
  877MOL0     C18307   0.935   6.521   2.709  0.0534  0.2465  0.2490
  877MOL0     O18308   1.087   6.338   2.889 -0.4437 -0.0935 -0.2795
  877MOL0     C18309   0.899   6.102   3.032  0.0759 -0.0054  0.8368
  877MOL0     C18310   0.887   6.009   3.134 -0.4940  1.6948 -0.0381
  877MOL0     N18311   1.007   5.420   3.363  0.4209 -1.6498  0.3637
  877MOL0     N18312   1.109   5.363   3.313 -0.1670  0.0584 -0.6888
  877MOL0     C18313   2.199   5.313   2.717  0.2785 -0.3624  0.3046
  877MOL0     C18314   2.316   5.237   2.723 -0.1473 -0.4562 -0.2593
  877MOL0     C18315   2.743   5.090   2.751 -0.5169  0.8103 -0.0437
  877MOL0     C18316   2.821   5.030   2.654  0.5087  0.5404  0.5292
  877MOL0     C18317   2.931   4.957   2.688 -0.0387  0.3195 -0.6826
  877MOL0     C18318   2.964   4.921   2.818 -0.2820 -0.5677  0.1565
  877MOL0     O18319   3.066   4.841   2.847 -0.6761 -0.2562 -0.6325
  877MOL0     C18320   3.191   4.908   2.826  0.5114 -1.0836 -0.5156
  877MOL0     C18321   3.227   4.980   2.957 -0.1414  0.3370  1.2619
  877MOL0     C18322   3.255   4.879   3.067 -0.4389  0.3569  0.6109
  877MOL0     C18323   3.291   4.941   3.202  0.1436  0.1344  0.3960
  877MOL0     C18324   3.280   4.833   3.308  0.0592 -1.1985  0.1908
  877MOL0     C18325   3.258   4.760   3.398  0.9795  0.5030 -0.3717
  877MOL0     C18326   2.879   4.966   2.920 -0.2088 -0.2158  0.1963
  877MOL0     C18327   2.785   5.062   2.884  0.6327 -0.3794 -0.4265
  877MOL0     H18328   2.431   5.363   3.015 -0.0669  3.7759 -0.1715
  877MOL0     H18329   2.215   5.481   3.010  0.1569  0.3149 -0.1808
  877MOL0     H18330   1.870   5.339   2.920  1.3735  0.0908 -2.5456
  877MOL0     H18331   2.010   5.389   3.013  0.1332  1.9303  1.0997
  877MOL0     H18332   1.951   5.596   3.042  0.0955 -0.9303  1.5144
  877MOL0     H18333   1.852   5.616   2.891 -2.9349  1.6396  1.5290
  877MOL0     H18334   1.665   5.503   2.997 -0.3050  2.0155 -2.0803
  877MOL0     H18335   1.755   5.418   3.117  0.9554 -0.2021  0.9160
  877MOL0     H18336   1.799   5.613   3.253  0.7391  1.6532  0.1157
  877MOL0     H18337   1.732   5.731   3.133 -2.9902 -0.1409 -0.0521
  877MOL0     H18338   1.574   5.690   3.309 -2.0091 -1.4157  1.7767
  877MOL0     H18339   1.516   5.644   3.149 -1.2835 -0.3378  0.8833
  877MOL0     H18340   1.534   5.402   3.188  0.3955 -1.5880  2.6011
  877MOL0     H18341   1.619   5.443   3.336 -2.3161  1.3870  3.6155
  877MOL0     H18342   1.452   5.527   3.426 -0.9078 -0.4328  0.2155
  877MOL0     H18343   1.341   5.545   3.282 -4.0741 -0.2481  4.4311
  877MOL0     H18344   1.405   5.303   3.446 -1.4732  2.5207  2.0612
  877MOL0     H18345   1.362   5.292   3.268 -0.9684  0.6061 -0.9218
  877MOL0     H18346   1.215   5.425   3.620  0.3024  1.4551 -1.2202
  877MOL0     H18347   0.888   5.473   3.651 -0.6954  1.4605  0.1352
  877MOL0     H18348   1.029   5.572   3.676  1.7712  1.2674 -1.3426
  877MOL0     H18349   0.811   5.689   3.622  0.5688 -0.8172  1.1573
  877MOL0     H18350   0.798   5.593   3.478 -1.4452  0.6518  0.4674
  877MOL0     H18351   1.035   5.702   3.406 -2.3886 -0.4452 -1.6991
  877MOL0     H18352   0.994   5.811   3.545  0.0637  2.0421 -1.6698
  877MOL0     H18353   0.772   5.841   3.429 -0.6015 -2.5576 -1.2942
  877MOL0     H18354   0.856   5.793   3.280  1.9670 -2.9259  0.9127
  877MOL0     H18355   1.031   6.196   3.374  0.6884 -0.5126  0.1695
  877MOL0     H18356   1.174   6.415   3.186 -0.2266  1.6719  0.1613
  877MOL0     H18357   1.015   6.492   3.171  3.2789  2.4117  0.5163
  877MOL0     H18358   1.048   6.412   3.313  0.9894  1.6624 -1.2744
  877MOL0     H18359   0.657   6.324   2.711  0.0925 -0.3147 -0.2995
  877MOL0     H18360   0.584   6.476   2.548  0.0682 -5.1110  1.5885
  877MOL0     H18361   0.571   6.857   2.444  0.7439 -0.0075  0.3025
  877MOL0     H18362   0.493   6.708   2.494 -0.9818  1.8664  0.6076
  877MOL0     H18363   0.578   6.756   2.717  0.5855 -2.3058 -1.7707
  877MOL0     H18364   0.672   6.896   2.635 -0.5574  0.8967 -0.3124
  877MOL0     H18365   0.465   6.943   2.789  0.9472  1.0052 -0.6621
  877MOL0     H18366   0.367   6.870   2.659  0.4691 -0.9127  0.0447
  877MOL0     H18367   0.557   7.106   2.603  0.9823 -2.3028 -0.7991
  877MOL0     H18368   0.419   7.044   2.507 -1.9383  1.3033  0.3445
  877MOL0     H18369   0.391   7.177   2.763 -0.7888 -1.6988  1.1674
  877MOL0     H18370   0.249   7.133   2.682 -0.9110  4.8323  2.9369
  877MOL0     H18371   0.292   7.365   2.645 -1.2959  0.7736 -1.2839
  877MOL0     H18372   0.460   7.323   2.593  0.8452 -4.5914  0.6219
  877MOL0     H18373   0.211   7.251   2.437 -0.3308  1.3911  1.8974
  877MOL0     H18374   0.379   7.248   2.368 -1.3275 -1.2325 -1.4486
  877MOL0     H18375   0.290   7.437   2.279  2.6360  0.5541 -0.3875
  877MOL0     H18376   0.378   7.501   2.409 -2.9344  1.8299  0.2152
  877MOL0     H18377   0.954   6.704   2.608  0.4511  0.7956 -2.8601
  877MOL0     H18378   1.035   6.531   2.750  0.5553 -1.8995 -0.3366
  877MOL0     H18379   0.857   6.080   2.935  0.5000  4.1651 -0.4847
  877MOL0     H18380   0.841   5.913   3.115  1.0263  0.8897  0.1848
  877MOL0     H18381   2.134   5.293   2.633  0.4348 -0.7468  0.2715
  877MOL0     H18382   2.346   5.166   2.647 -1.5480  0.0160 -1.2941
  877MOL0     H18383   2.790   5.045   2.551 -0.6463 -0.0503  0.7696
  877MOL0     H18384   2.991   4.901   2.617  1.9406  1.1710  0.2465
  877MOL0     H18385   3.264   4.832   2.796 -0.2208 -2.5153  1.1469
  877MOL0     H18386   3.170   4.984   2.750 -0.8116 -0.6510  0.2402
  877MOL0     H18387   3.150   5.045   3.000  0.5461  0.6615  2.0335
  877MOL0     H18388   3.315   5.043   2.939 -0.5225  1.5801  3.3091
  877MOL0     H18389   3.341   4.817   3.040  1.3634  1.6802  2.8985
  877MOL0     H18390   3.172   4.808   3.076  0.8123 -2.5388 -5.3000
  877MOL0     H18391   3.229   5.026   3.234  0.9163  0.8754 -0.0564
  877MOL0     H18392   3.390   4.987   3.198  2.6705 -4.6816 -0.0627
  877MOL0     H18393   3.248   4.682   3.471  0.3245 -1.6847 -2.6545
  877MOL0     H18394   2.908   4.943   3.023 -0.1942 -1.9944 -0.1695
  877MOL0     H18395   2.724   5.097   2.967  1.5356 -0.3558  0.2480
  878MOL0     O18396   1.002   8.099   9.919 -0.0010  0.3865 -0.3165
  878MOL0     C18397   1.029   8.209   9.870 -0.1494 -0.5091  0.4638
  878MOL0     O18398   1.152   8.272   9.866 -1.2754  1.0706  0.0275
  878MOL0     C18399   1.263   8.220   9.935  0.7422  0.4440 -0.1273
  878MOL0     C18400   1.292   8.084   9.943  0.6259  0.1808 -0.2822
  878MOL0     C18401   1.417   8.041   9.990 -0.1312  0.3829  0.6707
  878MOL0     C18402   1.507   8.131  10.049  0.0981 -0.1907  0.4368
  878MOL0     O18403   1.639   8.092  10.082  0.6085 -0.7087 -0.3718
  878MOL0     C18404   1.695   7.983  10.008  0.9471  0.3309  0.1100
  878MOL0     C18405   1.836   7.999  10.053  0.1577  0.3349 -0.2032
  878MOL0     C18406   1.923   7.882  10.011  0.1743  0.6836 -0.3801
  878MOL0     C18407   1.924   7.777  10.115 -0.2348 -0.1660  0.5655
  878MOL0     C18408   2.014   7.652  10.072 -0.0994 -0.2314  0.6896
  878MOL0     C18409   1.998   7.534  10.168  0.3547 -0.7171 -0.7763
  878MOL0     C18410   2.070   7.551  10.300 -0.5633 -0.2727 -0.3626
  878MOL0     C18411   2.020   7.460  10.414  0.5193  0.6615  0.6688
  878MOL0     N18412   2.064   7.506  10.548 -0.1557 -0.5278  0.5360
  878MOL0     C18413   2.045   7.438  10.666 -0.0833 -0.3393  0.0067
  878MOL0     C18414   2.071   7.528  10.761  0.4644 -0.9853 -0.7880
  878MOL0     C18415   2.075   7.494  10.908 -0.2348  0.0837 -0.3640
  878MOL0     C18416   1.971   7.574  11.003 -0.5653 -0.8051 -0.0819
  878MOL0     C18417   2.006   7.721  11.013 -0.6904  0.0226 -0.2876
  878MOL0     C18418   1.933   7.786  11.125  0.6402 -0.0664 -0.6223
  878MOL0     O18419   1.797   7.822  11.079 -1.2131 -0.2030 -0.2921
  878MOL0     C18420   1.697   7.879  11.152  0.2292 -0.5806 -0.1462
  878MOL0     C18421   1.709   7.914  11.287  1.3906  0.1911  0.0184
  878MOL0     C18422   1.604   7.986  11.339 -0.5963 -0.0581  0.3830
  878MOL0     C18423   1.614   8.049  11.485 -0.4136  0.1494  0.0483
  878MOL0     C18424   1.488   8.024  11.267 -0.2537 -0.2890  0.5990
  878MOL0     C18425   1.367   8.101  11.317  0.2314 -0.1145  0.5168
  878MOL0     O18426   1.320   8.197  11.224 -0.0340  0.1466  0.4631
  878MOL0     C18427   1.209   8.268  11.251 -0.1772  0.0077 -0.9498
  878MOL0     C18428   1.196   8.402  11.195  0.3375 -0.1278 -0.1022
  878MOL0     C18429   1.091   8.484  11.249  0.3945  0.0781 -0.1787
  878MOL0     C18430   0.989   8.435  11.331  0.1760  0.2767 -0.3831
  878MOL0     O18431   0.908   8.533  11.359  0.0242 -0.4766 -0.3341
  878MOL0     C18432   0.816   8.501  11.464  0.4700  0.4499  0.0082
  878MOL0     C18433   0.749   8.625  11.521 -0.1087  0.4441 -0.1073
  878MOL0     C18434   0.681   8.707  11.420 -0.0206 -0.4992  0.2562
  878MOL0     C18435   0.589   8.821  11.483 -0.2359  0.0002 -0.6719
  878MOL0     C18436   0.460   8.774  11.549 -0.1947  0.3023  0.6582
  878MOL0     C18437   0.460   8.751  11.705 -0.2049 -0.0588  0.6724
  878MOL0     C18438   0.425   8.879  11.783 -1.3173 -0.2217 -0.4315
  878MOL0     C18439   0.421   8.850  11.935 -0.5276  0.5115  0.5505
  878MOL0    Cl18440   0.444   8.998  12.034  0.0238 -0.2930  0.2068
  878MOL0     C18441   0.985   8.293  11.359 -0.1570  0.0871 -0.0646
  878MOL0     C18442   1.101   8.219  11.327 -0.8965 -0.1994  0.3900
  878MOL0     O18443   1.328   8.082  11.431 -0.7755  1.0558 -0.3092
  878MOL0     C18444   1.484   7.974  11.134  0.4825 -0.0540  0.2531
  878MOL0     C18445   1.585   7.904  11.073  0.0580 -1.2493  0.0145
  878MOL0     N18446   2.120   7.640  10.699  0.6286  0.0166  0.2621
  878MOL0     N18447   2.116   7.634  10.573  0.7508  0.1397 -0.3377
  878MOL0     C18448   1.467   8.269  10.063  0.5022 -0.5604 -0.1661
  878MOL0     C18449   1.347   8.314   9.995 -1.3650  0.2195  0.0981
  878MOL0     C18450   0.924   8.290   9.796 -0.1256  0.1806  0.5986
  878MOL0     C18451   0.805   8.228   9.766 -0.4272 -0.4272 -0.4152
  878MOL0     C18452   0.711   8.306   9.708 -0.7068 -0.2272  0.2637
  878MOL0     C18453   0.736   8.429   9.652 -0.3493 -0.2587  0.8240
  878MOL0     O18454   0.634   8.503   9.591  0.3356  0.4008 -0.7195
  878MOL0     C18455   0.494   8.475   9.599  0.6267 -0.0410 -0.5888
  878MOL0     C18456   0.423   8.541   9.724 -0.1375 -0.3732  0.0824
  878MOL0     C18457   0.278   8.498   9.769 -0.7209 -0.1681  0.1308
  878MOL0     C18458   0.178   8.495   9.663  0.8610  0.0335 -0.0379
  878MOL0     C18459   0.150   8.359   9.611  0.1316 -0.5737  0.0906
  878MOL0     C18460   0.128   8.243   9.596 -0.5142  0.1570 -0.3881
  878MOL0     C18461   0.866   8.478   9.659 -0.8376 -0.3092 -0.2514
  878MOL0     C18462   0.959   8.412   9.731 -0.6729  0.4821 -0.0543
  878MOL0     H18463   1.223   8.012   9.900 -1.4899 -0.5548  3.8297
  878MOL0     H18464   1.443   7.936   9.979  1.9858  0.5229  3.2974
  878MOL0     H18465   1.649   7.890  10.043  0.1082  1.5376  2.3905
  878MOL0     H18466   1.686   8.004   9.901  1.3568  1.3952  0.2703
  878MOL0     H18467   1.883   8.083  10.001 -0.2510  2.6378  2.8737
  878MOL0     H18468   1.836   8.014  10.161 -0.4178  3.3440 -0.5310
  878MOL0     H18469   1.875   7.828   9.929  1.8296 -0.4895 -0.6367
  878MOL0     H18470   2.016   7.935   9.984  1.1412  0.6382  2.5533
  878MOL0     H18471   1.957   7.816  10.212  1.2408  0.0770 -0.0051
  878MOL0     H18472   1.823   7.737  10.127 -1.0771  1.4797 -0.6703
  878MOL0     H18473   1.985   7.612   9.974  1.2816 -1.0116  0.5757
  878MOL0     H18474   2.121   7.673  10.058 -0.3613 -0.1895 -1.6648
  878MOL0     H18475   1.891   7.532  10.190  0.5472 -1.2867  0.1534
  878MOL0     H18476   2.024   7.442  10.115  2.2883 -0.5424 -0.2023
  878MOL0     H18477   2.178   7.538  10.287 -0.3391 -1.7058  2.2541
  878MOL0     H18478   2.060   7.655  10.331 -0.9069  1.1112 -4.5513
  878MOL0     H18479   2.066   7.362  10.399  0.9717  0.9678 -0.0018
  878MOL0     H18480   1.912   7.443  10.408  0.6477 -0.8403  2.0687
  878MOL0     H18481   2.012   7.335  10.674  0.9242 -0.7223 -0.5995
  878MOL0     H18482   2.069   7.385  10.915 -0.1114 -0.0346 -1.7990
  878MOL0     H18483   2.176   7.524  10.940 -0.5704  3.1706 -1.8558
  878MOL0     H18484   1.981   7.529  11.103 -0.4279 -2.2301 -0.7085
  878MOL0     H18485   1.869   7.554  10.969 -0.5480 -3.4619  1.1242
  878MOL0     H18486   1.986   7.779  10.922  0.7770 -0.1292 -0.7264
  878MOL0     H18487   2.113   7.720  11.033 -0.7395  1.7369  0.1956
  878MOL0     H18488   1.974   7.880  11.162 -2.6544  1.1177  0.3308
  878MOL0     H18489   1.933   7.718  11.211 -0.8149  3.5088  2.4745
  878MOL0     H18490   1.808   7.915  11.330  1.4401  1.1823 -0.1027
  878MOL0     H18491   1.529   8.008  11.539 -0.3162 -0.8318 -0.5166
  878MOL0     H18492   1.706   8.002  11.522  0.1802 -1.4464 -3.0646
  878MOL0     H18493   1.616   8.158  11.493 -2.5367  0.3829 -1.7871
  878MOL0     H18494   1.266   8.453  11.129  1.1575 -1.7953 -0.5818
  878MOL0     H18495   1.083   8.584  11.208 -1.6835 -0.2795 -0.7755
  878MOL0     H18496   0.732   8.441  11.427  1.0190 -0.8676  0.8240
  878MOL0     H18497   0.866   8.449  11.546  2.8621  2.2002 -0.2279
  878MOL0     H18498   0.685   8.598  11.606  0.2827 -0.8323 -0.1971
  878MOL0     H18499   0.828   8.682  11.572 -3.5013  1.1826  5.1970
  878MOL0     H18500   0.619   8.655  11.346  0.3994  1.6889 -1.7723
  878MOL0     H18501   0.758   8.753  11.358 -0.8290 -0.8456 -1.0541
  878MOL0     H18502   0.638   8.884  11.558 -1.5659 -0.8274  0.9833
  878MOL0     H18503   0.557   8.884  11.400  0.2611  1.0174 -0.1067
  878MOL0     H18504   0.448   8.680  11.493 -0.6072  1.3140 -1.0139
  878MOL0     H18505   0.378   8.846  11.537 -1.5964 -1.3587 -0.2502
  878MOL0     H18506   0.389   8.671  11.731  0.0423  0.4566  3.2038
  878MOL0     H18507   0.564   8.723  11.727  0.5306  1.5786 -0.5729
  878MOL0     H18508   0.332   8.930  11.756 -0.9821  1.7811  1.8768
  878MOL0     H18509   0.507   8.951  11.777 -1.2490 -0.2133  0.4528
  878MOL0     H18510   0.488   8.765  11.952 -2.9659 -1.4973  0.5730
  878MOL0     H18511   0.332   8.799  11.973 -1.4629  2.4906  1.1778
  878MOL0     H18512   0.899   8.258  11.416 -3.1029  1.7183 -3.1403
  878MOL0     H18513   1.100   8.124  11.379  0.4257 -0.4103  0.0526
  878MOL0     H18514   1.400   7.998  11.070  2.3140  0.3289 -2.1929
  878MOL0     H18515   1.582   7.875  10.968  0.8204  1.1664 -0.7666
  878MOL0     H18516   1.526   8.343  10.115 -1.8552  2.9225 -2.0076
  878MOL0     H18517   1.337   8.422  10.003  2.2615  0.9542 -2.5122
  878MOL0     H18518   0.787   8.125   9.792  3.4115 -2.1772 -3.5606
  878MOL0     H18519   0.616   8.253   9.711 -0.1503 -1.1842  2.3868
  878MOL0     H18520   0.458   8.528   9.510  1.9090  0.8382 -0.6214
  878MOL0     H18521   0.476   8.367   9.604 -0.2209  0.0779 -0.9834
  878MOL0     H18522   0.416   8.649   9.705 -3.7016 -0.4040  0.4840
  878MOL0     H18523   0.487   8.527   9.811 -1.0954 -1.1075  0.6810
  878MOL0     H18524   0.235   8.561   9.847  0.2438 -1.7807  2.0507
  878MOL0     H18525   0.283   8.394   9.802 -0.5133 -0.9750 -2.2247
  878MOL0     H18526   0.214   8.559   9.582 -3.1333  1.6190 -0.7623
  878MOL0     H18527   0.084   8.535   9.702  1.5745  0.0704  1.7783
  878MOL0     H18528   0.131   8.137   9.580  2.2667  0.4121 -2.0076
  878MOL0     H18529   0.884   8.572   9.607 -1.8597 -0.0801 -0.2324
  878MOL0     H18530   1.061   8.449   9.740 -1.1859  1.6739  1.2815
  879MOL0     O18531   8.253   0.649   5.560  0.4556 -0.0135 -0.2877
  879MOL0     C18532   8.276   0.537   5.509  0.5396 -0.3360 -0.3180
  879MOL0     O18533   8.184   0.470   5.418 -0.0559  0.1800 -0.1245
  879MOL0     C18534   8.084   0.546   5.385  0.3756 -0.4875 -0.6054
  879MOL0     C18535   7.955   0.534   5.443 -1.6501 -0.0561  0.1725
  879MOL0     C18536   7.858   0.620   5.403  0.1699 -0.7088  0.8529
  879MOL0     C18537   7.879   0.719   5.301 -0.1217 -0.0446  0.1073
  879MOL0     O18538   7.790   0.820   5.268  0.1661  0.3093 -0.6349
  879MOL0     C18539   7.754   0.919   5.365 -0.7650 -0.8421 -0.3106
  879MOL0     C18540   7.601   0.930   5.383 -0.4267 -0.2903  0.3335
  879MOL0     C18541   7.569   1.011   5.511  0.3292  0.0284  0.4628
  879MOL0     C18542   7.428   0.991   5.562  0.0507  1.0184 -0.1663
  879MOL0     C18543   7.379   1.112   5.641  0.6331 -0.5092 -0.0931
  879MOL0     C18544   7.243   1.073   5.715 -0.0041  0.1829 -0.2362
  879MOL0     C18545   7.189   1.191   5.807  0.0017  0.4976  0.1933
  879MOL0     C18546   7.043   1.169   5.845 -0.0911 -0.3225  0.8226
  879MOL0     N18547   7.035   1.066   5.951  0.0497  0.0764  1.1371
  879MOL0     C18548   6.987   1.103   6.070  0.0470  0.2772  0.2195
  879MOL0     C18549   6.991   0.984   6.137  0.3297  0.3130  0.2898
  879MOL0     C18550   6.933   0.955   6.271 -0.0218  0.2436 -0.1370
  879MOL0     C18551   7.043   0.939   6.382  0.7675  0.3777  0.5786
  879MOL0     C18552   7.146   1.049   6.397  0.8446  0.7044 -0.2841
  879MOL0     C18553   7.248   1.011   6.503 -0.2049  0.2295 -0.2391
  879MOL0     O18554   7.344   1.124   6.501 -0.5159 -0.3385 -0.3500
  879MOL0     C18555   7.470   1.114   6.565 -0.1086  0.2606  0.4591
  879MOL0     C18556   7.524   1.240   6.574 -0.5038 -0.8399 -0.5423
  879MOL0     C18557   7.655   1.253   6.623  0.7017 -0.3178 -1.0879
  879MOL0     C18558   7.709   1.395   6.627  0.2127 -0.4245 -0.2050
  879MOL0     C18559   7.729   1.131   6.651  0.1919  0.9962 -0.0960
  879MOL0     C18560   7.880   1.125   6.689  0.1989 -0.1303 -0.6880
  879MOL0     O18561   7.949   1.002   6.690 -0.0735 -0.7703 -0.8338
  879MOL0     C18562   8.073   0.993   6.733 -0.1788  0.3528  0.2821
  879MOL0     C18563   8.095   1.008   6.869  0.1083 -0.3955 -0.1112
  879MOL0     C18564   8.223   0.994   6.917  1.1191 -0.4540 -0.0349
  879MOL0     C18565   8.331   0.969   6.836 -0.8913  0.7248  0.8672
  879MOL0     O18566   8.453   0.975   6.901  0.1785 -0.0743 -0.2742
  879MOL0     C18567   8.579   0.967   6.820  0.4420  0.0881 -0.1950
  879MOL0     C18568   8.690   0.922   6.901  0.0330 -0.3095 -0.3555
  879MOL0     C18569   8.829   0.963   6.855  0.6600 -0.0538 -0.5286
  879MOL0     C18570   8.842   1.112   6.876 -0.4236 -0.7557 -0.2977
  879MOL0     C18571   8.997   1.151   6.883  1.0191  0.4167 -0.2564
  879MOL0     C18572   9.057   1.240   6.770 -0.2024 -1.2454  0.2121
  879MOL0     C18573   9.028   1.171   6.644 -0.3785 -0.6564  1.3242
  879MOL0     C18574   9.082   1.260   6.531 -0.6179 -1.0604 -0.3570
  879MOL0    Cl18575   9.265   1.255   6.523 -0.3928 -0.4216  0.2826
  879MOL0     C18576   8.316   0.954   6.693  0.3217 -0.9809  0.7485
  879MOL0     C18577   8.183   0.960   6.650 -0.6160 -0.3603  0.2581
  879MOL0     O18578   7.931   1.233   6.716 -0.4654  0.1804 -0.2987
  879MOL0     C18579   7.667   1.012   6.648  1.1398  0.8677 -0.4880
  879MOL0     C18580   7.537   0.996   6.609  0.0961 -0.5913 -1.2116
  879MOL0     N18581   7.044   0.885   6.059 -0.0742 -0.1574  0.5652
  879MOL0     N18582   7.080   0.940   5.947 -0.6156  0.0515  1.0703
  879MOL0     C18583   8.004   0.721   5.233 -0.1551 -0.7275 -0.2216
  879MOL0     C18584   8.106   0.639   5.275  0.5739 -0.3423  0.8272
  879MOL0     C18585   8.398   0.470   5.563 -0.2028  0.4280 -0.5526
  879MOL0     C18586   8.461   0.508   5.686 -0.5494  0.0826 -1.0284
  879MOL0     C18587   8.576   0.434   5.729  0.8173  0.1613  0.6324
  879MOL0     C18588   8.624   0.326   5.659 -0.6100 -0.2999  0.7295
  879MOL0     O18589   8.740   0.267   5.707 -0.8248  0.6749  0.4781
  879MOL0     C18590   8.754   0.130   5.678  0.2960 -1.1529 -0.9888
  879MOL0     C18591   8.882   0.083   5.752  0.4886 -0.4650  0.0059
  879MOL0     C18592   8.999   0.165   5.693  0.4586 -0.2064  0.6552
  879MOL0     C18593   9.133   0.121   5.746 -0.2992  0.3903 -0.3130
  879MOL0     C18594   9.159  -0.022   5.729 -0.6639 -0.5146 -0.1255
  879MOL0     C18595   9.211  -0.130   5.703 -0.2339 -0.5805  0.8423
  879MOL0     C18596   8.567   0.295   5.540 -0.1203 -0.0122 -0.4434
  879MOL0     C18597   8.450   0.371   5.492 -0.6022  0.5221  1.2001
  879MOL0     H18598   7.924   0.471   5.525 -2.9977 -2.3865 -1.9948
  879MOL0     H18599   7.759   0.624   5.448  1.4727  1.0140  3.8077
  879MOL0     H18600   7.812   0.910   5.457  2.2023  1.1176 -1.8362
  879MOL0     H18601   7.782   1.016   5.323 -1.6828  2.5636  5.8135
  879MOL0     H18602   7.566   0.979   5.292 -0.0911  0.6390  0.6899
  879MOL0     H18603   7.551   0.832   5.383 -2.2973  0.6177  1.2321
  879MOL0     H18604   7.631   1.006   5.601  0.5083  1.7226  0.4632
  879MOL0     H18605   7.595   1.116   5.494  2.5760 -0.0593  2.6882
  879MOL0     H18606   7.366   0.958   5.478  0.6803  1.6501 -0.9026
  879MOL0     H18607   7.436   0.909   5.633  1.0902  2.2899  1.2603
  879MOL0     H18608   7.451   1.148   5.715 -0.9592 -2.0858  2.3811
  879MOL0     H18609   7.357   1.195   5.573 -0.5947  0.8080  1.7990
  879MOL0     H18610   7.171   1.047   5.638  1.1642 -0.0913 -1.2691
  879MOL0     H18611   7.263   0.981   5.771 -2.3796  0.2072  0.7568
  879MOL0     H18612   7.249   1.207   5.897 -2.3848  2.9606  1.5098
  879MOL0     H18613   7.185   1.284   5.749  1.3607 -0.2780 -1.2382
  879MOL0     H18614   6.982   1.140   5.759 -0.4651 -1.7538  1.5369
  879MOL0     H18615   6.995   1.261   5.879  0.0531 -0.0850  0.3843
  879MOL0     H18616   6.920   1.185   6.093 -2.1292 -1.5312  0.6942
  879MOL0     H18617   6.862   1.034   6.296  1.2431  0.9897  1.2536
  879MOL0     H18618   6.879   0.862   6.253 -2.2233  1.2862  0.6805
  879MOL0     H18619   7.080   0.838   6.361 -1.2543 -0.5177  1.0046
  879MOL0     H18620   6.980   0.923   6.470 -0.1555  0.2969 -0.0709
  879MOL0     H18621   7.101   1.143   6.429 -2.5106 -1.1800  1.0710
  879MOL0     H18622   7.200   1.068   6.304  2.8101  0.6230  0.7747
  879MOL0     H18623   7.305   0.925   6.469  1.7082  2.3045 -2.6230
  879MOL0     H18624   7.217   0.981   6.604 -0.0063 -2.7046 -0.9531
  879MOL0     H18625   7.470   1.333   6.558  1.1264  0.0779 -0.9573
  879MOL0     H18626   7.818   1.394   6.621  0.2919 -3.1526  0.2475
  879MOL0     H18627   7.656   1.455   6.553  2.3142  1.7168 -0.1134
  879MOL0     H18628   7.686   1.435   6.726 -0.7978 -1.1315 -0.1405
  879MOL0     H18629   8.011   1.017   6.937 -1.2540 -5.9151 -0.5311
  879MOL0     H18630   8.248   0.996   7.022  0.8920  0.9364  0.0116
  879MOL0     H18631   8.566   0.898   6.736 -0.0127 -1.7908  1.3408
  879MOL0     H18632   8.592   1.068   6.780  0.8566 -0.8524 -2.6132
  879MOL0     H18633   8.671   0.976   6.995 -1.0740  1.5453 -1.5958
  879MOL0     H18634   8.685   0.813   6.909 -0.8075 -0.3534 -1.3319
  879MOL0     H18635   8.842   0.939   6.749  1.0005 -1.0827 -0.2622
  879MOL0     H18636   8.903   0.916   6.920  2.8705  3.6288 -0.0932
  879MOL0     H18637   8.783   1.154   6.794 -0.3696 -3.1719 -1.6972
  879MOL0     H18638   8.800   1.149   6.969 -1.5981  0.7534 -1.3769
  879MOL0     H18639   9.054   1.060   6.904 -0.6368 -0.2460  1.7319
  879MOL0     H18640   9.013   1.211   6.974  1.0987  0.8983 -0.5823
  879MOL0     H18641   9.011   1.339   6.777 -0.8690 -1.5185 -0.2591
  879MOL0     H18642   9.164   1.255   6.790 -0.1757 -1.6815  0.4226
  879MOL0     H18643   8.919   1.171   6.628 -0.3081 -0.8829  0.8302
  879MOL0     H18644   9.081   1.075   6.645  2.0403  0.5985  0.5493
  879MOL0     H18645   9.048   1.363   6.544 -2.6022 -1.1196 -3.7452
  879MOL0     H18646   9.045   1.223   6.435 -0.4559  0.4645 -1.0287
  879MOL0     H18647   8.401   0.928   6.631  0.2743 -0.3182  0.4034
  879MOL0     H18648   8.153   0.950   6.546 -1.5921 -2.1516  0.6614
  879MOL0     H18649   7.716   0.918   6.672 -2.1213 -1.0106 -0.5795
  879MOL0     H18650   7.491   0.898   6.599  1.3416 -1.3036 -0.3170
  879MOL0     H18651   8.011   0.785   5.145  3.2018 -0.0196  0.4513
  879MOL0     H18652   8.192   0.633   5.208 -0.2648 -2.6043 -0.1365
  879MOL0     H18653   8.421   0.588   5.748  0.4426 -3.1912  4.5409
  879MOL0     H18654   8.631   0.460   5.818  1.4406  0.0197  0.2947
  879MOL0     H18655   8.672   0.078   5.730  0.4401 -1.1653 -0.7760
  879MOL0     H18656   8.764   0.114   5.571  3.7777  3.2088 -1.5751
  879MOL0     H18657   8.888  -0.023   5.725  1.6884 -1.0925  2.3823
  879MOL0     H18658   8.880   0.088   5.862 -0.5760 -1.1268  0.0335
  879MOL0     H18659   8.989   0.273   5.708  0.2285 -0.6549  4.7002
  879MOL0     H18660   9.000   0.152   5.584 -4.7720 -1.6343  0.5121
  879MOL0     H18661   9.146   0.155   5.850 -0.0482 -1.3498  0.2626
  879MOL0     H18662   9.209   0.168   5.683  2.5823 -1.7622  1.2957
  879MOL0     H18663   9.234  -0.229   5.669  1.5787  0.3682 -0.9249
  879MOL0     H18664   8.610   0.214   5.482  2.5946 -0.9500  2.5965
  879MOL0     H18665   8.408   0.361   5.393 -1.2494 -0.6420  1.5614
  880MOL0     O18666   0.681  11.437   0.861  0.5375  0.3277 -0.6884
  880MOL0     C18667   0.589  11.498   0.808  0.2192  1.0722  0.9269
  880MOL0     O18668   0.450  11.485   0.830  0.1934  0.2902 -0.7713
  880MOL0     C18669   0.402  11.388   0.917 -0.4440 -0.8718  0.1063
  880MOL0     C18670   0.469  11.276   0.958  0.4901  0.2586  0.4841
  880MOL0     C18671   0.414  11.194   1.055 -0.1855  0.2098  0.3590
  880MOL0     C18672   0.286  11.229   1.118  0.0470  1.0626  1.7230
  880MOL0     O18673   0.260  11.142   1.219  0.0894 -0.2684 -0.0727
  880MOL0     C18674   0.133  11.163   1.277  0.4200 -0.4114 -0.3579
  880MOL0     C18675   0.121  11.074   1.389 -1.3973  0.2441  0.0508
  880MOL0     C18676   0.004  11.081   1.476  0.9831 -0.4680 -0.0223
  880MOL0     C18677   0.000  11.000   1.605  0.2804  0.2344  0.2487
  880MOL0     C18678  -0.135  10.998   1.677  0.2120  0.3564 -0.0316
  880MOL0     C18679  -0.162  10.899   1.790 -1.8691  0.9492 -0.2483
  880MOL0     C18680  -0.057  10.922   1.912 -0.6913 -0.2426  0.4841
  880MOL0     C18681  -0.047  10.813   2.026  0.5357 -0.2991 -0.7151
  880MOL0     N18682  -0.172  10.755   2.061  0.5516 -0.2501 -0.0769
  880MOL0     C18683  -0.270  10.826   2.130  0.0286  0.8028 -0.0849
  880MOL0     C18684  -0.381  10.742   2.125  0.4150 -0.5343  0.0372
  880MOL0     C18685  -0.505  10.749   2.203  0.2129 -0.1090 -0.3573
  880MOL0     C18686  -0.544  10.879   2.283 -1.0136  1.1291  0.2374
  880MOL0     C18687  -0.556  10.986   2.168 -0.0455  0.7929  0.2389
  880MOL0     C18688  -0.603  11.119   2.233  0.8362  0.0533  0.4291
  880MOL0     O18689  -0.624  11.220   2.133 -0.6353 -0.3541 -0.2504
  880MOL0     C18690  -0.740  11.215   2.060 -0.2993 -0.6796 -0.8722
  880MOL0     C18691  -0.749  11.306   1.956  0.0524  0.9130  0.5343
  880MOL0     C18692  -0.867  11.330   1.882 -0.7278 -0.2397 -0.1605
  880MOL0     C18693  -0.875  11.431   1.775 -0.4568  0.0971  0.4410
  880MOL0     C18694  -0.986  11.246   1.911 -0.7338 -0.4729 -0.2106
  880MOL0     C18695  -1.121  11.246   1.842 -0.3331  0.0551  0.1423
  880MOL0     O18696  -1.187  11.128   1.840 -0.5545  1.1375 -0.7985
  880MOL0     C18697  -1.302  11.115   1.768 -0.4248  0.5165 -0.0231
  880MOL0     C18698  -1.404  11.057   1.827 -0.6307  1.8542  0.2610
  880MOL0     C18699  -1.522  11.030   1.762 -1.1378  0.0196 -0.3266
  880MOL0     C18700  -1.533  11.059   1.627  0.7038 -0.7776  0.6062
  880MOL0     O18701  -1.635  11.028   1.548  0.6896  0.5119  0.0927
  880MOL0     C18702  -1.756  10.997   1.611  0.2597 -0.3159 -0.2419
  880MOL0     C18703  -1.857  10.974   1.502  0.3466  0.6670 -0.2409
  880MOL0     C18704  -1.813  10.828   1.456  0.0678  1.0477 -1.1025
  880MOL0     C18705  -1.935  10.752   1.378 -0.7311  0.3121 -0.5574
  880MOL0     C18706  -1.912  10.600   1.360  0.2228 -0.8739  0.8450
  880MOL0     C18707  -1.875  10.511   1.482 -0.5619  0.9825  0.7667
  880MOL0     C18708  -1.942  10.543   1.614  0.3972 -0.4445  0.6000
  880MOL0     C18709  -1.910  10.436   1.710  0.6396 -0.2387 -0.6687
  880MOL0    Cl18710  -2.001  10.502   1.862  0.3632  0.0350 -0.5187
  880MOL0     C18711  -1.420  11.116   1.556 -0.0751  0.4979 -0.0662
  880MOL0     C18712  -1.304  11.145   1.630 -0.2772 -0.8512 -0.2138
  880MOL0     O18713  -1.164  11.346   1.787  0.2841  0.6773 -0.3213
  880MOL0     C18714  -0.971  11.156   2.013 -0.1744  0.1755  0.6312
  880MOL0     C18715  -0.852  11.138   2.086 -1.1057  0.5111  1.0014
  880MOL0     N18716  -0.351  10.633   2.044  0.0120 -0.1753  0.9666
  880MOL0     N18717  -0.226  10.637   2.009 -0.8295 -0.1482 -0.6299
  880MOL0     C18718   0.211  11.324   1.058  0.0389 -0.9483  0.3329
  880MOL0     C18719   0.276  11.412   0.962 -0.4103  0.0513 -0.8753
  880MOL0     C18720   0.624  11.572   0.690 -0.6558 -0.5970 -0.4572
  880MOL0     C18721   0.524  11.623   0.599 -0.5324 -0.3373 -0.1538
  880MOL0     C18722   0.564  11.694   0.476  1.0542  0.0521 -0.2245
  880MOL0     C18723   0.695  11.704   0.444 -0.2303  0.1293 -0.0555
  880MOL0     O18724   0.724  11.787   0.340  0.0040 -0.3269  0.5264
  880MOL0     C18725   0.824  11.748   0.240  0.3445  0.1338 -0.7253
  880MOL0     C18726   0.784  11.769   0.097 -0.1143  0.5854  0.2421
  880MOL0     C18727   0.650  11.701   0.056 -0.1036 -0.0548 -0.1925
  880MOL0     C18728   0.637  11.699  -0.095  0.2705  0.8838  0.3460
  880MOL0     C18729   0.598  11.833  -0.151 -0.2327  0.2947 -0.0500
  880MOL0     C18730   0.575  11.944  -0.202  0.2971  0.2068 -0.2687
  880MOL0     C18731   0.792  11.650   0.527 -0.6428  0.3537  0.0014
  880MOL0     C18732   0.757  11.593   0.650  0.8477 -0.2694  0.1217
  880MOL0     H18733   0.569  11.250   0.922  1.2511  2.6071  0.6958
  880MOL0     H18734   0.475  11.118   1.102 -2.8662  0.3136  4.5502
  880MOL0     H18735   0.116  11.267   1.307  3.9984  0.6834 -1.6094
  880MOL0     H18736   0.061  11.119   1.207  2.7815 -1.6355 -2.1620
  880MOL0     H18737   0.119  10.979   1.335 -0.5486 -0.1476  0.6911
  880MOL0     H18738   0.213  11.074   1.449 -0.9745 -3.7605 -0.2956
  880MOL0     H18739  -0.021  11.182   1.508 -2.1332 -1.3302  0.6315
  880MOL0     H18740  -0.082  11.052   1.414  1.3713  3.8620 -3.0290
  880MOL0     H18741   0.030  10.895   1.591 -5.0114 -1.2859 -2.1236
  880MOL0     H18742   0.076  11.046   1.669 -0.6257 -0.4990  1.9085
  880MOL0     H18743  -0.164  11.099   1.708 -5.2890 -0.9689  0.0768
  880MOL0     H18744  -0.212  10.978   1.602  0.1747  1.6537 -0.3638
  880MOL0     H18745  -0.263  10.924   1.823 -0.8116  3.5245  1.3629
  880MOL0     H18746  -0.162  10.792   1.768  0.5628  0.3107  2.3796
  880MOL0     H18747   0.046  10.926   1.876 -0.2181 -0.5236  1.7583
  880MOL0     H18748  -0.081  11.020   1.954  1.0881  0.3258  0.2577
  880MOL0     H18749  -0.001  10.855   2.116  0.4841 -1.5705 -0.0613
  880MOL0     H18750   0.028  10.737   2.000  0.9391 -0.6545  1.3161
  880MOL0     H18751  -0.261  10.920   2.183  1.8241  1.1641 -0.9319
  880MOL0     H18752  -0.583  10.727   2.130  1.1785 -3.6881 -0.4918
  880MOL0     H18753  -0.510  10.670   2.279 -0.9082  1.1663  0.9580
  880MOL0     H18754  -0.463  10.903   2.351 -0.1624  2.7909 -1.2859
  880MOL0     H18755  -0.642  10.873   2.332 -0.1227  1.6767  2.2039
  880MOL0     H18756  -0.644  10.959   2.109 -1.4759  0.8487  2.2124
  880MOL0     H18757  -0.466  10.997   2.108 -0.9458 -1.6148 -1.7550
  880MOL0     H18758  -0.527  11.152   2.304  0.7865  0.9440  0.0773
  880MOL0     H18759  -0.696  11.098   2.286  1.3356  0.6513  1.5775
  880MOL0     H18760  -0.667  11.376   1.952  2.4420 -1.7268 -0.8818
  880MOL0     H18761  -0.914  11.525   1.815 -1.9732  0.9820 -2.7389
  880MOL0     H18762  -0.775  11.449   1.735 -0.0631  0.6316  1.6127
  880MOL0     H18763  -0.933  11.392   1.690  2.5684 -0.6302 -1.4599
  880MOL0     H18764  -1.395  11.038   1.934  1.2681  2.2299  0.1923
  880MOL0     H18765  -1.597  10.984   1.826  2.9842 -1.4454  4.0713
  880MOL0     H18766  -1.742  10.918   1.685 -0.8825  1.6816  2.2664
  880MOL0     H18767  -1.776  11.092   1.663  2.6568 -0.0756  0.3584
  880MOL0     H18768  -1.956  10.977   1.548 -0.3263  2.0193 -1.7157
  880MOL0     H18769  -1.855  11.054   1.427  0.2684  0.5904 -0.3245
  880MOL0     H18770  -1.799  10.769   1.547  1.6333  0.4449 -1.7093
  880MOL0     H18771  -1.720  10.814   1.401  0.5794 -0.0698 -0.0046
  880MOL0     H18772  -2.028  10.772   1.432  0.7939  0.1680  2.2714
  880MOL0     H18773  -1.949  10.788   1.275  1.7364  0.3385 -0.9474
  880MOL0     H18774  -1.823  10.594   1.297 -0.2676 -0.3785  0.0841
  880MOL0     H18775  -1.994  10.553   1.305 -1.3936  1.5632  1.0160
  880MOL0     H18776  -1.895  10.411   1.441  1.0489  0.8223  0.2975
  880MOL0     H18777  -1.768  10.514   1.506  0.4043  1.0009 -2.9378
  880MOL0     H18778  -2.050  10.554   1.600  0.3671  3.2473  2.5585
  880MOL0     H18779  -1.909  10.637   1.659  6.3875 -1.1735 -1.4372
  880MOL0     H18780  -1.803  10.435   1.729  1.0717 -2.7054 -2.7166
  880MOL0     H18781  -1.951  10.337   1.691  0.6464 -0.3266 -0.2407
  880MOL0     H18782  -1.421  11.136   1.449  0.3310 -3.4985 -0.9946
  880MOL0     H18783  -1.211  11.167   1.578 -0.1689 -0.2754  0.2194
  880MOL0     H18784  -1.055  11.095   2.043 -1.0729  1.8852  1.7755
  880MOL0     H18785  -0.849  11.062   2.164  0.6281 -1.3920 -0.8045
  880MOL0     H18786   0.106  11.341   1.080 -0.6288 -3.3393 -0.6703
  880MOL0     H18787   0.226  11.503   0.931  0.1219  1.5008  2.1443
  880MOL0     H18788   0.416  11.615   0.610 -0.2979 -0.3181  2.6175
  880MOL0     H18789   0.483  11.745   0.426 -0.0101 -2.7763 -1.6148
  880MOL0     H18790   0.918  11.800   0.260 -0.0667  0.0464  1.7947
  880MOL0     H18791   0.853  11.643   0.252  0.5617  0.4279  2.2100
  880MOL0     H18792   0.868  11.739   0.034  2.2130  3.2005  1.8511
  880MOL0     H18793   0.770  11.877   0.084 -1.6427  0.1695 -2.3506
  880MOL0     H18794   0.572  11.759   0.106  0.7366  1.4105 -0.5169
  880MOL0     H18795   0.662  11.599   0.094  3.8885  0.0062 -0.8942
  880MOL0     H18796   0.550  11.638  -0.120  2.2123 -1.3218 -1.4626
  880MOL0     H18797   0.720  11.643  -0.140 -2.2034 -1.2400 -1.8915
  880MOL0     H18798   0.548  12.037  -0.247 -4.1378 -0.5713  0.3256
  880MOL0     H18799   0.900  11.660   0.520 -0.7021  2.3029  1.2065
  880MOL0     H18800   0.837  11.550   0.710  1.0731  0.8204  0.6212
  881MOL0     O18801  10.339   6.870   9.543  0.4601  0.5501 -0.1728
  881MOL0     C18802  10.231   6.919   9.566  0.6981 -0.2962 -0.3196
  881MOL0     O18803  10.176   6.945   9.688  0.3157  0.4805 -0.1772
  881MOL0     C18804  10.229   6.879   9.803  0.7713 -0.7274 -0.2734
  881MOL0     C18805  10.286   6.755   9.799  0.3114  0.4890 -0.6765
  881MOL0     C18806  10.325   6.697   9.919 -0.6387  0.1044 -0.0254
  881MOL0     C18807  10.320   6.762  10.042 -0.3406  0.2419 -0.1904
  881MOL0     O18808  10.356   6.679  10.147  0.5030  0.6761 -0.5710
  881MOL0     C18809  10.367   6.742  10.280  0.8370 -0.1196  1.8698
  881MOL0     C18810  10.434   6.645  10.371  0.5282  0.3543 -0.0520
  881MOL0     C18811  10.343   6.547  10.428 -0.3609  1.0983  0.0841
  881MOL0     C18812  10.416   6.473  10.549 -0.2142  0.2976 -0.3475
  881MOL0     C18813  10.338   6.347  10.567 -0.2103 -0.6682 -0.8863
  881MOL0     C18814  10.218   6.361  10.664 -0.1657  0.8414 -0.7271
  881MOL0     C18815  10.140   6.227  10.677 -0.1481 -0.7726 -0.1380
  881MOL0     C18816  10.206   6.109  10.755  0.8715  1.0839 -0.2702
  881MOL0     N18817  10.297   6.018  10.677  0.0523  0.8223 -0.2352
  881MOL0     C18818  10.285   5.974  10.546 -0.0089  0.4654 -0.7876
  881MOL0     C18819  10.400   5.898  10.536 -0.7156 -0.4469 -0.1310
  881MOL0     C18820  10.450   5.821  10.418 -0.0308  0.2897  0.5566
  881MOL0     C18821  10.603   5.841  10.403 -0.4498  0.1628 -0.5098
  881MOL0     C18822  10.666   5.766  10.290  0.4238  0.6000  0.1718
  881MOL0     C18823  10.701   5.623  10.327 -0.2318 -0.1531  0.5582
  881MOL0     O18824  10.740   5.556  10.212  0.8450 -0.0370  0.1726
  881MOL0     C18825  10.769   5.426  10.233 -0.2095 -0.5304 -0.1347
  881MOL0     C18826  10.726   5.332  10.338 -0.5866 -0.5890  0.6567
  881MOL0     C18827  10.745   5.194  10.324 -0.4947  0.3945 -0.5190
  881MOL0     C18828  10.695   5.101  10.425  1.3555  0.4515 -0.1107
  881MOL0     C18829  10.817   5.148  10.211  0.4593 -0.0895  0.3362
  881MOL0     C18830  10.868   5.010  10.195 -0.4183  0.4206  0.9934
  881MOL0     O18831  10.876   4.936  10.303 -0.4521 -0.4060 -0.2960
  881MOL0     C18832  10.900   4.796  10.299  0.5240  0.1526 -0.1899
  881MOL0     C18833  10.813   4.716  10.231 -0.7192 -0.1521  0.4615
  881MOL0     C18834  10.841   4.582  10.215 -1.5073 -0.0356  0.6126
  881MOL0     C18835  10.951   4.524  10.293  1.2042  1.1912 -0.0405
  881MOL0     O18836  10.980   4.381  10.284 -0.5843 -0.9646  0.9028
  881MOL0     C18837  10.898   4.285  10.210  0.5398  0.2267  0.0499
  881MOL0     C18838  10.889   4.154  10.294  0.7547 -0.1594 -0.1495
  881MOL0     C18839  11.023   4.084  10.305  0.3055 -0.2807 -0.0865
  881MOL0     C18840  11.134   4.146  10.397  0.8580 -0.3788  0.8871
  881MOL0     C18841  11.267   4.061  10.391 -0.3838  0.2190  0.7354
  881MOL0     C18842  11.247   3.910  10.395 -0.3424  0.7280  0.3289
  881MOL0     C18843  11.387   3.845  10.415  0.5386  0.3531 -0.4290
  881MOL0     C18844  11.373   3.686  10.423 -0.0084 -0.0938 -0.1997
  881MOL0    Cl18845  11.274   3.626  10.558  0.2878  0.0567 -0.0756
  881MOL0     C18846  11.029   4.607  10.377 -0.4315 -0.7904  0.3639
  881MOL0     C18847  11.010   4.748  10.368 -0.0803  0.0474  0.1362
  881MOL0     O18848  10.890   4.960  10.088 -0.7332 -0.1416  0.6647
  881MOL0     C18849  10.852   5.235  10.103 -0.8459 -0.3532  0.0420
  881MOL0     C18850  10.821   5.367  10.118 -0.1920 -0.0408 -0.0297
  881MOL0     N18851  10.478   5.901  10.658  0.3327  0.1973 -0.1255
  881MOL0     N18852  10.413   5.976  10.737 -1.3227  0.6745 -0.3549
  881MOL0     C18853  10.277   6.897  10.044 -0.1054 -0.1177 -0.8733
  881MOL0     C18854  10.226   6.956   9.926 -0.6242  0.1862  0.3948
  881MOL0     C18855  10.146   6.953   9.450 -0.2633  0.2626 -0.2992
  881MOL0     C18856  10.054   7.055   9.454  0.8152  0.2483  0.7294
  881MOL0     C18857   9.971   7.083   9.348  0.5824 -0.2050  0.1235
  881MOL0     C18858   9.975   7.007   9.234 -0.0463  0.6739 -0.1679
  881MOL0     O18859   9.895   7.048   9.131 -0.2992 -0.3834 -0.4243
  881MOL0     C18860   9.924   7.010   9.000 -0.6046  0.6913 -0.4447
  881MOL0     C18861   9.841   6.877   8.984 -0.2926  1.1746 -0.0545
  881MOL0     C18862   9.816   6.843   8.834  0.4088  0.1676  0.5382
  881MOL0     C18863   9.939   6.848   8.734 -0.2828  0.3938  0.6097
  881MOL0     C18864  10.046   6.755   8.778  0.7340 -0.5047  0.3697
  881MOL0     C18865  10.128   6.666   8.808 -0.2183 -0.7409 -0.3916
  881MOL0     C18866  10.072   6.903   9.226 -0.2418 -1.3224  0.4962
  881MOL0     C18867  10.158   6.882   9.335  0.5691 -0.7859 -0.4651
  881MOL0     H18868  10.295   6.699   9.706  1.3793  1.1010 -0.9625
  881MOL0     H18869  10.358   6.594   9.914 -5.5184 -1.7048 -1.0672
  881MOL0     H18870  10.431   6.828  10.259  0.6512 -0.7773 -2.3773
  881MOL0     H18871  10.273   6.780  10.322 -0.7581  2.7976 -3.3956
  881MOL0     H18872  10.519   6.602  10.316  0.6375 -0.5927  0.8440
  881MOL0     H18873  10.484   6.705  10.448  0.6708  0.3723 -0.1566
  881MOL0     H18874  10.243   6.585  10.452 -1.7016 -2.3724  0.4777
  881MOL0     H18875  10.327   6.479  10.344  0.2355  2.0951 -0.8726
  881MOL0     H18876  10.521   6.447  10.534 -1.0190 -2.3898 -2.1536
  881MOL0     H18877  10.416   6.543  10.632  0.5510  1.0555 -0.9752
  881MOL0     H18878  10.299   6.315  10.470  1.7142  0.8022 -2.2232
  881MOL0     H18879  10.413   6.278  10.608 -1.0529 -2.1170 -1.6959
  881MOL0     H18880  10.267   6.389  10.758  0.5026 -0.8348 -0.5347
  881MOL0     H18881  10.147   6.438  10.633 -2.7331 -0.6768  1.0400
  881MOL0     H18882  10.060   6.263  10.742 -0.7766  2.8977 -2.6178
  881MOL0     H18883  10.102   6.199  10.578 -0.5206 -2.6392  0.4876
  881MOL0     H18884  10.122   6.050  10.794  1.2372  0.3794 -0.5112
  881MOL0     H18885  10.264   6.142  10.841 -3.5514  3.4808  2.1539
  881MOL0     H18886  10.206   6.003  10.477 -1.4988  1.9833  1.3862
  881MOL0     H18887  10.406   5.723  10.435  2.9700 -0.9281  2.1647
  881MOL0     H18888  10.393   5.857  10.332 -2.8970 -2.0296  1.3323
  881MOL0     H18889  10.649   5.807  10.496 -0.0558  1.4088 -0.2259
  881MOL0     H18890  10.624   5.948  10.394  0.2427  0.5623  3.6473
  881MOL0     H18891  10.754   5.813  10.244  2.4222 -2.0669  1.0087
  881MOL0     H18892  10.594   5.756  10.208  1.7602  2.0277 -1.2702
  881MOL0     H18893  10.598   5.604  10.358 -2.0898  4.8656 -1.4891
  881MOL0     H18894  10.774   5.604  10.406 -0.6974 -1.3559  0.7197
  881MOL0     H18895  10.680   5.368  10.430  1.1405  0.2441  1.2439
  881MOL0     H18896  10.632   5.030  10.370  0.0603  0.7318  0.9617
  881MOL0     H18897  10.773   5.043  10.475  0.5951  0.6722  1.3629
  881MOL0     H18898  10.633   5.151  10.500  0.8886 -3.3163  2.2973
  881MOL0     H18899  10.733   4.775  10.188 -0.5629  1.7146  2.6088
  881MOL0     H18900  10.780   4.521  10.150 -0.7728  1.1753 -1.3174
  881MOL0     H18901  10.798   4.318  10.180  0.3147 -3.8534 -5.0974
  881MOL0     H18902  10.940   4.273  10.110 -2.1627  0.1402 -1.1412
  881MOL0     H18903  10.847   4.176  10.393 -1.5807 -0.9248 -0.8981
  881MOL0     H18904  10.816   4.080  10.259 -1.3116 -1.5022  5.7960
  881MOL0     H18905  11.059   4.066  10.203  0.5237 -2.3506  0.3045
  881MOL0     H18906  11.000   3.986  10.348  0.0987 -0.5321 -0.7549
  881MOL0     H18907  11.159   4.245  10.357  1.4569 -1.7524 -2.5271
  881MOL0     H18908  11.087   4.159  10.494 -1.5013  1.2947 -0.3642
  881MOL0     H18909  11.331   4.100  10.471 -2.0910  1.6052  1.4915
  881MOL0     H18910  11.307   4.084  10.292 -1.4532 -0.1423  0.2013
  881MOL0     H18911  11.187   3.886  10.483 -1.3829  1.5995 -0.1170
  881MOL0     H18912  11.194   3.866  10.310  0.2681 -1.0383  0.8158
  881MOL0     H18913  11.420   3.880  10.513 -1.0646 -2.3467  1.2007
  881MOL0     H18914  11.454   3.873  10.333 -0.5287  1.5346 -0.9279
  881MOL0     H18915  11.476   3.651  10.439 -0.8158 -2.2905  0.5094
  881MOL0     H18916  11.320   3.659  10.331 -0.7912  4.0863 -1.1936
  881MOL0     H18917  11.114   4.567  10.431  0.9790  0.1948 -1.0040
  881MOL0     H18918  11.083   4.806  10.424  0.5402 -0.7982  0.2303
  881MOL0     H18919  10.903   5.196  10.015  0.7436 -3.0141  2.0052
  881MOL0     H18920  10.851   5.433  10.037 -1.6387 -1.2611 -1.6383
  881MOL0     H18921  10.264   6.955  10.135  1.4786 -0.7181 -0.2345
  881MOL0     H18922  10.181   7.054   9.932 -1.3604 -0.0143 -1.1863
  881MOL0     H18923  10.051   7.112   9.546 -1.9545  1.9322 -0.2923
  881MOL0     H18924   9.893   7.158   9.349  0.2937 -0.4012 -1.9958
  881MOL0     H18925   9.878   7.081   8.929 -0.4870  3.0927  1.7373
  881MOL0     H18926  10.031   6.993   8.986 -0.8950 -0.6711 -1.1121
  881MOL0     H18927   9.744   6.877   9.033 -0.9924  0.3046 -1.3823
  881MOL0     H18928   9.905   6.800   9.029  1.7028  3.0672  0.5407
  881MOL0     H18929   9.743   6.921   8.810 -2.0984 -1.5792  2.0003
  881MOL0     H18930   9.752   6.755   8.828 -1.6032  1.4826  1.6826
  881MOL0     H18931   9.991   6.942   8.718 -1.6992  1.2852  1.1100
  881MOL0     H18932   9.903   6.812   8.637  1.7098  1.6490 -0.6787
  881MOL0     H18933  10.210   6.604   8.840  0.9982  1.3480  0.7733
  881MOL0     H18934  10.108   6.853   9.137 -0.4556 -1.8129  0.6833
  881MOL0     H18935  10.232   6.804   9.324 -0.0173 -1.4369  0.0822
  882MOL0     O18936   9.579   8.014   3.217 -0.1335  0.4917  0.2136
  882MOL0     C18937   9.635   7.907   3.209 -0.1398 -0.2348  0.0706
  882MOL0     O18938   9.689   7.852   3.097 -0.1818  0.2579 -0.3167
  882MOL0     C18939   9.738   7.936   2.999 -0.6004 -0.2563 -0.4689
  882MOL0     C18940   9.770   8.071   3.011 -0.9951 -0.3834  0.0906
  882MOL0     C18941   9.791   8.144   2.884 -0.1269 -0.9787  0.7191
  882MOL0     C18942   9.795   8.072   2.767 -0.2001  0.4949 -0.5809
  882MOL0     O18943   9.795   8.141   2.651 -0.3002 -0.6550 -0.4537
  882MOL0     C18944   9.808   8.067   2.522 -0.1593 -1.1042 -0.3401
  882MOL0     C18945   9.835   8.175   2.410  0.0753  0.3360 -0.3556
  882MOL0     C18946   9.708   8.168   2.320  0.5925  0.1711  0.9454
  882MOL0     C18947   9.695   8.271   2.201 -0.0713  0.1379  1.3148
  882MOL0     C18948   9.698   8.414   2.247 -0.7424 -0.0486 -0.1190
  882MOL0     C18949   9.602   8.463   2.344 -0.5665 -0.6618 -1.0895
  882MOL0     C18950   9.453   8.449   2.312  0.3975 -0.6043 -0.2976
  882MOL0     C18951   9.355   8.526   2.415 -0.6944 -0.1827  0.7425
  882MOL0     N18952   9.350   8.454   2.545  0.2473  0.7949  0.8096
  882MOL0     C18953   9.354   8.318   2.560 -0.7717  0.2800 -0.6993
  882MOL0     C18954   9.382   8.300   2.692 -0.0243 -0.9066 -1.0486
  882MOL0     C18955   9.412   8.169   2.749 -0.5564  0.5935 -0.4159
  882MOL0     C18956   9.332   8.131   2.876  0.3330  0.3433  0.6041
  882MOL0     C18957   9.356   7.991   2.934  0.5773  0.1944  0.3595
  882MOL0     C18958   9.355   7.877   2.829  0.8770 -0.9932  0.3100
  882MOL0     O18959   9.235   7.854   2.754 -0.0703  0.3637 -0.2491
  882MOL0     C18960   9.126   7.819   2.832  0.8480 -0.1600 -0.3274
  882MOL0     C18961   9.082   7.681   2.831  0.5547 -0.6475 -0.2432
  882MOL0     C18962   8.960   7.650   2.886  0.5404 -0.2162  0.6883
  882MOL0     C18963   8.921   7.503   2.876 -0.4647 -0.4253 -0.4328
  882MOL0     C18964   8.886   7.744   2.966  0.7831  0.3191  0.1912
  882MOL0     C18965   8.769   7.694   3.034 -0.4572 -0.2636  0.3476
  882MOL0     O18966   8.755   7.727   3.164 -0.0808 -0.8662  0.0681
  882MOL0     C18967   8.628   7.751   3.212  0.0356 -0.7047 -0.0235
  882MOL0     C18968   8.528   7.831   3.146  0.0103 -0.2136  0.0029
  882MOL0     C18969   8.400   7.847   3.204  0.5653 -0.4806 -0.6283
  882MOL0     C18970   8.370   7.790   3.332 -0.2681 -0.8349 -0.3039
  882MOL0     O18971   8.251   7.797   3.405  0.6442  0.4644  0.2023
  882MOL0     C18972   8.145   7.864   3.347  0.2617 -0.4865 -0.3176
  882MOL0     C18973   8.153   8.018   3.363  0.7351  0.3131 -0.3595
  882MOL0     C18974   8.158   8.066   3.506 -0.3653  0.8333  0.5019
  882MOL0     C18975   8.077   8.195   3.527 -0.5900  0.0924 -0.6002
  882MOL0     C18976   8.079   8.238   3.680  0.3296  0.3805 -0.5295
  882MOL0     C18977   8.010   8.133   3.770 -0.6375  0.8123 -1.2097
  882MOL0     C18978   7.870   8.090   3.733 -0.1556  0.1081  0.4296
  882MOL0     C18979   7.823   7.964   3.808 -0.1270  0.6023  0.5965
  882MOL0    Cl18980   7.838   8.014   3.979  0.3631  0.3148  0.2136
  882MOL0     C18981   8.478   7.730   3.401  0.5232  0.4361 -0.7670
  882MOL0     C18982   8.599   7.704   3.341  0.4148  0.3060 -0.6119
  882MOL0     O18983   8.688   7.636   2.967  0.4566  0.4004  0.5841
  882MOL0     C18984   8.930   7.880   2.976  0.3320 -0.4767 -0.6156
  882MOL0     C18985   9.044   7.917   2.904  0.6572 -0.2664 -0.8381
  882MOL0     N18986   9.389   8.423   2.759 -0.2907  0.0791  0.7244
  882MOL0     N18987   9.370   8.512   2.659  0.1415  0.1765 -0.3892
  882MOL0     C18988   9.776   7.936   2.771  0.3221  0.5257  0.3255
  882MOL0     C18989   9.755   7.865   2.890  0.5706 -0.2338  0.3332
  882MOL0     C18990   9.629   7.815   3.324  0.3009 -0.7263 -0.6577
  882MOL0     C18991   9.726   7.718   3.333 -0.6437  0.0212 -0.1449
  882MOL0     C18992   9.709   7.612   3.423 -0.2418  0.5018 -0.0913
  882MOL0     C18993   9.606   7.616   3.514  0.2715  0.0539 -0.2393
  882MOL0     O18994   9.603   7.501   3.598 -0.5004 -0.3722  0.2374
  882MOL0     C18995   9.509   7.490   3.707 -0.0825  0.4828  0.1281
  882MOL0     C18996   9.545   7.584   3.822 -0.1109  0.1330 -1.0534
  882MOL0     C18997   9.678   7.536   3.893 -0.4583  0.5036  0.1139
  882MOL0     C18998   9.679   7.383   3.935  1.3323  0.3692 -0.4854
  882MOL0     C18999   9.807   7.360   4.004  1.0291  0.1570  0.1386
  882MOL0     C19000   9.907   7.347   4.053 -0.2251  0.1476 -0.5231
  882MOL0     C19001   9.511   7.709   3.502 -0.1796 -0.6715 -0.3352
  882MOL0     C19002   9.520   7.815   3.414  0.6964  0.1314  0.7434
  882MOL0     H19003   9.788   8.122   3.105  1.4665 -2.6324  0.9500
  882MOL0     H19004   9.826   8.247   2.883  0.2402 -1.1032  0.1297
  882MOL0     H19005   9.898   8.006   2.533  0.3123 -0.0461  2.2619
  882MOL0     H19006   9.734   7.995   2.485 -1.6456  1.4743 -2.8322
  882MOL0     H19007   9.858   8.270   2.461  2.9690 -1.0460  1.1782
  882MOL0     H19008   9.929   8.134   2.372 -0.2487 -1.6430  0.8162
  882MOL0     H19009   9.702   8.066   2.281 -2.0424 -1.0391  4.0565
  882MOL0     H19010   9.615   8.179   2.377 -0.1046 -0.6349 -0.0001
  882MOL0     H19011   9.770   8.251   2.124 -1.3400 -2.5755  0.6893
  882MOL0     H19012   9.599   8.249   2.155  1.6713 -0.0510 -2.6564
  882MOL0     H19013   9.791   8.439   2.298 -0.0711 -0.4554 -1.1223
  882MOL0     H19014   9.683   8.474   2.157  0.8816  1.4596  0.5505
  882MOL0     H19015   9.618   8.418   2.443 -2.2798  0.2953 -0.3226
  882MOL0     H19016   9.627   8.568   2.364 -1.8681  0.0300 -2.8370
  882MOL0     H19017   9.429   8.498   2.218  0.7966  0.3948  0.1029
  882MOL0     H19018   9.425   8.343   2.304 -2.8030  0.1953 -0.8591
  882MOL0     H19019   9.256   8.531   2.369  0.6955 -2.3186 -2.9453
  882MOL0     H19020   9.393   8.628   2.431 -1.8061  0.1013  1.7144
  882MOL0     H19021   9.342   8.237   2.488  0.1130 -0.5719  0.0787
  882MOL0     H19022   9.369   8.107   2.671  1.0658  1.7087 -2.2869
  882MOL0     H19023   9.520   8.152   2.749 -0.7140 -0.5019 -1.2373
  882MOL0     H19024   9.227   8.129   2.848  0.4922  0.8529 -0.0842
  882MOL0     H19025   9.365   8.212   2.942 -1.8845  1.0874  0.8556
  882MOL0     H19026   9.278   7.967   3.007 -1.0594  1.2911 -0.9622
  882MOL0     H19027   9.458   7.989   2.975  1.4545 -0.3449 -1.7116
  882MOL0     H19028   9.377   7.789   2.890 -0.9594 -0.3242  2.0574
  882MOL0     H19029   9.419   7.891   2.742  0.8943  2.1154  0.6987
  882MOL0     H19030   9.118   7.609   2.758 -3.8742 -3.5048  0.0190
  882MOL0     H19031   8.859   7.477   2.790 -1.8578 -0.7463  0.6362
  882MOL0     H19032   9.012   7.444   2.863  0.7822  1.0372  1.1814
  882MOL0     H19033   8.866   7.460   2.961  0.6930 -2.0663 -0.4643
  882MOL0     H19034   8.553   7.857   3.043 -1.4864 -2.4904 -1.0059
  882MOL0     H19035   8.330   7.908   3.148 -0.1274 -0.5755  0.1249
  882MOL0     H19036   8.131   7.839   3.242  2.5015 -0.9073 -0.5695
  882MOL0     H19037   8.064   7.840   3.416 -1.5124  0.2738 -2.0486
  882MOL0     H19038   8.235   8.071   3.313  1.9768  2.3326  3.4702
  882MOL0     H19039   8.052   8.044   3.327 -0.0503 -0.0451  1.4704
  882MOL0     H19040   8.264   8.078   3.532  0.3514 -0.9141 -1.3950
  882MOL0     H19041   8.115   7.985   3.566 -1.7318  0.5291 -0.8249
  882MOL0     H19042   8.128   8.276   3.473 -1.2333  1.6067  0.9513
  882MOL0     H19043   7.976   8.180   3.487 -1.0165  1.0493  0.0730
  882MOL0     H19044   8.015   8.326   3.694 -0.0359  0.5696 -2.9229
  882MOL0     H19045   8.182   8.265   3.707 -0.7442  3.8938  0.6151
  882MOL0     H19046   8.087   8.056   3.772  0.6377  1.9817  2.6953
  882MOL0     H19047   8.019   8.165   3.874 -0.4218  1.7960 -1.5150
  882MOL0     H19048   7.858   8.078   3.625  4.9668  0.5185 -0.4507
  882MOL0     H19049   7.800   8.169   3.762 -0.9015 -0.0755 -0.7986
  882MOL0     H19050   7.895   7.884   3.784  2.3253  2.5850  0.9180
  882MOL0     H19051   7.724   7.937   3.770  0.6074 -1.5965  0.0660
  882MOL0     H19052   8.449   7.693   3.499 -2.5975  1.5847 -1.1270
  882MOL0     H19053   8.679   7.657   3.398  1.1380  0.1387 -1.7357
  882MOL0     H19054   8.878   7.940   3.051  0.5558 -2.1973  0.9921
  882MOL0     H19055   9.061   8.023   2.890  0.5368  0.0253  0.9028
  882MOL0     H19056   9.779   7.879   2.678  0.7218  1.4945 -0.2704
  882MOL0     H19057   9.720   7.763   2.881 -3.2880  1.0468 -1.3331
  882MOL0     H19058   9.811   7.703   3.268 -0.8049  0.3079 -0.4249
  882MOL0     H19059   9.775   7.527   3.415 -1.0819 -0.0182 -2.2433
  882MOL0     H19060   9.410   7.500   3.661  0.3684 -1.1280 -1.2996
  882MOL0     H19061   9.499   7.386   3.740  0.1254  0.3582 -0.1954
  882MOL0     H19062   9.460   7.586   3.890 -1.5835 -1.9115 -2.7005
  882MOL0     H19063   9.561   7.687   3.789 -1.0806  0.3965 -0.7354
  882MOL0     H19064   9.709   7.601   3.975  1.7194  1.7717 -1.6290
  882MOL0     H19065   9.763   7.537   3.825  0.2537 -1.2836  0.9089
  882MOL0     H19066   9.662   7.311   3.855 -3.4527  0.7963 -0.1641
  882MOL0     H19067   9.598   7.374   4.008 -0.2842  1.1699 -2.1156
  882MOL0     H19068  10.000   7.315   4.097 -0.7032  0.3251  0.6497
  882MOL0     H19069   9.424   7.714   3.567 -0.0621  2.3541 -0.3140
  882MOL0     H19070   9.443   7.890   3.398  1.7726  1.3275  1.0350
  883MOL0     O19071   6.141   0.505   5.292  0.1042  0.1440  0.6442
  883MOL0     C19072   6.201   0.421   5.359 -0.8766  0.2367 -0.4349
  883MOL0     O19073   6.176   0.385   5.486  0.3545  0.9415 -0.2053
  883MOL0     C19074   6.062   0.448   5.542 -0.4683 -0.0380 -0.6591
  883MOL0     C19075   5.933   0.392   5.526  0.0235 -0.6607 -0.0399
  883MOL0     C19076   5.824   0.460   5.575  0.2464  0.6729 -0.1827
  883MOL0     C19077   5.838   0.591   5.642 -0.4891  0.3812 -0.4701
  883MOL0     O19078   5.737   0.671   5.693 -0.0379 -1.4149  0.1427
  883MOL0     C19079   5.598   0.637   5.672  0.7578 -0.0074 -0.0663
  883MOL0     C19080   5.555   0.542   5.785 -0.6108 -0.3431 -0.0512
  883MOL0     C19081   5.572   0.586   5.934  0.6259  0.5380  0.5282
  883MOL0     C19082   5.543   0.462   6.027 -0.2178  0.6667  0.7196
  883MOL0     C19083   5.504   0.513   6.164  0.2736  0.2601 -0.5031
  883MOL0     C19084   5.439   0.403   6.256  0.6223 -0.9791  1.2604
  883MOL0     C19085   5.413   0.440   6.402  1.2748 -0.0816  0.6940
  883MOL0     C19086   5.368   0.327   6.504  0.4548  0.1551  0.8887
  883MOL0     N19087   5.237   0.264   6.478 -0.1843 -0.2304  0.6826
  883MOL0     C19088   5.215   0.134   6.426 -1.1013 -1.2226  0.0564
  883MOL0     C19089   5.083   0.114   6.444  0.3915  0.5993 -0.1679
  883MOL0     C19090   5.016  -0.025   6.422 -0.8942  0.3058  0.4613
  883MOL0     C19091   5.044  -0.127   6.538  0.4877 -0.3173 -0.2803
  883MOL0     C19092   5.191  -0.159   6.567 -0.2328  0.8437 -0.2859
  883MOL0     C19093   5.211  -0.303   6.621  0.3897  0.9652 -0.1162
  883MOL0     O19094   5.352  -0.312   6.660 -0.9242  0.8317 -0.4233
  883MOL0     C19095   5.415  -0.432   6.679  0.1336  0.2878  0.9088
  883MOL0     C19096   5.352  -0.560   6.673 -0.0105 -0.3220  0.7865
  883MOL0     C19097   5.422  -0.682   6.674  0.6462  0.2292  0.2875
  883MOL0     C19098   5.342  -0.806   6.630 -0.3877 -0.3114  0.2564
  883MOL0     C19099   5.560  -0.680   6.699 -0.4697 -0.6496  0.4297
  883MOL0     C19100   5.648  -0.799   6.721 -1.0424  0.5968 -0.4305
  883MOL0     O19101   5.787  -0.787   6.700 -0.2336  0.1811 -0.4330
  883MOL0     C19102   5.878  -0.886   6.731 -0.4015 -0.5654  0.1815
  883MOL0     C19103   5.993  -0.893   6.646  1.5707 -0.3691 -0.6543
  883MOL0     C19104   6.086  -0.999   6.655 -0.4482  0.9596  0.2840
  883MOL0     C19105   6.070  -1.099   6.757 -0.2348 -0.7843 -0.0484
  883MOL0     O19106   6.145  -1.201   6.784  0.2968  0.0643  0.0533
  883MOL0     C19107   6.284  -1.179   6.749  1.1108  0.1962  0.3815
  883MOL0     C19108   6.362  -1.302   6.810 -1.0112  1.8755 -0.1184
  883MOL0     C19109   6.507  -1.280   6.798 -0.0372  0.4437 -0.1725
  883MOL0     C19110   6.584  -1.410   6.854 -0.1382 -0.0334  0.9024
  883MOL0     C19111   6.730  -1.413   6.819  0.1359  0.8528 -0.2482
  883MOL0     C19112   6.800  -1.539   6.887 -1.3259  0.8013  0.6914
  883MOL0     C19113   6.936  -1.561   6.821  0.7257 -0.5083  0.3344
  883MOL0     C19114   7.045  -1.451   6.837 -0.2577 -0.5059  0.8188
  883MOL0    Cl19115   7.078  -1.397   7.002 -0.2483  0.1329 -0.1864
  883MOL0     C19116   5.953  -1.095   6.834  0.5328 -0.9481  0.1000
  883MOL0     C19117   5.870  -0.987   6.829  0.5921 -0.1747  0.6455
  883MOL0     O19118   5.595  -0.900   6.753  0.3024  0.0639 -0.1269
  883MOL0     C19119   5.627  -0.553   6.711  0.7803  0.1582 -0.0930
  883MOL0     C19120   5.553  -0.430   6.697  0.0738 -0.9529 -1.1813
  883MOL0     N19121   5.025   0.232   6.465  0.2405  0.0834  0.3141
  883MOL0     N19122   5.115   0.322   6.494 -0.3567 -0.6994 -0.0136
  883MOL0     C19123   5.966   0.638   5.659  0.2324  0.2881  0.2921
  883MOL0     C19124   6.073   0.567   5.605 -0.4830 -0.8224  0.4230
  883MOL0     C19125   6.299   0.339   5.286  0.1439 -0.2580 -0.4064
  883MOL0     C19126   6.302   0.199   5.307 -0.0796  0.1830 -0.6742
  883MOL0     C19127   6.398   0.124   5.243  0.4453  0.7783  0.5242
  883MOL0     C19128   6.479   0.179   5.151  0.6528  0.6143  0.1489
  883MOL0     O19129   6.575   0.101   5.086 -0.9454  0.3157  0.4538
  883MOL0     C19130   6.561  -0.041   5.070 -1.0040  0.1053 -0.2448
  883MOL0     C19131   6.450  -0.080   4.969  0.6764  0.4789 -0.4720
  883MOL0     C19132   6.450  -0.231   4.944  0.8799 -0.1846  1.5489
  883MOL0     C19133   6.522  -0.271   4.808  0.5710  0.3777 -0.4209
  883MOL0     C19134   6.519  -0.171   4.703  0.4776 -1.1938 -0.4039
  883MOL0     C19135   6.503  -0.094   4.606 -0.2772  0.0111 -0.1335
  883MOL0     C19136   6.478   0.322   5.127 -0.0496 -0.8652  0.1542
  883MOL0     C19137   6.383   0.402   5.198 -0.3574 -0.1935  0.0498
  883MOL0     H19138   5.919   0.297   5.476 -0.3706 -1.4816  1.5842
  883MOL0     H19139   5.732   0.410   5.544  1.6754 -2.9562  0.9158
  883MOL0     H19140   5.550   0.736   5.673  3.4310  1.5215 -3.0517
  883MOL0     H19141   5.594   0.585   5.576  0.3117  0.7924 -0.4883
  883MOL0     H19142   5.447   0.524   5.774 -1.4151  2.5706  2.0992
  883MOL0     H19143   5.604   0.446   5.766  0.5806  0.2205  0.0923
  883MOL0     H19144   5.669   0.635   5.945  0.1460  2.0190 -1.2191
  883MOL0     H19145   5.500   0.666   5.953  2.3935  1.7970  2.3118
  883MOL0     H19146   5.453   0.416   5.985 -0.3885  1.2114  0.4883
  883MOL0     H19147   5.627   0.392   6.022 -1.0841 -0.4431  1.2682
  883MOL0     H19148   5.599   0.540   6.212  0.8948  0.0787 -1.5901
  883MOL0     H19149   5.445   0.604   6.159 -0.6624  0.0618  3.3875
  883MOL0     H19150   5.342   0.370   6.219 -0.2252  1.4066  1.1629
  883MOL0     H19151   5.513   0.323   6.255  3.5031  1.4804  0.2376
  883MOL0     H19152   5.505   0.481   6.445  0.5572 -0.0756  2.2877
  883MOL0     H19153   5.335   0.516   6.409  1.0390 -0.1506 -0.8362
  883MOL0     H19154   5.367   0.374   6.602  2.0817 -1.3458  1.6811
  883MOL0     H19155   5.451   0.256   6.496  0.0819 -0.0841 -3.2930
  883MOL0     H19156   5.291   0.059   6.408 -0.2691 -0.5028  0.5032
  883MOL0     H19157   4.908  -0.014   6.404 -1.2627 -5.5999 -3.7623
  883MOL0     H19158   5.052  -0.064   6.326 -2.5254  2.4307 -1.1226
  883MOL0     H19159   4.992  -0.221   6.512 -0.6182  0.4203 -0.8339
  883MOL0     H19160   4.997  -0.092   6.630  0.6506 -2.4828  0.7004
  883MOL0     H19161   5.238  -0.084   6.631 -1.4951  0.5726  1.0144
  883MOL0     H19162   5.246  -0.146   6.473  0.7857 -1.8015 -0.1445
  883MOL0     H19163   5.188  -0.371   6.538 -1.4683  1.0055  0.3446
  883MOL0     H19164   5.160  -0.329   6.714  1.3983 -2.4660 -0.3951
  883MOL0     H19165   5.252  -0.567   6.629  0.7433 -0.9954 -0.9314
  883MOL0     H19166   5.374  -0.820   6.527  0.3654  4.0415 -0.2943
  883MOL0     H19167   5.354  -0.891   6.698  2.2096 -1.9043 -2.0073
  883MOL0     H19168   5.236  -0.776   6.632 -0.0194  1.4208  4.3248
  883MOL0     H19169   5.992  -0.819   6.566 -1.2814 -1.4843 -1.7853
  883MOL0     H19170   6.171  -0.983   6.590 -2.6953 -0.8267 -3.3967
  883MOL0     H19171   6.304  -1.179   6.642  0.2230  1.0484  0.2018
  883MOL0     H19172   6.332  -1.095   6.801  1.1301  0.7334 -0.4875
  883MOL0     H19173   6.336  -1.324   6.914 -0.4972 -0.6311 -0.4511
  883MOL0     H19174   6.351  -1.395   6.752  4.0864  0.1839  1.1156
  883MOL0     H19175   6.534  -1.190   6.856 -1.2518 -0.3606  1.7465
  883MOL0     H19176   6.530  -1.258   6.693  0.0436  3.0717  0.3122
  883MOL0     H19177   6.559  -1.407   6.961 -0.7438  3.8412  0.8151
  883MOL0     H19178   6.540  -1.506   6.825 -2.7837  1.4093 -0.2214
  883MOL0     H19179   6.780  -1.323   6.855  0.5355  0.2904  0.6640
  883MOL0     H19180   6.746  -1.416   6.711  1.4005 -1.2053 -0.0669
  883MOL0     H19181   6.816  -1.532   6.995  1.4060 -3.0013  0.7285
  883MOL0     H19182   6.736  -1.624   6.862 -0.1089 -0.4108  1.5811
  883MOL0     H19183   6.914  -1.581   6.716  0.3043 -1.3415  0.5745
  883MOL0     H19184   6.976  -1.658   6.850  1.1422 -0.0897  1.2190
  883MOL0     H19185   7.001  -1.368   6.781 -1.2509 -0.7779  1.1789
  883MOL0     H19186   7.134  -1.478   6.778 -2.7448 -1.8642 -2.6713
  883MOL0     H19187   5.927  -1.162   6.915 -3.9593 -1.4969 -1.5574
  883MOL0     H19188   5.785  -0.978   6.896 -0.3659 -0.0471 -0.5357
  883MOL0     H19189   5.735  -0.547   6.717  0.9128  1.5866 -2.4824
  883MOL0     H19190   5.608  -0.337   6.709  0.5674 -1.4906  1.4116
  883MOL0     H19191   5.997   0.722   5.720  2.8166 -0.5952  0.3467
  883MOL0     H19192   6.177   0.598   5.606 -0.4594 -0.8781 -0.0572
  883MOL0     H19193   6.241   0.147   5.379  0.1318  2.9922  1.7148
  883MOL0     H19194   6.397   0.016   5.256  1.0488  0.9225  1.9271
  883MOL0     H19195   6.659  -0.067   5.028 -0.8173  0.3040  0.0600
  883MOL0     H19196   6.545  -0.082   5.170 -1.7131  3.0207  0.9512
  883MOL0     H19197   6.462  -0.012   4.884 -1.2589 -0.1544 -1.3196
  883MOL0     H19198   6.348  -0.061   5.005  1.0172  3.6228 -0.9409
  883MOL0     H19199   6.347  -0.268   4.935  0.7764  0.2573  0.7007
  883MOL0     H19200   6.504  -0.283   5.023 -0.0299 -4.2173 -0.1933
  883MOL0     H19201   6.480  -0.362   4.764 -3.5422  1.3754  1.0033
  883MOL0     H19202   6.626  -0.292   4.835  0.5620 -0.0193 -0.6788
  883MOL0     H19203   6.476  -0.029   4.526  1.3675  3.1292  1.6121
  883MOL0     H19204   6.552   0.351   5.053 -1.8973  0.5910 -1.2327
  883MOL0     H19205   6.386   0.506   5.168  0.5985  0.0787  1.0191
  884MOL0     O19206   6.587   5.445   6.466 -0.1124 -0.3670 -0.6962
  884MOL0     C19207   6.514   5.535   6.413 -0.0211 -0.3138 -0.3742
  884MOL0     O19208   6.546   5.666   6.412  0.3364  0.2745 -0.2075
  884MOL0     C19209   6.679   5.711   6.455  0.5146  1.4085  0.7410
  884MOL0     C19210   6.734   5.724   6.585 -0.2059 -0.2958  1.2670
  884MOL0     C19211   6.859   5.781   6.605  0.1916 -0.1018 -0.3729
  884MOL0     C19212   6.938   5.836   6.504  0.9049 -0.4717 -0.0121
  884MOL0     O19213   7.055   5.897   6.529  0.1827  0.2325  0.4656
  884MOL0     C19214   7.169   5.839   6.455  0.3409  0.8475 -0.1155
  884MOL0     C19215   7.295   5.914   6.493  0.1743  0.3480 -0.4851
  884MOL0     C19216   7.410   5.874   6.405 -0.1702  0.0882 -0.2310
  884MOL0     C19217   7.522   5.969   6.436 -0.5741  0.0025  0.2228
  884MOL0     C19218   7.658   5.911   6.396  0.5050 -0.5469 -0.0164
  884MOL0     C19219   7.758   6.011   6.465  1.2607 -0.3643  0.5326
  884MOL0     C19220   7.897   5.955   6.442 -0.3995  0.3537 -0.8232
  884MOL0     C19221   8.006   6.048   6.512  0.2496  0.8331 -0.4436
  884MOL0     N19222   8.123   5.961   6.502 -0.7015 -1.2949 -0.0404
  884MOL0     C19223   8.137   5.847   6.580 -0.0336 -0.0374  0.3568
  884MOL0     C19224   8.268   5.809   6.570  0.1580  0.1338  0.3313
  884MOL0     C19225   8.328   5.704   6.653 -0.0439  0.9795 -0.2850
  884MOL0     C19226   8.257   5.568   6.618  0.1305 -0.4044 -0.3149
  884MOL0     C19227   8.302   5.487   6.502  0.3982  0.9194 -0.3633
  884MOL0     C19228   8.225   5.547   6.383  1.1053 -0.4105  0.1206
  884MOL0     O19229   8.245   5.493   6.261 -0.9435 -0.4838  0.0553
  884MOL0     C19230   8.259   5.363   6.254 -0.3681  0.3127  0.1039
  884MOL0     C19231   8.157   5.277   6.245  0.3030  0.4670 -0.2580
  884MOL0     C19232   8.173   5.135   6.230  0.9485 -0.0315 -0.5079
  884MOL0     C19233   8.041   5.059   6.238 -0.1453 -0.7388 -0.9520
  884MOL0     C19234   8.303   5.079   6.204 -0.3881 -0.5442  0.0050
  884MOL0     C19235   8.332   4.945   6.173  0.1215 -0.0030 -0.1415
  884MOL0     O19236   8.444   4.900   6.238 -0.5575  0.2758 -0.0377
  884MOL0     C19237   8.492   4.772   6.217 -1.4399 -0.7931 -0.7029
  884MOL0     C19238   8.632   4.764   6.234  0.0010  0.2679 -0.1479
  884MOL0     C19239   8.696   4.653   6.200 -0.0189  1.1992 -0.3216
  884MOL0     C19240   8.622   4.536   6.163 -0.6490  0.3225 -0.9727
  884MOL0     O19241   8.699   4.417   6.137 -0.6666  0.3626  0.0963
  884MOL0     C19242   8.628   4.295   6.130 -0.4992  0.7548 -0.1068
  884MOL0     C19243   8.719   4.167   6.167  0.5799 -0.3171  0.2911
  884MOL0     C19244   8.742   4.149   6.317 -0.0064 -0.2575  0.1516
  884MOL0     C19245   8.760   3.997   6.359 -0.2093  0.5048  0.8174
  884MOL0     C19246   8.802   3.976   6.499  0.4078 -0.4151  0.1696
  884MOL0     C19247   8.947   4.014   6.533  0.3043 -0.0802  0.8827
  884MOL0     C19248   9.047   3.928   6.453 -0.5061 -0.4249 -0.6832
  884MOL0     C19249   9.177   3.931   6.536 -0.4582  0.1907 -0.2231
  884MOL0    Cl19250   9.313   3.838   6.466 -0.3506  0.1671 -0.3634
  884MOL0     C19251   8.490   4.541   6.167 -1.2702  0.2350 -0.0076
  884MOL0     C19252   8.423   4.656   6.184  0.0737  0.0465 -1.0344
  884MOL0     O19253   8.249   4.883   6.109  1.0166  0.7929 -0.0701
  884MOL0     C19254   8.405   5.168   6.219 -0.5912 -0.4295 -0.4090
  884MOL0     C19255   8.386   5.303   6.238  0.3282  0.4754 -0.2493
  884MOL0     N19256   8.329   5.902   6.483  0.0156  0.3540  0.4146
  884MOL0     N19257   8.244   5.995   6.453  0.3975  0.2979 -0.9000
  884MOL0     C19258   6.878   5.842   6.374 -0.3253  0.1193  0.4250
  884MOL0     C19259   6.753   5.777   6.358  0.8194 -0.9231 -0.6843
  884MOL0     C19260   6.414   5.484   6.318 -1.1135  0.4019 -0.1548
  884MOL0     C19261   6.359   5.563   6.216  0.1904 -0.5251 -0.3022
  884MOL0     C19262   6.256   5.519   6.138 -0.2523  0.2709  0.0821
  884MOL0     C19263   6.197   5.387   6.156 -0.2480 -0.8423  0.4933
  884MOL0     O19264   6.095   5.335   6.078  0.4770  0.0155  0.7271
  884MOL0     C19265   6.047   5.410   5.965 -0.4872 -0.6815  0.1572
  884MOL0     C19266   5.906   5.357   5.924  0.6152  0.6167  1.2973
  884MOL0     C19267   5.842   5.456   5.816 -0.4339  0.2504 -0.4264
  884MOL0     C19268   5.789   5.594   5.863 -0.7218 -0.4547  0.7312
  884MOL0     C19269   5.651   5.582   5.905 -1.1025  0.1315 -0.3938
  884MOL0     C19270   5.545   5.574   5.972  0.4254  0.9189  0.0498
  884MOL0     C19271   6.254   5.314   6.254  0.1806  0.5913  0.5385
  884MOL0     C19272   6.357   5.357   6.332  0.7836  0.2603 -0.1643
  884MOL0     H19273   6.676   5.690   6.670 -1.4105  0.3719  0.7349
  884MOL0     H19274   6.895   5.792   6.707 -0.3486 -1.0515 -0.0655
  884MOL0     H19275   7.186   5.732   6.472  1.9142  0.8789 -1.3343
  884MOL0     H19276   7.143   5.851   6.350 -2.0067 -0.5207  0.2249
  884MOL0     H19277   7.288   6.021   6.468 -0.4507 -0.5175 -4.8419
  884MOL0     H19278   7.321   5.905   6.599  2.0245 -2.0623 -1.0462
  884MOL0     H19279   7.437   5.773   6.439 -0.1194 -0.9728 -3.1680
  884MOL0     H19280   7.396   5.872   6.297  0.7481 -0.8332 -0.3579
  884MOL0     H19281   7.503   6.065   6.388 -2.6711 -1.7781 -2.9078
  884MOL0     H19282   7.526   5.989   6.543  3.2969  1.3066 -0.0311
  884MOL0     H19283   7.679   5.810   6.433  1.1430  0.6010  3.0355
  884MOL0     H19284   7.660   5.905   6.287 -0.0371 -1.2489 -0.0026
  884MOL0     H19285   7.750   6.107   6.415 -0.2989 -0.2721  0.9211
  884MOL0     H19286   7.729   6.018   6.570 -4.3306 -0.2493 -0.7189
  884MOL0     H19287   7.893   5.856   6.488  2.5957  0.2926 -0.5068
  884MOL0     H19288   7.919   5.953   6.335 -3.7098  1.6636 -1.6679
  884MOL0     H19289   7.974   6.056   6.616  0.9513 -0.4236 -0.1100
  884MOL0     H19290   8.015   6.141   6.456  3.2894  1.0834  0.2497
  884MOL0     H19291   8.060   5.798   6.638  2.4412 -1.0792  3.0081
  884MOL0     H19292   8.436   5.696   6.637  0.1202  2.0730  0.1530
  884MOL0     H19293   8.312   5.722   6.760 -0.9531  2.0499 -0.5787
  884MOL0     H19294   8.148   5.580   6.608  0.2701 -0.9824 -4.1714
  884MOL0     H19295   8.261   5.503   6.705 -1.4026  0.2310  0.2667
  884MOL0     H19296   8.275   5.383   6.522 -0.3032  0.8980 -1.3293
  884MOL0     H19297   8.409   5.504   6.494  0.5533  0.6176  0.8801
  884MOL0     H19298   8.243   5.654   6.371 -0.8266 -0.2700 -2.1807
  884MOL0     H19299   8.117   5.529   6.391  1.1133 -1.2050 -1.2703
  884MOL0     H19300   8.055   5.312   6.255  0.4483  1.0655 -0.8156
  884MOL0     H19301   8.059   4.959   6.278 -1.5080  0.6489  3.7215
  884MOL0     H19302   7.957   5.100   6.294 -1.7239 -2.0383 -2.2898
  884MOL0     H19303   8.005   5.068   6.135 -1.3672  5.5135 -0.3866
  884MOL0     H19304   8.687   4.852   6.269  0.4115  0.9818 -2.4374
  884MOL0     H19305   8.805   4.651   6.197  0.4010  0.6894  5.0328
  884MOL0     H19306   8.543   4.297   6.198  0.2001  1.6119  0.7652
  884MOL0     H19307   8.584   4.282   6.031 -3.4877  0.2759  1.1831
  884MOL0     H19308   8.682   4.072   6.130  0.8169 -0.3678  0.1795
  884MOL0     H19309   8.812   4.183   6.111 -0.3952  1.4861 -0.9198
  884MOL0     H19310   8.662   4.191   6.379  0.2488 -1.8383  1.6220
  884MOL0     H19311   8.836   4.200   6.340 -0.8995  1.6128 -0.1353
  884MOL0     H19312   8.662   3.952   6.343 -0.4198  1.6315 -1.6138
  884MOL0     H19313   8.822   3.942   6.287 -0.6864  2.7383 -1.4425
  884MOL0     H19314   8.778   3.872   6.521 -1.5181 -0.0936 -0.2411
  884MOL0     H19315   8.736   4.037   6.561 -0.2928 -1.0112  0.0162
  884MOL0     H19316   8.966   4.119   6.509 -0.5530 -0.5832 -2.6063
  884MOL0     H19317   8.958   4.005   6.641  2.8854  0.1152  0.7174
  884MOL0     H19318   9.050   3.966   6.350 -0.7547  0.5247 -0.3487
  884MOL0     H19319   9.004   3.828   6.443 -1.5213  0.0613 -1.3192
  884MOL0     H19320   9.156   3.899   6.639 -1.5110 -0.8386 -0.7329
  884MOL0     H19321   9.210   4.035   6.544  0.7093 -0.3214  3.9170
  884MOL0     H19322   8.420   4.463   6.139 -4.2161  2.6230  0.1476
  884MOL0     H19323   8.321   4.651   6.147 -0.4522 -0.0977  0.3509
  884MOL0     H19324   8.509   5.135   6.215 -0.7847 -1.8051  2.7263
  884MOL0     H19325   8.476   5.359   6.258 -0.2667  0.8520  1.6035
  884MOL0     H19326   6.918   5.891   6.286 -0.2091 -1.6750 -0.5800
  884MOL0     H19327   6.706   5.789   6.261 -0.3583 -1.5588 -0.2035
  884MOL0     H19328   6.382   5.669   6.202 -1.9235 -0.1723 -1.5999
  884MOL0     H19329   6.233   5.584   6.055 -1.7264 -0.1772  0.1174
  884MOL0     H19330   6.043   5.513   6.001 -1.4455 -0.7510  0.2791
  884MOL0     H19331   6.122   5.397   5.886 -2.1386 -0.4132 -1.5362
  884MOL0     H19332   5.835   5.339   6.005 -0.9109 -0.5905 -0.2181
  884MOL0     H19333   5.910   5.256   5.881 -1.1988  1.2298 -0.5101
  884MOL0     H19334   5.764   5.402   5.760  0.0781  0.7367 -1.6561
  884MOL0     H19335   5.931   5.479   5.757  3.0389 -2.3096  3.2607
  884MOL0     H19336   5.804   5.654   5.773 -1.2088 -0.9553  0.3052
  884MOL0     H19337   5.857   5.629   5.941  1.5459 -0.5978 -1.0609
  884MOL0     H19338   5.445   5.574   6.010 -0.0844  0.2364 -1.2299
  884MOL0     H19339   6.224   5.212   6.277 -0.3423  0.9311  1.4237
  884MOL0     H19340   6.402   5.286   6.401 -1.8435 -0.6970  0.6800
  885MOL0     O19341   7.667   0.997   8.087 -0.3526 -0.0806 -0.4806
  885MOL0     C19342   7.777   1.004   8.152 -0.0721 -0.0171 -0.1369
  885MOL0     O19343   7.807   1.094   8.252  0.1327 -0.3333 -0.3671
  885MOL0     C19344   7.723   1.204   8.280  0.4354  0.0711 -0.3499
  885MOL0     C19345   7.652   1.278   8.185  0.3650 -0.9624  0.0684
  885MOL0     C19346   7.574   1.388   8.231  0.5110 -0.4547 -0.5784
  885MOL0     C19347   7.555   1.423   8.362 -0.0226 -0.2798 -0.7819
  885MOL0     O19348   7.500   1.545   8.394  0.3562  0.5981 -0.4199
  885MOL0     C19349   7.462   1.579   8.531 -0.6622  0.1203  0.7962
  885MOL0     C19350   7.436   1.722   8.539  0.2876  0.2292 -0.2103
  885MOL0     C19351   7.571   1.792   8.518  0.2502 -0.6040  0.2629
  885MOL0     C19352   7.546   1.930   8.505  0.1706 -1.1226 -0.0749
  885MOL0     C19353   7.678   2.008   8.478 -0.8589 -1.5998 -0.5368
  885MOL0     C19354   7.649   2.161   8.448 -0.0013 -0.2935 -0.6736
  885MOL0     C19355   7.597   2.205   8.314  0.6124  0.4763  1.3485
  885MOL0     C19356   7.515   2.338   8.314 -1.1173  0.5482  0.3829
  885MOL0     N19357   7.552   2.422   8.199  0.2128 -0.4028  0.6942
  885MOL0     C19358   7.534   2.401   8.064  0.6882 -0.5605 -0.6033
  885MOL0     C19359   7.557   2.525   8.015 -0.0998 -1.3800  0.1481
  885MOL0     C19360   7.541   2.558   7.868  0.3754  0.3912 -0.4507
  885MOL0     C19361   7.674   2.554   7.801 -0.3653  0.3577  0.5714
  885MOL0     C19362   7.650   2.557   7.649 -0.3077  0.1809 -0.5145
  885MOL0     C19363   7.759   2.487   7.583  0.6118  0.9118  0.2128
  885MOL0     O19364   7.735   2.519   7.448  0.0716 -0.5939 -0.3655
  885MOL0     C19365   7.797   2.437   7.353 -0.0679 -0.2567  0.4474
  885MOL0     C19366   7.717   2.344   7.270 -0.4475  0.0227  0.9795
  885MOL0     C19367   7.786   2.246   7.190  0.0234 -0.3411 -0.5040
  885MOL0     C19368   7.691   2.168   7.111  0.5748  0.3137  0.5557
  885MOL0     C19369   7.928   2.224   7.202  0.6751  0.1151 -0.8256
  885MOL0     C19370   7.995   2.134   7.109  0.4068 -0.6693 -0.5420
  885MOL0     O19371   7.945   2.110   6.985  0.0865  0.4294  0.4731
  885MOL0     C19372   7.950   2.214   6.891 -0.3631 -0.4369 -0.9175
  885MOL0     C19373   7.925   2.173   6.756 -0.1262 -0.7316  0.4785
  885MOL0     C19374   7.924   2.265   6.651  0.8241  0.2078 -0.5902
  885MOL0     C19375   7.948   2.397   6.681  0.5985 -0.8809  0.8423
  885MOL0     O19376   7.949   2.464   6.562 -0.2152 -0.0134  0.4347
  885MOL0     C19377   8.009   2.597   6.564  0.1857  0.5483  0.3622
  885MOL0     C19378   7.973   2.675   6.437  0.4276  0.2383  0.9939
  885MOL0     C19379   8.053   2.798   6.401  0.4803 -0.0292  0.2937
  885MOL0     C19380   8.029   2.849   6.264 -0.3687 -0.1746 -0.2750
  885MOL0     C19381   7.922   2.947   6.262  1.2864  0.4974  0.8093
  885MOL0     C19382   7.904   3.012   6.126 -0.0807 -0.5572  0.0949
  885MOL0     C19383   7.807   3.125   6.141  0.1505  0.2114  0.1302
  885MOL0     C19384   7.708   3.120   6.028  0.9683 -0.2638 -0.6347
  885MOL0    Cl19385   7.588   2.991   6.066  0.0463  0.4823 -0.0196
  885MOL0     C19386   7.988   2.439   6.807  0.8483  0.5717 -1.3935
  885MOL0     C19387   7.981   2.351   6.915 -0.7361 -0.9096 -0.9235
  885MOL0     O19388   8.081   2.064   7.161  0.9640 -0.4463  0.8197
  885MOL0     C19389   7.999   2.306   7.285  0.5699 -0.5377  0.9115
  885MOL0     C19390   7.937   2.412   7.356 -0.3163 -0.3315 -0.0987
  885MOL0     N19391   7.581   2.619   8.110 -1.1055 -0.9009 -0.3288
  885MOL0     N19392   7.590   2.550   8.219 -0.0712 -0.0312 -1.0870
  885MOL0     C19393   7.609   1.339   8.461  0.0790  0.0003 -1.4551
  885MOL0     C19394   7.686   1.228   8.423 -1.1590 -0.7848  0.7933
  885MOL0     C19395   7.882   0.903   8.120  0.9995  0.1856 -0.8377
  885MOL0     C19396   8.007   0.914   8.180 -0.4301 -0.8308 -0.3964
  885MOL0     C19397   8.108   0.830   8.126  0.4689 -0.8411  0.3399
  885MOL0     C19398   8.090   0.752   8.011 -0.2095  0.7075 -0.1269
  885MOL0     O19399   8.191   0.677   7.959 -0.3854 -0.1538  0.0365
  885MOL0     C19400   8.191   0.534   8.000  0.1390 -0.3728 -0.5679
  885MOL0     C19401   8.075   0.439   7.973  0.3369 -0.3920  0.5149
  885MOL0     C19402   8.065   0.400   7.824  0.6585  0.3901 -0.1283
  885MOL0     C19403   8.180   0.349   7.748 -0.2090  0.0137  0.5494
  885MOL0     C19404   8.239   0.227   7.815  0.5188 -0.4346  0.2978
  885MOL0     C19405   8.268   0.119   7.873  0.0910 -0.1193 -0.0205
  885MOL0     C19406   7.969   0.752   7.953  0.6698  0.0248  0.2275
  885MOL0     C19407   7.857   0.811   8.013  0.6317 -0.5473  0.2662
  885MOL0     H19408   7.658   1.258   8.079 -2.3205 -0.1436 -0.3230
  885MOL0     H19409   7.514   1.445   8.160 -0.0104 -1.0603 -0.6385
  885MOL0     H19410   7.380   1.521   8.576  2.0210 -2.8779  2.2447
  885MOL0     H19411   7.548   1.564   8.598  1.6069  0.8949 -1.7738
  885MOL0     H19412   7.372   1.748   8.453 -0.0366 -1.4278 -0.4963
  885MOL0     H19413   7.398   1.742   8.639 -0.4467  0.9336 -0.6176
  885MOL0     H19414   7.637   1.764   8.601  3.0340 -2.8550 -2.4530
  885MOL0     H19415   7.633   1.745   8.441 -1.0838  0.9101 -1.8181
  885MOL0     H19416   7.480   1.945   8.418 -0.7979 -1.0890  0.6485
  885MOL0     H19417   7.502   1.979   8.592  0.6074 -1.0588  0.1097
  885MOL0     H19418   7.749   2.010   8.561 -0.3021 -0.3562 -1.0238
  885MOL0     H19419   7.733   1.969   8.393  1.1628 -0.4595  0.1807
  885MOL0     H19420   7.594   2.208   8.530 -0.4829  0.3724 -1.3644
  885MOL0     H19421   7.747   2.211   8.450 -0.4864  0.7689 -1.9768
  885MOL0     H19422   7.678   2.211   8.241  0.2077 -3.1922  0.4071
  885MOL0     H19423   7.528   2.129   8.274  0.2710  0.6840  1.5336
  885MOL0     H19424   7.527   2.378   8.415  1.2775 -1.3265  0.9247
  885MOL0     H19425   7.406   2.337   8.312 -1.2775  3.8358  1.2551
  885MOL0     H19426   7.489   2.315   8.017 -0.0527 -1.8741  2.2831
  885MOL0     H19427   7.489   2.472   7.825  0.6205 -0.8447  1.5631
  885MOL0     H19428   7.488   2.652   7.853  2.9823  2.2608  1.0437
  885MOL0     H19429   7.731   2.463   7.822  1.9106  0.1151 -4.8761
  885MOL0     H19430   7.731   2.645   7.823  0.9350 -0.5239  1.0037
  885MOL0     H19431   7.658   2.660   7.613  1.1399  0.0226 -0.6826
  885MOL0     H19432   7.562   2.500   7.619 -0.6045  1.3908 -2.0657
  885MOL0     H19433   7.752   2.379   7.600 -0.9234  0.4086 -2.9904
  885MOL0     H19434   7.859   2.518   7.615  1.9635 -0.7133 -2.1292
  885MOL0     H19435   7.612   2.368   7.257  0.0341  1.6705 -0.2108
  885MOL0     H19436   7.699   2.210   7.010 -1.9823 -1.0828 -0.3083
  885MOL0     H19437   7.715   2.062   7.121 -1.3438  0.0537  3.7726
  885MOL0     H19438   7.587   2.176   7.142  0.2085 -0.8690 -0.2908
  885MOL0     H19439   7.904   2.068   6.737  0.9617 -1.1408  1.4042
  885MOL0     H19440   7.901   2.237   6.549  0.8971  2.0353 -1.1455
  885MOL0     H19441   7.976   2.647   6.655 -1.0803 -2.1120  1.4738
  885MOL0     H19442   8.118   2.587   6.561  0.2718  1.5028  0.0140
  885MOL0     H19443   7.989   2.605   6.354  1.8334  0.4040  1.0914
  885MOL0     H19444   7.865   2.692   6.444 -0.6803 -4.3443 -0.8169
  885MOL0     H19445   8.159   2.770   6.409  1.5501  2.7073 -2.1501
  885MOL0     H19446   8.049   2.874   6.479  1.1028  0.7701 -0.4262
  885MOL0     H19447   8.117   2.903   6.226 -0.2454  0.7065  1.1862
  885MOL0     H19448   8.007   2.767   6.195 -0.3097  1.8373 -2.8578
  885MOL0     H19449   7.933   3.024   6.340  1.8151  0.9072  0.3356
  885MOL0     H19450   7.830   2.892   6.285  1.0765  0.5231  0.0433
  885MOL0     H19451   8.001   3.043   6.086  0.0755 -1.2113 -0.0503
  885MOL0     H19452   7.868   2.945   6.048 -0.0131  1.0472 -1.3725
  885MOL0     H19453   7.877   3.206   6.119 -0.5003  1.0814  1.1812
  885MOL0     H19454   7.779   3.144   6.245  1.5882 -1.1122  0.7910
  885MOL0     H19455   7.757   3.103   5.932  0.0303  0.6238 -1.2934
  885MOL0     H19456   7.659   3.218   6.019 -0.0015 -0.5484  1.0808
  885MOL0     H19457   8.009   2.539   6.844  1.9555 -0.8973  2.4984
  885MOL0     H19458   8.009   2.394   7.010 -0.5809  1.2051 -1.8893
  885MOL0     H19459   8.108   2.306   7.283  0.5888  1.3551  0.5355
  885MOL0     H19460   7.998   2.480   7.415  0.6859  0.0940 -1.5608
  885MOL0     H19461   7.604   1.356   8.568  0.7931  0.7106 -1.5243
  885MOL0     H19462   7.734   1.174   8.505  0.9606 -0.2022  0.0135
  885MOL0     H19463   8.032   0.978   8.263  0.2819 -2.4819  0.7268
  885MOL0     H19464   8.214   0.832   8.151  0.9659 -1.3194 -1.5202
  885MOL0     H19465   8.279   0.493   7.950  1.1568  1.0188  0.0238
  885MOL0     H19466   8.207   0.534   8.108 -2.7047 -2.7308 -0.0082
  885MOL0     H19467   7.976   0.484   7.990 -0.7474 -1.5057 -2.2652
  885MOL0     H19468   8.098   0.357   8.040 -1.1983 -0.1495  1.3744
  885MOL0     H19469   8.021   0.482   7.766  0.8973 -0.9017 -2.2462
  885MOL0     H19470   8.001   0.312   7.819  1.4234 -0.1670 -0.2803
  885MOL0     H19471   8.251   0.432   7.747  1.2454 -1.1687 -1.3579
  885MOL0     H19472   8.140   0.306   7.656 -3.7790 -3.1651  3.2857
  885MOL0     H19473   8.303   0.032   7.925  0.5368 -0.9965 -1.7114
  885MOL0     H19474   7.947   0.700   7.860  1.1093 -2.5297  1.4610
  885MOL0     H19475   7.756   0.801   7.975  0.0892 -2.5857  2.0925
  886MOL0     O19476   7.744   6.342  10.017 -0.5027 -0.3899  0.2328
  886MOL0     C19477   7.777   6.233  10.057  0.4853 -0.0038  0.8000
  886MOL0     O19478   7.689   6.132  10.088 -0.1812  0.3434 -0.3054
  886MOL0     C19479   7.555   6.144  10.093  0.6593 -0.3073 -0.7022
  886MOL0     C19480   7.495   6.222  10.189  0.2221 -0.3377  0.5434
  886MOL0     C19481   7.354   6.228  10.180 -0.0612 -0.7729 -0.6473
  886MOL0     C19482   7.278   6.153  10.091 -0.1063  0.8114  0.3154
  886MOL0     O19483   7.145   6.180  10.084 -0.2715  0.7718  0.1265
  886MOL0     C19484   7.064   6.100  10.170 -0.0798  0.4613 -0.7421
  886MOL0     C19485   6.923   6.138  10.149 -1.0645  0.1191  0.2581
  886MOL0     C19486   6.871   6.072  10.022  0.3224  0.9689 -0.0688
  886MOL0     C19487   6.728   6.106  10.008 -0.3311  0.2336 -0.2839
  886MOL0     C19488   6.640   6.028  10.108  0.2153 -0.4776 -0.5251
  886MOL0     C19489   6.499   5.990  10.064 -0.1743  1.2609 -0.3762
  886MOL0     C19490   6.437   5.917  10.188  0.5507 -0.6592  0.1994
  886MOL0     C19491   6.284   5.903  10.181 -0.0134 -0.4238 -0.4849
  886MOL0     N19492   6.229   5.806  10.286 -1.0138  0.2213 -0.2610
  886MOL0     C19493   6.235   5.817  10.422  0.9105  0.5007  0.4580
  886MOL0     C19494   6.158   5.716  10.474  0.5674 -0.0717 -0.8241
  886MOL0     C19495   6.118   5.674  10.616  0.3608 -0.1840  0.5204
  886MOL0     C19496   6.240   5.676  10.713  0.2529  0.0606 -1.1136
  886MOL0     C19497   6.189   5.624  10.852 -0.3843 -0.0161  0.0284
  886MOL0     C19498   6.304   5.584  10.937 -0.4139 -0.3822 -0.2325
  886MOL0     O19499   6.361   5.463  10.881 -0.8108 -0.2712  0.4360
  886MOL0     C19500   6.501   5.447  10.888  0.3035  0.0081 -0.9887
  886MOL0     C19501   6.571   5.477  11.009 -0.2898  0.0937  0.2120
  886MOL0     C19502   6.711   5.473  11.006  0.8089 -0.0527 -0.9491
  886MOL0     C19503   6.788   5.486  11.138 -0.4244 -0.8306  0.9268
  886MOL0     C19504   6.778   5.432  10.882  1.2424 -0.4766 -1.8397
  886MOL0     C19505   6.925   5.452  10.866  0.5604 -0.6138 -0.0887
  886MOL0     O19506   6.989   5.377  10.766 -0.2469 -0.5572 -0.0567
  886MOL0     C19507   7.113   5.415  10.720  0.0041  0.9512  0.6170
  886MOL0     C19508   7.154   5.547  10.713  0.2582 -0.0226  0.3666
  886MOL0     C19509   7.280   5.576  10.669 -0.5550  0.2012  0.0481
  886MOL0     C19510   7.375   5.476  10.634 -0.5906 -0.7710 -0.6323
  886MOL0     O19511   7.500   5.525  10.601  0.6730 -0.7559 -0.1059
  886MOL0     C19512   7.568   5.438  10.513 -0.2067  0.2058  0.5809
  886MOL0     C19513   7.689   5.506  10.453 -0.0644  0.2187 -0.8033
  886MOL0     C19514   7.798   5.527  10.552  0.6016 -0.0139  0.0006
  886MOL0     C19515   7.922   5.585  10.484 -0.4757 -0.2501  0.7208
  886MOL0     C19516   8.030   5.621  10.578  0.7272  0.1795 -0.4299
  886MOL0     C19517   8.164   5.618  10.517 -0.1598  0.4966 -0.0030
  886MOL0     C19518   8.272   5.627  10.634 -0.2051 -0.3303  0.7751
  886MOL0     C19519   8.402   5.657  10.558  0.8002 -0.4028  0.2965
  886MOL0    Cl19520   8.548   5.579  10.633  0.0001 -0.0155  0.0837
  886MOL0     C19521   7.331   5.347  10.632 -0.4491 -0.3606  0.2974
  886MOL0     C19522   7.199   5.311  10.664  0.3779 -0.6542 -0.5328
  886MOL0     O19523   6.982   5.527  10.940  0.3409  0.3505  0.1448
  886MOL0     C19524   6.709   5.404  10.764  0.0105  0.4770 -0.4297
  886MOL0     C19525   6.568   5.399  10.771  0.3646 -0.5244  0.0794
  886MOL0     N19526   6.105   5.646  10.362 -0.4208  0.5880 -0.9751
  886MOL0     N19527   6.162   5.697  10.253  0.0886  0.0798 -1.3199
  886MOL0     C19528   7.340   6.058  10.009  0.2355 -0.0830  0.6389
  886MOL0     C19529   7.480   6.065  10.009 -0.5615  0.6048 -0.4522
  886MOL0     C19530   7.915   6.206  10.089 -0.3426 -0.5607  0.8321
  886MOL0     C19531   7.951   6.072  10.130 -1.0435 -0.9754 -0.0501
  886MOL0     C19532   8.086   6.052  10.173 -0.5668  0.2763 -1.0951
  886MOL0     C19533   8.184   6.156  10.176  0.1001  0.9678  0.0387
  886MOL0     O19534   8.305   6.135  10.227 -0.2766  0.3625  0.3520
  886MOL0     C19535   8.427   6.128  10.141 -0.6653 -0.2058  0.3661
  886MOL0     C19536   8.406   6.058  10.003 -0.8647 -0.1288 -0.0745
  886MOL0     C19537   8.544   6.014   9.943  0.6898 -0.0701  0.0767
  886MOL0     C19538   8.641   6.136   9.905  0.6532  1.4590 -1.3754
  886MOL0     C19539   8.729   6.109   9.792 -0.6908 -0.3353  0.1319
  886MOL0     C19540   8.797   6.085   9.695 -0.3951  0.6280 -0.2853
  886MOL0     C19541   8.144   6.286  10.130  0.3710  0.4483 -0.4700
  886MOL0     C19542   8.006   6.308  10.082  0.0047  0.1158 -0.1947
  886MOL0     H19543   7.550   6.283  10.260  0.1179 -0.4118  0.6889
  886MOL0     H19544   7.302   6.307  10.233  0.8327 -0.7072  0.1629
  886MOL0     H19545   7.077   5.992  10.160 -0.5388  0.1832  1.3290
  886MOL0     H19546   7.086   6.128  10.273 -0.7001 -1.3874 -0.0767
  886MOL0     H19547   6.869   6.099  10.236 -1.3356 -0.4574 -0.1706
  886MOL0     H19548   6.914   6.247  10.144 -0.8535  0.1620  0.6824
  886MOL0     H19549   6.925   6.095   9.930 -1.9079  1.3307 -1.3634
  886MOL0     H19550   6.868   5.964  10.037 -0.4584  1.3238  3.2475
  886MOL0     H19551   6.727   6.214  10.021 -0.8292  0.3604 -1.2803
  886MOL0     H19552   6.703   6.097   9.902  0.5380  0.9260 -0.5558
  886MOL0     H19553   6.698   5.943  10.145  3.8094  2.1843  0.5017
  886MOL0     H19554   6.637   6.096  10.194  2.9167 -2.0498  0.9264
  886MOL0     H19555   6.457   6.090  10.048 -0.7915  1.3768  1.6342
  886MOL0     H19556   6.512   5.925   9.977  2.9541  1.4885 -0.2090
  886MOL0     H19557   6.484   5.822  10.214  0.5472 -0.6374  0.2836
  886MOL0     H19558   6.456   5.978  10.276 -1.2171 -0.2085  0.3075
  886MOL0     H19559   6.262   5.865  10.081  0.2909  1.3341 -1.2476
  886MOL0     H19560   6.235   5.998  10.200  0.8396  0.1702 -1.1916
  886MOL0     H19561   6.273   5.904  10.474  2.0367  0.8812 -0.9345
  886MOL0     H19562   6.038   5.743  10.646  1.2984  3.2353 -3.7944
  886MOL0     H19563   6.062   5.580  10.609  0.4383 -0.2121  0.2441
  886MOL0     H19564   6.273   5.780  10.712 -2.4534  1.0244 -2.9995
  886MOL0     H19565   6.312   5.607  10.667 -2.3220 -4.3857  0.7692
  886MOL0     H19566   6.118   5.543  10.834 -1.1953  0.9826 -1.5116
  886MOL0     H19567   6.130   5.707  10.891 -0.7737 -0.7760  1.1073
  886MOL0     H19568   6.285   5.570  11.044  2.4607  2.4076  0.8124
  886MOL0     H19569   6.375   5.665  10.919 -1.2880  0.6706  0.9185
  886MOL0     H19570   6.517   5.499  11.100  0.1861  1.7635  0.1255
  886MOL0     H19571   6.864   5.407  11.146  3.3623  2.1242 -1.6993
  886MOL0     H19572   6.854   5.574  11.134  1.2165 -2.0408 -0.9504
  886MOL0     H19573   6.732   5.495  11.231  1.1277 -2.4615  2.0919
  886MOL0     H19574   7.102   5.637  10.745  0.4315  0.7223 -1.3289
  886MOL0     H19575   7.313   5.676  10.645  0.2891 -0.0097  0.2977
  886MOL0     H19576   7.606   5.353  10.571  0.8059  0.9827  1.0890
  886MOL0     H19577   7.500   5.400  10.437  0.3562  2.2573 -1.0436
  886MOL0     H19578   7.728   5.439  10.376  2.0603 -0.3586  0.6796
  886MOL0     H19579   7.658   5.599  10.404  2.7207  1.6718 -0.0282
  886MOL0     H19580   7.823   5.426  10.587 -0.3051 -0.3455 -0.2697
  886MOL0     H19581   7.771   5.595  10.633 -0.8804 -1.3840  0.7142
  886MOL0     H19582   7.953   5.509  10.412 -0.6551  1.1091 -0.8473
  886MOL0     H19583   7.884   5.670  10.427 -1.0845 -0.2115  1.1664
  886MOL0     H19584   8.027   5.548  10.659 -2.4474  0.9036  0.2366
  886MOL0     H19585   8.005   5.710  10.636 -1.6472  0.3223 -1.5690
  886MOL0     H19586   8.170   5.529  10.453  0.1310  0.8157 -0.4235
  886MOL0     H19587   8.175   5.702  10.448 -4.0122  0.3746 -1.0315
  886MOL0     H19588   8.271   5.537  10.696  2.2989 -0.4506  0.7673
  886MOL0     H19589   8.250   5.706  10.707  1.1218  1.7304 -0.9263
  886MOL0     H19590   8.425   5.764  10.556 -1.1235  0.1452  2.4914
  886MOL0     H19591   8.393   5.624  10.454 -3.6176  2.3743 -0.4598
  886MOL0     H19592   7.393   5.273  10.582 -3.2312 -1.7175 -1.4330
  886MOL0     H19593   7.162   5.209  10.656 -2.4724  0.0892  1.3555
  886MOL0     H19594   6.760   5.377  10.672 -0.6096  0.7036 -0.8501
  886MOL0     H19595   6.506   5.382  10.684  0.7235 -0.7465 -0.1382
  886MOL0     H19596   7.288   5.989   9.942  0.8154 -2.8103  2.7992
  886MOL0     H19597   7.542   6.004   9.944 -0.6670 -0.1474  0.1294
  886MOL0     H19598   7.878   5.991  10.134 -1.4250 -0.7464 -1.5202
  886MOL0     H19599   8.123   5.957  10.210  1.2308  1.3326 -0.0134
  886MOL0     H19600   8.464   6.229  10.122 -1.0699 -0.7741 -4.8154
  886MOL0     H19601   8.495   6.074  10.208 -0.5585 -0.9525 -0.3371
  886MOL0     H19602   8.347   6.116   9.932 -1.2172  0.4503  0.6759
  886MOL0     H19603   8.374   5.957  10.030 -1.2719  0.4269  1.6297
  886MOL0     H19604   8.514   5.960   9.853 -0.1916  1.9715 -0.9488
  886MOL0     H19605   8.592   5.952  10.018  0.1939 -3.1199 -1.9331
  886MOL0     H19606   8.711   6.158   9.987  2.1029 -0.2780 -2.0850
  886MOL0     H19607   8.585   6.228   9.885 -2.5575  0.0516  0.2928
  886MOL0     H19608   8.862   6.061   9.613 -1.9809 -2.5279 -0.7751
  886MOL0     H19609   8.216   6.367  10.127 -1.4787  2.2174  0.8264
  886MOL0     H19610   7.971   6.408  10.059  0.6417  0.7962  1.6132
  887MOL0     O19611   6.805   4.139   8.286  0.2557 -0.1957 -0.0895
  887MOL0     C19612   6.706   4.076   8.321  0.5540 -0.4925  0.8205
  887MOL0     O19613   6.604   4.132   8.400  0.0986 -0.2233 -0.3941
  887MOL0     C19614   6.624   4.265   8.423 -0.7029  0.8267 -0.1471
  887MOL0     C19615   6.613   4.369   8.334 -0.1902 -0.7965 -0.2953
  887MOL0     C19616   6.628   4.504   8.368 -0.3090  0.2647  0.1128
  887MOL0     C19617   6.677   4.533   8.504  0.7895 -0.6599 -0.1896
  887MOL0     O19618   6.709   4.661   8.550  0.5163 -0.1003 -0.4906
  887MOL0     C19619   6.746   4.742   8.441  0.3443  0.5531  0.4050
  887MOL0     C19620   6.829   4.857   8.489  1.0471  0.8618  0.3409
  887MOL0     C19621   6.950   4.825   8.562 -0.1471  0.4587  0.0065
  887MOL0     C19622   7.057   4.938   8.539 -0.5247  0.3735  0.5767
  887MOL0     C19623   7.171   4.920   8.640 -0.4707 -0.1198  0.1796
  887MOL0     C19624   7.252   5.050   8.680  0.3383  0.5027  0.2177
  887MOL0     C19625   7.362   5.023   8.793 -0.7124 -0.3942  0.4659
  887MOL0     C19626   7.359   5.135   8.896 -0.1075 -0.1496 -0.1209
  887MOL0     N19627   7.492   5.127   8.973  0.6587  0.1777 -0.0349
  887MOL0     C19628   7.613   5.165   8.932 -0.3424 -0.8055 -0.5505
  887MOL0     C19629   7.693   5.154   9.035  0.0562 -0.8744  0.1478
  887MOL0     C19630   7.844   5.157   9.025  0.1053 -0.5231  0.2482
  887MOL0     C19631   7.928   5.234   9.128 -0.2210  1.0066 -0.5716
  887MOL0     C19632   8.071   5.261   9.077 -0.5768  0.4388 -0.4546
  887MOL0     C19633   8.168   5.279   9.185  0.6781  0.4803  0.0165
  887MOL0     O19634   8.300   5.252   9.142  0.1219  0.2688  0.6816
  887MOL0     C19635   8.376   5.344   9.084 -0.0151 -0.4372  0.2235
  887MOL0     C19636   8.513   5.328   9.092  0.1895 -0.0139 -0.3276
  887MOL0     C19637   8.600   5.426   9.041 -0.5405 -0.0780 -0.5568
  887MOL0     C19638   8.740   5.380   9.045 -0.3826 -0.4707 -1.1428
  887MOL0     C19639   8.553   5.550   8.991 -0.1684  0.0955  0.4699
  887MOL0     C19640   8.634   5.644   8.910 -0.1240  0.6318 -0.5034
  887MOL0     O19641   8.732   5.609   8.821 -0.6865  0.7187  0.0100
  887MOL0     C19642   8.816   5.711   8.788 -1.3722  0.8538  0.8337
  887MOL0     C19643   8.782   5.809   8.686 -0.2675  0.4216 -1.2470
  887MOL0     C19644   8.876   5.896   8.633 -0.4393  1.1602  0.5759
  887MOL0     C19645   9.009   5.886   8.671  0.7399  0.3831  0.0648
  887MOL0     O19646   9.098   5.973   8.615  0.3746  0.4888  0.2428
  887MOL0     C19647   9.103   5.994   8.474  0.1675 -0.0191 -0.7784
  887MOL0     C19648   9.244   6.050   8.451  0.1297  0.7877  0.4069
  887MOL0     C19649   9.286   6.069   8.301 -0.5526  0.3688  0.6043
  887MOL0     C19650   9.382   6.193   8.296 -0.0354  0.0620 -0.0447
  887MOL0     C19651   9.514   6.162   8.372  0.2854 -1.1488  0.3369
  887MOL0     C19652   9.617   6.273   8.370 -0.2476 -0.5120  0.6297
  887MOL0     C19653   9.582   6.395   8.458 -0.2994 -0.0814  0.5085
  887MOL0     C19654   9.694   6.496   8.438 -0.2549 -0.4937 -0.1787
  887MOL0    Cl19655   9.697   6.625   8.555  0.0935  0.4005 -0.9544
  887MOL0     C19656   9.048   5.798   8.770 -0.3651 -0.6973  0.2072
  887MOL0     C19657   8.954   5.698   8.824 -0.6803 -0.4235  0.4188
  887MOL0     O19658   8.601   5.764   8.923 -0.9862  0.2141  0.4675
  887MOL0     C19659   8.412   5.577   9.000 -0.1029 -0.1445 -0.4680
  887MOL0     C19660   8.330   5.476   9.049  0.9097  1.1863 -0.3633
  887MOL0     N19661   7.617   5.124   9.151 -0.3815  0.1897 -0.0041
  887MOL0     N19662   7.494   5.100   9.106 -0.6062  0.8856 -0.0594
  887MOL0     C19663   6.699   4.426   8.594  0.0325  0.3248  0.6049
  887MOL0     C19664   6.669   4.293   8.548 -1.8034 -0.8241  0.5700
  887MOL0     C19665   6.699   3.934   8.274  0.4193  0.0362  0.3031
  887MOL0     C19666   6.591   3.852   8.324 -0.1690 -0.4953  0.0769
  887MOL0     C19667   6.569   3.721   8.273 -0.2601  0.8659 -0.4834
  887MOL0     C19668   6.652   3.671   8.174 -0.3323  1.4680  0.3238
  887MOL0     O19669   6.630   3.544   8.119 -0.0967  0.3629 -0.1794
  887MOL0     C19670   6.584   3.431   8.201 -0.3946 -0.2541 -0.0673
  887MOL0     C19671   6.578   3.299   8.120 -0.4398  0.2759  0.9129
  887MOL0     C19672   6.528   3.320   7.973 -0.8281  0.2788 -0.6195
  887MOL0     C19673   6.511   3.180   7.915 -0.3974  0.5153  0.2695
  887MOL0     C19674   6.418   3.174   7.797 -1.1678 -0.6087 -0.1122
  887MOL0     C19675   6.353   3.152   7.698 -0.2339  0.0972  0.5945
  887MOL0     C19676   6.753   3.746   8.131  0.2397 -0.1497 -0.5638
  887MOL0     C19677   6.785   3.879   8.175 -0.0677  0.5210 -0.0277
  887MOL0     H19678   6.588   4.347   8.230  1.9471 -2.4981 -0.5254
  887MOL0     H19679   6.609   4.587   8.301 -1.2511  1.4354  1.7345
  887MOL0     H19680   6.805   4.694   8.362  0.3115  2.9767 -1.2126
  887MOL0     H19681   6.658   4.782   8.389  1.0146  1.2024 -0.2446
  887MOL0     H19682   6.860   4.911   8.399 -0.8314 -3.1942 -3.0546
  887MOL0     H19683   6.766   4.932   8.539 -0.8639  1.3886 -2.5920
  887MOL0     H19684   6.924   4.805   8.667 -1.0649 -2.3185 -0.6627
  887MOL0     H19685   7.000   4.733   8.529  1.4561  1.4937 -0.5835
  887MOL0     H19686   7.098   4.927   8.438  3.7345  2.5264  1.8465
  887MOL0     H19687   7.014   5.037   8.553  3.7902  2.4423  0.8603
  887MOL0     H19688   7.125   4.890   8.734  1.5722 -3.2642  0.3222
  887MOL0     H19689   7.243   4.843   8.610 -0.5169 -0.6150  1.2782
  887MOL0     H19690   7.296   5.091   8.588  4.1032 -1.1811  1.1064
  887MOL0     H19691   7.181   5.122   8.722  2.4687  2.0598  1.3421
  887MOL0     H19692   7.338   4.930   8.847  1.9393 -2.1576 -1.1405
  887MOL0     H19693   7.465   5.008   8.761 -0.5783 -0.4008  0.9072
  887MOL0     H19694   7.273   5.119   8.961 -0.9535  3.9930  0.0228
  887MOL0     H19695   7.350   5.237   8.858 -0.8576 -1.7822 -5.1534
  887MOL0     H19696   7.638   5.192   8.830 -1.2966  0.1702 -0.5592
  887MOL0     H19697   7.861   5.049   9.031  0.6006 -0.3870  2.0169
  887MOL0     H19698   7.877   5.186   8.925  1.3240 -0.2174  0.7086
  887MOL0     H19699   7.934   5.177   9.221  1.6664  2.0813  0.0361
  887MOL0     H19700   7.885   5.332   9.152  0.5251  1.4028 -0.8100
  887MOL0     H19701   8.082   5.327   8.990  1.2142  1.8212  0.7501
  887MOL0     H19702   8.110   5.172   9.027 -1.3609  0.7738 -1.7243
  887MOL0     H19703   8.147   5.208   9.266 -2.3409 -0.8439 -1.7684
  887MOL0     H19704   8.166   5.382   9.222 -1.3314 -0.1127  1.7928
  887MOL0     H19705   8.542   5.246   9.156  3.5887 -0.0709 -1.7706
  887MOL0     H19706   8.796   5.385   9.139 -1.2172  0.1250 -0.6643
  887MOL0     H19707   8.737   5.272   9.031  1.5948 -1.0450  1.8690
  887MOL0     H19708   8.804   5.431   8.973 -1.5903  1.7212 -0.7457
  887MOL0     H19709   8.678   5.814   8.656 -0.3941  2.2864 -0.6442
  887MOL0     H19710   8.850   5.971   8.558  2.2505  0.6391 -0.9753
  887MOL0     H19711   9.079   5.904   8.417  2.1032 -0.8938 -0.3239
  887MOL0     H19712   9.027   6.068   8.447  0.4945 -0.4631 -3.0893
  887MOL0     H19713   9.253   6.143   8.509  1.3255  0.4978  0.7242
  887MOL0     H19714   9.315   5.983   8.500 -0.8897  0.6097  1.6788
  887MOL0     H19715   9.199   6.092   8.239 -0.0880 -2.2422 -1.1214
  887MOL0     H19716   9.338   5.984   8.256 -1.7298 -0.9590  1.6650
  887MOL0     H19717   9.415   6.222   8.196 -0.0818 -0.2500 -0.1517
  887MOL0     H19718   9.333   6.273   8.351 -0.1437 -2.3233  3.7308
  887MOL0     H19719   9.553   6.070   8.326  2.3634 -0.4775  0.6586
  887MOL0     H19720   9.491   6.127   8.473 -4.1787 -1.0474 -0.4498
  887MOL0     H19721   9.702   6.225   8.420 -0.4056  0.1575  1.5780
  887MOL0     H19722   9.637   6.301   8.267  2.1750  0.5689  1.3197
  887MOL0     H19723   9.572   6.379   8.566 -2.0958  0.9753  0.5379
  887MOL0     H19724   9.491   6.447   8.429  2.1134  3.4460 -1.5119
  887MOL0     H19725   9.693   6.543   8.339 -3.0750  0.9784  0.4444
  887MOL0     H19726   9.785   6.435   8.439  0.4491  0.4883  2.2961
  887MOL0     H19727   9.153   5.802   8.796 -0.1498  0.8491 -0.7927
  887MOL0     H19728   8.982   5.633   8.906 -0.4604  1.1020  1.5991
  887MOL0     H19729   8.370   5.668   8.960  1.8863 -1.0394 -5.3942
  887MOL0     H19730   8.225   5.504   9.053  1.0298  1.5239  0.9039
  887MOL0     H19731   6.731   4.443   8.696 -1.4794 -2.2659  1.6032
  887MOL0     H19732   6.689   4.219   8.625  2.6468  0.0972  0.5737
  887MOL0     H19733   6.526   3.888   8.402  2.3942  2.0463  1.2031
  887MOL0     H19734   6.483   3.667   8.312  0.8213  1.2363  2.6646
  887MOL0     H19735   6.642   3.429   8.294  0.7129  3.0974 -0.5770
  887MOL0     H19736   6.484   3.457   8.236  0.1767 -0.2369  1.6435
  887MOL0     H19737   6.516   3.224   8.171 -1.9505  2.1430  1.9498
  887MOL0     H19738   6.679   3.258   8.112 -0.6716 -0.2960  0.8609
  887MOL0     H19739   6.603   3.375   7.916 -0.3963 -1.1091 -1.4561
  887MOL0     H19740   6.433   3.374   7.983 -1.3837 -0.1185 -3.0762
  887MOL0     H19741   6.456   3.120   7.989 -2.9677  5.7248  3.2033
  887MOL0     H19742   6.610   3.139   7.898 -1.7970 -2.6010 -0.9899
  887MOL0     H19743   6.301   3.125   7.609 -2.5430  1.5040  1.4355
  887MOL0     H19744   6.805   3.688   8.055  1.8663 -0.9411  1.0704
  887MOL0     H19745   6.874   3.928   8.137  0.3774  0.8396  1.3604
  888MOL0     O19746   4.211   7.364   4.863 -0.2400 -0.2453  0.0962
  888MOL0     C19747   4.097   7.326   4.871 -0.3726 -0.0730 -0.2069
  888MOL0     O19748   4.007   7.363   4.971  0.6235  1.3964  1.0127
  888MOL0     C19749   4.020   7.477   5.045  0.0817 -1.1101 -0.2046
  888MOL0     C19750   3.938   7.592   5.017 -0.4617 -0.1321  0.0113
  888MOL0     C19751   3.949   7.712   5.087  0.0198  0.0437  0.0499
  888MOL0     C19752   4.039   7.727   5.196 -0.2102  0.1475  0.3891
  888MOL0     O19753   4.064   7.838   5.267 -0.2092  0.5573  0.4991
  888MOL0     C19754   4.036   7.968   5.208  0.7878 -0.2868  0.6377
  888MOL0     C19755   3.913   8.029   5.282 -0.3798  0.4110 -0.3576
  888MOL0     C19756   3.933   8.031   5.437  0.3794  0.1845  0.7441
  888MOL0     C19757   4.062   8.102   5.482 -0.8031 -0.6537 -0.2946
  888MOL0     C19758   4.095   8.090   5.639  0.0260  0.1401 -0.3630
  888MOL0     C19759   4.042   8.215   5.712  0.7772 -0.5983  0.8047
  888MOL0     C19760   4.033   8.198   5.862 -0.0590 -0.6563  0.3010
  888MOL0     C19761   3.979   8.318   5.938 -0.2820 -0.7701 -0.3924
  888MOL0     N19762   3.848   8.364   5.913  0.7018 -0.9267 -0.1335
  888MOL0     C19763   3.737   8.320   5.967  0.2534 -0.0574 -0.4501
  888MOL0     C19764   3.632   8.402   5.941 -0.5355  0.9231  0.5892
  888MOL0     C19765   3.499   8.380   5.992 -0.5590  0.0201  0.3569
  888MOL0     C19766   3.452   8.512   6.058  1.5611 -0.7095 -1.0583
  888MOL0     C19767   3.350   8.463   6.175  0.3079 -0.2660  0.4948
  888MOL0     C19768   3.215   8.428   6.105 -0.3432  0.1063 -0.5793
  888MOL0     O19769   3.165   8.550   6.046  0.0507  0.1117  0.0053
  888MOL0     C19770   3.050   8.532   5.971  0.0385 -0.3355 -0.0339
  888MOL0     C19771   3.026   8.641   5.892  0.7163  0.7822  0.0443
  888MOL0     C19772   2.925   8.641   5.801 -0.2818 -0.1575  0.1441
  888MOL0     C19773   2.906   8.760   5.705 -0.5522  0.3594  0.0589
  888MOL0     C19774   2.829   8.532   5.797 -0.3779 -0.0391 -0.3535
  888MOL0     C19775   2.719   8.533   5.696  0.0719  0.7322 -0.0979
  888MOL0     O19776   2.600   8.615   5.701 -0.7783 -0.0944  0.2009
  888MOL0     C19777   2.583   8.684   5.818 -0.3506 -0.1252  0.8588
  888MOL0     C19778   2.586   8.611   5.942  0.2464  0.1051  0.1080
  888MOL0     C19779   2.579   8.683   6.059 -0.0270 -0.3252  0.1194
  888MOL0     C19780   2.579   8.823   6.062 -0.1748  0.7855  0.8758
  888MOL0     O19781   2.571   8.884   6.187 -0.2854  0.3621  0.9337
  888MOL0     C19782   2.701   8.906   6.237  0.5136 -0.7568 -0.7278
  888MOL0     C19783   2.682   8.970   6.380  0.3283 -0.0163  0.3707
  888MOL0     C19784   2.812   9.030   6.418 -0.5680  0.2863  0.3373
  888MOL0     C19785   2.848   9.171   6.371 -0.2640 -0.2323 -0.3752
  888MOL0     C19786   2.949   9.234   6.464 -0.0005  0.5668 -0.2053
  888MOL0     C19787   2.905   9.267   6.604  0.8263  0.0987  0.3037
  888MOL0     C19788   2.789   9.371   6.614  0.1693 -0.7531 -0.1175
  888MOL0     C19789   2.812   9.502   6.525 -0.6707  0.6831  0.2729
  888MOL0    Cl19790   2.949   9.589   6.597  0.1416 -0.2751 -0.1261
  888MOL0     C19791   2.570   8.894   5.942  0.6342 -0.2835  0.5631
  888MOL0     C19792   2.581   8.821   5.822  0.1883  0.3604 -1.1264
  888MOL0     O19793   2.734   8.448   5.605  0.2124  0.5226 -0.6772
  888MOL0     C19794   2.850   8.421   5.886 -0.6405 -0.2855 -0.2586
  888MOL0     C19795   2.958   8.422   5.971 -0.4068 -0.0371  0.1262
  888MOL0     N19796   3.685   8.495   5.865 -0.7190  0.3391  0.2575
  888MOL0     N19797   3.813   8.478   5.849 -0.8128  0.2910 -0.1441
  888MOL0     C19798   4.111   7.618   5.234  0.3153 -0.6709  1.0482
  888MOL0     C19799   4.107   7.492   5.156 -0.1722 -0.0952  0.7119
  888MOL0     C19800   4.044   7.260   4.746  0.2150 -0.0312 -1.4212
  888MOL0     C19801   4.128   7.223   4.642  0.1751  0.5729  0.0556
  888MOL0     C19802   4.078   7.142   4.536  0.7584  0.1961  0.2960
  888MOL0     C19803   3.951   7.103   4.533 -0.2846 -0.4189  0.5986
  888MOL0     O19804   3.925   7.004   4.448  0.4560  0.3489  0.4317
  888MOL0     C19805   3.811   6.924   4.476  0.3513  0.2260 -0.6484
  888MOL0     C19806   3.801   6.792   4.394  0.6132  0.1967 -0.4573
  888MOL0     C19807   3.847   6.804   4.253  0.6748  0.1785  1.3795
  888MOL0     C19808   3.910   6.675   4.191 -0.0398  1.3630  0.3957
  888MOL0     C19809   3.971   6.704   4.056  0.0590 -0.0362  0.0916
  888MOL0     C19810   4.005   6.717   3.935  0.5007  0.2369  0.4172
  888MOL0     C19811   3.860   7.158   4.624  0.2750 -0.4229 -0.9835
  888MOL0     C19812   3.906   7.238   4.730  0.0764  0.2397 -0.4213
  888MOL0     H19813   3.864   7.596   4.939  1.3350 -0.7236 -1.8028
  888MOL0     H19814   3.876   7.791   5.070  1.8659  1.6813 -0.6696
  888MOL0     H19815   4.121   8.032   5.232  0.5590 -0.5704  2.3516
  888MOL0     H19816   4.026   7.974   5.099  2.5676  1.5779  0.5185
  888MOL0     H19817   3.899   8.132   5.250 -0.9350  0.2375 -0.6866
  888MOL0     H19818   3.823   7.970   5.262  0.1941 -0.7933  0.4806
  888MOL0     H19819   3.848   8.086   5.478 -0.5551  0.2850 -1.2095
  888MOL0     H19820   3.921   7.931   5.481  0.2053 -0.6871 -1.1939
  888MOL0     H19821   4.147   8.054   5.432  0.0054  1.7606 -1.3725
  888MOL0     H19822   4.057   8.207   5.454 -0.2279 -0.9979 -1.7424
  888MOL0     H19823   4.043   8.003   5.679  0.4447  0.4989  0.9987
  888MOL0     H19824   4.200   8.076   5.666  0.4917  0.4820 -1.8742
  888MOL0     H19825   4.094   8.307   5.682  2.8331 -2.2797 -1.1914
  888MOL0     H19826   3.939   8.235   5.682  0.2958 -2.0090  1.4199
  888MOL0     H19827   3.973   8.107   5.873  0.1445 -1.2634 -2.6627
  888MOL0     H19828   4.131   8.171   5.901  0.8050 -1.1897 -2.0800
  888MOL0     H19829   4.053   8.398   5.923  0.0940 -1.0019  0.1568
  888MOL0     H19830   3.992   8.286   6.042 -0.5560 -0.3686 -0.2283
  888MOL0     H19831   3.731   8.238   6.038 -1.9157 -1.8581 -2.5140
  888MOL0     H19832   3.427   8.361   5.911 -3.2467  2.1000  2.1027
  888MOL0     H19833   3.494   8.297   6.064 -4.3749  0.0372  0.3591
  888MOL0     H19834   3.400   8.571   5.982  0.3455 -0.8132 -0.3286
  888MOL0     H19835   3.532   8.568   6.106 -0.4607  2.4438 -1.0948
  888MOL0     H19836   3.328   8.535   6.254 -1.5464  1.0587 -1.1243
  888MOL0     H19837   3.388   8.371   6.220  0.3433 -0.4221  0.1508
  888MOL0     H19838   3.144   8.386   6.177  0.7956  0.3582  0.7192
  888MOL0     H19839   3.235   8.358   6.023  3.1956  0.9647 -0.6065
  888MOL0     H19840   3.103   8.715   5.875  2.6772 -1.2492 -0.3076
  888MOL0     H19841   2.942   8.748   5.603  2.6950  1.6424  0.9061
  888MOL0     H19842   2.799   8.779   5.700 -0.8867 -1.4900 -0.4555
  888MOL0     H19843   2.954   8.846   5.754  1.4255 -1.4448  1.4822
  888MOL0     H19844   2.603   8.503   5.944 -0.7019 -0.0588 -0.1560
  888MOL0     H19845   2.581   8.641   6.159 -2.5405  0.0706  0.3923
  888MOL0     H19846   2.748   8.807   6.237  0.9528 -0.6427  2.4195
  888MOL0     H19847   2.747   8.981   6.172  1.6030  2.5897  3.4260
  888MOL0     H19848   2.602   9.044   6.375  0.6028  0.3707  1.4853
  888MOL0     H19849   2.645   8.892   6.447 -2.2017  0.0019 -0.8753
  888MOL0     H19850   2.894   8.971   6.377  0.1486  1.4356  0.0571
  888MOL0     H19851   2.815   9.012   6.526  0.2477 -2.2585 -0.0400
  888MOL0     H19852   2.895   9.173   6.273  0.2501 -0.9231 -0.1546
  888MOL0     H19853   2.752   9.223   6.380 -0.2943  0.0963 -2.2190
  888MOL0     H19854   2.996   9.323   6.421  2.4296 -0.4433  0.1939
  888MOL0     H19855   3.031   9.162   6.473 -2.3899 -2.8065 -2.8766
  888MOL0     H19856   2.869   9.177   6.656  1.2923 -1.5552 -2.0516
  888MOL0     H19857   3.001   9.305   6.640  1.5291  0.1731 -1.5644
  888MOL0     H19858   2.781   9.402   6.719  1.1535  3.5741 -1.1216
  888MOL0     H19859   2.698   9.320   6.579  1.5397 -4.4568  1.2175
  888MOL0     H19860   2.723   9.565   6.517 -3.3774 -3.0024 -1.8811
  888MOL0     H19861   2.829   9.454   6.429  2.4315 -0.0317  1.0833
  888MOL0     H19862   2.583   9.001   5.952  1.8025 -0.2744 -0.8062
  888MOL0     H19863   2.588   8.866   5.723  0.8427  0.6183 -0.9703
  888MOL0     H19864   2.788   8.332   5.882 -1.2412 -0.0662  2.4621
  888MOL0     H19865   2.966   8.345   6.047 -2.1915  1.5241  2.0232
  888MOL0     H19866   4.188   7.629   5.310 -1.5934  1.3307  2.8376
  888MOL0     H19867   4.180   7.415   5.178 -0.4669 -0.1401  1.5463
  888MOL0     H19868   4.233   7.249   4.637  0.6063 -1.0206  0.3129
  888MOL0     H19869   4.150   7.083   4.481  0.4722  1.8754 -2.0578
  888MOL0     H19870   3.810   6.891   4.580 -1.3629  1.6533 -0.1644
  888MOL0     H19871   3.722   6.987   4.465 -2.1785 -2.8803  0.6164
  888MOL0     H19872   3.698   6.756   4.387  0.1962  1.0140  1.1324
  888MOL0     H19873   3.864   6.719   4.448 -0.7382  0.6889  1.9222
  888MOL0     H19874   3.924   6.881   4.242  2.3434 -1.7233 -1.7238
  888MOL0     H19875   3.758   6.828   4.193  1.7570  1.0629  0.0582
  888MOL0     H19876   3.832   6.599   4.178  0.2454  1.1413 -0.0235
  888MOL0     H19877   3.991   6.633   4.251  0.6695  1.4674 -0.4633
  888MOL0     H19878   4.026   6.731   3.831  1.8382  0.8569  0.7498
  888MOL0     H19879   3.761   7.116   4.635  0.3270 -0.3863 -0.3301
  888MOL0     H19880   3.838   7.250   4.813 -0.4373 -0.1685 -0.7758
  889MOL0     O19881   8.727  10.295   7.363  0.4465  0.0542  0.1879
  889MOL0     C19882   8.798  10.226   7.294 -0.4657 -0.7868 -0.0927
  889MOL0     O19883   8.756  10.108   7.228  0.6491  0.3785 -0.4275
  889MOL0     C19884   8.619  10.073   7.242 -0.6748  1.4870 -0.0421
  889MOL0     C19885   8.571  10.004   7.130  0.3516  0.1654  0.5087
  889MOL0     C19886   8.433   9.963   7.135 -0.1464  0.1564  0.5286
  889MOL0     C19887   8.350   9.984   7.243  0.0326  0.4846 -1.1260
  889MOL0     O19888   8.215   9.943   7.228  0.0781  0.1572  0.2269
  889MOL0     C19889   8.125   9.950   7.346  0.6398 -0.4847 -0.2106
  889MOL0     C19890   7.981   9.942   7.290 -0.5432  0.4798  0.4294
  889MOL0     C19891   7.865   9.897   7.389  0.5637 -0.7916 -0.3620
  889MOL0     C19892   7.910   9.781   7.479 -0.1607  0.2477  0.2554
  889MOL0     C19893   7.795   9.732   7.571 -0.4484 -0.4479  0.7517
  889MOL0     C19894   7.806   9.601   7.644 -0.6914  0.0171  1.4396
  889MOL0     C19895   7.936   9.589   7.720 -0.6866 -0.0099 -0.3967
  889MOL0     C19896   7.940   9.700   7.832 -0.1462  1.3263 -0.3439
  889MOL0     N19897   8.064   9.687   7.906 -0.1776 -0.2711 -0.5518
  889MOL0     C19898   8.071   9.676   8.041 -0.5874 -0.5127 -0.4786
  889MOL0     C19899   8.207   9.696   8.068 -0.3785  0.4977  0.5181
  889MOL0     C19900   8.266   9.689   8.206  0.6276 -0.8025 -0.6413
  889MOL0     C19901   8.318   9.828   8.259  0.1408 -0.2182 -0.2184
  889MOL0     C19902   8.221   9.948   8.234  0.1021  0.2290  0.0195
  889MOL0     C19903   8.289  10.076   8.285  0.0658  0.5715  0.3731
  889MOL0     O19904   8.196  10.177   8.316 -0.3924  0.0429 -0.2767
  889MOL0     C19905   8.252  10.283   8.385 -0.5765 -0.7125  0.3614
  889MOL0     C19906   8.174  10.390   8.417  1.1150  0.6944 -0.6660
  889MOL0     C19907   8.225  10.502   8.482  0.6571  0.1607 -1.4363
  889MOL0     C19908   8.126  10.612   8.517 -0.9534 -0.1343  0.3875
  889MOL0     C19909   8.368  10.523   8.517  0.9466  0.5193 -0.1286
  889MOL0     C19910   8.432  10.637   8.593  0.1759 -0.2962  1.1185
  889MOL0     O19911   8.563  10.613   8.611  0.2365 -0.2008  0.3950
  889MOL0     C19912   8.642  10.666   8.708 -0.3477  0.2536 -0.3705
  889MOL0     C19913   8.592  10.736   8.820 -0.2866 -0.5032 -0.6652
  889MOL0     C19914   8.676  10.792   8.927 -0.6589 -0.3916  0.5755
  889MOL0     C19915   8.810  10.774   8.914  0.5400 -0.1192 -0.6626
  889MOL0     O19916   8.892  10.827   9.017  0.5170 -0.4765 -0.4071
  889MOL0     C19917   9.029  10.793   9.036  0.5774  0.2112  0.3746
  889MOL0     C19918   9.081  10.861   9.168  0.5446  0.7412 -0.4148
  889MOL0     C19919   9.003  10.816   9.293  0.8195  0.1877 -0.2451
  889MOL0     C19920   9.074  10.868   9.415  0.3712 -0.0394 -0.3091
  889MOL0     C19921   8.988  10.844   9.532 -0.4699 -0.5336  0.4636
  889MOL0     C19922   9.063  10.878   9.666  1.0254  0.8332 -0.2336
  889MOL0     C19923   9.101  11.032   9.689  0.9351 -0.9358 -0.4401
  889MOL0     C19924   8.968  11.117   9.712  0.1319  0.1638 -0.9564
  889MOL0    Cl19925   8.876  11.118   9.863  0.1370  0.3285  0.3448
  889MOL0     C19926   8.859  10.695   8.802  0.0981 -0.1292  0.5140
  889MOL0     C19927   8.775  10.639   8.700 -0.9277  0.1052 -0.6217
  889MOL0     O19928   8.364  10.727   8.640 -0.4298 -1.2284 -0.1263
  889MOL0     C19929   8.441  10.410   8.484 -0.3798  0.1118  0.6581
  889MOL0     C19930   8.390  10.296   8.418 -0.3266  0.0600  0.4472
  889MOL0     N19931   8.277   9.702   7.951  0.2013 -0.3526  0.0233
  889MOL0     N19932   8.187   9.705   7.853  0.0200 -0.5573  0.5438
  889MOL0     C19933   8.402  10.037   7.359 -0.7260 -0.3335  0.6209
  889MOL0     C19934   8.541  10.083   7.353 -0.1181 -0.4448  0.1154
  889MOL0     C19935   8.938  10.260   7.276 -0.0653  0.2041 -0.3848
  889MOL0     C19936   8.998  10.389   7.300  0.1644 -0.8049 -0.1433
  889MOL0     C19937   9.141  10.404   7.294  0.2766 -1.1109 -0.3021
  889MOL0     C19938   9.219  10.305   7.230 -0.0114 -0.5471 -0.4419
  889MOL0     O19939   9.356  10.321   7.215  0.2004  0.5061  0.2176
  889MOL0     C19940   9.435  10.243   7.307  0.6902  0.1774 -0.4213
  889MOL0     C19941   9.513  10.334   7.406 -0.0942 -0.1746  0.4750
  889MOL0     C19942   9.420  10.375   7.522  0.7728  0.2180  0.0637
  889MOL0     C19943   9.485  10.424   7.649 -0.3845 -0.3646  0.5177
  889MOL0     C19944   9.558  10.330   7.741  0.6060  0.5671 -0.5748
  889MOL0     C19945   9.613  10.225   7.786  0.1004  0.6656  0.2014
  889MOL0     C19946   9.159  10.196   7.170  0.4406 -0.3721 -0.4133
  889MOL0     C19947   9.028  10.163   7.207 -0.2192 -0.9206  0.4369
  889MOL0     H19948   8.631   9.995   7.040 -1.9364 -1.8234 -0.9097
  889MOL0     H19949   8.387   9.914   7.049 -1.5418  2.4695 -0.1328
  889MOL0     H19950   8.152   9.862   7.404  0.9482  0.2695  0.8214
  889MOL0     H19951   8.120  10.039   7.409 -0.8929 -0.1174 -0.8088
  889MOL0     H19952   7.964  10.041   7.247 -0.0887  0.1324 -0.5649
  889MOL0     H19953   7.980   9.874   7.205  1.1967  0.4862  0.3775
  889MOL0     H19954   7.843   9.982   7.455  1.7988  0.3659 -1.3883
  889MOL0     H19955   7.773   9.876   7.334 -0.0330 -0.4612  0.4890
  889MOL0     H19956   7.947   9.692   7.427  1.9240 -1.2577  3.9285
  889MOL0     H19957   7.990   9.802   7.550  1.0020 -1.4415 -0.4911
  889MOL0     H19958   7.777   9.815   7.641  4.2320 -0.5497  2.4431
  889MOL0     H19959   7.701   9.734   7.514  0.0251  0.1025 -0.0249
  889MOL0     H19960   7.725   9.579   7.713 -1.2155 -2.2302  0.1975
  889MOL0     H19961   7.810   9.526   7.565  1.0699 -0.4447  1.9081
  889MOL0     H19962   7.941   9.493   7.771  0.0184  0.0368 -0.3698
  889MOL0     H19963   8.019   9.588   7.649 -0.4335 -3.2537 -0.1767
  889MOL0     H19964   7.861   9.698   7.908 -0.2841  1.4426 -0.4828
  889MOL0     H19965   7.938   9.798   7.785 -1.9139  2.6826  2.3048
  889MOL0     H19966   7.996   9.668   8.119  0.1738  2.5250  0.7159
  889MOL0     H19967   8.189   9.661   8.279  0.8250 -1.5966 -0.7265
  889MOL0     H19968   8.347   9.616   8.198  0.2935 -1.6921  2.6926
  889MOL0     H19969   8.408   9.842   8.200  0.5223 -3.1799 -0.4770
  889MOL0     H19970   8.330   9.812   8.366  2.3732  0.0975 -0.3889
  889MOL0     H19971   8.131   9.925   8.292  1.1782 -1.9115  0.9765
  889MOL0     H19972   8.212   9.974   8.128  1.9224  0.9185  0.0106
  889MOL0     H19973   8.364  10.100   8.209  3.3252 -5.0031  1.2323
  889MOL0     H19974   8.344  10.040   8.372  1.9144 -2.3767 -1.8040
  889MOL0     H19975   8.071  10.391   8.382  1.1167 -0.5701 -0.7481
  889MOL0     H19976   8.156  10.708   8.474  5.0424 -0.4250  2.8781
  889MOL0     H19977   8.026  10.583   8.484 -0.5249  1.8168 -3.1667
  889MOL0     H19978   8.127  10.627   8.625  2.8503 -1.2416  0.6806
  889MOL0     H19979   8.487  10.751   8.844  0.1482  0.3619  0.8269
  889MOL0     H19980   8.649  10.847   9.017  1.7334 -0.2132  1.2520
  889MOL0     H19981   9.023  10.686   9.056  1.2887  0.4130  1.7888
  889MOL0     H19982   9.103  10.809   8.956 -0.2373 -0.8898 -0.6299
  889MOL0     H19983   9.187  10.837   9.183 -0.1533 -1.3750  1.8148
  889MOL0     H19984   9.083  10.970   9.160  0.7944  0.6608 -1.7318
  889MOL0     H19985   8.991  10.707   9.299  1.0946  0.2220  3.1606
  889MOL0     H19986   8.898  10.846   9.296  0.9634  0.6860 -0.0940
  889MOL0     H19987   9.168  10.815   9.434  0.7514 -0.0724 -2.1506
  889MOL0     H19988   9.095  10.975   9.401  0.7740  0.3149  2.4247
  889MOL0     H19989   8.952  10.741   9.539 -1.6505 -0.2768 -1.2681
  889MOL0     H19990   8.900  10.908   9.522 -0.4662 -0.0852  2.7393
  889MOL0     H19991   9.008  10.840   9.752  3.3683 -3.5289 -0.3800
  889MOL0     H19992   9.142  10.803   9.658 -1.5569 -2.0019 -1.0050
  889MOL0     H19993   9.157  11.069   9.602 -0.1436  3.7454  0.5366
  889MOL0     H19994   9.159  11.031   9.781 -0.2172 -0.5892  0.3025
  889MOL0     H19995   8.903  11.093   9.628 -0.4295 -0.8011 -0.2652
  889MOL0     H19996   9.009  11.219   9.704  1.8409 -0.5079 -1.1916
  889MOL0     H19997   8.963  10.666   8.795 -0.5828 -3.0666  1.4132
  889MOL0     H19998   8.817  10.579   8.621  0.1886 -0.4001  0.3250
  889MOL0     H19999   8.547  10.421   8.504 -0.0611  0.7282 -1.1690
  889MOL0     H20000   8.461  10.215   8.405 -3.0045 -2.6562  1.5896
  889MOL0     H20001   8.332  10.066   7.436 -3.7191  1.4896 -2.5046
  889MOL0     H20002   8.581  10.130   7.442 -1.0161 -1.1340  0.9034
  889MOL0     H20003   8.925  10.460   7.337 -0.0761  0.2499 -2.4775
  889MOL0     H20004   9.199  10.489   7.330  0.3303  0.0934 -3.0054
  889MOL0     H20005   9.368  10.175   7.360 -0.3070 -0.4920 -2.4259
  889MOL0     H20006   9.498  10.187   7.238  1.0709 -1.4917  1.2133
  889MOL0     H20007   9.544  10.420   7.346 -1.5964 -0.5338 -0.8685
  889MOL0     H20008   9.594  10.282   7.457 -0.7309 -1.1985  0.4580
  889MOL0     H20009   9.352  10.292   7.540 -1.4930  2.0319  0.3305
  889MOL0     H20010   9.350  10.455   7.493 -2.2108 -1.7033  1.5388
  889MOL0     H20011   9.401  10.465   7.706 -0.9559 -0.0486 -0.5249
  889MOL0     H20012   9.553  10.502   7.614 -2.3002  0.4182 -1.7210
  889MOL0     H20013   9.650  10.129   7.816 -0.4057 -0.0221 -1.2799
  889MOL0     H20014   9.223  10.130   7.112  0.9366 -0.1217 -0.1562
  889MOL0     H20015   9.009  10.064   7.166 -0.8874 -1.9061  2.9798
  890MOL0     O20016   2.703   1.386   5.748 -0.6861 -0.5420  0.6984
  890MOL0     C20017   2.808   1.439   5.770 -0.7535  0.1715  0.4057
  890MOL0     O20018   2.923   1.433   5.686  0.0716 -0.9074 -0.8883
  890MOL0     C20019   2.951   1.367   5.575 -0.0749  0.5494  0.5183
  890MOL0     C20020   2.895   1.239   5.548  0.3244 -0.4229  0.6265
  890MOL0     C20021   2.945   1.162   5.444  0.1513  0.4901 -0.8149
  890MOL0     C20022   3.040   1.213   5.356 -0.0999  0.1451  0.5982
  890MOL0     O20023   3.108   1.130   5.264 -0.1311 -0.4740 -0.1981
  890MOL0     C20024   3.039   1.004   5.211  0.1171  0.1282 -0.7643
  890MOL0     C20025   3.121   0.953   5.095 -0.2729  0.7626  0.4222
  890MOL0     C20026   3.046   0.849   5.025 -0.4845  0.3846  0.1071
  890MOL0     C20027   3.123   0.771   4.924  0.0067 -0.4252 -0.1132
  890MOL0     C20028   3.052   0.654   4.852 -0.2948 -0.3296 -0.2689
  890MOL0     C20029   2.936   0.695   4.772  0.1935 -0.1591  0.6176
  890MOL0     C20030   2.967   0.798   4.663 -0.1815 -0.2234 -0.1145
  890MOL0     C20031   3.077   0.745   4.562 -0.2489 -0.3705  0.0508
  890MOL0     N20032   3.022   0.632   4.491 -0.8816 -0.3820  0.4605
  890MOL0     C20033   3.097   0.536   4.425 -1.2342  0.0743 -0.7416
  890MOL0     C20034   3.008   0.450   4.376  0.8676  0.0695  0.2535
  890MOL0     C20035   3.047   0.318   4.312 -1.2095 -0.6413 -0.3313
  890MOL0     C20036   2.937   0.206   4.313 -0.1378  0.2358  0.2026
  890MOL0     C20037   2.945   0.094   4.209 -0.5528 -0.2187  0.1735
  890MOL0     C20038   3.074   0.022   4.242 -0.6998 -0.4725  0.6068
  890MOL0     O20039   3.086  -0.079   4.141 -0.2136  0.6436  0.0205
  890MOL0     C20040   3.201  -0.152   4.128  0.4781 -0.2742 -0.0108
  890MOL0     C20041   3.191  -0.243   4.023 -0.1552  1.0383  0.4999
  890MOL0     C20042   3.305  -0.309   3.977 -1.0028 -0.2204 -0.0715
  890MOL0     C20043   3.309  -0.411   3.874 -0.3907  0.3708  0.4026
  890MOL0     C20044   3.424  -0.291   4.045 -0.6911  0.5248 -0.4568
  890MOL0     C20045   3.553  -0.362   3.998  0.4985 -0.2531  0.9688
  890MOL0     O20046   3.576  -0.348   3.864  0.2173 -0.0299 -0.4517
  890MOL0     C20047   3.690  -0.408   3.817  0.1889  0.2219 -0.4557
  890MOL0     C20048   3.744  -0.345   3.704 -0.0375 -0.0629 -0.3430
  890MOL0     C20049   3.850  -0.411   3.625 -0.0178  0.2955 -0.6462
  890MOL0     C20050   3.900  -0.533   3.661 -0.3978  0.6791 -0.5735
  890MOL0     O20051   4.007  -0.585   3.581 -0.0266  0.2126  0.6293
  890MOL0     C20052   4.113  -0.657   3.648 -0.8439 -1.0110 -0.5489
  890MOL0     C20053   4.226  -0.556   3.682 -0.9260  0.1048  0.3231
  890MOL0     C20054   4.346  -0.616   3.763  0.2775 -0.7990 -0.3273
  890MOL0     C20055   4.449  -0.510   3.796 -0.0395 -0.5322  1.2290
  890MOL0     C20056   4.543  -0.559   3.907  0.1556 -0.1583  0.5659
  890MOL0     C20057   4.636  -0.447   3.944  0.0934 -0.4689  0.4892
  890MOL0     C20058   4.728  -0.498   4.065  0.6201 -0.6676  0.8226
  890MOL0     C20059   4.873  -0.443   4.057 -0.1602 -0.2007 -0.1576
  890MOL0    Cl20060   4.845  -0.302   4.156 -0.1603 -0.5291 -0.4095
  890MOL0     C20061   3.858  -0.584   3.782  0.0208  0.0027 -0.7440
  890MOL0     C20062   3.749  -0.528   3.860 -0.1120  1.6451  0.4283
  890MOL0     O20063   3.630  -0.393   4.082 -0.4838 -0.2731 -0.0093
  890MOL0     C20064   3.424  -0.206   4.157 -0.5445  0.8817  0.1001
  890MOL0     C20065   3.316  -0.133   4.199  0.6938 -1.0876  0.0666
  890MOL0     N20066   2.883   0.515   4.365 -0.8570 -0.1534  0.0254
  890MOL0     N20067   2.892   0.628   4.444  0.5464 -0.0313 -0.0389
  890MOL0     C20068   3.093   1.335   5.382 -0.7728 -0.7847 -0.0360
  890MOL0     C20069   3.055   1.410   5.498  0.6554 -0.4624  1.2474
  890MOL0     C20070   2.818   1.522   5.884 -0.2099 -1.2491 -0.2559
  890MOL0     C20071   2.908   1.627   5.907  0.5953  0.2580  0.3524
  890MOL0     C20072   2.907   1.705   6.022  0.7309 -0.5438 -0.2685
  890MOL0     C20073   2.817   1.699   6.127  0.8213  0.1205  0.1447
  890MOL0     O20074   2.801   1.788   6.232 -0.0908 -0.3076  0.5440
  890MOL0     C20075   2.901   1.884   6.251  0.6906  0.4349 -0.2894
  890MOL0     C20076   2.871   1.968   6.383 -0.2058  0.3957  1.4312
  890MOL0     C20077   2.860   1.874   6.503  0.2240  0.4911 -0.5662
  890MOL0     C20078   2.885   1.948   6.621  0.2578 -0.4826  0.7710
  890MOL0     C20079   2.753   1.983   6.669  0.9912  0.0539 -0.4184
  890MOL0     C20080   2.635   1.986   6.716  0.6890 -0.2622  0.1880
  890MOL0     C20081   2.727   1.595   6.104 -0.2500  0.2863 -0.0765
  890MOL0     C20082   2.732   1.500   5.999 -0.4519  0.2720  0.1930
  890MOL0     H20083   2.810   1.204   5.606 -1.1979  0.8819 -0.7052
  890MOL0     H20084   2.900   1.064   5.444 -0.3865  0.6889 -2.6167
  890MOL0     H20085   3.035   0.930   5.292 -0.9246  1.6538  0.6688
  890MOL0     H20086   2.940   1.040   5.182  0.2276  1.8399  0.7484
  890MOL0     H20087   3.143   1.039   5.031  0.5484  0.5756  0.4491
  890MOL0     H20088   3.216   0.909   5.124  0.5347  1.5660 -0.8820
  890MOL0     H20089   3.005   0.787   5.106 -2.3545 -1.0128 -1.7965
  890MOL0     H20090   2.966   0.899   4.969  0.5134 -1.2583 -3.0136
  890MOL0     H20091   3.164   0.849   4.859 -0.4409 -1.8366 -2.1748
  890MOL0     H20092   3.202   0.729   4.987  0.4086  4.3528  3.0852
  890MOL0     H20093   3.126   0.593   4.800 -0.6297 -0.8878 -0.0985
  890MOL0     H20094   3.012   0.588   4.930 -3.3910 -1.8988 -2.9231
  890MOL0     H20095   2.887   0.605   4.734 -1.3255  1.7098 -2.1672
  890MOL0     H20096   2.867   0.753   4.835 -1.0862  3.0226 -3.2518
  890MOL0     H20097   2.875   0.810   4.606 -0.4211 -0.1197  0.2904
  890MOL0     H20098   3.000   0.893   4.707  1.6471 -1.9557  2.6075
  890MOL0     H20099   3.169   0.712   4.611 -1.0034 -0.8247  1.1868
  890MOL0     H20100   3.098   0.817   4.482  2.8892 -2.8442 -1.5884
  890MOL0     H20101   3.204   0.524   4.444 -1.8113 -3.1596  1.3713
  890MOL0     H20102   3.076   0.353   4.212  0.1007  1.7412  0.7961
  890MOL0     H20103   3.137   0.284   4.364 -0.8654  0.9744  0.1718
  890MOL0     H20104   2.842   0.256   4.294 -0.4839 -0.7720 -0.7978
  890MOL0     H20105   2.931   0.153   4.408 -3.5612  0.5066  0.2619
  890MOL0     H20106   2.942   0.130   4.106 -2.9404  2.7107  1.1483
  890MOL0     H20107   2.861   0.025   4.218 -1.3241  0.7612  0.6934
  890MOL0     H20108   3.084  -0.022   4.341 -1.5299 -0.6336  0.6242
  890MOL0     H20109   3.155   0.095   4.230  1.3388 -2.5410  1.0412
  890MOL0     H20110   3.102  -0.278   3.972  1.7784 -0.0741 -2.3597
  890MOL0     H20111   3.360  -0.499   3.917  1.5051  1.9720  1.6266
  890MOL0     H20112   3.212  -0.451   3.844  0.7546 -0.6772 -2.1441
  890MOL0     H20113   3.353  -0.377   3.780 -3.6798 -0.8125 -1.7335
  890MOL0     H20114   3.689  -0.255   3.677  1.3533  2.0727  3.2113
  890MOL0     H20115   3.897  -0.357   3.544  1.9559 -0.6625 -0.2150
  890MOL0     H20116   4.083  -0.722   3.731 -1.3505 -0.6439 -0.4340
  890MOL0     H20117   4.163  -0.721   3.575  2.3522 -0.1676  0.6922
  890MOL0     H20118   4.265  -0.525   3.585 -2.0258 -1.4320 -0.6523
  890MOL0     H20119   4.185  -0.467   3.731 -0.2963  1.3538 -1.3242
  890MOL0     H20120   4.398  -0.686   3.697  0.6664  0.1224 -1.0305
  890MOL0     H20121   4.321  -0.668   3.856 -1.5217 -0.0503 -0.3504
  890MOL0     H20122   4.503  -0.483   3.705 -0.4670 -2.1963  0.4483
  890MOL0     H20123   4.403  -0.420   3.837 -1.0220 -1.4069  2.1156
  890MOL0     H20124   4.594  -0.653   3.883  1.0721  0.3683  0.4107
  890MOL0     H20125   4.487  -0.578   4.000  0.9327  0.9400  1.2754
  890MOL0     H20126   4.692  -0.421   3.854  2.4161 -3.6300  0.8303
  890MOL0     H20127   4.579  -0.359   3.975  0.6127 -0.7169  2.3094
  890MOL0     H20128   4.736  -0.607   4.060 -0.5712 -0.7466 -2.6530
  890MOL0     H20129   4.676  -0.461   4.153 -3.5838  0.9806 -2.0136
  890MOL0     H20130   4.898  -0.420   3.953  2.1088 -0.5686  0.2762
  890MOL0     H20131   4.949  -0.496   4.114  4.0643  3.7049 -1.5069
  890MOL0     H20132   3.883  -0.683   3.819 -2.6778 -0.4739  0.0027
  890MOL0     H20133   3.709  -0.589   3.940  0.4564  3.6584  2.3656
  890MOL0     H20134   3.521  -0.197   4.204 -1.3459 -0.9426  2.2786
  890MOL0     H20135   3.325  -0.056   4.276  0.8585  3.0519 -3.6899
  890MOL0     H20136   3.178   1.372   5.325  0.4975  1.0751  2.8520
  890MOL0     H20137   3.089   1.512   5.513 -1.1036  0.3583  0.1557
  890MOL0     H20138   2.974   1.644   5.822 -0.1406 -0.7649 -0.4499
  890MOL0     H20139   2.966   1.796   6.017  0.1833 -0.2697 -2.8719
  890MOL0     H20140   2.998   1.839   6.269 -0.1502 -0.3982  2.8543
  890MOL0     H20141   2.906   1.959   6.172  3.2859 -1.2707 -1.8618
  890MOL0     H20142   2.779   2.028   6.378  0.6222  1.6469  0.6348
  890MOL0     H20143   2.953   2.041   6.390 -2.9824  3.7928  1.7391
  890MOL0     H20144   2.937   1.797   6.497 -0.6657 -0.4790  0.0785
  890MOL0     H20145   2.762   1.827   6.516  0.8167 -0.1357  2.1628
  890MOL0     H20146   2.945   2.038   6.603  0.3348 -0.7339 -0.2985
  890MOL0     H20147   2.942   1.887   6.692 -1.0871  0.2313  2.5197
  890MOL0     H20148   2.536   1.997   6.756  0.4334  2.1614 -0.9786
  890MOL0     H20149   2.645   1.582   6.174 -0.7554  0.9439 -0.5257
  890MOL0     H20150   2.662   1.418   5.991 -1.1835  0.4628  3.2878
  891MOL0     O20151   1.470   4.542   3.698  0.3734 -0.1813 -0.1520
  891MOL0     C20152   1.572   4.586   3.640  0.8212  0.5406 -0.6591
  891MOL0     O20153   1.696   4.547   3.666 -1.2236  0.2229 -0.2757
  891MOL0     C20154   1.713   4.451   3.766  0.0440  0.2926 -0.0684
  891MOL0     C20155   1.650   4.326   3.761 -0.5403  0.0764 -0.6282
  891MOL0     C20156   1.672   4.229   3.859 -1.0765  0.3194  0.1627
  891MOL0     C20157   1.776   4.250   3.956  0.6977 -0.4221  0.1445
  891MOL0     O20158   1.800   4.145   4.044  0.1632  0.0666 -0.0157
  891MOL0     C20159   1.687   4.109   4.129  0.0322  0.6353 -0.6590
  891MOL0     C20160   1.749   4.106   4.272  0.5780 -0.2782  0.5341
  891MOL0     C20161   1.858   3.997   4.293  0.0678 -0.0076  0.4815
  891MOL0     C20162   1.791   3.858   4.305  0.2202 -0.2162 -0.0026
  891MOL0     C20163   1.721   3.839   4.436  0.5657  0.1130 -0.2219
  891MOL0     C20164   1.696   3.682   4.461 -0.0830  0.3907  0.1253
  891MOL0     C20165   1.609   3.658   4.591 -0.9947  0.7311 -0.2487
  891MOL0     C20166   1.683   3.736   4.708 -0.4847  0.6912  0.5706
  891MOL0     N20167   1.669   3.640   4.820 -0.1873 -0.4916 -0.3026
  891MOL0     C20168   1.747   3.531   4.825  0.3580  0.7433  1.1785
  891MOL0     C20169   1.719   3.476   4.944 -0.5540 -0.5857  0.8552
  891MOL0     C20170   1.802   3.360   5.003 -0.6325 -0.3422 -0.9173
  891MOL0     C20171   1.941   3.408   5.032  0.1172  1.2489  0.5589
  891MOL0     C20172   2.041   3.285   5.035  0.1656  0.7492 -0.5135
  891MOL0     C20173   2.165   3.311   5.113  0.8326  0.3957  0.6742
  891MOL0     O20174   2.238   3.415   5.055 -0.0098 -0.0904  0.4283
  891MOL0     C20175   2.376   3.436   5.091  0.3812  0.3515  0.4531
  891MOL0     C20176   2.435   3.367   5.203 -1.0605 -0.2018 -0.5504
  891MOL0     C20177   2.569   3.396   5.237 -0.5250  0.5977  0.5822
  891MOL0     C20178   2.622   3.315   5.358  0.1997 -0.1746  0.2264
  891MOL0     C20179   2.649   3.484   5.164  1.6688 -0.4430 -0.4450
  891MOL0     C20180   2.785   3.509   5.193  1.2265  0.2056  0.2568
  891MOL0     O20181   2.838   3.617   5.124 -0.4629  0.3998 -0.0566
  891MOL0     C20182   2.973   3.643   5.133  0.1600 -0.0895 -0.5774
  891MOL0     C20183   3.068   3.542   5.098  0.5939  0.8630  0.0491
  891MOL0     C20184   3.209   3.571   5.116  0.2557  0.5074 -0.7276
  891MOL0     C20185   3.249   3.703   5.148 -0.4339 -0.2599  0.1275
  891MOL0     O20186   3.382   3.736   5.139  0.6798  0.3642 -0.1728
  891MOL0     C20187   3.442   3.821   5.241  0.8318 -0.3626 -0.5115
  891MOL0     C20188   3.592   3.847   5.212 -0.4240 -0.0473 -0.3115
  891MOL0     C20189   3.679   3.892   5.329 -1.3478  0.0362 -0.4095
  891MOL0     C20190   3.817   3.936   5.272 -0.0396  0.0982 -0.0629
  891MOL0     C20191   3.926   3.968   5.381 -0.8980  0.2636 -0.7410
  891MOL0     C20192   3.889   4.102   5.453 -0.4467 -0.3314  0.3368
  891MOL0     C20193   3.937   4.240   5.399 -0.6678 -0.1562 -0.1274
  891MOL0     C20194   4.045   4.226   5.290 -0.2641 -0.6348 -0.9885
  891MOL0    Cl20195   4.094   4.396   5.263 -0.5596  0.6523  0.0412
  891MOL0     C20196   3.146   3.791   5.188 -0.8759  0.0073 -0.3840
  891MOL0     C20197   3.009   3.768   5.179 -0.2766 -0.2792 -0.2230
  891MOL0     O20198   2.842   3.438   5.275  0.6153 -0.3117  0.1359
  891MOL0     C20199   2.588   3.558   5.064  1.0133  0.3145 -0.9679
  891MOL0     C20200   2.449   3.539   5.033 -0.3606  0.1018  0.3004
  891MOL0     N20201   1.644   3.568   5.011  1.5347  0.2860 -0.3238
  891MOL0     N20202   1.607   3.656   4.933  0.4269 -0.7957 -0.2452
  891MOL0     C20203   1.849   4.362   3.953  0.4761 -1.0488  0.2290
  891MOL0     C20204   1.816   4.471   3.858  0.3861 -0.5705  0.6878
  891MOL0     C20205   1.546   4.689   3.539  0.7323  0.0009 -0.3052
  891MOL0     C20206   1.634   4.797   3.523 -0.6581  0.3383 -0.9963
  891MOL0     C20207   1.610   4.894   3.428 -0.5997 -0.0756 -0.8670
  891MOL0     C20208   1.497   4.885   3.351  1.1877 -0.7367  0.3253
  891MOL0     O20209   1.479   4.990   3.251 -0.2902 -0.3135 -0.5194
  891MOL0     C20210   1.374   4.985   3.155 -0.6247  0.4684  0.4081
  891MOL0     C20211   1.378   5.104   3.062 -0.1421  0.7185  0.5658
  891MOL0     C20212   1.519   5.146   3.027 -0.0169  0.2498 -0.7167
  891MOL0     C20213   1.504   5.242   2.908 -0.0035 -0.3966  0.7694
  891MOL0     C20214   1.401   5.347   2.925  0.3946  0.1475  0.1814
  891MOL0     C20215   1.319   5.428   2.954  0.3457 -0.3734 -0.2518
  891MOL0     C20216   1.413   4.769   3.361 -0.4793  0.2647 -0.5674
  891MOL0     C20217   1.433   4.676   3.451 -0.1227 -0.3586 -0.5464
  891MOL0     H20218   1.569   4.311   3.690  1.2029  0.4471 -2.8333
  891MOL0     H20219   1.597   4.150   3.856  0.2945 -1.0074 -0.4083
  891MOL0     H20220   1.601   4.175   4.123 -1.5296 -0.8620  2.6551
  891MOL0     H20221   1.656   4.009   4.096  2.0867  0.1636 -1.3334
  891MOL0     H20222   1.800   4.201   4.291  1.3831 -0.4895 -0.4757
  891MOL0     H20223   1.665   4.095   4.341  2.9012 -3.1275  3.2505
  891MOL0     H20224   1.915   3.985   4.200 -0.6529  2.1292 -0.2991
  891MOL0     H20225   1.919   4.025   4.379 -2.3493  1.0681  1.9660
  891MOL0     H20226   1.723   3.847   4.221  2.1747 -2.4920 -1.4245
  891MOL0     H20227   1.867   3.780   4.296  0.4409 -0.0691  0.5002
  891MOL0     H20228   1.784   3.888   4.512 -0.8472  3.4912 -1.0471
  891MOL0     H20229   1.627   3.894   4.435 -1.2951 -2.8313  0.1538
  891MOL0     H20230   1.651   3.633   4.375  1.2805  1.5385 -1.3176
  891MOL0     H20231   1.785   3.628   4.495 -0.5422 -0.8996 -0.6760
  891MOL0     H20232   1.507   3.695   4.586 -1.6926 -0.6665  2.0010
  891MOL0     H20233   1.606   3.549   4.602 -0.6787  0.4793 -2.2721
  891MOL0     H20234   1.650   3.836   4.737  0.3982  1.1161  0.1622
  891MOL0     H20235   1.790   3.737   4.682 -0.5589  2.8319  0.2133
  891MOL0     H20236   1.812   3.489   4.749  2.8098  2.8156  1.9535
  891MOL0     H20237   1.764   3.319   5.097 -0.0763 -0.4465 -0.7307
  891MOL0     H20238   1.795   3.279   4.930  0.5606 -0.4912 -0.8936
  891MOL0     H20239   1.952   3.460   5.128 -2.6947  0.3507  1.4606
  891MOL0     H20240   1.983   3.478   4.959 -1.8340  2.1773  0.2402
  891MOL0     H20241   2.071   3.240   4.940 -1.8158 -2.3909  0.2061
  891MOL0     H20242   1.984   3.211   5.091 -0.6113  1.1702 -0.7371
  891MOL0     H20243   2.224   3.219   5.111 -1.6811 -1.3103  0.5111
  891MOL0     H20244   2.143   3.325   5.219 -0.2057  1.5419  0.3231
  891MOL0     H20245   2.376   3.290   5.252  1.1005 -1.0409  0.8730
  891MOL0     H20246   2.664   3.372   5.443 -1.3969  0.3881  0.6638
  891MOL0     H20247   2.545   3.247   5.395  1.4886 -1.0385  1.4547
  891MOL0     H20248   2.694   3.240   5.324 -2.2159 -2.3253 -0.3837
  891MOL0     H20249   3.031   3.447   5.063 -2.0323  1.0300  2.0629
  891MOL0     H20250   3.288   3.502   5.088  2.0531  1.2114  2.2164
  891MOL0     H20251   3.387   3.915   5.252 -2.3084 -1.8411 -2.1574
  891MOL0     H20252   3.434   3.770   5.337  0.6920  0.4932 -0.0549
  891MOL0     H20253   3.638   3.751   5.189 -0.9469  0.0211 -1.7528
  891MOL0     H20254   3.605   3.923   5.134  1.2497  1.8079  1.6418
  891MOL0     H20255   3.684   3.812   5.403  0.1478 -0.5427 -1.0906
  891MOL0     H20256   3.621   3.975   5.370 -4.4666 -0.9632 -2.4284
  891MOL0     H20257   3.838   3.865   5.191 -1.9518 -2.2057  1.3202
  891MOL0     H20258   3.800   4.026   5.212 -1.9219  0.0708  0.3877
  891MOL0     H20259   4.022   3.969   5.328 -0.0518  0.3383  0.7442
  891MOL0     H20260   3.921   3.876   5.441 -0.4353 -0.1626 -1.3391
  891MOL0     H20261   3.780   4.108   5.456 -0.4605  1.3894 -1.5708
  891MOL0     H20262   3.915   4.104   5.559 -0.1043  0.9794  0.2351
  891MOL0     H20263   3.970   4.305   5.481  0.1572  0.7315 -1.1244
  891MOL0     H20264   3.853   4.295   5.356 -1.2616 -2.3637 -1.9960
  891MOL0     H20265   3.998   4.170   5.208 -0.9002  0.5244 -1.4433
  891MOL0     H20266   4.130   4.165   5.323 -0.7501  0.4999  2.8628
  891MOL0     H20267   3.192   3.888   5.198  0.2518 -0.2526 -2.5194
  891MOL0     H20268   2.927   3.836   5.203  1.4671  1.2634  1.8573
  891MOL0     H20269   2.630   3.639   5.007 -2.5404  1.6420 -1.9809
  891MOL0     H20270   2.407   3.597   4.952  1.7684  1.0618 -0.1962
  891MOL0     H20271   1.922   4.395   4.026  2.3364 -2.6576 -0.8034
  891MOL0     H20272   1.877   4.560   3.867  0.8821 -0.1735 -4.1156
  891MOL0     H20273   1.725   4.790   3.581 -1.6224 -0.1237  0.5178
  891MOL0     H20274   1.673   4.983   3.425 -2.4900  1.6096  2.8811
  891MOL0     H20275   1.392   4.892   3.100 -0.1071  1.2635 -0.8054
  891MOL0     H20276   1.280   4.970   3.209 -3.1256  0.4200 -3.5479
  891MOL0     H20277   1.320   5.183   3.110  1.1711  0.8638  2.0349
  891MOL0     H20278   1.318   5.068   2.978  0.8250 -0.3728  0.3055
  891MOL0     H20279   1.580   5.065   2.986  0.8962  0.7436 -0.3418
  891MOL0     H20280   1.566   5.195   3.113  1.6513 -1.9784 -0.2591
  891MOL0     H20281   1.492   5.177   2.821  0.7659  1.6240 -0.9420
  891MOL0     H20282   1.595   5.300   2.892 -0.0617 -0.8012 -1.2399
  891MOL0     H20283   1.238   5.489   2.990 -1.4905 -2.8996  0.2027
  891MOL0     H20284   1.325   4.756   3.300  0.7121 -5.2877 -1.6102
  891MOL0     H20285   1.368   4.589   3.461  1.7097 -1.7077  0.3438
  892MOL0     O20286  10.682   8.858  11.314 -0.3987  0.3131 -0.3973
  892MOL0     C20287  10.770   8.901  11.389  0.0409  0.6518  0.5448
  892MOL0     O20288  10.835   9.020  11.373 -0.7129  0.3009 -0.3728
  892MOL0     C20289  10.790   9.106  11.279 -0.4943  0.1883  0.4270
  892MOL0     C20290  10.871   9.170  11.190 -0.1541 -0.5511  1.3481
  892MOL0     C20291  10.816   9.264  11.096 -0.1742  0.1508  0.0232
  892MOL0     C20292  10.676   9.295  11.093 -0.0553 -0.0609 -1.2062
  892MOL0     O20293  10.617   9.389  11.003 -0.1268 -0.1473 -0.0634
  892MOL0     C20294  10.676   9.404  10.872  0.2994 -0.0375  0.1749
  892MOL0     C20295  10.603   9.496  10.766 -0.2906 -0.0591  0.8413
  892MOL0     C20296  10.649   9.452  10.626  0.3500  0.0465 -0.3946
  892MOL0     C20297  10.594   9.547  10.524 -0.6125 -0.2229  0.3958
  892MOL0     C20298  10.599   9.472  10.389 -0.5934 -0.6688 -0.0311
  892MOL0     C20299  10.729   9.400  10.343 -0.1867 -0.6252  0.0691
  892MOL0     C20300  10.735   9.357  10.192 -0.4918 -0.0022  0.1255
  892MOL0     C20301  10.863   9.280  10.128 -0.9100 -0.0923 -0.4094
  892MOL0     N20302  10.993   9.342  10.153  0.3114 -0.1870 -0.0258
  892MOL0     C20303  11.075   9.315  10.261  0.5525 -0.0072  0.0215
  892MOL0     C20304  11.166   9.411  10.260  0.2586 -0.5712  0.0740
  892MOL0     C20305  11.266   9.451  10.356 -1.0226 -0.1834 -0.3036
  892MOL0     C20306  11.230   9.586  10.405  0.2277 -0.3242  0.1238
  892MOL0     C20307  11.182   9.615  10.548  0.8728  0.4249 -0.2415
  892MOL0     C20308  11.031   9.590  10.571 -0.7079 -0.4257 -0.4932
  892MOL0     O20309  10.989   9.591  10.707 -0.3789  0.2676 -0.7052
  892MOL0     C20310  11.043   9.690  10.796  0.5898  0.0415  0.6200
  892MOL0     C20311  10.984   9.814  10.806  0.7504 -0.1607  0.0386
  892MOL0     C20312  11.033   9.926  10.869  1.2793  0.4876 -0.2076
  892MOL0     C20313  10.942  10.049  10.858 -0.0448  0.9732 -1.3673
  892MOL0     C20314  11.148   9.906  10.947  0.0102 -0.2584  0.3387
  892MOL0     C20315  11.205  10.002  11.042  0.2075  0.5483  0.0687
  892MOL0     O20316  11.152  10.135  11.034 -0.0936 -0.0768  0.0804
  892MOL0     C20317  11.162  10.226  11.137  0.1879  0.5077  0.4784
  892MOL0     C20318  11.194  10.360  11.108 -0.2508 -0.4325  0.3863
  892MOL0     C20319  11.202  10.454  11.206 -0.1061 -0.3055 -0.4309
  892MOL0     C20320  11.160  10.416  11.332 -1.3748 -0.4899  0.4664
  892MOL0     O20321  11.149  10.507  11.432 -0.5693  0.6131 -0.4882
  892MOL0     C20322  11.263  10.591  11.460 -0.5964  0.0233 -0.0329
  892MOL0     C20323  11.251  10.635  11.612 -0.2939 -0.5759  0.8212
  892MOL0     C20324  11.365  10.740  11.640 -0.5704  0.3429 -0.1375
  892MOL0     C20325  11.441  10.693  11.767  0.9222  0.2411  0.5710
  892MOL0     C20326  11.547  10.584  11.730  0.0730 -0.3105 -1.1961
  892MOL0     C20327  11.634  10.526  11.836 -0.1031  0.3826  0.0415
  892MOL0     C20328  11.715  10.631  11.909 -0.1427 -0.7495  0.0304
  892MOL0     C20329  11.793  10.566  12.023  1.0473  0.6735  0.4096
  892MOL0    Cl20330  11.863  10.683  12.121  0.2007  0.0026 -0.3017
  892MOL0     C20331  11.126  10.286  11.358  0.2694  0.7006 -1.3936
  892MOL0     C20332  11.125  10.191  11.265 -0.1622 -0.1949 -0.4252
  892MOL0     O20333  11.277   9.965  11.135  0.0637 -1.1020 -0.3519
  892MOL0     C20334  11.203   9.778  10.950 -0.5024 -0.6502  0.4806
  892MOL0     C20335  11.160   9.672  10.868  0.0536 -0.9486  0.0046
  892MOL0     N20336  11.158   9.484  10.148  0.3863  0.4417  0.5153
  892MOL0     N20337  11.050   9.456  10.090  0.4446  0.1198  0.8243
  892MOL0     C20338  10.600   9.242  11.201 -0.3071  0.3812 -0.1580
  892MOL0     C20339  10.661   9.150  11.287  0.0097  0.1410 -0.3343
  892MOL0     C20340  10.817   8.805  11.497  0.7745 -0.0486 -0.4141
  892MOL0     C20341  10.755   8.676  11.502 -0.5168  0.5362 -0.5306
  892MOL0     C20342  10.787   8.578  11.595  0.8667  0.3750  0.7035
  892MOL0     C20343  10.887   8.605  11.690 -0.6762  0.1050  0.2455
  892MOL0     O20344  10.910   8.500  11.773 -0.4910 -0.1117  0.2859
  892MOL0     C20345  11.037   8.483  11.844 -0.0315 -0.3143 -0.0891
  892MOL0     C20346  11.167   8.439  11.767  0.2683 -0.4182 -0.4117
  892MOL0     C20347  11.138   8.358  11.635 -0.0290  0.2627 -0.8389
  892MOL0     C20348  11.260   8.295  11.570 -1.0204 -0.2299 -0.3942
  892MOL0     C20349  11.231   8.215  11.453 -0.1226  0.5495 -0.8432
  892MOL0     C20350  11.221   8.147  11.352  0.2980 -0.6546 -0.5261
  892MOL0     C20351  10.945   8.730  11.697 -0.4392 -0.5942 -0.3365
  892MOL0     C20352  10.913   8.828  11.602  0.6287  0.1903  0.0774
  892MOL0     H20353  10.972   9.132  11.197 -0.1151 -0.3886  1.7063
  892MOL0     H20354  10.881   9.312  11.025  0.8742  2.9169  2.6134
  892MOL0     H20355  10.778   9.441  10.888 -1.4537  4.4619  2.7513
  892MOL0     H20356  10.680   9.305  10.824  3.0192 -0.0218  0.2038
  892MOL0     H20357  10.495   9.484  10.771 -0.2081 -1.3018  0.1687
  892MOL0     H20358  10.623   9.603  10.774 -2.3722  0.4148  0.2416
  892MOL0     H20359  10.757   9.469  10.622  0.4076 -0.2087  0.0183
  892MOL0     H20360  10.608   9.351  10.615 -1.6048  0.6475  0.7658
  892MOL0     H20361  10.490   9.576  10.541 -0.8341  0.5727 -1.9260
  892MOL0     H20362  10.652   9.639  10.514 -2.3492  0.7648 -1.2846
  892MOL0     H20363  10.516   9.402  10.398 -0.7994 -0.3908  0.2813
  892MOL0     H20364  10.575   9.544  10.310  1.5566  0.3279  0.1595
  892MOL0     H20365  10.809   9.474  10.357 -2.3031  2.1282 -1.3989
  892MOL0     H20366  10.750   9.309  10.399  1.1357 -0.4039 -0.0427
  892MOL0     H20367  10.646   9.296  10.175 -1.3042  0.3915  2.6052
  892MOL0     H20368  10.710   9.444  10.131 -2.7478 -1.8011 -1.6663
  892MOL0     H20369  10.847   9.261  10.022  0.4499  1.1887 -0.8665
  892MOL0     H20370  10.875   9.179  10.170 -2.3838 -0.0158  0.2640
  892MOL0     H20371  11.061   9.236  10.334 -2.2242 -1.2387 -1.6908
  892MOL0     H20372  11.288   9.385  10.440 -0.6050  0.9253  0.4837
  892MOL0     H20373  11.366   9.453  10.311 -0.6393  1.0317  0.5520
  892MOL0     H20374  11.161   9.637  10.337  1.7533  0.0548 -1.2092
  892MOL0     H20375  11.327   9.636  10.408 -0.1150  0.3334  2.5935
  892MOL0     H20376  11.220   9.713  10.578 -3.8495  2.1705  0.8884
  892MOL0     H20377  11.236   9.540  10.607 -2.9294 -0.2381  2.7781
  892MOL0     H20378  11.002   9.491  10.535  1.2822 -2.1435  2.2249
  892MOL0     H20379  10.973   9.672  10.527 -0.8446 -0.5086 -0.4674
  892MOL0     H20380  10.885   9.823  10.763  1.9817  0.3324 -2.9793
  892MOL0     H20381  10.927  10.090  10.958 -0.3337  3.5336 -2.3818
  892MOL0     H20382  10.994  10.124  10.798 -1.0189  3.6308  0.9312
  892MOL0     H20383  10.843  10.032  10.814 -0.5518 -0.4689  0.2309
  892MOL0     H20384  11.187  10.393  11.005 -3.3405 -0.3392  0.5551
  892MOL0     H20385  11.210  10.560  11.186 -2.6312  0.0970  0.3335
  892MOL0     H20386  11.362  10.552  11.436 -0.5255  2.1529 -4.0868
  892MOL0     H20387  11.248  10.686  11.409  1.0871  0.7797  0.8032
  892MOL0     H20388  11.151  10.673  11.637 -0.4971 -0.0859 -0.6033
  892MOL0     H20389  11.269  10.544  11.671  1.4101 -3.0945 -3.1604
  892MOL0     H20390  11.327  10.841  11.657  2.9239  1.3968  2.7048
  892MOL0     H20391  11.441  10.749  11.562  1.1138  0.9280  1.5139
  892MOL0     H20392  11.495  10.776  11.813  0.6097  0.2230  0.9778
  892MOL0     H20393  11.370  10.661  11.844  0.1049  2.0307  0.5951
  892MOL0     H20394  11.614  10.643  11.668  1.4213 -1.1981 -0.6338
  892MOL0     H20395  11.511  10.499  11.672  0.3126 -0.8775 -0.5248
  892MOL0     H20396  11.581  10.461  11.906  2.1235  1.6457  3.1172
  892MOL0     H20397  11.711  10.467  11.786  1.8276  2.6835  0.1131
  892MOL0     H20398  11.651  10.702  11.963  0.1393  1.3800 -2.2679
  892MOL0     H20399  11.786  10.681  11.843 -0.3821 -0.8701 -0.3205
  892MOL0     H20400  11.854  10.483  11.986 -2.5329 -0.8722 -2.6434
  892MOL0     H20401  11.721  10.511  12.083  1.3177 -0.4919 -0.3100
  892MOL0     H20402  11.081  10.256  11.452  1.6032  0.8239 -0.6965
  892MOL0     H20403  11.096  10.090  11.292  0.8267 -0.1347  0.9654
  892MOL0     H20404  11.289   9.754  11.012 -0.1927 -0.2638  0.2080
  892MOL0     H20405  11.209   9.576  10.856 -0.8869 -1.3189 -1.1497
  892MOL0     H20406  10.498   9.268  11.225 -0.0371  1.1120  0.2019
  892MOL0     H20407  10.606   9.097  11.364  1.3361 -3.5271 -1.6929
  892MOL0     H20408  10.691   8.647  11.419  1.3832  1.3529 -2.3666
  892MOL0     H20409  10.756   8.478  11.568  1.2493  0.4897 -0.2188
  892MOL0     H20410  11.057   8.565  11.914  2.0484 -2.4424  1.9695
  892MOL0     H20411  11.013   8.400  11.910 -1.4167  0.2056  0.0875
  892MOL0     H20412  11.233   8.382  11.833 -0.1395  0.4010  0.7201
  892MOL0     H20413  11.213   8.536  11.747 -1.2502  0.6522  1.0227
  892MOL0     H20414  11.079   8.421  11.567 -3.1230 -0.8691  0.5975
  892MOL0     H20415  11.076   8.275  11.670  0.8153  1.6778  5.2727
  892MOL0     H20416  11.312   8.228  11.639 -0.4581  0.0620 -0.5246
  892MOL0     H20417  11.325   8.377  11.536  0.6852 -1.2632  0.2376
  892MOL0     H20418  11.229   8.082  11.268  0.8913  1.6259 -2.3543
  892MOL0     H20419  11.017   8.752  11.775 -2.1032  4.8356  0.0615
  892MOL0     H20420  10.952   8.929  11.615 -0.2632  0.4544  0.7870
  893MOL0     O20421   6.394   5.566  11.348  0.3928  0.4268 -0.0103
  893MOL0     C20422   6.331   5.468  11.390  0.0837  0.2684  0.2226
  893MOL0     O20423   6.202   5.424  11.348 -0.1894  0.2282 -0.1029
  893MOL0     C20424   6.108   5.499  11.292  0.4252  0.0341  0.0408
  893MOL0     C20425   6.069   5.452  11.164  0.6448  0.6898 -0.5893
  893MOL0     C20426   5.976   5.525  11.088  0.3124 -0.4846  0.6351
  893MOL0     C20427   5.922   5.647  11.146  0.1113  0.1330  0.1688
  893MOL0     O20428   5.822   5.730  11.085  0.7248 -0.1659 -0.4863
  893MOL0     C20429   5.734   5.667  10.986  0.6693 -0.0682  0.7548
  893MOL0     C20430   5.683   5.778  10.891  0.5425  0.1988 -0.6458
  893MOL0     C20431   5.798   5.857  10.815  0.4150 -0.5237 -0.0763
  893MOL0     C20432   5.738   5.927  10.696  0.2423 -0.8846  0.0878
  893MOL0     C20433   5.855   5.963  10.605  0.4853  0.5817 -1.1358
  893MOL0     C20434   5.814   6.053  10.491  0.6708 -0.3232 -0.6547
  893MOL0     C20435   5.926   6.073  10.389 -0.1362  0.8892  0.3202
  893MOL0     C20436   5.903   6.171  10.279  0.1776 -0.8168  0.1049
  893MOL0     N20437   6.018   6.182  10.197 -0.1700  0.0633  1.1821
  893MOL0     C20438   6.100   6.290  10.198  0.2081  0.2222  0.2723
  893MOL0     C20439   6.165   6.306  10.079  0.4120  0.7837  0.4303
  893MOL0     C20440   6.252   6.430  10.048  0.6147 -0.2193  0.6329
  893MOL0     C20441   6.403   6.418  10.066 -0.0033  0.6079  1.2958
  893MOL0     C20442   6.444   6.377  10.205 -0.9868 -0.1801 -0.1745
  893MOL0     C20443   6.594   6.405  10.233 -0.1258 -0.1610 -0.2056
  893MOL0     O20444   6.606   6.374  10.372  0.7068 -0.5008  0.0575
  893MOL0     C20445   6.732   6.379  10.423 -0.5106  0.1706  0.3965
  893MOL0     C20446   6.842   6.438  10.365  0.7473 -0.5251 -0.0041
  893MOL0     C20447   6.965   6.441  10.440 -0.2341 -0.1807  0.0675
  893MOL0     C20448   7.086   6.501  10.377  0.8444  0.5412 -0.2341
  893MOL0     C20449   6.980   6.372  10.571 -0.6405 -0.4112  0.2406
  893MOL0     C20450   7.104   6.329  10.636  0.0114 -0.3491  0.4343
  893MOL0     O20451   7.111   6.349  10.772 -0.2660 -0.2393  0.3732
  893MOL0     C20452   7.224   6.312  10.844  0.0293 -0.2267  0.6639
  893MOL0     C20453   7.196   6.291  10.970 -0.3735  0.2104  0.6823
  893MOL0     C20454   7.298   6.252  11.060  0.2338 -0.0533  0.6173
  893MOL0     C20455   7.437   6.261  11.023  0.0729 -0.3742  0.0691
  893MOL0     O20456   7.537   6.265  11.111  0.2477 -0.4571  0.1657
  893MOL0     C20457   7.585   6.149  11.179 -0.0630 -0.2888  0.3514
  893MOL0     C20458   7.707   6.201  11.262 -0.7026 -0.2697  0.3357
  893MOL0     C20459   7.853   6.205  11.200  0.3720 -0.1209 -0.5023
  893MOL0     C20460   7.850   6.252  11.062 -0.6927 -0.1793 -0.2022
  893MOL0     C20461   7.986   6.260  10.997 -0.2400 -0.5897 -0.4362
  893MOL0     C20462   8.024   6.125  10.942 -0.4830 -0.7986 -0.0265
  893MOL0     C20463   8.164   6.122  10.871 -0.9249  0.4954  0.1455
  893MOL0     C20464   8.184   6.001  10.783  0.4259 -0.4103 -0.0482
  893MOL0    Cl20465   8.336   6.015  10.695  0.3748  0.0488 -0.2086
  893MOL0     C20466   7.470   6.291  10.890  0.1391  0.3577 -1.6079
  893MOL0     C20467   7.363   6.311  10.803  0.0943 -0.1629  0.4849
  893MOL0     O20468   7.195   6.304  10.561 -0.4196  0.5603  0.6658
  893MOL0     C20469   6.864   6.317  10.619  0.3517 -0.8909  0.0743
  893MOL0     C20470   6.743   6.336  10.554 -0.0517  0.3688  0.0092
  893MOL0     N20471   6.130   6.194  10.002  0.3616  0.1229 -0.2945
  893MOL0     N20472   6.037   6.130  10.067  0.0310  0.1799 -0.4719
  893MOL0     C20473   5.963   5.687  11.273 -0.1970 -0.5864  0.2274
  893MOL0     C20474   6.060   5.619  11.347 -0.3287  0.5325 -0.7524
  893MOL0     C20475   6.407   5.391  11.497 -0.6957  0.9448  0.1386
  893MOL0     C20476   6.338   5.292  11.566 -0.0985 -0.4125 -0.0516
  893MOL0     C20477   6.406   5.215  11.663  0.4883  0.5985 -0.0974
  893MOL0     C20478   6.538   5.243  11.698  0.6425  0.8767  0.4253
  893MOL0     O20479   6.584   5.154  11.794 -0.3026  0.1811 -0.0209
  893MOL0     C20480   6.701   5.191  11.862  0.8990 -0.1325  0.1629
  893MOL0     C20481   6.669   5.267  11.993 -0.1009 -0.2694 -0.4341
  893MOL0     C20482   6.623   5.168  12.092  0.1975  0.6460  0.2659
  893MOL0     C20483   6.740   5.064  12.124 -0.3057 -0.1330  1.0178
  893MOL0     C20484   6.725   5.011  12.259  1.0926  0.0516 -0.5505
  893MOL0     C20485   6.702   4.965  12.370  0.2778  0.4776 -0.3124
  893MOL0     C20486   6.603   5.345  11.630  0.4007  1.6976  0.4469
  893MOL0     C20487   6.539   5.421  11.534 -0.1064 -0.5674  0.0709
  893MOL0     H20488   6.126   5.373  11.117 -1.9175 -1.5772 -0.1383
  893MOL0     H20489   5.941   5.491  10.991 -2.5575  0.4199  1.2517
  893MOL0     H20490   5.796   5.608  10.917 -1.0157  0.2065 -1.0832
  893MOL0     H20491   5.670   5.606  11.050 -1.3381  0.2009 -0.8836
  893MOL0     H20492   5.613   5.733  10.821 -0.1313  1.9189 -1.1303
  893MOL0     H20493   5.627   5.851  10.950 -0.6182 -0.0853 -1.3558
  893MOL0     H20494   5.858   5.919  10.882  3.8373 -3.8231  0.1901
  893MOL0     H20495   5.874   5.786  10.782  1.6951  0.2103  1.1784
  893MOL0     H20496   5.662   5.865  10.648 -0.6069  1.1842 -1.4032
  893MOL0     H20497   5.692   6.020  10.732 -1.8238 -1.6929 -0.3135
  893MOL0     H20498   5.938   6.020  10.650 -1.4581  2.6566  0.0600
  893MOL0     H20499   5.890   5.863  10.579 -1.7240 -1.4930  2.8113
  893MOL0     H20500   5.727   6.003  10.448  1.9303 -2.1596 -1.2083
  893MOL0     H20501   5.781   6.147  10.537 -0.8732 -1.1456  0.0144
  893MOL0     H20502   6.023   6.100  10.431  1.5784 -2.2018 -1.2862
  893MOL0     H20503   5.942   5.973  10.348  1.0971  0.3296  2.0515
  893MOL0     H20504   5.870   6.268  10.316  3.3497  0.1497  0.6906
  893MOL0     H20505   5.819   6.130  10.221  2.0372 -0.9360 -2.7358
  893MOL0     H20506   6.086   6.369  10.271 -1.4125 -0.4901  0.7892
  893MOL0     H20507   6.230   6.457   9.944  0.6911 -0.0811  0.6524
  893MOL0     H20508   6.208   6.511  10.107  0.8656 -0.7415  1.5682
  893MOL0     H20509   6.459   6.509  10.041  1.4182 -0.1722  1.5301
  893MOL0     H20510   6.437   6.337  10.002  0.1033  0.1971  1.8617
  893MOL0     H20511   6.435   6.269  10.222  0.1587 -0.0914  1.2636
  893MOL0     H20512   6.392   6.434  10.283  1.7148  1.0491  0.8503
  893MOL0     H20513   6.615   6.508  10.202 -1.8305 -0.7728 -4.0428
  893MOL0     H20514   6.658   6.342  10.171  0.8537  1.5477 -0.9919
  893MOL0     H20515   6.840   6.467  10.260 -1.1832  1.1721  0.4370
  893MOL0     H20516   7.182   6.497  10.430 -1.1461 -1.1421  3.6600
  893MOL0     H20517   7.107   6.460  10.278  0.4258 -1.3118  0.3954
  893MOL0     H20518   7.067   6.608  10.375  1.1477  0.6322  0.9534
  893MOL0     H20519   7.093   6.278  11.001 -0.1972  1.5031  1.9311
  893MOL0     H20520   7.271   6.231  11.163  2.7485  2.6728  1.9969
  893MOL0     H20521   7.511   6.126  11.257 -2.2277  1.7672 -0.9516
  893MOL0     H20522   7.616   6.061  11.122  2.6998 -0.8859  2.5667
  893MOL0     H20523   7.689   6.302  11.298 -0.3183  0.1012 -0.4899
  893MOL0     H20524   7.726   6.129  11.343  0.5552  1.6194  1.8032
  893MOL0     H20525   7.887   6.102  11.204 -0.9791 -0.6502 -1.5065
  893MOL0     H20526   7.915   6.260  11.271  0.1286 -2.8905  2.0542
  893MOL0     H20527   7.780   6.192  11.003 -2.3037 -0.2142  1.6446
  893MOL0     H20528   7.810   6.354  11.067  1.4907  0.9064 -2.9011
  893MOL0     H20529   8.053   6.297  11.075 -0.7993  0.8735 -0.6176
  893MOL0     H20530   7.982   6.333  10.916  2.4315 -0.1490 -0.2692
  893MOL0     H20531   8.017   6.053  11.024 -5.0158 -2.3541 -1.5009
  893MOL0     H20532   7.942   6.098  10.875 -1.6931 -1.3955  1.6465
  893MOL0     H20533   8.234   6.129  10.955 -3.7121 -0.9672  2.7802
  893MOL0     H20534   8.194   6.211  10.815  1.6580 -0.2973  0.1064
  893MOL0     H20535   8.097   5.996  10.716 -1.0282  0.2879  1.7016
  893MOL0     H20536   8.185   5.908  10.840  4.9220  0.5760  1.8861
  893MOL0     H20537   7.569   6.304  10.848  2.2643  1.2413  3.0452
  893MOL0     H20538   7.388   6.334  10.700 -0.3892  3.9298  1.1372
  893MOL0     H20539   6.848   6.255  10.707 -4.1743  3.7180  3.0812
  893MOL0     H20540   6.655   6.286  10.593 -0.5644  2.8788  2.4007
  893MOL0     H20541   5.903   5.765  11.319  0.3136 -0.4723  0.7230
  893MOL0     H20542   6.090   5.644  11.448 -3.1297 -2.6357  1.0577
  893MOL0     H20543   6.231   5.292  11.544 -0.2125  2.5545  0.0194
  893MOL0     H20544   6.349   5.134  11.707 -1.3166  1.9976  0.2314
  893MOL0     H20545   6.770   5.108  11.878  0.2909 -1.1016 -1.8565
  893MOL0     H20546   6.762   5.263  11.806 -1.5132 -0.0636 -2.6447
  893MOL0     H20547   6.589   5.342  11.988  0.4076  0.4506  1.2556
  893MOL0     H20548   6.755   5.320  12.037  0.5648 -0.3756 -1.5564
  893MOL0     H20549   6.532   5.111  12.070  1.8731 -1.8406 -0.6834
  893MOL0     H20550   6.587   5.219  12.182 -1.7354 -1.4685  0.7789
  893MOL0     H20551   6.836   5.116  12.111 -0.4063 -0.2652 -0.3889
  893MOL0     H20552   6.727   4.979  12.057  1.2203  1.6073 -1.6518
  893MOL0     H20553   6.677   4.922  12.465  0.3975  1.4683  0.1812
  893MOL0     H20554   6.709   5.364  11.642  1.1637 -2.0943  0.9515
  893MOL0     H20555   6.599   5.499  11.489 -1.7679  0.3790 -0.6002
  894MOL0     O20556   3.753   2.257   3.669  0.3475  0.7642 -0.3188
  894MOL0     C20557   3.781   2.279   3.551 -0.2113 -0.1668  0.3918
  894MOL0     O20558   3.693   2.308   3.451  0.0265  0.2189 -0.0205
  894MOL0     C20559   3.566   2.356   3.473 -0.5099  0.3063 -0.3500
  894MOL0     C20560   3.459   2.287   3.413 -0.2799 -0.0920 -1.5413
  894MOL0     C20561   3.331   2.321   3.421 -1.0618 -0.2515 -0.4781
  894MOL0     C20562   3.304   2.444   3.487 -0.5180 -0.4625 -0.1645
  894MOL0     O20563   3.186   2.505   3.503  0.1638  0.5309 -0.1169
  894MOL0     C20564   3.074   2.443   3.462 -0.0298  0.0638 -0.1317
  894MOL0     C20565   3.025   2.313   3.550 -0.0102  0.5668  0.7120
  894MOL0     C20566   2.881   2.270   3.507  0.0025 -0.1105  0.0806
  894MOL0     C20567   2.849   2.153   3.602  0.1254  0.4536 -0.3465
  894MOL0     C20568   2.735   2.076   3.547 -0.5494 -0.0082 -0.4287
  894MOL0     C20569   2.690   1.954   3.623 -0.2251 -0.0595 -0.7243
  894MOL0     C20570   2.554   1.975   3.682 -0.8977  1.0800  0.0490
  894MOL0     C20571   2.548   2.085   3.786  0.0937 -0.0773  0.4624
  894MOL0     N20572   2.425   2.080   3.856  0.7529 -0.1559  0.2072
  894MOL0     C20573   2.331   2.180   3.858 -0.1347 -0.6640 -0.1899
  894MOL0     C20574   2.223   2.113   3.911  0.1878 -0.1780  0.2273
  894MOL0     C20575   2.079   2.161   3.928  0.9801 -0.2073 -0.1172
  894MOL0     C20576   2.025   2.114   4.071  1.0157 -0.1410 -0.9883
  894MOL0     C20577   1.874   2.153   4.079  0.2287 -0.5044  0.7006
  894MOL0     C20578   1.830   2.097   4.214  0.7304 -0.0916 -0.8088
  894MOL0     O20579   1.696   2.149   4.223  0.3382  0.7354  0.0415
  894MOL0     C20580   1.620   2.141   4.335  0.6662  0.8905  0.2224
  894MOL0     C20581   1.661   2.091   4.456  0.4609 -0.0909 -0.1854
  894MOL0     C20582   1.579   2.100   4.570  0.0761  0.2071  1.1479
  894MOL0     C20583   1.643   2.045   4.699  0.4954 -0.1923 -0.4961
  894MOL0     C20584   1.454   2.158   4.568  0.2177 -0.3745  0.3680
  894MOL0     C20585   1.359   2.178   4.675  0.1178 -0.7247 -0.4932
  894MOL0     O20586   1.398   2.121   4.800 -0.0699 -0.1505  0.2293
  894MOL0     C20587   1.317   2.144   4.899 -0.4941 -0.8925  0.1008
  894MOL0     C20588   1.241   2.037   4.948 -0.0784  0.4413  0.4930
  894MOL0     C20589   1.149   2.056   5.051  0.0513  0.0423  0.3356
  894MOL0     C20590   1.133   2.182   5.111  0.6314  0.1804  0.5043
  894MOL0     O20591   1.046   2.205   5.217 -0.0862  0.2831 -0.1710
  894MOL0     C20592   0.908   2.175   5.200  0.4069 -0.3459  0.0110
  894MOL0     C20593   0.845   2.193   5.336  0.0292  0.6757 -0.7911
  894MOL0     C20594   0.868   2.065   5.423  0.9857  0.5042 -0.5839
  894MOL0     C20595   0.842   2.089   5.566  0.7317 -0.3407  0.2626
  894MOL0     C20596   0.856   1.964   5.658  0.0370 -1.0107  0.0416
  894MOL0     C20597   0.834   2.011   5.808 -0.8567  0.1623 -0.3511
  894MOL0     C20598   0.861   1.914   5.931 -0.0445 -0.1040 -0.1210
  894MOL0     C20599   0.809   1.767   5.917  0.7964  0.0517 -0.0498
  894MOL0    Cl20600   0.844   1.685   6.071 -0.0199 -0.1512  0.6899
  894MOL0     C20601   1.199   2.294   5.055 -1.0796  0.3387  0.1045
  894MOL0     C20602   1.300   2.277   4.956  0.3751  0.1004 -1.4870
  894MOL0     O20603   1.260   2.253   4.662  0.5675 -0.6481  0.1748
  894MOL0     C20604   1.420   2.217   4.452 -0.2824 -0.5246 -0.0845
  894MOL0     C20605   1.497   2.208   4.331 -0.3403  0.3950  0.7955
  894MOL0     N20606   2.260   1.988   3.939 -0.6861 -0.3713 -0.2017
  894MOL0     N20607   2.380   1.963   3.908 -0.4379  0.1005  0.8395
  894MOL0     C20608   3.406   2.504   3.559  1.0190 -0.2480 -0.0163
  894MOL0     C20609   3.536   2.467   3.552  0.2056 -0.3144 -0.3651
  894MOL0     C20610   3.918   2.263   3.503  0.3647 -0.4970 -0.4066
  894MOL0     C20611   3.996   2.182   3.584  0.2944 -0.6391 -0.7289
  894MOL0     C20612   4.138   2.177   3.568 -0.6622  0.3575 -0.4769
  894MOL0     C20613   4.192   2.245   3.458  0.6575 -0.4918 -0.2886
  894MOL0     O20614   4.324   2.230   3.433 -0.5495 -0.0465  0.2876
  894MOL0     C20615   4.386   2.107   3.479 -0.1923 -0.9834  0.7023
  894MOL0     C20616   4.346   1.982   3.400 -0.3261  0.1529 -0.8658
  894MOL0     C20617   4.429   1.857   3.451  0.5278 -0.9214  0.6552
  894MOL0     C20618   4.418   1.815   3.593  1.0290 -0.0765 -1.0586
  894MOL0     C20619   4.275   1.833   3.635 -0.4332  0.2291  0.0862
  894MOL0     C20620   4.173   1.830   3.680 -0.1249 -1.1317  0.4994
  894MOL0     C20621   4.121   2.334   3.385  0.3753 -1.2737 -0.2551
  894MOL0     C20622   3.983   2.343   3.407 -1.7184  0.2136  0.3055
  894MOL0     H20623   3.481   2.193   3.363 -2.0406 -1.1029 -0.4825
  894MOL0     H20624   3.252   2.263   3.373 -4.5688  2.8683  1.0073
  894MOL0     H20625   2.993   2.517   3.469 -0.6983 -0.4066 -2.1336
  894MOL0     H20626   3.079   2.418   3.356 -0.9097 -0.5101 -0.0487
  894MOL0     H20627   3.092   2.231   3.523  3.8841  4.4746 -3.1846
  894MOL0     H20628   3.030   2.338   3.657 -1.5070 -0.0748  0.9543
  894MOL0     H20629   2.809   2.352   3.511  2.9382  2.7031 -0.6687
  894MOL0     H20630   2.894   2.241   3.403  1.6177 -0.1319  0.2714
  894MOL0     H20631   2.936   2.094   3.632  1.0517  2.5083  1.2789
  894MOL0     H20632   2.831   2.185   3.705  2.2097 -0.3479  0.3281
  894MOL0     H20633   2.647   2.139   3.531 -1.8935 -1.9177 -0.9176
  894MOL0     H20634   2.759   2.053   3.443  0.8581 -1.1075  0.1163
  894MOL0     H20635   2.672   1.882   3.543 -0.5576  1.9127 -2.5297
  894MOL0     H20636   2.763   1.924   3.698  0.6684 -0.6344 -1.8039
  894MOL0     H20637   2.478   1.998   3.607 -1.7640 -2.9736 -0.5752
  894MOL0     H20638   2.539   1.881   3.735  1.9329  0.4890 -0.0482
  894MOL0     H20639   2.558   2.179   3.731  0.5664 -1.1199 -1.3350
  894MOL0     H20640   2.630   2.076   3.857 -0.3026  0.3802  0.9799
  894MOL0     H20641   2.338   2.276   3.808  2.9113 -0.6307  0.1401
  894MOL0     H20642   2.061   2.269   3.925  0.4501 -0.2766  0.3518
  894MOL0     H20643   2.020   2.117   3.847 -4.9947  2.8345  1.9279
  894MOL0     H20644   2.083   2.152   4.155 -1.1322 -0.9476  0.9619
  894MOL0     H20645   2.037   2.006   4.083  0.0856  0.0230  2.7354
  894MOL0     H20646   1.825   2.097   3.999 -0.3848 -1.0860  1.4667
  894MOL0     H20647   1.842   2.257   4.074 -0.6068 -0.7840 -0.0972
  894MOL0     H20648   1.883   2.140   4.299  2.5612  1.0740 -2.4398
  894MOL0     H20649   1.820   1.988   4.221 -3.1586  0.2308  1.8991
  894MOL0     H20650   1.749   2.028   4.468 -0.0045 -0.5111  1.2417
  894MOL0     H20651   1.740   2.000   4.678 -0.1081 -2.2480  0.8161
  894MOL0     H20652   1.666   2.129   4.765  4.7820 -3.1200  2.2193
  894MOL0     H20653   1.586   1.972   4.758  1.1880 -2.5184 -2.5211
  894MOL0     H20654   1.245   1.943   4.894 -1.7305  0.8226 -0.3543
  894MOL0     H20655   1.088   1.975   5.090 -2.5739  1.4056 -0.6689
  894MOL0     H20656   0.872   2.248   5.126 -3.2224 -3.0459 -1.2061
  894MOL0     H20657   0.875   2.077   5.165 -2.8768  1.1859 -1.6193
  894MOL0     H20658   0.888   2.281   5.385 -1.9777  0.8536  0.7969
  894MOL0     H20659   0.738   2.206   5.316 -0.7393 -1.8650  1.1963
  894MOL0     H20660   0.973   2.039   5.406  0.6581 -0.7980 -0.7315
  894MOL0     H20661   0.810   1.982   5.380  0.9131  1.8046 -3.1884
  894MOL0     H20662   0.913   2.168   5.594 -0.9519  1.0802  0.6739
  894MOL0     H20663   0.743   2.130   5.589  1.2459 -0.3506  2.7675
  894MOL0     H20664   0.954   1.915   5.657  1.2377  1.2517 -0.0357
  894MOL0     H20665   0.777   1.895   5.629  0.1319 -2.1182  2.2299
  894MOL0     H20666   0.901   2.096   5.824 -0.8470  0.2279 -0.7402
  894MOL0     H20667   0.729   2.041   5.812 -1.0769 -0.6148  2.7886
  894MOL0     H20668   0.808   1.951   6.019  2.8861 -0.8826  2.1513
  894MOL0     H20669   0.966   1.904   5.961  0.3042 -1.3222 -1.5873
  894MOL0     H20670   0.865   1.721   5.834  1.4787  0.8581 -0.0464
  894MOL0     H20671   0.701   1.753   5.912 -0.1902  4.7382  2.7464
  894MOL0     H20672   1.174   2.390   5.099  1.2027 -1.3760  6.1018
  894MOL0     H20673   1.368   2.354   4.921  0.2242  0.9432  0.0215
  894MOL0     H20674   1.329   2.276   4.443 -1.5360 -2.4278 -0.5650
  894MOL0     H20675   1.466   2.252   4.237 -0.6740 -1.2687  0.0950
  894MOL0     H20676   3.388   2.591   3.621  1.6110 -0.0233 -0.1531
  894MOL0     H20677   3.616   2.518   3.606  0.7591 -2.0819  0.5805
  894MOL0     H20678   3.938   2.136   3.664 -0.9680  2.3820  0.2126
  894MOL0     H20679   4.189   2.106   3.632 -0.9582  2.1438  1.8778
  894MOL0     H20680   4.492   2.122   3.453 -0.4236 -1.1954 -0.3753
  894MOL0     H20681   4.385   2.113   3.588 -0.1652  2.1830  0.6379
  894MOL0     H20682   4.375   1.990   3.295 -0.2781 -2.4917 -1.1128
  894MOL0     H20683   4.240   1.962   3.421 -0.1952  0.0612 -0.2630
  894MOL0     H20684   4.535   1.869   3.426  0.7521 -0.2847  1.8450
  894MOL0     H20685   4.409   1.775   3.382  0.1852  1.4850 -2.3176
  894MOL0     H20686   4.486   1.881   3.647 -1.9268  0.3110  2.6553
  894MOL0     H20687   4.443   1.711   3.618  2.3071  0.6230  0.7311
  894MOL0     H20688   4.068   1.837   3.703 -0.5814 -1.1469 -1.4472
  894MOL0     H20689   4.167   2.400   3.312 -0.4587 -0.6441 -0.2273
  894MOL0     H20690   3.938   2.417   3.342  2.7048  0.1177 -3.3160
  895MOL0     O20691   5.822   9.841   1.874  0.5193  0.5982 -0.0129
  895MOL0     C20692   5.921   9.860   1.806 -0.7477  0.1458  0.2964
  895MOL0     O20693   5.927   9.964   1.708 -0.2562  0.1270  0.2617
  895MOL0     C20694   5.815  10.035   1.674 -0.8377  0.3213  0.3983
  895MOL0     C20695   5.759  10.022   1.549 -0.6988 -0.0931 -0.0456
  895MOL0     C20696   5.645  10.097   1.516 -0.3340  0.6082 -0.1007
  895MOL0     C20697   5.596  10.191   1.612  0.0756 -0.0440  0.9960
  895MOL0     O20698   5.495  10.285   1.592  0.4924 -0.0266  0.1321
  895MOL0     C20699   5.440  10.330   1.465 -0.3887 -0.8918  0.0935
  895MOL0     C20700   5.348  10.450   1.486  0.4986  0.3235 -1.6187
  895MOL0     C20701   5.417  10.552   1.575 -0.0420  1.6037  0.4247
  895MOL0     C20702   5.320  10.658   1.600  0.3330 -0.9094  0.8898
  895MOL0     C20703   5.375  10.778   1.677  0.9040 -0.3657  0.5051
  895MOL0     C20704   5.264  10.882   1.702  0.2148 -0.2291 -0.5973
  895MOL0     C20705   5.249  10.994   1.588 -0.0268  0.2106 -0.1665
  895MOL0     C20706   5.187  11.117   1.638 -0.2423  0.5134 -0.0544
  895MOL0     N20707   5.171  11.232   1.550  0.0632  0.4936  0.5447
  895MOL0     C20708   5.269  11.315   1.516  0.2217 -0.5329 -0.2846
  895MOL0     C20709   5.207  11.398   1.437 -0.0379 -0.8460  0.8805
  895MOL0     C20710   5.276  11.495   1.341  0.1029 -0.4038  0.4452
  895MOL0     C20711   5.330  11.629   1.400 -0.4025 -0.1500 -0.3191
  895MOL0     C20712   5.228  11.732   1.437 -0.0698  0.0539  0.0236
  895MOL0     C20713   5.283  11.867   1.472 -0.2073 -0.0624 -0.3880
  895MOL0     O20714   5.366  11.895   1.364  0.1128 -0.0424  0.8486
  895MOL0     C20715   5.383  12.026   1.316  0.5469 -0.9346  0.5079
  895MOL0     C20716   5.319  12.059   1.195  0.2495  0.1002  0.5287
  895MOL0     C20717   5.329  12.194   1.141  0.3819 -0.1798 -0.8929
  895MOL0     C20718   5.257  12.219   1.020  0.4995 -0.5373  0.2620
  895MOL0     C20719   5.417  12.288   1.211  0.9265 -0.4202  0.7372
  895MOL0     C20720   5.432  12.428   1.151 -0.2594  0.8786  0.0664
  895MOL0     O20721   5.329  12.479   1.080  0.0211 -0.3018  0.2416
  895MOL0     C20722   5.319  12.614   1.081  0.1182  0.7157 -1.0763
  895MOL0     C20723   5.377  12.691   0.972  0.4705 -0.2486 -0.1795
  895MOL0     C20724   5.376  12.836   0.979 -0.2410  0.8606 -0.6234
  895MOL0     C20725   5.339  12.901   1.100  0.9742  0.9310  0.1149
  895MOL0     O20726   5.363  13.035   1.091 -0.3702 -0.7128  0.2585
  895MOL0     C20727   5.360  13.102   1.211  0.6711 -1.1163 -0.8295
  895MOL0     C20728   5.416  13.241   1.195 -0.2795  0.2164  0.8585
  895MOL0     C20729   5.332  13.367   1.218  0.6145  0.4100  0.0072
  895MOL0     C20730   5.303  13.410   1.367  0.3969  0.1301 -0.2328
  895MOL0     C20731   5.431  13.463   1.430  0.5820 -0.1616  0.3956
  895MOL0     C20732   5.459  13.603   1.401  0.4263 -0.3370 -0.1563
  895MOL0     C20733   5.576  13.645   1.485 -0.3107 -0.7907 -0.2137
  895MOL0     C20734   5.569  13.795   1.529  0.9335 -0.4098  0.6182
  895MOL0    Cl20735   5.727  13.875   1.557  0.1107  0.3736 -0.3231
  895MOL0     C20736   5.296  12.820   1.210 -0.3743  0.0782 -0.6772
  895MOL0     C20737   5.273  12.687   1.189 -0.1371  0.2394 -0.2792
  895MOL0     O20738   5.537  12.479   1.175 -0.2775  0.1790 -0.0285
  895MOL0     C20739   5.485  12.245   1.331 -1.2591  0.8678 -0.0063
  895MOL0     C20740   5.462  12.115   1.386 -0.3168 -0.0160 -0.3230
  895MOL0     N20741   5.076  11.373   1.415  0.2317  0.7315  0.4952
  895MOL0     N20742   5.059  11.259   1.480 -0.2401  0.1984 -0.5567
  895MOL0     C20743   5.667  10.212   1.726  0.6948 -0.3358  0.3883
  895MOL0     C20744   5.771  10.134   1.765 -0.1766 -0.3198  0.0480
  895MOL0     C20745   6.040   9.777   1.831  0.3333 -0.4267 -0.5922
  895MOL0     C20746   6.139   9.782   1.729 -0.9259 -0.1907 -0.4255
  895MOL0     C20747   6.267   9.727   1.753 -0.5302  0.4894 -0.2697
  895MOL0     C20748   6.295   9.660   1.874 -0.0122 -0.8456 -0.0148
  895MOL0     O20749   6.418   9.608   1.908  0.4911  0.1602 -0.4362
  895MOL0     C20750   6.531   9.689   1.891 -0.0612  0.2286 -0.2108
  895MOL0     C20751   6.531   9.786   2.013  0.5099  0.4025  0.1607
  895MOL0     C20752   6.554   9.731   2.161  0.3169 -0.6015  0.8936
  895MOL0     C20753   6.664   9.627   2.171  0.5753  0.8727 -0.0731
  895MOL0     C20754   6.795   9.676   2.109  0.2374 -1.4902  0.5209
  895MOL0     C20755   6.896   9.713   2.050  0.2029  0.2400 -0.2216
  895MOL0     C20756   6.189   9.641   1.965 -0.4280  0.3073 -0.6864
  895MOL0     C20757   6.063   9.695   1.945  0.1145 -0.0982  0.3925
  895MOL0     H20758   5.801   9.956   1.475 -0.6152  0.8292 -0.8481
  895MOL0     H20759   5.589  10.070   1.427  0.4127 -0.8935 -0.1447
  895MOL0     H20760   5.519  10.358   1.395 -1.6649  1.3058 -0.5577
  895MOL0     H20761   5.391  10.239   1.430 -0.8832 -0.1251 -1.2756
  895MOL0     H20762   5.295  10.485   1.397 -2.7374 -0.4978 -0.1763
  895MOL0     H20763   5.266  10.407   1.545  0.3757  2.0221 -0.5029
  895MOL0     H20764   5.445  10.506   1.670 -2.2444  1.8468  1.2549
  895MOL0     H20765   5.499  10.590   1.513  0.1943 -0.1769 -0.4127
  895MOL0     H20766   5.276  10.683   1.503 -0.6831  0.9567  1.7610
  895MOL0     H20767   5.230  10.617   1.648  0.5152 -2.5403 -0.0886
  895MOL0     H20768   5.400  10.752   1.780  1.5353  0.0913  0.4767
  895MOL0     H20769   5.463  10.816   1.624 -1.0998  3.0649 -0.7009
  895MOL0     H20770   5.175  10.827   1.736  1.8638 -3.1911 -0.7608
  895MOL0     H20771   5.295  10.944   1.786  4.0151 -1.8845 -0.5621
  895MOL0     H20772   5.349  11.008   1.545 -0.6986  1.3921 -1.4194
  895MOL0     H20773   5.187  10.960   1.505  0.6196 -1.0497 -0.1535
  895MOL0     H20774   5.247  11.150   1.723  0.4044 -4.0018  1.4856
  895MOL0     H20775   5.092  11.108   1.691 -0.2331  0.9642  0.0507
  895MOL0     H20776   5.371  11.308   1.553  0.6848 -2.3205 -1.7633
  895MOL0     H20777   5.356  11.444   1.286  1.6658  1.4636  0.8690
  895MOL0     H20778   5.200  11.522   1.267  1.8951  2.0775 -0.6089
  895MOL0     H20779   5.399  11.665   1.323  0.9364 -0.6677  0.5861
  895MOL0     H20780   5.387  11.606   1.491 -0.2811  1.7195  0.1280
  895MOL0     H20781   5.165  11.703   1.522 -1.5377  2.2661 -0.2316
  895MOL0     H20782   5.158  11.746   1.354  1.8448  0.1996 -1.6631
  895MOL0     H20783   5.349  11.859   1.559 -0.1423  1.2999 -0.2880
  895MOL0     H20784   5.222  11.956   1.494  0.1020 -0.4373  2.2828
  895MOL0     H20785   5.272  11.978   1.141  4.3914 -4.6929  3.1787
  895MOL0     H20786   5.323  12.274   0.952  0.4874 -0.5979  0.2014
  895MOL0     H20787   5.208  12.134   0.971 -2.5322 -0.3480  2.6917
  895MOL0     H20788   5.170  12.282   1.040 -0.3042 -1.6696  0.4573
  895MOL0     H20789   5.423  12.647   0.884 -0.8570 -1.3855 -0.3549
  895MOL0     H20790   5.408  12.885   0.888  5.2260 -0.7254  0.1012
  895MOL0     H20791   5.257  13.112   1.246  1.2524 -0.9712  0.9551
  895MOL0     H20792   5.411  13.054   1.295  2.8982  3.0406  0.4932
  895MOL0     H20793   5.511  13.250   1.250  1.9150 -2.5299 -2.1365
  895MOL0     H20794   5.445  13.234   1.090  0.1015 -2.2812  1.0740
  895MOL0     H20795   5.242  13.352   1.158  2.8676  2.2777 -4.2996
  895MOL0     H20796   5.397  13.442   1.173  0.1042 -0.1256 -1.6801
  895MOL0     H20797   5.223  13.479   1.395 -0.8851 -1.6302  0.6229
  895MOL0     H20798   5.288  13.313   1.415  2.4887  0.3313  0.9428
  895MOL0     H20799   5.520  13.402   1.412  2.7534  2.7961  0.3575
  895MOL0     H20800   5.403  13.450   1.535  1.6773 -2.1701  0.4963
  895MOL0     H20801   5.481  13.624   1.295 -0.0455  0.7373 -0.0548
  895MOL0     H20802   5.374  13.661   1.438 -0.0859 -2.7761  2.8932
  895MOL0     H20803   5.662  13.637   1.418  1.3522  0.0549  1.7020
  895MOL0     H20804   5.583  13.569   1.564 -1.2681 -1.0618 -0.3719
  895MOL0     H20805   5.518  13.803   1.625  2.7580 -1.9299  1.7891
  895MOL0     H20806   5.511  13.848   1.453  2.1627  1.9834  1.2336
  895MOL0     H20807   5.275  12.862   1.307 -0.6956 -0.2761 -0.5924
  895MOL0     H20808   5.234  12.626   1.270  0.2095 -0.7040 -0.8141
  895MOL0     H20809   5.562  12.316   1.361 -2.6862  2.3263  0.3467
  895MOL0     H20810   5.508  12.089   1.481  0.6984 -2.0362 -1.2890
  895MOL0     H20811   5.643  10.288   1.800  2.4607 -0.7297  1.4247
  895MOL0     H20812   5.835  10.153   1.851  4.3282  3.5969 -3.6080
  895MOL0     H20813   6.127   9.830   1.633 -2.9183  3.4369  1.4298
  895MOL0     H20814   6.332   9.740   1.668 -2.4819  4.9440 -1.4019
  895MOL0     H20815   6.615   9.619   1.901 -1.6115 -1.7907 -0.6007
  895MOL0     H20816   6.519   9.738   1.794  0.0101 -0.6205 -0.6622
  895MOL0     H20817   6.439   9.844   2.023  1.3003  1.4630  1.7810
  895MOL0     H20818   6.613   9.853   1.988  0.1899  2.0184  2.9789
  895MOL0     H20819   6.459   9.690   2.196 -1.6175  2.0174 -0.8275
  895MOL0     H20820   6.592   9.807   2.230  3.2771  0.7132 -1.9279
  895MOL0     H20821   6.628   9.533   2.128  2.6358 -1.5281  3.0395
  895MOL0     H20822   6.695   9.598   2.272 -1.2060 -1.1440 -0.0318
  895MOL0     H20823   6.973   9.758   1.990  2.1154  0.1265  1.9699
  895MOL0     H20824   6.206   9.572   2.048 -0.2624 -1.6866 -2.3100
  895MOL0     H20825   5.988   9.686   2.022 -0.3253 -1.2865 -0.1458
  896MOL0     O20826   5.649   5.831   0.571 -0.2372  0.1748 -0.8670
  896MOL0     C20827   5.594   5.736   0.634  0.2231 -0.0787 -0.5263
  896MOL0     O20828   5.480   5.744   0.724 -0.3985 -0.2734  0.8519
  896MOL0     C20829   5.439   5.868   0.758  0.6619  0.1041  0.7177
  896MOL0     C20830   5.348   5.940   0.672  0.0536 -0.2356  0.5132
  896MOL0     C20831   5.317   6.068   0.712  1.2150  0.5914  0.0926
  896MOL0     C20832   5.354   6.126   0.837 -0.4894  0.0896  1.0287
  896MOL0     O20833   5.311   6.251   0.863  0.3167 -0.3525 -0.4706
  896MOL0     C20834   5.425   6.326   0.904  0.4627 -0.0667 -0.2076
  896MOL0     C20835   5.400   6.469   0.894  0.3658 -0.8032  0.1338
  896MOL0     C20836   5.354   6.510   0.753 -1.4171 -0.6639 -0.2600
  896MOL0     C20837   5.404   6.654   0.741  0.1295 -0.3078  1.0184
  896MOL0     C20838   5.365   6.730   0.617  1.1254 -0.0756 -0.2387
  896MOL0     C20839   5.441   6.849   0.580 -0.4424  0.2135 -0.5212
  896MOL0     C20840   5.419   6.875   0.432 -0.1209 -1.1393 -0.4606
  896MOL0     C20841   5.497   6.993   0.379 -0.0601 -0.2851  0.5469
  896MOL0     N20842   5.423   7.051   0.262  0.2620  0.8483  0.1193
  896MOL0     C20843   5.332   7.149   0.262  1.1982  0.7513  0.5774
  896MOL0     C20844   5.308   7.180   0.137 -0.8995 -0.6868  0.0124
  896MOL0     C20845   5.235   7.303   0.104 -0.1308 -1.0565 -0.3293
  896MOL0     C20846   5.121   7.270   0.002 -0.6485  0.2399 -0.2761
  896MOL0     C20847   5.068   7.385  -0.085 -0.4278 -0.4573  0.0359
  896MOL0     C20848   4.965   7.339  -0.190 -0.6135  0.4146 -0.2668
  896MOL0     O20849   5.015   7.238  -0.275 -0.1518  0.5932  0.9184
  896MOL0     C20850   4.909   7.178  -0.344 -0.0494  0.2138  0.4777
  896MOL0     C20851   4.782   7.221  -0.362 -0.7016  1.1233 -0.3422
  896MOL0     C20852   4.694   7.141  -0.427  0.8789 -0.2030 -0.5080
  896MOL0     C20853   4.567   7.200  -0.456  0.8255  0.3650 -0.5603
  896MOL0     C20854   4.732   7.016  -0.474  0.3008 -0.5832 -0.8556
  896MOL0     C20855   4.644   6.924  -0.541  0.0299  0.4866  0.1706
  896MOL0     O20856   4.690   6.858  -0.657 -0.4594  0.4859 -0.2210
  896MOL0     C20857   4.609   6.777  -0.724  0.1881  0.5916  0.2158
  896MOL0     C20858   4.597   6.641  -0.688 -0.6431 -0.7473 -0.3278
  896MOL0     C20859   4.511   6.560  -0.758 -0.2118 -0.5396 -0.5535
  896MOL0     C20860   4.420   6.618  -0.856  0.9694  0.2994 -1.0604
  896MOL0     O20861   4.327   6.549  -0.928 -0.7765 -0.1237  0.3242
  896MOL0     C20862   4.294   6.412  -0.914  0.6464 -0.3340 -0.2019
  896MOL0     C20863   4.308   6.355  -1.056 -0.9485 -0.2909 -0.7183
  896MOL0     C20864   4.223   6.427  -1.161  0.1669  0.7481 -0.6321
  896MOL0     C20865   4.075   6.438  -1.121 -0.9549 -0.7372  0.3362
  896MOL0     C20866   3.991   6.495  -1.228 -0.0283  0.5141 -0.0921
  896MOL0     C20867   3.988   6.421  -1.366  0.1591 -0.2148  0.3618
  896MOL0     C20868   3.876   6.471  -1.455 -0.7206 -0.3099 -0.4171
  896MOL0     C20869   3.876   6.381  -1.580  1.5144 -1.2423  0.1712
  896MOL0    Cl20870   4.036   6.315  -1.624 -0.3070 -0.1119 -0.0080
  896MOL0     C20871   4.428   6.749  -0.886  0.8633  0.0848 -0.8486
  896MOL0     C20872   4.522   6.825  -0.819 -0.7375  0.4713  0.4887
  896MOL0     O20873   4.525   6.925  -0.504 -0.1145 -0.4816 -0.2834
  896MOL0     C20874   4.869   6.976  -0.460  0.0342 -0.8660 -0.3825
  896MOL0     C20875   4.958   7.062  -0.394 -0.3028  0.9523  0.1975
  896MOL0     N20876   5.385   7.093   0.051  0.5449 -0.1153  1.1368
  896MOL0     N20877   5.448   7.020   0.135 -0.4253  0.6967  0.1849
  896MOL0     C20878   5.420   6.041   0.924  0.7151  0.2850  0.5152
  896MOL0     C20879   5.466   5.917   0.883  0.1362 -0.9925  0.5790
  896MOL0     C20880   5.651   5.600   0.630  0.6033 -0.9182  0.1491
  896MOL0     C20881   5.583   5.486   0.681  0.1644 -0.0714  0.0991
  896MOL0     C20882   5.646   5.356   0.670 -0.2418 -0.3956 -0.5828
  896MOL0     C20883   5.783   5.345   0.616  0.4871  1.0532 -0.4892
  896MOL0     O20884   5.836   5.219   0.619  0.1682 -0.0692 -0.8790
  896MOL0     C20885   5.933   5.183   0.514  0.3770  0.3508 -0.3700
  896MOL0     C20886   6.076   5.219   0.566 -0.3131 -0.4644 -0.0357
  896MOL0     C20887   6.110   5.103   0.665 -0.6466 -1.0430  0.1243
  896MOL0     C20888   6.266   5.126   0.705 -0.7506 -0.3448 -0.2256
  896MOL0     C20889   6.306   5.003   0.772 -0.9645 -0.2456 -0.1908
  896MOL0     C20890   6.368   4.898   0.804  0.4864  0.3431 -0.8469
  896MOL0     C20891   5.845   5.456   0.580  0.4921 -0.5287 -0.3514
  896MOL0     C20892   5.785   5.586   0.595 -0.4521  0.6361  0.7467
  896MOL0     H20893   5.315   5.903   0.575 -2.0308  3.2913 -0.2923
  896MOL0     H20894   5.265   6.136   0.646 -2.1003  0.0717  1.9359
  896MOL0     H20895   5.438   6.310   1.011 -1.9670 -1.3308 -0.0204
  896MOL0     H20896   5.522   6.308   0.857 -0.7105  0.2501 -2.9323
  896MOL0     H20897   5.321   6.506   0.960 -1.0055  1.7553 -2.7111
  896MOL0     H20898   5.494   6.513   0.926  0.6421 -0.4700 -1.0942
  896MOL0     H20899   5.401   6.453   0.672 -1.5564 -1.7835  0.4317
  896MOL0     H20900   5.247   6.508   0.732 -1.2759 -1.3869 -0.9613
  896MOL0     H20901   5.393   6.714   0.832  4.3821  0.1488  1.4276
  896MOL0     H20902   5.513   6.653   0.737  0.1625  1.4664  0.5275
  896MOL0     H20903   5.375   6.652   0.540 -0.5868 -0.5956  0.0024
  896MOL0     H20904   5.259   6.758   0.620  2.0318  3.8774 -0.4787
  896MOL0     H20905   5.404   6.929   0.645 -2.2982 -0.4244 -0.7172
  896MOL0     H20906   5.549   6.834   0.591 -0.7642 -1.1045  1.3571
  896MOL0     H20907   5.444   6.790   0.368  0.0987 -2.3662  1.1723
  896MOL0     H20908   5.311   6.883   0.416 -0.0806 -0.3360 -0.3313
  896MOL0     H20909   5.597   6.953   0.362 -0.0097  0.6680 -1.8833
  896MOL0     H20910   5.508   7.074   0.452 -0.0628  2.0011 -1.8406
  896MOL0     H20911   5.289   7.205   0.345  0.7554  0.3809  0.6042
  896MOL0     H20912   5.183   7.335   0.194 -0.3938 -3.2572  0.3484
  896MOL0     H20913   5.300   7.374   0.052 -0.9908  1.0745  1.3711
  896MOL0     H20914   5.031   7.240   0.056 -2.1834  4.5146 -0.1115
  896MOL0     H20915   5.152   7.185  -0.059  1.0782  0.7032 -0.1101
  896MOL0     H20916   5.158   7.426  -0.131 -0.3893 -0.4178  0.1479
  896MOL0     H20917   5.021   7.456  -0.017 -3.1622 -2.7975  0.8279
  896MOL0     H20918   4.949   7.431  -0.247 -1.3783 -0.0128 -0.7540
  896MOL0     H20919   4.868   7.324  -0.140 -0.2756 -0.7050  0.0813
  896MOL0     H20920   4.757   7.322  -0.328 -0.7910  1.1262 -0.4179
  896MOL0     H20921   4.531   7.161  -0.552  5.3963 -0.1131 -2.3365
  896MOL0     H20922   4.491   7.187  -0.379 -1.7870  0.8546 -2.8733
  896MOL0     H20923   4.572   7.308  -0.475 -2.0699  0.3618 -1.9078
  896MOL0     H20924   4.660   6.608  -0.606  2.8011  2.3013 -1.4547
  896MOL0     H20925   4.518   6.458  -0.720 -0.1262  0.0246  0.9966
  896MOL0     H20926   4.361   6.353  -0.851  1.6264 -0.6794 -1.5125
  896MOL0     H20927   4.190   6.401  -0.883 -0.4204 -0.1047 -3.3403
  896MOL0     H20928   4.410   6.361  -1.093 -0.8746 -0.2334 -0.5087
  896MOL0     H20929   4.276   6.251  -1.040 -0.5607  0.0087  3.1369
  896MOL0     H20930   4.222   6.379  -1.260 -1.0832  0.8221 -0.6687
  896MOL0     H20931   4.276   6.519  -1.187  2.2374 -0.2114 -0.0823
  896MOL0     H20932   4.042   6.337  -1.092 -1.7720 -0.3423  0.8286
  896MOL0     H20933   4.075   6.511  -1.039  2.5374 -2.1357  1.8184
  896MOL0     H20934   4.024   6.599  -1.237 -0.4554  1.1035  3.6853
  896MOL0     H20935   3.892   6.506  -1.183  0.2625 -0.6317  0.8849
  896MOL0     H20936   4.085   6.425  -1.416  0.4985 -2.6735  0.6732
  896MOL0     H20937   3.964   6.315  -1.353 -0.2811 -0.4836 -2.0876
  896MOL0     H20938   3.897   6.574  -1.482  0.6571 -1.1747 -2.9602
  896MOL0     H20939   3.786   6.453  -1.396 -0.0045 -0.7477  0.5795
  896MOL0     H20940   3.835   6.436  -1.665  2.1425  0.5276  0.9643
  896MOL0     H20941   3.808   6.299  -1.560  1.1565 -1.0175 -0.1219
  896MOL0     H20942   4.395   6.817  -0.964  0.9788  2.6301  1.1703
  896MOL0     H20943   4.535   6.928  -0.851  1.5374  1.1979  3.3301
  896MOL0     H20944   4.911   6.879  -0.484 -0.5332 -0.8268 -1.6050
  896MOL0     H20945   5.062   7.044  -0.369 -0.0924  2.6438  0.6865
  896MOL0     H20946   5.434   6.061   1.030  0.7021 -0.2767  0.6221
  896MOL0     H20947   5.516   5.847   0.950  1.2638 -1.1178 -0.3696
  896MOL0     H20948   5.482   5.491   0.719 -0.0902  2.5882 -0.6781
  896MOL0     H20949   5.596   5.265   0.699 -1.6864  0.8927  1.1923
  896MOL0     H20950   5.936   5.083   0.470 -0.3228  0.6616 -1.1636
  896MOL0     H20951   5.916   5.241   0.423  0.9800 -2.2234 -2.2384
  896MOL0     H20952   6.078   5.307   0.631 -1.8582  0.0945 -0.7034
  896MOL0     H20953   6.142   5.241   0.482  2.0891 -0.6632  1.7030
  896MOL0     H20954   6.096   5.016   0.600 -0.5164  0.4032 -1.9406
  896MOL0     H20955   6.048   5.103   0.755  1.3962  1.0387  1.6418
  896MOL0     H20956   6.280   5.204   0.780  0.8457  1.1290 -1.9537
  896MOL0     H20957   6.324   5.163   0.620 -0.0671 -0.0467  0.3584
  896MOL0     H20958   6.396   4.796   0.824  0.0675  0.0756 -1.5760
  896MOL0     H20959   5.950   5.441   0.556  1.2933 -0.3297  2.6327
  896MOL0     H20960   5.842   5.665   0.546  1.5310  0.3077  2.3697
  897MOL0     O20961   3.915   9.252   0.617  0.4472 -0.3259 -0.7277
  897MOL0     C20962   3.891   9.193   0.723  0.3062 -0.0897  0.0032
  897MOL0     O20963   3.773   9.133   0.748  0.2876  0.2888 -0.3131
  897MOL0     C20964   3.676   9.152   0.653 -1.1492  0.0582  0.6673
  897MOL0     C20965   3.662   9.066   0.547  0.4186 -0.1703  0.2934
  897MOL0     C20966   3.557   9.071   0.456  0.7211  0.2196 -0.4498
  897MOL0     C20967   3.462   9.170   0.467  0.1731  0.2015 -0.1290
  897MOL0     O20968   3.356   9.159   0.382  0.0741 -0.4074  0.1315
  897MOL0     C20969   3.223   9.193   0.441 -0.3967 -1.1263  0.0330
  897MOL0     C20970   3.123   9.196   0.325 -0.0680  0.1687  0.5916
  897MOL0     C20971   3.076   9.058   0.284 -0.6641 -0.4089  0.1878
  897MOL0     C20972   2.983   9.073   0.156 -0.5647 -0.0807 -0.0953
  897MOL0     C20973   2.960   8.941   0.078  0.2725  0.2218  0.6020
  897MOL0     C20974   2.850   8.961  -0.026  0.3680 -0.2426 -0.1236
  897MOL0     C20975   2.823   8.825  -0.101  0.5607 -0.1383  0.6376
  897MOL0     C20976   2.713   8.842  -0.209 -0.8495  0.1036 -0.1573
  897MOL0     N20977   2.578   8.850  -0.142 -0.5005 -0.3713  0.3039
  897MOL0     C20978   2.511   8.969  -0.135 -0.2315 -0.0007  0.5276
  897MOL0     C20979   2.414   8.945  -0.048 -0.0780  0.4003 -0.1494
  897MOL0     C20980   2.303   9.038   0.004  0.5919  0.0952 -0.6129
  897MOL0     C20981   2.211   9.110  -0.092  0.1418  0.1032  0.3180
  897MOL0     C20982   2.132   9.026  -0.191  0.6335 -0.0649 -0.0556
  897MOL0     C20983   2.079   9.111  -0.313  1.0769  0.0517  0.8438
  897MOL0     O20984   2.190   9.170  -0.380 -0.9067 -0.2103  0.4706
  897MOL0     C20985   2.134   9.263  -0.472  0.1392 -0.5926  0.8019
  897MOL0     C20986   2.153   9.402  -0.454  0.7483  0.1221  0.3005
  897MOL0     C20987   2.120   9.492  -0.557 -0.0420  0.0987  0.4069
  897MOL0     C20988   2.169   9.634  -0.536  0.4781 -0.2810  0.6700
  897MOL0     C20989   2.057   9.435  -0.677  0.0120  0.7073  0.6737
  897MOL0     C20990   1.995   9.519  -0.784  1.5309  0.1200 -0.6453
  897MOL0     O20991   1.951   9.457  -0.897 -0.0402  0.3829 -0.9955
  897MOL0     C20992   1.890   9.530  -1.002 -0.8515 -0.6996  0.4413
  897MOL0     C20993   1.803   9.639  -0.995 -0.4976 -0.1315  0.6304
  897MOL0     C20994   1.753   9.703  -1.108  0.3892 -0.7801  0.1040
  897MOL0     C20995   1.792   9.666  -1.234  0.0445  0.4270  0.5964
  897MOL0     O20996   1.746   9.729  -1.342  0.1592  0.4371  0.3112
  897MOL0     C20997   1.614   9.686  -1.393  0.2745  0.7713  0.6389
  897MOL0     C20998   1.514   9.796  -1.369  0.5097  1.1308  0.2141
  897MOL0     C20999   1.476   9.872  -1.501 -0.0505  0.6451  1.2118
  897MOL0     C21000   1.364   9.976  -1.457 -0.2189 -0.0326  0.7926
  897MOL0     C21001   1.414  10.119  -1.413  0.8350  0.2978 -0.0049
  897MOL0     C21002   1.463  10.190  -1.539 -0.9244 -1.0378  0.5753
  897MOL0     C21003   1.575  10.291  -1.519 -0.2921  0.0924 -0.5173
  897MOL0     C21004   1.539  10.413  -1.430  0.4482  0.4026  0.3271
  897MOL0    Cl21005   1.685  10.521  -1.420  0.0182  0.0720 -0.0703
  897MOL0     C21006   1.853   9.537  -1.239  0.5717  0.9273 -0.0385
  897MOL0     C21007   1.898   9.467  -1.125 -0.0439 -0.3243  0.2744
  897MOL0     O21008   1.963   9.637  -0.745  0.1803 -0.3393  0.3322
  897MOL0     C21009   2.048   9.292  -0.687  0.2420 -0.4406  0.1445
  897MOL0     C21010   2.100   9.205  -0.597 -0.8201  0.9660 -0.5894
  897MOL0     N21011   2.412   8.812  -0.029  0.4225 -0.0326  0.1031
  897MOL0     N21012   2.513   8.754  -0.089  0.7642  0.6962 -0.1777
  897MOL0     C21013   3.472   9.263   0.575 -0.3226  0.0893  0.3103
  897MOL0     C21014   3.578   9.250   0.669 -0.1250 -0.1244 -0.2534
  897MOL0     C21015   4.015   9.166   0.809 -0.8442  0.5377 -0.2569
  897MOL0     C21016   4.140   9.226   0.780  0.4657  0.4108  1.1452
  897MOL0     C21017   4.247   9.219   0.862  0.6888  0.8140 -0.0315
  897MOL0     C21018   4.241   9.147   0.985  0.2294  0.1550  0.2559
  897MOL0     O21019   4.339   9.128   1.068 -0.9216 -0.6507  0.4796
  897MOL0     C21020   4.447   9.223   1.077  0.3376  0.1514  0.1321
  897MOL0     C21021   4.536   9.214   1.202  0.4389  0.1606  0.3973
  897MOL0     C21022   4.603   9.340   1.252 -0.0139  0.7350 -0.6636
  897MOL0     C21023   4.734   9.361   1.160  0.2982 -0.4888 -0.1238
  897MOL0     C21024   4.852   9.274   1.188  0.6906 -0.3666  0.9616
  897MOL0     C21025   4.949   9.209   1.230 -0.3191  0.0112 -0.3057
  897MOL0     C21026   4.124   9.071   1.005  0.1281 -0.9641 -0.7819
  897MOL0     C21027   4.007   9.088   0.926 -0.7157 -0.6205 -0.3162
  897MOL0     H21028   3.731   8.983   0.559  0.7321  0.0023 -0.2911
  897MOL0     H21029   3.527   8.991   0.388 -1.5275  1.3065 -0.8299
  897MOL0     H21030   3.199   9.127   0.525  0.9453  0.5210  1.8099
  897MOL0     H21031   3.220   9.296   0.478  0.7040 -0.8652 -0.5820
  897MOL0     H21032   3.031   9.247   0.358 -1.4880 -2.3192  0.7641
  897MOL0     H21033   3.151   9.246   0.232  0.3989 -2.0146 -0.5108
  897MOL0     H21034   3.150   8.985   0.252 -0.9246 -1.7989  2.5517
  897MOL0     H21035   3.031   8.996   0.362 -1.5031 -2.2238 -1.6361
  897MOL0     H21036   2.891   9.124   0.186 -0.6115 -0.6290  0.7516
  897MOL0     H21037   3.024   9.145   0.084 -2.3657  0.1765 -0.9317
  897MOL0     H21038   3.053   8.908   0.030  0.2006 -0.5641  0.9940
  897MOL0     H21039   2.941   8.858   0.146  3.6083  0.2696  1.8117
  897MOL0     H21040   2.763   8.991   0.033  1.3295  0.2410  1.0984
  897MOL0     H21041   2.879   9.032  -0.105  2.7726  1.2902  1.9880
  897MOL0     H21042   2.914   8.797  -0.155  0.7706 -0.6708  1.2525
  897MOL0     H21043   2.799   8.742  -0.034 -1.3163 -1.4111 -1.4675
  897MOL0     H21044   2.713   8.759  -0.280 -1.2312  0.9275 -1.1469
  897MOL0     H21045   2.721   8.937  -0.262 -1.0535  0.6664  0.7824
  897MOL0     H21046   2.520   9.066  -0.182  1.4433 -0.1971  0.3774
  897MOL0     H21047   2.249   8.976   0.077  1.6909 -0.2732 -0.0957
  897MOL0     H21048   2.351   9.112   0.069  1.1342  0.9165 -1.9124
  897MOL0     H21049   2.262   9.187  -0.149 -1.3628 -0.5288 -2.0381
  897MOL0     H21050   2.146   9.158  -0.018  0.6858 -1.3310  1.8074
  897MOL0     H21051   2.048   8.979  -0.140  2.5877 -3.1473  0.5705
  897MOL0     H21052   2.196   8.948  -0.235  0.5997  0.1920 -0.5737
  897MOL0     H21053   1.999   9.177  -0.280  2.9125  1.7850  2.0975
  897MOL0     H21054   2.031   9.043  -0.384  1.0307  1.4306 -0.5006
  897MOL0     H21055   2.216   9.433  -0.371  1.1936 -0.9811  0.3895
  897MOL0     H21056   2.094   9.711  -0.553  0.3581 -0.4341  0.4867
  897MOL0     H21057   2.209   9.652  -0.436 -1.3301 -2.0777  1.7916
  897MOL0     H21058   2.250   9.655  -0.607 -1.5622  1.9949 -1.1600
  897MOL0     H21059   1.779   9.661  -0.892  2.9472 -0.4845  1.6406
  897MOL0     H21060   1.672   9.774  -1.095 -0.7249 -2.3360  2.1976
  897MOL0     H21061   1.608   9.636  -1.489 -1.0301 -0.1362  1.1575
  897MOL0     H21062   1.587   9.599  -1.333 -1.1710 -0.6016 -1.8476
  897MOL0     H21063   1.428   9.740  -1.332  0.2059  1.9586  0.7789
  897MOL0     H21064   1.549   9.857  -1.285  0.7075  0.7093  0.4396
  897MOL0     H21065   1.432   9.797  -1.567  3.6943  0.8479 -1.8817
  897MOL0     H21066   1.567   9.906  -1.552 -1.3357 -3.2156 -4.6428
  897MOL0     H21067   1.298   9.989  -1.543  3.1558  2.7809 -1.6725
  897MOL0     H21068   1.300   9.931  -1.380 -3.7629  2.0444 -0.7144
  897MOL0     H21069   1.499  10.125  -1.345  0.2811 -1.0741  0.8518
  897MOL0     H21070   1.333  10.185  -1.380  1.9250  2.2300 -1.0450
  897MOL0     H21071   1.513  10.112  -1.598 -0.4686 -1.4677  1.5058
  897MOL0     H21072   1.391  10.253  -1.592  1.1432  0.1408 -0.9832
  897MOL0     H21073   1.592  10.344  -1.614  1.6547 -5.6438 -3.8475
  897MOL0     H21074   1.659  10.230  -1.483 -1.2900 -1.1085 -0.1627
  897MOL0     H21075   1.511  10.395  -1.325 -0.5786  3.2706  0.6344
  897MOL0     H21076   1.458  10.473  -1.473 -1.1562 -1.4522  0.6116
  897MOL0     H21077   1.886   9.486  -1.329 -0.3844  0.8662 -0.3651
  897MOL0     H21078   1.963   9.381  -1.137  0.5125  0.2959 -1.4613
  897MOL0     H21079   2.001   9.242  -0.771 -0.0660 -1.1059  0.7034
  897MOL0     H21080   2.099   9.100  -0.622  1.0220  0.7672 -0.0046
  897MOL0     H21081   3.401   9.333   0.618 -1.3014 -0.7784  0.1344
  897MOL0     H21082   3.578   9.317   0.755 -0.3857  1.3673 -1.3889
  897MOL0     H21083   4.148   9.291   0.693  0.4498 -0.5417  0.4053
  897MOL0     H21084   4.339   9.267   0.831  0.7961  0.0755 -0.9193
  897MOL0     H21085   4.512   9.215   0.989 -0.0042 -2.0550  0.0416
  897MOL0     H21086   4.399   9.321   1.085  0.8233  0.3433  0.8646
  897MOL0     H21087   4.613   9.140   1.179  0.3549 -0.7251  2.6735
  897MOL0     H21088   4.471   9.176   1.281  1.8478 -2.5662  0.3543
  897MOL0     H21089   4.634   9.330   1.357  0.5356  0.1295 -0.8729
  897MOL0     H21090   4.554   9.436   1.236 -1.0464  0.8646  2.5793
  897MOL0     H21091   4.767   9.462   1.187  1.2279 -0.8875  0.2696
  897MOL0     H21092   4.709   9.347   1.054  1.5553 -2.1733 -0.2434
  897MOL0     H21093   5.037   9.153   1.255 -0.2127  0.6039  0.7171
  897MOL0     H21094   4.123   9.014   1.098  1.4695  2.8651  1.8441
  897MOL0     H21095   3.914   9.042   0.958  0.0353 -1.7918  0.2664
  898MOL0     O21096   7.915   9.080   6.319 -0.3686  1.0180 -0.6638
  898MOL0     C21097   7.917   9.168   6.403  0.7614  0.4669  0.2235
  898MOL0     O21098   7.990   9.169   6.521 -0.7146 -0.1084  0.0334
  898MOL0     C21099   8.083   9.067   6.533  0.8584  0.6400 -0.5549
  898MOL0     C21100   8.091   9.009   6.662  0.3889 -0.3708  0.1514
  898MOL0     C21101   8.188   8.918   6.690  0.4072  0.6305 -0.3969
  898MOL0     C21102   8.280   8.865   6.599  0.4601 -0.0488  0.2509
  898MOL0     O21103   8.380   8.778   6.622  0.5400  0.0374 -0.2511
  898MOL0     C21104   8.403   8.750   6.763  0.2759  0.6342 -0.1353
  898MOL0     C21105   8.514   8.647   6.772 -0.1862 -0.0109 -0.7232
  898MOL0     C21106   8.652   8.672   6.700 -0.0593 -0.2697 -0.4410
  898MOL0     C21107   8.697   8.811   6.683  0.8054  0.3584  0.3772
  898MOL0     C21108   8.820   8.847   6.774 -0.1697  0.1518 -0.1918
  898MOL0     C21109   8.911   8.961   6.713  0.2743  1.0143 -0.5647
  898MOL0     C21110   9.015   9.015   6.824 -0.5366  0.0006 -0.6447
  898MOL0     C21111   9.109   9.111   6.758 -0.4414 -1.0588 -1.3718
  898MOL0     N21112   9.184   9.180   6.868 -0.0590  0.7726  0.1826
  898MOL0     C21113   9.313   9.157   6.913 -0.1030  0.3116  0.2718
  898MOL0     C21114   9.348   9.248   7.003 -0.0341  0.9086 -0.1059
  898MOL0     C21115   9.469   9.273   7.083 -0.1170  0.9923 -0.0511
  898MOL0     C21116   9.447   9.217   7.223  0.6521  0.7181  0.9506
  898MOL0     C21117   9.394   9.327   7.322 -0.3627  0.0358 -0.3865
  898MOL0     C21118   9.498   9.420   7.385  0.1015  1.0187 -0.1041
  898MOL0     O21119   9.441   9.524   7.461 -0.0664  0.0745  0.0760
  898MOL0     C21120   9.465   9.527   7.592  1.1028  0.6994  0.2941
  898MOL0     C21121   9.466   9.651   7.654 -0.1745 -0.5385  1.2240
  898MOL0     C21122   9.476   9.667   7.792  0.2467  1.0356 -0.6973
  898MOL0     C21123   9.504   9.809   7.842  0.4724 -0.5538  0.5586
  898MOL0     C21124   9.448   9.558   7.868 -0.2601  0.7260 -0.7298
  898MOL0     C21125   9.435   9.558   8.011 -0.6494 -0.2205  0.6506
  898MOL0     O21126   9.444   9.436   8.080 -1.1228 -0.1627 -0.0292
  898MOL0     C21127   9.455   9.428   8.212 -0.8252  0.1836 -1.1608
  898MOL0     C21128   9.577   9.399   8.274 -0.0901  0.8040  1.0569
  898MOL0     C21129   9.582   9.401   8.411 -0.5096  2.2517  0.5734
  898MOL0     C21130   9.470   9.417   8.489  0.1953 -0.6150 -0.1643
  898MOL0     O21131   9.493   9.421   8.625  0.3959  0.0760 -0.1580
  898MOL0     C21132   9.433   9.529   8.702  0.3043  0.6497  0.3062
  898MOL0     C21133   9.515   9.553   8.821 -0.3456 -0.6907 -0.0917
  898MOL0     C21134   9.428   9.632   8.928  0.5106 -0.7080 -1.1135
  898MOL0     C21135   9.506   9.657   9.055 -0.0685 -0.2921  0.4998
  898MOL0     C21136   9.420   9.745   9.142 -0.9596  0.5218  0.3795
  898MOL0     C21137   9.474   9.883   9.128  0.2886 -0.7478 -0.5248
  898MOL0     C21138   9.435   9.985   9.232  0.5628  0.2459  0.0953
  898MOL0     C21139   9.305  10.068   9.198 -0.5668 -0.0760 -1.2260
  898MOL0    Cl21140   9.300  10.129   9.036 -0.0864  0.0915 -0.2306
  898MOL0     C21141   9.344   9.439   8.427  0.2942  0.5784  0.4084
  898MOL0     C21142   9.336   9.431   8.286 -0.3345 -0.3482 -0.3693
  898MOL0     O21143   9.394   9.663   8.062 -0.3310  0.0239 -0.0110
  898MOL0     C21144   9.457   9.428   7.810  0.7134 -0.6339 -0.6207
  898MOL0     C21145   9.467   9.417   7.674  0.0868 -0.4901  0.6665
  898MOL0     N21146   9.240   9.334   7.001 -0.6810  0.0549  0.2394
  898MOL0     N21147   9.146   9.293   6.924  0.1007 -0.8565 -0.1446
  898MOL0     C21148   8.271   8.916   6.471 -0.5288 -0.2787  0.1695
  898MOL0     C21149   8.173   9.012   6.438  0.0091 -0.0176  0.4377
  898MOL0     C21150   7.845   9.297   6.364 -0.5064 -0.3505 -0.1675
  898MOL0     C21151   7.770   9.308   6.246 -0.8961  0.4483 -0.3559
  898MOL0     C21152   7.711   9.430   6.203 -0.5732  0.2047 -0.4262
  898MOL0     C21153   7.713   9.541   6.290 -0.1783 -0.1740 -1.0066
  898MOL0     O21154   7.632   9.653   6.269 -0.0767 -0.0425  0.4677
  898MOL0     C21155   7.663   9.733   6.151  0.0706 -0.7197  0.9350
  898MOL0     C21156   7.570   9.686   6.033 -0.4737  0.1103  0.7029
  898MOL0     C21157   7.594   9.767   5.903 -0.1196  0.4611  0.3055
  898MOL0     C21158   7.728   9.727   5.830  0.2257 -0.3972 -0.4158
  898MOL0     C21159   7.738   9.584   5.806 -0.6443 -0.2117  0.6250
  898MOL0     C21160   7.754   9.466   5.805 -0.2761 -0.0431 -0.5870
  898MOL0     C21161   7.768   9.521   6.417 -0.7694 -0.9208  0.1943
  898MOL0     C21162   7.849   9.415   6.442  0.7225  0.3963 -0.5862
  898MOL0     H21163   8.035   9.039   6.750 -0.4041  0.4519 -0.6130
  898MOL0     H21164   8.192   8.884   6.793 -0.3824 -0.6012 -0.7509
  898MOL0     H21165   8.433   8.837   6.821 -0.3808  0.0476  1.1362
  898MOL0     H21166   8.317   8.702   6.810  2.4979  0.0357  3.7937
  898MOL0     H21167   8.538   8.653   6.878 -0.7653  1.7030 -0.6681
  898MOL0     H21168   8.472   8.550   6.743 -3.6902  1.5790 -1.4502
  898MOL0     H21169   8.736   8.623   6.748 -1.1236 -0.6352  1.1111
  898MOL0     H21170   8.636   8.616   6.607 -2.6356 -1.2618  0.4997
  898MOL0     H21171   8.723   8.823   6.577 -1.2599 -0.5441 -0.2710
  898MOL0     H21172   8.620   8.885   6.705  1.2504  0.3793  1.9688
  898MOL0     H21173   8.790   8.873   6.876  1.6427 -0.4484  0.5460
  898MOL0     H21174   8.882   8.759   6.791 -0.5245  0.4625  3.7917
  898MOL0     H21175   8.957   8.926   6.620 -0.5327  0.1051 -0.6480
  898MOL0     H21176   8.851   9.047   6.681 -2.3986 -1.4450 -2.8203
  898MOL0     H21177   8.975   9.078   6.905  0.1455  0.5219 -0.7082
  898MOL0     H21178   9.071   8.933   6.869 -3.1357 -2.5509 -1.7153
  898MOL0     H21179   9.038   9.180   6.713 -0.2709  1.0521  1.3743
  898MOL0     H21180   9.182   9.072   6.686 -0.5434  1.2619 -2.8176
  898MOL0     H21181   9.393   9.086   6.893  1.9508  2.5787 -0.0613
  898MOL0     H21182   9.552   9.222   7.033  0.6924  0.1492  2.0518
  898MOL0     H21183   9.490   9.380   7.091 -0.3902  1.2024 -1.7849
  898MOL0     H21184   9.538   9.170   7.263  1.7924  2.0170 -0.0042
  898MOL0     H21185   9.374   9.136   7.216  2.3209 -0.7329 -2.3706
  898MOL0     H21186   9.350   9.277   7.409 -0.6551  1.4462  0.2937
  898MOL0     H21187   9.321   9.386   7.268  1.4360  2.6137 -0.1940
  898MOL0     H21188   9.553   9.456   7.297  0.0434  1.3566 -0.0029
  898MOL0     H21189   9.564   9.349   7.436 -0.3258  1.0699  0.5330
  898MOL0     H21190   9.466   9.741   7.594  1.8085 -1.2084  0.1498
  898MOL0     H21191   9.525   9.881   7.763 -1.4404 -0.7120 -0.1380
  898MOL0     H21192   9.411   9.845   7.887  0.2655 -0.7571  0.2997
  898MOL0     H21193   9.587   9.804   7.913  0.3452  0.6933  0.8124
  898MOL0     H21194   9.678   9.395   8.234  0.2160 -0.8987  1.9170
  898MOL0     H21195   9.675   9.382   8.464 -0.3094  4.5792  1.1724
  898MOL0     H21196   9.424   9.620   8.642 -0.3139  0.0060 -0.6153
  898MOL0     H21197   9.328   9.508   8.724  0.4561 -0.3763  0.1222
  898MOL0     H21198   9.537   9.453   8.859 -0.0609 -0.7050 -0.2818
  898MOL0     H21199   9.604   9.608   8.790  0.0339 -1.7532 -0.9476
  898MOL0     H21200   9.354   9.555   8.954 -0.0935  0.5683  1.2039
  898MOL0     H21201   9.387   9.728   8.896  1.8829 -0.0330 -0.9069
  898MOL0     H21202   9.533   9.563   9.104  2.5002  0.1332  0.0397
  898MOL0     H21203   9.598   9.710   9.030 -0.1942  0.1624  0.9880
  898MOL0     H21204   9.442   9.715   9.245  2.1230  0.9334 -0.0714
  898MOL0     H21205   9.314   9.749   9.116 -0.9852  1.7975  0.6132
  898MOL0     H21206   9.583   9.873   9.138  0.1142 -1.2845  1.2967
  898MOL0     H21207   9.443   9.917   9.029  2.3614 -1.3098 -1.4305
  898MOL0     H21208   9.520  10.052   9.244  1.6050 -0.7906 -1.2138
  898MOL0     H21209   9.404   9.928   9.321 -0.9375 -3.7195 -2.6664
  898MOL0     H21210   9.293  10.150   9.270 -0.5057  0.0087 -1.3106
  898MOL0     H21211   9.219  10.003   9.211  0.5220 -2.6297 -5.0094
  898MOL0     H21212   9.252   9.438   8.484  1.2148  0.2132  1.9710
  898MOL0     H21213   9.243   9.441   8.231  1.0948  2.6308 -2.5321
  898MOL0     H21214   9.447   9.337   7.868  0.6222 -0.5612 -0.5205
  898MOL0     H21215   9.483   9.316   7.638  0.7966  0.1397 -0.8835
  898MOL0     H21216   8.339   8.870   6.400 -1.2685 -2.2634  0.6568
  898MOL0     H21217   8.165   9.041   6.334  1.2844  4.4516  1.3682
  898MOL0     H21218   7.759   9.213   6.194 -0.7931 -0.7762  1.7600
  898MOL0     H21219   7.669   9.439   6.103 -0.8163  0.9491 -0.2584
  898MOL0     H21220   7.658   9.837   6.183  3.3652 -0.3586  0.5791
  898MOL0     H21221   7.768   9.717   6.125 -0.5052 -1.9044 -0.8579
  898MOL0     H21222   7.470   9.719   6.063 -0.2350  0.7607  0.8119
  898MOL0     H21223   7.559   9.579   6.014  0.6569 -0.0410  0.8293
  898MOL0     H21224   7.586   9.874   5.924 -1.3934  0.6143 -0.8713
  898MOL0     H21225   7.514   9.731   5.839 -0.1525  0.0114  0.5929
  898MOL0     H21226   7.820   9.757   5.881  2.3467 -0.2765 -4.0069
  898MOL0     H21227   7.725   9.795   5.744 -2.6087  0.3643  0.1854
  898MOL0     H21228   7.771   9.361   5.819 -0.5607  0.0690  0.7846
  898MOL0     H21229   7.751   9.600   6.490 -2.0611 -1.9572  1.0516
  898MOL0     H21230   7.885   9.412   6.544 -0.7793  1.4099  0.0072
  899MOL0     O21231   6.388   1.966   4.993  0.1041  0.1640 -0.1745
  899MOL0     C21232   6.414   1.904   4.887 -0.7411 -0.4405 -0.4148
  899MOL0     O21233   6.395   1.765   4.871  1.3814  0.1249  0.0335
  899MOL0     C21234   6.335   1.705   4.970  0.9204 -0.4453  0.1340
  899MOL0     C21235   6.195   1.698   4.970 -0.4606 -0.7095  0.5124
  899MOL0     C21236   6.125   1.629   5.067 -0.2568 -0.4350 -0.1781
  899MOL0     C21237   6.199   1.571   5.170 -0.3998 -0.6260  0.2188
  899MOL0     O21238   6.137   1.504   5.269 -0.7552 -0.1867  0.5846
  899MOL0     C21239   6.148   1.359   5.257 -0.2961 -0.2376 -0.7526
  899MOL0     C21240   6.022   1.291   5.317  0.3777 -0.0743 -0.0306
  899MOL0     C21241   5.907   1.307   5.214  0.3147 -0.2012  0.5130
  899MOL0     C21242   5.917   1.186   5.109 -0.0646  0.6543  0.3139
  899MOL0     C21243   5.815   1.205   4.995  0.8640  0.0720  0.1913
  899MOL0     C21244   5.859   1.321   4.907  0.6023  0.0443 -0.8039
  899MOL0     C21245   6.001   1.321   4.852 -0.1813 -0.0015  0.4309
  899MOL0     C21246   6.016   1.190   4.757  0.2187 -0.2912 -0.4822
  899MOL0     N21247   5.902   1.185   4.659  0.6796 -0.3473 -0.1925
  899MOL0     C21248   5.884   1.279   4.561 -0.2470 -0.2165  0.2652
  899MOL0     C21249   5.768   1.225   4.494  0.1196  0.7178  1.1291
  899MOL0     C21250   5.691   1.292   4.376 -0.2697 -0.3471 -0.3736
  899MOL0     C21251   5.736   1.238   4.235  0.3747  0.2726 -0.6669
  899MOL0     C21252   5.674   1.102   4.214 -0.1742  0.6664  0.6112
  899MOL0     C21253   5.675   1.051   4.060  0.7986  0.6900 -0.0310
  899MOL0     O21254   5.809   1.079   4.010  0.1287 -0.1421 -0.2195
  899MOL0     C21255   5.850   1.015   3.899  0.2111 -0.0656  0.7461
  899MOL0     C21256   5.767   0.987   3.796 -1.4027 -0.2384 -0.2485
  899MOL0     C21257   5.811   0.900   3.691  0.3126 -0.2872 -0.0861
  899MOL0     C21258   5.704   0.864   3.583 -0.4016  0.5482 -0.2625
  899MOL0     C21259   5.949   0.853   3.687  0.2051 -0.7285  0.7341
  899MOL0     C21260   6.010   0.761   3.587  0.2524 -0.1702  0.6610
  899MOL0     O21261   6.102   0.678   3.619  0.4884  0.2613 -0.6043
  899MOL0     C21262   6.165   0.607   3.507  0.1000 -0.2375  0.1440
  899MOL0     C21263   6.296   0.631   3.474  0.5038  0.2775  0.2035
  899MOL0     C21264   6.360   0.556   3.374 -0.4372 -0.6683  0.5483
  899MOL0     C21265   6.288   0.480   3.277  0.6205 -0.3875 -0.6104
  899MOL0     O21266   6.365   0.428   3.181 -0.5409  1.4014  0.6730
  899MOL0     C21267   6.290   0.371   3.074 -0.1604 -0.1092 -0.1925
  899MOL0     C21268   6.383   0.319   2.972  0.0828 -0.2520  0.7427
  899MOL0     C21269   6.496   0.232   3.018  0.0066 -0.3708  0.0341
  899MOL0     C21270   6.454   0.097   3.081  0.2871 -0.6150 -0.4042
  899MOL0     C21271   6.575   0.030   3.141  0.1200 -0.1195  0.5026
  899MOL0     C21272   6.698   0.010   3.044 -0.0010 -0.5675  0.3564
  899MOL0     C21273   6.813  -0.058   3.113 -0.3718 -0.1355  0.2368
  899MOL0     C21274   6.828  -0.206   3.075 -0.0619 -0.4057 -0.5259
  899MOL0    Cl21275   6.945  -0.247   3.197 -0.4415  0.1309 -0.5983
  899MOL0     C21276   6.152   0.461   3.306 -0.1170 -0.5653 -0.5672
  899MOL0     C21277   6.090   0.522   3.421 -0.4748  0.6083  0.1262
  899MOL0     O21278   5.974   0.791   3.471  0.2986 -0.4816 -0.0554
  899MOL0     C21279   6.032   0.885   3.795  0.2869 -0.3299  0.1301
  899MOL0     C21280   5.975   0.961   3.899 -0.7956 -0.0674  0.7342
  899MOL0     N21281   5.725   1.104   4.555  0.5024 -0.6714  0.0481
  899MOL0     N21282   5.799   1.094   4.656 -0.7260 -0.7960 -1.2007
  899MOL0     C21283   6.335   1.588   5.179  0.4098 -0.4976  0.4591
  899MOL0     C21284   6.408   1.647   5.071  0.2992 -0.0857  0.1328
  899MOL0     C21285   6.469   1.973   4.772 -0.2678  0.0773 -0.3780
  899MOL0     C21286   6.486   1.900   4.653  0.0004 -0.3046  0.4991
  899MOL0     C21287   6.557   1.954   4.539  1.1989 -0.3370 -0.4580
  899MOL0     C21288   6.610   2.088   4.547 -1.1346  0.2377 -1.8195
  899MOL0     O21289   6.656   2.134   4.424  0.2681 -0.5675 -0.0249
  899MOL0     C21290   6.659   2.287   4.424  0.2096  0.2891  0.5554
  899MOL0     C21291   6.705   2.341   4.283 -0.8673  0.1371  0.2846
  899MOL0     C21292   6.589   2.312   4.184 -0.3718  1.1928  0.6740
  899MOL0     C21293   6.595   2.399   4.056 -0.2564  0.2180  0.5859
  899MOL0     C21294   6.520   2.525   4.080 -0.0562  0.0893 -0.0754
  899MOL0     C21295   6.442   2.623   4.093 -0.3273 -0.5999  0.7261
  899MOL0     C21296   6.589   2.161   4.669 -0.5207  0.0910  0.4006
  899MOL0     C21297   6.523   2.103   4.781  0.2385 -0.9620 -0.2228
  899MOL0     H21298   6.141   1.731   4.881 -0.5895  0.6678  1.0925
  899MOL0     H21299   6.019   1.609   5.055  0.0162 -3.1662  1.2063
  899MOL0     H21300   6.151   1.330   5.152 -0.3916 -2.5860 -0.1712
  899MOL0     H21301   6.236   1.326   5.313 -1.1225  1.5842  1.8249
  899MOL0     H21302   6.047   1.185   5.326  1.2102  0.0913 -0.3030
  899MOL0     H21303   5.994   1.335   5.413 -2.9799  4.2641 -2.5931
  899MOL0     H21304   5.808   1.299   5.259 -1.8577 -1.6469 -3.8583
  899MOL0     H21305   5.920   1.405   5.166  1.8802 -1.0423 -0.9053
  899MOL0     H21306   6.022   1.188   5.077  0.0046 -2.7113 -0.0165
  899MOL0     H21307   5.909   1.089   5.159  2.2335  0.9761  1.4458
  899MOL0     H21308   5.815   1.112   4.938  0.3897 -0.7880  1.5491
  899MOL0     H21309   5.710   1.217   5.024 -0.4717 -1.7963 -3.3213
  899MOL0     H21310   5.783   1.338   4.830 -0.2320 -4.3148 -1.1837
  899MOL0     H21311   5.858   1.410   4.970  3.2394 -2.1417  2.6844
  899MOL0     H21312   6.008   1.418   4.801 -1.0824  0.3470  0.9261
  899MOL0     H21313   6.072   1.325   4.935  0.4444  2.9564 -0.1447
  899MOL0     H21314   6.007   1.097   4.815  1.5816 -0.5445 -0.6453
  899MOL0     H21315   6.112   1.188   4.705  0.5134 -0.6298  0.0608
  899MOL0     H21316   5.947   1.367   4.547  1.2162 -1.3881 -0.9463
  899MOL0     H21317   5.582   1.283   4.379 -0.8973  0.6495 -6.4763
  899MOL0     H21318   5.715   1.398   4.385  3.5365 -1.2363  1.6732
  899MOL0     H21319   5.846   1.242   4.235  0.4700 -0.3002  1.9793
  899MOL0     H21320   5.708   1.302   4.151  0.5775 -0.9159 -1.6904
  899MOL0     H21321   5.567   1.109   4.236 -0.3361  2.1348 -0.4848
  899MOL0     H21322   5.719   1.030   4.282 -0.2907 -1.3193 -1.3120
  899MOL0     H21323   5.604   1.112   4.003 -2.9467 -0.8313  2.6009
  899MOL0     H21324   5.654   0.943   4.055  1.0626  0.4339  2.7490
  899MOL0     H21325   5.662   1.013   3.798 -0.5241  4.6230 -1.9021
  899MOL0     H21326   5.606   0.867   3.633 -0.7988 -2.1732 -0.7554
  899MOL0     H21327   5.718   0.938   3.504 -1.2882  1.2223  0.1881
  899MOL0     H21328   5.721   0.764   3.543 -1.5602  1.1538 -2.3817
  899MOL0     H21329   6.354   0.713   3.515  0.4929  1.8450 -2.6407
  899MOL0     H21330   6.459   0.579   3.337 -2.6113  4.8201 -3.2370
  899MOL0     H21331   6.221   0.293   3.108 -2.6005  2.1330  0.3157
  899MOL0     H21332   6.227   0.447   3.027  2.4119  3.1169  1.1683
  899MOL0     H21333   6.334   0.269   2.889 -0.3290  2.8244 -1.0177
  899MOL0     H21334   6.433   0.402   2.920 -0.2456 -0.4469  0.1069
  899MOL0     H21335   6.564   0.293   3.078 -2.8812  1.7520  1.4212
  899MOL0     H21336   6.542   0.214   2.920 -1.1493 -1.0709 -0.4065
  899MOL0     H21337   6.373   0.097   3.154  0.3812 -4.8823 -0.0588
  899MOL0     H21338   6.402   0.043   3.002 -1.2143 -0.0607  0.1757
  899MOL0     H21339   6.536  -0.068   3.168  0.9692 -0.3880  0.7881
  899MOL0     H21340   6.606   0.079   3.234 -1.5202  3.6626 -0.7398
  899MOL0     H21341   6.648  -0.049   2.967 -2.6983 -0.1934  1.7264
  899MOL0     H21342   6.734   0.106   3.006  1.5234 -2.3459 -3.2382
  899MOL0     H21343   6.795  -0.059   3.221 -3.9768 -0.0572 -0.2345
  899MOL0     H21344   6.910  -0.016   3.085 -0.7725  2.1597  1.9589
  899MOL0     H21345   6.863  -0.224   2.973 -0.8476 -1.1701 -0.6771
  899MOL0     H21346   6.731  -0.255   3.086 -1.9667  3.3056  1.0915
  899MOL0     H21347   6.088   0.402   3.242 -0.6581 -0.7091  0.1077
  899MOL0     H21348   5.984   0.507   3.442 -0.5329 -1.6465 -1.3970
  899MOL0     H21349   6.136   0.860   3.813  0.3031  0.8987  2.0784
  899MOL0     H21350   6.036   0.995   3.982 -0.5876  1.4610 -0.0027
  899MOL0     H21351   6.384   1.539   5.262  3.2522 -0.3205 -0.9868
  899MOL0     H21352   6.515   1.660   5.078  0.0873  0.8691  2.6265
  899MOL0     H21353   6.445   1.800   4.641 -1.7176  0.4869 -0.6347
  899MOL0     H21354   6.575   1.904   4.444  1.6247 -0.7370 -0.1751
  899MOL0     H21355   6.565   2.333   4.456 -0.8038 -2.4663  1.7617
  899MOL0     H21356   6.740   2.311   4.493  1.6961 -1.7286 -0.3772
  899MOL0     H21357   6.803   2.299   4.258 -1.2504 -2.0462  2.0761
  899MOL0     H21358   6.725   2.449   4.282  2.3865 -0.3291 -2.2537
  899MOL0     H21359   6.494   2.337   4.232  0.7779  1.8065  2.7709
  899MOL0     H21360   6.595   2.206   4.160  1.6152  1.6249 -1.0655
  899MOL0     H21361   6.542   2.333   3.988  0.3052 -0.1478  0.4961
  899MOL0     H21362   6.699   2.410   4.023 -0.5380 -0.7124 -0.6700
  899MOL0     H21363   6.371   2.699   4.119 -0.3226  0.3114 -1.7112
  899MOL0     H21364   6.627   2.263   4.671 -1.8932  0.6171  0.7258
  899MOL0     H21365   6.528   2.155   4.876 -0.5970 -0.3171 -0.5129
  900MOL0     O21366   3.604  11.185  11.179  0.1403  0.1526 -0.7696
  900MOL0     C21367   3.702  11.184  11.107  0.3947  0.2355 -0.2336
  900MOL0     O21368   3.733  11.086  11.016 -0.1589 -0.2817 -0.2759
  900MOL0     C21369   3.645  10.987  10.986  0.3075 -1.0617 -0.1552
  900MOL0     C21370   3.690  10.853  10.999  0.0231  1.1033 -0.6627
  900MOL0     C21371   3.602  10.748  10.984  0.1131  1.2124  0.3466
  900MOL0     C21372   3.471  10.771  10.948  0.6655  0.0743 -0.4795
  900MOL0     O21373   3.380  10.671  10.937 -0.2089 -0.1562  0.3524
  900MOL0     C21374   3.433  10.537  10.915  0.5555  0.4038 -0.8140
  900MOL0     C21375   3.304  10.449  10.908 -0.2438 -0.1692 -0.0982
  900MOL0     C21376   3.318  10.312  10.851 -0.6938  0.4252  1.0864
  900MOL0     C21377   3.199  10.233  10.890  0.7859 -0.8599 -1.0321
  900MOL0     C21378   3.055  10.264  10.841 -0.3386 -0.5344  0.5897
  900MOL0     C21379   3.055  10.244  10.684 -0.2037 -0.0985 -0.1517
  900MOL0     C21380   2.922  10.277  10.628 -0.2411  0.0935 -0.3946
  900MOL0     C21381   2.796  10.223  10.686  0.3622 -0.4063  0.7835
  900MOL0     N21382   2.668  10.235  10.610  0.1027  0.2248  0.0861
  900MOL0     C21383   2.605  10.349  10.566  0.3390  0.7441  0.7768
  900MOL0     C21384   2.508  10.303  10.479  0.9107  0.3564  0.5002
  900MOL0     C21385   2.418  10.374  10.379 -0.7553  0.4020 -0.1688
  900MOL0     C21386   2.277  10.376  10.427  0.5057 -0.8599 -0.6345
  900MOL0     C21387   2.180  10.429  10.312 -1.4473  0.8762  0.1196
  900MOL0     C21388   2.034  10.438  10.359  0.5091 -0.3171  0.4765
  900MOL0     O21389   2.014  10.560  10.439  0.4177 -1.0440 -0.1166
  900MOL0     C21390   1.894  10.624  10.453  0.6631 -0.2575 -0.6445
  900MOL0     C21391   1.865  10.672  10.580  0.1583 -0.0874  0.6891
  900MOL0     C21392   1.739  10.726  10.616 -0.1864 -0.3371  0.3941
  900MOL0     C21393   1.730  10.745  10.761 -0.2500  0.2666 -0.6523
  900MOL0     C21394   1.638  10.726  10.510 -0.3570 -1.5176 -0.0227
  900MOL0     C21395   1.500  10.782  10.526 -0.0609 -0.0668  0.1317
  900MOL0     O21396   1.446  10.762  10.651 -0.2726 -0.8459  0.4556
  900MOL0     C21397   1.328  10.818  10.674  0.4912  0.3973  0.1279
  900MOL0     C21398   1.293  10.953  10.646 -0.6581  0.0833 -0.2973
  900MOL0     C21399   1.155  10.989  10.644  0.1200  0.3637 -0.2602
  900MOL0     C21400   1.060  10.901  10.671 -0.5160  0.4263 -0.7709
  900MOL0     O21401   0.937  10.946  10.657  0.5899  0.3043 -0.9326
  900MOL0     C21402   0.820  10.875  10.709 -0.9471  0.4346 -0.5015
  900MOL0     C21403   0.694  10.941  10.646  0.1773  0.4648 -0.0737
  900MOL0     C21404   0.712  10.991  10.504 -0.4430  0.5786  0.4612
  900MOL0     C21405   0.725  10.884  10.403  0.5130 -0.5626  0.7388
  900MOL0     C21406   0.603  10.799  10.382  0.5616  0.1090 -0.5295
  900MOL0     C21407   0.637  10.710  10.255  0.3798 -0.4531 -0.9465
  900MOL0     C21408   0.630  10.779  10.113  0.4594  0.3701 -1.5037
  900MOL0     C21409   0.525  10.698  10.023 -0.5243  0.7726  0.0769
  900MOL0    Cl21410   0.360  10.699  10.093  0.0311 -0.2118  0.0711
  900MOL0     C21411   1.092  10.772  10.711  0.5543  0.2667 -0.1968
  900MOL0     C21412   1.224  10.728  10.707  0.0903  0.3736 -0.6173
  900MOL0     O21413   1.448  10.844  10.435  0.3223  0.8064  0.6529
  900MOL0     C21414   1.683  10.697  10.381  0.8035  0.0844  0.4844
  900MOL0     C21415   1.803  10.637  10.353 -0.3512  0.4090  0.1728
  900MOL0     N21416   2.512  10.165  10.480  0.6100 -0.2113 -0.2794
  900MOL0     N21417   2.603  10.124  10.561 -0.6588  0.1522 -0.1721
  900MOL0     C21418   3.422  10.899  10.940 -0.2254 -0.2509  0.1905
  900MOL0     C21419   3.510  11.011  10.947  0.6951 -0.0747 -0.0766
  900MOL0     C21420   3.804  11.282  11.142  0.0372 -0.0918 -0.4231
  900MOL0     C21421   3.910  11.303  11.055  0.0849  0.0806 -0.1215
  900MOL0     C21422   4.018  11.380  11.103  0.0999 -0.0580  0.7129
  900MOL0     C21423   4.012  11.464  11.216 -0.3695 -0.1569  0.5289
  900MOL0     O21424   4.117  11.545  11.253 -0.7526 -0.4498 -0.1384
  900MOL0     C21425   4.096  11.695  11.236  0.5831  0.2500 -0.2927
  900MOL0     C21426   3.995  11.731  11.126  0.4934 -0.3722  0.3202
  900MOL0     C21427   3.980  11.880  11.084 -0.6333  0.4181 -0.2683
  900MOL0     C21428   3.887  11.885  10.967  0.2482  0.5538  0.3543
  900MOL0     C21429   3.863  12.021  10.921 -1.3203 -1.3888  0.7382
  900MOL0     C21430   3.844  12.133  10.881 -1.3486  0.3598 -0.2349
  900MOL0     C21431   3.886  11.456  11.296  0.6199 -0.1058 -0.1609
  900MOL0     C21432   3.784  11.357  11.262  0.0476 -1.3348  1.0349
  900MOL0     H21433   3.792  10.821  11.019 -0.1628  0.0430 -1.3654
  900MOL0     H21434   3.643  10.649  11.001 -1.2403  0.3914 -0.8825
  900MOL0     H21435   3.494  10.530  10.825  0.5679  0.9462 -0.8517
  900MOL0     H21436   3.491  10.515  11.005 -1.2144  2.3221  0.9075
  900MOL0     H21437   3.263  10.440  11.009 -2.4045 -0.9606 -0.9881
  900MOL0     H21438   3.224  10.497  10.851 -3.6270 -1.5552  3.0517
  900MOL0     H21439   3.339  10.321  10.744 -1.3546 -0.9099  0.8260
  900MOL0     H21440   3.400  10.255  10.895 -0.2693 -0.9831 -1.3515
  900MOL0     H21441   3.227  10.129  10.870  1.5556 -0.9181  0.2546
  900MOL0     H21442   3.189  10.248  10.998 -2.0897  0.2941 -1.3749
  900MOL0     H21443   2.974  10.210  10.891  0.7836  0.6939  4.0329
  900MOL0     H21444   3.045  10.370  10.868  2.3653 -0.5832  2.0953
  900MOL0     H21445   3.128  10.311  10.639 -0.3488  0.0625 -0.1435
  900MOL0     H21446   3.082  10.140  10.663 -1.5220  0.1442 -3.6142
  900MOL0     H21447   2.914  10.385  10.612 -1.7260 -0.2149 -2.0741
  900MOL0     H21448   2.925  10.229  10.530 -2.2774 -1.3267  0.1740
  900MOL0     H21449   2.769  10.282  10.774 -1.0489 -0.9664  0.7591
  900MOL0     H21450   2.807  10.117  10.709  0.0245 -0.6276 -0.0353
  900MOL0     H21451   2.643  10.451  10.564 -0.2405  0.9497 -0.4715
  900MOL0     H21452   2.441  10.479  10.360 -1.9176  0.8183  0.6549
  900MOL0     H21453   2.416  10.315  10.287  0.8229  1.4600 -0.9187
  900MOL0     H21454   2.262  10.432  10.520  1.1572  2.1316 -2.2081
  900MOL0     H21455   2.243  10.273  10.443 -0.2079 -0.3010  1.8743
  900MOL0     H21456   2.187  10.353  10.234  2.5624 -2.9720  3.6952
  900MOL0     H21457   2.215  10.530  10.284 -1.8637  1.5899  2.0273
  900MOL0     H21458   2.003  10.361  10.431  2.0072  0.0402  1.5600
  900MOL0     H21459   1.967  10.447  10.273 -2.1537  1.5896  2.5872
  900MOL0     H21460   1.936  10.666  10.662 -0.2140  1.4940  1.1701
  900MOL0     H21461   1.643  10.807  10.784 -0.0083  0.8438 -1.2661
  900MOL0     H21462   1.724  10.654  10.822  1.7733  0.6181  0.1349
  900MOL0     H21463   1.811  10.810  10.794  0.5911 -1.1653  0.1902
  900MOL0     H21464   1.361  11.030  10.613 -0.0666 -1.3758 -2.6984
  900MOL0     H21465   1.127  11.090  10.617 -0.4103  1.5079  3.7776
  900MOL0     H21466   0.818  10.772  10.673  4.3665  0.0729 -0.4966
  900MOL0     H21467   0.822  10.863  10.818  0.9897 -0.4980 -0.5986
  900MOL0     H21468   0.613  10.870  10.662  0.6433  0.0411  0.4525
  900MOL0     H21469   0.679  11.024  10.716 -0.9785 -0.4858  0.8397
  900MOL0     H21470   0.806  11.048  10.509 -1.1075  1.7294  0.0722
  900MOL0     H21471   0.631  11.054  10.466 -0.6489 -0.2507 -0.5327
  900MOL0     H21472   0.758  10.935  10.312  0.7725 -2.5486 -0.3273
  900MOL0     H21473   0.807  10.813  10.416  0.7148 -0.6088 -0.5810
  900MOL0     H21474   0.515  10.860  10.362  2.5853  4.1599  1.6176
  900MOL0     H21475   0.588  10.735  10.469  1.8733  2.2787  1.3996
  900MOL0     H21476   0.738  10.672  10.273  0.7894  2.1761  3.8906
  900MOL0     H21477   0.580  10.617  10.252 -0.0832 -0.2078  0.0645
  900MOL0     H21478   0.733  10.781  10.077  0.4813  1.2079 -1.4317
  900MOL0     H21479   0.591  10.882  10.113 -2.3425 -0.5656  0.5264
  900MOL0     H21480   0.571  10.600  10.004  1.7630  1.8913 -0.4736
  900MOL0     H21481   0.512  10.744   9.924 -0.3917  1.1656  0.2429
  900MOL0     H21482   1.021  10.697  10.743  2.1619 -1.6020 -0.7805
  900MOL0     H21483   1.236  10.626  10.741  1.4083  0.6024 -0.3771
  900MOL0     H21484   1.613  10.714  10.300  3.0758 -1.0502 -1.8229
  900MOL0     H21485   1.836  10.613  10.252 -1.7041  0.6406 -0.3439
  900MOL0     H21486   3.317  10.914  10.917 -0.0202 -0.4477 -0.9462
  900MOL0     H21487   3.455  11.104  10.931  0.4169 -0.2222  0.0246
  900MOL0     H21488   3.928  11.240  10.969 -0.8580  0.3440 -0.5255
  900MOL0     H21489   4.111  11.384  11.047 -0.4376  4.0822 -0.1716
  900MOL0     H21490   4.060  11.749  11.324  1.9863  1.0797 -0.1936
  900MOL0     H21491   4.191  11.727  11.192 -1.0821  1.7378 -3.0968
  900MOL0     H21492   3.899  11.695  11.164 -1.6157  2.1748 -2.0555
  900MOL0     H21493   4.013  11.683  11.030 -2.0184 -1.2748  0.2351
  900MOL0     H21494   4.077  11.921  11.058 -0.9565  1.0042 -0.5649
  900MOL0     H21495   3.934  11.937  11.166 -1.1974  0.0328 -0.3079
  900MOL0     H21496   3.786  11.849  10.990  0.5032  0.9736  2.3117
  900MOL0     H21497   3.929  11.828  10.884  1.9577  1.2105  0.7354
  900MOL0     H21498   3.800  12.229  10.862 -0.2454  1.3801  1.9356
  900MOL0     H21499   3.869  11.521  11.382  0.5188 -3.3421  2.4636
  900MOL0     H21500   3.700  11.352  11.330  0.0397 -0.5166  1.0921
  901MOL0     O21501   1.837   6.888  11.233 -0.3510  0.5084  0.2299
  901MOL0     C21502   1.945   6.934  11.270 -0.0599 -1.2467 -0.7608
  901MOL0     O21503   1.960   7.051  11.326  0.9350 -0.9620  0.6349
  901MOL0     C21504   1.850   7.130  11.356  0.4606  0.4348 -0.5176
  901MOL0     C21505   1.872   7.258  11.319 -0.5981 -0.1315 -0.5634
  901MOL0     C21506   1.785   7.365  11.352 -0.0896  0.2559  1.1297
  901MOL0     C21507   1.687   7.344  11.448 -0.2993  0.2458 -0.4989
  901MOL0     O21508   1.600   7.433  11.506  0.4198  0.1325  0.1858
  901MOL0     C21509   1.593   7.569  11.459  0.0191  0.2000 -0.1055
  901MOL0     C21510   1.452   7.631  11.463 -0.5272  0.1085 -0.3909
  901MOL0     C21511   1.414   7.700  11.599 -0.0401  0.2501 -0.8605
  901MOL0     C21512   1.273   7.768  11.595 -0.1311 -0.0618 -0.8611
  901MOL0     C21513   1.238   7.826  11.730 -0.3713 -1.1492  0.5686
  901MOL0     C21514   1.097   7.826  11.771  1.1180 -0.2700 -0.5911
  901MOL0     C21515   1.019   7.947  11.725  0.0075  0.6956 -0.0386
  901MOL0     C21516   0.896   7.954  11.812 -0.6701  0.2249 -0.1617
  901MOL0     N21517   0.795   7.852  11.791  0.5360 -0.2113  0.2419
  901MOL0     C21518   0.789   7.714  11.827  0.8920  0.2618 -0.2489
  901MOL0     C21519   0.673   7.665  11.769 -0.3046 -0.5554 -0.2198
  901MOL0     C21520   0.624   7.524  11.772  0.3554 -0.7869  0.0524
  901MOL0     C21521   0.541   7.460  11.651 -0.5491 -0.7265  0.3168
  901MOL0     C21522   0.617   7.444  11.513 -0.4254 -0.2194  0.8574
  901MOL0     C21523   0.631   7.578  11.434  0.4584  0.5863 -0.6537
  901MOL0     O21524   0.700   7.548  11.316 -0.0429 -0.5955  0.5099
  901MOL0     C21525   0.627   7.483  11.220 -0.4948  0.2870 -0.0378
  901MOL0     C21526   0.651   7.344  11.197  0.3513 -0.4294  0.1560
  901MOL0     C21527   0.572   7.261  11.113  0.1648  0.1606  0.3297
  901MOL0     C21528   0.588   7.115  11.110  0.8784  0.5227  0.2701
  901MOL0     C21529   0.469   7.330  11.039  0.0433 -0.5808 -0.3780
  901MOL0     C21530   0.369   7.262  10.952 -0.2207 -0.7259  0.4260
  901MOL0     O21531   0.411   7.164  10.872  0.5077 -0.0877 -0.3526
  901MOL0     C21532   0.338   7.091  10.784  0.0004  0.2956 -1.9143
  901MOL0     C21533   0.395   6.963  10.746  0.4539 -0.6118  0.2261
  901MOL0     C21534   0.340   6.868  10.653  0.5418 -0.1463 -0.0761
  901MOL0     C21535   0.217   6.902  10.595  0.1507 -0.8016 -0.1369
  901MOL0     O21536   0.161   6.831  10.496  0.1877  0.2631  0.6740
  901MOL0     C21537   0.178   6.688  10.504  0.0563 -0.4631  1.2006
  901MOL0     C21538   0.185   6.640  10.353  0.2786 -0.0924 -0.4165
  901MOL0     C21539   0.332   6.666  10.312 -0.2354 -0.9193 -0.4947
  901MOL0     C21540   0.343   6.642  10.162  0.3335 -0.0549 -0.4528
  901MOL0     C21541   0.494   6.672  10.123 -0.1491 -0.2417 -0.3568
  901MOL0     C21542   0.512   6.658   9.975  0.0539  0.4841 -0.5033
  901MOL0     C21543   0.649   6.713   9.944 -0.7824 -0.5463 -0.1984
  901MOL0     C21544   0.683   6.719   9.793  0.1530 -0.0048  0.7838
  901MOL0    Cl21545   0.562   6.819   9.697 -0.4690 -0.0405 -0.3466
  901MOL0     C21546   0.165   7.025  10.628  0.6425  0.5383 -1.0537
  901MOL0     C21547   0.221   7.115  10.723 -0.0882 -0.0956  0.3590
  901MOL0     O21548   0.252   7.274  10.989 -0.1025 -0.0135 -0.3140
  901MOL0     C21549   0.459   7.471  11.049  0.4982 -0.4692  0.0109
  901MOL0     C21550   0.527   7.544  11.148 -0.7334  0.0729  0.3261
  901MOL0     N21551   0.607   7.773  11.697  0.2659 -0.2990 -0.0606
  901MOL0     N21552   0.687   7.872  11.714 -0.0325 -0.3250 -1.0734
  901MOL0     C21553   1.656   7.210  11.486  0.3482  0.1169  0.4353
  901MOL0     C21554   1.742   7.104  11.446  0.2707 -0.2591  0.3661
  901MOL0     C21555   2.075   6.861  11.255  0.6524 -0.0864 -0.5099
  901MOL0     C21556   2.079   6.730  11.217  0.0439  0.0443  0.0194
  901MOL0     C21557   2.200   6.670  11.204 -0.9042  0.2417  1.1924
  901MOL0     C21558   2.323   6.737  11.229  0.4239  0.6583  0.4694
  901MOL0     O21559   2.449   6.695  11.203  0.2230  0.0648  0.1253
  901MOL0     C21560   2.460   6.554  11.180  0.6857 -0.2652 -0.7530
  901MOL0     C21561   2.604   6.510  11.161  0.7853  0.8508 -0.2312
  901MOL0     C21562   2.691   6.532  11.289 -0.0015 -0.3505 -0.8550
  901MOL0     C21563   2.832   6.458  11.289 -0.6028 -0.7091  0.7432
  901MOL0     C21564   2.901   6.505  11.167  0.6585 -0.7272  0.3105
  901MOL0     C21565   2.931   6.565  11.069 -0.0926  0.2350  1.9192
  901MOL0     C21566   2.316   6.867  11.278  0.5815 -0.0670 -0.3049
  901MOL0     C21567   2.193   6.927  11.286  0.7056 -0.0683  0.3090
  901MOL0     H21568   1.947   7.286  11.246  1.6247 -0.7033  1.4124
  901MOL0     H21569   1.795   7.464  11.310  1.4288 -0.2927  0.1307
  901MOL0     H21570   1.672   7.633  11.500  0.2936 -0.9542  1.2479
  901MOL0     H21571   1.599   7.557  11.351  0.4172  1.1466 -0.2030
  901MOL0     H21572   1.438   7.707  11.385 -2.5782  0.6277  0.4207
  901MOL0     H21573   1.382   7.547  11.449 -1.2473  0.8077 -1.0954
  901MOL0     H21574   1.434   7.628  11.678  0.0769 -1.6531 -2.5452
  901MOL0     H21575   1.483   7.785  11.603 -0.1890  0.3678 -0.7891
  901MOL0     H21576   1.275   7.841  11.514  3.5062 -1.2001 -2.0127
  901MOL0     H21577   1.194   7.698  11.568 -1.8290  1.1365  0.8177
  901MOL0     H21578   1.294   7.773  11.808 -2.6116 -2.3971  1.4361
  901MOL0     H21579   1.280   7.927  11.722 -0.3570 -1.2398 -0.5362
  901MOL0     H21580   1.043   7.739  11.734  1.0004 -0.0901 -0.8403
  901MOL0     H21581   1.089   7.826  11.880 -2.5114  1.9596 -0.6874
  901MOL0     H21582   1.074   8.041  11.731  0.2134  0.5550  0.3560
  901MOL0     H21583   0.990   7.938  11.620 -0.1833  2.0339 -0.1127
  901MOL0     H21584   0.860   8.049  11.773  0.4665  0.2289 -1.2782
  901MOL0     H21585   0.926   7.965  11.917 -0.7518 -1.6967  0.1035
  901MOL0     H21586   0.863   7.662  11.888  1.7350 -2.4122 -3.3097
  901MOL0     H21587   0.714   7.462  11.784  1.9432  1.0254 -1.6280
  901MOL0     H21588   0.562   7.507  11.860 -0.0206 -0.8378 -0.2200
  901MOL0     H21589   0.445   7.506  11.626  0.6911  1.0883 -1.3553
  901MOL0     H21590   0.534   7.355  11.681  4.1835 -1.4066 -0.1674
  901MOL0     H21591   0.561   7.379  11.445 -1.1353  0.6956  0.5314
  901MOL0     H21592   0.720   7.411  11.528 -0.1470  0.2294  0.0209
  901MOL0     H21593   0.698   7.643  11.490  1.4815 -0.8490 -0.1453
  901MOL0     H21594   0.533   7.627  11.428  0.2862  0.1946 -1.1080
  901MOL0     H21595   0.725   7.292  11.258 -1.5541 -2.5137  0.8323
  901MOL0     H21596   0.641   7.092  11.016  2.9009 -3.4146  2.1166
  901MOL0     H21597   0.647   7.070  11.190  0.3048 -1.0345 -0.1216
  901MOL0     H21598   0.495   7.057  11.098  0.3369  1.8634 -3.8547
  901MOL0     H21599   0.483   6.937  10.804  2.5813 -0.0444 -2.4999
  901MOL0     H21600   0.400   6.783  10.623 -1.5628 -0.6566 -3.2870
  901MOL0     H21601   0.265   6.650  10.557  1.3502 -0.1943 -0.6345
  901MOL0     H21602   0.089   6.647  10.552 -0.3961 -2.0944 -0.8868
  901MOL0     H21603   0.165   6.532  10.355  1.0784 -0.2445  0.0272
  901MOL0     H21604   0.114   6.701  10.298  0.0362  3.4327  3.3058
  901MOL0     H21605   0.396   6.597  10.367  0.9585 -0.2236 -0.9782
  901MOL0     H21606   0.359   6.770  10.336 -1.9464 -0.5767  0.1201
  901MOL0     H21607   0.328   6.535  10.145  1.8905 -0.4770  0.6371
  901MOL0     H21608   0.265   6.692  10.104  0.0602 -0.7307 -0.6835
  901MOL0     H21609   0.568   6.615  10.179  0.5573  1.3941  0.4511
  901MOL0     H21610   0.509   6.776  10.153 -1.5498  0.5518 -2.1694
  901MOL0     H21611   0.513   6.552   9.951 -1.8216  0.2624  0.2452
  901MOL0     H21612   0.439   6.709   9.911 -0.2337  1.1369  0.3342
  901MOL0     H21613   0.715   6.647  10.002 -0.7919  0.6977  1.3052
  901MOL0     H21614   0.657   6.809   9.996 -1.1296 -0.7666  0.2746
  901MOL0     H21615   0.690   6.616   9.756  0.8004 -0.3489  1.8110
  901MOL0     H21616   0.788   6.748   9.781 -0.1450  0.8201  0.0303
  901MOL0     H21617   0.065   7.041  10.590 -0.6214 -0.9598  1.3607
  901MOL0     H21618   0.172   7.209  10.746  0.0786  0.3256 -0.9191
  901MOL0     H21619   0.387   7.523  10.987 -1.7419 -0.8729  2.1368
  901MOL0     H21620   0.498   7.648  11.145 -0.8982  0.0283 -1.8555
  901MOL0     H21621   1.576   7.199  11.558  1.2911 -0.3184  1.4537
  901MOL0     H21622   1.732   7.003  11.486  2.2310 -0.5164  0.2741
  901MOL0     H21623   1.983   6.680  11.206 -0.9090  1.5023  1.3832
  901MOL0     H21624   2.208   6.568  11.166  1.5386 -0.7569  4.0013
  901MOL0     H21625   2.419   6.494  11.261  0.0584 -0.7253 -1.4007
  901MOL0     H21626   2.398   6.532  11.092  0.8293 -0.1511 -0.8849
  901MOL0     H21627   2.646   6.562  11.075  2.0125  6.0784  3.1075
  901MOL0     H21628   2.607   6.401  11.147 -2.6569  0.4501  1.1517
  901MOL0     H21629   2.647   6.500  11.384  0.5800  1.3448  0.0299
  901MOL0     H21630   2.695   6.642  11.293 -3.2010 -0.1666  2.4328
  901MOL0     H21631   2.807   6.354  11.263  0.9107 -1.0708  0.6307
  901MOL0     H21632   2.892   6.476  11.378  3.4984 -3.8219 -1.0634
  901MOL0     H21633   2.958   6.625  10.985 -1.4599  1.9092  2.5989
  901MOL0     H21634   2.402   6.928  11.304  1.1949 -1.0198 -0.0492
  901MOL0     H21635   2.186   7.031  11.319  0.9642 -0.7658  2.7245
  902MOL0     O21636   9.993  10.869   0.009  0.5548 -0.1075 -0.2995
  902MOL0     C21637  10.073  10.919  -0.070 -0.9378  0.7224 -0.1155
  902MOL0     O21638  10.046  10.996  -0.175  0.2959  0.1875  0.2415
  902MOL0     C21639   9.914  11.023  -0.208 -0.5882 -0.1654 -0.0495
  902MOL0     C21640   9.808  10.940  -0.208  0.9869  0.5036 -0.1163
  902MOL0     C21641   9.680  10.981  -0.258  0.1752  0.0097  0.7761
  902MOL0     C21642   9.654  11.115  -0.298 -0.5043  0.4408  0.1278
  902MOL0     O21643   9.525  11.142  -0.339  0.1977  0.3278  0.1777
  902MOL0     C21644   9.500  11.265  -0.406  0.5118  0.2483 -0.5137
  902MOL0     C21645   9.554  11.265  -0.550 -0.9941 -1.0035 -0.3515
  902MOL0     C21646   9.525  11.393  -0.629 -0.0970 -0.0972 -0.2193
  902MOL0     C21647   9.559  11.379  -0.783 -0.1335  0.4678  0.6304
  902MOL0     C21648   9.703  11.368  -0.799  0.0919  0.1702 -0.4901
  902MOL0     C21649   9.746  11.400  -0.943 -0.1704  0.2640 -0.4838
  902MOL0     C21650   9.696  11.304  -1.052 -0.7985  0.2704  0.8011
  902MOL0     C21651   9.641  11.369  -1.184 -1.2638  0.3307  0.1074
  902MOL0     N21652   9.507  11.419  -1.187 -0.1818  0.4129  0.2593
  902MOL0     C21653   9.398  11.375  -1.108 -0.2870  0.0138 -0.4261
  902MOL0     C21654   9.292  11.437  -1.168 -0.6499 -0.4769  0.2384
  902MOL0     C21655   9.146  11.425  -1.127  0.1464  0.4259  0.0828
  902MOL0     C21656   9.088  11.304  -1.194 -0.6607  0.0930  0.3864
  902MOL0     C21657   9.027  11.225  -1.073  0.9403  0.6820 -0.4008
  902MOL0     C21658   8.953  11.106  -1.130  0.6893 -0.0064  0.3721
  902MOL0     O21659   8.872  11.057  -1.022 -0.0205 -0.0468  0.8004
  902MOL0     C21660   8.774  10.969  -1.065  0.2973  0.1519 -0.7249
  902MOL0     C21661   8.683  10.927  -0.970  0.3945 -0.5769 -0.6784
  902MOL0     C21662   8.590  10.824  -0.987  0.2108 -0.0635  0.4119
  902MOL0     C21663   8.496  10.790  -0.871  0.8603  0.1390 -0.5583
  902MOL0     C21664   8.582  10.762  -1.112 -0.6215 -0.0433  0.5038
  902MOL0     C21665   8.492  10.651  -1.153 -0.7182 -0.4328  0.9397
  902MOL0     O21666   8.513  10.603  -1.281 -0.1546 -0.0366  0.3695
  902MOL0     C21667   8.457  10.483  -1.321  0.3451 -0.8258  1.5925
  902MOL0     C21668   8.318  10.473  -1.347 -0.3133  0.1674 -0.0076
  902MOL0     C21669   8.258  10.356  -1.381  0.8615 -0.5977  0.3734
  902MOL0     C21670   8.333  10.235  -1.373 -0.3318  0.1097  0.4966
  902MOL0     O21671   8.283  10.116  -1.403  0.8767  0.2341 -0.2720
  902MOL0     C21672   8.176  10.092  -1.497  0.1408  0.5487 -0.3024
  902MOL0     C21673   8.047  10.030  -1.427 -0.0599 -0.1446 -0.5573
  902MOL0     C21674   7.988  10.107  -1.317  0.1595 -0.4807  0.2701
  902MOL0     C21675   7.853  10.058  -1.271  0.1125 -0.3435  0.0321
  902MOL0     C21676   7.791  10.148  -1.161  0.5977  0.3186  1.1690
  902MOL0     C21677   7.869  10.131  -1.030  0.2411 -0.6326 -0.2895
  902MOL0     C21678   7.820  10.223  -0.916 -0.7112 -0.2306 -0.1277
  902MOL0     C21679   7.847  10.373  -0.933 -0.4143 -0.4559 -0.4794
  902MOL0    Cl21680   8.007  10.413  -1.004 -0.1824 -0.3621 -0.0328
  902MOL0     C21681   8.468  10.246  -1.360 -0.0544 -0.4933  0.8355
  902MOL0     C21682   8.534  10.371  -1.343  0.1611  0.6062 -0.4802
  902MOL0     O21683   8.428  10.593  -1.064  0.1797  0.5801 -1.0882
  902MOL0     C21684   8.671  10.810  -1.215  0.2245  0.5426 -0.2291
  902MOL0     C21685   8.770  10.908  -1.187 -0.9484  0.1633  0.5873
  902MOL0     N21686   9.331  11.489  -1.289  0.8239  0.2235 -0.6813
  902MOL0     N21687   9.453  11.487  -1.292 -0.0071 -0.4733  0.0310
  902MOL0     C21688   9.764  11.208  -0.293  0.1998  0.3540 -0.2406
  902MOL0     C21689   9.891  11.159  -0.246 -0.1391  1.1068  0.3526
  902MOL0     C21690  10.217  10.884  -0.051 -0.0147  0.5778 -0.2027
  902MOL0     C21691  10.304  10.922  -0.147 -1.0895  0.4931  0.3134
  902MOL0     C21692  10.442  10.884  -0.146 -0.5214  0.2324 -0.2185
  902MOL0     C21693  10.486  10.810  -0.038  0.5550  1.0575  0.5232
  902MOL0     O21694  10.607  10.766  -0.014  0.6584 -0.6199  0.5417
  902MOL0     C21695  10.713  10.768  -0.117  0.2214 -0.3854  0.3460
  902MOL0     C21696  10.847  10.720  -0.063 -0.0118 -0.1262  0.2743
  902MOL0     C21697  10.960  10.759  -0.153 -0.0651 -0.2640 -0.0500
  902MOL0     C21698  10.952  10.703  -0.291 -0.2434 -0.4109  0.3011
  902MOL0     C21699  11.068  10.758  -0.361  0.5359  0.6881  0.6552
  902MOL0     C21700  11.161  10.801  -0.422  0.5627 -1.5051 -0.4636
  902MOL0     C21701  10.403  10.780   0.058  0.0824  0.0681  0.6332
  902MOL0     C21702  10.271  10.808   0.045  0.1951  0.6924  0.0342
  902MOL0     H21703   9.812  10.838  -0.170 -1.1462  0.3183 -0.2405
  902MOL0     H21704   9.601  10.907  -0.249 -2.6451  2.6343 -0.4076
  902MOL0     H21705   9.391  11.265  -0.406  0.4895 -1.5348 -1.2421
  902MOL0     H21706   9.536  11.354  -0.354 -1.7656  1.6703 -1.1956
  902MOL0     H21707   9.660  11.235  -0.555 -0.8952 -0.6102 -0.7265
  902MOL0     H21708   9.491  11.189  -0.599 -0.0022  0.0300 -3.4987
  902MOL0     H21709   9.419  11.410  -0.610 -0.0357  1.0500 -0.7965
  902MOL0     H21710   9.583  11.480  -0.595 -1.3180  0.6332  0.0402
  902MOL0     H21711   9.501  11.296  -0.826 -1.6216  0.5071  2.4247
  902MOL0     H21712   9.527  11.461  -0.847  0.5547 -1.2154 -2.0242
  902MOL0     H21713   9.761  11.423  -0.723  2.0080 -0.7678 -1.1964
  902MOL0     H21714   9.727  11.263  -0.778  2.6885  1.4643  4.8922
  902MOL0     H21715   9.717  11.501  -0.975  1.2450  0.9559  0.2917
  902MOL0     H21716   9.855  11.390  -0.945  0.0544  2.2931 -0.5693
  902MOL0     H21717   9.785  11.250  -1.085 -0.4125  2.8598 -3.0575
  902MOL0     H21718   9.623  11.231  -1.016  1.7159 -2.0263  1.5268
  902MOL0     H21719   9.634  11.289  -1.258 -1.2308 -0.7136  1.1995
  902MOL0     H21720   9.712  11.444  -1.220  0.7234 -2.4234 -2.1641
  902MOL0     H21721   9.394  11.318  -1.016 -0.4041  1.5555  0.5599
  902MOL0     H21722   9.136  11.427  -1.019  0.7491 -1.6381  0.2184
  902MOL0     H21723   9.088  11.511  -1.162  0.2151 -0.4525 -2.4541
  902MOL0     H21724   9.153  11.237  -1.252 -2.1862 -1.2150  0.1028
  902MOL0     H21725   9.007  11.322  -1.266  1.1639 -1.0801 -2.1470
  902MOL0     H21726   8.949  11.282  -1.022 -2.3690 -2.6522 -1.3321
  902MOL0     H21727   9.102  11.201  -0.997 -0.7179  0.5610  1.2734
  902MOL0     H21728   9.024  11.026  -1.151 -2.4554 -2.4783 -1.8215
  902MOL0     H21729   8.897  11.136  -1.219 -0.0643  0.5626  1.0296
  902MOL0     H21730   8.685  10.982  -0.876 -2.1445  0.5297 -1.1931
  902MOL0     H21731   8.505  10.869  -0.796 -2.9912  0.2078  0.0748
  902MOL0     H21732   8.394  10.791  -0.913  0.8331  4.1851 -0.7944
  902MOL0     H21733   8.520  10.689  -0.837 -0.4274 -0.4364 -1.2594
  902MOL0     H21734   8.258  10.564  -1.346 -1.8477 -0.6037 -3.5422
  902MOL0     H21735   8.153  10.363  -1.405  0.9468 -2.0531 -0.5753
  902MOL0     H21736   8.144  10.182  -1.549 -0.9019 -0.1662 -0.9419
  902MOL0     H21737   8.201  10.010  -1.565  0.5887 -0.0395  0.5459
  902MOL0     H21738   7.970  10.031  -1.504 -2.7729  0.9453  1.9894
  902MOL0     H21739   8.080   9.930  -1.398  1.5454  0.2020 -1.0644
  902MOL0     H21740   7.971  10.211  -1.346 -0.9630 -0.6134  0.4158
  902MOL0     H21741   8.057  10.104  -1.232 -1.6245 -0.3179  1.8097
  902MOL0     H21742   7.777  10.068  -1.348  0.2807  1.4023  0.0437
  902MOL0     H21743   7.873   9.955  -1.238  1.5516 -0.1684 -0.2341
  902MOL0     H21744   7.689  10.110  -1.153 -0.1662  1.7836 -0.8247
  902MOL0     H21745   7.786  10.253  -1.190 -1.2968 -0.4013 -1.4404
  902MOL0     H21746   7.877  10.027  -0.997  1.3626 -0.9117 -1.3969
  902MOL0     H21747   7.972  10.157  -1.054  0.7281 -1.7896  0.4418
  902MOL0     H21748   7.869  10.189  -0.825  1.3822  3.5336  0.3699
  902MOL0     H21749   7.713  10.218  -0.892 -1.4830  2.4844 -2.3874
  902MOL0     H21750   7.843  10.423  -0.836 -0.3986 -2.5681  0.6592
  902MOL0     H21751   7.765  10.413  -0.994  3.3847  3.5733 -3.6698
  902MOL0     H21752   8.522  10.152  -1.367 -0.2808 -0.6278  0.8582
  902MOL0     H21753   8.639  10.364  -1.318  0.1587  1.7994 -0.0980
  902MOL0     H21754   8.672  10.769  -1.315 -0.3959  1.3510 -0.5819
  902MOL0     H21755   8.835  10.939  -1.269 -1.6045 -2.1178 -0.8988
  902MOL0     H21756   9.756  11.313  -0.319  0.9110  0.2220 -1.0305
  902MOL0     H21757   9.975  11.227  -0.253  1.5333 -0.6619  2.0744
  902MOL0     H21758  10.282  10.976  -0.239  0.7972  1.7128  0.5274
  902MOL0     H21759  10.507  10.889  -0.233 -0.7537  1.0546 -0.3438
  902MOL0     H21760  10.699  10.697  -0.199  0.4855  1.0474 -0.9930
  902MOL0     H21761  10.731  10.867  -0.160  2.4173 -0.2389  1.4411
  902MOL0     H21762  10.850  10.611  -0.050 -0.4932 -0.1280  0.3815
  902MOL0     H21763  10.867  10.768   0.033  2.7920  0.9016 -0.7076
  902MOL0     H21764  11.050  10.719  -0.105  0.3664  0.3954 -0.3068
  902MOL0     H21765  10.957  10.868  -0.155 -1.7233 -0.2354  1.6373
  902MOL0     H21766  10.858  10.716  -0.345  0.3520  1.9829 -0.2762
  902MOL0     H21767  10.959  10.594  -0.279 -1.9505 -0.8711 -2.2394
  902MOL0     H21768  11.242  10.856  -0.467  0.0772 -0.0687  0.3716
  902MOL0     H21769  10.441  10.730   0.146  1.0026 -0.6162 -0.1272
  902MOL0     H21770  10.204  10.772   0.122  0.7232  2.5998  1.4668
  903MOL0     O21771   2.983  11.264   6.345 -0.0465  0.5297 -0.0265
  903MOL0     C21772   2.957  11.150   6.378 -0.4817 -0.6184 -0.0639
  903MOL0     O21773   2.835  11.094   6.395  0.5978  0.3911 -0.6674
  903MOL0     C21774   2.712  11.156   6.379  0.3548  0.3497  0.4434
  903MOL0     C21775   2.690  11.292   6.382 -0.1608 -0.3219  0.4493
  903MOL0     C21776   2.566  11.353   6.374  0.9387  0.4899  0.0736
  903MOL0     C21777   2.451  11.272   6.346 -0.4917 -0.3659 -0.2127
  903MOL0     O21778   2.337  11.323   6.313  0.3831  0.0536  0.6852
  903MOL0     C21779   2.337  11.391   6.186 -0.7286 -0.8643  0.5775
  903MOL0     C21780   2.197  11.406   6.129 -0.0904 -0.3340 -0.1346
  903MOL0     C21781   2.112  11.502   6.214  0.5043  1.4590  0.5356
  903MOL0     C21782   2.094  11.466   6.357  0.4045 -0.0725  0.0136
  903MOL0     C21783   1.971  11.534   6.415  0.1880 -0.0617 -0.1941
  903MOL0     C21784   2.008  11.657   6.504 -0.4173  0.6065 -0.1170
  903MOL0     C21785   1.880  11.733   6.531 -0.9294  0.1813  0.4444
  903MOL0     C21786   1.888  11.857   6.615 -0.6697  0.6115 -0.6120
  903MOL0     N21787   1.771  11.935   6.581 -0.1228  0.1997 -0.2048
  903MOL0     C21788   1.642  11.893   6.560  0.2645  0.4643  0.2327
  903MOL0     C21789   1.578  11.992   6.498  0.4610  0.1352 -0.0547
  903MOL0     C21790   1.431  12.013   6.464 -0.0223  1.2339  0.3433
  903MOL0     C21791   1.409  12.047   6.314  0.7178  0.3172  0.4176
  903MOL0     C21792   1.275  12.121   6.308 -0.2592 -0.4825 -0.0228
  903MOL0     C21793   1.216  12.127   6.163 -0.1923 -0.1465  0.9765
  903MOL0     O21794   1.150  12.009   6.119 -0.4925 -0.2787 -0.1660
  903MOL0     C21795   1.022  11.978   6.142  0.6686 -0.2278  0.1180
  903MOL0     C21796   0.939  12.065   6.215 -0.7655  0.5868 -0.4469
  903MOL0     C21797   0.807  12.035   6.235 -0.2766 -0.0069 -0.4523
  903MOL0     C21798   0.736  12.147   6.326 -0.8737  0.5470  0.0958
  903MOL0     C21799   0.743  11.912   6.182 -0.6182 -0.1665 -0.3143
  903MOL0     C21800   0.599  11.881   6.186 -0.0892 -0.4255 -0.3144
  903MOL0     O21801   0.559  11.779   6.109 -0.1341 -0.7847  0.2521
  903MOL0     C21802   0.439  11.714   6.129 -0.7918  0.6002 -0.2171
  903MOL0     C21803   0.354  11.687   6.023 -0.6464  0.6295  0.5369
  903MOL0     C21804   0.231  11.615   6.050  0.0865  0.4869  0.5374
  903MOL0     C21805   0.208  11.569   6.173  0.8437 -0.0949  0.4346
  903MOL0     O21806   0.094  11.496   6.195  0.2285 -0.5759  0.4668
  903MOL0     C21807  -0.021  11.568   6.176 -1.0665  1.0333  0.2740
  903MOL0     C21808  -0.132  11.493   6.241 -0.2266 -0.2218  0.1427
  903MOL0     C21809  -0.102  11.470   6.388  0.6316  0.3666 -0.6495
  903MOL0     C21810  -0.236  11.467   6.469 -0.3376  0.0633  0.4671
  903MOL0     C21811  -0.221  11.384   6.593 -0.3185 -0.1150 -0.5622
  903MOL0     C21812  -0.357  11.351   6.656 -0.6385  0.0385 -0.2354
  903MOL0     C21813  -0.345  11.285   6.794  0.1062  0.0872 -0.2814
  903MOL0     C21814  -0.482  11.250   6.837  0.9223  1.0444 -0.7906
  903MOL0    Cl21815  -0.561  11.383   6.914 -0.1263  0.1989  0.2081
  903MOL0     C21816   0.292  11.597   6.281  0.3940 -0.1326  1.0209
  903MOL0     C21817   0.405  11.670   6.257 -0.5888  0.4544  0.5560
  903MOL0     O21818   0.517  11.939   6.264 -0.5039 -0.8082  0.3359
  903MOL0     C21819   0.826  11.829   6.109  0.1145  0.6832 -0.5528
  903MOL0     C21820   0.960  11.869   6.084 -0.3323  0.1562  0.6966
  903MOL0     N21821   1.663  12.109   6.518  0.2070  0.8085  0.7720
  903MOL0     N21822   1.776  12.069   6.555  1.0841  1.0127  0.7128
  903MOL0     C21823   2.469  11.134   6.350 -0.7519  0.4656 -0.0413
  903MOL0     C21824   2.598  11.069   6.373  0.0171 -0.4651 -0.1881
  903MOL0     C21825   3.068  11.068   6.429 -0.5939  0.5478 -0.0338
  903MOL0     C21826   3.199  11.056   6.367  0.7087  1.2115 -0.3632
  903MOL0     C21827   3.286  10.973   6.422  0.1249  0.0457 -0.1926
  903MOL0     C21828   3.259  10.901   6.537 -0.1283 -0.0972  0.8592
  903MOL0     O21829   3.350  10.810   6.599  0.1740  0.2957 -0.7936
  903MOL0     C21830   3.473  10.786   6.530  0.6635 -0.4761  0.1239
  903MOL0     C21831   3.560  10.691   6.617  0.5049  0.2636 -0.2565
  903MOL0     C21832   3.706  10.683   6.554  0.1855  1.0266  0.2790
  903MOL0     C21833   3.804  10.593   6.633 -0.9449 -0.2695  0.4737
  903MOL0     C21834   3.936  10.594   6.568 -0.0811 -0.1856 -0.7534
  903MOL0     C21835   4.039  10.586   6.505 -0.0917 -0.8054  0.7968
  903MOL0     C21836   3.136  10.911   6.599  0.5010 -0.3142  0.3830
  903MOL0     C21837   3.038  10.996   6.548 -0.5953  1.0614  0.1188
  903MOL0     H21838   2.776  11.348   6.418 -1.9442  0.4244  3.9758
  903MOL0     H21839   2.549  11.459   6.387  1.1377  0.3752  1.3329
  903MOL0     H21840   2.367  11.496   6.190 -1.0504 -0.7679  0.4859
  903MOL0     H21841   2.400  11.349   6.107 -3.9086  0.0942 -2.7354
  903MOL0     H21842   2.201  11.443   6.027  1.7782  2.2746  0.7820
  903MOL0     H21843   2.142  11.312   6.123 -2.4314  0.5875  3.2521
  903MOL0     H21844   2.154  11.602   6.203  3.5113  0.0874 -2.8120
  903MOL0     H21845   2.011  11.505   6.173  0.3141 -0.4061  0.7759
  903MOL0     H21846   2.105  11.360   6.381  0.8598 -0.3857 -1.4636
  903MOL0     H21847   2.176  11.524   6.400  2.0974 -1.9049 -0.5465
  903MOL0     H21848   1.898  11.560   6.337 -1.3712  0.1339  1.2764
  903MOL0     H21849   1.917  11.457   6.470  2.9796 -2.6108 -0.7673
  903MOL0     H21850   2.051  11.628   6.601 -0.3919  0.3591 -0.2028
  903MOL0     H21851   2.078  11.719   6.448  1.4260 -3.1067 -2.2694
  903MOL0     H21852   1.844  11.766   6.433  1.3637  0.2899 -0.4188
  903MOL0     H21853   1.808  11.672   6.587 -0.2757 -1.0936 -0.0673
  903MOL0     H21854   1.983  11.910   6.608  1.4794 -2.1207  3.6599
  903MOL0     H21855   1.881  11.832   6.721 -0.0911  1.7401 -0.2987
  903MOL0     H21856   1.599  11.794   6.570  1.7530 -0.3854 -1.2589
  903MOL0     H21857   1.383  11.921   6.498  1.9770 -0.1064 -0.2959
  903MOL0     H21858   1.400  12.090   6.535 -0.3648 -1.8744  3.8961
  903MOL0     H21859   1.399  11.948   6.268 -2.3264 -0.3861  2.3196
  903MOL0     H21860   1.492  12.104   6.272  0.6999  0.0743  0.0531
  903MOL0     H21861   1.294  12.226   6.333 -0.1611 -0.6175  0.4866
  903MOL0     H21862   1.211  12.070   6.381 -0.0894  0.7567  1.0337
  903MOL0     H21863   1.298  12.142   6.092 -0.6154 -0.4074  0.4322
  903MOL0     H21864   1.149  12.214   6.162 -1.8612 -1.3872  0.3504
  903MOL0     H21865   0.981  12.150   6.267 -1.8220 -0.5334  2.4293
  903MOL0     H21866   0.716  12.109   6.426  0.0194  0.4799  0.2548
  903MOL0     H21867   0.788  12.242   6.337  0.1759  0.2658 -1.9774
  903MOL0     H21868   0.642  12.185   6.284 -1.4012  0.9182  1.5666
  903MOL0     H21869   0.395  11.706   5.925  1.4036 -1.6628  0.8334
  903MOL0     H21870   0.168  11.595   5.964 -1.7937 -0.4691  2.0849
  903MOL0     H21871  -0.027  11.671   6.214 -0.0610  0.1724  2.9234
  903MOL0     H21872  -0.049  11.574   6.070  0.7777  0.1670 -0.2998
  903MOL0     H21873  -0.215  11.564   6.227  0.9825  0.8407 -2.0759
  903MOL0     H21874  -0.161  11.402   6.188 -0.5072  0.8634 -1.6433
  903MOL0     H21875  -0.041  11.555   6.420  2.1210 -0.3904 -1.3942
  903MOL0     H21876  -0.048  11.376   6.392 -0.4534 -0.2509  1.3969
  903MOL0     H21877  -0.276  11.568   6.483 -2.7216 -0.7332  0.0199
  903MOL0     H21878  -0.311  11.416   6.406  1.8485 -2.1442 -0.5542
  903MOL0     H21879  -0.147  11.425   6.662  0.3475 -0.6026 -0.9794
  903MOL0     H21880  -0.179  11.288   6.563 -1.7191 -1.0111  0.2138
  903MOL0     H21881  -0.421  11.440   6.666 -1.2553 -0.2033 -1.8375
  903MOL0     H21882  -0.412  11.291   6.584  0.5694  0.2280 -1.3526
  903MOL0     H21883  -0.286  11.355   6.855  1.0960 -1.2192  0.3086
  903MOL0     H21884  -0.285  11.194   6.799  0.8246  0.6095  1.1123
  903MOL0     H21885  -0.474  11.166   6.907  3.8464  0.7406 -1.3443
  903MOL0     H21886  -0.541  11.210   6.754  2.0334  1.4269 -1.7927
  903MOL0     H21887   0.266  11.566   6.382 -1.2317 -2.9282 -0.1650
  903MOL0     H21888   0.458  11.684   6.351  0.1300  1.4806  0.0234
  903MOL0     H21889   0.799  11.730   6.075  2.2453 -0.4777  0.8979
  903MOL0     H21890   1.028  11.800   6.036 -0.2666  0.9664 -0.4199
  903MOL0     H21891   2.383  11.070   6.336 -0.0921 -1.1551  2.5427
  903MOL0     H21892   2.596  10.961   6.384 -2.8071 -0.3065  2.6595
  903MOL0     H21893   3.235  11.097   6.273  1.3896  0.6752 -0.3357
  903MOL0     H21894   3.384  10.972   6.376  1.5206 -0.1035  2.5426
  903MOL0     H21895   3.440  10.754   6.431 -1.6084 -1.2137  1.0640
  903MOL0     H21896   3.538  10.874   6.521 -0.0887  0.4533  2.6924
  903MOL0     H21897   3.504  10.597   6.614 -1.6579  1.3796  2.0097
  903MOL0     H21898   3.564  10.728   6.720 -1.9286  0.5943 -0.2280
  903MOL0     H21899   3.754  10.782   6.548  0.4050  0.8980 -0.1455
  903MOL0     H21900   3.684  10.637   6.457 -4.4246 -0.9793  1.9937
  903MOL0     H21901   3.766  10.491   6.632  1.7326 -1.3540 -0.8927
  903MOL0     H21902   3.818  10.635   6.734  1.0389  0.8504 -0.2217
  903MOL0     H21903   4.125  10.571   6.443  1.3296  2.1210  1.8857
  903MOL0     H21904   3.102  10.852   6.684  2.8816 -1.2710  0.7639
  903MOL0     H21905   2.937  11.004   6.588 -1.3656  1.5582 -1.8279
  904MOL0     O21906   6.346   8.992  10.901  0.1322  0.5171 -0.1918
  904MOL0     C21907   6.324   9.094  10.829 -0.0851  0.5236  0.0379
  904MOL0     O21908   6.420   9.147  10.744  0.0518 -0.4192 -0.0097
  904MOL0     C21909   6.547   9.122  10.761 -0.5155  0.5018 -0.2890
  904MOL0     C21910   6.593   9.024  10.674 -0.2521 -0.0711  0.2846
  904MOL0     C21911   6.729   8.987  10.697 -0.0909 -0.0550  0.9184
  904MOL0     C21912   6.811   9.060  10.783 -0.3679 -0.3273 -0.5366
  904MOL0     O21913   6.946   9.033  10.789 -0.1843 -0.7723  0.1683
  904MOL0     C21914   7.023   9.094  10.679  0.6517 -0.4013  0.2777
  904MOL0     C21915   7.017   8.998  10.545 -0.3252 -1.1795 -0.0715
  904MOL0     C21916   7.126   9.055  10.451  0.0520 -0.1417  0.4582
  904MOL0     C21917   7.098   9.199  10.392  0.3157  0.5602  0.1734
  904MOL0     C21918   7.208   9.246  10.300  0.0721 -0.2067  0.4695
  904MOL0     C21919   7.187   9.394  10.255  0.1441  0.5560 -1.1989
  904MOL0     C21920   7.057   9.428  10.191  0.4236 -0.0730  0.6707
  904MOL0     C21921   7.046   9.356  10.053 -0.7311 -0.1493  0.0631
  904MOL0     N21922   6.914   9.394  10.006 -0.0525 -0.3659  0.7306
  904MOL0     C21923   6.838   9.321   9.921 -0.6874  0.1975  0.2225
  904MOL0     C21924   6.741   9.393   9.873  0.0008  0.1415 -0.5080
  904MOL0     C21925   6.627   9.342   9.784  0.7069 -0.3826 -0.1182
  904MOL0     C21926   6.623   9.187   9.767  0.3754  0.4439  0.0574
  904MOL0     C21927   6.485   9.142   9.703 -0.3170  0.6617  0.9990
  904MOL0     C21928   6.444   8.995   9.747  0.4418  0.1603 -0.0730
  904MOL0     O21929   6.322   8.973   9.677 -0.4305 -0.4865  0.2908
  904MOL0     C21930   6.308   8.883   9.574 -0.4310 -0.0391 -0.6997
  904MOL0     C21931   6.186   8.826   9.559 -0.5344 -0.6078  0.0675
  904MOL0     C21932   6.168   8.726   9.468  1.0291  0.6315  1.2021
  904MOL0     C21933   6.027   8.672   9.468 -0.4753 -1.0877 -0.5105
  904MOL0     C21934   6.270   8.688   9.377  0.3735 -0.3597  0.2997
  904MOL0     C21935   6.253   8.601   9.255 -0.5703 -0.0552  0.6452
  904MOL0     O21936   6.361   8.585   9.170 -0.3866  0.0060 -0.0175
  904MOL0     C21937   6.344   8.498   9.069  0.7516  0.2605  0.4754
  904MOL0     C21938   6.345   8.354   9.089  0.2143 -0.3945  0.2666
  904MOL0     C21939   6.315   8.281   8.967  1.0689 -0.8625 -0.8237
  904MOL0     C21940   6.303   8.348   8.847  0.9702  0.0098 -0.1032
  904MOL0     O21941   6.269   8.264   8.744  0.0239 -0.0873  0.4269
  904MOL0     C21942   6.381   8.183   8.693  0.4267  0.6204 -0.4699
  904MOL0     C21943   6.323   8.098   8.585  0.3727  0.1071 -0.7545
  904MOL0     C21944   6.212   7.998   8.625 -0.1659 -0.4151 -0.5747
  904MOL0     C21945   6.224   7.928   8.759  0.0789 -0.3844  0.2198
  904MOL0     C21946   6.347   7.830   8.776  1.0301 -0.1054 -0.0629
  904MOL0     C21947   6.343   7.689   8.708 -0.1823  0.1413  0.0489
  904MOL0     C21948   6.431   7.688   8.584  0.3099 -0.1210 -0.0420
  904MOL0     C21949   6.421   7.560   8.511  0.4168  0.1873  0.4988
  904MOL0    Cl21950   6.509   7.579   8.358 -0.1148 -0.0687  0.0320
  904MOL0     C21951   6.302   8.485   8.828 -0.3902 -0.4786  0.0061
  904MOL0     C21952   6.311   8.563   8.946  0.8333 -0.1239 -0.0320
  904MOL0     O21953   6.151   8.539   9.248  0.2926 -0.2433  0.6638
  904MOL0     C21954   6.402   8.733   9.406 -0.0286 -0.8594  0.5177
  904MOL0     C21955   6.415   8.838   9.500 -0.2708  0.0758  0.5303
  904MOL0     N21956   6.762   9.519   9.916  0.3502 -0.6334 -0.4166
  904MOL0     N21957   6.868   9.523   9.989 -0.1517  0.2125  0.1854
  904MOL0     C21958   6.767   9.177  10.849 -0.0762  0.2743 -0.1778
  904MOL0     C21959   6.624   9.197  10.854  0.7224 -0.2414 -0.2586
  904MOL0     C21960   6.176   9.133  10.829 -0.4051 -0.9451  0.0387
  904MOL0     C21961   6.131   9.244  10.754  0.7330  0.2406  0.1914
  904MOL0     C21962   5.998   9.274  10.743 -0.7882  0.4487 -0.2817
  904MOL0     C21963   5.898   9.194  10.791 -0.4062 -0.0197  0.0936
  904MOL0     O21964   5.771   9.207  10.776 -0.4087 -0.2087  0.4306
  904MOL0     C21965   5.714   9.304  10.866 -0.3817  0.3314  0.5504
  904MOL0     C21966   5.568   9.302  10.835  0.5015  0.0240 -0.6830
  904MOL0     C21967   5.530   9.372  10.698  0.0386 -0.6372  0.2996
  904MOL0     C21968   5.501   9.528  10.713 -0.3907  0.3807 -0.0913
  904MOL0     C21969   5.496   9.595  10.584 -0.0776 -0.8952 -0.3509
  904MOL0     C21970   5.499   9.646  10.477 -0.3479 -0.1856  1.0842
  904MOL0     C21971   5.938   9.084  10.876 -1.0105 -0.4105 -0.1442
  904MOL0     C21972   6.073   9.060  10.894  0.2060  0.2311  0.2364
  904MOL0     H21973   6.526   8.967  10.610 -1.6393 -2.4309  3.5542
  904MOL0     H21974   6.768   8.905  10.638 -2.6019 -2.3455  2.2009
  904MOL0     H21975   6.992   9.198  10.661  1.1157 -0.6124 -1.9876
  904MOL0     H21976   7.129   9.098  10.707  0.7757 -2.2171  0.1553
  904MOL0     H21977   7.036   8.893  10.570 -0.1985 -0.6062  2.5014
  904MOL0     H21978   6.923   9.020  10.493  1.8037  1.5868 -3.2247
  904MOL0     H21979   7.216   9.064  10.512 -0.4091 -0.4053  1.1992
  904MOL0     H21980   7.148   8.986  10.369 -4.3773 -0.2981 -0.8817
  904MOL0     H21981   7.007   9.194  10.330 -0.4012 -2.8630  1.2818
  904MOL0     H21982   7.093   9.267  10.477  1.1258 -0.1042  0.7621
  904MOL0     H21983   7.299   9.225  10.357 -0.0074  0.1255  0.7229
  904MOL0     H21984   7.203   9.183  10.211 -0.0442 -0.1336  0.4233
  904MOL0     H21985   7.204   9.449  10.348  0.7321 -1.3844 -0.1059
  904MOL0     H21986   7.270   9.431  10.194  1.3562  0.5940  0.4232
  904MOL0     H21987   6.968   9.409  10.251 -2.1836  2.1147 -2.1686
  904MOL0     H21988   7.069   9.535  10.171  1.2113 -0.4516 -1.0756
  904MOL0     H21989   7.055   9.247  10.050  0.9437 -0.0381 -0.0294
  904MOL0     H21990   7.130   9.392   9.993 -0.8106  1.5389  0.9192
  904MOL0     H21991   6.859   9.217   9.897  2.2994  0.7603  0.0491
  904MOL0     H21992   6.534   9.382   9.826  0.3979 -1.4601  0.2604
  904MOL0     H21993   6.633   9.398   9.691  2.0192  2.2380  1.4194
  904MOL0     H21994   6.633   9.133   9.861 -3.4196 -1.7268 -0.5648
  904MOL0     H21995   6.702   9.156   9.698  2.7424  0.5860  2.5426
  904MOL0     H21996   6.493   9.147   9.594 -0.1566 -1.7841  0.8436
  904MOL0     H21997   6.409   9.213   9.737 -0.3517  0.0730  2.2273
  904MOL0     H21998   6.424   9.001   9.854  0.5353 -0.3396 -0.0265
  904MOL0     H21999   6.528   8.929   9.723 -0.1355 -2.0549  3.3083
  904MOL0     H22000   6.112   8.862   9.630 -1.9177 -1.5560 -0.8385
  904MOL0     H22001   5.956   8.711   9.395  0.8975 -1.8066 -2.3223
  904MOL0     H22002   6.035   8.562   9.465  0.7484 -0.9938 -2.4125
  904MOL0     H22003   5.982   8.711   9.560 -0.9913  0.9239 -1.5712
  904MOL0     H22004   6.339   8.302   9.184  1.7870  1.7462  1.6205
  904MOL0     H22005   6.309   8.173   8.978 -2.8250 -0.7939 -1.1571
  904MOL0     H22006   6.470   8.237   8.658  1.3327 -0.7465 -0.3698
  904MOL0     H22007   6.415   8.115   8.772 -1.2227  1.1244  0.7237
  904MOL0     H22008   6.282   8.163   8.508 -1.6611  1.4130  1.3077
  904MOL0     H22009   6.415   8.049   8.552  1.9603  2.2022  0.3228
  904MOL0     H22010   6.217   7.924   8.545 -0.6977 -0.9866 -0.0956
  904MOL0     H22011   6.115   8.047   8.614  1.0444  2.2677 -0.2064
  904MOL0     H22012   6.226   8.006   8.836  0.0281  1.8130 -1.8876
  904MOL0     H22013   6.134   7.868   8.775  1.4315 -2.5288  0.1856
  904MOL0     H22014   6.363   7.825   8.884  0.4956 -3.6182 -0.0238
  904MOL0     H22015   6.435   7.883   8.739  1.0169 -1.3798 -2.0550
  904MOL0     H22016   6.367   7.610   8.780 -2.3310  1.6221  2.6205
  904MOL0     H22017   6.244   7.657   8.673 -0.1072 -1.2229  1.0242
  904MOL0     H22018   6.533   7.726   8.594  0.5276 -0.6547 -0.2380
  904MOL0     H22019   6.392   7.765   8.516  2.5681 -0.2266 -1.5469
  904MOL0     H22020   6.316   7.542   8.486  0.5810 -2.7477  1.4984
  904MOL0     H22021   6.466   7.477   8.566  0.5630 -0.3589 -0.4193
  904MOL0     H22022   6.295   8.520   8.726 -0.3571  1.9872  0.7942
  904MOL0     H22023   6.299   8.671   8.934  0.5048 -0.2389 -0.8288
  904MOL0     H22024   6.492   8.694   9.360  1.5596  0.4809  2.3230
  904MOL0     H22025   6.512   8.883   9.523  0.3029 -0.4297 -0.8030
  904MOL0     H22026   6.833   9.245  10.904 -1.2599  1.9596 -0.7664
  904MOL0     H22027   6.586   9.274  10.920  2.2716 -0.7015  1.2305
  904MOL0     H22028   6.219   9.289  10.707  0.6674 -0.2981 -0.4678
  904MOL0     H22029   5.965   9.358  10.682  0.5307  0.3640 -1.1502
  904MOL0     H22030   5.720   9.288  10.974  0.9396  0.6350  0.5432
  904MOL0     H22031   5.753   9.406  10.859  1.3174 -0.0496  3.1011
  904MOL0     H22032   5.505   9.341  10.917  2.1248  0.6195  0.3355
  904MOL0     H22033   5.532   9.199  10.839 -2.6872  1.0466  0.1994
  904MOL0     H22034   5.443   9.320  10.656  0.5246 -1.3187  0.1129
  904MOL0     H22035   5.617   9.359  10.633 -1.0510 -1.3135 -1.0718
  904MOL0     H22036   5.579   9.578  10.771 -0.0805 -1.2624  0.9602
  904MOL0     H22037   5.411   9.546  10.773  0.4971  1.4222  0.9567
  904MOL0     H22038   5.501   9.693  10.381  1.0067 -2.7699 -0.2745
  904MOL0     H22039   5.862   9.039  10.938  1.2256 -2.6582  1.1947
  904MOL0     H22040   6.115   8.971  10.940  0.6496 -0.9512 -2.2237
  905MOL0     O22041   6.101   6.609   0.687 -0.1170 -0.1793  0.3405
  905MOL0     C22042   6.031   6.553   0.771 -0.1141 -0.7669 -0.1816
  905MOL0     O22043   5.914   6.496   0.741  0.1972 -0.5809 -0.4552
  905MOL0     C22044   5.868   6.520   0.616 -0.0588  0.2685 -0.5662
  905MOL0     C22045   5.769   6.614   0.587  0.9298  0.3381  0.4481
  905MOL0     C22046   5.717   6.609   0.458  1.0784  0.4236  0.4579
  905MOL0     C22047   5.752   6.519   0.353 -1.1282 -0.0390 -0.7801
  905MOL0     O22048   5.681   6.505   0.231 -0.1868 -0.7730 -0.7184
  905MOL0     C22049   5.751   6.446   0.117 -0.0129 -0.6425 -0.0952
  905MOL0     C22050   5.856   6.534   0.049 -0.1200  0.7963  0.2155
  905MOL0     C22051   5.790   6.653  -0.012  0.5888  0.3561  0.3028
  905MOL0     C22052   5.714   6.643  -0.144  0.5178  0.6168  0.3522
  905MOL0     C22053   5.645   6.775  -0.182 -0.5586 -0.2967 -0.2454
  905MOL0     C22054   5.554   6.765  -0.303 -0.6484  0.2646 -0.0324
  905MOL0     C22055   5.452   6.877  -0.320 -0.1541  0.1956  1.4109
  905MOL0     C22056   5.321   6.844  -0.250  1.0731 -1.0826  0.3634
  905MOL0     N22057   5.230   6.761  -0.327 -0.4028  0.7934  0.2682
  905MOL0     C22058   5.216   6.762  -0.466 -0.5625 -0.4509  0.3720
  905MOL0     C22059   5.127   6.665  -0.495  0.5151 -0.5303  0.3022
  905MOL0     C22060   5.068   6.634  -0.626 -0.6751 -0.4579 -0.5292
  905MOL0     C22061   5.110   6.493  -0.664 -0.0968  0.2447 -0.5438
  905MOL0     C22062   5.025   6.432  -0.775  0.0666 -0.3409  0.8637
  905MOL0     C22063   5.035   6.509  -0.906  0.3515 -0.2777  0.7662
  905MOL0     O22064   4.955   6.623  -0.906 -0.7756 -0.9090  0.0566
  905MOL0     C22065   4.871   6.649  -1.010 -0.4757  0.6935 -0.4983
  905MOL0     C22066   4.823   6.778  -1.027 -0.0807 -0.0886 -0.4825
  905MOL0     C22067   4.719   6.813  -1.112 -0.1531  0.8101 -0.6801
  905MOL0     C22068   4.701   6.964  -1.116 -0.3694 -0.7861  0.3688
  905MOL0     C22069   4.649   6.717  -1.183 -0.5630 -0.3604 -0.4889
  905MOL0     C22070   4.527   6.757  -1.274 -0.6765 -0.2012 -0.6110
  905MOL0     O22071   4.512   6.682  -1.385 -0.2197  0.2882  0.2773
  905MOL0     C22072   4.416   6.719  -1.475 -0.8026  0.1303 -0.3514
  905MOL0     C22073   4.289   6.666  -1.452  0.1866 -0.4687 -1.0512
  905MOL0     C22074   4.188   6.702  -1.538  0.1056  0.6154  0.3862
  905MOL0     C22075   4.203   6.790  -1.648  0.3595  0.9598 -0.4283
  905MOL0     O22076   4.089   6.815  -1.720  0.1260  0.1652 -0.0817
  905MOL0     C22077   4.083   6.879  -1.842 -0.3334  0.0462 -0.6701
  905MOL0     C22078   4.111   6.782  -1.957  0.7212  1.0452  0.3654
  905MOL0     C22079   4.088   6.848  -2.099 -0.1710  0.6575  0.2766
  905MOL0     C22080   4.218   6.911  -2.161  0.5316  0.1779 -0.2438
  905MOL0     C22081   4.173   7.022  -2.256  0.2880  0.5466 -0.2081
  905MOL0     C22082   4.133   7.149  -2.187  0.6531  0.6576 -0.8402
  905MOL0     C22083   4.096   7.246  -2.297  0.3534  0.6586  0.5815
  905MOL0     C22084   4.022   7.377  -2.247  0.0858 -0.8566  0.2844
  905MOL0    Cl22085   4.150   7.466  -2.157 -0.0321  0.1790 -0.5264
  905MOL0     C22086   4.327   6.836  -1.670 -0.7970 -0.1204 -0.7859
  905MOL0     C22087   4.434   6.803  -1.586  0.5183  0.1175 -0.3218
  905MOL0     O22088   4.444   6.843  -1.227 -0.3599  0.0978  0.0160
  905MOL0     C22089   4.697   6.594  -1.180  0.3129  0.9998  0.0587
  905MOL0     C22090   4.800   6.556  -1.088 -0.3933 -0.2570  0.2494
  905MOL0     N22091   5.087   6.610  -0.374 -0.7595 -0.1460 -0.0300
  905MOL0     N22092   5.146   6.671  -0.272 -0.4006 -0.2578  0.9271
  905MOL0     C22093   5.864   6.432   0.388 -0.5286  0.1751  0.1605
  905MOL0     C22094   5.920   6.437   0.518  0.3246  0.0561 -0.3401
  905MOL0     C22095   6.064   6.531   0.908 -0.3290  0.4651  0.5550
  905MOL0     C22096   5.979   6.462   0.996 -1.3322 -0.0100  0.7040
  905MOL0     C22097   6.000   6.467   1.136  0.0672 -0.5144  0.8333
  905MOL0     C22098   6.113   6.530   1.188  0.3523 -1.1337  0.6870
  905MOL0     O22099   6.143   6.534   1.322  0.9327 -0.9389  0.5345
  905MOL0     C22100   6.245   6.450   1.375 -0.2504 -0.1319 -0.0180
  905MOL0     C22101   6.211   6.418   1.527 -0.3208 -0.2661  0.3796
  905MOL0     C22102   6.214   6.536   1.625  0.8673  0.3800  0.6806
  905MOL0     C22103   6.246   6.491   1.761  1.1476  0.8055  0.7285
  905MOL0     C22104   6.179   6.557   1.864 -0.1501  0.7965 -0.1810
  905MOL0     C22105   6.128   6.623   1.946 -0.1643 -1.0797 -0.7479
  905MOL0     C22106   6.198   6.597   1.093  0.5870  0.4738 -1.1908
  905MOL0     C22107   6.171   6.604   0.966  0.5285 -0.5381  0.0492
  905MOL0     H22108   5.719   6.681   0.656 -2.3278 -2.8778  1.5595
  905MOL0     H22109   5.631   6.667   0.425 -0.6824 -2.0034  0.4377
  905MOL0     H22110   5.779   6.343   0.138 -1.1294 -1.2762 -1.4771
  905MOL0     H22111   5.675   6.430   0.040  0.2405 -0.1244 -0.4613
  905MOL0     H22112   5.947   6.546   0.108  1.3957 -2.1341 -1.3063
  905MOL0     H22113   5.911   6.474  -0.024  0.8776  0.0525  1.5379
  905MOL0     H22114   5.720   6.693   0.062  0.4273  1.7207 -0.5474
  905MOL0     H22115   5.866   6.729  -0.030  0.8553  0.3780  1.4869
  905MOL0     H22116   5.790   6.618  -0.218  0.3819  1.0214  0.0748
  905MOL0     H22117   5.634   6.569  -0.151 -0.5987  1.8241  0.0018
  905MOL0     H22118   5.585   6.806  -0.095  1.1315 -2.1120  1.6559
  905MOL0     H22119   5.716   6.855  -0.203 -0.4439 -0.0646  0.9844
  905MOL0     H22120   5.627   6.781  -0.383 -2.5050  1.9173 -1.4812
  905MOL0     H22121   5.515   6.663  -0.313  2.0854 -0.8106 -0.6491
  905MOL0     H22122   5.497   6.966  -0.274  0.3898 -0.3617  1.9894
  905MOL0     H22123   5.433   6.910  -0.422  0.5121  0.7609  1.4625
  905MOL0     H22124   5.268   6.939  -0.234 -0.9350 -1.9856 -0.5433
  905MOL0     H22125   5.349   6.795  -0.157  3.5544  0.9058  0.7658
  905MOL0     H22126   5.264   6.821  -0.544 -0.7480 -0.2112  0.4381
  905MOL0     H22127   4.959   6.650  -0.626 -0.7388 -0.8563 -0.3502
  905MOL0     H22128   5.095   6.713  -0.697 -0.1351 -0.8291 -0.7442
  905MOL0     H22129   5.093   6.430  -0.576 -0.2461  3.2717  1.7464
  905MOL0     H22130   5.217   6.485  -0.686  0.4715 -0.1296  2.1231
  905MOL0     H22131   4.921   6.425  -0.742 -0.5517  1.9970 -0.3392
  905MOL0     H22132   5.056   6.329  -0.794 -0.1260 -0.6032  1.8999
  905MOL0     H22133   5.023   6.433  -0.984 -0.4970  1.3016 -0.7048
  905MOL0     H22134   5.139   6.536  -0.921 -0.1932  0.5184 -2.1053
  905MOL0     H22135   4.864   6.859  -0.968  1.4003 -1.2133  0.0885
  905MOL0     H22136   4.601   6.995  -1.148 -0.1741 -2.7281 -2.4365
  905MOL0     H22137   4.715   6.995  -1.012  1.5112 -1.3348  0.2984
  905MOL0     H22138   4.774   7.003  -1.188 -0.1616 -1.6140  0.1259
  905MOL0     H22139   4.271   6.619  -1.356  1.8018  0.6380 -0.1586
  905MOL0     H22140   4.083   6.681  -1.518  0.1112  0.2094 -0.0181
  905MOL0     H22141   3.988   6.932  -1.847 -1.1373 -0.8167  2.9009
  905MOL0     H22142   4.151   6.965  -1.847 -1.3285  0.7982 -2.6301
  905MOL0     H22143   4.213   6.743  -1.954  0.5433  0.5980  1.0354
  905MOL0     H22144   4.048   6.694  -1.939 -0.6226  1.8889 -0.0264
  905MOL0     H22145   4.009   6.924  -2.093  0.0423  0.8128  1.3728
  905MOL0     H22146   4.047   6.783  -2.176  0.5302  2.6698 -1.9228
  905MOL0     H22147   4.281   6.958  -2.085  1.9823  0.4890 -1.5677
  905MOL0     H22148   4.276   6.838  -2.218  2.7642  1.1677  0.6217
  905MOL0     H22149   4.089   6.992  -2.319 -0.5941 -1.0971  1.6199
  905MOL0     H22150   4.260   7.048  -2.316 -0.1091  3.1895  0.2504
  905MOL0     H22151   4.042   7.132  -2.129 -2.3871 -0.1025 -5.3655
  905MOL0     H22152   4.206   7.187  -2.114  0.6704  1.0785 -1.0732
  905MOL0     H22153   4.034   7.202  -2.375  1.6338  0.6878 -0.5004
  905MOL0     H22154   4.189   7.278  -2.345  0.0118  0.2550 -0.3769
  905MOL0     H22155   3.947   7.341  -2.176 -0.2898 -0.4674  0.0835
  905MOL0     H22156   3.979   7.433  -2.330  2.0362  0.3517  0.0177
  905MOL0     H22157   4.348   6.889  -1.763  0.7857 -0.2943 -0.5571
  905MOL0     H22158   4.533   6.840  -1.612  0.6655 -2.0302 -3.3486
  905MOL0     H22159   4.646   6.531  -1.252 -1.1373  3.5958 -1.3151
  905MOL0     H22160   4.808   6.447  -1.081 -3.0667 -0.5331  0.0099
  905MOL0     H22161   5.905   6.361   0.316 -0.8920 -0.5088  0.6139
  905MOL0     H22162   6.004   6.377   0.550 -0.6559 -2.5502 -2.3905
  905MOL0     H22163   5.888   6.412   0.963 -0.2773 -1.9366  0.6023
  905MOL0     H22164   5.926   6.415   1.197 -1.1377  0.5797  0.3692
  905MOL0     H22165   6.266   6.357   1.321  0.0144 -0.3880  0.5185
  905MOL0     H22166   6.340   6.505   1.373  0.0822 -0.5015  2.5871
  905MOL0     H22167   6.287   6.345   1.558 -0.0965 -0.1270  0.1619
  905MOL0     H22168   6.113   6.370   1.529 -1.2365  1.4474 -0.7995
  905MOL0     H22169   6.122   6.593   1.614  2.1513  2.1105 -2.6733
  905MOL0     H22170   6.290   6.612   1.604  1.0885  0.4870  1.8098
  905MOL0     H22171   6.354   6.495   1.777  1.4793 -2.1469 -0.0372
  905MOL0     H22172   6.234   6.382   1.760  3.9875  0.3472 -2.2825
  905MOL0     H22173   6.089   6.683   2.027  1.2530  0.7334 -1.3376
  905MOL0     H22174   6.284   6.651   1.133 -1.4520  4.0420 -1.2850
  905MOL0     H22175   6.218   6.661   0.886 -1.0912 -0.5403 -0.9566
  906MOL0     O22176   2.437  11.402   0.005  0.0968 -0.6784  0.4183
  906MOL0     C22177   2.385  11.392  -0.108  0.6764  0.9464 -0.2942
  906MOL0     O22178   2.294  11.292  -0.143 -0.6356 -0.2616 -0.4053
  906MOL0     C22179   2.245  11.210  -0.047 -0.7237  0.2500  0.0700
  906MOL0     C22180   2.125  11.237   0.008  0.4334  0.2817  0.2438
  906MOL0     C22181   2.069  11.139   0.097 -0.4854 -0.0537  0.2633
  906MOL0     C22182   2.136  11.019   0.126  0.2417 -0.9106  0.8365
  906MOL0     O22183   2.089  10.932   0.221  0.5397 -0.3475 -0.2223
  906MOL0     C22184   1.949  10.939   0.259  0.5684  0.2608  0.6463
  906MOL0     C22185   1.876  10.869   0.146  0.9485  1.1281  0.0425
  906MOL0     C22186   1.731  10.906   0.151 -0.5227 -0.7572 -0.4278
  906MOL0     C22187   1.718  11.036   0.072 -0.3244 -0.1876  0.0622
  906MOL0     C22188   1.572  11.057   0.023 -0.3772  1.0365 -0.5945
  906MOL0     C22189   1.562  11.191  -0.056  0.2706 -0.0878 -0.8164
  906MOL0     C22190   1.416  11.236  -0.097 -0.2185  0.5424 -0.8623
  906MOL0     C22191   1.417  11.366  -0.168  0.4838 -0.2291 -0.1849
  906MOL0     N22192   1.282  11.371  -0.224  0.4055  0.7823  0.3015
  906MOL0     C22193   1.205  11.483  -0.219  0.0439 -0.6130  0.1702
  906MOL0     C22194   1.090  11.448  -0.279 -0.4160  0.3057  0.5435
  906MOL0     C22195   0.966  11.536  -0.273 -0.1148  0.4524  0.3864
  906MOL0     C22196   0.976  11.647  -0.374 -0.3811 -0.1292 -0.2474
  906MOL0     C22197   0.964  11.596  -0.512 -0.4997 -0.3069  0.0650
  906MOL0     C22198   0.955  11.711  -0.619 -0.0685  0.6163 -0.8481
  906MOL0     O22199   0.932  11.662  -0.749  0.2460  0.4836  0.0337
  906MOL0     C22200   0.829  11.728  -0.798  0.3286 -0.4080  0.3460
  906MOL0     C22201   0.860  11.827  -0.884  0.5006  0.0504  0.5017
  906MOL0     C22202   0.763  11.920  -0.929  0.3764 -0.0718  0.2356
  906MOL0     C22203   0.809  12.043  -1.006 -0.6626  0.1162 -0.8063
  906MOL0     C22204   0.628  11.901  -0.894  0.0291  0.0143  0.6600
  906MOL0     C22205   0.517  11.982  -0.937  0.2723 -0.4197  0.2008
  906MOL0     O22206   0.398  11.916  -0.949  0.6071  0.2750  0.4377
  906MOL0     C22207   0.279  11.991  -0.962  0.0724 -0.7462  0.0848
  906MOL0     C22208   0.268  12.103  -1.045 -0.6041  0.7697 -0.0830
  906MOL0     C22209   0.152  12.176  -1.039  0.9436  0.0744  0.5444
  906MOL0     C22210   0.043  12.139  -0.959  0.2506 -0.8314 -0.0901
  906MOL0     O22211  -0.078  12.206  -0.939  0.6014  0.2571 -0.0678
  906MOL0     C22212  -0.078  12.348  -0.924  0.5884  0.1205 -0.4356
  906MOL0     C22213  -0.157  12.390  -0.805 -0.0099 -0.9725 -0.5391
  906MOL0     C22214  -0.309  12.376  -0.807  0.1656 -0.1784  0.3205
  906MOL0     C22215  -0.346  12.243  -0.859  1.1023 -0.2572 -0.6771
  906MOL0     C22216  -0.498  12.215  -0.876 -0.8666  0.6235 -0.7398
  906MOL0     C22217  -0.556  12.172  -0.733 -0.7548  0.2601 -0.0471
  906MOL0     C22218  -0.701  12.131  -0.761 -0.1799  0.0091  0.1370
  906MOL0     C22219  -0.793  12.252  -0.793 -0.5754 -0.5809  0.5373
  906MOL0    Cl22220  -0.849  12.332  -0.654  0.2808  0.3979  0.1102
  906MOL0     C22221   0.048  12.024  -0.890  0.6195  0.3640  0.5526
  906MOL0     C22222   0.162  11.936  -0.901 -0.0859 -0.0768 -0.0366
  906MOL0     O22223   0.534  12.104  -0.931 -0.2213  0.1057  0.0559
  906MOL0     C22224   0.597  11.784  -0.812 -0.3883 -0.1378 -0.6673
  906MOL0     C22225   0.695  11.699  -0.757 -0.1148 -0.1975 -0.2628
  906MOL0     N22226   1.100  11.320  -0.328  0.6843 -0.0234  0.7539
  906MOL0     N22227   1.215  11.269  -0.286 -0.7830 -0.3142  0.4862
  906MOL0     C22228   2.258  10.994   0.057 -0.7841 -0.5946  0.0548
  906MOL0     C22229   2.311  11.091  -0.022  0.9478  0.1051 -0.8510
  906MOL0     C22230   2.438  11.484  -0.211  1.1252 -0.9375 -0.1234
  906MOL0     C22231   2.505  11.607  -0.181 -0.3184 -0.3129  0.0576
  906MOL0     C22232   2.569  11.690  -0.279  0.1506 -0.3099 -0.0630
  906MOL0     C22233   2.559  11.647  -0.417 -0.6004  0.5026 -0.3606
  906MOL0     O22234   2.620  11.709  -0.522 -0.0679  0.5285  0.3992
  906MOL0     C22235   2.698  11.829  -0.499 -0.2784  0.1423  0.5704
  906MOL0     C22236   2.842  11.805  -0.471  0.1772  0.2524  0.4026
  906MOL0     C22237   2.905  11.904  -0.383 -0.1250 -0.7993 -0.6614
  906MOL0     C22238   3.053  11.902  -0.353  0.8233  0.0847 -0.3848
  906MOL0     C22239   3.085  11.972  -0.232  0.2397 -0.8027 -0.4928
  906MOL0     C22240   3.090  12.041  -0.129  0.5491 -0.7318  0.8568
  906MOL0     C22241   2.492  11.527  -0.449 -0.8157  0.8372  0.4066
  906MOL0     C22242   2.431  11.444  -0.347 -0.6146 -0.5235  0.4050
  906MOL0     H22243   2.066  11.321  -0.025  0.6712  0.0828 -0.7050
  906MOL0     H22244   1.965  11.154   0.125 -1.1611 -0.4172 -1.8734
  906MOL0     H22245   1.929  10.881   0.349 -2.3447  0.3920  0.2026
  906MOL0     H22246   1.926  11.044   0.281 -2.0766  0.7306 -3.2255
  906MOL0     H22247   1.918  10.871   0.044  0.6317 -0.7000 -0.1529
  906MOL0     H22248   1.872  10.761   0.161  2.5204  0.8346 -1.3679
  906MOL0     H22249   1.670  10.828   0.103  2.1593 -1.7846 -2.4539
  906MOL0     H22250   1.700  10.925   0.254  2.0794  1.4143  0.0671
  906MOL0     H22251   1.758  11.120   0.129  2.9906  0.0745 -2.3294
  906MOL0     H22252   1.785  11.035  -0.015 -1.1525 -2.6482 -0.6377
  906MOL0     H22253   1.548  10.970  -0.039  1.3010 -0.0670  0.2273
  906MOL0     H22254   1.498  11.052   0.104  1.4082 -2.0407  1.0152
  906MOL0     H22255   1.612  11.275  -0.007 -0.0089 -0.0302 -0.6278
  906MOL0     H22256   1.618  11.178  -0.149  0.1884  2.0858 -1.2240
  906MOL0     H22257   1.398  11.155  -0.168  3.5653  0.0895 -1.5402
  906MOL0     H22258   1.361  11.239  -0.003  5.7412  1.4709  3.1633
  906MOL0     H22259   1.492  11.374  -0.247  0.1123  0.0739 -0.5092
  906MOL0     H22260   1.435  11.450  -0.100  0.6105  1.1118 -1.8303
  906MOL0     H22261   1.220  11.582  -0.178  0.6131  0.3726 -2.2002
  906MOL0     H22262   0.884  11.465  -0.289  1.2898 -1.1349 -0.1495
  906MOL0     H22263   0.961  11.573  -0.171  2.9271  0.9529  0.4623
  906MOL0     H22264   1.072  11.697  -0.362  0.6021 -0.8915 -3.8785
  906MOL0     H22265   0.889  11.712  -0.357  0.2252  0.6262  0.0387
  906MOL0     H22266   0.867  11.545  -0.518 -1.1333  0.4925  2.2198
  906MOL0     H22267   1.051  11.532  -0.532 -0.3808  0.5640 -2.5608
  906MOL0     H22268   1.047  11.770  -0.621 -0.6202  1.5580 -3.8110
  906MOL0     H22269   0.878  11.780  -0.582  1.7645  2.1137  0.3617
  906MOL0     H22270   0.965  11.837  -0.910  0.5553 -1.1906  0.1967
  906MOL0     H22271   0.916  12.020  -1.009 -0.6418 -1.2689  3.6324
  906MOL0     H22272   0.764  12.059  -1.104 -0.6236  1.0672 -0.6744
  906MOL0     H22273   0.798  12.137  -0.951  1.3384  0.4906 -0.9562
  906MOL0     H22274   0.354  12.133  -1.104 -0.1778  1.7984  1.0168
  906MOL0     H22275   0.147  12.274  -1.086 -1.0776 -0.7335 -1.1306
  906MOL0     H22276   0.024  12.379  -0.899  1.1531 -0.6946 -1.6549
  906MOL0     H22277  -0.107  12.410  -1.009 -3.8159  3.2363  2.8895
  906MOL0     H22278  -0.118  12.344  -0.713 -3.4216  2.3939  3.0047
  906MOL0     H22279  -0.153  12.499  -0.794 -3.4996 -0.6647 -1.0682
  906MOL0     H22280  -0.350  12.457  -0.867 -2.6036  0.4983  2.9024
  906MOL0     H22281  -0.342  12.393  -0.705  1.6474  2.8192  0.4128
  906MOL0     H22282  -0.307  12.225  -0.960  0.4787 -1.1191 -0.7738
  906MOL0     H22283  -0.299  12.165  -0.799  0.6133 -0.7543 -0.9403
  906MOL0     H22284  -0.514  12.125  -0.937 -2.6318  0.2692  0.1674
  906MOL0     H22285  -0.553  12.296  -0.923 -0.7710  1.4149  0.4524
  906MOL0     H22286  -0.514  12.076  -0.702 -0.3114  0.7236  0.8280
  906MOL0     H22287  -0.529  12.249  -0.661  1.4632 -0.8641  0.4046
  906MOL0     H22288  -0.743  12.072  -0.679 -0.2156 -2.5283 -1.5764
  906MOL0     H22289  -0.707  12.063  -0.846  0.5287  0.5526 -0.3533
  906MOL0     H22290  -0.879  12.218  -0.851 -0.1826  1.5127 -1.4071
  906MOL0     H22291  -0.749  12.324  -0.863 -1.9841 -1.2072 -1.0635
  906MOL0     H22292  -0.041  11.994  -0.836 -1.1558 -2.3041 -3.4266
  906MOL0     H22293   0.174  11.843  -0.847  0.5014  0.3930  0.6687
  906MOL0     H22294   0.490  11.785  -0.792 -0.6963 -2.4381 -1.8872
  906MOL0     H22295   0.668  11.622  -0.685 -1.6061 -1.9908 -2.5992
  906MOL0     H22296   2.300  10.897   0.081  2.2553 -0.0332 -2.3200
  906MOL0     H22297   2.405  11.083  -0.074  2.3879  0.8039  1.4990
  906MOL0     H22298   2.506  11.627  -0.074  1.2922 -3.5049  0.7707
  906MOL0     H22299   2.625  11.777  -0.246  1.3929 -0.5563 -1.4402
  906MOL0     H22300   2.676  11.876  -0.595 -1.2166  1.8920  1.5702
  906MOL0     H22301   2.647  11.892  -0.425 -1.0448 -0.3271  0.4467
  906MOL0     H22302   2.893  11.794  -0.567  0.6830  3.0836  0.2619
  906MOL0     H22303   2.856  11.709  -0.420  0.1060 -0.7904 -1.4702
  906MOL0     H22304   2.852  11.908  -0.287  0.8571 -0.5709 -0.1207
  906MOL0     H22305   2.879  12.000  -0.428 -2.5857 -0.3194  1.5178
  906MOL0     H22306   3.104  11.956  -0.434 -0.2315  0.4526 -0.8130
  906MOL0     H22307   3.090  11.801  -0.329 -1.1399 -0.3377  1.0803
  906MOL0     H22308   3.088  12.093  -0.036 -0.1327 -0.0122  0.4564
  906MOL0     H22309   2.486  11.492  -0.552  1.6546 -0.9470  0.7804
  906MOL0     H22310   2.381  11.354  -0.381 -0.9763 -0.5997  1.1274
  907MOL0     O22311   3.116  11.201  10.843 -0.0941 -0.0704 -0.5949
  907MOL0     C22312   3.050  11.228  10.941 -0.7617 -0.0480 -1.2385
  907MOL0     O22313   3.072  11.330  11.029  0.3261  0.1713 -0.0475
  907MOL0     C22314   3.189  11.396  11.022 -0.2112  0.0085  0.6124
  907MOL0     C22315   3.182  11.534  10.978  0.0873  0.7305  0.2941
  907MOL0     C22316   3.300  11.602  10.949  0.0240  0.3997  0.0707
  907MOL0     C22317   3.427  11.537  10.951 -0.3423  0.6699  0.5182
  907MOL0     O22318   3.538  11.603  10.901 -0.3415 -0.7467  0.5293
  907MOL0     C22319   3.653  11.536  10.849  0.4265 -0.6884 -0.7561
  907MOL0     C22320   3.694  11.614  10.735 -0.4210 -0.1799 -0.1601
  907MOL0     C22321   3.842  11.587  10.709 -0.6751 -0.1286 -0.8167
  907MOL0     C22322   3.894  11.631  10.567 -0.9729  0.4510  0.0466
  907MOL0     C22323   4.045  11.619  10.551 -1.2343 -0.0803 -0.1531
  907MOL0     C22324   4.088  11.671  10.413  0.8192 -0.5769  0.2645
  907MOL0     C22325   4.247  11.673  10.410 -0.1210 -0.3993  0.0640
  907MOL0     C22326   4.295  11.536  10.382 -0.0186 -0.1098  0.3458
  907MOL0     N22327   4.403  11.536  10.284 -0.4943  0.6524 -0.5470
  907MOL0     C22328   4.403  11.559  10.152 -0.6347  0.0182  0.7442
  907MOL0     C22329   4.532  11.537  10.110 -0.5521 -0.0423  0.8639
  907MOL0     C22330   4.584  11.578   9.980  0.4931  0.8452  0.4596
  907MOL0     C22331   4.644  11.462   9.904  0.4315  0.1936  0.2086
  907MOL0     C22332   4.731  11.499   9.782 -0.2735  1.0826  0.0084
  907MOL0     C22333   4.667  11.594   9.674 -0.0069 -0.0396  0.2240
  907MOL0     O22334   4.675  11.721   9.747  0.1921 -0.0271  0.2605
  907MOL0     C22335   4.576  11.810   9.721 -0.1924  0.4111  0.1342
  907MOL0     C22336   4.525  11.827   9.587 -0.3163  0.2912 -0.3466
  907MOL0     C22337   4.426  11.917   9.561  0.5359 -0.6233 -0.6455
  907MOL0     C22338   4.383  11.922   9.414  0.0798 -0.1927  0.2881
  907MOL0     C22339   4.384  12.005   9.664 -0.0162  0.2636  0.1951
  907MOL0     C22340   4.286  12.114   9.655  0.5267  0.0491  0.1205
  907MOL0     O22341   4.288  12.194   9.549 -0.2197 -0.0082 -0.8022
  907MOL0     C22342   4.195  12.289   9.528 -0.0113  0.9843 -0.1837
  907MOL0     C22343   4.243  12.419   9.505  0.3516  0.2195  0.1082
  907MOL0     C22344   4.148  12.524   9.499 -0.0708 -0.6485 -0.2144
  907MOL0     C22345   4.009  12.505   9.507  0.6022  0.1072  0.2687
  907MOL0     O22346   3.911  12.597   9.526 -0.1251  0.5393 -0.4117
  907MOL0     C22347   3.948  12.731   9.548  0.2856 -0.0187 -0.2294
  907MOL0     C22348   3.837  12.795   9.620  0.5209 -0.1832 -0.3962
  907MOL0     C22349   3.859  12.949   9.635  0.1002 -0.7578  0.3474
  907MOL0     C22350   3.980  12.984   9.723 -0.0304 -1.0260  0.0180
  907MOL0     C22351   3.964  13.134   9.767 -0.8300 -0.7503 -0.1817
  907MOL0     C22352   4.085  13.217   9.732 -0.5812 -0.3659 -0.3778
  907MOL0     C22353   4.206  13.171   9.816 -0.3790  0.3649  0.1105
  907MOL0     C22354   4.329  13.236   9.758 -0.3323  0.1575 -0.4583
  907MOL0    Cl22355   4.322  13.414   9.807 -0.1237  0.0248 -0.1292
  907MOL0     C22356   3.960  12.377   9.521 -0.0926 -0.3959  1.0051
  907MOL0     C22357   4.054  12.270   9.539  0.1258 -1.1239 -0.5723
  907MOL0     O22358   4.216  12.133   9.750 -0.0835  0.0687  0.0623
  907MOL0     C22359   4.444  11.993   9.788 -0.9379 -0.4588 -0.4265
  907MOL0     C22360   4.532  11.898   9.823 -0.4805  0.9284  0.1817
  907MOL0     N22361   4.604  11.484  10.212  0.2446 -0.2358  0.1343
  907MOL0     N22362   4.527  11.483  10.318  0.7647 -0.7870 -0.3179
  907MOL0     C22363   3.434  11.410  11.012 -0.8060  0.5980  1.0248
  907MOL0     C22364   3.317  11.343  11.052  0.7708 -0.0356  0.3922
  907MOL0     C22365   2.922  11.168  10.964 -0.7392 -0.2729  0.3276
  907MOL0     C22366   2.844  11.187  11.083 -0.0948  0.4875 -0.0636
  907MOL0     C22367   2.708  11.141  11.089 -0.7041  1.2873  0.2383
  907MOL0     C22368   2.658  11.060  10.984 -0.0129 -0.0647  0.1751
  907MOL0     O22369   2.533  11.000  10.981 -0.2254 -0.7553 -0.1740
  907MOL0     C22370   2.459  11.016  11.106 -0.1673 -0.5963  0.1501
  907MOL0     C22371   2.329  10.933  11.116  1.0444 -0.9161  0.5186
  907MOL0     C22372   2.224  10.980  11.007  0.0121 -0.7538  0.5462
  907MOL0     C22373   2.169  11.116  11.028 -0.4700  0.4029 -0.3607
  907MOL0     C22374   2.060  11.127  11.121 -0.7734 -0.2391  1.2207
  907MOL0     C22375   1.967  11.142  11.188  1.2788 -0.0010  0.1670
  907MOL0     C22376   2.742  11.034  10.871  0.1564  1.2638 -0.8518
  907MOL0     C22377   2.872  11.083  10.869 -0.9828 -0.0121 -0.2245
  907MOL0     H22378   3.086  11.582  10.963 -1.1352 -1.7966 -0.5029
  907MOL0     H22379   3.294  11.706  10.920 -0.1214  0.6370  0.9341
  907MOL0     H22380   3.735  11.528  10.921 -0.4879 -0.8717  0.2756
  907MOL0     H22381   3.626  11.434  10.819 -1.1331 -0.1779 -1.1652
  907MOL0     H22382   3.627  11.593  10.650 -2.8759 -0.6551  1.7747
  907MOL0     H22383   3.678  11.719  10.757  3.4540  0.1976  1.5275
  907MOL0     H22384   3.895  11.644  10.786  1.1275 -2.2536 -0.3713
  907MOL0     H22385   3.870  11.484  10.734 -2.0941 -0.1320  0.9556
  907MOL0     H22386   3.848  11.573  10.486  0.8951 -0.5592 -0.3518
  907MOL0     H22387   3.872  11.737  10.557  0.6176  0.7489 -0.6988
  907MOL0     H22388   4.085  11.674  10.637  0.0339 -2.0042  0.5629
  907MOL0     H22389   4.081  11.517  10.568 -0.7483  0.6194  4.2048
  907MOL0     H22390   4.053  11.622  10.321  0.6182  1.2881 -0.7027
  907MOL0     H22391   4.038  11.766  10.395  0.9308 -0.6613 -0.5377
  907MOL0     H22392   4.285  11.748  10.341  3.3132 -1.2920  0.7967
  907MOL0     H22393   4.284  11.695  10.511  0.3860 -2.4030  0.3540
  907MOL0     H22394   4.209  11.481  10.342 -0.6737  0.3843  1.0709
  907MOL0     H22395   4.327  11.482  10.471 -1.1771  0.0598  0.8825
  907MOL0     H22396   4.327  11.610  10.093 -0.7615 -0.6970  0.2750
  907MOL0     H22397   4.512  11.618   9.908  0.2972  1.4584  0.9810
  907MOL0     H22398   4.658  11.651  10.012  0.2425  0.0024  3.1955
  907MOL0     H22399   4.561  11.395   9.879 -0.9419  1.2994  1.5806
  907MOL0     H22400   4.707  11.396   9.965 -1.8890 -2.2451  0.1871
  907MOL0     H22401   4.747  11.400   9.737  0.4196  2.3403 -2.6906
  907MOL0     H22402   4.825  11.539   9.819 -0.8480  2.0496  0.4628
  907MOL0     H22403   4.562  11.567   9.656 -0.3094  1.0180  0.3498
  907MOL0     H22404   4.722  11.597   9.580 -0.7879  1.7501 -0.2236
  907MOL0     H22405   4.560  11.752   9.517 -0.2894  0.8299 -0.9151
  907MOL0     H22406   4.378  11.823   9.369 -1.0042  0.4640 -1.1178
  907MOL0     H22407   4.290  11.977   9.401 -0.5864 -1.6406 -1.4412
  907MOL0     H22408   4.460  11.982   9.364 -0.5079 -0.0004 -0.4014
  907MOL0     H22409   4.350  12.434   9.515  0.3003  0.2189  0.7195
  907MOL0     H22410   4.190  12.624   9.496 -0.4051 -0.5120 -0.5788
  907MOL0     H22411   4.044  12.743   9.599  1.2687  0.6255 -2.1425
  907MOL0     H22412   3.953  12.780   9.451 -3.1634  0.6000 -0.2323
  907MOL0     H22413   3.740  12.774   9.573  0.0986 -0.0172  0.3889
  907MOL0     H22414   3.818  12.744   9.714 -0.8548 -2.1336 -1.6547
  907MOL0     H22415   3.767  12.993   9.672 -1.3198 -1.7076 -1.8129
  907MOL0     H22416   3.869  12.998   9.538 -0.7312  1.3988  1.2924
  907MOL0     H22417   3.983  12.912   9.806  1.2901  1.0573  1.8924
  907MOL0     H22418   4.077  12.975   9.673 -1.1898  0.5361 -2.6980
  907MOL0     H22419   3.938  13.137   9.873  1.5223 -0.9557  0.4576
  907MOL0     H22420   3.879  13.180   9.715 -0.1888  0.1734 -0.4611
  907MOL0     H22421   4.096  13.222   9.623 -0.6898 -0.9485 -0.4163
  907MOL0     H22422   4.071  13.321   9.763 -1.4968  0.1859 -2.5053
  907MOL0     H22423   4.216  13.062   9.808 -1.7011 -0.0096  2.6002
  907MOL0     H22424   4.196  13.195   9.922  0.7958 -2.6141  1.0218
  907MOL0     H22425   4.320  13.237   9.649 -1.1543  1.5925 -0.4005
  907MOL0     H22426   4.419  13.197   9.807 -2.3129 -0.2412  3.2666
  907MOL0     H22427   3.853  12.360   9.524 -0.1879 -0.9669 -2.1516
  907MOL0     H22428   4.003  12.177   9.565  0.2944 -1.0855 -0.0914
  907MOL0     H22429   4.408  12.052   9.872 -0.4002  3.7202 -2.8411
  907MOL0     H22430   4.568  11.881   9.924  0.1331  1.5571  0.0756
  907MOL0     H22431   3.528  11.356  11.004 -0.6556  0.9967 -0.0420
  907MOL0     H22432   3.323  11.241  11.091 -2.2285  0.4121  2.2718
  907MOL0     H22433   2.886  11.241  11.167 -0.5810 -2.8277  2.5600
  907MOL0     H22434   2.650  11.174  11.175  0.3766  2.3058  0.6043
  907MOL0     H22435   2.521  10.989  11.192 -0.9260  2.8319  1.9293
  907MOL0     H22436   2.438  11.121  11.128  0.9911 -0.8650  2.8725
  907MOL0     H22437   2.282  10.939  11.215 -0.6722 -1.4095 -0.2359
  907MOL0     H22438   2.343  10.825  11.124  2.0318 -0.7017  2.2026
  907MOL0     H22439   2.141  10.909  10.997 -1.5431  0.5120  3.3657
  907MOL0     H22440   2.277  10.970  10.912 -1.8601 -1.5248 -0.4605
  907MOL0     H22441   2.128  11.151  10.933  1.3989 -3.3760 -2.7920
  907MOL0     H22442   2.248  11.185  11.057 -0.1544  0.0290 -0.3303
  907MOL0     H22443   1.871  11.158  11.232 -0.3930 -5.4796 -0.7783
  907MOL0     H22444   2.698  10.973  10.793 -0.3467  1.2580 -0.5674
  907MOL0     H22445   2.916  11.071  10.771  0.5073 -0.6346  0.4914
  908MOL0     O22446   1.575   4.552   0.108 -0.5304 -0.8390 -0.5289
  908MOL0     C22447   1.471   4.564   0.176  0.6940  1.1808 -0.1047
  908MOL0     O22448   1.444   4.503   0.303 -0.0806  0.4521  0.0362
  908MOL0     C22449   1.533   4.406   0.341 -0.3911 -0.2158  0.1741
  908MOL0     C22450   1.544   4.286   0.274 -0.1652  0.0469  0.1266
  908MOL0     C22451   1.632   4.189   0.318 -0.4285  0.1595  0.4396
  908MOL0     C22452   1.702   4.195   0.442  0.8637 -0.1249 -0.2307
  908MOL0     O22453   1.764   4.094   0.509  0.4680  0.0417  0.4167
  908MOL0     C22454   1.713   3.963   0.487  0.2688 -0.4691 -0.0728
  908MOL0     C22455   1.740   3.871   0.606 -0.0338 -0.2536 -0.7071
  908MOL0     C22456   1.642   3.881   0.724  0.3510  0.0053  0.2630
  908MOL0     C22457   1.647   3.765   0.822  0.2778 -0.2449  0.3085
  908MOL0     C22458   1.534   3.776   0.922 -0.1986 -0.6585  0.0870
  908MOL0     C22459   1.396   3.740   0.864  0.7615  0.2723  0.7943
  908MOL0     C22460   1.288   3.721   0.973 -1.1612 -0.5517  0.7157
  908MOL0     C22461   1.223   3.854   1.026 -0.2845 -0.4079  0.8202
  908MOL0     N22462   1.168   3.941   0.920  0.5986 -0.1405 -0.5863
  908MOL0     C22463   1.241   4.030   0.843  0.4918 -0.0177 -0.2088
  908MOL0     C22464   1.146   4.102   0.778  0.3847 -0.4359 -0.5397
  908MOL0     C22465   1.167   4.216   0.681  0.3345 -0.5118 -0.3069
  908MOL0     C22466   1.180   4.175   0.530 -0.4283  0.0265 -0.3892
  908MOL0     C22467   1.287   4.060   0.502  0.2247 -0.3787 -0.3976
  908MOL0     C22468   1.251   4.001   0.370 -0.3602 -0.3332 -0.2171
  908MOL0     O22469   1.358   3.940   0.297 -0.3474  0.0879 -0.3400
  908MOL0     C22470   1.433   3.825   0.325 -0.0643 -0.1645  0.1674
  908MOL0     C22471   1.535   3.790   0.246 -0.9380  0.7146 -0.2994
  908MOL0     C22472   1.620   3.682   0.274 -0.0916  0.6495 -0.6351
  908MOL0     C22473   1.748   3.661   0.200 -0.4930  0.4179  0.0015
  908MOL0     C22474   1.589   3.598   0.387 -0.3686 -0.6119  0.1252
  908MOL0     C22475   1.671   3.485   0.428 -0.8320  0.2149 -0.5976
  908MOL0     O22476   1.730   3.405   0.338 -0.5050  0.2624 -0.1266
  908MOL0     C22477   1.780   3.281   0.371 -0.3826  0.8506  0.6628
  908MOL0     C22478   1.892   3.275   0.444  0.0938 -0.2576  0.4213
  908MOL0     C22479   1.960   3.155   0.452  0.1065 -0.4704  0.1347
  908MOL0     C22480   1.911   3.041   0.379 -0.1689  0.0113  0.6295
  908MOL0     O22481   1.973   2.918   0.372 -0.1882 -0.2691  0.3791
  908MOL0     C22482   2.109   2.916   0.436 -0.0726  0.1309  0.1813
  908MOL0     C22483   2.218   2.957   0.333  0.2153  0.2380 -0.2291
  908MOL0     C22484   2.360   2.949   0.387  0.5219  0.2270 -0.1203
  908MOL0     C22485   2.383   3.040   0.510 -0.5710  0.6582  0.7820
  908MOL0     C22486   2.522   3.093   0.522 -0.1389 -0.6954 -0.1872
  908MOL0     C22487   2.558   3.155   0.660 -0.4194 -0.2768  0.0648
  908MOL0     C22488   2.697   3.222   0.662 -0.2262 -1.0583  0.4068
  908MOL0     C22489   2.735   3.294   0.792 -0.6517 -0.0018 -0.5575
  908MOL0    Cl22490   2.740   3.191   0.933 -0.1813  0.1753  0.3745
  908MOL0     C22491   1.798   3.055   0.301  0.8042  0.5212  0.2383
  908MOL0     C22492   1.737   3.177   0.288 -0.4266  0.0972 -1.4004
  908MOL0     O22493   1.673   3.471   0.549  0.0229  0.1464  0.0803
  908MOL0     C22494   1.478   3.635   0.462 -0.1848 -0.1917  0.4593
  908MOL0     C22495   1.396   3.747   0.437  0.6510  0.2921  0.6216
  908MOL0     N22496   1.021   4.064   0.828 -0.1274 -0.0411  0.7828
  908MOL0     N22497   1.036   3.967   0.915  0.2694 -0.4695  0.5743
  908MOL0     C22498   1.692   4.317   0.520 -0.4819 -0.5543 -0.1289
  908MOL0     C22499   1.611   4.421   0.461  0.7656  0.5275  0.2263
  908MOL0     C22500   1.364   4.640   0.115 -0.0203 -0.3469  1.1498
  908MOL0     C22501   1.389   4.741   0.021 -0.0247  0.0756 -0.2141
  908MOL0     C22502   1.287   4.831  -0.010 -0.0912  0.1897  0.7883
  908MOL0     C22503   1.163   4.833   0.049 -0.5323 -0.8915 -1.1816
  908MOL0     O22504   1.059   4.924   0.025 -0.7715 -0.4072  0.0020
  908MOL0     C22505   1.106   5.061   0.000  0.4921 -0.5987 -0.1822
  908MOL0     C22506   1.068   5.159   0.108  0.9544 -0.5722  0.0966
  908MOL0     C22507   0.914   5.200   0.128 -1.3157  0.2484 -0.4148
  908MOL0     C22508   0.845   5.263   0.010 -0.8661 -0.2218  0.1623
  908MOL0     C22509   0.897   5.396  -0.015 -0.1503  0.0958  0.7052
  908MOL0     C22510   0.942   5.512  -0.028  0.3372 -0.1249 -0.0611
  908MOL0     C22511   1.134   4.726   0.140  0.2884 -0.7374  0.1901
  908MOL0     C22512   1.234   4.626   0.164 -0.2711  0.4870 -0.0755
  908MOL0     H22513   1.500   4.273   0.175  3.3939 -3.4491 -1.2973
  908MOL0     H22514   1.660   4.096   0.270 -1.0914  0.1132  0.1188
  908MOL0     H22515   1.604   3.974   0.477  0.6126  3.5186 -1.2123
  908MOL0     H22516   1.745   3.913   0.395 -0.6499 -1.7957  0.2934
  908MOL0     H22517   1.768   3.772   0.571 -0.9536 -0.1962 -1.6335
  908MOL0     H22518   1.833   3.909   0.651 -0.2142  0.5222 -0.9652
  908MOL0     H22519   1.659   3.975   0.778  0.1432  0.9300 -1.2447
  908MOL0     H22520   1.540   3.874   0.685  0.1153  1.2284  0.6203
  908MOL0     H22521   1.649   3.665   0.780  1.3574 -0.3752  0.6318
  908MOL0     H22522   1.740   3.772   0.879  0.7673 -2.8469 -0.0710
  908MOL0     H22523   1.557   3.711   1.006 -5.8039  0.0885  2.6563
  908MOL0     H22524   1.528   3.876   0.966  0.0384 -0.3502 -0.5628
  908MOL0     H22525   1.361   3.804   0.783 -0.1422  0.1144  1.0507
  908MOL0     H22526   1.394   3.641   0.818 -1.0624  0.0145  1.3393
  908MOL0     H22527   1.204   3.669   0.925 -2.4885  1.0943  1.1516
  908MOL0     H22528   1.345   3.660   1.044  0.7589 -1.7130 -1.6786
  908MOL0     H22529   1.297   3.902   1.091 -2.4486  0.5143  2.7294
  908MOL0     H22530   1.143   3.822   1.093  2.1148  2.2428  5.4332
  908MOL0     H22531   1.349   4.044   0.836  1.0035 -1.5901  2.8222
  908MOL0     H22532   1.091   4.293   0.692 -0.4528 -1.2990 -0.1592
  908MOL0     H22533   1.260   4.266   0.709 -0.6800  0.3371  1.7281
  908MOL0     H22534   1.205   4.267   0.477  2.5610  0.6869  1.8720
  908MOL0     H22535   1.079   4.149   0.498 -0.7342  0.3937  0.2548
  908MOL0     H22536   1.305   3.986   0.580  1.0575 -1.5485 -1.6437
  908MOL0     H22537   1.385   4.102   0.477  0.0962 -0.7988 -1.6866
  908MOL0     H22538   1.232   4.084   0.301 -0.0822 -1.7390 -2.0653
  908MOL0     H22539   1.165   3.934   0.366 -0.7924  0.2603 -1.7276
  908MOL0     H22540   1.543   3.857   0.161 -1.9555  0.8646 -0.2827
  908MOL0     H22541   1.756   3.748   0.133 -3.3536  2.2617  1.8063
  908MOL0     H22542   1.832   3.661   0.270  0.4957 -0.5086 -1.1328
  908MOL0     H22543   1.753   3.576   0.132  1.4610  0.9953 -0.6536
  908MOL0     H22544   1.930   3.368   0.485  3.7006 -3.8577  6.8698
  908MOL0     H22545   2.034   3.145   0.530  1.7431 -1.8633 -1.5222
  908MOL0     H22546   2.118   2.975   0.527 -0.0104  0.8564 -0.2883
  908MOL0     H22547   2.135   2.810   0.449  2.6830  0.6804 -0.0835
  908MOL0     H22548   2.219   2.891   0.246  1.3968  2.8061 -2.2815
  908MOL0     H22549   2.194   3.059   0.302 -1.3403  0.2566  0.8974
  908MOL0     H22550   2.421   2.991   0.306 -0.6324  1.6352 -0.2966
  908MOL0     H22551   2.383   2.845   0.415 -2.8815 -0.9434 -1.1891
  908MOL0     H22552   2.318   3.128   0.509 -1.5049 -0.0182 -0.3712
  908MOL0     H22553   2.360   2.983   0.600  0.3922 -1.3338 -0.1792
  908MOL0     H22554   2.540   3.172   0.448  1.9496 -1.5686 -0.6857
  908MOL0     H22555   2.595   3.011   0.522  0.9438  0.1977 -2.1608
  908MOL0     H22556   2.479   3.218   0.703 -0.1736  0.7168 -0.8899
  908MOL0     H22557   2.578   3.064   0.717  2.9338 -0.8080 -1.7199
  908MOL0     H22558   2.693   3.309   0.595 -3.2929 -1.3504  0.0798
  908MOL0     H22559   2.785   3.165   0.631  0.8430  1.0084 -0.5541
  908MOL0     H22560   2.662   3.374   0.810 -0.1384  0.2600  0.4016
  908MOL0     H22561   2.830   3.347   0.778 -0.4092 -0.0333  0.8914
  908MOL0     H22562   1.765   2.962   0.255  0.8407 -0.0183  1.2863
  908MOL0     H22563   1.649   3.203   0.231 -0.0600  1.1627 -1.5102
  908MOL0     H22564   1.439   3.584   0.550 -2.1755  1.0367  0.3602
  908MOL0     H22565   1.313   3.766   0.505 -1.5546 -3.9684 -0.5257
  908MOL0     H22566   1.746   4.331   0.613  2.7555  1.2654 -2.1057
  908MOL0     H22567   1.590   4.509   0.520  1.5813  0.0640  1.2395
  908MOL0     H22568   1.482   4.751  -0.034  0.1773 -1.5248 -0.1989
  908MOL0     H22569   1.316   4.887  -0.099  2.0653 -5.0800 -2.3368
  908MOL0     H22570   1.210   5.069  -0.032  0.1347 -1.4584 -1.6513
  908MOL0     H22571   1.054   5.103  -0.087  0.4457  1.2420  0.6902
  908MOL0     H22572   1.119   5.254   0.090  0.4610 -0.8993 -4.0298
  908MOL0     H22573   1.098   5.127   0.208  1.2777  3.2117  1.3506
  908MOL0     H22574   0.920   5.267   0.214  1.9866  0.3089 -0.5562
  908MOL0     H22575   0.862   5.108   0.156 -2.5209  1.3386  1.0849
  908MOL0     H22576   0.739   5.270   0.036 -1.9691  1.3194 -3.9566
  908MOL0     H22577   0.855   5.200  -0.079  2.2128 -2.1285  1.6701
  908MOL0     H22578   0.979   5.613  -0.029  0.9844 -0.3508 -0.6728
  908MOL0     H22579   1.035   4.707   0.181 -2.0891  2.4585 -3.4025
  908MOL0     H22580   1.203   4.547   0.232 -0.1120 -3.3378 -4.0540
  909MOL0     O22581   4.951   8.705   6.736 -0.4528 -0.3940  0.8967
  909MOL0     C22582   4.902   8.594   6.720 -0.2576  0.2216 -0.3212
  909MOL0     O22583   4.968   8.470   6.727 -0.3566  0.2332 -0.3720
  909MOL0     C22584   5.104   8.470   6.737 -0.1742 -0.1014  0.2911
  909MOL0     C22585   5.170   8.552   6.837 -0.6847  0.3514 -0.4838
  909MOL0     C22586   5.310   8.534   6.854 -0.2133  0.1547 -0.2777
  909MOL0     C22587   5.389   8.459   6.768  0.2715  0.6456 -0.4763
  909MOL0     O22588   5.526   8.454   6.787  0.5364  0.6192  1.1811
  909MOL0     C22589   5.608   8.381   6.699 -0.7529 -0.3339  0.4093
  909MOL0     C22590   5.759   8.391   6.746 -0.1715 -0.9986  0.2288
  909MOL0     C22591   5.851   8.326   6.638  1.1243  0.7539 -0.1487
  909MOL0     C22592   5.988   8.352   6.678 -0.2991  0.2021 -0.5270
  909MOL0     C22593   6.103   8.312   6.572  0.2590 -0.1701 -0.2759
  909MOL0     C22594   6.109   8.426   6.463 -0.3724 -0.7121  0.2721
  909MOL0     C22595   6.209   8.377   6.363 -0.1730 -0.9112  0.5156
  909MOL0     C22596   6.233   8.491   6.261  0.5794  0.2183 -0.1124
  909MOL0     N22597   6.352   8.462   6.182 -0.2842 -0.3680  0.3368
  909MOL0     C22598   6.481   8.449   6.221 -0.0946  0.0259 -0.2395
  909MOL0     C22599   6.548   8.425   6.109  0.5214  0.2181 -0.3429
  909MOL0     C22600   6.693   8.409   6.109 -1.0075 -0.3825 -0.1324
  909MOL0     C22601   6.749   8.529   6.027  0.2836  0.3166 -0.1350
  909MOL0     C22602   6.888   8.497   5.955 -0.0223  0.2665 -0.2422
  909MOL0     C22603   6.942   8.619   5.887  0.2674 -0.2060  1.2943
  909MOL0     O22604   7.067   8.592   5.829 -0.4058  0.7119  0.1813
  909MOL0     C22605   7.135   8.660   5.739 -0.1167  0.1592 -0.9326
  909MOL0     C22606   7.107   8.790   5.708  0.0423 -0.3602  0.2421
  909MOL0     C22607   7.169   8.850   5.595 -0.1708 -0.6159 -0.0084
  909MOL0     C22608   7.132   8.984   5.574 -1.1318 -0.2352 -0.2117
  909MOL0     C22609   7.268   8.783   5.513  0.2641 -0.3214 -0.6916
  909MOL0     C22610   7.342   8.835   5.394  0.6350 -0.4795 -0.7694
  909MOL0     O22611   7.399   8.725   5.327  0.5296 -0.1550  0.3120
  909MOL0     C22612   7.477   8.746   5.216 -0.8739 -0.0500 -0.1045
  909MOL0     C22613   7.484   8.638   5.127  0.1069 -0.1582  0.6607
  909MOL0     C22614   7.553   8.646   5.006 -0.2674  0.0913 -0.5193
  909MOL0     C22615   7.623   8.759   4.965 -0.4623 -0.7570  0.0111
  909MOL0     O22616   7.692   8.777   4.847 -0.3486  0.2826  0.7570
  909MOL0     C22617   7.678   8.903   4.781  0.0658 -0.4577 -0.2080
  909MOL0     C22618   7.766   8.906   4.647 -0.4783  0.1622 -0.1568
  909MOL0     C22619   7.684   8.872   4.520  0.5658  0.0240  0.3531
  909MOL0     C22620   7.607   8.732   4.524 -0.3330 -0.7514  1.1536
  909MOL0     C22621   7.541   8.687   4.391 -0.0561 -0.5751 -0.5992
  909MOL0     C22622   7.396   8.651   4.393  1.0686  0.0785  0.1806
  909MOL0     C22623   7.367   8.546   4.494  0.3972  0.2303  0.1670
  909MOL0     C22624   7.231   8.484   4.467  0.8222  0.5785  0.5345
  909MOL0    Cl22625   7.222   8.382   4.608 -0.2935 -0.1486 -0.2425
  909MOL0     C22626   7.630   8.864   5.063  0.3313 -0.3880  0.3388
  909MOL0     C22627   7.550   8.862   5.182 -0.3454 -0.0664 -0.6935
  909MOL0     O22628   7.339   8.951   5.364  0.5727 -0.1383  1.0364
  909MOL0     C22629   7.283   8.645   5.552 -0.5304  0.0934 -0.5033
  909MOL0     C22630   7.231   8.588   5.665 -0.9233 -0.0028  0.0831
  909MOL0     N22631   6.455   8.412   6.007 -0.1052  0.1823  0.0624
  909MOL0     N22632   6.336   8.449   6.043 -0.7300  0.4962 -0.4568
  909MOL0     C22633   5.321   8.384   6.662  0.7148  1.1142 -1.0550
  909MOL0     C22634   5.183   8.392   6.656  1.3403  0.3645 -0.7256
  909MOL0     C22635   4.749   8.602   6.692 -0.4171 -0.5605 -0.0628
  909MOL0     C22636   4.682   8.484   6.663 -0.5176 -0.6872  0.9501
  909MOL0     C22637   4.550   8.485   6.630  0.3501  0.4614  0.1628
  909MOL0     C22638   4.473   8.602   6.630  0.6063  0.0841  0.5686
  909MOL0     O22639   4.339   8.620   6.589 -0.6772 -0.2803  0.0534
  909MOL0     C22640   4.264   8.499   6.594 -0.8250  1.3443  0.3711
  909MOL0     C22641   4.113   8.520   6.566  0.1566  0.0480 -0.2359
  909MOL0     C22642   4.058   8.608   6.676  0.1439  0.7277 -0.1718
  909MOL0     C22643   3.905   8.614   6.682 -0.2128 -0.2898  0.0597
  909MOL0     C22644   3.863   8.721   6.589  0.2576  0.2334 -0.1349
  909MOL0     C22645   3.840   8.798   6.507 -0.4881 -0.8132  0.4489
  909MOL0     C22646   4.532   8.717   6.659 -0.4630  0.4392  1.0689
  909MOL0     C22647   4.668   8.721   6.689 -0.8961 -0.4044 -0.3211
  909MOL0     H22648   5.107   8.614   6.899 -1.0826 -1.4704  1.0398
  909MOL0     H22649   5.365   8.576   6.937  0.9473 -1.1719 -0.3317
  909MOL0     H22650   5.596   8.272   6.694 -1.0482 -0.3472  1.3015
  909MOL0     H22651   5.599   8.428   6.601  1.8287  0.7928  0.6455
  909MOL0     H22652   5.765   8.501   6.752 -2.8548 -0.4240 -3.5439
  909MOL0     H22653   5.787   8.356   6.846  1.4124  2.3771  1.1540
  909MOL0     H22654   5.838   8.221   6.612 -1.7659  0.9391  0.2841
  909MOL0     H22655   5.843   8.371   6.538 -0.8765  1.1350  0.1457
  909MOL0     H22656   6.014   8.453   6.708 -1.4587 -0.0873  1.6014
  909MOL0     H22657   6.005   8.283   6.761 -0.8002  2.0432  1.1572
  909MOL0     H22658   6.198   8.319   6.626 -0.2354  1.7512  0.4268
  909MOL0     H22659   6.088   8.212   6.529  1.1259 -1.4076  2.0968
  909MOL0     H22660   6.016   8.430   6.405 -0.4183  0.4801  0.3935
  909MOL0     H22661   6.125   8.523   6.512  1.4814 -0.5246 -0.6250
  909MOL0     H22662   6.302   8.355   6.415  1.8062  3.3662 -0.8179
  909MOL0     H22663   6.186   8.286   6.305 -1.5118  0.3741 -1.0617
  909MOL0     H22664   6.238   8.592   6.303 -1.5237  1.2657 -2.1146
  909MOL0     H22665   6.146   8.483   6.195 -1.8175 -0.2239  2.9070
  909MOL0     H22666   6.519   8.453   6.323 -0.4894 -0.2475 -0.0766
  909MOL0     H22667   6.726   8.420   6.212 -0.7278  1.6988 -0.3937
  909MOL0     H22668   6.723   8.316   6.060 -1.8404 -3.2300  4.1699
  909MOL0     H22669   6.762   8.621   6.085  1.4508  1.3770 -1.9741
  909MOL0     H22670   6.681   8.562   5.948  1.3982  3.1456 -0.0134
  909MOL0     H22671   6.858   8.427   5.876  0.4084 -0.8606  0.5605
  909MOL0     H22672   6.954   8.457   6.032 -1.5264  0.0728  0.9964
  909MOL0     H22673   6.948   8.696   5.965  4.6929 -0.9472  1.9226
  909MOL0     H22674   6.865   8.644   5.814 -0.1497 -3.2849  0.5637
  909MOL0     H22675   7.036   8.853   5.761  0.0004 -0.8020  0.7215
  909MOL0     H22676   7.056   9.010   5.499 -0.3078 -0.5378 -1.1805
  909MOL0     H22677   7.070   9.023   5.655 -1.6803  1.3388 -1.3188
  909MOL0     H22678   7.221   9.046   5.559  0.5516 -2.0803  1.4881
  909MOL0     H22679   7.429   8.546   5.143 -0.5824  0.5318  2.4893
  909MOL0     H22680   7.532   8.562   4.941  0.6446 -1.4392  1.0777
  909MOL0     H22681   7.573   8.927   4.764 -0.1192 -0.2713  1.1101
  909MOL0     H22682   7.701   8.974   4.861  2.0160 -1.1085 -0.1316
  909MOL0     H22683   7.804   9.006   4.625 -1.5919  0.6253 -0.0446
  909MOL0     H22684   7.852   8.839   4.639  0.7626  1.3854  1.8572
  909MOL0     H22685   7.752   8.880   4.435  0.5560 -0.9894  0.2387
  909MOL0     H22686   7.609   8.950   4.503  0.6932 -0.2093 -1.5992
  909MOL0     H22687   7.675   8.655   4.561  1.1083  1.5043  3.5234
  909MOL0     H22688   7.529   8.743   4.600 -0.5249  0.2169  0.8234
  909MOL0     H22689   7.598   8.599   4.361 -0.9691 -0.9198 -1.3439
  909MOL0     H22690   7.547   8.769   4.319 -2.3628  0.1529 -0.0447
  909MOL0     H22691   7.325   8.733   4.408  0.3846 -0.6865  1.3449
  909MOL0     H22692   7.380   8.610   4.293  0.4600 -0.1050  0.3490
  909MOL0     H22693   7.370   8.590   4.594 -0.9388  1.1678 -0.1678
  909MOL0     H22694   7.447   8.472   4.491  0.8015  0.6773 -0.1113
  909MOL0     H22695   7.228   8.423   4.377  1.6744 -0.6859  1.3413
  909MOL0     H22696   7.147   8.553   4.461 -1.4945 -2.1563 -0.3904
  909MOL0     H22697   7.699   8.947   5.050  1.0205 -0.9704  0.2326
  909MOL0     H22698   7.550   8.957   5.234  1.2462 -1.0278  1.1636
  909MOL0     H22699   7.358   8.573   5.519  0.5734 -1.1990  4.1148
  909MOL0     H22700   7.274   8.492   5.690  3.8068  1.5611 -1.0412
  909MOL0     H22701   5.371   8.330   6.583  0.1388  0.4680 -0.9934
  909MOL0     H22702   5.117   8.332   6.594  0.5673 -0.0836  0.4930
  909MOL0     H22703   4.732   8.388   6.656 -2.6826 -1.9797  2.2362
  909MOL0     H22704   4.499   8.396   6.594 -1.1445  1.6284 -0.7420
  909MOL0     H22705   4.304   8.429   6.520  2.2981  1.1944  2.0276
  909MOL0     H22706   4.285   8.451   6.690 -0.0141 -2.9138 -1.6734
  909MOL0     H22707   4.064   8.422   6.556  0.5207 -0.4919  2.5217
  909MOL0     H22708   4.098   8.575   6.473 -6.2420 -0.7219 -0.1009
  909MOL0     H22709   4.102   8.708   6.663  2.7786 -0.6694 -3.4254
  909MOL0     H22710   4.100   8.568   6.769  3.5253 -0.4324 -2.0381
  909MOL0     H22711   3.877   8.643   6.784  1.7060  3.1275 -0.2425
  909MOL0     H22712   3.862   8.522   6.641  0.2848 -0.1282 -0.8403
  909MOL0     H22713   3.809   8.876   6.440  0.8604 -0.5997  0.0498
  909MOL0     H22714   4.481   8.813   6.661  0.2979  0.9782 -1.5259
  909MOL0     H22715   4.725   8.809   6.717 -1.3059 -0.7801  1.8711
  910MOL0     O22716   1.868   1.247   4.932  0.4910  0.3380  0.5050
  910MOL0     C22717   1.754   1.276   4.973 -0.3346  0.4809  0.5205
  910MOL0     O22718   1.642   1.285   4.887 -0.2383 -0.5890  0.2608
  910MOL0     C22719   1.639   1.245   4.756 -0.0479 -0.3850  0.4562
  910MOL0     C22720   1.731   1.167   4.683 -0.1092 -1.5025 -0.7817
  910MOL0     C22721   1.722   1.169   4.549 -0.4238 -0.2849 -0.1996
  910MOL0     C22722   1.615   1.222   4.479 -0.0487 -0.2721  0.1942
  910MOL0     O22723   1.608   1.199   4.344 -0.1114  0.6576 -0.4790
  910MOL0     C22724   1.713   1.254   4.261 -0.7672  0.1068  0.7118
  910MOL0     C22725   1.679   1.207   4.118  0.3849  0.2538  0.2450
  910MOL0     C22726   1.785   1.221   4.010  0.2311 -0.5039  0.5529
  910MOL0     C22727   1.792   1.361   3.950 -1.0244  0.6419  0.1669
  910MOL0     C22728   1.862   1.355   3.822  0.3669 -0.2178  0.5358
  910MOL0     C22729   1.870   1.496   3.750 -0.9267  0.1151 -0.1364
  910MOL0     C22730   1.943   1.604   3.833 -0.1091  1.0793  0.4404
  910MOL0     C22731   2.074   1.572   3.887  0.3614  0.9820 -0.7855
  910MOL0     N22732   2.169   1.543   3.782 -0.3455 -0.8840 -0.7969
  910MOL0     C22733   2.234   1.634   3.704  0.0038 -0.2756  1.0609
  910MOL0     C22734   2.325   1.566   3.631 -0.6545  0.3487  0.3928
  910MOL0     C22735   2.429   1.599   3.517  1.0062 -0.0832 -0.9591
  910MOL0     C22736   2.382   1.706   3.429 -0.1860  0.2824  0.1239
  910MOL0     C22737   2.246   1.686   3.350  0.3354  0.1550 -0.6415
  910MOL0     C22738   2.105   1.694   3.420  0.2909 -0.7815 -0.0687
  910MOL0     O22739   2.084   1.811   3.504  1.0249 -0.6555  0.4072
  910MOL0     C22740   1.948   1.847   3.511 -0.4706 -0.2855  0.0777
  910MOL0     C22741   1.841   1.759   3.493 -1.0213 -0.4188  0.7049
  910MOL0     C22742   1.711   1.787   3.530 -0.6347 -0.4712  0.7758
  910MOL0     C22743   1.599   1.681   3.518  0.3047 -0.8218 -0.2284
  910MOL0     C22744   1.680   1.910   3.591  0.3337 -0.1098 -0.8757
  910MOL0     C22745   1.542   1.961   3.626  0.1151  0.7449  0.4639
  910MOL0     O22746   1.545   2.076   3.705  0.8868  0.1987 -0.2902
  910MOL0     C22747   1.447   2.170   3.712  0.8506  0.6797 -0.0642
  910MOL0     C22748   1.337   2.196   3.629 -0.0499 -0.0451  0.3353
  910MOL0     C22749   1.247   2.298   3.661  0.1840 -0.5440  0.6595
  910MOL0     C22750   1.274   2.387   3.772  0.9702  0.0424  0.7912
  910MOL0     O22751   1.177   2.479   3.792 -0.6207  0.0010  1.0765
  910MOL0     C22752   1.054   2.411   3.841 -0.3234 -0.3632  0.3592
  910MOL0     C22753   1.057   2.364   3.990  0.1473  0.0379  0.6215
  910MOL0     C22754   1.119   2.477   4.078 -0.0451 -0.8473  0.9103
  910MOL0     C22755   1.168   2.440   4.212  0.0512  0.1057 -0.3315
  910MOL0     C22756   1.061   2.374   4.301 -0.3080  0.0325  0.4608
  910MOL0     C22757   0.946   2.462   4.353  0.5326  0.0226  0.3886
  910MOL0     C22758   0.845   2.393   4.447 -0.5026  0.7817  0.2748
  910MOL0     C22759   0.902   2.383   4.589 -0.0465 -0.3199 -0.3324
  910MOL0    Cl22760   0.937   2.535   4.664 -0.0746  0.5652 -0.6803
  910MOL0     C22761   1.390   2.370   3.851  0.1391 -0.2089  0.5107
  910MOL0     C22762   1.473   2.265   3.814  0.2351  0.7228  0.2099
  910MOL0     O22763   1.446   1.913   3.565 -0.1199  0.1949  0.2077
  910MOL0     C22764   1.792   2.007   3.606  0.7374  0.5311  0.7853
  910MOL0     C22765   1.919   1.965   3.566 -0.0326 -0.1572 -0.2228
  910MOL0     N22766   2.319   1.439   3.673  0.8412 -0.1363 -0.5493
  910MOL0     N22767   2.231   1.423   3.764  0.5445  1.4434 -0.3187
  910MOL0     C22768   1.532   1.304   4.549  0.3967 -0.2755 -0.9090
  910MOL0     C22769   1.538   1.318   4.688 -0.2861 -1.2853 -0.6333
  910MOL0     C22770   1.733   1.306   5.118  0.6506 -0.2795  0.2678
  910MOL0     C22771   1.607   1.296   5.190  1.3886 -1.2400  0.1128
  910MOL0     C22772   1.599   1.323   5.327 -0.3401 -0.9211  0.6698
  910MOL0     C22773   1.712   1.355   5.404 -0.3683  0.7420  0.6237
  910MOL0     O22774   1.689   1.368   5.537 -0.1626 -0.4243 -0.1870
  910MOL0     C22775   1.765   1.466   5.613 -0.3479  0.4435  0.0690
  910MOL0     C22776   1.675   1.544   5.712  0.5214 -0.5072 -0.9826
  910MOL0     C22777   1.739   1.682   5.732  0.8348 -0.5883  1.1229
  910MOL0     C22778   1.667   1.772   5.844  0.1714  0.0147 -0.1195
  910MOL0     C22779   1.529   1.813   5.813  0.5683 -0.3078  0.3432
  910MOL0     C22780   1.413   1.848   5.806  0.4356  0.2628  0.5609
  910MOL0     C22781   1.835   1.360   5.341  0.6607  0.2263  0.9115
  910MOL0     C22782   1.842   1.337   5.202 -0.3602 -0.3140  0.7938
  910MOL0     H22783   1.815   1.124   4.737  0.5237 -0.3198 -0.8133
  910MOL0     H22784   1.797   1.108   4.501  1.7443  0.4785  2.0183
  910MOL0     H22785   1.715   1.363   4.250 -1.5753 -0.1294 -2.6457
  910MOL0     H22786   1.812   1.210   4.278 -0.4625 -0.4952 -2.1021
  910MOL0     H22787   1.662   1.099   4.123 -0.2569  0.2104 -1.8878
  910MOL0     H22788   1.582   1.247   4.086  1.0285  1.6994  0.0222
  910MOL0     H22789   1.884   1.222   4.055  1.7936  3.1086 -2.3695
  910MOL0     H22790   1.777   1.139   3.938 -0.9771 -0.6049  0.7813
  910MOL0     H22791   1.695   1.411   3.939 -1.2699 -0.2587 -2.3658
  910MOL0     H22792   1.840   1.430   4.021  3.4778 -2.2873  0.3984
  910MOL0     H22793   1.963   1.318   3.842  0.5486  1.7268  4.0270
  910MOL0     H22794   1.817   1.290   3.747 -0.3531 -0.1879  0.9296
  910MOL0     H22795   1.932   1.485   3.661 -0.1086 -3.0835  0.6924
  910MOL0     H22796   1.767   1.526   3.730 -0.8367 -0.6713 -1.9493
  910MOL0     H22797   1.951   1.688   3.763  0.5216  0.0512 -0.7781
  910MOL0     H22798   1.876   1.637   3.912 -0.0543  1.1207  0.4700
  910MOL0     H22799   2.065   1.488   3.957  0.1602 -0.0046 -1.9491
  910MOL0     H22800   2.112   1.655   3.947  0.9686 -1.8558  3.1600
  910MOL0     H22801   2.225   1.740   3.686  4.8217 -0.0624 -1.7879
  910MOL0     H22802   2.518   1.643   3.563 -0.0760  0.6399  0.5235
  910MOL0     H22803   2.457   1.515   3.453  1.7332 -0.3167 -0.3524
  910MOL0     H22804   2.460   1.711   3.352  0.6014  0.2364  0.9096
  910MOL0     H22805   2.385   1.807   3.469 -1.1192  1.0062 -1.5129
  910MOL0     H22806   2.258   1.585   3.310 -2.5578  0.6410 -3.1266
  910MOL0     H22807   2.231   1.757   3.268 -2.8819 -0.4922 -0.7535
  910MOL0     H22808   2.083   1.603   3.476 -0.0455 -2.7663 -3.1516
  910MOL0     H22809   2.032   1.702   3.339 -0.0351 -2.4272  0.0295
  910MOL0     H22810   1.869   1.659   3.460 -0.2623 -0.0961  0.3478
  910MOL0     H22811   1.570   1.648   3.619  1.7564  1.4169  0.9911
  910MOL0     H22812   1.507   1.715   3.469  0.4080 -1.7487 -1.0959
  910MOL0     H22813   1.637   1.593   3.466  0.2158 -1.5966  0.9662
  910MOL0     H22814   1.327   2.137   3.538 -3.1657 -0.2500  0.6901
  910MOL0     H22815   1.158   2.319   3.603  1.1127  2.7273  0.1815
  910MOL0     H22816   0.978   2.488   3.856  1.2364  0.9598  1.9326
  910MOL0     H22817   1.025   2.333   3.770  2.6837 -2.1831  0.9603
  910MOL0     H22818   0.962   2.327   4.030 -0.7724 -2.2447 -3.1543
  910MOL0     H22819   1.136   2.289   3.986  1.3657  1.3111 -2.3844
  910MOL0     H22820   1.042   2.554   4.089 -0.0328 -0.4510 -1.3343
  910MOL0     H22821   1.212   2.511   4.032  0.1679 -0.2298  1.7765
  910MOL0     H22822   1.251   2.370   4.201  0.9876  1.4821 -2.9932
  910MOL0     H22823   1.198   2.536   4.256  0.6075  0.2807 -1.0727
  910MOL0     H22824   1.098   2.323   4.390 -0.9036 -1.1519  0.0490
  910MOL0     H22825   1.006   2.298   4.244 -1.7175  1.1876  0.2424
  910MOL0     H22826   0.995   2.547   4.401  0.6383  0.1157  0.1157
  910MOL0     H22827   0.874   2.486   4.274  1.3118 -3.9028 -1.7356
  910MOL0     H22828   0.848   2.290   4.410 -0.3370  0.6503  0.6503
  910MOL0     H22829   0.745   2.437   4.449 -0.6975  0.3525  0.0377
  910MOL0     H22830   1.000   2.335   4.586  0.7891  1.1219  1.8187
  910MOL0     H22831   0.826   2.329   4.647  1.8683 -0.6136  2.0642
  910MOL0     H22832   1.400   2.450   3.923 -1.1792  1.0540 -0.6405
  910MOL0     H22833   1.566   2.268   3.870 -0.0003  1.6026  0.5711
  910MOL0     H22834   1.788   2.109   3.643 -4.2890  0.3912  1.3241
  910MOL0     H22835   2.002   2.034   3.578  1.1139 -1.5201 -0.0221
  910MOL0     H22836   1.461   1.359   4.487 -0.4296  0.8557  0.9613
  910MOL0     H22837   1.479   1.387   4.747  2.4947  4.9087 -4.1444
  910MOL0     H22838   1.515   1.266   5.140 -1.1656  2.4807  2.1261
  910MOL0     H22839   1.507   1.326   5.384 -0.8509  3.5536 -0.0127
  910MOL0     H22840   1.838   1.406   5.668 -0.6124 -1.6976 -1.7937
  910MOL0     H22841   1.811   1.534   5.541  1.0723 -0.6476 -0.0830
  910MOL0     H22842   1.650   1.492   5.804 -1.3690  0.8659 -0.6662
  910MOL0     H22843   1.585   1.575   5.657  1.0472 -1.6493 -2.5541
  910MOL0     H22844   1.732   1.736   5.637 -0.7266 -1.1653  0.8734
  910MOL0     H22845   1.840   1.679   5.773  2.5846  3.8953 -2.1157
  910MOL0     H22846   1.719   1.866   5.868 -0.5060  0.1974  0.6873
  910MOL0     H22847   1.664   1.708   5.932 -3.7491 -0.4653 -0.4647
  910MOL0     H22848   1.308   1.868   5.800 -0.3017 -2.9846  1.0003
  910MOL0     H22849   1.929   1.376   5.394  0.8594 -1.4908  1.1524
  910MOL0     H22850   1.946   1.328   5.174 -0.1184 -1.6406  2.0082
  911MOL0     O22851   2.886   0.977   0.549 -0.5973  0.2708  0.0166
  911MOL0     C22852   2.999   0.925   0.561 -0.2102 -0.6003 -0.1426
  911MOL0     O22853   3.029   0.807   0.626  0.7138 -0.3169  0.2007
  911MOL0     C22854   2.940   0.716   0.661  0.1743  0.0981  0.4270
  911MOL0     C22855   2.982   0.609   0.729 -0.0409 -0.3179 -0.1696
  911MOL0     C22856   2.895   0.511   0.790 -0.2325  0.6053  0.8976
  911MOL0     C22857   2.760   0.526   0.767  0.4429 -0.2795  0.3837
  911MOL0     O22858   2.675   0.447   0.845 -0.0896  0.5983 -0.0811
  911MOL0     C22859   2.641   0.317   0.796 -0.7961 -0.2980  0.2019
  911MOL0     C22860   2.487   0.312   0.770  0.3171  0.7252  0.1308
  911MOL0     C22861   2.407   0.259   0.893 -0.0070 -0.0547  0.4439
  911MOL0     C22862   2.418   0.359   1.012 -0.2769  0.5357  0.7490
  911MOL0     C22863   2.319   0.313   1.110  0.6526  0.0344  0.3889
  911MOL0     C22864   2.266   0.435   1.186  0.2241 -0.0036 -1.0286
  911MOL0     C22865   2.154   0.387   1.283  0.5662 -0.3821  0.2354
  911MOL0     C22866   2.076   0.505   1.331  0.0618 -0.3803 -0.0704
  911MOL0     N22867   1.956   0.515   1.240  0.0974 -0.6725 -0.0360
  911MOL0     C22868   1.840   0.578   1.271  0.2439 -0.7859 -0.8452
  911MOL0     C22869   1.782   0.591   1.153 -0.6521  0.0293  0.3455
  911MOL0     C22870   1.661   0.668   1.141 -0.6656 -0.1391 -0.3831
  911MOL0     C22871   1.694   0.810   1.094  0.1650  0.5659  0.1294
  911MOL0     C22872   1.570   0.890   1.068  0.0928 -0.1882  0.5136
  911MOL0     C22873   1.592   1.037   1.073 -0.2567 -0.6332  0.1579
  911MOL0     O22874   1.605   1.103   1.212  0.4465 -0.1095  0.0304
  911MOL0     C22875   1.494   1.183   1.231 -0.3711  0.1935 -0.3502
  911MOL0     C22876   1.512   1.312   1.290 -0.2288  0.0039 -0.5360
  911MOL0     C22877   1.398   1.397   1.327 -0.0679 -0.9198  0.3400
  911MOL0     C22878   1.418   1.537   1.392  0.5354  0.5464  0.4222
  911MOL0     C22879   1.272   1.343   1.294 -0.2863  0.2906 -0.5750
  911MOL0     C22880   1.150   1.411   1.330  0.0415  0.5576  0.9202
  911MOL0     O22881   1.082   1.454   1.221 -0.5077 -0.8245  0.2305
  911MOL0     C22882   0.955   1.509   1.243 -0.6396  0.4757  0.6444
  911MOL0     C22883   0.934   1.637   1.184  0.2101 -0.0438 -0.7185
  911MOL0     C22884   0.812   1.704   1.197  0.1498  0.4274 -0.0741
  911MOL0     C22885   0.703   1.645   1.266  0.3479 -0.2555  0.3493
  911MOL0     O22886   0.584   1.724   1.277  0.5271  0.5982 -0.3039
  911MOL0     C22887   0.512   1.712   1.402  0.4712  0.7367  1.4299
  911MOL0     C22888   0.418   1.832   1.418  0.4479  0.7796  0.4869
  911MOL0     C22889   0.417   1.893   1.562 -0.7474  0.3842 -0.1251
  911MOL0     C22890   0.295   1.972   1.584 -0.2351  0.3753  1.1431
  911MOL0     C22891   0.308   2.124   1.535 -0.8669  0.3413 -0.2307
  911MOL0     C22892   0.180   2.195   1.522 -0.6096 -0.5845  0.1284
  911MOL0     C22893   0.205   2.345   1.519  0.8625  0.0822 -1.5246
  911MOL0     C22894   0.069   2.416   1.481 -0.0064 -0.1590 -0.9867
  911MOL0    Cl22895   0.054   2.396   1.302 -0.5070  0.1290 -0.5454
  911MOL0     C22896   0.737   1.530   1.344 -0.7361  0.0517 -0.2563
  911MOL0     C22897   0.855   1.454   1.321 -0.2463  0.1543 -0.1969
  911MOL0     O22898   1.115   1.422   1.448 -0.3147  0.6053 -0.6442
  911MOL0     C22899   1.254   1.225   1.228 -0.6676  0.8560 -0.0546
  911MOL0     C22900   1.365   1.140   1.197 -0.2351  0.9567 -0.5681
  911MOL0     N22901   1.865   0.560   1.053 -0.0335  0.0456  0.3061
  911MOL0     N22902   1.970   0.518   1.101 -1.5398 -0.3106  0.5059
  911MOL0     C22903   2.707   0.619   0.677  0.0150 -0.6778  0.0141
  911MOL0     C22904   2.798   0.719   0.635 -0.6060  0.1301  0.2203
  911MOL0     C22905   3.110   1.000   0.503  0.1925 -1.2045  1.4255
  911MOL0     C22906   3.232   0.934   0.478 -0.0526 -0.1535  0.7912
  911MOL0     C22907   3.334   1.016   0.419  0.0618  1.2695  0.6027
  911MOL0     C22908   3.315   1.138   0.376  0.0331 -0.4428  0.0515
  911MOL0     O22909   3.414   1.217   0.316  0.1617  0.0894 -0.6801
  911MOL0     C22910   3.538   1.229   0.398 -0.1982  0.6024 -0.6471
  911MOL0     C22911   3.533   1.348   0.494  0.4938 -0.3284 -0.0084
  911MOL0     C22912   3.656   1.437   0.513  0.4105  0.6119  0.1388
  911MOL0     C22913   3.778   1.369   0.583 -0.2885  0.0882 -0.7552
  911MOL0     C22914   3.867   1.479   0.631  0.0941  0.2287 -0.0104
  911MOL0     C22915   3.943   1.573   0.669  0.8071  0.2710  0.2735
  911MOL0     C22916   3.196   1.208   0.397 -0.0996  0.3086 -0.0278
  911MOL0     C22917   3.099   1.138   0.465 -0.5212  0.3180  1.0464
  911MOL0     H22918   3.089   0.600   0.746 -0.1505  1.5281  1.9455
  911MOL0     H22919   2.935   0.434   0.855 -2.4897 -0.5078  1.0851
  911MOL0     H22920   2.695   0.294   0.703  0.4667 -1.9891  1.2908
  911MOL0     H22921   2.686   0.242   0.862  0.0159 -0.4472 -0.4981
  911MOL0     H22922   2.438   0.405   0.740 -0.4201 -0.0958 -1.3135
  911MOL0     H22923   2.459   0.250   0.685 -0.5950  0.6061  0.5048
  911MOL0     H22924   2.305   0.259   0.855 -0.0954  2.6715  0.4943
  911MOL0     H22925   2.433   0.153   0.904 -4.5275 -1.2458  1.6018
  911MOL0     H22926   2.514   0.360   1.065  0.7672  0.0041 -1.0192
  911MOL0     H22927   2.392   0.461   0.982  0.0758  1.0974  2.2492
  911MOL0     H22928   2.233   0.270   1.058 -0.4651  1.0359  1.3398
  911MOL0     H22929   2.365   0.244   1.182  0.9864 -0.9826 -0.7571
  911MOL0     H22930   2.329   0.486   1.260 -3.3983  0.4435  2.0844
  911MOL0     H22931   2.219   0.506   1.117 -2.8890 -1.4505 -0.5935
  911MOL0     H22932   2.086   0.318   1.232 -1.5394  1.1590  0.8147
  911MOL0     H22933   2.203   0.324   1.357 -2.6191 -0.1283  2.7973
  911MOL0     H22934   2.138   0.596   1.325  3.2436 -2.1721  2.6185
  911MOL0     H22935   2.042   0.484   1.433  1.8244 -0.3078  0.5600
  911MOL0     H22936   1.802   0.586   1.372  0.7745  2.9271 -0.7880
  911MOL0     H22937   1.594   0.619   1.069 -3.1051  0.2501  1.4980
  911MOL0     H22938   1.601   0.669   1.232 -1.7035 -1.0081 -1.0220
  911MOL0     H22939   1.759   0.805   1.006  0.9174 -3.7514  0.6864
  911MOL0     H22940   1.752   0.853   1.176  0.0148  0.7559  0.1344
  911MOL0     H22941   1.490   0.859   1.137 -1.7476 -1.7083 -2.0940
  911MOL0     H22942   1.526   0.869   0.970 -3.5830 -0.0146  1.9420
  911MOL0     H22943   1.512   1.079   1.010  0.2664  1.7106  0.9512
  911MOL0     H22944   1.685   1.055   1.018 -0.8865 -0.0685 -0.7524
  911MOL0     H22945   1.614   1.342   1.311 -0.6420  0.2777  1.2462
  911MOL0     H22946   1.394   1.609   1.313 -0.3823 -0.1451  0.0578
  911MOL0     H22947   1.349   1.550   1.476  2.5259 -2.3774  2.7054
  911MOL0     H22948   1.522   1.548   1.422  1.2720  2.0303 -2.3021
  911MOL0     H22949   1.023   1.667   1.129 -0.0797 -0.9379 -1.6977
  911MOL0     H22950   0.806   1.799   1.146 -1.4903 -0.8631 -2.5020
  911MOL0     H22951   0.461   1.615   1.404  1.8138 -0.0026  3.4034
  911MOL0     H22952   0.575   1.719   1.491  1.6216  3.5876  0.5100
  911MOL0     H22953   0.453   1.914   1.353 -1.9478  1.8508  0.4459
  911MOL0     H22954   0.317   1.805   1.386  1.4873 -1.8581 -0.8950
  911MOL0     H22955   0.502   1.960   1.581  0.4518 -1.7410  2.7228
  911MOL0     H22956   0.428   1.812   1.635 -0.6665  1.1685  0.7499
  911MOL0     H22957   0.207   1.929   1.535  0.8109  0.6735 -1.0950
  911MOL0     H22958   0.275   1.964   1.691  2.9506  3.3530  2.1560
  911MOL0     H22959   0.360   2.123   1.439 -0.6765  0.9468 -0.1417
  911MOL0     H22960   0.370   2.187   1.600 -2.3117  1.2263  0.3254
  911MOL0     H22961   0.116   2.151   1.444 -1.5484 -0.1536  0.6453
  911MOL0     H22962   0.122   2.179   1.613 -1.0642  0.0373 -0.0515
  911MOL0     H22963   0.282   2.387   1.454  1.3032 -2.1894 -2.5837
  911MOL0     H22964   0.247   2.360   1.619 -0.0364 -2.3732 -0.6913
  911MOL0     H22965   0.071   2.523   1.505 -0.4302 -0.5713  1.0200
  911MOL0     H22966  -0.016   2.372   1.532 -0.0987 -1.2993 -2.0735
  911MOL0     H22967   0.665   1.482   1.411 -1.7186 -1.9228 -2.5904
  911MOL0     H22968   0.873   1.372   1.389 -0.4828 -1.1405 -1.6245
  911MOL0     H22969   1.153   1.186   1.218 -0.2472 -0.7867  1.5530
  911MOL0     H22970   1.350   1.040   1.158  0.0187  0.0003  1.6266
  911MOL0     H22971   2.600   0.628   0.659  0.5920  3.4935 -2.8950
  911MOL0     H22972   2.748   0.803   0.589  2.2872  2.3215  0.7869
  911MOL0     H22973   3.241   0.830   0.508  1.0184 -0.1327  0.5886
  911MOL0     H22974   3.430   0.975   0.391 -1.3473 -2.3238  0.5912
  911MOL0     H22975   3.554   1.134   0.450 -2.7962  0.7830  0.6292
  911MOL0     H22976   3.626   1.235   0.332  0.9321 -2.6794  0.3495
  911MOL0     H22977   3.496   1.332   0.595  0.5430 -1.3202 -0.1434
  911MOL0     H22978   3.461   1.419   0.450  2.8715  0.8662 -2.2889
  911MOL0     H22979   3.629   1.528   0.568 -3.4433 -0.0031 -0.4382
  911MOL0     H22980   3.686   1.479   0.417 -0.3139  1.2983  0.2013
  911MOL0     H22981   3.831   1.302   0.514 -2.0482 -2.8225  0.5341
  911MOL0     H22982   3.741   1.304   0.662  0.8029  0.3134 -0.0455
  911MOL0     H22983   4.017   1.650   0.669  1.7641 -0.5820 -1.4024
  911MOL0     H22984   3.186   1.311   0.363 -0.0771  0.4366  0.3444
  911MOL0     H22985   3.017   1.204   0.490  0.0064  0.9817  1.0439
  912MOL0     O22986  11.117   8.352   0.711  0.3001 -0.0997  0.5085
  912MOL0     C22987  11.231   8.328   0.675 -0.1326 -0.5099  0.7525
  912MOL0     O22988  11.286   8.228   0.598  0.1369  0.2708 -0.7131
  912MOL0     C22989  11.204   8.123   0.568  0.0113 -0.9540 -0.5305
  912MOL0     C22990  11.216   8.070   0.446 -0.0140 -0.0223 -0.1492
  912MOL0     C22991  11.140   7.952   0.409 -0.5549  0.0091 -0.3001
  912MOL0     C22992  11.053   7.889   0.495  0.2044  0.7822 -0.6486
  912MOL0     O22993  11.004   7.772   0.441  0.3910  0.1002  0.1208
  912MOL0     C22994  10.922   7.688   0.522  0.1794  1.0126 -0.7092
  912MOL0     C22995  10.846   7.593   0.426  0.4477  0.3008  0.5006
  912MOL0     C22996  10.755   7.505   0.516  0.3737  0.7559 -0.4161
  912MOL0     C22997  10.642   7.444   0.436 -0.5017  0.3037  0.0822
  912MOL0     C22998  10.561   7.337   0.515 -0.4777  0.8017 -0.0424
  912MOL0     C22999  10.641   7.225   0.584  0.2297 -0.3224 -0.3230
  912MOL0     C23000  10.550   7.107   0.628  0.1913 -0.4459  0.4923
  912MOL0     C23001  10.493   7.122   0.775 -0.7141  0.1809  0.1549
  912MOL0     N23002  10.489   6.989   0.834  0.3545 -0.2851  0.1375
  912MOL0     C23003  10.601   6.912   0.879 -0.0275 -0.0419  0.3303
  912MOL0     C23004  10.547   6.789   0.915  0.1568 -0.5811 -0.2443
  912MOL0     C23005  10.624   6.666   0.959 -0.5444 -0.5756  0.0631
  912MOL0     C23006  10.535   6.539   0.951  0.5690 -0.9343  0.4255
  912MOL0     C23007  10.588   6.410   1.000  1.0582  0.2824  0.2067
  912MOL0     C23008  10.626   6.413   1.144 -0.4196  0.0687  0.2408
  912MOL0     O23009  10.660   6.282   1.195 -0.9009  0.3037 -0.6407
  912MOL0     C23010  10.696   6.268   1.327  0.4621  0.0194 -0.1385
  912MOL0     C23011  10.761   6.155   1.368  1.0288  0.7463 -0.2501
  912MOL0     C23012  10.780   6.131   1.505 -0.4823  0.3422 -0.8306
  912MOL0     C23013  10.828   5.991   1.536 -0.1876  0.2093  0.3244
  912MOL0     C23014  10.755   6.224   1.603  0.1503 -1.0229  0.3540
  912MOL0     C23015  10.787   6.217   1.755  0.6046 -0.2257  0.3970
  912MOL0     O23016  10.874   6.115   1.791  0.0126 -0.4750  0.0603
  912MOL0     C23017  10.896   6.094   1.922  0.7389  0.1314 -0.9684
  912MOL0     C23018  10.955   6.190   2.007  0.0320  0.7408 -0.7235
  912MOL0     C23019  10.983   6.172   2.142 -0.4161  0.3908 -0.1291
  912MOL0     C23020  10.988   6.042   2.185 -0.1401  0.4084 -0.1949
  912MOL0     O23021  11.041   6.002   2.310  0.0359  0.0084 -0.4978
  912MOL0     C23022  11.103   6.099   2.389 -0.1103  0.5398 -0.1138
  912MOL0     C23023  11.003   6.170   2.479  0.1276 -0.3342  0.1642
  912MOL0     C23024  11.008   6.318   2.507 -0.9248  0.2671 -0.2177
  912MOL0     C23025  11.156   6.341   2.555 -0.4536 -0.3658 -0.2878
  912MOL0     C23026  11.178   6.493   2.591  0.1819 -0.9731  0.1271
  912MOL0     C23027  11.329   6.522   2.596  0.5355  0.0817  0.5669
  912MOL0     C23028  11.418   6.423   2.680 -0.2979 -0.0051 -0.4927
  912MOL0     C23029  11.550   6.488   2.727  0.2864 -0.8024  0.8292
  912MOL0    Cl23030  11.640   6.532   2.590  0.1717  0.0058 -0.4689
  912MOL0     C23031  10.943   5.936   2.101 -0.6142 -0.0552  0.0335
  912MOL0     C23032  10.903   5.963   1.969 -0.4033  0.5476  0.4438
  912MOL0     O23033  10.728   6.296   1.830 -0.0652 -0.2343  0.2700
  912MOL0     C23034  10.695   6.342   1.553 -0.3979  0.6965 -0.4547
  912MOL0     C23035  10.670   6.370   1.417 -1.3329  0.1865  0.8768
  912MOL0     N23036  10.411   6.798   0.903  0.1806  0.0940 -0.2827
  912MOL0     N23037  10.379   6.916   0.860 -0.1570 -0.1219  0.3562
  912MOL0     C23038  11.040   7.945   0.619  0.5892 -0.2730 -0.0888
  912MOL0     C23039  11.111   8.061   0.651 -0.4894  0.3831 -0.0057
  912MOL0     C23040  11.324   8.438   0.702  0.1508 -0.6714 -0.5023
  912MOL0     C23041  11.270   8.567   0.733  0.0226 -0.8541  0.4469
  912MOL0     C23042  11.358   8.665   0.778  0.2871 -1.0227 -0.1192
  912MOL0     C23043  11.494   8.634   0.797 -0.4614 -0.1548  1.5336
  912MOL0     O23044  11.581   8.723   0.856  0.1005 -0.7763 -0.4697
  912MOL0     C23045  11.688   8.767   0.778 -0.1363  0.0797 -0.8407
  912MOL0     C23046  11.738   8.901   0.832 -0.5913  0.4578 -0.4369
  912MOL0     C23047  11.634   9.014   0.794 -0.7003 -0.4218 -0.4061
  912MOL0     C23048  11.653   9.158   0.855 -0.1751 -0.2053  0.5769
  912MOL0     C23049  11.620   9.170   0.994 -0.4965 -0.0129  0.1610
  912MOL0     C23050  11.605   9.169   1.110  0.3824 -0.3809  0.3318
  912MOL0     C23051  11.537   8.507   0.772 -0.6399  0.2902 -0.7375
  912MOL0     C23052  11.455   8.407   0.727  0.4858  0.5722  0.3186
  912MOL0     H23053  11.290   8.120   0.385  1.3172 -0.8298  0.7623
  912MOL0     H23054  11.163   7.921   0.307 -3.4250 -1.1978 -0.6608
  912MOL0     H23055  10.981   7.627   0.591  0.0462 -0.4568 -1.8356
  912MOL0     H23056  10.850   7.749   0.577 -1.7614 -1.7311  0.0148
  912MOL0     H23057  10.792   7.668   0.367  2.0935  2.1331  1.1995
  912MOL0     H23058  10.916   7.536   0.365  1.8167 -2.6008  4.3371
  912MOL0     H23059  10.813   7.429   0.570 -1.6381 -1.3440 -1.0684
  912MOL0     H23060  10.699   7.557   0.594  0.2064 -0.3331  0.2096
  912MOL0     H23061  10.582   7.532   0.415  2.4537  1.6288 -4.0771
  912MOL0     H23062  10.676   7.410   0.338 -2.6566 -0.6492 -0.4060
  912MOL0     H23063  10.498   7.386   0.589 -1.5866  0.3723 -0.6824
  912MOL0     H23064  10.496   7.294   0.439 -0.7373  1.9309 -0.4813
  912MOL0     H23065  10.721   7.180   0.525  0.3261 -0.7767  0.1432
  912MOL0     H23066  10.689   7.266   0.673 -1.2971 -0.9136  0.8209
  912MOL0     H23067  10.473   7.087   0.552  0.2776 -1.1776  0.5959
  912MOL0     H23068  10.614   7.021   0.649  1.1401  0.6209  2.1678
  912MOL0     H23069  10.394   7.167   0.762  0.6769  3.0169 -1.5379
  912MOL0     H23070  10.576   7.179   0.817  0.6931 -0.4055 -1.6728
  912MOL0     H23071  10.704   6.947   0.874 -0.3852  1.2290  1.2293
  912MOL0     H23072  10.713   6.648   0.898 -0.1190 -0.4122  0.6288
  912MOL0     H23073  10.669   6.685   1.057 -0.0668 -2.0223  0.1512
  912MOL0     H23074  10.516   6.529   0.844 -0.2448  1.6450  0.2717
  912MOL0     H23075  10.441   6.561   1.002  0.2471 -0.1142 -0.4886
  912MOL0     H23076  10.675   6.371   0.946  1.3958 -3.9262  3.2795
  912MOL0     H23077  10.510   6.336   0.985 -0.5162  1.6094  1.4735
  912MOL0     H23078  10.537   6.447   1.199 -0.0082  2.7358 -0.6014
  912MOL0     H23079  10.711   6.482   1.147 -0.6614  0.3701  2.6617
  912MOL0     H23080  10.813   6.100   1.291  1.3015 -0.1647  0.5631
  912MOL0     H23081  10.933   5.983   1.568  0.6284 -2.0911 -2.5136
  912MOL0     H23082  10.765   5.948   1.613 -2.5177 -1.6803 -2.4117
  912MOL0     H23083  10.798   5.927   1.453 -4.1419  1.4983  0.5838
  912MOL0     H23084  10.959   6.292   1.972  4.5001  1.5965  1.5790
  912MOL0     H23085  11.002   6.266   2.193  0.1111 -0.5055  1.4033
  912MOL0     H23086  11.190   6.071   2.449  3.2711  0.0448 -4.6817
  912MOL0     H23087  11.165   6.156   2.320  1.4669 -0.2355  0.6065
  912MOL0     H23088  10.902   6.161   2.439 -0.0166  0.9203  0.2154
  912MOL0     H23089  10.997   6.120   2.575 -1.5441 -0.1254  0.1931
  912MOL0     H23090  10.935   6.354   2.580 -1.7422  2.7216 -2.1086
  912MOL0     H23091  10.989   6.375   2.416 -2.3611 -1.5400 -1.1108
  912MOL0     H23092  11.176   6.273   2.638  1.0866 -0.2973 -0.5610
  912MOL0     H23093  11.223   6.312   2.473  2.6559  0.2726  1.8289
  912MOL0     H23094  11.148   6.509   2.695  0.3801  1.5494 -0.1320
  912MOL0     H23095  11.129   6.561   2.521  1.8125  0.2247  0.1051
  912MOL0     H23096  11.367   6.508   2.494 -1.6055  0.5893 -0.3536
  912MOL0     H23097  11.326   6.625   2.633 -1.0755 -0.0048  0.7508
  912MOL0     H23098  11.446   6.333   2.626 -0.7742  1.2851 -3.0392
  912MOL0     H23099  11.357   6.408   2.770 -0.4473  2.2298 -0.1544
  912MOL0     H23100  11.605   6.424   2.796 -0.7843 -1.2386  1.3007
  912MOL0     H23101  11.524   6.581   2.780 -3.2257 -1.9613  1.3998
  912MOL0     H23102  10.944   5.832   2.132 -0.6810  0.4136  1.7038
  912MOL0     H23103  10.874   5.895   1.889 -0.0068  0.7700  0.1105
  912MOL0     H23104  10.656   6.415   1.623  1.4555  0.8675  0.4673
  912MOL0     H23105  10.625   6.466   1.394 -1.2007  0.1252  0.3371
  912MOL0     H23106  10.979   7.898   0.695  0.5517 -1.5432 -0.8733
  912MOL0     H23107  11.091   8.096   0.752 -2.9032 -0.4838 -0.1311
  912MOL0     H23108  11.165   8.592   0.720  0.2348  0.2945  0.7818
  912MOL0     H23109  11.327   8.767   0.797  0.9064 -0.9050  0.3171
  912MOL0     H23110  11.775   8.700   0.775 -0.5295 -0.5254  0.6591
  912MOL0     H23111  11.654   8.785   0.676  1.2488  1.7292 -1.0730
  912MOL0     H23112  11.840   8.918   0.796 -1.7444 -1.7348 -5.6537
  912MOL0     H23113  11.738   8.895   0.941 -2.8822  1.1732 -0.3281
  912MOL0     H23114  11.536   8.986   0.834  0.2282 -0.6533  1.8857
  912MOL0     H23115  11.631   9.027   0.685 -3.4842 -3.6254 -0.8872
  912MOL0     H23116  11.597   9.234   0.799 -0.6063 -0.0001  1.2696
  912MOL0     H23117  11.755   9.189   0.830  0.9910 -2.1466  2.5118
  912MOL0     H23118  11.593   9.174   1.217  1.9725  2.2408  0.4694
  912MOL0     H23119  11.635   8.474   0.804 -0.0720  1.9748 -0.6358
  912MOL0     H23120  11.494   8.307   0.711 -1.2980 -0.1766  0.3576
  913MOL0     O23121   2.909   9.740  11.119  0.1459  0.0574  0.0740
  913MOL0     C23122   2.876   9.855  11.092  0.3580  0.4516 -0.9455
  913MOL0     O23123   2.964   9.957  11.077 -0.0282  0.2328  0.5551
  913MOL0     C23124   3.096   9.931  11.072 -0.0765  1.0405  0.0279
  913MOL0     C23125   3.159   9.840  10.983 -0.0541  0.6596 -0.1421
  913MOL0     C23126   3.299   9.832  10.989  0.3397  0.3066  1.0202
  913MOL0     C23127   3.381   9.912  11.063 -0.2366  0.1637 -0.8070
  913MOL0     O23128   3.519   9.891  11.039  0.1470 -0.4514 -0.4677
  913MOL0     C23129   3.609  10.004  11.074 -0.5909 -0.3762 -0.4604
  913MOL0     C23130   3.747   9.987  11.012 -0.3778  0.2550  0.4299
  913MOL0     C23131   3.816   9.876  11.081  0.2483  0.5523  0.2578
  913MOL0     C23132   3.946   9.847  11.011 -0.5000  0.0544 -0.1444
  913MOL0     C23133   4.020   9.727  11.069  0.5548 -0.2095 -0.0717
  913MOL0     C23134   4.161   9.702  11.015  0.2992 -0.0862 -1.2070
  913MOL0     C23135   4.156   9.666  10.874 -0.9418 -0.1823  0.0475
  913MOL0     C23136   4.077   9.534  10.833 -0.6221 -0.3082  0.3382
  913MOL0     N23137   4.099   9.491  10.700  0.3635 -0.3250 -0.8004
  913MOL0     C23138   4.221   9.444  10.649  0.7240  0.9404  0.6962
  913MOL0     C23139   4.198   9.398  10.522  0.6668 -0.1638 -0.6221
  913MOL0     C23140   4.305   9.329  10.450  0.4374  0.0672 -0.0485
  913MOL0     C23141   4.283   9.177  10.440 -0.7916 -0.2754 -0.2706
  913MOL0     C23142   4.373   9.109  10.334 -0.7220 -0.0557 -0.1998
  913MOL0     C23143   4.330   8.966  10.306  0.0611  0.0652 -0.1496
  913MOL0     O23144   4.337   8.905  10.432 -0.4351  0.0974 -0.8386
  913MOL0     C23145   4.303   8.774  10.429 -0.3475 -0.3139 -0.3310
  913MOL0     C23146   4.369   8.686  10.512 -0.0699 -0.2913 -0.0202
  913MOL0     C23147   4.344   8.545  10.507  0.5555  0.2978 -0.9177
  913MOL0     C23148   4.427   8.447  10.587 -0.5389 -0.8139 -0.1848
  913MOL0     C23149   4.252   8.485  10.418  0.4866 -1.0405 -0.0539
  913MOL0     C23150   4.207   8.347  10.417  0.1060  0.4961  0.1610
  913MOL0     O23151   4.220   8.266  10.528  0.0888 -0.1980 -0.1965
  913MOL0     C23152   4.166   8.138  10.517 -0.3223 -0.5634  0.3475
  913MOL0     C23153   4.049   8.095  10.572  0.0082  0.1282  0.3322
  913MOL0     C23154   4.001   7.972  10.544 -0.0899 -1.7358 -0.0994
  913MOL0     C23155   4.065   7.886  10.456 -0.1883  0.3427 -0.1791
  913MOL0     O23156   4.003   7.762  10.440  0.2894  0.0974  0.3054
  913MOL0     C23157   4.079   7.657  10.376  0.0320  0.6332 -0.2985
  913MOL0     C23158   3.979   7.573  10.301  0.2403  0.2519 -0.4236
  913MOL0     C23159   3.854   7.532  10.378  0.8140 -0.0598 -0.8503
  913MOL0     C23160   3.779   7.421  10.295  0.2110  0.2153 -0.5086
  913MOL0     C23161   3.643   7.380  10.371 -0.4741 -0.0004 -0.1978
  913MOL0     C23162   3.565   7.283  10.281  0.0669 -0.7748  0.2522
  913MOL0     C23163   3.611   7.134  10.303 -0.1274 -0.3572 -0.1933
  913MOL0     C23164   3.540   7.091  10.434 -0.1021 -0.0741  0.2823
  913MOL0    Cl23165   3.462   6.920  10.425 -0.2618  0.0431  0.3119
  913MOL0     C23166   4.190   7.912  10.409 -0.8499 -0.1397 -0.5558
  913MOL0     C23167   4.240   8.048  10.438 -0.7295 -0.0406 -0.2412
  913MOL0     O23168   4.158   8.305  10.310 -0.4749 -0.4196 -0.0435
  913MOL0     C23169   4.187   8.577  10.340  0.8031 -0.4306  0.5520
  913MOL0     C23170   4.211   8.721  10.339 -0.4592 -0.0809 -1.0384
  913MOL0     N23171   4.066   9.422  10.497  0.5829 -0.1058  0.5134
  913MOL0     N23172   4.007   9.483  10.601 -0.2952 -0.0157 -0.3756
  913MOL0     C23173   3.316   9.986  11.161 -0.7242 -1.0745  0.6155
  913MOL0     C23174   3.180  10.012  11.154  1.0518  0.2401 -0.6503
  913MOL0     C23175   2.735   9.885  11.079  0.2894  1.1822 -1.3853
  913MOL0     C23176   2.636   9.784  11.116 -0.1207 -0.0061  0.5930
  913MOL0     C23177   2.498   9.809  11.093 -0.3279 -0.3541  0.4566
  913MOL0     C23178   2.447   9.918  11.027 -0.5941 -0.0516  0.9060
  913MOL0     O23179   2.315   9.927  10.987  0.0634 -0.1246  0.7913
  913MOL0     C23180   2.293  10.021  10.881  0.9888 -0.3106 -0.4583
  913MOL0     C23181   2.148  10.008  10.824 -0.3247  0.3717  0.2227
  913MOL0     C23182   2.143  10.075  10.684 -0.4662 -0.2683 -0.1401
  913MOL0     C23183   2.026  10.026  10.608  0.2193  0.1916 -0.4138
  913MOL0     C23184   2.030  10.066  10.459 -0.4849  0.2075 -0.4023
  913MOL0     C23185   2.052  10.097  10.345  0.2676  1.2986  0.0972
  913MOL0     C23186   2.549  10.008  10.977  0.3414 -0.3694 -0.4246
  913MOL0     C23187   2.691   9.986  10.998  0.9189  0.3670  0.0608
  913MOL0     H23188   3.101   9.765  10.930 -0.1627 -1.2645  2.5278
  913MOL0     H23189   3.349   9.771  10.913 -3.6891  0.2183 -1.9191
  913MOL0     H23190   3.561  10.100  11.050  1.1742  1.3468  2.3515
  913MOL0     H23191   3.627   9.991  11.181 -4.4737 -1.8734  0.1911
  913MOL0     H23192   3.748   9.974  10.903  0.8143 -1.1637  0.5753
  913MOL0     H23193   3.808  10.078  11.014  0.4891 -0.3083  0.1983
  913MOL0     H23194   3.846   9.909  11.181 -0.1593 -3.9598  2.1221
  913MOL0     H23195   3.752   9.788  11.086  0.6882  0.2382  0.4811
  913MOL0     H23196   3.924   9.830  10.906  1.5937  2.9702 -1.1765
  913MOL0     H23197   4.007   9.938  11.010 -0.2995 -0.0825 -1.1186
  913MOL0     H23198   4.028   9.739  11.178  1.5840 -1.9087  0.0701
  913MOL0     H23199   3.944   9.649  11.056 -2.3045  2.4605 -0.7235
  913MOL0     H23200   4.217   9.795  11.029 -2.7340  1.9571 -1.6271
  913MOL0     H23201   4.208   9.622  11.073 -2.2020  0.0490  1.2386
  913MOL0     H23202   4.114   9.750  10.819  1.6538  2.4641  1.8528
  913MOL0     H23203   4.259   9.640  10.846 -1.7043 -0.9269 -2.3064
  913MOL0     H23204   3.971   9.557  10.847 -2.0063 -4.5100 -1.5230
  913MOL0     H23205   4.104   9.455  10.904  0.5388 -1.0947 -0.9359
  913MOL0     H23206   4.317   9.456  10.698  1.8594  3.0947 -1.8305
  913MOL0     H23207   4.324   9.381  10.356 -3.5181 -0.0851 -1.1175
  913MOL0     H23208   4.399   9.328  10.506  1.0083 -1.5211 -0.9673
  913MOL0     H23209   4.185   9.159  10.395 -0.9587  1.1907 -0.5565
  913MOL0     H23210   4.281   9.131  10.539  0.8982 -0.9388 -0.5169
  913MOL0     H23211   4.477   9.104  10.367 -1.3146  0.6894  1.9606
  913MOL0     H23212   4.366   9.163  10.239  2.6007  0.1882 -0.4181
  913MOL0     H23213   4.387   8.914  10.229  2.0346 -0.0369  1.2949
  913MOL0     H23214   4.230   8.967  10.263  0.4971 -0.5077 -1.2222
  913MOL0     H23215   4.447   8.722  10.579 -0.8687  2.4428 -0.4607
  913MOL0     H23216   4.382   8.433  10.686 -0.8358  1.3995  0.0253
  913MOL0     H23217   4.447   8.350  10.540  1.5576 -0.2668 -0.4801
  913MOL0     H23218   4.524   8.493  10.607 -1.5481  1.7108 -0.8235
  913MOL0     H23219   4.011   8.158  10.651  2.2426 -1.3425  2.7560
  913MOL0     H23220   3.909   7.936  10.588 -1.4078 -0.3542 -1.5647
  913MOL0     H23221   4.168   7.685  10.317  2.3799 -1.3281  2.0768
  913MOL0     H23222   4.119   7.586  10.449 -0.7689 -3.8175 -3.7486
  913MOL0     H23223   3.952   7.626  10.209 -0.0705  0.3627 -0.2692
  913MOL0     H23224   4.034   7.484  10.272  0.0497 -0.0213  0.0423
  913MOL0     H23225   3.791   7.620  10.395 -0.4081 -1.2667  1.3365
  913MOL0     H23226   3.894   7.491  10.471  2.5206  1.0564 -1.0360
  913MOL0     H23227   3.755   7.457  10.194  0.1389  2.1952  0.1738
  913MOL0     H23228   3.853   7.341  10.302 -0.3094 -0.2553 -0.3902
  913MOL0     H23229   3.580   7.468  10.389 -2.3890 -0.8375 -2.3257
  913MOL0     H23230   3.664   7.325  10.464  1.3731  0.4170 -0.3505
  913MOL0     H23231   3.460   7.297  10.307  0.1962 -1.6168  1.2992
  913MOL0     H23232   3.577   7.314  10.176 -2.6062 -2.7433 -0.7560
  913MOL0     H23233   3.718   7.119  10.320 -0.4208  0.1959  2.6174
  913MOL0     H23234   3.586   7.062  10.224  0.0867 -1.1962  0.4835
  913MOL0     H23235   3.453   7.158  10.443 -0.8328 -0.8970 -0.4992
  913MOL0     H23236   3.594   7.114  10.527 -2.0007  2.8954  0.8166
  913MOL0     H23237   4.259   7.838  10.368 -1.9406 -0.6253 -1.5719
  913MOL0     H23238   4.334   8.071  10.389 -0.2568 -1.5858 -0.1065
  913MOL0     H23239   4.116   8.537  10.268  3.6453  0.3742 -3.0101
  913MOL0     H23240   4.156   8.784  10.271 -1.5956  0.1082  0.0242
  913MOL0     H23241   3.369  10.047  11.233  0.4571  1.4369 -2.1767
  913MOL0     H23242   3.123  10.079  11.217  1.3200 -1.5727  1.6762
  913MOL0     H23243   2.658   9.693  11.170 -1.7918 -0.2050  0.9819
  913MOL0     H23244   2.429   9.737  11.137 -0.0181 -0.6791  0.4197
  913MOL0     H23245   2.307  10.122  10.923 -0.1880 -0.7543  1.0686
  913MOL0     H23246   2.362  10.011  10.797 -0.7670 -0.5010 -1.9424
  913MOL0     H23247   2.070  10.045  10.890 -1.5472  0.5191 -1.2429
  913MOL0     H23248   2.130   9.902  10.808  3.6701 -0.8696  2.6308
  913MOL0     H23249   2.236  10.056  10.629 -0.3017 -0.3127  0.1537
  913MOL0     H23250   2.131  10.183  10.694 -6.7904 -0.6777  0.9307
  913MOL0     H23251   1.930  10.054  10.652 -1.9276 -3.1470 -2.4542
  913MOL0     H23252   2.019   9.917  10.602 -1.6575  0.1440  1.4323
  913MOL0     H23253   2.072  10.110  10.241  2.4436 -0.4556  0.2162
  913MOL0     H23254   2.528  10.096  10.917 -0.3731 -1.0880 -1.2362
  913MOL0     H23255   2.770  10.045  10.953  2.0862  1.1545  2.9554
  914MOL0     O23256   5.545  10.728   8.703  0.2226 -0.0748  0.8769
  914MOL0     C23257   5.590  10.615   8.696  0.3609 -0.0980  0.5188
  914MOL0     O23258   5.523  10.504   8.635 -0.2861  0.1306  0.1159
  914MOL0     C23259   5.385  10.499   8.618 -0.9017  1.0700 -0.7607
  914MOL0     C23260   5.337  10.376   8.557  1.2373 -0.5207 -0.7776
  914MOL0     C23261   5.198  10.352   8.527 -0.1032 -0.3806 -0.1150
  914MOL0     C23262   5.108  10.461   8.541 -0.2296  0.8269  0.8350
  914MOL0     O23263   4.970  10.430   8.518 -0.1702 -0.5126 -0.0315
  914MOL0     C23264   4.882  10.524   8.579 -0.4620 -0.9560  0.6163
  914MOL0     C23265   4.737  10.481   8.547  0.2430 -0.2174  0.8293
  914MOL0     C23266   4.653  10.569   8.633  0.0510 -1.2808  0.2853
  914MOL0     C23267   4.507  10.530   8.643  0.4376 -0.1607  0.2488
  914MOL0     C23268   4.422  10.513   8.514  0.9481 -0.3247  0.4105
  914MOL0     C23269   4.430  10.626   8.409  0.1627 -0.2137  0.1569
  914MOL0     C23270   4.316  10.617   8.306 -0.0876  0.3773 -1.0808
  914MOL0     C23271   4.367  10.649   8.165 -1.0255  1.0231  0.7917
  914MOL0     N23272   4.275  10.688   8.066  1.0990 -0.5054 -0.2270
  914MOL0     C23273   4.156  10.623   8.048 -0.0569 -0.4604  0.6747
  914MOL0     C23274   4.110  10.666   7.930 -1.1714  0.0416 -0.7573
  914MOL0     C23275   3.991  10.632   7.854  0.0216  0.9711  0.2469
  914MOL0     C23276   3.877  10.644   7.960 -0.9721 -0.5491 -0.4982
  914MOL0     C23277   3.738  10.601   7.930  0.4722 -0.2923  0.9493
  914MOL0     C23278   3.716  10.554   7.782 -0.2660 -0.0449  0.2219
  914MOL0     O23279   3.577  10.517   7.766 -0.0708  0.0109  0.0385
  914MOL0     C23280   3.520  10.538   7.650 -0.0687 -0.6978 -0.7075
  914MOL0     C23281   3.576  10.492   7.533  0.2472  0.0042 -0.4142
  914MOL0     C23282   3.507  10.516   7.411  0.5058 -0.0314 -0.6247
  914MOL0     C23283   3.583  10.470   7.284 -0.5709 -0.2100  0.0318
  914MOL0     C23284   3.377  10.567   7.414 -0.3111 -0.2882 -0.2438
  914MOL0     C23285   3.280  10.565   7.310  0.1418 -0.0311 -0.1087
  914MOL0     O23286   3.330  10.598   7.184  0.3493 -0.9248  0.1578
  914MOL0     C23287   3.238  10.615   7.084  0.0789 -0.6477  0.3182
  914MOL0     C23288   3.269  10.593   6.946  0.2901 -0.3869  0.4053
  914MOL0     C23289   3.173  10.624   6.851 -0.1311  0.4014  0.4626
  914MOL0     C23290   3.051  10.690   6.878  0.6589  0.5395  0.4277
  914MOL0     O23291   2.951  10.705   6.792  0.1836  1.2459  0.0991
  914MOL0     C23292   2.939  10.610   6.691 -0.6674  0.1852 -0.3490
  914MOL0     C23293   2.805  10.626   6.620  0.6482 -0.7051  0.4484
  914MOL0     C23294   2.697  10.544   6.699  0.7553 -0.4472 -0.0636
  914MOL0     C23295   2.560  10.536   6.635 -1.2362 -0.4201  0.0153
  914MOL0     C23296   2.510  10.394   6.674 -0.1733 -0.1092  0.0876
  914MOL0     C23297   2.359  10.374   6.664 -0.5567  0.6216 -0.1371
  914MOL0     C23298   2.329  10.238   6.736 -0.6751  0.6705  0.0005
  914MOL0     C23299   2.181  10.208   6.719 -0.1952 -0.0350 -0.9433
  914MOL0    Cl23300   2.138  10.189   6.541 -0.3540  0.0269  0.3833
  914MOL0     C23301   3.023  10.718   7.011 -0.7912 -0.6900 -1.3028
  914MOL0     C23302   3.113  10.682   7.112  0.2183 -0.2425 -0.7107
  914MOL0     O23303   3.171  10.520   7.332  0.4890  1.0733  0.5597
  914MOL0     C23304   3.319  10.610   7.538 -0.3538 -0.5910 -0.6243
  914MOL0     C23305   3.395  10.598   7.652 -0.3496 -0.4110  1.3515
  914MOL0     N23306   4.192  10.768   7.880  1.0522 -0.6166 -0.5913
  914MOL0     N23307   4.284  10.778   7.963 -0.0875 -0.7165 -0.6055
  914MOL0     C23308   5.162  10.588   8.583  1.2639  0.3856  0.4667
  914MOL0     C23309   5.298  10.606   8.617 -0.5601  0.8746 -0.0771
  914MOL0     C23310   5.726  10.597   8.754  0.1920 -1.1134 -0.8389
  914MOL0     C23311   5.780  10.471   8.765 -0.3848  0.1688 -0.1075
  914MOL0     C23312   5.906  10.453   8.837  0.0188  1.0051 -1.2961
  914MOL0     C23313   5.973  10.557   8.895  0.7785  0.6061  0.1936
  914MOL0     O23314   6.088  10.517   8.959 -0.4299  0.1546 -0.4633
  914MOL0     C23315   6.157  10.628   9.016 -0.3515 -0.0641  0.9626
  914MOL0     C23316   6.282  10.563   9.074 -0.0151 -0.0347  0.2027
  914MOL0     C23317   6.397  10.653   9.119  0.1380 -0.0534 -0.9831
  914MOL0     C23318   6.521  10.585   9.166 -0.1926 -0.1684  0.0415
  914MOL0     C23319   6.629  10.676   9.210 -0.2587 -0.1247  0.9733
  914MOL0     C23320   6.716  10.761   9.235  0.8885 -0.4308  1.3476
  914MOL0     C23321   5.913  10.682   8.893 -0.6489 -0.3745  0.0558
  914MOL0     C23322   5.791  10.699   8.828  0.4532 -0.2228  0.1493
  914MOL0     H23323   5.416  10.307   8.531  2.1278  0.8463 -1.8733
  914MOL0     H23324   5.171  10.254   8.487  1.6516 -0.5121 -1.0637
  914MOL0     H23325   4.905  10.532   8.685  0.4525 -1.0251  0.4292
  914MOL0     H23326   4.890  10.625   8.537  2.0111 -0.0264  3.0594
  914MOL0     H23327   4.705  10.501   8.444  1.8147 -1.5006  0.0410
  914MOL0     H23328   4.737  10.373   8.566 -1.3672 -0.0906  1.7322
  914MOL0     H23329   4.690  10.577   8.736 -1.3285 -1.9303  0.8663
  914MOL0     H23330   4.652  10.671   8.594 -0.6240  0.1444  3.6533
  914MOL0     H23331   4.499  10.437   8.700  2.0216  0.8493  2.2140
  914MOL0     H23332   4.463  10.615   8.696 -0.2638 -0.9516  0.9539
  914MOL0     H23333   4.474  10.429   8.466  0.7881  0.1044 -0.5231
  914MOL0     H23334   4.324  10.469   8.537  1.4259 -0.9133  1.4213
  914MOL0     H23335   4.414  10.720   8.462 -0.8189  0.5446 -1.3838
  914MOL0     H23336   4.529  10.632   8.362 -1.2239  2.9184 -2.7844
  914MOL0     H23337   4.261  10.522   8.309  1.5145 -0.6395 -2.2418
  914MOL0     H23338   4.245  10.698   8.323 -0.9618 -0.3602 -1.0911
  914MOL0     H23339   4.407  10.548   8.148 -0.7418  0.9785  1.6490
  914MOL0     H23340   4.450  10.720   8.161 -0.6829  0.5656 -0.9906
  914MOL0     H23341   4.126  10.537   8.108 -0.3286  0.1230  1.3925
  914MOL0     H23342   3.972  10.693   7.765  0.2650 -1.0805 -1.2843
  914MOL0     H23343   3.988  10.532   7.811 -0.4082  1.2782 -0.4496
  914MOL0     H23344   3.876  10.742   8.008  2.3080  0.0561 -1.3813
  914MOL0     H23345   3.913  10.571   8.033  4.8778  0.7957 -1.5111
  914MOL0     H23346   3.663  10.680   7.938 -2.2922 -2.7908  1.6616
  914MOL0     H23347   3.704  10.518   7.993  1.1251 -0.9538  0.4580
  914MOL0     H23348   3.772  10.463   7.755 -1.6048 -0.7470 -0.2750
  914MOL0     H23349   3.739  10.638   7.716  1.6867  0.4362  1.4357
  914MOL0     H23350   3.670  10.438   7.541  0.5887  0.6938  0.3858
  914MOL0     H23351   3.532  10.395   7.223  0.8390 -1.1475 -0.0438
  914MOL0     H23352   3.605  10.560   7.224 -0.2244 -0.1906  0.1852
  914MOL0     H23353   3.673  10.416   7.316  0.6056  0.7521 -1.4800
  914MOL0     H23354   3.368  10.558   6.919  0.7840  0.2121  1.3750
  914MOL0     H23355   3.191  10.598   6.747 -5.9887 -4.4162  0.1152
  914MOL0     H23356   3.020  10.640   6.624  3.3240  0.7171  4.1334
  914MOL0     H23357   2.945  10.506   6.725 -1.7199  0.6650  1.4432
  914MOL0     H23358   2.781  10.730   6.596  0.1575 -0.3601  2.2747
  914MOL0     H23359   2.821  10.574   6.525  0.0544  0.1005 -0.1087
  914MOL0     H23360   2.676  10.607   6.786 -0.6212 -0.3552 -0.4432
  914MOL0     H23361   2.741  10.446   6.717 -0.2686 -0.5541  2.2301
  914MOL0     H23362   2.498  10.622   6.663  1.6915  1.5845  0.7275
  914MOL0     H23363   2.567  10.539   6.526 -3.0188  2.3466 -0.1224
  914MOL0     H23364   2.520  10.393   6.783 -1.4865  2.1022  0.2997
  914MOL0     H23365   2.570  10.317   6.625  0.6224  0.5406  0.0214
  914MOL0     H23366   2.301  10.452   6.715  1.5565  1.6881  0.7384
  914MOL0     H23367   2.328  10.355   6.561 -2.8400 -2.9458  1.0223
  914MOL0     H23368   2.341  10.254   6.843 -1.3023 -0.0914  0.1895
  914MOL0     H23369   2.395  10.154   6.712  0.0277  1.5091 -1.1025
  914MOL0     H23370   2.119  10.287   6.763  3.2631  1.1844  2.3356
  914MOL0     H23371   2.168  10.117   6.778 -1.9065  1.8185  1.7555
  914MOL0     H23372   2.931  10.766   7.043  0.0720  2.3097 -2.9577
  914MOL0     H23373   3.082  10.704   7.213  1.7113 -0.6488 -0.1449
  914MOL0     H23374   3.219  10.649   7.553 -0.0740  0.0287 -0.3234
  914MOL0     H23375   3.354  10.630   7.747 -0.9544  1.1356  0.6058
  914MOL0     H23376   5.100  10.677   8.575 -1.5826 -1.3010  2.0782
  914MOL0     H23377   5.318  10.708   8.646 -0.9556  1.0820 -0.5208
  914MOL0     H23378   5.739  10.376   8.734 -3.2664  1.1509  0.3643
  914MOL0     H23379   5.946  10.352   8.836 -3.4435 -0.7774  3.0688
  914MOL0     H23380   6.186  10.710   8.950  1.1211  1.0190  2.8792
  914MOL0     H23381   6.093  10.673   9.092 -1.3963 -0.3954  0.2985
  914MOL0     H23382   6.319  10.475   9.021 -0.6129 -0.9135  1.1898
  914MOL0     H23383   6.254  10.511   9.167  1.3718  1.3948  1.4830
  914MOL0     H23384   6.358  10.707   9.206  0.9530  1.7713 -1.7232
  914MOL0     H23385   6.402  10.729   9.041 -1.2016  1.0086 -0.1026
  914MOL0     H23386   6.555  10.514   9.090  2.9680 -1.1804  2.1810
  914MOL0     H23387   6.490  10.532   9.257  0.4328  0.5075  0.6587
  914MOL0     H23388   6.798  10.829   9.248  1.4585 -0.5988 -1.0206
  914MOL0     H23389   5.964  10.766   8.938  1.8843 -1.9024  0.2837
  914MOL0     H23390   5.757  10.802   8.825  3.0178  0.7359  1.3881
  915MOL0     O23391  11.088   8.242   3.124 -0.1387  0.0131  0.3298
  915MOL0     C23392  11.172   8.234   3.217 -0.8132  0.1852  0.3698
  915MOL0     O23393  11.154   8.171   3.328 -0.9843 -1.3028  0.7423
  915MOL0     C23394  11.038   8.150   3.380  0.3785 -0.9266  0.2270
  915MOL0     C23395  10.936   8.244   3.385  1.3198 -0.6380 -0.0149
  915MOL0     C23396  10.807   8.215   3.419  0.9816  0.0793  0.8475
  915MOL0     C23397  10.780   8.085   3.464 -0.1562  0.6532 -0.1739
  915MOL0     O23398  10.657   8.048   3.508  0.2634 -0.4084  0.1657
  915MOL0     C23399  10.546   8.135   3.522  0.1713 -0.1179 -0.1916
  915MOL0     C23400  10.490   8.167   3.385 -0.6487 -0.1852  0.1033
  915MOL0     C23401  10.396   8.053   3.333  0.1776 -0.4759  0.2782
  915MOL0     C23402  10.353   8.105   3.189 -0.1976  0.2589 -0.6813
  915MOL0     C23403  10.234   8.019   3.131  0.5050 -0.3378  0.0388
  915MOL0     C23404  10.233   8.009   2.978 -0.1259 -0.3553 -0.0808
  915MOL0     C23405  10.150   8.118   2.922  0.3328  0.0067  0.2632
  915MOL0     C23406  10.111   8.098   2.775 -0.2155  0.1072  0.0617
  915MOL0     N23407  10.236   8.084   2.693  0.2807  0.5134 -0.9561
  915MOL0     C23408  10.274   7.976   2.622 -0.3420  0.8337  0.0149
  915MOL0     C23409  10.390   8.010   2.560 -0.7818  0.5616  0.1767
  915MOL0     C23410  10.450   7.933   2.442  0.4690  0.1625  0.2003
  915MOL0     C23411  10.523   7.805   2.491 -0.1762 -0.1970 -0.4476
  915MOL0     C23412  10.641   7.843   2.592  0.4418  0.2878 -0.3813
  915MOL0     C23413  10.721   7.720   2.640 -0.5533 -0.2384  0.6323
  915MOL0     O23414  10.809   7.757   2.744  0.0059 -0.4280 -0.5639
  915MOL0     C23415  10.939   7.729   2.728  0.2207 -0.3659 -0.2213
  915MOL0     C23416  11.006   7.659   2.833 -0.0456  0.2578  0.2391
  915MOL0     C23417  11.148   7.641   2.831  0.9140  0.1898 -0.0413
  915MOL0     C23418  11.183   7.540   2.940  0.2783 -0.7597  0.2192
  915MOL0     C23419  11.227   7.701   2.726  0.1794  1.5203 -0.1185
  915MOL0     C23420  11.370   7.710   2.719 -0.7253 -0.9064  0.3394
  915MOL0     O23421  11.418   7.811   2.646 -0.0653 -0.0341 -0.1429
  915MOL0     C23422  11.549   7.835   2.617 -0.2086 -0.4939 -0.8767
  915MOL0     C23423  11.660   7.746   2.635 -0.3085  1.1175  0.5373
  915MOL0     C23424  11.794   7.774   2.584  0.1379  0.5616 -0.9231
  915MOL0     C23425  11.817   7.892   2.519  0.4079  0.5666 -0.6154
  915MOL0     O23426  11.945   7.911   2.468  0.3920 -0.3862 -0.6047
  915MOL0     C23427  11.992   8.041   2.439 -0.0156 -0.1826  0.4366
  915MOL0     C23428  12.136   8.046   2.476 -0.4350  0.8004  0.2265
  915MOL0     C23429  12.224   7.957   2.377  0.1031 -0.0452 -0.1947
  915MOL0     C23430  12.240   7.821   2.437 -0.4376 -0.2204 -0.1111
  915MOL0     C23431  12.309   7.736   2.331 -0.5467  0.0294 -0.4921
  915MOL0     C23432  12.307   7.584   2.336  0.3678  0.7501  0.3367
  915MOL0     C23433  12.156   7.543   2.323 -0.2376 -0.2722 -0.6602
  915MOL0     C23434  12.153   7.391   2.289  0.7989 -0.2069  1.2478
  915MOL0    Cl23435  12.205   7.291   2.441 -0.1054 -0.0944  0.1433
  915MOL0     C23436  11.712   7.980   2.510  0.8833 -0.6541 -0.5696
  915MOL0     C23437  11.579   7.957   2.553 -0.1579 -0.6457  1.0081
  915MOL0     O23438  11.442   7.634   2.783  0.1423 -0.3598  0.6410
  915MOL0     C23439  11.147   7.768   2.627 -0.9548  1.1936  0.8613
  915MOL0     C23440  11.013   7.780   2.624  0.6621  0.0458 -0.3957
  915MOL0     N23441  10.417   8.148   2.596  0.5570 -0.4471 -0.5641
  915MOL0     N23442  10.324   8.186   2.681  0.1193 -0.1575 -0.4381
  915MOL0     C23443  10.888   7.994   3.484 -0.2824  0.2112 -0.0816
  915MOL0     C23444  11.012   8.025   3.433 -0.4645 -0.7847 -1.6915
  915MOL0     C23445  11.314   8.278   3.192  0.5912  0.0232 -0.2858
  915MOL0     C23446  11.349   8.311   3.057 -0.7373 -1.0384 -0.0439
  915MOL0     C23447  11.490   8.341   3.033  1.2852  0.5498 -0.2459
  915MOL0     C23448  11.579   8.347   3.145 -0.2276 -0.2543 -0.6391
  915MOL0     O23449  11.715   8.368   3.126 -0.3267  0.4511  0.7875
  915MOL0     C23450  11.737   8.496   3.055  0.3635  0.5179 -1.1289
  915MOL0     C23451  11.888   8.530   3.072  0.2500 -0.2399 -0.2101
  915MOL0     C23452  11.905   8.659   2.977 -0.7853 -0.3542  0.1180
  915MOL0     C23453  12.047   8.686   2.930  0.3820  0.0511  0.0312
  915MOL0     C23454  12.063   8.821   2.871  0.2761  0.4576  0.4921
  915MOL0     C23455  12.060   8.931   2.828 -1.4168 -0.0770 -0.2367
  915MOL0     C23456  11.537   8.314   3.273  0.4931 -0.4989 -0.0814
  915MOL0     C23457  11.407   8.286   3.302  0.4184 -0.7709  0.5657
  915MOL0     H23458  10.959   8.345   3.353 -0.5791  0.0689  0.6620
  915MOL0     H23459  10.722   8.282   3.419  0.1057 -0.9957  0.0546
  915MOL0     H23460  10.470   8.086   3.583  1.8281  0.6404  2.6536
  915MOL0     H23461  10.577   8.222   3.579  1.0599 -0.1557 -0.5987
  915MOL0     H23462  10.437   8.262   3.397 -1.2259 -0.7170  2.0942
  915MOL0     H23463  10.569   8.182   3.310 -0.3906  1.9459  0.7366
  915MOL0     H23464  10.444   7.955   3.327  2.6137  0.7207 -2.2572
  915MOL0     H23465  10.311   8.047   3.401  0.3210  0.6581  0.5820
  915MOL0     H23466  10.332   8.212   3.181 -0.0929  0.3703  0.3991
  915MOL0     H23467  10.444   8.087   3.131  0.8023  3.8375 -0.4386
  915MOL0     H23468  10.256   7.918   3.168  0.3493 -1.4221 -2.6043
  915MOL0     H23469  10.136   8.047   3.171 -0.5777 -3.4839 -0.1262
  915MOL0     H23470  10.338   7.999   2.947 -0.4104 -0.5481 -1.0234
  915MOL0     H23471  10.183   7.916   2.950 -0.0927  0.2662 -2.4620
  915MOL0     H23472  10.055   8.126   2.975  0.6931 -0.3719  0.9813
  915MOL0     H23473  10.209   8.210   2.921 -2.3200  1.8139 -1.1735
  915MOL0     H23474  10.051   8.183   2.740  0.2162  1.1216  1.6566
  915MOL0     H23475  10.054   8.006   2.763 -1.1435  0.9521 -2.5203
  915MOL0     H23476  10.215   7.890   2.592  1.5652 -0.4062 -0.3975
  915MOL0     H23477  10.362   7.909   2.381  0.3483 -1.4509  0.9636
  915MOL0     H23478  10.513   8.007   2.391 -2.5324  2.2557 -0.8350
  915MOL0     H23479  10.560   7.743   2.409  0.7123  1.3741 -1.2686
  915MOL0     H23480  10.440   7.756   2.543 -2.1384  1.0360 -2.2856
  915MOL0     H23481  10.618   7.904   2.679  0.7848  1.1898 -0.8991
  915MOL0     H23482  10.717   7.903   2.539  1.4101  0.1332  0.7793
  915MOL0     H23483  10.768   7.663   2.560  1.4005  2.3536 -0.1668
  915MOL0     H23484  10.654   7.642   2.679 -0.5901 -1.0448 -0.9780
  915MOL0     H23485  10.947   7.623   2.917  1.7667 -4.1558 -0.1435
  915MOL0     H23486  11.112   7.550   3.023 -0.1254 -0.9874 -0.0902
  915MOL0     H23487  11.183   7.437   2.903  0.3129  0.6010 -4.1813
  915MOL0     H23488  11.278   7.571   2.984 -0.9909  2.8033  0.7782
  915MOL0     H23489  11.661   7.654   2.692 -2.7053  1.6299  1.5352
  915MOL0     H23490  11.875   7.702   2.590  0.9378  1.4323 -0.8928
  915MOL0     H23491  11.992   8.073   2.334  3.0880 -1.4558 -0.0719
  915MOL0     H23492  11.927   8.113   2.488 -1.0754 -0.1123 -1.0050
  915MOL0     H23493  12.182   8.145   2.483  1.7582 -0.2366  1.5419
  915MOL0     H23494  12.142   8.017   2.581 -3.0298 -0.2268  0.1529
  915MOL0     H23495  12.319   8.008   2.359  0.0899  0.2198  0.4512
  915MOL0     H23496  12.163   7.957   2.286 -0.3328  2.4211  0.0271
  915MOL0     H23497  12.309   7.833   2.521 -1.9494  0.6166  1.0578
  915MOL0     H23498  12.147   7.776   2.471  0.7886 -1.7293  1.4651
  915MOL0     H23499  12.412   7.772   2.328 -1.6077  3.5741  0.9634
  915MOL0     H23500  12.279   7.766   2.230 -0.7853 -0.6222 -0.6211
  915MOL0     H23501  12.373   7.543   2.259 -0.0912 -0.7497  0.7060
  915MOL0     H23502  12.349   7.556   2.433 -1.3681 -1.2422  0.5955
  915MOL0     H23503  12.108   7.603   2.244 -0.4527  1.2096  0.5367
  915MOL0     H23504  12.092   7.566   2.409 -1.3446  4.7792 -2.4671
  915MOL0     H23505  12.215   7.359   2.205 -1.7821 -0.5437 -0.6662
  915MOL0     H23506  12.049   7.373   2.259  0.8307 -0.4959  1.3035
  915MOL0     H23507  11.731   8.073   2.457 -2.2345  1.7429  2.1242
  915MOL0     H23508  11.498   8.027   2.535 -0.4072 -1.1523  0.1279
  915MOL0     H23509  11.187   7.804   2.532 -1.8888 -2.7243 -1.2355
  915MOL0     H23510  10.955   7.816   2.539 -1.1275  1.4559  1.3370
  915MOL0     H23511  10.871   7.898   3.532  1.1684 -0.0694 -0.0687
  915MOL0     H23512  11.083   7.945   3.419 -0.1163 -0.7322 -0.3399
  915MOL0     H23513  11.282   8.297   2.972 -2.6260 -3.8360  1.7326
  915MOL0     H23514  11.527   8.347   2.931  0.6782 -0.2586 -0.5241
  915MOL0     H23515  11.711   8.482   2.950  0.4788  0.9761 -1.2162
  915MOL0     H23516  11.674   8.570   3.105  1.7578 -1.2000  3.7947
  915MOL0     H23517  11.955   8.447   3.047  0.8892  1.4740 -5.4163
  915MOL0     H23518  11.911   8.559   3.174  1.6905 -0.9347 -0.3072
  915MOL0     H23519  11.854   8.745   3.020  0.3198  0.1110  0.5617
  915MOL0     H23520  11.854   8.637   2.883 -0.1542 -3.0773  0.3304
  915MOL0     H23521  12.078   8.600   2.869  2.4245 -2.5165  4.1620
  915MOL0     H23522  12.102   8.696   3.024 -1.5934  2.4884  1.0330
  915MOL0     H23523  12.050   9.024   2.775 -1.2341  0.0533 -0.0457
  915MOL0     H23524  11.615   8.324   3.348  0.1195  1.0298  0.1463
  915MOL0     H23525  11.366   8.268   3.401 -1.8358  0.5193 -0.0594
  916MOL0     O23526   2.694   9.663   2.206 -0.3472 -0.1984  0.1819
  916MOL0     C23527   2.755   9.768   2.207 -0.4762  1.1086 -0.7981
  916MOL0     O23528   2.716   9.885   2.151 -0.3080 -0.3107 -0.5342
  916MOL0     C23529   2.593   9.904   2.076 -0.9112  1.2139  1.0752
  916MOL0     C23530   2.532  10.026   2.074 -0.5269 -0.0548 -0.3369
  916MOL0     C23531   2.442  10.056   1.974 -0.2269 -0.0709 -0.8336
  916MOL0     C23532   2.396   9.965   1.874  0.0023  0.1673 -0.1213
  916MOL0     O23533   2.295   9.995   1.786  0.1346 -0.2473  0.2493
  916MOL0     C23534   2.194  10.079   1.833 -0.5763 -1.4038  0.0811
  916MOL0     C23535   2.084  10.075   1.726 -0.3060 -0.1212  0.4932
  916MOL0     C23536   2.137  10.111   1.580  0.4368  0.6541 -0.6599
  916MOL0     C23537   2.027  10.068   1.476 -0.3420  0.7395  0.3187
  916MOL0     C23538   2.077  10.063   1.333  0.4944  0.0060  1.0505
  916MOL0     C23539   1.967  10.053   1.227 -0.2607 -1.4505 -0.0741
  916MOL0     C23540   1.848   9.954   1.264 -0.2039 -0.4424  0.8973
  916MOL0     C23541   1.754   9.954   1.145  0.9314  1.0793  0.9446
  916MOL0     N23542   1.634   9.872   1.194 -0.5321  0.5694  0.1574
  916MOL0     C23543   1.518   9.911   1.263  0.6417 -0.0994  0.1736
  916MOL0     C23544   1.438   9.806   1.245  0.0345  0.4992  0.0285
  916MOL0     C23545   1.290   9.818   1.296 -0.2753 -0.8616  0.1801
  916MOL0     C23546   1.265   9.724   1.408  0.1162  0.3929 -0.1780
  916MOL0     C23547   1.120   9.755   1.462  0.0390  0.7293 -0.0090
  916MOL0     C23548   1.053   9.625   1.511  0.5548 -0.4581  0.3085
  916MOL0     O23549   0.937   9.672   1.584  0.6095  0.2414  0.3208
  916MOL0     C23550   0.834   9.585   1.637  0.3348  0.2516 -0.8773
  916MOL0     C23551   0.830   9.444   1.631 -0.7716 -0.2406 -0.1945
  916MOL0     C23552   0.726   9.376   1.700 -0.6779 -0.5873 -0.8583
  916MOL0     C23553   0.748   9.226   1.680 -0.7777 -0.0310  0.7143
  916MOL0     C23554   0.625   9.440   1.762 -0.6049 -0.2454 -0.1509
  916MOL0     C23555   0.521   9.366   1.842  0.1355 -0.1453 -0.0787
  916MOL0     O23556   0.449   9.438   1.933 -0.0965  0.4547 -0.8203
  916MOL0     C23557   0.336   9.377   1.986  0.3213 -0.7478  0.1680
  916MOL0     C23558   0.234   9.324   1.910  0.1437 -0.4488  0.7097
  916MOL0     C23559   0.119   9.277   1.969  0.8268 -0.6179  0.3865
  916MOL0     C23560   0.090   9.305   2.100  0.0363 -0.2812 -0.5355
  916MOL0     O23561  -0.024   9.249   2.151 -0.7184 -0.6660 -0.7634
  916MOL0     C23562  -0.080   9.135   2.086  0.0795 -0.5634  0.1878
  916MOL0     C23563  -0.160   9.043   2.186 -1.0705 -1.1984  0.3375
  916MOL0     C23564  -0.207   8.916   2.121 -0.3795 -0.6741  0.2664
  916MOL0     C23565  -0.335   8.872   2.200  0.4093  1.1414  0.0744
  916MOL0     C23566  -0.384   8.750   2.117  0.3424 -0.4196  0.0918
  916MOL0     C23567  -0.301   8.621   2.149  0.6400 -0.5394 -0.4504
  916MOL0     C23568  -0.352   8.496   2.072 -0.9178 -0.0153  0.0806
  916MOL0     C23569  -0.227   8.412   2.058 -0.1667  1.3197  0.0662
  916MOL0    Cl23570  -0.185   8.340   2.214  0.0329  0.4936 -0.2387
  916MOL0     C23571   0.187   9.368   2.179  1.0212 -0.5624  0.2776
  916MOL0     C23572   0.309   9.393   2.126 -0.3406 -0.1168  0.8536
  916MOL0     O23573   0.516   9.249   1.817 -0.1839  0.3511  0.0501
  916MOL0     C23574   0.631   9.584   1.760  0.4736  0.6904 -0.4656
  916MOL0     C23575   0.735   9.651   1.708  0.0632 -0.2897  0.6754
  916MOL0     N23576   1.510   9.708   1.178  0.2064 -0.3958 -0.1263
  916MOL0     N23577   1.625   9.740   1.161  0.3157  0.9274  0.9407
  916MOL0     C23578   2.458   9.843   1.872 -0.9173  0.8190 -0.2513
  916MOL0     C23579   2.552   9.821   1.970 -0.0404  0.8790 -0.1522
  916MOL0     C23580   2.881   9.777   2.294 -0.3345 -0.4359  0.0480
  916MOL0     C23581   2.938   9.656   2.334  0.7995  0.6415  1.0777
  916MOL0     C23582   3.065   9.654   2.388 -0.4149  0.2506 -0.5999
  916MOL0     C23583   3.126   9.777   2.412 -0.8628  0.1429 -0.9015
  916MOL0     O23584   3.247   9.759   2.476 -0.2429  0.4183 -0.4922
  916MOL0     C23585   3.328   9.874   2.510  0.1052 -1.5008 -0.5310
  916MOL0     C23586   3.447   9.818   2.590  0.3598 -0.1349  0.3029
  916MOL0     C23587   3.574   9.904   2.562  0.3517 -1.4231 -0.4973
  916MOL0     C23588   3.687   9.844   2.650 -0.6336 -0.6921  0.5600
  916MOL0     C23589   3.812   9.924   2.644 -0.6951  0.6051  0.4111
  916MOL0     C23590   3.913   9.975   2.670  0.2662 -0.4157  0.0922
  916MOL0     C23591   3.075   9.895   2.379 -0.0449 -0.6183  0.2562
  916MOL0     C23592   2.946   9.902   2.320  0.4085  0.2858 -0.6844
  916MOL0     H23593   2.552  10.103   2.148  0.0610 -2.3858  2.0958
  916MOL0     H23594   2.408  10.158   1.992 -0.6855 -0.5730  1.5950
  916MOL0     H23595   2.165  10.042   1.932  1.3527 -3.2717  0.0327
  916MOL0     H23596   2.233  10.181   1.837 -0.7047 -1.3022  5.0230
  916MOL0     H23597   2.049   9.971   1.720 -1.4767  0.3366 -1.1948
  916MOL0     H23598   1.999  10.133   1.763  0.8603  2.2208 -0.2895
  916MOL0     H23599   2.162  10.215   1.560 -0.1501  1.4384  2.2129
  916MOL0     H23600   2.222  10.047   1.555 -0.1224 -1.1081  1.5927
  916MOL0     H23601   1.998   9.968   1.509 -1.7954  1.8265  2.5861
  916MOL0     H23602   1.941  10.135   1.479 -1.0589 -0.1108 -0.3770
  916MOL0     H23603   2.143  10.145   1.303  1.4696 -1.0420  0.2369
  916MOL0     H23604   2.145   9.977   1.329  0.1026 -0.3167  1.3145
  916MOL0     H23605   1.924  10.153   1.226 -1.8210 -2.0988 -0.6599
  916MOL0     H23606   2.015  10.026   1.132 -1.5065  0.4954 -1.3175
  916MOL0     H23607   1.898   9.860   1.288  1.2195 -0.8870 -3.1446
  916MOL0     H23608   1.789   9.987   1.351 -0.9045 -0.0600  0.2876
  916MOL0     H23609   1.812   9.895   1.074  0.7723  0.6454  1.1729
  916MOL0     H23610   1.742  10.057   1.110  1.4799  0.8313 -0.0145
  916MOL0     H23611   1.493  10.006   1.308  0.0240 -1.0984  2.0451
  916MOL0     H23612   1.280   9.918   1.340 -2.0233 -0.1740 -1.6200
  916MOL0     H23613   1.214   9.800   1.219 -0.7150 -1.4476  0.7378
  916MOL0     H23614   1.340   9.743   1.486 -0.3440 -2.5510  1.1422
  916MOL0     H23615   1.270   9.619   1.376  2.5436 -0.1198  1.6180
  916MOL0     H23616   1.053   9.800   1.388 -0.5374 -0.3725 -0.1800
  916MOL0     H23617   1.133   9.834   1.537  0.7286  3.4537 -2.8317
  916MOL0     H23618   1.125   9.571   1.573  2.2294  1.9972  0.6327
  916MOL0     H23619   1.023   9.569   1.421 -1.0738  3.4331 -1.8185
  916MOL0     H23620   0.906   9.401   1.566  1.6256  3.2384  0.0166
  916MOL0     H23621   0.741   9.166   1.771  0.4595 -1.7152 -0.2326
  916MOL0     H23622   0.681   9.177   1.609  0.7545  1.0123 -1.5896
  916MOL0     H23623   0.842   9.212   1.625 -1.9044 -0.3975 -1.1908
  916MOL0     H23624   0.241   9.330   1.802 -1.3059  2.1761  0.6861
  916MOL0     H23625   0.045   9.232   1.903  1.5101  0.4355 -1.1520
  916MOL0     H23626  -0.150   9.172   2.011  1.0336 -0.3243 -0.6128
  916MOL0     H23627   0.002   9.073   2.049  1.6827  0.0621  2.5001
  916MOL0     H23628  -0.103   9.022   2.277  1.5257  3.2193  0.0256
  916MOL0     H23629  -0.253   9.087   2.223  0.6502  1.3204  2.0397
  916MOL0     H23630  -0.128   8.844   2.145 -0.2133 -0.3030  0.8565
  916MOL0     H23631  -0.217   8.923   2.013  0.1323  2.0414  0.3319
  916MOL0     H23632  -0.309   8.859   2.305 -0.3770  0.1569  0.1605
  916MOL0     H23633  -0.416   8.942   2.176  0.0091  1.0544  1.0918
  916MOL0     H23634  -0.378   8.779   2.011 -2.5586 -0.9540 -0.3146
  916MOL0     H23635  -0.489   8.726   2.140  0.6423 -1.1969  0.6950
  916MOL0     H23636  -0.196   8.642   2.126 -0.1308  1.9173 -2.1393
  916MOL0     H23637  -0.302   8.611   2.258 -0.4746  0.9966 -0.2958
  916MOL0     H23638  -0.389   8.520   1.972 -1.1774  2.5204  0.7270
  916MOL0     H23639  -0.436   8.444   2.120 -2.5663 -1.1619 -3.6390
  916MOL0     H23640  -0.142   8.457   2.005 -0.5036  0.4855 -1.2040
  916MOL0     H23641  -0.256   8.334   1.987 -1.7820  0.0224  2.0519
  916MOL0     H23642   0.166   9.394   2.282 -2.4680  0.0613 -0.4449
  916MOL0     H23643   0.394   9.432   2.180 -0.0111 -1.1845  1.1213
  916MOL0     H23644   0.563   9.651   1.810 -0.4263  0.0176 -0.7585
  916MOL0     H23645   0.745   9.759   1.714  0.9352 -0.3541  0.6378
  916MOL0     H23646   2.437   9.764   1.801  1.1081 -0.2946  0.2989
  916MOL0     H23647   2.606   9.727   1.976 -0.4465  0.7480  2.5992
  916MOL0     H23648   2.877   9.567   2.319  2.0684 -0.2775  1.2407
  916MOL0     H23649   3.127   9.573   2.426 -0.2373  1.5894  2.2336
  916MOL0     H23650   3.358   9.922   2.417 -1.5072  0.3811 -0.1414
  916MOL0     H23651   3.283   9.959   2.562  2.2877  1.2992 -2.9064
  916MOL0     H23652   3.466   9.713   2.567  0.3607 -0.1011  0.1461
  916MOL0     H23653   3.414   9.826   2.694 -1.0704  2.4164 -0.2473
  916MOL0     H23654   3.548  10.007   2.589  1.0455 -1.4529  0.3186
  916MOL0     H23655   3.606   9.898   2.457  0.0943 -0.5324 -0.6334
  916MOL0     H23656   3.717   9.743   2.622  0.2342 -1.3692  3.5958
  916MOL0     H23657   3.658   9.844   2.755 -1.3720  1.2444  0.4097
  916MOL0     H23658   4.005  10.027   2.683  0.1801 -0.5489  1.4134
  916MOL0     H23659   3.129   9.987   2.399 -0.3108 -0.3799 -0.1099
  916MOL0     H23660   2.888   9.988   2.291 -3.3913 -2.0635 -0.7739
  917MOL0     O23661  10.868   7.927   9.418  0.0539 -0.8259 -0.1162
  917MOL0     C23662  10.798   7.830   9.441 -0.3025  0.1764 -0.4512
  917MOL0     O23663  10.699   7.790   9.367 -0.3722  0.1009 -0.0407
  917MOL0     C23664  10.707   7.796   9.233 -0.8932  1.3815 -0.1390
  917MOL0     C23665  10.828   7.767   9.165  0.7422 -0.3037  0.1692
  917MOL0     C23666  10.818   7.766   9.029  0.5515 -0.7790  0.9190
  917MOL0     C23667  10.699   7.784   8.955  0.0966 -0.2931 -0.1111
  917MOL0     O23668  10.705   7.761   8.825 -0.8414  0.1278  0.4661
  917MOL0     C23669  10.587   7.749   8.740  0.6292 -0.2286 -0.2273
  917MOL0     C23670  10.629   7.708   8.604 -1.5030 -0.3386 -0.1680
  917MOL0     C23671  10.515   7.697   8.504 -0.4688  0.0242  0.3354
  917MOL0     C23672  10.577   7.647   8.374  0.3165  0.0700 -0.7987
  917MOL0     C23673  10.463   7.630   8.273  0.0223  0.1516  0.2719
  917MOL0     C23674  10.413   7.759   8.192  0.1945 -0.2999  0.2014
  917MOL0     C23675  10.282   7.733   8.121 -0.2145 -0.5994 -0.2225
  917MOL0     C23676  10.165   7.678   8.204 -0.2457  0.3379 -0.0101
  917MOL0     N23677  10.135   7.752   8.331 -0.2371  0.0289  0.5593
  917MOL0     C23678  10.084   7.882   8.346 -0.0859  1.3562  0.3027
  917MOL0     C23679  10.086   7.908   8.479 -1.1320 -0.1483  0.5510
  917MOL0     C23680  10.042   8.039   8.529 -0.2223  0.2723  0.3846
  917MOL0     C23681  10.128   8.089   8.646  0.4298  0.1993  0.6546
  917MOL0     C23682  10.100   8.237   8.668 -0.0071 -0.2806  0.5516
  917MOL0     C23683  10.154   8.298   8.791  0.0704 -0.4253 -0.8820
  917MOL0     O23684  10.129   8.440   8.784 -0.5723 -0.0880 -1.4175
  917MOL0     C23685  10.158   8.523   8.900 -0.8752 -0.7129 -0.1026
  917MOL0     C23686  10.111   8.650   8.886  0.4393  0.2986  0.7713
  917MOL0     C23687  10.135   8.747   8.985  1.0698 -0.2808  0.5819
  917MOL0     C23688  10.083   8.890   8.959  0.4183 -1.2517 -0.1064
  917MOL0     C23689  10.197   8.712   9.107  0.3554 -0.4835  0.9230
  917MOL0     C23690  10.219   8.809   9.227  0.8357 -0.2607  0.3938
  917MOL0     O23691  10.148   8.931   9.225 -0.4169  0.3749 -0.5756
  917MOL0     C23692  10.182   9.019   9.321  0.0891  0.3293 -0.6165
  917MOL0     C23693  10.101   9.027   9.432 -0.3881  0.2993 -0.4940
  917MOL0     C23694  10.135   9.110   9.539  0.2144  0.7600 -0.3689
  917MOL0     C23695  10.236   9.197   9.542 -1.2816 -0.2554  0.1234
  917MOL0     O23696  10.263   9.277   9.653 -0.3199 -0.4043  0.3924
  917MOL0     C23697  10.382   9.352   9.660  0.0073 -0.0919 -0.4684
  917MOL0     C23698  10.403   9.402   9.806 -0.7131 -0.3737 -0.1055
  917MOL0     C23699  10.332   9.538   9.825 -0.2905 -0.0597  0.6040
  917MOL0     C23700  10.181   9.559   9.776 -0.5144 -0.8820  0.5470
  917MOL0     C23701  10.075   9.494   9.872  0.0810  0.5989  0.2157
  917MOL0     C23702   9.950   9.454   9.797  0.4234 -0.0343 -0.0833
  917MOL0     C23703   9.858   9.368   9.879 -0.1821 -0.4139  0.1075
  917MOL0     C23704   9.751   9.314   9.788 -0.2673  0.1701  0.5302
  917MOL0    Cl23705   9.642   9.243   9.890  0.1376 -0.3072 -0.0145
  917MOL0     C23706  10.313   9.198   9.421 -0.0148 -0.3847 -0.7394
  917MOL0     C23707  10.284   9.113   9.317 -0.5449 -0.8345 -0.1299
  917MOL0     O23708  10.323   8.788   9.299  0.2908 -0.2918 -0.1330
  917MOL0     C23709  10.234   8.576   9.116  0.2391  0.3302 -0.3471
  917MOL0     C23710  10.219   8.485   9.016 -0.0284  0.0371  0.6950
  917MOL0     N23711  10.138   7.798   8.545  0.6158  0.4466  0.9159
  917MOL0     N23712  10.168   7.709   8.457  0.1157 -0.1305 -0.2713
  917MOL0     C23713  10.583   7.820   9.023 -1.1188  0.1891  0.5632
  917MOL0     C23714  10.595   7.842   9.163 -0.3316  0.7970  0.9505
  917MOL0     C23715  10.823   7.766   9.569  0.5694  0.7015  0.4324
  917MOL0     C23716  10.734   7.667   9.605 -0.5643  0.0372 -0.2776
  917MOL0     C23717  10.751   7.601   9.733 -0.2229  0.8194 -0.4332
  917MOL0     C23718  10.845   7.642   9.834  1.3155  0.0571  0.2221
  917MOL0     O23719  10.848   7.594   9.962  0.1848 -0.6495  0.0199
  917MOL0     C23720  10.910   7.467   9.980 -0.3774  0.3619 -0.3162
  917MOL0     C23721  11.066   7.464   9.968  0.2073 -0.3018 -0.2565
  917MOL0     C23722  11.116   7.319   9.978 -0.3795  0.4569 -0.8143
  917MOL0     C23723  11.180   7.260   9.855 -0.8586  0.3177 -0.8922
  917MOL0     C23724  11.080   7.249   9.755  0.3956 -0.4716  0.2373
  917MOL0     C23725  11.003   7.218   9.669 -0.2168  0.2021  0.3735
  917MOL0     C23726  10.930   7.742   9.789 -0.3390  0.5638 -0.5749
  917MOL0     C23727  10.916   7.800   9.657  0.3763  0.0240  0.0492
  917MOL0     H23728  10.920   7.735   9.214 -0.1240 -3.6770 -0.1701
  917MOL0     H23729  10.908   7.755   8.969  0.5394  0.2512  0.6869
  917MOL0     H23730  10.528   7.678   8.797 -0.5765 -1.3999 -2.7608
  917MOL0     H23731  10.526   7.839   8.730  0.8582  0.3913  2.9557
  917MOL0     H23732  10.704   7.782   8.573  0.6084 -1.3351  2.1433
  917MOL0     H23733  10.687   7.618   8.626  0.0014  1.1114  2.3095
  917MOL0     H23734  10.434   7.632   8.539 -0.2261 -0.5627 -0.1629
  917MOL0     H23735  10.471   7.796   8.492  0.3322  0.0984 -2.7498
  917MOL0     H23736  10.646   7.722   8.335  1.4598  0.3734  1.6122
  917MOL0     H23737  10.620   7.548   8.394 -1.2006  0.1841  4.7085
  917MOL0     H23738  10.505   7.560   8.200  5.3965  2.4360  0.6689
  917MOL0     H23739  10.379   7.585   8.327 -0.3349 -1.1648 -1.3280
  917MOL0     H23740  10.391   7.840   8.262 -1.0851 -0.8116  0.4063
  917MOL0     H23741  10.493   7.793   8.125 -1.8151  0.6044 -1.8739
  917MOL0     H23742  10.252   7.829   8.079  0.5163 -0.5270 -0.5888
  917MOL0     H23743  10.298   7.660   8.041  1.6261 -2.1053  1.3933
  917MOL0     H23744  10.194   7.576   8.233  1.5377  0.8668  0.2021
  917MOL0     H23745  10.072   7.670   8.147 -0.7486  2.5856  0.4250
  917MOL0     H23746  10.061   7.947   8.262 -2.6642 -0.5876 -0.6166
  917MOL0     H23747  10.049   8.109   8.445 -1.9236 -0.3558 -0.3300
  917MOL0     H23748   9.934   8.037   8.544 -1.0291 -3.2843 -3.7313
  917MOL0     H23749  10.236   8.083   8.627  0.6504  1.2341  1.4867
  917MOL0     H23750  10.114   8.035   8.740 -0.9231 -2.4440 -0.9670
  917MOL0     H23751   9.993   8.259   8.657 -0.0050  0.6517  2.1429
  917MOL0     H23752  10.138   8.295   8.583 -2.2755 -0.0394 -0.3623
  917MOL0     H23753  10.254   8.260   8.815 -1.1014 -0.8402  4.8333
  917MOL0     H23754  10.094   8.257   8.873  4.1565 -0.4556  2.4433
  917MOL0     H23755  10.054   8.670   8.795 -0.0363 -1.5544  0.6096
  917MOL0     H23756  10.038   8.901   8.860  0.7946  0.4759 -0.1102
  917MOL0     H23757   9.997   8.926   9.018  1.1671  0.5157 -0.0358
  917MOL0     H23758  10.159   8.968   8.971 -0.7254 -0.5083  3.7095
  917MOL0     H23759  10.026   8.948   9.437 -2.4193  1.9715 -2.2801
  917MOL0     H23760  10.082   9.089   9.632  1.0143 -0.5513 -0.1895
  917MOL0     H23761  10.463   9.289   9.624 -2.7489 -3.0466 -2.0344
  917MOL0     H23762  10.379   9.439   9.594  0.4368  1.6995  1.7347
  917MOL0     H23763  10.369   9.324   9.873  1.8000 -0.1434  1.5917
  917MOL0     H23764  10.511   9.402   9.822 -0.6280 -0.7161 -0.6449
  917MOL0     H23765  10.391   9.623   9.790  1.1699 -0.9001  0.9600
  917MOL0     H23766  10.326   9.552   9.933  2.5200  0.6766  0.7381
  917MOL0     H23767  10.152   9.665   9.775  2.3705  0.0086 -1.0889
  917MOL0     H23768  10.172   9.524   9.673 -0.5928 -0.9659  0.5824
  917MOL0     H23769  10.065   9.557   9.961  0.4448 -0.2344  0.8513
  917MOL0     H23770  10.111   9.398   9.909 -0.9229  0.9364  2.2006
  917MOL0     H23771   9.882   9.537   9.777 -0.5072 -0.1724  2.1851
  917MOL0     H23772   9.988   9.395   9.713 -2.1564 -1.6168 -0.2366
  917MOL0     H23773   9.810   9.434   9.953 -0.8067  0.9901 -1.4944
  917MOL0     H23774   9.913   9.282   9.917  2.3918  1.3678  0.6908
  917MOL0     H23775   9.792   9.242   9.717  2.9769  0.8265  1.5881
  917MOL0     H23776   9.693   9.389   9.733  0.7524  1.6685  1.4286
  917MOL0     H23777  10.398   9.265   9.412  1.3475 -1.4593  2.5043
  917MOL0     H23778  10.344   9.115   9.227  0.3730  1.0615  0.4632
  917MOL0     H23779  10.273   8.546   9.212 -2.4532 -0.1527  0.6851
  917MOL0     H23780  10.243   8.379   9.020 -2.3045 -0.4989  1.7525
  917MOL0     H23781  10.499   7.856   8.963 -0.4136  1.1205  0.0939
  917MOL0     H23782  10.499   7.863   9.209 -1.5871 -1.2454 -0.5699
  917MOL0     H23783  10.668   7.619   9.534  1.9400 -3.3847 -0.5436
  917MOL0     H23784  10.685   7.518   9.758 -0.9166  1.6666  0.6011
  917MOL0     H23785  10.872   7.442  10.079  0.4607  1.4969  0.3223
  917MOL0     H23786  10.879   7.392   9.906  1.9868 -0.9291 -0.0973
  917MOL0     H23787  11.110   7.523  10.049 -0.9843  0.5835 -0.2247
  917MOL0     H23788  11.097   7.506   9.872  0.3428 -0.0907 -0.1221
  917MOL0     H23789  11.053   7.242  10.024 -0.7614  1.6639  0.8032
  917MOL0     H23790  11.205   7.319  10.041 -1.3103 -2.1143  0.6196
  917MOL0     H23791  11.208   7.157   9.879 -1.1993  0.5660  0.6497
  917MOL0     H23792  11.275   7.305   9.824  0.0451  0.2582  1.5477
  917MOL0     H23793  10.931   7.181   9.599 -0.1042 -1.3540  1.0307
  917MOL0     H23794  10.990   7.790   9.866 -0.8849 -0.2258  0.3597
  917MOL0     H23795  10.975   7.889   9.635 -0.0042  0.7235  1.7012
  918MOL0     O23796   5.901   8.506  11.196  0.1451  0.8370 -0.1206
  918MOL0     C23797   5.864   8.558  11.092  0.0615 -1.0976 -0.4131
  918MOL0     O23798   5.943   8.606  10.998 -0.4903  0.4226  0.6559
  918MOL0     C23799   6.069   8.602  11.017  1.2077 -0.0297 -0.4755
  918MOL0     C23800   6.147   8.498  10.985 -0.9695 -0.0607  0.2746
  918MOL0     C23801   6.282   8.490  11.010 -0.0719  0.4582  0.0362
  918MOL0     C23802   6.338   8.605  11.070 -0.3486 -0.3837  0.0546
  918MOL0     O23803   6.478   8.612  11.098 -0.5412  0.7396  0.0293
  918MOL0     C23804   6.558   8.735  11.079  0.5028  0.3463  0.4168
  918MOL0     C23805   6.683   8.690  11.162  0.6870  0.8307 -0.6208
  918MOL0     C23806   6.809   8.743  11.091 -0.8216 -0.4535  0.2524
  918MOL0     C23807   6.928   8.725  11.183 -0.4444 -0.6801  0.5195
  918MOL0     C23808   7.063   8.770  11.118  0.7956  0.0248 -0.3256
  918MOL0     C23809   7.112   8.706  10.978  0.3159 -0.6949 -0.1122
  918MOL0     C23810   7.250   8.772  10.941  0.6631  0.0451  0.1397
  918MOL0     C23811   7.286   8.720  10.807  0.1084  0.5397 -0.1033
  918MOL0     N23812   7.304   8.574  10.799  0.5203  0.4828  0.3115
  918MOL0     C23813   7.242   8.496  10.695  0.2798 -0.2861 -0.5031
  918MOL0     C23814   7.286   8.372  10.733  0.4974 -0.0332 -0.7912
  918MOL0     C23815   7.242   8.241  10.676  0.3896  0.0185  0.0214
  918MOL0     C23816   7.307   8.232  10.540 -1.2800 -0.2841 -0.0151
  918MOL0     C23817   7.235   8.134  10.448  0.4295  0.8833 -0.1048
  918MOL0     C23818   7.290   8.092  10.319  0.0255  0.3225  0.3622
  918MOL0     O23819   7.287   8.221  10.251 -0.7457 -0.7331  0.2252
  918MOL0     C23820   7.354   8.227  10.133  0.2286  0.5790  0.4788
  918MOL0     C23821   7.369   8.356  10.074 -0.0272  0.3787 -0.7596
  918MOL0     C23822   7.438   8.381   9.956 -0.0819  0.4227 -0.1803
  918MOL0     C23823   7.471   8.525   9.931  0.2440  0.0076  0.3894
  918MOL0     C23824   7.484   8.274   9.881 -0.5425 -0.2345  1.5062
  918MOL0     C23825   7.544   8.287   9.746  0.3812 -0.0484  0.6419
  918MOL0     O23826   7.528   8.182   9.651  0.3909  0.1336  0.0983
  918MOL0     C23827   7.602   8.191   9.533 -0.7050 -0.1941 -0.6157
  918MOL0     C23828   7.739   8.177   9.544  0.3087  0.1029 -0.2324
  918MOL0     C23829   7.813   8.197   9.430  0.2486  0.6644  0.3866
  918MOL0     C23830   7.759   8.239   9.309 -0.1701 -0.0991 -0.1845
  918MOL0     O23831   7.831   8.285   9.206  0.3241 -0.2097  0.0915
  918MOL0     C23832   7.916   8.397   9.216  0.0327  0.3984 -0.1862
  918MOL0     C23833   7.973   8.435   9.078 -0.6635  0.8254 -0.8499
  918MOL0     C23834   8.030   8.318   9.007  0.8630  0.5334  0.6257
  918MOL0     C23835   8.152   8.255   9.078 -0.0359  0.5918 -0.4446
  918MOL0     C23836   8.198   8.133   8.989 -0.4748  0.2539  0.2529
  918MOL0     C23837   8.272   8.021   9.068  0.1874 -0.4874 -0.0867
  918MOL0     C23838   8.358   7.938   8.967 -0.2438 -0.0722  0.3774
  918MOL0     C23839   8.266   7.843   8.887  0.1466  0.6445 -0.9246
  918MOL0    Cl23840   8.174   7.918   8.753 -0.1721 -0.5420 -0.1300
  918MOL0     C23841   7.623   8.249   9.295 -0.1115 -0.4869 -0.0465
  918MOL0     C23842   7.540   8.231   9.409 -0.3851  0.1877 -0.7750
  918MOL0     O23843   7.625   8.384   9.730  0.4368 -0.5664 -0.4753
  918MOL0     C23844   7.477   8.141   9.935 -0.0983 -0.0103  0.8679
  918MOL0     C23845   7.406   8.119  10.057 -0.4575 -0.0127 -0.3409
  918MOL0     N23846   7.374   8.381  10.843  0.2648  0.8238  0.4593
  918MOL0     N23847   7.396   8.501  10.872 -1.4221  0.3772  0.2931
  918MOL0     C23848   6.252   8.717  11.094 -0.1701  0.0037  0.7942
  918MOL0     C23849   6.116   8.714  11.072  0.1112  0.2706 -0.3805
  918MOL0     C23850   5.709   8.559  11.064 -0.3132 -0.1427 -0.4020
  918MOL0     C23851   5.624   8.518  11.163 -0.5080  0.0913  0.0172
  918MOL0     C23852   5.487   8.503  11.129 -0.3255  0.8854 -0.1198
  918MOL0     C23853   5.437   8.543  11.002  0.3491  0.0686  0.0340
  918MOL0     O23854   5.305   8.533  10.955 -0.0266 -0.8159 -0.5011
  918MOL0     C23855   5.199   8.489  11.048  0.4554  0.3595  0.0415
  918MOL0     C23856   5.136   8.612  11.112  0.1481 -0.9071 -0.6233
  918MOL0     C23857   5.050   8.692  11.019 -1.1484  0.1459  0.2304
  918MOL0     C23858   4.937   8.767  11.091  0.3470 -0.1875  0.5507
  918MOL0     C23859   4.857   8.687  11.182 -0.2181  0.6436 -0.2067
  918MOL0     C23860   4.803   8.623  11.273  0.2589 -0.6736 -0.1952
  918MOL0     C23861   5.528   8.593  10.906  0.3776  0.1743  0.1151
  918MOL0     C23862   5.663   8.602  10.939  0.4266 -1.1388  0.3619
  918MOL0     H23863   6.102   8.407  10.945 -1.0408  0.5435 -1.0565
  918MOL0     H23864   6.345   8.408  10.978  0.4406  1.5953 -2.1232
  918MOL0     H23865   6.594   8.769  10.981  0.6951  1.1103  0.7397
  918MOL0     H23866   6.505   8.824  11.114  1.7018  1.6841 -1.0213
  918MOL0     H23867   6.680   8.724  11.266  1.1055 -2.2218  0.4770
  918MOL0     H23868   6.684   8.581  11.174  0.9225  1.0671  2.3019
  918MOL0     H23869   6.833   8.690  10.998 -0.2995 -0.2089  0.2486
  918MOL0     H23870   6.795   8.847  11.060 -0.3994  0.4089  2.7072
  918MOL0     H23871   6.915   8.791  11.269  2.3271  1.0894 -0.3114
  918MOL0     H23872   6.938   8.621  11.215 -0.6677 -0.2034  2.2545
  918MOL0     H23873   7.054   8.879  11.103 -1.4768  0.0392  0.7138
  918MOL0     H23874   7.148   8.750  11.183  0.5414 -1.8151 -0.5096
  918MOL0     H23875   7.106   8.597  10.986  0.4764 -0.7514 -0.6978
  918MOL0     H23876   7.044   8.730  10.895  1.4744  0.0268 -0.8850
  918MOL0     H23877   7.249   8.881  10.928  1.1983  0.1756  1.1159
  918MOL0     H23878   7.327   8.744  11.013 -0.3718 -0.7261  0.9734
  918MOL0     H23879   7.383   8.760  10.775  0.4732 -0.0644  0.2231
  918MOL0     H23880   7.213   8.766  10.741 -0.8917  1.9553  1.8968
  918MOL0     H23881   7.172   8.525  10.617  0.5921  2.2006  0.0375
  918MOL0     H23882   7.262   8.152  10.736 -1.8041 -0.1686  0.5266
  918MOL0     H23883   7.134   8.243  10.665  0.3272  2.5220  0.4305
  918MOL0     H23884   7.412   8.204  10.546 -0.6627  1.6902 -0.8275
  918MOL0     H23885   7.305   8.328  10.488 -2.9310 -1.5105 -2.4318
  918MOL0     H23886   7.149   8.193  10.415  0.9694  2.0947  0.5965
  918MOL0     H23887   7.203   8.045  10.504  3.5281  0.1928  0.7210
  918MOL0     H23888   7.230   8.012  10.273 -2.7685 -0.4644  4.7803
  918MOL0     H23889   7.390   8.053  10.339 -0.3475 -3.2095 -3.3073
  918MOL0     H23890   7.325   8.445  10.118 -2.1347 -1.4215  1.0284
  918MOL0     H23891   7.575   8.539   9.900  0.1956  1.1320  0.7042
  918MOL0     H23892   7.398   8.579   9.870  1.4351  3.1355  1.5278
  918MOL0     H23893   7.463   8.586  10.021 -0.8675  4.4420 -2.4207
  918MOL0     H23894   7.787   8.146   9.636  2.7424  0.5397 -1.2751
  918MOL0     H23895   7.920   8.197   9.451 -0.2106  2.9316  3.4426
  918MOL0     H23896   7.876   8.478   9.278  2.0988  0.6865  0.8748
  918MOL0     H23897   8.003   8.360   9.271  1.0641 -1.7683 -3.0159
  918MOL0     H23898   7.884   8.482   9.036 -4.0622 -1.5583  2.9101
  918MOL0     H23899   8.047   8.514   9.093 -0.5581  0.6004 -0.1244
  918MOL0     H23900   8.071   8.351   8.911  0.6438  0.7951  0.6215
  918MOL0     H23901   7.945   8.251   8.989  2.2104 -1.8125  2.2962
  918MOL0     H23902   8.233   8.328   9.084  1.2756 -0.8187 -0.2137
  918MOL0     H23903   8.135   8.222   9.181  3.6214  0.9876  0.4037
  918MOL0     H23904   8.264   8.178   8.915  2.0455 -0.3353  1.9931
  918MOL0     H23905   8.109   8.082   8.949 -0.0371  0.3106 -0.8248
  918MOL0     H23906   8.335   8.061   9.148  2.1297  4.1150 -3.5142
  918MOL0     H23907   8.198   7.959   9.121 -0.7459 -1.6032 -2.5318
  918MOL0     H23908   8.427   7.867   9.015  0.8715  0.3138 -0.6211
  918MOL0     H23909   8.421   7.992   8.896  0.2009 -0.3004  0.5916
  918MOL0     H23910   8.208   7.788   8.962  0.1771  2.9222  0.8503
  918MOL0     H23911   8.337   7.771   8.845  1.0503  1.6970 -1.2331
  918MOL0     H23912   7.591   8.285   9.198 -1.3773 -0.3549  0.4006
  918MOL0     H23913   7.433   8.240   9.396 -0.2367 -1.5530 -4.0759
  918MOL0     H23914   7.520   8.063   9.873 -0.5218  0.1021  0.4206
  918MOL0     H23915   7.390   8.016  10.088  1.3927  0.2589  1.8410
  918MOL0     H23916   6.295   8.807  11.136  0.6008  1.3233 -2.5029
  918MOL0     H23917   6.043   8.790  11.099 -2.9069 -2.0093 -1.6106
  918MOL0     H23918   5.671   8.483  11.254  2.3345 -0.8530 -1.6753
  918MOL0     H23919   5.419   8.463  11.205 -0.8029  0.0719 -0.9527
  918MOL0     H23920   5.123   8.437  10.989 -1.4709  1.8125  1.1289
  918MOL0     H23921   5.239   8.416  11.118  1.0568 -1.6774 -2.2644
  918MOL0     H23922   5.219   8.669  11.156 -0.8189 -1.3228  1.9163
  918MOL0     H23923   5.079   8.574  11.198 -2.5621 -0.6712 -2.1976
  918MOL0     H23924   5.003   8.629  10.943 -2.7931 -0.0132  1.3343
  918MOL0     H23925   5.110   8.762  10.959 -1.0940  2.0140  2.3437
  918MOL0     H23926   4.887   8.826  11.014  1.6183  0.1682 -0.0350
  918MOL0     H23927   4.977   8.853  11.146 -2.2731  1.7223 -0.2959
  918MOL0     H23928   4.751   8.586  11.359  0.3202 -0.1789  0.0573
  918MOL0     H23929   5.488   8.634  10.814 -3.0974 -1.3373  0.7902
  918MOL0     H23930   5.729   8.644  10.864 -0.8021  0.8929  0.3335
  919MOL0     O23931   5.355   6.568   1.913  0.1374 -0.3081  0.3725
  919MOL0     C23932   5.316   6.654   1.832 -0.9201 -0.5235  0.6656
  919MOL0     O23933   5.281   6.627   1.697  0.0432 -0.1631 -0.6496
  919MOL0     C23934   5.286   6.516   1.632 -1.2158  0.4297  0.6776
  919MOL0     C23935   5.215   6.508   1.522  0.1237 -0.3615 -0.1169
  919MOL0     C23936   5.205   6.400   1.435  0.7187 -0.3776 -0.6873
  919MOL0     C23937   5.264   6.281   1.475 -0.2259  0.0479 -0.3472
  919MOL0     O23938   5.255   6.164   1.406 -0.0831 -0.4199 -0.1127
  919MOL0     C23939   5.181   6.154   1.281 -0.0024 -0.2613 -0.3024
  919MOL0     C23940   5.193   6.012   1.227 -1.5621  0.5855  0.6603
  919MOL0     C23941   5.184   5.897   1.323 -0.7614  0.1909 -0.5832
  919MOL0     C23942   5.260   5.771   1.273 -1.0777  0.5601  0.4115
  919MOL0     C23943   5.263   5.675   1.394  0.4380 -0.4205  1.0809
  919MOL0     C23944   5.320   5.540   1.360 -0.6145 -0.3718  0.2516
  919MOL0     C23945   5.331   5.458   1.485  0.7157  0.0343  0.2877
  919MOL0     C23946   5.432   5.497   1.596 -0.3101 -0.3273 -0.0267
  919MOL0     N23947   5.574   5.495   1.571  0.3750 -0.4330 -0.1153
  919MOL0     C23948   5.651   5.379   1.561  0.0483  0.5005  0.0142
  919MOL0     C23949   5.760   5.407   1.480 -0.3669  0.2187  0.1665
  919MOL0     C23950   5.870   5.314   1.449 -0.0604  0.1517 -0.4169
  919MOL0     C23951   5.991   5.347   1.539 -0.9591  0.2319  0.2982
  919MOL0     C23952   5.986   5.342   1.686 -0.2396  0.0743 -0.8537
  919MOL0     C23953   6.096   5.411   1.759  0.2508 -1.0378 -0.3342
  919MOL0     O23954   6.231   5.398   1.711 -0.4678  0.4019  0.6358
  919MOL0     C23955   6.306   5.297   1.764 -0.0486  0.0525  0.7481
  919MOL0     C23956   6.335   5.179   1.694  0.0920 -0.5689  0.1403
  919MOL0     C23957   6.432   5.087   1.726 -0.0103  1.4071 -0.3498
  919MOL0     C23958   6.459   4.972   1.637 -0.6900 -0.6297 -0.3801
  919MOL0     C23959   6.505   5.107   1.852  0.1943 -0.5955  0.2759
  919MOL0     C23960   6.619   5.027   1.903 -0.2732  0.5813  0.7646
  919MOL0     O23961   6.654   5.049   2.031 -0.1336 -0.4362 -0.3158
  919MOL0     C23962   6.774   4.999   2.091 -0.4529  0.8803  0.4914
  919MOL0     C23963   6.774   5.018   2.228  0.3442  0.1345 -0.5656
  919MOL0     C23964   6.882   4.978   2.304 -0.6749  0.4125  0.1169
  919MOL0     C23965   6.992   4.911   2.248  0.1595 -0.2358  0.1760
  919MOL0     O23966   7.090   4.893   2.339 -0.6560 -0.2492 -0.1375
  919MOL0     C23967   7.202   4.829   2.287  0.6930  0.1690  0.5881
  919MOL0     C23968   7.310   4.818   2.400 -0.5378  0.2718 -0.3636
  919MOL0     C23969   7.453   4.798   2.350 -0.4032  0.0321  0.6512
  919MOL0     C23970   7.536   4.924   2.378  0.1958 -0.4329  0.2262
  919MOL0     C23971   7.683   4.913   2.320  0.4606 -0.6606 -0.2483
  919MOL0     C23972   7.780   5.028   2.349  0.2919  0.3794  0.1439
  919MOL0     C23973   7.721   5.163   2.320  0.1687 -0.5374  0.4313
  919MOL0     C23974   7.798   5.287   2.381 -0.1441 -0.2598 -0.1623
  919MOL0    Cl23975   7.764   5.282   2.550  0.5098  0.1625 -0.2089
  919MOL0     C23976   6.999   4.887   2.110  0.3206 -0.3801 -0.3195
  919MOL0     C23977   6.885   4.928   2.031  0.2652  0.1548  0.4278
  919MOL0     O23978   6.668   4.948   1.820 -0.2128  1.1702  0.2461
  919MOL0     C23979   6.468   5.227   1.921 -0.2323 -0.7479  0.1757
  919MOL0     C23980   6.369   5.321   1.880 -1.0691 -0.7278  1.0379
  919MOL0     N23981   5.748   5.546   1.456  0.3742 -0.4247  0.5521
  919MOL0     N23982   5.645   5.591   1.512  0.0460 -0.4921 -0.1054
  919MOL0     C23983   5.335   6.281   1.599  0.5185  0.9540  0.4598
  919MOL0     C23984   5.360   6.400   1.670  1.6534 -0.0366  0.2927
  919MOL0     C23985   5.293   6.792   1.882 -0.4304  0.5675  0.2226
  919MOL0     C23986   5.249   6.895   1.787 -0.1395  0.4737 -0.8021
  919MOL0     C23987   5.230   7.025   1.834  0.8994 -0.7349  0.2392
  919MOL0     C23988   5.227   7.043   1.968 -0.0860 -1.0272 -0.5391
  919MOL0     O23989   5.206   7.173   2.001  0.1358 -0.0106  0.0036
  919MOL0     C23990   5.136   7.199   2.125  0.8855 -0.1962 -0.0845
  919MOL0     C23991   5.177   7.322   2.198 -0.3900 -0.0048 -0.1640
  919MOL0     C23992   5.319   7.355   2.186 -0.3213  0.0321  0.0802
  919MOL0     C23993   5.416   7.251   2.254  0.2350 -0.3362  0.9195
  919MOL0     C23994   5.548   7.298   2.258  0.6454  0.5902 -0.3792
  919MOL0     C23995   5.664   7.332   2.259  0.3612  0.0052 -0.0075
  919MOL0     C23996   5.261   6.941   2.064 -0.1212 -0.7442  0.3804
  919MOL0     C23997   5.293   6.824   2.015 -0.3312  0.1024 -0.0796
  919MOL0     H23998   5.168   6.600   1.490 -5.4227 -1.9622  2.1473
  919MOL0     H23999   5.141   6.413   1.349 -1.1427 -1.8482  0.3980
  919MOL0     H24000   5.073   6.162   1.300 -0.0676 -0.6572 -0.4887
  919MOL0     H24001   5.207   6.233   1.210 -1.3395  0.4066 -0.1026
  919MOL0     H24002   5.119   5.989   1.149  1.9367 -0.0377 -2.7684
  919MOL0     H24003   5.289   6.004   1.176 -1.0934 -0.4040  1.6521
  919MOL0     H24004   5.243   5.921   1.412 -0.9868 -3.2685  0.6603
  919MOL0     H24005   5.080   5.867   1.342 -1.3606 -0.8243 -4.5562
  919MOL0     H24006   5.222   5.736   1.176 -1.0955 -0.8110  0.8952
  919MOL0     H24007   5.367   5.793   1.260 -1.1845  0.7254 -0.2247
  919MOL0     H24008   5.319   5.718   1.477  4.7932 -0.3873 -1.5880
  919MOL0     H24009   5.163   5.652   1.432 -0.2079 -0.8755 -0.7856
  919MOL0     H24010   5.257   5.507   1.277 -2.0048  0.2811  1.0222
  919MOL0     H24011   5.417   5.558   1.313  0.3467 -3.0931  0.9957
  919MOL0     H24012   5.232   5.465   1.530 -0.4164  2.6424 -2.2982
  919MOL0     H24013   5.353   5.355   1.455 -1.8097 -0.2741 -0.7949
  919MOL0     H24014   5.406   5.412   1.661 -1.5880 -1.4172 -1.8630
  919MOL0     H24015   5.398   5.590   1.641 -1.0438 -1.2735  1.4547
  919MOL0     H24016   5.615   5.282   1.592 -1.3691  1.0597  0.1799
  919MOL0     H24017   5.831   5.216   1.477 -1.6688  0.5609 -1.0833
  919MOL0     H24018   5.894   5.317   1.343  0.9041 -2.0127 -0.2971
  919MOL0     H24019   6.028   5.445   1.508  2.2291 -1.7339 -2.8111
  919MOL0     H24020   6.075   5.285   1.507  0.0735  2.1177 -0.8587
  919MOL0     H24021   5.989   5.238   1.720 -1.6507  0.6078  1.0652
  919MOL0     H24022   5.891   5.378   1.727 -0.8733 -0.6831 -1.6156
  919MOL0     H24023   6.100   5.387   1.866  1.3721  1.5929  0.2806
  919MOL0     H24024   6.078   5.519   1.753  1.1383 -0.7561  1.4320
  919MOL0     H24025   6.277   5.168   1.603 -2.1198  0.0869  1.3875
  919MOL0     H24026   6.384   4.967   1.558 -0.9081  1.4781 -0.3684
  919MOL0     H24027   6.558   4.996   1.597 -0.3592  0.1572  0.8354
  919MOL0     H24028   6.460   4.876   1.689 -1.4063 -1.6149 -2.1150
  919MOL0     H24029   6.681   5.067   2.254  0.2378  2.5165 -4.5848
  919MOL0     H24030   6.882   4.999   2.410  0.0518 -3.0234  0.8949
  919MOL0     H24031   7.185   4.726   2.254  0.8922  0.0837  0.7467
  919MOL0     H24032   7.241   4.886   2.202 -1.7631 -0.1160 -0.8301
  919MOL0     H24033   7.317   4.917   2.447 -0.0449  0.1458 -0.1630
  919MOL0     H24034   7.284   4.748   2.480  0.7511 -1.8818 -1.7456
  919MOL0     H24035   7.461   4.778   2.242  2.3266 -0.2916  0.8495
  919MOL0     H24036   7.491   4.705   2.393 -4.7175 -2.5098 -0.4137
  919MOL0     H24037   7.487   5.004   2.321  0.2940 -0.8162 -0.4045
  919MOL0     H24038   7.535   4.951   2.484 -0.8403 -0.3366  0.2027
  919MOL0     H24039   7.670   4.905   2.212 -2.5988  1.2302 -0.1488
  919MOL0     H24040   7.726   4.819   2.355  2.1111 -0.3279 -1.2744
  919MOL0     H24041   7.805   5.038   2.455  0.2563  0.3081  0.1599
  919MOL0     H24042   7.867   4.999   2.290 -0.8258 -1.1448 -0.8373
  919MOL0     H24043   7.622   5.174   2.364  0.1575  0.3972  0.1838
  919MOL0     H24044   7.720   5.168   2.211  1.5416 -1.2366  0.3574
  919MOL0     H24045   7.761   5.377   2.330  1.8937  1.2531  0.8838
  919MOL0     H24046   7.906   5.289   2.365  0.0819 -0.1316  1.3114
  919MOL0     H24047   7.074   4.838   2.049 -0.7153 -0.7195 -1.3615
  919MOL0     H24048   6.870   4.912   1.924 -1.7581 -0.5282  0.7616
  919MOL0     H24049   6.539   5.271   1.991 -1.6262  0.1791  1.0580
  919MOL0     H24050   6.352   5.414   1.933 -0.3218 -0.1899  0.3545
  919MOL0     H24051   5.387   6.193   1.635 -3.0894 -1.5763  0.0469
  919MOL0     H24052   5.415   6.399   1.763  0.5490 -0.2521  0.9718
  919MOL0     H24053   5.266   6.876   1.681 -0.2435  0.0443 -0.7411
  919MOL0     H24054   5.207   7.111   1.771  1.3200 -2.3136 -2.2189
  919MOL0     H24055   5.030   7.206   2.100  0.7753  0.7215  0.5934
  919MOL0     H24056   5.157   7.113   2.188  2.0377 -0.7985 -1.2420
  919MOL0     H24057   5.148   7.329   2.304  1.3072  1.6646  0.2409
  919MOL0     H24058   5.123   7.411   2.166 -0.0538  0.1653 -0.2533
  919MOL0     H24059   5.323   7.453   2.235 -2.2047 -0.3918  1.1974
  919MOL0     H24060   5.346   7.367   2.081 -3.4604 -0.3613 -0.8854
  919MOL0     H24061   5.422   7.159   2.195 -1.6313  0.2765 -0.3099
  919MOL0     H24062   5.386   7.225   2.356  0.5273  0.4853  1.2267
  919MOL0     H24063   5.768   7.355   2.254  0.5825 -1.1213 -0.7922
  919MOL0     H24064   5.274   6.952   2.171  2.0546  1.1558 -0.0058
  919MOL0     H24065   5.356   6.751   2.066  3.5177  1.7684 -2.0313
  920MOL0     O24066   8.445   9.362   9.709  0.1194 -0.3788 -0.3102
  920MOL0     C24067   8.433   9.348   9.584 -0.8021 -0.1862 -0.0389
  920MOL0     O24068   8.536   9.298   9.502  0.3075 -0.6163 -0.2362
  920MOL0     C24069   8.647   9.249   9.548 -0.3651 -0.1907 -0.5041
  920MOL0     C24070   8.711   9.153   9.465  0.2908  0.3926 -0.1996
  920MOL0     C24071   8.840   9.094   9.487  0.5240 -0.1181  0.9757
  920MOL0     C24072   8.910   9.135   9.599 -0.1219  0.2253 -0.9792
  920MOL0     O24073   9.033   9.097   9.633  0.5482  0.5966  0.2968
  920MOL0     C24074   9.134   9.041   9.535 -1.0368 -0.5843  0.0963
  920MOL0     C24075   9.267   9.045   9.607  0.4390 -0.2406  0.2735
  920MOL0     C24076   9.381   9.022   9.519 -0.2193 -0.3081  0.0180
  920MOL0     C24077   9.516   9.036   9.599  1.0948 -0.0507 -0.7315
  920MOL0     C24078   9.638   8.996   9.526 -0.1458  0.4226  0.4644
  920MOL0     C24079   9.680   9.105   9.416 -0.3207  0.6341  1.0652
  920MOL0     C24080   9.633   9.067   9.273 -0.8961  0.6915  1.1827
  920MOL0     C24081   9.712   8.947   9.221  0.2957  0.4760  0.4372
  920MOL0     N24082   9.668   8.920   9.086  0.1406 -0.2105  0.5472
  920MOL0     C24083   9.680   9.002   8.979 -0.8040  0.5609 -0.0318
  920MOL0     C24084   9.649   8.926   8.868 -0.1956  1.1797  0.5666
  920MOL0     C24085   9.662   8.969   8.723  0.4133 -0.3482 -0.0366
  920MOL0     C24086   9.796   8.932   8.676  0.3192 -0.0053 -0.4951
  920MOL0     C24087   9.829   8.933   8.524 -0.2860  0.3007 -1.2851
  920MOL0     C24088   9.812   9.064   8.453  0.9178  0.4551 -0.0925
  920MOL0     O24089   9.835   9.039   8.311  0.2358 -0.3716 -0.0995
  920MOL0     C24090   9.724   9.066   8.228 -0.5292  0.1780  0.5968
  920MOL0     C24091   9.756   9.120   8.098 -0.0558 -0.5976 -0.1708
  920MOL0     C24092   9.658   9.135   8.005  0.1099  0.2494  0.4339
  920MOL0     C24093   9.709   9.184   7.870 -0.9362  0.0218 -0.2728
  920MOL0     C24094   9.523   9.092   8.033 -0.2979 -0.1807 -1.3687
  920MOL0     C24095   9.410   9.103   7.938  0.6753  0.2953 -0.8032
  920MOL0     O24096   9.284   9.103   7.992 -0.4392  0.3671  0.8283
  920MOL0     C24097   9.183   9.105   7.898  0.2138  0.5790  1.0099
  920MOL0     C24098   9.082   9.002   7.893 -0.4303  0.9219  0.2922
  920MOL0     C24099   8.984   9.005   7.787 -0.7535 -0.0518 -0.2245
  920MOL0     C24100   8.985   9.102   7.689 -0.0335 -0.5467 -0.7722
  920MOL0     O24101   8.881   9.100   7.598  0.4102 -0.5260  0.1007
  920MOL0     C24102   8.856   9.219   7.524  0.1232  0.6957  0.3585
  920MOL0     C24103   8.727   9.194   7.444 -0.9985 -0.5920 -0.7830
  920MOL0     C24104   8.601   9.158   7.526  0.1448  0.3265 -0.2979
  920MOL0     C24105   8.486   9.110   7.437 -0.8757 -0.4581  0.0043
  920MOL0     C24106   8.348   9.094   7.507 -0.3487 -0.2425  0.4938
  920MOL0     C24107   8.248   9.038   7.402 -0.0283  0.0094  0.6070
  920MOL0     C24108   8.100   9.055   7.452 -0.0082  0.5693  1.0267
  920MOL0     C24109   8.053   9.203   7.427 -1.5164  0.4590 -0.5816
  920MOL0    Cl24110   7.892   9.213   7.480  0.3084 -0.2001  0.1196
  920MOL0     C24111   9.078   9.204   7.702  0.8018 -0.1532 -0.5317
  920MOL0     C24112   9.177   9.206   7.805 -0.1232  1.4270 -0.4015
  920MOL0     O24113   9.430   9.110   7.815 -0.5946  0.0244  0.0635
  920MOL0     C24114   9.495   9.046   8.163  0.7849 -0.3508 -1.0206
  920MOL0     C24115   9.590   9.027   8.256  0.1999  0.7419  0.3147
  920MOL0     N24116   9.602   8.806   8.907 -0.6901 -1.2736  0.0682
  920MOL0     N24117   9.604   8.812   9.037 -0.7116  1.2101  0.4587
  920MOL0     C24118   8.847   9.217   9.696 -0.1941 -0.3093 -0.6791
  920MOL0     C24119   8.710   9.278   9.670 -0.5902 -0.1711 -0.2556
  920MOL0     C24120   8.309   9.387   9.519  0.5258  0.0471 -0.5326
  920MOL0     C24121   8.293   9.381   9.384  0.4164 -0.5717 -0.2685
  920MOL0     C24122   8.178   9.394   9.316  0.2106  0.5718  0.4170
  920MOL0     C24123   8.063   9.433   9.385 -0.1395  0.4635  0.4307
  920MOL0     O24124   7.952   9.462   9.305  0.1372  0.4545  0.4148
  920MOL0     C24125   7.850   9.548   9.356  0.0971  0.3399 -0.0183
  920MOL0     C24126   7.889   9.688   9.338 -0.5340 -0.2666  0.3597
  920MOL0     C24127   7.782   9.778   9.399  0.0349 -0.3092 -0.9574
  920MOL0     C24128   7.796   9.783   9.547  1.0886  0.6737 -0.0067
  920MOL0     C24129   7.771   9.914   9.614  0.4678  0.2684 -1.2668
  920MOL0     C24130   7.760  10.035   9.646 -0.0556  0.4977 -1.0383
  920MOL0     C24131   8.082   9.453   9.523 -0.4437 -1.1977  0.4101
  920MOL0     C24132   8.196   9.428   9.589  0.2380 -0.4998 -0.2350
  920MOL0     H24133   8.644   9.126   9.385 -1.3372  2.9587  0.1663
  920MOL0     H24134   8.886   9.025   9.416  1.2018  0.4986  0.7986
  920MOL0     H24135   9.112   8.937   9.510 -1.1952 -0.2117 -1.4445
  920MOL0     H24136   9.151   9.096   9.442  2.2985  0.2654  1.0800
  920MOL0     H24137   9.294   9.138   9.658 -0.2758  0.6203 -0.8669
  920MOL0     H24138   9.257   8.960   9.676  4.1127 -2.3905 -1.4885
  920MOL0     H24139   9.371   8.925   9.469  1.0786  0.5671 -2.1220
  920MOL0     H24140   9.384   9.089   9.432 -0.4825  1.4425  1.3077
  920MOL0     H24141   9.524   9.142   9.625  1.5771 -0.6611  1.9237
  920MOL0     H24142   9.500   8.980   9.691  0.1919 -1.6625 -1.8371
  920MOL0     H24143   9.724   8.978   9.591  0.8252 -0.5801 -1.0223
  920MOL0     H24144   9.626   8.896   9.483  1.4109 -1.1286  3.3061
  920MOL0     H24145   9.621   9.197   9.429 -0.8688  0.0555  2.9203
  920MOL0     H24146   9.788   9.124   9.414  0.2210 -2.0719  0.8171
  920MOL0     H24147   9.526   9.045   9.267 -0.7384  0.0674  0.5420
  920MOL0     H24148   9.651   9.151   9.206  0.9745 -2.0433 -2.0940
  920MOL0     H24149   9.676   8.857   9.273  3.7189 -1.2144  0.1370
  920MOL0     H24150   9.820   8.955   9.231  0.3816 -0.7971  0.7337
  920MOL0     H24151   9.721   9.102   8.988 -0.5310  0.4179  0.2966
  920MOL0     H24152   9.574   8.932   8.671 -1.6690  2.5875  1.1420
  920MOL0     H24153   9.649   9.078   8.731  3.4625  0.0709  0.4466
  920MOL0     H24154   9.813   8.836   8.726 -0.7461 -0.4079 -0.8794
  920MOL0     H24155   9.859   9.006   8.726 -2.6780  0.5578  2.8841
  920MOL0     H24156   9.756   8.862   8.485 -1.3207  1.8496 -2.3082
  920MOL0     H24157   9.935   8.916   8.500  0.1204  2.7620 -1.5688
  920MOL0     H24158   9.877   9.137   8.501 -0.4727  0.6348  1.6294
  920MOL0     H24159   9.712   9.100   8.478  0.7883  1.3849 -1.8360
  920MOL0     H24160   9.859   9.138   8.069 -0.2827 -2.4558 -2.4723
  920MOL0     H24161   9.666   9.282   7.849 -0.3322  0.8116  1.9084
  920MOL0     H24162   9.819   9.189   7.870 -0.8268 -1.8167 -0.8898
  920MOL0     H24163   9.676   9.119   7.789 -0.9847 -0.4986  0.1611
  920MOL0     H24164   9.089   8.923   7.967  3.2801 -0.4312 -1.2670
  920MOL0     H24165   8.894   8.946   7.776 -2.2021  2.5324 -4.9971
  920MOL0     H24166   8.850   9.314   7.578  1.5449  0.8432  0.2903
  920MOL0     H24167   8.940   9.225   7.454 -2.1009 -2.3132 -2.9070
  920MOL0     H24168   8.715   9.288   7.388  0.5974 -0.7463 -1.4341
  920MOL0     H24169   8.743   9.116   7.369 -2.2141 -2.7030  1.0363
  920MOL0     H24170   8.555   9.241   7.580 -2.4985 -0.0204 -1.8136
  920MOL0     H24171   8.633   9.085   7.600  2.4049  0.9017 -0.6382
  920MOL0     H24172   8.471   9.186   7.360  0.3545 -0.6642 -0.4474
  920MOL0     H24173   8.515   9.020   7.383 -2.0245 -0.8286 -0.0407
  920MOL0     H24174   8.321   9.196   7.537  0.3804  1.3540 -3.5326
  920MOL0     H24175   8.343   9.033   7.598  0.4243 -2.1236 -0.6736
  920MOL0     H24176   8.253   9.083   7.303 -0.1608 -1.8952 -0.3167
  920MOL0     H24177   8.274   8.933   7.384  0.4214  0.5045 -2.1388
  920MOL0     H24178   8.078   9.019   7.553 -2.2886 -0.2206  0.3176
  920MOL0     H24179   8.039   8.989   7.389  0.0276  1.3187  0.1818
  920MOL0     H24180   8.077   9.235   7.325 -1.4269  0.2404 -0.6284
  920MOL0     H24181   8.110   9.271   7.492 -0.3967  0.1522 -1.2058
  920MOL0     H24182   9.077   9.286   7.631  0.0330 -0.0812 -0.4456
  920MOL0     H24183   9.250   9.286   7.812 -1.1429  2.1982  3.4660
  920MOL0     H24184   9.395   9.020   8.194 -0.0037  1.7455 -1.6012
  920MOL0     H24185   9.556   8.975   8.345 -1.3532 -0.4909 -0.9454
  920MOL0     H24186   8.902   9.228   9.789 -1.7672 -2.2041  0.5670
  920MOL0     H24187   8.663   9.341   9.744 -1.7618 -0.2192 -0.9237
  920MOL0     H24188   8.380   9.372   9.320  0.6495 -0.3398  0.0179
  920MOL0     H24189   8.179   9.382   9.208  1.1138 -1.3048  0.5905
  920MOL0     H24190   7.765   9.513   9.296 -0.3824 -3.0583  2.3379
  920MOL0     H24191   7.819   9.532   9.460 -2.6701 -1.5896 -1.0299
  920MOL0     H24192   7.901   9.730   9.238 -4.8144  1.9856  0.5723
  920MOL0     H24193   7.988   9.703   9.381  0.2982 -0.9467 -1.2233
  920MOL0     H24194   7.679   9.746   9.376 -1.4792  1.9530  2.0369
  920MOL0     H24195   7.799   9.877   9.355  0.8530  1.2091  2.4432
  920MOL0     H24196   7.893   9.749   9.585  1.8189  1.9298 -0.6790
  920MOL0     H24197   7.733   9.705   9.590 -0.0640  1.9011  0.6161
  920MOL0     H24198   7.754  10.133   9.688  0.4414 -1.0009  2.8945
  920MOL0     H24199   8.002   9.479   9.592  0.7870 -2.1481  2.2874
  920MOL0     H24200   8.192   9.434   9.697 -0.7671  0.3778 -0.3075
  921MOL0     O24201   0.003   5.009   1.673 -0.7081  0.2985  0.2875
  921MOL0     C24202  -0.074   5.053   1.589 -0.4287 -0.8895  0.0052
  921MOL0     O24203  -0.172   5.143   1.623  0.0652  0.7782  0.0574
  921MOL0     C24204  -0.217   5.152   1.754 -0.5942  0.6605 -0.4864
  921MOL0     C24205  -0.237   5.042   1.832 -0.2835 -0.4404 -0.7476
  921MOL0     C24206  -0.293   5.055   1.959  0.2638 -0.0313 -0.0410
  921MOL0     C24207  -0.318   5.176   2.018  0.1356 -0.4647 -0.6505
  921MOL0     O24208  -0.373   5.184   2.149  0.1088  0.8401 -0.4249
  921MOL0     C24209  -0.419   5.310   2.194  0.4734 -0.4484 -0.6603
  921MOL0     C24210  -0.483   5.315   2.335  0.4984  0.4332 -0.2726
  921MOL0     C24211  -0.384   5.272   2.443  0.1725  0.1388  0.3326
  921MOL0     C24212  -0.423   5.330   2.582 -0.4478  0.2252  0.6753
  921MOL0     C24213  -0.336   5.262   2.688  0.0423  1.1578  0.7482
  921MOL0     C24214  -0.342   5.322   2.826 -0.9618 -0.5726 -0.3196
  921MOL0     C24215  -0.477   5.327   2.890 -0.3146 -0.5890  0.5011
  921MOL0     C24216  -0.467   5.363   3.044  0.9748 -0.1475 -0.3102
  921MOL0     N24217  -0.432   5.253   3.141 -0.1831 -0.7649  0.7616
  921MOL0     C24218  -0.368   5.268   3.266 -0.9328  0.9685  0.0390
  921MOL0     C24219  -0.393   5.146   3.327 -0.4457 -0.6246 -0.1635
  921MOL0     C24220  -0.345   5.105   3.467  0.2588 -0.2286 -0.8077
  921MOL0     C24221  -0.209   5.030   3.470 -0.3611 -0.4443  0.0472
  921MOL0     C24222  -0.161   4.973   3.604  0.5565  1.2272  0.5828
  921MOL0     C24223  -0.256   4.867   3.650  0.1413  0.2090 -0.4065
  921MOL0     O24224  -0.268   4.752   3.559 -0.1881  0.1520 -0.0468
  921MOL0     C24225  -0.176   4.650   3.563  0.2075 -0.6606  0.9200
  921MOL0     C24226  -0.188   4.563   3.463 -0.6775 -0.0757 -0.1301
  921MOL0     C24227  -0.107   4.447   3.440  0.2857  0.5868 -1.0462
  921MOL0     C24228  -0.142   4.359   3.324  0.4124 -0.2069 -0.2285
  921MOL0     C24229  -0.007   4.430   3.543  0.3619  0.4298  0.8342
  921MOL0     C24230   0.083   4.315   3.545 -0.3683 -0.7851 -0.4304
  921MOL0     O24231   0.120   4.274   3.671  0.2844  0.9568 -0.5395
  921MOL0     C24232   0.217   4.172   3.658 -0.4239 -0.7293  0.4452
  921MOL0     C24233   0.350   4.197   3.606  0.6807  0.4579 -0.9485
  921MOL0     C24234   0.438   4.086   3.591  0.2188 -0.1480 -0.1297
  921MOL0     C24235   0.397   3.957   3.632 -0.0084  0.7084  0.3738
  921MOL0     O24236   0.474   3.846   3.629  0.3819 -0.6563  0.5697
  921MOL0     C24237   0.590   3.846   3.548  0.3311  0.4018  0.7996
  921MOL0     C24238   0.602   3.698   3.515 -0.1623  1.3677 -0.1745
  921MOL0     C24239   0.715   3.645   3.611  0.1716  0.2079  0.6974
  921MOL0     C24240   0.665   3.554   3.718 -0.3427  0.2831 -0.4444
  921MOL0     C24241   0.746   3.569   3.848  0.0925  0.3386  0.2886
  921MOL0     C24242   0.710   3.451   3.930  0.1722  1.0283  0.0517
  921MOL0     C24243   0.729   3.483   4.079  0.5019  1.2817  0.1798
  921MOL0     C24244   0.637   3.396   4.179  0.3707 -0.2463 -0.2836
  921MOL0    Cl24245   0.689   3.435   4.339 -0.4678 -0.4555 -0.5553
  921MOL0     C24246   0.264   3.935   3.662 -0.0011  0.4075  0.5725
  921MOL0     C24247   0.172   4.037   3.671 -0.4412  0.4537 -0.0921
  921MOL0     O24248   0.137   4.271   3.434 -0.1680 -0.0649 -0.3336
  921MOL0     C24249   0.011   4.516   3.653 -0.1649  0.6730  0.3302
  921MOL0     C24250  -0.074   4.626   3.657  0.0545  0.0462 -0.4459
  921MOL0     N24251  -0.462   5.063   3.247 -1.4847 -0.6165  0.1511
  921MOL0     N24252  -0.476   5.125   3.135 -0.7955 -0.6455  0.2720
  921MOL0     C24253  -0.293   5.284   1.940  0.3289  0.7231 -0.0202
  921MOL0     C24254  -0.245   5.274   1.808 -0.1126  0.2035  0.1620
  921MOL0     C24255  -0.058   5.019   1.447  0.4322 -0.2606 -0.3714
  921MOL0     C24256   0.043   4.925   1.419  0.2173 -0.3571  0.8662
  921MOL0     C24257   0.052   4.882   1.281  0.3902 -0.1780 -0.5779
  921MOL0     C24258  -0.034   4.938   1.189 -0.2848  0.2753  0.5544
  921MOL0     O24259   0.001   4.928   1.058 -0.8045  0.3356 -0.1093
  921MOL0     C24260  -0.097   4.932   0.956  1.2459 -1.3181  0.6931
  921MOL0     C24261  -0.030   4.914   0.826  0.0999  0.3095  0.5541
  921MOL0     C24262  -0.130   4.917   0.704 -0.2946  0.0182 -1.5350
  921MOL0     C24263  -0.077   4.863   0.571 -0.1037  0.1971  0.1180
  921MOL0     C24264  -0.017   4.981   0.508  1.0969  0.8262  0.8652
  921MOL0     C24265   0.013   5.079   0.439  0.5910 -0.3984 -1.1895
  921MOL0     C24266  -0.130   5.033   1.221  0.6320 -0.1489  0.0107
  921MOL0     C24267  -0.140   5.075   1.346  0.8232 -0.0625 -0.8465
  921MOL0     H24268  -0.235   4.944   1.784 -0.7848 -0.7502 -0.1622
  921MOL0     H24269  -0.336   4.969   2.009 -1.2125 -0.5335 -2.0517
  921MOL0     H24270  -0.334   5.379   2.189 -0.9730  1.4773 -0.2069
  921MOL0     H24271  -0.497   5.349   2.129  1.2286  2.5498  0.0697
  921MOL0     H24272  -0.515   5.417   2.357 -1.9765 -1.0161  3.8364
  921MOL0     H24273  -0.573   5.253   2.339  0.2778  0.6160 -1.8525
  921MOL0     H24274  -0.395   5.163   2.446  3.6646 -0.3243 -0.0087
  921MOL0     H24275  -0.279   5.289   2.418  0.2658 -2.0093 -1.0495
  921MOL0     H24276  -0.398   5.435   2.570 -0.8788  0.2622  0.0788
  921MOL0     H24277  -0.530   5.306   2.587 -0.4533 -0.2583 -1.0835
  921MOL0     H24278  -0.351   5.155   2.702  6.9416 -0.3468  0.4274
  921MOL0     H24279  -0.233   5.249   2.652  0.0144 -2.5762  1.6115
  921MOL0     H24280  -0.275   5.264   2.891  1.7856  2.8066  0.1998
  921MOL0     H24281  -0.298   5.422   2.819 -0.1230 -0.8240  0.8498
  921MOL0     H24282  -0.531   5.401   2.829 -0.6474 -3.3710 -2.9086
  921MOL0     H24283  -0.534   5.233   2.891 -1.4246  0.0662  1.5987
  921MOL0     H24284  -0.568   5.399   3.068  1.5402  0.2161  1.6980
  921MOL0     H24285  -0.397   5.446   3.052  2.2892 -1.2401 -0.2230
  921MOL0     H24286  -0.312   5.356   3.298 -0.3076  0.4206  0.4951
  921MOL0     H24287  -0.323   5.198   3.519  0.5066  0.5577 -2.2601
  921MOL0     H24288  -0.421   5.046   3.519 -3.4868  3.3833 -1.6503
  921MOL0     H24289  -0.129   5.098   3.439 -1.2184  0.7613  0.4560
  921MOL0     H24290  -0.211   4.953   3.391  0.4434  0.4234 -0.8500
  921MOL0     H24291  -0.157   5.048   3.684 -2.0248  0.2903  1.6836
  921MOL0     H24292  -0.055   4.946   3.593  0.3173  0.9459 -1.5581
  921MOL0     H24293  -0.351   4.912   3.678  1.4744  1.9343  1.6650
  921MOL0     H24294  -0.215   4.836   3.747  1.3488  2.0518 -0.2693
  921MOL0     H24295  -0.276   4.579   3.401 -0.4299  0.0091 -0.4594
  921MOL0     H24296  -0.059   4.376   3.255 -1.4487  1.1524 -2.2775
  921MOL0     H24297  -0.149   4.254   3.352 -1.7324 -0.8226 -2.6883
  921MOL0     H24298  -0.238   4.391   3.282  0.9976 -0.8189 -2.0910
  921MOL0     H24299   0.367   4.292   3.558  0.9870 -0.5009 -2.8216
  921MOL0     H24300   0.530   4.101   3.535  2.4462 -1.7711  2.7375
  921MOL0     H24301   0.562   3.889   3.452  3.2337 -1.5572 -1.0847
  921MOL0     H24302   0.679   3.894   3.589  0.9347  0.1709 -0.2255
  921MOL0     H24303   0.507   3.645   3.527  1.6244 -1.9351  0.6515
  921MOL0     H24304   0.639   3.683   3.413 -0.2877 -1.6371  0.1407
  921MOL0     H24305   0.763   3.728   3.665 -0.3857  1.8176 -1.1809
  921MOL0     H24306   0.785   3.583   3.554  0.0988 -0.4605  1.3220
  921MOL0     H24307   0.563   3.581   3.743 -0.2201  2.4027 -1.9851
  921MOL0     H24308   0.672   3.450   3.682 -1.1694 -1.3368  3.5645
  921MOL0     H24309   0.709   3.662   3.893 -2.9948 -0.8312  0.4119
  921MOL0     H24310   0.853   3.563   3.828  0.3248 -5.2516  1.4076
  921MOL0     H24311   0.603   3.432   3.918 -0.3189  1.1931  3.3302
  921MOL0     H24312   0.762   3.358   3.906  1.7674  0.9320  3.3253
  921MOL0     H24313   0.693   3.585   4.098  0.9669  1.0070  2.9836
  921MOL0     H24314   0.835   3.463   4.096  0.7824  2.4296 -0.1129
  921MOL0     H24315   0.637   3.287   4.172 -2.3085 -0.5096  1.8696
  921MOL0     H24316   0.531   3.424   4.181  0.1166 -1.2024  1.1490
  921MOL0     H24317   0.217   3.845   3.699 -1.2063  1.8605  2.7775
  921MOL0     H24318   0.074   4.007   3.703 -1.0876  2.2995 -0.1947
  921MOL0     H24319   0.089   4.492   3.725 -0.5741 -2.7426 -0.2312
  921MOL0     H24320  -0.057   4.695   3.739  2.7200 -0.3458 -0.5929
  921MOL0     H24321  -0.303   5.387   1.970 -0.2077  1.7643 -3.3456
  921MOL0     H24322  -0.253   5.363   1.746  0.5885  0.5453  0.5418
  921MOL0     H24323   0.112   4.886   1.493  0.5411 -0.3577  0.5673
  921MOL0     H24324   0.135   4.823   1.243  1.8275  2.3636 -1.6064
  921MOL0     H24325  -0.178   4.861   0.971  0.1331 -0.3896 -0.6972
  921MOL0     H24326  -0.148   5.029   0.948  1.9806 -1.0959 -2.1281
  921MOL0     H24327   0.033   4.825   0.829 -1.6212 -0.9368  2.4076
  921MOL0     H24328   0.036   5.001   0.817 -0.6760  1.1321  2.3417
  921MOL0     H24329  -0.168   5.020   0.703  0.1618  0.2071 -0.8265
  921MOL0     H24330  -0.213   4.856   0.741 -2.0070  2.7004 -0.6020
  921MOL0     H24331  -0.149   4.826   0.497  1.6614 -0.5568 -1.3063
  921MOL0     H24332  -0.016   4.773   0.579 -1.4487 -0.8085 -0.3889
  921MOL0     H24333   0.010   5.175   0.392 -0.5261 -0.8305 -2.0372
  921MOL0     H24334  -0.195   5.076   1.146 -0.0844  1.0102  1.2480
  921MOL0     H24335  -0.223   5.138   1.377  1.3618  0.0855  0.3828
  922MOL0     O24336   9.899   4.224  11.287 -0.1069  0.0596 -0.7224
  922MOL0     C24337   9.958   4.288  11.198 -1.4555 -0.8093 -1.1353
  922MOL0     O24338  10.001   4.415  11.212 -0.8421  0.0941  0.4814
  922MOL0     C24339   9.973   4.494  11.317 -0.4790 -0.3461 -0.3114
  922MOL0     C24340  10.068   4.577  11.377  0.3411  0.0273 -0.3859
  922MOL0     C24341  10.034   4.657  11.487 -0.3598 -0.2279  0.3111
  922MOL0     C24342   9.903   4.671  11.533 -0.0140 -0.4269 -0.7742
  922MOL0     O24343   9.868   4.759  11.634 -0.1245  0.1921  0.5648
  922MOL0     C24344   9.886   4.892  11.590  0.4907 -1.5592  0.3879
  922MOL0     C24345   9.777   4.987  11.647 -0.5175  0.1495 -0.0310
  922MOL0     C24346   9.793   4.990  11.801  0.5086  0.1830 -0.2421
  922MOL0     C24347   9.923   5.068  11.852 -0.3877 -0.0725 -1.0260
  922MOL0     C24348   9.916   5.081  12.006 -0.3447 -0.6772  0.0529
  922MOL0     C24349  10.035   5.167  12.045  0.0877 -0.6970 -0.5824
  922MOL0     C24350  10.087   5.121  12.185 -0.8591 -0.2400 -0.4838
  922MOL0     C24351  10.177   4.990  12.172 -0.2405 -0.0586  0.4884
  922MOL0     N24352  10.282   4.994  12.066  0.2040  0.1009 -0.6167
  922MOL0     C24353  10.318   4.893  11.980 -1.1022  0.5672  0.0693
  922MOL0     C24354  10.407   4.955  11.891 -0.2364  0.0132 -0.7795
  922MOL0     C24355  10.476   4.891  11.771 -0.5231  0.1547 -0.8431
  922MOL0     C24356  10.546   4.752  11.801 -0.0915 -0.0122  0.7710
  922MOL0     C24357  10.608   4.673  11.680  0.4308  0.2175  0.4857
  922MOL0     C24358  10.764   4.673  11.662 -0.2369 -0.4021 -1.6630
  922MOL0     O24359  10.833   4.633  11.780  0.3384 -0.0169  0.2456
  922MOL0     C24360  10.865   4.498  11.762  0.1526  0.1105  0.1869
  922MOL0     C24361  10.780   4.390  11.802 -0.6457 -0.4278 -0.2195
  922MOL0     C24362  10.814   4.265  11.771  0.8911 -0.2105  0.0423
  922MOL0     C24363  10.724   4.152  11.818  0.3174  0.6940  0.4914
  922MOL0     C24364  10.940   4.236  11.710  0.6734  0.8092 -0.8002
  922MOL0     C24365  10.981   4.107  11.654 -0.1038  0.6651 -0.0618
  922MOL0     O24366  11.113   4.086  11.621 -0.1542 -0.5556 -0.0260
  922MOL0     C24367  11.150   3.971  11.568  0.5769  0.2797 -1.3835
  922MOL0     C24368  11.243   3.969  11.466  0.5973 -0.7576 -0.2293
  922MOL0     C24369  11.297   3.857  11.406  0.7260 -0.4676  0.4563
  922MOL0     C24370  11.267   3.732  11.466 -0.1445  0.1411 -0.3078
  922MOL0     O24371  11.339   3.623  11.420 -0.2090 -0.7914  0.7207
  922MOL0     C24372  11.312   3.489  11.468  1.5197  0.8564 -0.3614
  922MOL0     C24373  11.385   3.456  11.588 -1.0045  0.3117  1.0548
  922MOL0     C24374  11.550   3.454  11.563  0.5499  0.6270 -0.1011
  922MOL0     C24375  11.582   3.314  11.498 -0.8917 -0.4559 -0.3305
  922MOL0     C24376  11.729   3.318  11.459 -0.5419  0.9859  0.0464
  922MOL0     C24377  11.785   3.178  11.424  0.3866  1.3938  0.3639
  922MOL0     C24378  11.936   3.176  11.395 -0.3158 -0.8206  0.2657
  922MOL0     C24379  12.008   3.040  11.437  0.5814 -0.1752 -0.3445
  922MOL0    Cl24380  12.110   2.993  11.296  0.0728 -0.1154  0.1044
  922MOL0     C24381  11.171   3.734  11.572 -0.0097 -0.2912 -0.0214
  922MOL0     C24382  11.108   3.851  11.624 -0.7914  0.9038  0.6141
  922MOL0     O24383  10.892   4.022  11.635  0.3117 -0.6949 -0.3652
  922MOL0     C24384  11.026   4.348  11.698 -2.0601 -0.0943 -0.4070
  922MOL0     C24385  10.994   4.480  11.728  0.3070 -0.7143  0.9038
  922MOL0     N24386  10.438   5.083  11.939  0.0829 -0.2443  0.2652
  922MOL0     N24387  10.362   5.101  12.046 -0.2095 -0.7816 -0.3578
  922MOL0     C24388   9.806   4.587  11.475  0.5017  0.1120 -0.2355
  922MOL0     C24389   9.834   4.497  11.372 -0.4928 -0.0180  1.0959
  922MOL0     C24390  10.018   4.219  11.082 -0.3011  0.5239  0.0584
  922MOL0     C24391  10.100   4.283  10.985 -0.0695 -0.0705 -1.4048
  922MOL0     C24392  10.119   4.209  10.863  0.5490  0.0671 -0.3707
  922MOL0     C24393  10.071   4.086  10.835  0.1547 -0.6511 -0.2035
  922MOL0     O24394  10.105   4.020  10.722 -0.3840 -0.4437 -0.1693
  922MOL0     C24395   9.989   3.974  10.647  0.4250  0.3766  0.0764
  922MOL0     C24396  10.005   3.985  10.489  0.5150  0.4409 -0.2410
  922MOL0     C24397   9.883   3.925  10.421  0.1938  0.6008 -0.1958
  922MOL0     C24398   9.908   3.938  10.270  0.3217 -0.2023 -0.8647
  922MOL0     C24399   9.821   3.846  10.199  0.7853 -0.1828 -0.5673
  922MOL0     C24400   9.755   3.759  10.141 -0.3948  0.2023  0.6842
  922MOL0     C24401   9.996   4.020  10.941 -0.3255 -1.0995 -0.2222
  922MOL0     C24402   9.962   4.092  11.056  1.0212  0.0620  0.5143
  922MOL0     H24403  10.161   4.577  11.321 -0.3723  2.8171 -1.7538
  922MOL0     H24404  10.114   4.715  11.532 -0.0756  0.3883 -0.9676
  922MOL0     H24405   9.984   4.932  11.616  0.7591 -1.2459 -1.0510
  922MOL0     H24406   9.884   4.892  11.481  1.8599  5.5650 -0.1403
  922MOL0     H24407   9.802   5.084  11.604  3.0107 -0.6101  0.0528
  922MOL0     H24408   9.674   4.960  11.621 -0.2783 -3.1197  1.8670
  922MOL0     H24409   9.710   5.047  11.843  0.1914 -0.0232 -0.5730
  922MOL0     H24410   9.795   4.890  11.845 -0.6342  0.3058  0.1083
  922MOL0     H24411  10.010   5.012  11.818  0.2179  1.3716 -1.9768
  922MOL0     H24412   9.935   5.169  11.812 -1.0771  0.6364  0.4643
  922MOL0     H24413   9.822   5.126  12.040  0.2187  0.0208  0.7332
  922MOL0     H24414   9.931   4.979  12.044  2.4248  1.1689  4.8769
  922MOL0     H24415  10.113   5.155  11.969 -0.9005  0.0371 -1.7455
  922MOL0     H24416  10.010   5.273  12.035  1.4407 -0.0535  1.9182
  922MOL0     H24417  10.154   5.195  12.228  1.5848 -1.3268 -2.1868
  922MOL0     H24418  10.002   5.102  12.252 -0.5464 -0.0165 -0.0225
  922MOL0     H24419  10.107   4.914  12.135 -0.5443  1.8467 -3.3926
  922MOL0     H24420  10.223   4.970  12.269 -0.4135 -2.0538  0.1965
  922MOL0     H24421  10.276   4.795  11.998 -1.4042  1.1324  2.8049
  922MOL0     H24422  10.397   4.886  11.696 -1.2980 -0.8840  0.0272
  922MOL0     H24423  10.550   4.962  11.731  0.1974 -1.6384 -2.9049
  922MOL0     H24424  10.465   4.686  11.833  0.1045 -1.6867 -1.9119
  922MOL0     H24425  10.612   4.755  11.888  0.4978  0.8831  0.3071
  922MOL0     H24426  10.569   4.710  11.585  0.5518 -1.3013 -0.1790
  922MOL0     H24427  10.575   4.569  11.682  0.2343  0.1850 -1.6583
  922MOL0     H24428  10.789   4.775  11.634 -2.8811  0.8890  0.1867
  922MOL0     H24429  10.800   4.622  11.573  0.2659  1.6290 -2.6823
  922MOL0     H24430  10.683   4.416  11.842 -1.7549  0.0840 -2.9771
  922MOL0     H24431  10.690   4.103  11.726  5.1508  0.2036 -1.3224
  922MOL0     H24432  10.772   4.063  11.859 -0.5856 -2.0943 -3.8395
  922MOL0     H24433  10.642   4.190  11.879 -1.8002  0.7194 -2.1776
  922MOL0     H24434  11.260   4.069  11.430 -2.3865  0.5087  1.4707
  922MOL0     H24435  11.379   3.859  11.335 -0.5334 -1.7489 -1.1544
  922MOL0     H24436  11.206   3.473  11.491  2.1122  2.6325  5.0355
  922MOL0     H24437  11.332   3.427  11.380 -0.6204 -0.3185 -0.0940
  922MOL0     H24438  11.371   3.528  11.670  0.5030  0.1731  1.4725
  922MOL0     H24439  11.356   3.356  11.623  0.1164 -0.2119  0.5535
  922MOL0     H24440  11.611   3.467  11.653  2.0095 -1.0044 -0.8034
  922MOL0     H24441  11.581   3.533  11.494 -2.6261  2.7328  0.6172
  922MOL0     H24442  11.566   3.236  11.574 -0.1283  0.0366  0.3597
  922MOL0     H24443  11.521   3.290  11.411  1.4214 -0.2313 -2.1266
  922MOL0     H24444  11.804   3.366  11.524  2.3484 -1.6186 -1.1492
  922MOL0     H24445  11.726   3.385  11.373  2.3272  1.4275  0.1745
  922MOL0     H24446  11.757   3.117  11.510  0.1995  2.9597  1.4502
  922MOL0     H24447  11.727   3.145  11.337 -1.0095  1.7040  1.1357
  922MOL0     H24448  11.984   3.257  11.451  1.4322 -0.0635 -2.1192
  922MOL0     H24449  11.957   3.200  11.290 -0.1629 -1.5043  0.1344
  922MOL0     H24450  11.931   2.972  11.475 -2.6517  3.1738 -0.3497
  922MOL0     H24451  12.075   3.068  11.519 -0.2587  1.6494 -0.2385
  922MOL0     H24452  11.143   3.636  11.611  1.0549  0.1576  1.9873
  922MOL0     H24453  11.036   3.843  11.706 -3.6660  1.0145 -1.7397
  922MOL0     H24454  11.126   4.339  11.657  0.2960  4.6548  3.2461
  922MOL0     H24455  11.054   4.568  11.709 -1.7597  0.2995 -1.6697
  922MOL0     H24456   9.703   4.602  11.507  0.8704  2.5896  0.0385
  922MOL0     H24457   9.746   4.445  11.335 -0.6853  0.4701  0.8728
  922MOL0     H24458  10.140   4.382  11.000 -0.8111  0.0535 -0.0742
  922MOL0     H24459  10.164   4.273  10.787  0.4107  0.5487 -0.0551
  922MOL0     H24460   9.966   3.869  10.669 -2.8270  0.6019 -1.6869
  922MOL0     H24461   9.894   4.024  10.672 -0.3215 -0.6769 -0.5725
  922MOL0     H24462  10.092   3.931  10.453  0.5161  0.3322 -0.0746
  922MOL0     H24463  10.032   4.089  10.468 -0.1565  0.7205  0.2139
  922MOL0     H24464   9.796   3.981  10.457  0.0870 -0.0777  0.6225
  922MOL0     H24465   9.892   3.820  10.448  0.3233  0.9774  1.3093
  922MOL0     H24466  10.013   3.915  10.250  0.9767  1.7882 -0.0104
  922MOL0     H24467   9.878   4.039  10.241 -0.7221 -0.2365  0.0542
  922MOL0     H24468   9.712   3.681  10.080  0.5350  0.1172  0.1129
  922MOL0     H24469   9.951   3.926  10.909  2.4050 -2.2318 -0.9928
  922MOL0     H24470   9.886   4.041  11.114  0.5434 -0.2738 -0.3724
  923MOL0     O24471   1.357   7.209  10.195  0.1080  0.5869 -0.0396
  923MOL0     C24472   1.380   7.302  10.117  0.5119  0.2848  0.1438
  923MOL0     O24473   1.495   7.327  10.054 -0.9440 -0.4618 -0.0267
  923MOL0     C24474   1.617   7.269  10.087 -0.3665 -0.0316  0.5754
  923MOL0     C24475   1.656   7.275  10.224  0.1079 -0.3987  0.0284
  923MOL0     C24476   1.770   7.211  10.275  0.9163 -0.2322 -0.2038
  923MOL0     C24477   1.864   7.158  10.186  0.8862  0.0456  0.6486
  923MOL0     O24478   1.983   7.131  10.243  0.1133 -0.5492  1.0024
  923MOL0     C24479   2.087   7.047  10.178 -0.2672 -0.1298  0.3080
  923MOL0     C24480   2.166   7.125  10.073  0.4190  0.3161  0.5602
  923MOL0     C24481   2.235   7.248  10.139  0.0748  0.1484 -0.2860
  923MOL0     C24482   2.380   7.242  10.124 -0.1385  0.0872  0.0696
  923MOL0     C24483   2.456   7.351  10.194  1.0723 -0.1357 -0.5588
  923MOL0     C24484   2.451   7.476  10.109 -0.1398 -0.6258  0.4587
  923MOL0     C24485   2.512   7.588  10.200 -0.3505  0.5928 -0.4379
  923MOL0     C24486   2.667   7.588  10.223 -0.8721  0.4243 -0.0139
  923MOL0     N24487   2.716   7.714  10.275 -0.1047 -0.2869  0.1488
  923MOL0     C24488   2.692   7.771  10.400 -0.3959 -0.5011 -0.7726
  923MOL0     C24489   2.791   7.873  10.422 -0.8465 -0.1480 -0.0160
  923MOL0     C24490   2.799   7.963  10.541  0.8386 -0.3836 -0.5406
  923MOL0     C24491   2.786   7.902  10.675 -0.2941  0.0091  0.1626
  923MOL0     C24492   2.887   7.794  10.711 -0.2414  0.4263  0.4195
  923MOL0     C24493   3.039   7.829  10.737 -0.2125  0.7237 -0.4462
  923MOL0     O24494   3.064   7.902  10.860 -0.6530 -0.1630  0.3757
  923MOL0     C24495   3.199   7.912  10.878  0.0046  1.1853 -0.2764
  923MOL0     C24496   3.248   7.844  10.991  0.4017  0.3892  0.2333
  923MOL0     C24497   3.375   7.858  11.020 -0.1296  0.6910 -0.4124
  923MOL0     C24498   3.422   7.788  11.147  0.2019 -0.1535  0.4432
  923MOL0     C24499   3.463   7.935  10.939 -0.2320 -0.2671 -0.1987
  923MOL0     C24500   3.598   7.982  10.971 -0.4451  0.0378  0.3356
  923MOL0     O24501   3.678   8.043  10.873  0.1089  0.2386 -0.3646
  923MOL0     C24502   3.795   8.104  10.929  1.2665 -1.2539 -0.5967
  923MOL0     C24503   3.785   8.214  11.021  0.5260  0.2388 -0.6727
  923MOL0     C24504   3.901   8.286  11.055 -1.2216  0.1276 -0.1222
  923MOL0     C24505   4.030   8.232  11.041  0.5252  0.8189 -0.1457
  923MOL0     O24506   4.136   8.281  11.105 -0.3019 -0.7648 -0.1215
  923MOL0     C24507   4.135   8.413  11.171 -0.0148  0.8871  0.5763
  923MOL0     C24508   4.264   8.473  11.167  0.4422 -0.0560 -0.3929
  923MOL0     C24509   4.294   8.529  11.030 -0.3172  0.1333 -0.4483
  923MOL0     C24510   4.437   8.587  11.023 -0.2014  0.5842 -0.2355
  923MOL0     C24511   4.453   8.703  10.928  1.2461 -0.7469  0.3597
  923MOL0     C24512   4.581   8.778  10.930  0.1168 -0.2727  0.6107
  923MOL0     C24513   4.578   8.901  10.828  0.3982  0.3870  0.1652
  923MOL0     C24514   4.719   8.979  10.817  0.4809  1.2943 -0.5771
  923MOL0    Cl24515   4.731   9.082  10.667 -0.0657  0.3133  0.3204
  923MOL0     C24516   4.035   8.117  10.964 -0.4037 -1.1221  0.6059
  923MOL0     C24517   3.926   8.063  10.901  1.3749  0.0616  0.6901
  923MOL0     O24518   3.625   7.967  11.084 -0.3168  0.2181  0.5481
  923MOL0     C24519   3.416   7.982  10.814  1.2382 -0.1324  0.3537
  923MOL0     C24520   3.279   7.964  10.780  1.0556  0.1426  0.7291
  923MOL0     N24521   2.869   7.867  10.307  0.3090  1.0516  0.4070
  923MOL0     N24522   2.817   7.783  10.218 -0.1852 -0.6373 -0.0952
  923MOL0     C24523   1.822   7.140  10.048 -0.5233 -0.6899  0.8261
  923MOL0     C24524   1.704   7.199  10.007 -0.9191 -1.1304  0.3912
  923MOL0     C24525   1.270   7.390  10.078 -0.0443 -0.1186 -0.4538
  923MOL0     C24526   1.134   7.368  10.116  0.1925 -0.5440  0.5473
  923MOL0     C24527   1.027   7.460  10.079  0.1532 -0.2864  0.6686
  923MOL0     C24528   1.065   7.574  10.008 -0.4396  0.5875  1.0566
  923MOL0     O24529   0.978   7.680   9.987  0.1718 -0.0966  0.5053
  923MOL0     C24530   0.839   7.640   9.955 -0.7701  0.1747  0.2806
  923MOL0     C24531   0.855   7.608   9.803  0.7824  0.2559  0.0999
  923MOL0     C24532   0.904   7.731   9.728 -0.2138 -0.1027 -0.5353
  923MOL0     C24533   0.849   7.877   9.759 -0.5929 -0.0397  1.4925
  923MOL0     C24534   0.704   7.873   9.744  0.4054 -0.1905  0.1504
  923MOL0     C24535   0.585   7.877   9.721  0.5770  0.5580  0.7751
  923MOL0     C24536   1.196   7.585   9.955  0.1251  0.9983  0.7451
  923MOL0     C24537   1.295   7.500  10.000  0.2661  0.7068  0.4117
  923MOL0     H24538   1.588   7.337  10.282 -1.6111  0.1013 -2.3588
  923MOL0     H24539   1.788   7.212  10.382  3.0036  0.1175 -0.5177
  923MOL0     H24540   2.158   7.023  10.258 -1.2146  0.0332  1.2256
  923MOL0     H24541   2.040   6.955  10.143 -1.5391  0.5502  0.1869
  923MOL0     H24542   2.238   7.052  10.036  1.2553  1.2911  0.2262
  923MOL0     H24543   2.100   7.145   9.988  0.9005 -1.4484 -0.2706
  923MOL0     H24544   2.194   7.343  10.102  1.4744  0.2573 -1.6936
  923MOL0     H24545   2.206   7.250  10.244 -2.4502  1.0967 -0.9077
  923MOL0     H24546   2.422   7.145  10.151  0.6815  0.3522 -0.2079
  923MOL0     H24547   2.396   7.245  10.015  2.3597 -1.2575  0.3353
  923MOL0     H24548   2.403   7.375  10.286 -0.6912  1.2307 -1.8726
  923MOL0     H24549   2.556   7.312  10.218  1.6500 -0.9848 -3.8625
  923MOL0     H24550   2.525   7.475  10.028 -0.0174 -2.9188  0.5509
  923MOL0     H24551   2.354   7.503  10.068 -1.0992 -0.6276  2.5980
  923MOL0     H24552   2.493   7.679  10.142  1.0322  0.8724 -0.4638
  923MOL0     H24553   2.450   7.592  10.290 -1.2886 -1.1628 -0.9531
  923MOL0     H24554   2.723   7.574  10.130 -0.4386 -1.2909  0.4644
  923MOL0     H24555   2.699   7.514  10.298  2.9775  0.6928 -1.1852
  923MOL0     H24556   2.616   7.754  10.475  2.1474 -0.0579  2.0829
  923MOL0     H24557   2.900   8.005  10.544  1.2394 -1.3541  1.0413
  923MOL0     H24558   2.723   8.038  10.518 -0.1532 -0.8584  1.0026
  923MOL0     H24559   2.689   7.853  10.688  0.5299 -1.8695 -0.5223
  923MOL0     H24560   2.805   7.986  10.743  2.4809  1.6420 -2.3947
  923MOL0     H24561   2.898   7.725  10.627 -0.8382  2.1797 -1.1880
  923MOL0     H24562   2.859   7.730  10.795  1.0744 -2.3116 -1.0941
  923MOL0     H24563   3.059   7.898  10.654  0.7768  0.6630 -0.2588
  923MOL0     H24564   3.110   7.749  10.718 -1.8647 -0.4699 -1.9692
  923MOL0     H24565   3.169   7.810  11.057 -0.5703  0.3340 -0.9228
  923MOL0     H24566   3.364   7.698  11.171 -0.1200  0.2404  1.2064
  923MOL0     H24567   3.525   7.752  11.150 -0.7214 -2.9885  2.5124
  923MOL0     H24568   3.402   7.856  11.231 -0.0651 -2.5992  2.4900
  923MOL0     H24569   3.688   8.255  11.047  0.1250 -2.3013  2.4194
  923MOL0     H24570   3.900   8.381  11.107 -0.8658 -0.3239  0.7254
  923MOL0     H24571   4.067   8.476  11.112 -0.7295  0.7110  1.1925
  923MOL0     H24572   4.108   8.409  11.277 -1.0126  0.8118  0.3318
  923MOL0     H24573   4.262   8.561  11.233 -1.6588  1.3789 -2.2067
  923MOL0     H24574   4.337   8.403  11.208 -1.4285 -0.4824  2.4997
  923MOL0     H24575   4.229   8.615  11.013  1.3667  1.2909 -1.2946
  923MOL0     H24576   4.270   8.460  10.948 -0.4591  0.1487 -0.4201
  923MOL0     H24577   4.457   8.632  11.120 -3.0788 -3.7292  2.7217
  923MOL0     H24578   4.510   8.506  11.014  0.9362  1.3119  1.8015
  923MOL0     H24579   4.388   8.783  10.963  1.9747  0.4178 -0.8437
  923MOL0     H24580   4.426   8.680  10.825  1.9453  2.8412 -0.7377
  923MOL0     H24581   4.602   8.818  11.030  0.7877 -0.1568  0.4256
  923MOL0     H24582   4.660   8.719  10.884  0.4371  1.1849 -0.8111
  923MOL0     H24583   4.498   8.969  10.859  0.3564  0.5275 -0.2441
  923MOL0     H24584   4.570   8.866  10.725  1.3603 -1.5748  0.7027
  923MOL0     H24585   4.804   8.911  10.820  0.3955  1.2147  0.8921
  923MOL0     H24586   4.719   9.042  10.907 -1.1298  1.7947 -0.8923
  923MOL0     H24587   4.136   8.080  10.953  0.0503  0.0091  0.8121
  923MOL0     H24588   3.942   7.980  10.833 -2.3245 -0.2123 -0.0525
  923MOL0     H24589   3.468   8.047  10.744  2.6983  1.1071  2.4567
  923MOL0     H24590   3.235   8.023  10.700  0.6331  2.4552  2.5386
  923MOL0     H24591   1.893   7.079   9.993  2.1263  0.9964  2.1369
  923MOL0     H24592   1.684   7.192   9.900  0.6573 -2.3859  0.1392
  923MOL0     H24593   1.116   7.279  10.175 -3.4759 -1.4109 -1.5832
  923MOL0     H24594   0.926   7.438  10.112  0.0004  1.2311  1.2842
  923MOL0     H24595   0.797   7.553  10.006 -0.1544 -1.5912 -2.0469
  923MOL0     H24596   0.769   7.721   9.981 -0.1257  0.6801  0.4717
  923MOL0     H24597   0.760   7.588   9.753  1.2827  0.6540 -1.0635
  923MOL0     H24598   0.925   7.525   9.786 -0.6626 -1.5676  2.4788
  923MOL0     H24599   0.878   7.711   9.624 -3.3835  1.8838 -0.2843
  923MOL0     H24600   1.012   7.741   9.741 -0.4000  0.0836  1.1407
  923MOL0     H24601   0.878   7.948   9.680 -3.6213 -0.3272 -0.0315
  923MOL0     H24602   0.869   7.925   9.855 -0.6768  3.0508  0.0985
  923MOL0     H24603   0.479   7.884   9.712  0.2534 -3.8382 -2.4905
  923MOL0     H24604   1.208   7.669   9.887 -2.1407 -0.5649 -1.8089
  923MOL0     H24605   1.390   7.521   9.952 -0.0295 -1.0387 -0.9994
  924MOL0     O24606   7.459   7.071   3.037  0.4234 -0.0045 -0.2456
  924MOL0     C24607   7.548   7.105   2.960 -0.5901  0.9238  1.3306
  924MOL0     O24608   7.529   7.180   2.842  0.2759 -0.0368 -0.1550
  924MOL0     C24609   7.397   7.205   2.795  0.2866 -0.8381 -0.1679
  924MOL0     C24610   7.296   7.275   2.852 -0.1929 -0.3115 -0.0431
  924MOL0     C24611   7.176   7.313   2.792  0.6662 -0.2518  0.0390
  924MOL0     C24612   7.143   7.271   2.670 -0.0003  0.5343  0.4154
  924MOL0     O24613   7.016   7.288   2.628  0.6830 -0.1096  0.1299
  924MOL0     C24614   6.987   7.263   2.487  0.1030 -0.7965 -0.1777
  924MOL0     C24615   7.020   7.385   2.396 -0.4867 -0.6246 -0.2829
  924MOL0     C24616   6.975   7.513   2.459  1.1636 -0.6500 -0.1378
  924MOL0     C24617   6.819   7.544   2.444 -0.6132  1.2011 -0.0121
  924MOL0     C24618   6.794   7.690   2.479 -0.3942  0.2770  0.0821
  924MOL0     C24619   6.655   7.735   2.445 -0.0024  0.4788  0.1632
  924MOL0     C24620   6.641   7.885   2.446 -0.7060  0.5210  0.2401
  924MOL0     C24621   6.504   7.928   2.392 -1.2646 -0.4139 -0.0182
  924MOL0     N24622   6.503   7.950   2.253  0.2588 -0.0321  0.3721
  924MOL0     C24623   6.457   7.860   2.164  0.4702  0.2480  1.1314
  924MOL0     C24624   6.499   7.895   2.035  0.6721 -0.3203 -1.2223
  924MOL0     C24625   6.438   7.817   1.907 -0.0696  0.2498 -0.2804
  924MOL0     C24626   6.523   7.851   1.781  0.7987 -0.4803  0.2695
  924MOL0     C24627   6.444   7.799   1.662 -0.0731 -0.2532  0.4952
  924MOL0     C24628   6.400   7.651   1.656 -1.3205  0.3677 -0.1256
  924MOL0     O24629   6.523   7.578   1.635  0.6286  0.2162  0.9374
  924MOL0     C24630   6.556   7.579   1.503  0.1193 -0.1102 -0.0377
  924MOL0     C24631   6.659   7.658   1.451  1.1659 -0.6312  0.3681
  924MOL0     C24632   6.692   7.647   1.314 -0.1741 -0.4216 -0.4856
  924MOL0     C24633   6.815   7.721   1.255  1.1161 -0.2714 -0.4313
  924MOL0     C24634   6.616   7.553   1.236  0.5823  0.0557  0.3190
  924MOL0     C24635   6.639   7.523   1.091 -0.4631 -0.0102  0.0618
  924MOL0     O24636   6.530   7.482   1.031 -0.3386 -0.3415  0.0472
  924MOL0     C24637   6.522   7.504   0.891 -0.0632  1.0003 -0.7441
  924MOL0     C24638   6.473   7.623   0.841  0.4788 -1.6837  0.1026
  924MOL0     C24639   6.485   7.645   0.700 -0.6717  0.6037 -0.6596
  924MOL0     C24640   6.533   7.548   0.613  0.1410  0.3963 -0.2210
  924MOL0     O24641   6.555   7.582   0.484  0.1078  0.4960  0.1130
  924MOL0     C24642   6.471   7.525   0.386  0.8468  0.0261  0.8002
  924MOL0     C24643   6.403   7.633   0.303 -0.9057  0.2484 -0.2307
  924MOL0     C24644   6.339   7.574   0.174 -0.2482  0.0642  0.9587
  924MOL0     C24645   6.193   7.606   0.158  0.2734 -0.4466  0.7280
  924MOL0     C24646   6.141   7.558   0.023 -0.0833 -0.4421  0.5613
  924MOL0     C24647   6.009   7.628  -0.028 -0.0086  0.0034  0.0530
  924MOL0     C24648   5.946   7.566  -0.155 -0.3856  0.5002  0.7334
  924MOL0     C24649   5.842   7.652  -0.212  1.0988 -0.4336 -1.0127
  924MOL0    Cl24650   5.689   7.639  -0.093 -0.1433 -0.5075 -0.2183
  924MOL0     C24651   6.572   7.420   0.663 -0.3193 -0.4347  0.4072
  924MOL0     C24652   6.574   7.400   0.808  0.5232 -0.6579  0.1106
  924MOL0     O24653   6.750   7.547   1.041  0.2158 -0.1928  0.0103
  924MOL0     C24654   6.518   7.475   1.296 -0.3656 -0.3458 -0.0497
  924MOL0     C24655   6.487   7.485   1.426  0.0076 -0.2473 -0.1785
  924MOL0     N24656   6.561   8.022   2.051 -0.7841  0.8038  0.4087
  924MOL0     N24657   6.561   8.049   2.178 -0.2660 -0.3768  0.2538
  924MOL0     C24658   7.245   7.191   2.602 -0.7311 -0.6247 -0.4318
  924MOL0     C24659   7.366   7.166   2.665  1.5999  0.0052  0.0245
  924MOL0     C24660   7.685   7.060   2.995  0.3108  0.2649 -0.0942
  924MOL0     C24661   7.721   7.022   3.125  0.3420  0.1694 -0.3138
  924MOL0     C24662   7.841   6.954   3.152 -0.6705 -0.5518  0.9770
  924MOL0     C24663   7.942   6.940   3.049  0.2379 -0.4752 -0.5396
  924MOL0     O24664   8.074   6.886   3.062  0.5329  0.6962 -0.3152
  924MOL0     C24665   8.129   6.857   3.196  1.1520  0.4153  0.4794
  924MOL0     C24666   8.197   6.974   3.237 -0.6863  0.0013  0.2403
  924MOL0     C24667   8.229   6.985   3.390  0.0049  0.5450 -0.3922
  924MOL0     C24668   8.106   7.007   3.484  0.0792  0.0007 -0.8633
  924MOL0     C24669   8.023   7.118   3.435 -0.1460  0.8510 -0.3236
  924MOL0     C24670   7.962   7.216   3.402 -0.5502  1.0047  0.2321
  924MOL0     C24671   7.906   7.001   2.926 -1.0850  0.2198  0.8155
  924MOL0     C24672   7.786   7.065   2.896  0.2330  0.4022 -0.2502
  924MOL0     H24673   7.319   7.313   2.951  0.0815 -2.0730  0.6111
  924MOL0     H24674   7.111   7.375   2.853 -0.3707  0.6423 -1.9002
  924MOL0     H24675   7.032   7.167   2.458  1.1027 -0.6472  0.7769
  924MOL0     H24676   6.881   7.239   2.484  0.3607 -1.9440 -0.5303
  924MOL0     H24677   7.128   7.400   2.393 -0.5733 -0.2185 -1.5450
  924MOL0     H24678   6.985   7.366   2.295  3.5198 -1.5976 -1.6702
  924MOL0     H24679   6.993   7.522   2.567 -1.5865  0.2182  0.3388
  924MOL0     H24680   7.033   7.594   2.414  0.0133  0.8711  1.0221
  924MOL0     H24681   6.793   7.530   2.339 -0.5796  2.8237 -0.2556
  924MOL0     H24682   6.762   7.471   2.503 -2.3508  1.0714 -1.7572
  924MOL0     H24683   6.809   7.707   2.586 -1.3383 -1.5580  0.5581
  924MOL0     H24684   6.871   7.748   2.428  0.7398 -0.0204  1.4245
  924MOL0     H24685   6.622   7.686   2.353  0.2763 -2.2529  1.4355
  924MOL0     H24686   6.587   7.686   2.515 -0.7950 -1.0995 -1.6175
  924MOL0     H24687   6.662   7.924   2.546  3.0081 -3.8530  1.5174
  924MOL0     H24688   6.721   7.929   2.385  1.0194 -0.9505  1.3550
  924MOL0     H24689   6.482   8.024   2.440 -3.4412 -1.0938  0.4848
  924MOL0     H24690   6.424   7.856   2.413 -0.9837 -0.5845  0.5032
  924MOL0     H24691   6.392   7.776   2.187 -1.2322  1.1112 -0.2239
  924MOL0     H24692   6.456   7.709   1.919  0.4372  0.3517 -0.1180
  924MOL0     H24693   6.331   7.832   1.891 -0.1087 -1.4256 -2.0035
  924MOL0     H24694   6.627   7.821   1.790  2.2824  4.0806  0.9567
  924MOL0     H24695   6.546   7.957   1.767  2.3810 -0.8725 -0.2812
  924MOL0     H24696   6.495   7.818   1.567 -1.0790  1.9771  0.3356
  924MOL0     H24697   6.349   7.854   1.656 -0.8357 -1.6910 -2.8921
  924MOL0     H24698   6.337   7.653   1.568  0.6238  1.3519 -1.5783
  924MOL0     H24699   6.342   7.619   1.743 -2.3855  1.1209 -0.5432
  924MOL0     H24700   6.724   7.729   1.503  2.9009 -1.3835 -0.6898
  924MOL0     H24701   6.885   7.743   1.336 -2.9833 -0.1939  3.4834
  924MOL0     H24702   6.880   7.668   1.185  2.8489 -0.3313  1.1655
  924MOL0     H24703   6.778   7.817   1.217  0.3202 -0.6330 -0.5929
  924MOL0     H24704   6.444   7.713   0.894 -0.3781 -2.5351  1.1021
  924MOL0     H24705   6.453   7.746   0.677 -0.5759  0.1980 -2.7099
  924MOL0     H24706   6.548   7.475   0.327 -0.4767 -1.2418  0.0863
  924MOL0     H24707   6.400   7.447   0.416 -0.6215  1.2392  0.6053
  924MOL0     H24708   6.340   7.685   0.376 -1.8092 -0.0254 -0.8046
  924MOL0     H24709   6.489   7.692   0.272  0.8962 -0.1083  3.5532
  924MOL0     H24710   6.372   7.471   0.162  0.1751  0.2431  0.5766
  924MOL0     H24711   6.378   7.616   0.081 -0.8326 -3.3793 -1.0211
  924MOL0     H24712   6.156   7.548   0.243  0.5920 -1.0946  0.4326
  924MOL0     H24713   6.177   7.714   0.165 -2.8717 -0.7108 -0.8147
  924MOL0     H24714   6.134   7.448   0.021  3.8864 -0.8330 -0.5597
  924MOL0     H24715   6.209   7.584  -0.058  0.2342  0.8166  1.2141
  924MOL0     H24716   5.922   7.614   0.037 -1.7820 -0.2667 -2.2335
  924MOL0     H24717   6.033   7.733  -0.044 -1.1912  0.6803  2.3662
  924MOL0     H24718   5.920   7.463  -0.128  0.1898  1.0340  3.5598
  924MOL0     H24719   6.025   7.553  -0.230 -1.5163 -0.4413 -0.3514
  924MOL0     H24720   5.811   7.614  -0.310  0.6819 -1.3659 -0.5194
  924MOL0     H24721   5.884   7.753  -0.220  1.1465 -0.4443 -0.9005
  924MOL0     H24722   6.601   7.342   0.594  1.1042  0.3261  0.0951
  924MOL0     H24723   6.600   7.302   0.847  0.0340 -1.3580 -1.2326
  924MOL0     H24724   6.469   7.400   1.235 -2.1571  0.4953  0.3133
  924MOL0     H24725   6.406   7.439   1.481  1.4404 -2.3066  0.3287
  924MOL0     H24726   7.233   7.144   2.506 -0.9712 -2.5668  0.4965
  924MOL0     H24727   7.443   7.114   2.609  2.2002 -3.6237  3.6853
  924MOL0     H24728   7.645   7.032   3.202 -1.3393 -5.7812 -0.7662
  924MOL0     H24729   7.866   6.911   3.248 -0.6055 -1.9985  0.3390
  924MOL0     H24730   8.043   6.842   3.261 -0.9207  1.5793 -1.8106
  924MOL0     H24731   8.192   6.768   3.198 -0.9340 -1.2709 -2.0799
  924MOL0     H24732   8.136   7.062   3.214 -0.6361  0.5899  2.1883
  924MOL0     H24733   8.292   6.988   3.186 -2.2885  2.4137 -2.4355
  924MOL0     H24734   8.306   7.062   3.400 -0.4739  0.9037  0.7025
  924MOL0     H24735   8.284   6.896   3.421 -2.8297 -1.8377 -1.6362
  924MOL0     H24736   8.134   7.028   3.588  0.6163 -0.4779 -0.9024
  924MOL0     H24737   8.052   6.912   3.490 -0.9865  0.6613  1.3906
  924MOL0     H24738   7.929   7.309   3.360  0.7987  0.8565 -1.2286
  924MOL0     H24739   7.969   6.997   2.837 -1.5830 -3.0403  0.4980
  924MOL0     H24740   7.767   7.112   2.800 -2.3066  2.3935  1.1043
  925MOL0     O24741  10.185   0.418   2.593  0.4293 -0.0706 -0.4960
  925MOL0     C24742  10.258   0.350   2.520 -0.2814 -0.3487 -0.2237
  925MOL0     O24743  10.229   0.293   2.400  0.0443 -0.1759  0.0698
  925MOL0     C24744  10.113   0.342   2.346  0.5166  0.2415  0.1938
  925MOL0     C24745  10.009   0.248   2.306 -0.4407  0.0604 -0.8958
  925MOL0     C24746   9.887   0.306   2.275  0.8611 -0.4541  0.2334
  925MOL0     C24747   9.863   0.442   2.273  0.3238 -0.4043 -0.0083
  925MOL0     O24748   9.736   0.490   2.258  0.7437  0.3678  0.7791
  925MOL0     C24749   9.681   0.579   2.355 -0.1129  0.2196 -0.3459
  925MOL0     C24750   9.539   0.615   2.304 -0.3081  0.8971 -0.7560
  925MOL0     C24751   9.419   0.535   2.356  0.4612  0.5671 -0.1839
  925MOL0     C24752   9.448   0.383   2.346  1.1738 -1.0486  0.0538
  925MOL0     C24753   9.333   0.293   2.382 -0.1075  0.1317 -0.0306
  925MOL0     C24754   9.225   0.297   2.275 -0.0007  0.5656  0.5840
  925MOL0     C24755   9.094   0.258   2.347  0.0084  0.3263 -0.4716
  925MOL0     C24756   8.963   0.256   2.262  0.3749 -0.0164  0.9432
  925MOL0     N24757   8.839   0.280   2.341 -0.3737 -0.1817  0.1123
  925MOL0     C24758   8.807   0.409   2.373  0.1334 -0.7729 -0.4625
  925MOL0     C24759   8.680   0.391   2.431  0.3366 -0.0314  1.0306
  925MOL0     C24760   8.571   0.496   2.468  0.6039  0.3524  0.3668
  925MOL0     C24761   8.542   0.505   2.610  0.7448 -0.4162  0.0522
  925MOL0     C24762   8.387   0.506   2.625 -0.4930  0.4467  0.2513
  925MOL0     C24763   8.351   0.557   2.770 -0.0629  0.1228 -0.0982
  925MOL0     O24764   8.365   0.699   2.784  0.3244 -1.2370  0.2327
  925MOL0     C24765   8.244   0.770   2.772  0.6011 -0.2718  0.1590
  925MOL0     C24766   8.143   0.776   2.870 -0.7226 -0.2993  0.0975
  925MOL0     C24767   8.038   0.862   2.845  0.3113 -0.0539  0.4031
  925MOL0     C24768   7.933   0.856   2.958  0.2910  0.5032 -0.5142
  925MOL0     C24769   8.015   0.923   2.716 -0.6866  0.2213 -0.0313
  925MOL0     C24770   7.893   1.006   2.678 -1.1977  0.8216  0.1318
  925MOL0     O24771   7.907   1.094   2.571  0.3286  0.0721  0.6999
  925MOL0     C24772   7.789   1.141   2.513  0.1063  0.2127  0.3600
  925MOL0     C24773   7.769   1.273   2.465  0.0184 -0.0509  0.4505
  925MOL0     C24774   7.653   1.313   2.403  0.2994  0.7890 -0.0789
  925MOL0     C24775   7.544   1.220   2.394  0.8687 -0.0482 -0.1841
  925MOL0     O24776   7.418   1.267   2.351 -0.1450  0.2047  0.1092
  925MOL0     C24777   7.400   1.406   2.316  0.4114 -0.2435 -0.5091
  925MOL0     C24778   7.253   1.428   2.278 -0.4890  0.1638  0.0570
  925MOL0     C24779   7.155   1.382   2.383  0.7095  1.3273 -0.6769
  925MOL0     C24780   7.018   1.369   2.312 -0.2434  0.0007 -0.3992
  925MOL0     C24781   6.890   1.332   2.399  0.0088 -0.2403  0.4427
  925MOL0     C24782   6.886   1.402   2.544  0.2058 -1.3399 -0.0128
  925MOL0     C24783   6.749   1.436   2.589 -0.5123  0.8444  0.1319
  925MOL0     C24784   6.761   1.456   2.744  0.4316  0.5461  1.6930
  925MOL0    Cl24785   6.633   1.547   2.821 -0.2233 -0.4978  0.3071
  925MOL0     C24786   7.566   1.081   2.426  1.1756 -0.1499 -0.1399
  925MOL0     C24787   7.687   1.046   2.484  0.6618  0.1930 -1.0542
  925MOL0     O24788   7.790   0.986   2.746  0.9154 -0.4239  0.5449
  925MOL0     C24789   8.118   0.906   2.623  0.2143 -1.2417  0.9169
  925MOL0     C24790   8.234   0.836   2.658  0.6991  0.0371  0.4678
  925MOL0     N24791   8.646   0.257   2.429 -0.2365  0.3689  0.0506
  925MOL0     N24792   8.750   0.192   2.384  0.1755 -0.1770  0.4907
  925MOL0     C24793   9.967   0.528   2.306 -0.6139  0.0984  0.7063
  925MOL0     C24794  10.097   0.482   2.339  1.1355  0.1038 -0.1163
  925MOL0     C24795  10.396   0.319   2.577 -0.0374 -0.3445  0.2076
  925MOL0     C24796  10.458   0.203   2.552  0.2660  0.4044 -0.2243
  925MOL0     C24797  10.582   0.184   2.603  0.0450 -0.1316  1.0008
  925MOL0     C24798  10.648   0.290   2.668  0.3559 -0.5061 -0.2648
  925MOL0     O24799  10.774   0.260   2.703  0.3301 -0.2371 -1.2104
  925MOL0     C24800  10.869   0.343   2.776 -0.3534 -0.2972  0.6064
  925MOL0     C24801  10.998   0.282   2.751 -0.7644  0.0123  0.8054
  925MOL0     C24802  11.115   0.371   2.795  0.4640 -0.1829 -0.3992
  925MOL0     C24803  11.253   0.342   2.737 -0.0302  0.3196 -0.9921
  925MOL0     C24804  11.302   0.208   2.767  0.9732  0.9782 -0.5161
  925MOL0     C24805  11.341   0.095   2.803 -0.0412 -0.1738  0.2302
  925MOL0     C24806  10.585   0.399   2.706 -0.3730 -0.2220  0.9721
  925MOL0     C24807  10.452   0.413   2.667 -0.2724  0.0588 -0.1330
  925MOL0     H24808  10.030   0.141   2.301  0.0089  0.0046  1.2316
  925MOL0     H24809   9.808   0.239   2.244  0.7530 -0.2872  0.1459
  925MOL0     H24810   9.673   0.520   2.447 -1.6927 -0.1213 -0.6656
  925MOL0     H24811   9.737   0.666   2.391 -1.6255  1.1619 -0.1756
  925MOL0     H24812   9.522   0.717   2.340 -0.3256  0.8651 -0.6724
  925MOL0     H24813   9.539   0.622   2.195 -1.0928  1.2794 -0.7350
  925MOL0     H24814   9.400   0.544   2.464  4.2140  0.8988  0.6050
  925MOL0     H24815   9.337   0.569   2.293  1.3223  2.1972 -0.4813
  925MOL0     H24816   9.486   0.362   2.246  1.6887  0.5589 -0.1303
  925MOL0     H24817   9.530   0.359   2.414  3.2308  1.1104 -1.5053
  925MOL0     H24818   9.364   0.188   2.385 -0.9710 -0.1609 -0.8552
  925MOL0     H24819   9.300   0.305   2.486  3.3915 -0.5403  1.2636
  925MOL0     H24820   9.232   0.394   2.225  1.7839 -1.2387 -3.0756
  925MOL0     H24821   9.257   0.230   2.195  3.0165  1.5911  0.8051
  925MOL0     H24822   9.109   0.158   2.390  0.6730  0.2290 -0.9000
  925MOL0     H24823   9.088   0.343   2.415  2.5244  0.4480 -0.2881
  925MOL0     H24824   8.964   0.157   2.217  0.9339  0.6872 -0.6575
  925MOL0     H24825   8.978   0.339   2.193  0.8506  0.5737  1.7331
  925MOL0     H24826   8.867   0.499   2.358 -1.5502  0.6247  0.8171
  925MOL0     H24827   8.595   0.591   2.419  2.5042 -1.1371 -1.8227
  925MOL0     H24828   8.485   0.466   2.407 -0.3901  1.7645  1.0216
  925MOL0     H24829   8.582   0.598   2.653 -2.1954 -0.0480  2.4072
  925MOL0     H24830   8.596   0.422   2.657  0.1178 -2.9899 -3.4143
  925MOL0     H24831   8.352   0.407   2.594  0.0937  0.8262 -1.7902
  925MOL0     H24832   8.336   0.575   2.556 -1.0733  1.5163  1.7050
  925MOL0     H24833   8.419   0.504   2.836  0.3556  1.2861  0.4299
  925MOL0     H24834   8.251   0.529   2.804  0.2428  1.1354  1.7818
  925MOL0     H24835   8.141   0.698   2.947  0.2604 -1.3202 -0.8678
  925MOL0     H24836   7.975   0.836   3.056 -5.0352 -0.9237  1.8693
  925MOL0     H24837   7.893   0.957   2.973  5.6242  2.8770  0.0200
  925MOL0     H24838   7.858   0.781   2.933  1.9400 -1.0966 -0.8298
  925MOL0     H24839   7.838   1.351   2.495 -0.2924 -1.1801  4.7889
  925MOL0     H24840   7.645   1.418   2.375  1.6084  0.3286 -2.4604
  925MOL0     H24841   7.417   1.483   2.392 -0.0828  1.7796 -2.3610
  925MOL0     H24842   7.461   1.440   2.232  0.2118  1.5103  0.0082
  925MOL0     H24843   7.232   1.533   2.258  0.6369  1.0733  3.2159
  925MOL0     H24844   7.228   1.382   2.181  0.1434  1.5626 -0.7966
  925MOL0     H24845   7.161   1.447   2.471 -1.6666  2.4269 -1.2351
  925MOL0     H24846   7.183   1.282   2.418 -2.6199 -0.2130 -1.9670
  925MOL0     H24847   7.000   1.465   2.261  0.6487 -0.7225 -2.1738
  925MOL0     H24848   7.012   1.296   2.231 -0.4069  1.6580 -1.9395
  925MOL0     H24849   6.923   1.232   2.429  1.8596 -0.0234 -0.7403
  925MOL0     H24850   6.793   1.338   2.347 -1.2576 -0.7755  2.6172
  925MOL0     H24851   6.936   1.339   2.618 -1.7999 -2.1131  0.7665
  925MOL0     H24852   6.944   1.494   2.547 -0.0475 -1.2105  1.6497
  925MOL0     H24853   6.682   1.351   2.573 -0.2363  0.9303 -1.7077
  925MOL0     H24854   6.717   1.524   2.534 -0.0588  0.2096 -1.1943
  925MOL0     H24855   6.852   1.513   2.763 -0.1995  2.1520  0.1139
  925MOL0     H24856   6.762   1.356   2.790 -2.4329 -0.9690 -1.0961
  925MOL0     H24857   7.478   1.017   2.424  0.9065  0.2316 -1.1866
  925MOL0     H24858   7.688   0.948   2.529 -1.7049  0.4653 -0.2324
  925MOL0     H24859   8.109   0.949   2.524  2.4853 -0.8580  0.8274
  925MOL0     H24860   8.316   0.822   2.589 -1.9135 -1.6499 -2.5043
  925MOL0     H24861   9.953   0.635   2.290  0.0694  0.4179  2.0557
  925MOL0     H24862  10.187   0.537   2.365  0.2098  1.8110 -0.3575
  925MOL0     H24863  10.408   0.124   2.497 -1.1760 -0.0073  1.5800
  925MOL0     H24864  10.627   0.086   2.595 -0.5869 -0.2608 -2.0173
  925MOL0     H24865  10.874   0.447   2.742 -0.9615 -0.7240 -0.8728
  925MOL0     H24866  10.830   0.342   2.879 -2.4536  0.6946 -0.1258
  925MOL0     H24867  11.020   0.251   2.649  3.2132  1.1328  1.1607
  925MOL0     H24868  10.998   0.191   2.812 -0.7465  0.2400  1.1476
  925MOL0     H24869  11.121   0.388   2.903 -0.9684  2.8893 -0.6958
  925MOL0     H24870  11.087   0.471   2.759 -0.3415 -0.9408 -1.9761
  925MOL0     H24871  11.327   0.410   2.781 -0.7777  1.1636 -1.0174
  925MOL0     H24872  11.246   0.361   2.629 -2.4998  0.5296 -0.8407
  925MOL0     H24873  11.375  -0.002   2.834  0.6187 -0.2506 -0.7110
  925MOL0     H24874  10.624   0.484   2.760  0.1164  1.3974 -1.7412
  925MOL0     H24875  10.410   0.510   2.688 -1.5928 -0.2067 -1.3838
  926MOL0     O24876   1.249   9.691   9.280  0.2628 -0.2588  0.2474
  926MOL0     C24877   1.289   9.583   9.305 -0.1525  0.7452 -0.0801
  926MOL0     O24878   1.204   9.483   9.329  0.4424 -0.1558  0.1044
  926MOL0     C24879   1.067   9.499   9.318 -0.1724 -0.0126  1.6917
  926MOL0     C24880   0.984   9.506   9.424  1.4718  0.7109 -0.3576
  926MOL0     C24881   0.849   9.501   9.402  0.2445  0.1521 -0.1586
  926MOL0     C24882   0.791   9.483   9.283  0.0885 -0.5489 -1.1942
  926MOL0     O24883   0.660   9.482   9.258  0.2378  0.0607 -0.1136
  926MOL0     C24884   0.568   9.420   9.353 -0.0447 -0.2147 -0.5738
  926MOL0     C24885   0.421   9.430   9.317  0.1734 -0.6079 -0.3381
  926MOL0     C24886   0.373   9.579   9.327  0.0924 -0.3747 -0.0015
  926MOL0     C24887   0.235   9.592   9.286  0.0752 -0.2166 -0.4794
  926MOL0     C24888   0.200   9.616   9.145  0.9848 -0.0530 -0.0994
  926MOL0     C24889   0.057   9.592   9.103  0.4528  0.0137  0.2229
  926MOL0     C24890   0.031   9.635   8.958  0.1326 -0.4837  0.1778
  926MOL0     C24891   0.059   9.783   8.931 -0.3397 -0.4597 -0.8277
  926MOL0     N24892  -0.051   9.856   8.870  0.2278  0.7819 -0.2000
  926MOL0     C24893  -0.067   9.858   8.734 -0.7012 -0.1659 -0.1292
  926MOL0     C24894  -0.189   9.905   8.717 -0.5997  0.7567  0.0053
  926MOL0     C24895  -0.251   9.925   8.579 -0.4119 -0.1754 -1.0636
  926MOL0     C24896  -0.403   9.929   8.579 -0.1933  0.0095 -0.4368
  926MOL0     C24897  -0.466   9.955   8.436  0.4920  0.6727 -0.1203
  926MOL0     C24898  -0.393   9.916   8.304  0.3604 -0.1596  0.0906
  926MOL0     O24899  -0.481   9.929   8.196  0.5133 -0.4356  0.0058
  926MOL0     C24900  -0.426   9.954   8.071 -0.8617  0.2158 -0.1318
  926MOL0     C24901  -0.513   9.994   7.972 -0.2587 -0.0004  0.4687
  926MOL0     C24902  -0.484  10.036   7.840  0.4611 -0.7693  0.3147
  926MOL0     C24903  -0.598  10.100   7.761  0.5700 -0.3666  0.4751
  926MOL0     C24904  -0.351  10.017   7.798  0.6854  0.0476 -0.7419
  926MOL0     C24905  -0.291  10.061   7.674 -0.1441  0.6482  0.0678
  926MOL0     O24906  -0.380  10.047   7.565 -0.5092 -0.0369  0.7820
  926MOL0     C24907  -0.351  10.118   7.454 -0.2983  0.0314  0.0071
  926MOL0     C24908  -0.457  10.183   7.383  0.1872 -0.3635  0.0637
  926MOL0     C24909  -0.444  10.248   7.258  0.9164  0.1118 -0.3653
  926MOL0     C24910  -0.315  10.265   7.213 -0.0529 -1.1454 -0.0936
  926MOL0     O24911  -0.288  10.350   7.107 -0.2877  0.7816 -0.0183
  926MOL0     C24912  -0.388  10.378   7.003 -0.9988 -0.6709  0.0691
  926MOL0     C24913  -0.314  10.416   6.878  0.3026 -0.4519 -0.5963
  926MOL0     C24914  -0.253  10.561   6.884  0.4107 -0.1581  0.1216
  926MOL0     C24915  -0.364  10.656   6.849 -0.9673  0.3764 -0.0499
  926MOL0     C24916  -0.318  10.800   6.835  0.3174  0.9199 -0.1498
  926MOL0     C24917  -0.412  10.913   6.789  0.3402  0.7448  0.8726
  926MOL0     C24918  -0.465  10.906   6.644  0.1427 -0.7713 -2.1439
  926MOL0     C24919  -0.578  10.801   6.623  0.1642  0.7606 -0.4488
  926MOL0    Cl24920  -0.696  10.803   6.758  0.3723  0.3178 -0.6622
  926MOL0     C24921  -0.213  10.196   7.281 -0.0565 -1.1332 -0.6902
  926MOL0     C24922  -0.231  10.109   7.385 -0.6949 -0.1869 -0.5672
  926MOL0     O24923  -0.167  10.080   7.672  0.3809 -0.1893  0.0471
  926MOL0     C24924  -0.266   9.967   7.899 -0.0288 -0.4386  0.0832
  926MOL0     C24925  -0.296   9.939   8.034 -0.0368 -0.8667  0.1529
  926MOL0     N24926  -0.232   9.941   8.839 -0.6547  0.4878  0.8723
  926MOL0     N24927  -0.159   9.892   8.934  0.2349 -0.0347 -0.1480
  926MOL0     C24928   0.870   9.490   9.172 -0.5958 -0.5966 -0.1273
  926MOL0     C24929   1.013   9.494   9.188  0.2637 -0.0395 -0.9715
  926MOL0     C24930   1.434   9.551   9.284 -0.3775  0.3048 -0.3357
  926MOL0     C24931   1.531   9.654   9.271  0.3747  0.3284  0.8496
  926MOL0     C24932   1.662   9.629   9.233  0.6040  0.7777 -0.4252
  926MOL0     C24933   1.709   9.495   9.229  0.2517  0.5088  0.3402
  926MOL0     O24934   1.842   9.477   9.220 -0.3125  0.3296  0.2044
  926MOL0     C24935   1.884   9.385   9.120  0.1592  0.1432 -1.1136
  926MOL0     C24936   1.877   9.441   8.980 -0.2055 -0.2986  0.4425
  926MOL0     C24937   1.975   9.558   8.957 -0.1330 -0.5434 -0.1097
  926MOL0     C24938   1.968   9.639   8.826 -0.3370 -0.3428 -0.4734
  926MOL0     C24939   2.043   9.761   8.820 -0.1819 -0.2846 -0.0663
  926MOL0     C24940   2.113   9.856   8.823 -0.3234  0.6253 -0.8892
  926MOL0     C24941   1.615   9.394   9.252  0.1144  0.3671  0.3684
  926MOL0     C24942   1.477   9.417   9.274  0.3287 -0.7440  0.2575
  926MOL0     H24943   1.028   9.505   9.523  1.5483 -3.0000 -0.3223
  926MOL0     H24944   0.782   9.504   9.487 -1.3137 -3.6787 -1.0269
  926MOL0     H24945   0.600   9.316   9.369 -0.2256 -0.0179  1.2428
  926MOL0     H24946   0.577   9.477   9.446 -0.5454 -0.6108 -0.2756
  926MOL0     H24947   0.387   9.402   9.217 -1.3756  0.7379 -0.2505
  926MOL0     H24948   0.381   9.366   9.396 -0.5667  1.5440  1.1425
  926MOL0     H24949   0.375   9.604   9.433  0.3949 -1.4173  0.2556
  926MOL0     H24950   0.447   9.646   9.283  2.0242 -0.7238  2.4846
  926MOL0     H24951   0.165   9.518   9.325  1.2563 -1.8548 -1.3624
  926MOL0     H24952   0.213   9.683   9.343  3.3413 -0.4907  1.4367
  926MOL0     H24953   0.227   9.720   9.122  2.9364 -0.2366  1.1445
  926MOL0     H24954   0.267   9.560   9.080  0.9994  0.3501 -0.4310
  926MOL0     H24955   0.038   9.485   9.108  0.0647 -0.0275 -1.5558
  926MOL0     H24956  -0.017   9.645   9.164 -0.5011  0.1208 -0.9868
  926MOL0     H24957   0.098   9.576   8.894  0.8373 -0.1210  0.5743
  926MOL0     H24958  -0.074   9.612   8.937 -0.9451  0.1387  4.1425
  926MOL0     H24959   0.152   9.800   8.877 -0.8141  1.7586 -1.0309
  926MOL0     H24960   0.075   9.846   9.019  1.0587  2.0150 -2.7633
  926MOL0     H24961   0.004   9.828   8.657 -0.5176 -0.9083  0.3237
  926MOL0     H24962  -0.209  10.018   8.538  1.7267 -1.8469 -2.9176
  926MOL0     H24963  -0.207   9.853   8.510 -0.6016  0.1164 -1.4895
  926MOL0     H24964  -0.435  10.011   8.644  2.9547  0.9513  0.0793
  926MOL0     H24965  -0.440   9.833   8.617  0.5757 -0.3891 -0.6748
  926MOL0     H24966  -0.504  10.058   8.439  0.5321  0.7410  3.9571
  926MOL0     H24967  -0.548   9.882   8.435  2.4404 -1.8329  3.3030
  926MOL0     H24968  -0.352   9.815   8.308  0.4185 -0.0958  2.2306
  926MOL0     H24969  -0.310   9.985   8.287 -1.5291  1.7496 -2.1023
  926MOL0     H24970  -0.610  10.014   8.015 -0.0877 -0.8200  1.2735
  926MOL0     H24971  -0.640  10.033   7.685  2.7512  0.6741 -1.7849
  926MOL0     H24972  -0.682  10.126   7.826  0.3439  1.5383 -0.5001
  926MOL0     H24973  -0.564  10.192   7.713 -0.8731 -0.4035 -0.6942
  926MOL0     H24974  -0.556  10.169   7.425  0.2839 -0.3189  0.3076
  926MOL0     H24975  -0.535  10.282   7.211 -0.2086 -0.9689  0.9124
  926MOL0     H24976  -0.446  10.288   6.980 -1.2493 -0.8093  1.1727
  926MOL0     H24977  -0.449  10.464   7.034  1.2458  1.4854 -1.1590
  926MOL0     H24978  -0.232  10.344   6.872  2.0707  0.5450  5.2770
  926MOL0     H24979  -0.375  10.395   6.789  2.0559 -0.0635 -1.9363
  926MOL0     H24980  -0.164  10.572   6.821  0.3579 -1.6214 -0.2479
  926MOL0     H24981  -0.220  10.568   6.988 -0.3953  1.3097  0.3136
  926MOL0     H24982  -0.400  10.615   6.755 -1.2517  0.8937 -0.1721
  926MOL0     H24983  -0.446  10.643   6.920  1.5888  1.8627  3.4970
  926MOL0     H24984  -0.243  10.792   6.755  1.1775 -2.6068  0.8527
  926MOL0     H24985  -0.268  10.835   6.926  1.6560 -3.0050  0.7914
  926MOL0     H24986  -0.497  10.919   6.857 -0.6188 -0.7050 -0.1397
  926MOL0     H24987  -0.350  11.003   6.797  2.4225 -0.1832 -2.5048
  926MOL0     H24988  -0.378  10.902   6.577  1.8392  1.0686 -0.1687
  926MOL0     H24989  -0.504  11.006   6.623  0.6142 -0.4635 -1.5918
  926MOL0     H24990  -0.526  10.705   6.612  3.2889  2.1626  1.0579
  926MOL0     H24991  -0.639  10.834   6.538 -2.4664  0.1755  1.1099
  926MOL0     H24992  -0.118  10.208   7.229 -0.5526  0.1117 -1.3637
  926MOL0     H24993  -0.143  10.055   7.418 -1.8338 -1.8531 -0.0987
  926MOL0     H24994  -0.160   9.955   7.878 -0.1860 -0.3515 -0.8406
  926MOL0     H24995  -0.220   9.895   8.096  1.3953  1.2054 -0.0272
  926MOL0     H24996   0.833   9.477   9.071  0.2141  0.5835 -0.5890
  926MOL0     H24997   1.067   9.509   9.095 -0.0707  5.9030 -0.6050
  926MOL0     H24998   1.502   9.758   9.278 -2.3625  0.0454 -3.2222
  926MOL0     H24999   1.738   9.705   9.222  2.6386 -1.2480 -1.4179
  926MOL0     H25000   1.991   9.366   9.129 -0.1699 -1.0996  1.1129
  926MOL0     H25001   1.840   9.285   9.122  1.2771 -0.3449 -0.4389
  926MOL0     H25002   1.774   9.478   8.970 -0.9349 -1.5518  2.5750
  926MOL0     H25003   1.892   9.359   8.908  0.6761  0.6009 -0.4218
  926MOL0     H25004   2.074   9.515   8.973 -0.5148 -0.4118  3.3454
  926MOL0     H25005   1.955   9.631   9.037  1.6278 -1.1970  0.9976
  926MOL0     H25006   1.863   9.649   8.796 -0.2679  1.8962 -0.1428
  926MOL0     H25007   2.004   9.578   8.743 -2.1269 -0.6553 -1.0820
  926MOL0     H25008   2.175   9.942   8.840 -0.8749  1.4248 -2.6967
  926MOL0     H25009   1.655   9.293   9.250  0.7800  0.6065 -2.6549
  926MOL0     H25010   1.416   9.328   9.285  1.1188 -1.0828  2.6083
  927MOL0     O25011   1.452   0.485   2.644 -0.4722  0.0301 -0.1346
  927MOL0     C25012   1.402   0.498   2.529  0.0829  0.1778  0.8325
  927MOL0     O25013   1.461   0.561   2.422 -0.3254 -0.5589 -0.0553
  927MOL0     C25014   1.588   0.622   2.437  0.3370  0.1400  0.6216
  927MOL0     C25015   1.687   0.614   2.534 -0.5207  0.1839  0.3099
  927MOL0     C25016   1.811   0.685   2.522  0.1380  0.2479 -0.0287
  927MOL0     C25017   1.838   0.755   2.406  0.3233 -0.7307  0.5443
  927MOL0     O25018   1.960   0.812   2.396  0.1781  0.2857 -0.0847
  927MOL0     C25019   1.954   0.943   2.343 -0.0866  0.2792 -0.1319
  927MOL0     C25020   2.068   1.017   2.408 -0.3431  0.9860  0.2527
  927MOL0     C25021   2.198   0.950   2.377 -0.5755  0.6691  0.4878
  927MOL0     C25022   2.308   0.995   2.465  0.5348  0.0863  0.1927
  927MOL0     C25023   2.438   0.919   2.442 -0.6849 -0.0898 -0.0611
  927MOL0     C25024   2.557   1.002   2.461 -0.8641 -0.1828 -0.0817
  927MOL0     C25025   2.683   0.920   2.483  0.4035 -0.8955  0.2059
  927MOL0     C25026   2.801   1.023   2.498 -0.5925 -0.5802 -0.0265
  927MOL0     N25027   2.934   0.971   2.532 -0.5028 -0.0723  0.0126
  927MOL0     C25028   2.978   0.914   2.641 -0.5065  0.2566 -0.3452
  927MOL0     C25029   3.115   0.891   2.627  0.8313  0.0346  0.3983
  927MOL0     C25030   3.207   0.795   2.711 -0.2327 -0.3983 -0.2550
  927MOL0     C25031   3.254   0.873   2.845  0.2064  0.6643  0.8194
  927MOL0     C25032   3.380   0.962   2.827 -0.8126 -0.3640 -0.0082
  927MOL0     C25033   3.354   1.081   2.727  0.8408  0.2988  0.2111
  927MOL0     O25034   3.434   1.193   2.749  1.2212 -0.3633 -0.9632
  927MOL0     C25035   3.409   1.281   2.845  0.0952 -0.1210 -0.3570
  927MOL0     C25036   3.334   1.270   2.960  0.7386 -0.6780  0.3846
  927MOL0     C25037   3.322   1.381   3.047  0.2101  0.5684 -0.2687
  927MOL0     C25038   3.222   1.353   3.161  0.1651 -0.2670  0.1811
  927MOL0     C25039   3.394   1.499   3.043 -0.2640  0.5564  0.6968
  927MOL0     C25040   3.379   1.621   3.128 -0.5466  0.2237  0.1098
  927MOL0     O25041   3.394   1.607   3.258  0.3892  0.5995 -0.7533
  927MOL0     C25042   3.385   1.716   3.345  0.0930  0.8225  1.2282
  927MOL0     C25043   3.498   1.772   3.410 -0.5856 -0.8438 -0.5559
  927MOL0     C25044   3.489   1.884   3.485  0.1761 -0.8068 -1.1635
  927MOL0     C25045   3.362   1.939   3.516 -0.5023  0.7843  0.1979
  927MOL0     O25046   3.325   2.043   3.588  0.0478 -0.3074  0.0032
  927MOL0     C25047   3.403   2.064   3.712  0.7463 -0.2025  0.1025
  927MOL0     C25048   3.320   2.158   3.804  0.4885 -0.7284  0.5727
  927MOL0     C25049   3.378   2.137   3.941  0.4141  0.8153 -0.6285
  927MOL0     C25050   3.350   2.257   4.033 -0.2954 -0.2789  0.0406
  927MOL0     C25051   3.394   2.240   4.171 -0.0563  0.3177  0.0512
  927MOL0     C25052   3.371   2.374   4.249 -0.1024  0.5921  0.3839
  927MOL0     C25053   3.227   2.405   4.276  0.7860 -0.0644 -0.8086
  927MOL0     C25054   3.200   2.467   4.412  0.4518 -0.8029  0.3644
  927MOL0    Cl25055   3.195   2.644   4.390  0.1586 -0.1382 -0.1659
  927MOL0     C25056   3.249   1.877   3.456 -0.0673  1.1187 -0.0505
  927MOL0     C25057   3.260   1.769   3.367  0.5560  0.2274 -0.9183
  927MOL0     O25058   3.381   1.729   3.069 -0.5881  0.2904  0.1018
  927MOL0     C25059   3.467   1.509   2.927 -0.2634  0.5237  0.7366
  927MOL0     C25060   3.474   1.405   2.823  0.8899 -0.0109  0.1605
  927MOL0     N25061   3.160   0.948   2.513 -1.3231 -0.2321  0.4713
  927MOL0     N25062   3.052   0.993   2.455  0.0663 -0.5372 -0.0231
  927MOL0     C25063   1.738   0.774   2.301 -0.0438 -0.3535  0.2109
  927MOL0     C25064   1.619   0.708   2.328 -0.4048  1.1373 -0.0108
  927MOL0     C25065   1.271   0.445   2.501  0.1594 -0.0133  0.4102
  927MOL0     C25066   1.181   0.518   2.433  0.5896  0.2664  0.1333
  927MOL0     C25067   1.058   0.464   2.401 -0.2041  0.0857 -0.6583
  927MOL0     C25068   1.026   0.336   2.440  0.0880  0.2857  0.3615
  927MOL0     O25069   0.899   0.297   2.407  0.3821 -0.2783 -0.1769
  927MOL0     C25070   0.832   0.197   2.492  0.3606 -0.1622 -0.5097
  927MOL0     C25071   0.695   0.255   2.539 -0.3079  0.0704  0.2467
  927MOL0     C25072   0.626   0.196   2.664  0.1434 -0.2269 -0.1848
  927MOL0     C25073   0.656   0.279   2.785  0.6157 -0.2825 -0.1658
  927MOL0     C25074   0.794   0.269   2.832 -0.3038 -1.4336 -0.1777
  927MOL0     C25075   0.901   0.274   2.891 -0.0062 -0.0629 -0.6602
  927MOL0     C25076   1.124   0.256   2.503 -0.6467  0.7078 -0.2230
  927MOL0     C25077   1.249   0.311   2.529 -0.3235  1.0204 -0.1107
  927MOL0     H25078   1.680   0.547   2.619 -1.2676 -1.4500 -0.9774
  927MOL0     H25079   1.887   0.666   2.597 -1.0311 -3.5672  0.3990
  927MOL0     H25080   1.965   0.938   2.235  1.9863  1.1370 -0.0223
  927MOL0     H25081   1.862   0.998   2.362 -0.4889 -0.6446  0.6941
  927MOL0     H25082   2.072   1.119   2.369 -0.0872  1.9065  2.5170
  927MOL0     H25083   2.057   1.032   2.516  0.7200  0.7384  0.4092
  927MOL0     H25084   2.196   0.841   2.388  1.4653  0.3929 -1.3640
  927MOL0     H25085   2.240   0.965   2.277 -1.9913  0.1827 -0.2116
  927MOL0     H25086   2.339   1.099   2.450  5.5533 -1.0371  0.8223
  927MOL0     H25087   2.273   0.988   2.569  0.6433 -1.3128  0.1472
  927MOL0     H25088   2.437   0.840   2.519  1.4403 -1.1417 -1.0287
  927MOL0     H25089   2.441   0.857   2.352 -2.1323 -1.2748  0.6542
  927MOL0     H25090   2.552   1.071   2.376 -2.2874 -1.0739 -0.7536
  927MOL0     H25091   2.537   1.064   2.549 -3.4081  0.3719 -0.9473
  927MOL0     H25092   2.679   0.862   2.575  4.7877 -0.6272  0.7686
  927MOL0     H25093   2.698   0.842   2.408  0.4303  1.3182 -2.2250
  927MOL0     H25094   2.773   1.102   2.569  0.6617  0.2013 -0.3665
  927MOL0     H25095   2.798   1.083   2.407  1.4032  2.7188  1.8616
  927MOL0     H25096   2.912   0.891   2.725  1.4377  2.9903  2.1195
  927MOL0     H25097   3.149   0.708   2.743 -0.7138  0.0909  0.2294
  927MOL0     H25098   3.299   0.769   2.659  1.6512  1.0984  2.1345
  927MOL0     H25099   3.275   0.808   2.930 -2.7770  0.1321  1.2745
  927MOL0     H25100   3.175   0.941   2.879 -0.4692  0.6648 -0.6505
  927MOL0     H25101   3.471   0.905   2.801 -0.0872 -0.1432  1.8750
  927MOL0     H25102   3.412   0.990   2.928  1.6865 -1.9063 -0.2761
  927MOL0     H25103   3.247   1.104   2.731  0.4252 -1.3846 -0.5301
  927MOL0     H25104   3.365   1.046   2.624 -0.4654 -0.4576  0.2973
  927MOL0     H25105   3.266   1.188   2.981 -0.0734 -0.4519 -1.1981
  927MOL0     H25106   3.262   1.280   3.231  1.1195 -0.0682 -0.1476
  927MOL0     H25107   3.186   1.445   3.207  2.4036  1.4255 -1.2352
  927MOL0     H25108   3.132   1.313   3.113 -2.9163  1.1994  4.1409
  927MOL0     H25109   3.594   1.730   3.380  0.4149 -1.8002  3.4160
  927MOL0     H25110   3.576   1.932   3.529 -0.8760 -1.4390  1.8869
  927MOL0     H25111   3.415   1.968   3.764  0.8205 -0.2340  0.0286
  927MOL0     H25112   3.502   2.107   3.690  1.7945 -2.0860  0.8747
  927MOL0     H25113   3.339   2.259   3.768 -3.1505 -0.1378 -0.0312
  927MOL0     H25114   3.211   2.152   3.802  0.2136  2.5525 -1.2891
  927MOL0     H25115   3.487   2.124   3.940  0.1819 -1.4203 -0.9149
  927MOL0     H25116   3.346   2.045   3.990  1.4149  0.3310 -0.8527
  927MOL0     H25117   3.409   2.334   3.982 -0.2016 -1.2964 -1.4338
  927MOL0     H25118   3.242   2.278   4.026 -0.4353 -1.2674 -0.9723
  927MOL0     H25119   3.500   2.212   4.177 -0.1722 -0.0831  0.2520
  927MOL0     H25120   3.329   2.158   4.202  1.1365 -0.8294 -0.3898
  927MOL0     H25121   3.421   2.355   4.344 -2.2773  0.2346  1.5216
  927MOL0     H25122   3.417   2.457   4.195  1.8355 -0.4153  0.3837
  927MOL0     H25123   3.167   2.314   4.262  1.1203  0.0483 -3.7353
  927MOL0     H25124   3.201   2.480   4.200  3.9384  0.0024 -1.9973
  927MOL0     H25125   3.261   2.422   4.490  1.7747  0.4452  0.0893
  927MOL0     H25126   3.093   2.453   4.431 -0.0903  1.1997 -0.9242
  927MOL0     H25127   3.146   1.901   3.479 -0.7221  1.4562 -2.9567
  927MOL0     H25128   3.167   1.722   3.337  0.6444 -1.3592  1.0740
  927MOL0     H25129   3.516   1.605   2.918  0.3698  0.1687  0.3302
  927MOL0     H25130   3.517   1.428   2.727  2.4072 -2.0005  0.2686
  927MOL0     H25131   1.770   0.810   2.204  1.9423 -1.9810  0.1996
  927MOL0     H25132   1.542   0.696   2.253 -3.8671 -2.4803  3.6442
  927MOL0     H25133   1.211   0.620   2.414  0.9204 -0.0221 -0.9714
  927MOL0     H25134   0.992   0.538   2.356  2.4721  3.8468  1.0449
  927MOL0     H25135   0.819   0.103   2.438 -1.4568 -1.6082  2.2315
  927MOL0     H25136   0.887   0.174   2.583 -2.5151 -0.9889  1.1281
  927MOL0     H25137   0.615   0.235   2.467 -2.7817  1.5482  2.4528
  927MOL0     H25138   0.702   0.364   2.548 -1.9096  0.1318  1.0124
  927MOL0     H25139   0.655   0.091   2.672 -0.7374 -0.4214  0.8280
  927MOL0     H25140   0.518   0.217   2.663 -0.5570 -3.1824  1.2832
  927MOL0     H25141   0.599   0.237   2.869 -1.8415  2.4032 -0.3137
  927MOL0     H25142   0.631   0.386   2.779 -2.1259 -0.6901  1.7063
  927MOL0     H25143   1.002   0.274   2.926  0.3093 -0.1379 -1.5358
  927MOL0     H25144   1.096   0.159   2.543  0.7404  0.6117  0.5640
  927MOL0     H25145   1.321   0.249   2.581 -2.8612 -0.9700  1.2414
  928MOL0     O25146   6.447   3.273   3.851  0.1406 -0.5636  0.2392
  928MOL0     C25147   6.440   3.355   3.941  0.7864  0.4936  1.1563
  928MOL0     O25148   6.346   3.458   3.943 -0.3899 -0.1521  0.5228
  928MOL0     C25149   6.258   3.493   3.844  0.3148  0.9838  0.1294
  928MOL0     C25150   6.207   3.397   3.757  1.2643  0.3495 -0.1045
  928MOL0     C25151   6.109   3.437   3.660 -0.2641 -0.0081  0.1442
  928MOL0     C25152   6.061   3.569   3.655 -0.1796  0.5314 -0.5370
  928MOL0     O25153   5.981   3.608   3.551 -0.6569  0.5651  0.9862
  928MOL0     C25154   5.929   3.736   3.530 -0.3511 -0.8451  0.1075
  928MOL0     C25155   5.824   3.718   3.418 -0.4301 -0.4267 -0.1574
  928MOL0     C25156   5.813   3.846   3.330 -0.7227  0.1961 -0.8063
  928MOL0     C25157   5.678   3.884   3.310  0.0934 -0.3956 -0.3599
  928MOL0     C25158   5.660   3.985   3.194 -0.7678  0.3242  0.2280
  928MOL0     C25159   5.514   4.012   3.174  0.8939 -0.3930 -0.3262
  928MOL0     C25160   5.483   4.146   3.112  0.0089 -0.8805  0.5723
  928MOL0     C25161   5.350   4.155   3.049  0.2800 -0.1104 -0.6778
  928MOL0     N25162   5.333   4.067   2.944  0.8767 -0.2790  0.5990
  928MOL0     C25163   5.395   4.091   2.823  0.0945 -0.4133 -0.6776
  928MOL0     C25164   5.340   3.996   2.738 -0.8147  0.4762 -0.3841
  928MOL0     C25165   5.376   3.993   2.598 -0.6187  0.3640 -0.7713
  928MOL0     C25166   5.386   3.855   2.532  0.4425  0.2538 -0.0239
  928MOL0     C25167   5.386   3.843   2.383 -1.3193 -0.1022  0.0281
  928MOL0     C25168   5.423   3.709   2.326 -0.8633 -0.1935 -0.4860
  928MOL0     O25169   5.356   3.589   2.379 -0.2981  0.3699  1.2375
  928MOL0     C25170   5.402   3.466   2.336  0.1686  0.1413 -0.1342
  928MOL0     C25171   5.519   3.443   2.265  0.5444  0.0277  0.0921
  928MOL0     C25172   5.547   3.304   2.211 -0.6181 -0.6689 -0.5773
  928MOL0     C25173   5.654   3.295   2.109 -1.1486  1.0374  0.4111
  928MOL0     C25174   5.472   3.191   2.260 -0.6531 -0.6837 -0.7008
  928MOL0     C25175   5.483   3.054   2.211  0.3114  0.6606 -0.8740
  928MOL0     O25176   5.445   2.955   2.306  0.3264 -0.0627 -0.1946
  928MOL0     C25177   5.458   2.832   2.254 -0.9959  0.0613  0.7452
  928MOL0     C25178   5.358   2.789   2.166  0.4703 -0.1634  0.6734
  928MOL0     C25179   5.363   2.663   2.114  0.7668  0.2882  0.1486
  928MOL0     C25180   5.462   2.572   2.147  0.1494 -0.4659 -0.3856
  928MOL0     O25181   5.467   2.444   2.090  0.7253 -0.3999 -0.2401
  928MOL0     C25182   5.595   2.376   2.079 -0.0443 -0.4563 -0.8794
  928MOL0     C25183   5.597   2.307   1.939  0.5266  0.0545 -0.5004
  928MOL0     C25184   5.731   2.234   1.916  0.5256 -0.1193 -0.7370
  928MOL0     C25185   5.718   2.089   1.881 -0.1844 -0.1324 -0.1148
  928MOL0     C25186   5.850   2.033   1.825  0.0319 -0.1753 -0.1776
  928MOL0     C25187   5.828   1.901   1.751  0.3086 -0.2470 -0.0514
  928MOL0     C25188   5.953   1.833   1.692  0.1888 -0.3867  0.2731
  928MOL0     C25189   5.909   1.733   1.586 -0.8793 -0.1475 -0.0720
  928MOL0    Cl25190   6.035   1.635   1.528  0.0109  0.4724 -0.6092
  928MOL0     C25191   5.558   2.612   2.247  0.5751  0.7094  0.2789
  928MOL0     C25192   5.549   2.735   2.301 -0.6207  0.0731  0.4109
  928MOL0     O25193   5.507   3.023   2.094 -0.9517 -0.7315 -0.0677
  928MOL0     C25194   5.376   3.222   2.353 -0.4143 -0.1330 -1.0131
  928MOL0     C25195   5.338   3.354   2.385  0.1049 -0.1269 -0.1584
  928MOL0     N25196   5.242   3.928   2.802  0.9479  0.0415 -1.1202
  928MOL0     N25197   5.232   3.983   2.919  0.0460  0.3308  0.2188
  928MOL0     C25198   6.120   3.665   3.734 -0.5175 -0.1160  0.0207
  928MOL0     C25199   6.210   3.618   3.826 -0.1262 -0.1560 -0.7289
  928MOL0     C25200   6.539   3.356   4.050  0.8083 -0.4951  0.7268
  928MOL0     C25201   6.658   3.287   4.034  0.4612 -0.6655  0.1772
  928MOL0     C25202   6.761   3.299   4.122 -0.3864 -0.8300  0.0210
  928MOL0     C25203   6.750   3.396   4.226  0.4616  0.0439  0.2974
  928MOL0     O25204   6.838   3.422   4.328 -0.4662  0.3954 -0.9335
  928MOL0     C25205   6.962   3.357   4.312  0.0145 -0.0569 -0.2156
  928MOL0     C25206   7.060   3.397   4.423  0.1166 -0.5050  0.9600
  928MOL0     C25207   7.189   3.341   4.390 -0.4692  0.1130  0.2955
  928MOL0     C25208   7.313   3.388   4.478  0.4081  0.3073  0.2687
  928MOL0     C25209   7.432   3.407   4.392 -0.0015 -0.2007  0.6936
  928MOL0     C25210   7.536   3.421   4.327  0.7604  1.0286  0.7921
  928MOL0     C25211   6.630   3.473   4.237  0.4068  0.6206  0.0581
  928MOL0     C25212   6.525   3.448   4.151  0.7105  0.7349  0.1820
  928MOL0     H25213   6.220   3.290   3.763 -1.6003 -0.0222  0.8001
  928MOL0     H25214   6.063   3.370   3.589 -1.2419  1.2372 -0.4485
  928MOL0     H25215   5.886   3.780   3.620 -1.2262 -0.2966 -0.5504
  928MOL0     H25216   6.016   3.794   3.496 -1.5280  1.4950  0.8319
  928MOL0     H25217   5.855   3.636   3.353  1.4693 -0.0633  0.2303
  928MOL0     H25218   5.731   3.694   3.470  0.1737 -2.8888 -0.0926
  928MOL0     H25219   5.867   3.927   3.381  0.4997 -0.5654 -0.8332
  928MOL0     H25220   5.857   3.816   3.235 -0.3306 -0.5096 -0.4095
  928MOL0     H25221   5.611   3.802   3.286  0.1800 -0.1802 -1.3621
  928MOL0     H25222   5.643   3.932   3.402  2.0290  0.5153 -0.0446
  928MOL0     H25223   5.703   4.080   3.226 -3.1361  2.6495 -2.7610
  928MOL0     H25224   5.694   3.951   3.095 -1.1120 -0.3170  0.3233
  928MOL0     H25225   5.472   3.926   3.120  0.6464 -0.2697 -0.3294
  928MOL0     H25226   5.465   4.008   3.272  0.6581 -0.4809 -0.4479
  928MOL0     H25227   5.486   4.214   3.198  2.6044 -1.6689  1.1968
  928MOL0     H25228   5.562   4.175   3.042 -0.4822 -0.0959  0.3291
  928MOL0     H25229   5.326   4.257   3.021  1.6068  0.6116  0.6464
  928MOL0     H25230   5.288   4.135   3.137  0.7167 -1.9303 -0.7324
  928MOL0     H25231   5.468   4.167   2.800  0.9042 -0.6895  0.8604
  928MOL0     H25232   5.311   4.057   2.538 -3.2158  0.3825  1.8347
  928MOL0     H25233   5.473   4.042   2.591 -0.6265  1.0353  2.3511
  928MOL0     H25234   5.301   3.793   2.563  0.5491 -0.5943 -1.3207
  928MOL0     H25235   5.480   3.810   2.566  1.5017 -0.5722 -3.6561
  928MOL0     H25236   5.469   3.903   2.344  1.2796 -2.1777  1.9460
  928MOL0     H25237   5.286   3.860   2.343 -1.6962 -0.3664  0.8389
  928MOL0     H25238   5.531   3.704   2.344 -1.1441 -1.0266  1.2681
  928MOL0     H25239   5.396   3.710   2.221  0.2114 -1.8234 -0.8195
  928MOL0     H25240   5.583   3.526   2.237  1.5420 -0.7533 -0.0098
  928MOL0     H25241   5.634   3.223   2.029 -2.2755 -1.0391  2.4677
  928MOL0     H25242   5.670   3.393   2.063 -0.4324 -0.0203 -1.7334
  928MOL0     H25243   5.741   3.260   2.166 -0.7774 -0.9769 -1.2739
  928MOL0     H25244   5.280   2.850   2.120 -0.2173 -0.1089  1.8831
  928MOL0     H25245   5.277   2.637   2.052  0.1832  2.4885 -0.0591
  928MOL0     H25246   5.676   2.449   2.092 -1.5976  0.9802  1.3918
  928MOL0     H25247   5.596   2.301   2.159 -0.8667  0.5145  0.0637
  928MOL0     H25248   5.507   2.246   1.934 -3.7440  5.6676 -2.5732
  928MOL0     H25249   5.592   2.382   1.860  1.3052 -0.0491 -0.6595
  928MOL0     H25250   5.787   2.246   2.009  1.1688  3.3145 -1.4386
  928MOL0     H25251   5.785   2.290   1.840  1.7378 -3.4992 -2.5763
  928MOL0     H25252   5.691   2.033   1.972  1.9709  1.5301  1.6760
  928MOL0     H25253   5.635   2.083   1.810 -0.7040 -1.7067  0.5735
  928MOL0     H25254   5.917   2.013   1.909  0.9056  2.6140 -0.1396
  928MOL0     H25255   5.894   2.108   1.759  0.4773  0.9290  1.3295
  928MOL0     H25256   5.775   1.828   1.814  0.9720 -0.5179  0.2019
  928MOL0     H25257   5.753   1.927   1.676 -0.1741 -0.0172  0.5028
  928MOL0     H25258   6.019   1.789   1.767  0.2392 -1.1742 -0.2160
  928MOL0     H25259   6.017   1.905   1.639 -2.4801  0.4690 -2.0337
  928MOL0     H25260   5.871   1.783   1.497 -0.5295 -0.7350 -0.5612
  928MOL0     H25261   5.820   1.684   1.627  0.5188 -1.5815  1.4020
  928MOL0     H25262   5.626   2.533   2.276  0.3133  0.3832  0.0232
  928MOL0     H25263   5.608   2.757   2.390  0.0965 -0.0174 -0.0365
  928MOL0     H25264   5.314   3.147   2.401 -0.7325 -0.0055 -1.2184
  928MOL0     H25265   5.259   3.376   2.455  0.7276 -0.0928  0.5470
  928MOL0     H25266   6.101   3.772   3.729  0.8284  0.1525  0.1346
  928MOL0     H25267   6.258   3.687   3.894 -1.1928  0.2437 -0.3627
  928MOL0     H25268   6.677   3.219   3.951  1.3107  1.5177 -1.5070
  928MOL0     H25269   6.849   3.236   4.116  1.5951  1.7904 -0.0364
  928MOL0     H25270   6.957   3.247   4.309  2.2396 -0.1933 -1.0498
  928MOL0     H25271   6.994   3.387   4.212 -0.3168  1.6899  0.1845
  928MOL0     H25272   7.028   3.351   4.516 -2.2956 -1.1571 -0.1185
  928MOL0     H25273   7.066   3.507   4.427 -1.8480 -0.2314 -1.3546
  928MOL0     H25274   7.213   3.370   4.287  1.4668 -2.3347 -0.0201
  928MOL0     H25275   7.182   3.233   4.381 -1.2645 -0.0186  2.1651
  928MOL0     H25276   7.345   3.314   4.552 -1.5289 -0.2797  0.5869
  928MOL0     H25277   7.277   3.482   4.520 -0.8586  2.0398 -4.1735
  928MOL0     H25278   7.622   3.401   4.266 -0.9294 -1.1027 -1.0852
  928MOL0     H25279   6.610   3.533   4.325 -0.5783 -0.0848  0.3380
  928MOL0     H25280   6.433   3.503   4.168 -0.0295 -0.2515 -0.5580
  929MOL0     O25281   8.909   6.663  11.370 -0.0826  0.3510  0.1721
  929MOL0     C25282   8.896   6.542  11.385  0.0155  0.1600 -0.3153
  929MOL0     O25283   8.933   6.447  11.293 -0.0977 -1.0712 -0.0797
  929MOL0     C25284   9.041   6.474  11.199 -0.4404  0.8438 -0.3129
  929MOL0     C25285   9.047   6.378  11.095  0.1127 -0.2750 -0.0387
  929MOL0     C25286   9.148   6.385  11.003  0.6676  0.7135  0.0524
  929MOL0     C25287   9.242   6.484  11.003  0.1484  0.1020  0.8953
  929MOL0     O25288   9.351   6.491  10.922 -0.6145  0.5006  0.4460
  929MOL0     C25289   9.407   6.374  10.853 -0.2825  0.1548 -0.3537
  929MOL0     C25290   9.347   6.353  10.714  0.7161  0.3384  0.3566
  929MOL0     C25291   9.404   6.467  10.619  0.3790  0.2685  0.3895
  929MOL0     C25292   9.338   6.452  10.481 -0.5205  0.9324 -0.0098
  929MOL0     C25293   9.367   6.570  10.390 -0.4918 -0.8708 -0.2707
  929MOL0     C25294   9.513   6.628  10.406 -1.3840 -0.3527 -0.1343
  929MOL0     C25295   9.538   6.732  10.297  0.4386  0.1216  0.7314
  929MOL0     C25296   9.641   6.848  10.319 -0.5394  0.2880  0.6511
  929MOL0     N25297   9.612   6.918  10.447  0.4325  0.8823  0.2835
  929MOL0     C25298   9.664   6.890  10.571  0.3614  0.5466  0.5151
  929MOL0     C25299   9.606   6.976  10.656 -0.1588 -0.5969 -0.4536
  929MOL0     C25300   9.612   6.979  10.810 -0.1968  0.1976 -0.5237
  929MOL0     C25301   9.570   6.849  10.873  0.1575 -0.6490 -0.0950
  929MOL0     C25302   9.420   6.829  10.824 -0.0557  0.5601 -0.9401
  929MOL0     C25303   9.326   6.930  10.883  0.2045 -0.8456  0.1645
  929MOL0     O25304   9.193   6.868  10.890 -0.7281 -0.1704 -0.4637
  929MOL0     C25305   9.150   6.802  10.781 -0.0935  1.0844  0.9220
  929MOL0     C25306   9.060   6.702  10.786 -0.2655  0.5274 -0.3255
  929MOL0     C25307   9.009   6.634  10.676  0.8061 -0.3841 -0.2497
  929MOL0     C25308   8.928   6.508  10.707 -1.0707  0.4044  0.0501
  929MOL0     C25309   9.022   6.690  10.545 -0.6851 -0.9893  0.4327
  929MOL0     C25310   8.966   6.632  10.411  2.2797  0.1949 -0.5975
  929MOL0     O25311   9.024   6.696  10.299  0.4276  0.4123 -0.2411
  929MOL0     C25312   8.994   6.659  10.172 -0.2766  1.2095 -0.8422
  929MOL0     C25313   8.972   6.746  10.072 -0.2477  0.3570  0.1581
  929MOL0     C25314   8.939   6.707   9.943  0.8843  0.5826  0.8274
  929MOL0     C25315   8.928   6.571   9.915 -0.3974 -0.0144  0.6345
  929MOL0     O25316   8.912   6.546   9.783  0.5318 -0.3284 -0.2109
  929MOL0     C25317   8.788   6.472   9.759  0.3996  0.2500  0.1521
  929MOL0     C25318   8.761   6.472   9.606 -0.4872  0.4451 -0.1054
  929MOL0     C25319   8.876   6.398   9.526 -0.5073 -0.2557  0.0820
  929MOL0     C25320   8.875   6.434   9.376 -0.3818  1.1020  0.7176
  929MOL0     C25321   8.997   6.366   9.302  0.1476  0.6033  0.5339
  929MOL0     C25322   8.984   6.215   9.252  0.5226 -0.0329 -0.2336
  929MOL0     C25323   9.115   6.151   9.203  1.0895 -0.2920  0.4855
  929MOL0     C25324   9.121   6.139   9.052  0.9399  0.2096  0.0660
  929MOL0    Cl25325   8.988   6.038   8.989 -0.4922 -0.6659  0.5007
  929MOL0     C25326   8.956   6.475  10.011 -1.2344  0.5761  0.1652
  929MOL0     C25327   8.988   6.521  10.136 -0.3897  0.3275  0.1517
  929MOL0     O25328   8.902   6.530  10.418 -0.3770 -0.2806 -0.1930
  929MOL0     C25329   9.105   6.801  10.540  0.1524 -0.2019 -0.3508
  929MOL0     C25330   9.168   6.858  10.654  0.4359 -0.2405  0.2122
  929MOL0     N25331   9.513   7.047  10.576  0.1785 -0.1847 -0.4367
  929MOL0     N25332   9.516   7.012  10.457  0.6741  0.1527  0.5001
  929MOL0     C25333   9.230   6.586  11.103 -0.6039  0.1524 -0.3666
  929MOL0     C25334   9.135   6.584  11.197  0.8734 -0.7258  0.4229
  929MOL0     C25335   8.840   6.479  11.516 -0.1970  0.1267  0.2324
  929MOL0     C25336   8.770   6.557  11.614 -0.6285  0.4462  0.6684
  929MOL0     C25337   8.729   6.488  11.728  0.2255 -0.5818  0.1915
  929MOL0     C25338   8.766   6.354  11.761  0.0077 -0.8136  0.1521
  929MOL0     O25339   8.718   6.299  11.879 -0.5422  0.7858  0.4493
  929MOL0     C25340   8.769   6.170  11.910  0.9862  0.7217  0.3703
  929MOL0     C25341   8.708   6.120  12.039 -0.1480 -0.6490  0.4450
  929MOL0     C25342   8.571   6.161  12.086  0.3158  0.2878 -0.3224
  929MOL0     C25343   8.512   6.077  12.206 -0.3052  0.9707  0.2369
  929MOL0     C25344   8.428   6.151  12.298 -0.1487  0.1727 -0.2340
  929MOL0     C25345   8.362   6.218  12.377  0.0208  0.3666 -1.2014
  929MOL0     C25346   8.834   6.284  11.662 -0.1397  0.3408 -0.9957
  929MOL0     C25347   8.872   6.343  11.549 -0.1442  0.5074 -0.1864
  929MOL0     H25348   8.968   6.305  11.081 -1.0127  0.7321  0.7640
  929MOL0     H25349   9.153   6.312  10.922  0.7043  0.0125  0.6744
  929MOL0     H25350   9.517   6.379  10.854 -0.2722  0.0245  1.0267
  929MOL0     H25351   9.366   6.286  10.902 -0.9009 -0.3398 -1.7239
  929MOL0     H25352   9.364   6.257  10.666 -1.3308  0.7324 -1.2638
  929MOL0     H25353   9.240   6.374  10.724  0.8663  1.0601  0.5387
  929MOL0     H25354   9.391   6.563  10.669 -0.2393  1.1033 -1.2756
  929MOL0     H25355   9.512   6.454  10.605  0.6006  1.4188  0.9231
  929MOL0     H25356   9.377   6.360  10.438  0.0501  0.9449  0.4725
  929MOL0     H25357   9.231   6.440  10.496 -0.4479 -0.3258 -0.3939
  929MOL0     H25358   9.362   6.534  10.287  2.2093 -0.4601 -0.6176
  929MOL0     H25359   9.305   6.657  10.414  2.7507  0.5631  4.4807
  929MOL0     H25360   9.525   6.667  10.508 -0.2246  2.0560 -1.1069
  929MOL0     H25361   9.585   6.548  10.390 -1.7551 -0.3839 -1.8204
  929MOL0     H25362   9.566   6.679  10.206  2.4939 -0.7295  1.8169
  929MOL0     H25363   9.440   6.780  10.286  1.0468  1.5708  1.2943
  929MOL0     H25364   9.638   6.924  10.240  2.7370 -0.4725 -0.3400
  929MOL0     H25365   9.740   6.803  10.318 -1.5990 -2.2731  2.3160
  929MOL0     H25366   9.747   6.828  10.602  2.0079  2.3033 -0.1568
  929MOL0     H25367   9.715   6.998  10.842 -0.3826 -1.0903  0.9789
  929MOL0     H25368   9.553   7.068  10.834 -0.7471  0.4344 -2.5602
  929MOL0     H25369   9.590   6.852  10.981  0.8286  1.6326 -0.2295
  929MOL0     H25370   9.630   6.768  10.831 -0.1326 -1.2233  0.5749
  929MOL0     H25371   9.384   6.736  10.869 -1.3817  1.0611 -0.9512
  929MOL0     H25372   9.402   6.826  10.716 -1.9219  1.3802 -0.6871
  929MOL0     H25373   9.334   7.016  10.817  1.6805 -3.0401 -2.7885
  929MOL0     H25374   9.362   6.958  10.982  1.9799  0.4648 -0.8117
  929MOL0     H25375   9.037   6.680  10.890  3.8067  2.4033  1.1880
  929MOL0     H25376   8.936   6.475  10.810  3.2046  1.7097  0.3357
  929MOL0     H25377   8.823   6.512  10.677 -2.4161 -1.4821  3.8679
  929MOL0     H25378   8.975   6.434  10.642 -3.3930 -0.6326 -0.5548
  929MOL0     H25379   8.980   6.853  10.088 -4.0157  0.5864  1.6456
  929MOL0     H25380   8.931   6.775   9.859  0.9236  0.8788  1.0628
  929MOL0     H25381   8.801   6.366   9.780 -0.6678 -0.0797 -0.7867
  929MOL0     H25382   8.699   6.504   9.814 -1.3162  0.7276 -2.6965
  929MOL0     H25383   8.664   6.427   9.583 -2.3677  3.7475  0.6878
  929MOL0     H25384   8.747   6.574   9.570  0.3435 -0.7075 -4.2135
  929MOL0     H25385   8.866   6.290   9.533 -2.1347 -0.3993 -2.8854
  929MOL0     H25386   8.970   6.430   9.571 -1.6627  2.7884  0.5961
  929MOL0     H25387   8.782   6.383   9.349  0.8886 -1.0007  0.1043
  929MOL0     H25388   8.874   6.541   9.350  1.2184  0.4793 -2.4816
  929MOL0     H25389   9.083   6.369   9.370  0.1325  0.1152  0.5761
  929MOL0     H25390   9.024   6.426   9.215  2.9056  0.6737  1.3392
  929MOL0     H25391   8.945   6.155   9.334 -0.8067 -1.3361 -1.7509
  929MOL0     H25392   8.893   6.202   9.192 -0.6018 -2.8197  1.8700
  929MOL0     H25393   9.126   6.047   9.234  1.2938  0.0810  1.7287
  929MOL0     H25394   9.209   6.199   9.234  1.4745 -2.0639  2.2800
  929MOL0     H25395   9.214   6.095   9.014 -1.3705 -4.8258 -0.4822
  929MOL0     H25396   9.105   6.241   9.016 -3.0682 -0.5661 -0.7427
  929MOL0     H25397   8.953   6.366  10.003 -0.0982  0.5655 -0.2530
  929MOL0     H25398   9.010   6.456  10.219 -0.5385  0.8971  0.6465
  929MOL0     H25399   9.127   6.852  10.447  4.5380  0.9218  1.0563
  929MOL0     H25400   9.225   6.949  10.637  1.1687 -0.7102  0.1128
  929MOL0     H25401   9.308   6.661  11.099 -0.4927  0.1501  1.3041
  929MOL0     H25402   9.140   6.656  11.278  0.3548  1.0291 -1.0464
  929MOL0     H25403   8.747   6.663  11.610  0.8459  0.7757  0.2012
  929MOL0     H25404   8.685   6.542  11.812 -1.7721 -1.6519 -0.1174
  929MOL0     H25405   8.739   6.099  11.833  0.3754  2.1333 -0.7393
  929MOL0     H25406   8.878   6.162  11.912  0.8561 -1.6554  1.1136
  929MOL0     H25407   8.770   6.143  12.126 -3.1926  1.8910  2.1709
  929MOL0     H25408   8.711   6.010  12.035  0.1612 -0.6145 -1.3594
  929MOL0     H25409   8.509   6.145  11.997  1.2024  0.5548 -1.0047
  929MOL0     H25410   8.550   6.264  12.117 -2.8548 -0.9222  2.1989
  929MOL0     H25411   8.594   6.025  12.256 -0.1266  0.6587 -0.3638
  929MOL0     H25412   8.459   5.993  12.160 -1.3223  0.4934  2.1621
  929MOL0     H25413   8.300   6.271  12.446 -0.7731 -1.6324 -0.2945
  929MOL0     H25414   8.869   6.182  11.679 -0.2767  0.4897  0.2257
  929MOL0     H25415   8.929   6.286  11.476  3.1699  1.7152  1.2625
  930MOL0     O25416   4.955   8.099  10.546  0.3407 -0.1354 -0.0956
  930MOL0     C25417   4.991   8.134  10.654 -0.9628 -0.0174 -0.3733
  930MOL0     O25418   4.973   8.264  10.698  0.2316  0.2989  0.0309
  930MOL0     C25419   4.917   8.373  10.635 -0.3887  0.3642  0.2094
  930MOL0     C25420   4.811   8.349  10.543  0.0529  0.4524  0.4891
  930MOL0     C25421   4.757   8.460  10.479 -0.3016  0.8626 -0.3770
  930MOL0     C25422   4.789   8.584  10.525 -0.5273 -0.6130 -0.2022
  930MOL0     O25423   4.718   8.699  10.477 -0.0944 -0.1411 -0.8080
  930MOL0     C25424   4.806   8.813  10.449 -0.2316 -0.2925  1.0040
  930MOL0     C25425   4.807   8.812  10.299 -0.0238  0.3220  0.3463
  930MOL0     C25426   4.853   8.940  10.232 -1.0575  0.2715  0.0097
  930MOL0     C25427   4.761   9.053  10.275 -0.3119  0.8186 -0.7253
  930MOL0     C25428   4.730   9.173  10.179 -0.2410  1.1072 -0.0166
  930MOL0     C25429   4.874   9.234  10.151  0.1284  0.6287  0.6485
  930MOL0     C25430   4.875   9.342  10.036 -0.6457  0.7125  0.3175
  930MOL0     C25431   4.943   9.303   9.898  1.0302 -0.0510 -0.1009
  930MOL0     N25432   4.864   9.198   9.833  0.0298 -0.0388 -0.2734
  930MOL0     C25433   4.771   9.220   9.736  0.2888 -0.0069  0.1123
  930MOL0     C25434   4.703   9.103   9.733 -0.1691  0.3637 -0.6956
  930MOL0     C25435   4.597   9.069   9.626  0.2256 -0.6346  0.5142
  930MOL0     C25436   4.453   9.065   9.684 -0.0638 -0.6985  0.1960
  930MOL0     C25437   4.430   8.984   9.812  0.1153  0.5267  0.3539
  930MOL0     C25438   4.492   8.838   9.805  0.5290 -0.3858  0.3257
  930MOL0     O25439   4.554   8.808   9.929 -0.4090  0.1419 -1.1013
  930MOL0     C25440   4.552   8.683   9.980 -0.5568 -0.6410 -0.9253
  930MOL0     C25441   4.610   8.576   9.902  0.3000 -0.8650 -0.3959
  930MOL0     C25442   4.621   8.450   9.955 -0.0225  0.5853 -0.4595
  930MOL0     C25443   4.693   8.350   9.867  0.1370 -0.0618  1.0125
  930MOL0     C25444   4.584   8.428  10.083 -0.2179  0.0516 -0.8063
  930MOL0     C25445   4.609   8.304  10.152 -0.8915  0.6277  0.8376
  930MOL0     O25446   4.704   8.216  10.098  0.0719 -0.0817 -0.5759
  930MOL0     C25447   4.680   8.088  10.131 -0.5168  0.7437 -0.6291
  930MOL0     C25448   4.750   8.039  10.245  0.0008 -0.1015 -0.0130
  930MOL0     C25449   4.731   7.906  10.278  0.3099  0.3848  0.3550
  930MOL0     C25450   4.645   7.822  10.211  0.7952 -0.1811  0.2176
  930MOL0     O25451   4.634   7.690  10.255 -0.5152 -0.3206  0.4686
  930MOL0     C25452   4.505   7.637  10.238 -0.0152  0.4342 -0.3180
  930MOL0     C25453   4.509   7.496  10.303 -0.1145  0.2707 -0.3664
  930MOL0     C25454   4.388   7.419  10.257 -0.2199  0.0678 -0.6683
  930MOL0     C25455   4.357   7.304  10.337  0.0363  0.4616 -0.4626
  930MOL0     C25456   4.227   7.233  10.293  0.4537  0.2231 -0.7814
  930MOL0     C25457   4.236   7.094  10.360  0.6844 -0.3506 -0.4596
  930MOL0     C25458   4.110   7.018  10.320 -0.1677  0.3388 -0.1966
  930MOL0     C25459   4.086   6.880  10.377 -0.6252  1.2104 -0.5931
  930MOL0    Cl25460   3.921   6.854  10.413  0.1652 -0.5121 -0.2564
  930MOL0     C25461   4.594   7.857  10.087 -0.4362  0.6543  0.0274
  930MOL0     C25462   4.618   7.996  10.048 -0.4815 -0.2448  0.0296
  930MOL0     O25463   4.552   8.285  10.258  0.3277 -0.3852  0.5670
  930MOL0     C25464   4.533   8.533  10.169  0.2940  0.1557  0.4217
  930MOL0     C25465   4.506   8.661  10.115 -0.0335 -0.4469  1.3365
  930MOL0     N25466   4.774   9.013   9.804 -0.4582 -0.6323 -0.1334
  930MOL0     N25467   4.872   9.069   9.870  0.5655 -0.7388  0.1029
  930MOL0     C25468   4.882   8.602  10.621 -0.4484  0.0057 -0.5557
  930MOL0     C25469   4.951   8.495  10.677  0.9104  0.2920  0.4129
  930MOL0     C25470   5.058   8.042  10.745  0.0488  0.1566  0.5442
  930MOL0     C25471   5.055   7.900  10.734  0.1457  0.0251 -0.1770
  930MOL0     C25472   5.137   7.813  10.809  0.4093  0.8817  0.5568
  930MOL0     C25473   5.213   7.862  10.912  0.8554  0.9394 -0.6128
  930MOL0     O25474   5.292   7.779  10.984 -0.2049 -0.2602 -0.0342
  930MOL0     C25475   5.233   7.661  11.042  1.2245 -0.0536 -0.3694
  930MOL0     C25476   5.150   7.699  11.178  0.1764 -0.3277  0.0996
  930MOL0     C25477   5.245   7.721  11.296  0.3510  0.0334  0.3281
  930MOL0     C25478   5.161   7.769  11.410 -0.7412 -0.3291  0.0580
  930MOL0     C25479   5.099   7.901  11.393 -0.0792  1.1977 -0.8231
  930MOL0     C25480   5.048   8.006  11.390  0.1274 -0.0614 -0.6346
  930MOL0     C25481   5.216   8.001  10.942  0.4177  0.1109  0.3331
  930MOL0     C25482   5.146   8.090  10.854  0.6011 -0.1682  0.2486
  930MOL0     H25483   4.772   8.252  10.515  0.9703 -0.5520  2.4646
  930MOL0     H25484   4.672   8.448  10.413 -2.0433  0.9269  1.7354
  930MOL0     H25485   4.751   8.899  10.489 -2.5047 -1.0250 -0.3996
  930MOL0     H25486   4.894   8.821  10.514  0.3680  2.0236  0.0338
  930MOL0     H25487   4.867   8.725  10.270 -0.9798 -0.4282  0.6051
  930MOL0     H25488   4.705   8.790  10.269 -1.1378 -0.9434  4.3612
  930MOL0     H25489   4.954   8.971  10.258  0.1320 -1.7000 -1.9482
  930MOL0     H25490   4.851   8.930  10.123 -0.3499  2.5949 -0.2811
  930MOL0     H25491   4.660   9.017  10.301  0.5760 -2.5540 -1.5342
  930MOL0     H25492   4.792   9.099  10.370  0.8069  2.2238 -1.7328
  930MOL0     H25493   4.702   9.126  10.085  1.2690 -0.3665  0.2175
  930MOL0     H25494   4.651   9.234  10.224 -2.7055 -2.1316  0.4224
  930MOL0     H25495   4.895   9.303  10.233  3.0705  2.0158 -1.1171
  930MOL0     H25496   4.956   9.165  10.128 -0.4927 -0.5607  1.8769
  930MOL0     H25497   4.772   9.380  10.034 -0.4723  1.7339  3.8930
  930MOL0     H25498   4.918   9.431  10.082 -1.3901  0.8430  0.7925
  930MOL0     H25499   5.036   9.250   9.920  0.6118 -0.0299  1.8702
  930MOL0     H25500   4.952   9.392   9.835  2.9008  0.9919  1.5433
  930MOL0     H25501   4.741   9.312   9.688  0.8213  1.6160  2.6872
  930MOL0     H25502   4.603   9.139   9.542  0.1986 -0.5584  0.5755
  930MOL0     H25503   4.622   8.974   9.577 -0.2999  0.4680 -2.0531
  930MOL0     H25504   4.381   9.019   9.615 -0.8987 -0.8599  1.1573
  930MOL0     H25505   4.412   9.164   9.706 -3.0617 -2.0921  1.5083
  930MOL0     H25506   4.329   8.988   9.855  0.1868 -0.4528  0.6553
  930MOL0     H25507   4.489   9.045   9.881 -0.2564  0.3608  0.8269
  930MOL0     H25508   4.566   8.829   9.725  1.0068  1.5394  0.5090
  930MOL0     H25509   4.411   8.767   9.785 -0.4444  0.2109  1.9207
  930MOL0     H25510   4.635   8.603   9.799  1.5588  2.5209  0.6395
  930MOL0     H25511   4.700   8.386   9.764  3.0015 -0.5838  0.9342
  930MOL0     H25512   4.798   8.335   9.896  0.7828 -1.3500 -1.7366
  930MOL0     H25513   4.635   8.258   9.873 -1.3865  0.8247  0.4365
  930MOL0     H25514   4.821   8.104  10.295 -0.3113  0.4545 -0.2772
  930MOL0     H25515   4.795   7.888  10.364  4.5098  4.7749 -1.4053
  930MOL0     H25516   4.433   7.694  10.297  1.3676 -0.9431  2.9219
  930MOL0     H25517   4.474   7.623  10.134 -0.3538 -0.1240 -0.1431
  930MOL0     H25518   4.604   7.451  10.275  0.1478  0.1431  0.6726
  930MOL0     H25519   4.508   7.518  10.410  1.2205 -2.5133  0.3013
  930MOL0     H25520   4.416   7.390  10.156  1.1117 -0.9228 -0.0525
  930MOL0     H25521   4.304   7.489  10.252 -2.1363 -1.7277  2.7787
  930MOL0     H25522   4.444   7.239  10.325  0.5801  1.3628 -1.6245
  930MOL0     H25523   4.347   7.336  10.441 -0.3708  2.8635 -1.1787
  930MOL0     H25524   4.233   7.192  10.191 -0.4142 -0.5111 -0.5453
  930MOL0     H25525   4.136   7.287  10.320  0.6788  1.4596 -2.3078
  930MOL0     H25526   4.311   7.028  10.317 -0.6612 -1.4336 -1.2348
  930MOL0     H25527   4.237   7.094  10.469  1.0131  0.1458 -0.4615
  930MOL0     H25528   4.107   7.012  10.211 -0.1725  0.2692 -0.1928
  930MOL0     H25529   4.019   7.068  10.355 -1.9426 -3.0743  0.5168
  930MOL0     H25530   4.138   6.868  10.473 -2.1906  0.8460  0.2517
  930MOL0     H25531   4.137   6.811  10.309 -2.7511 -0.5312 -0.5523
  930MOL0     H25532   4.534   7.794  10.022 -0.7137  0.4208  0.5070
  930MOL0     H25533   4.569   8.035   9.960  0.2654  0.3639 -0.1278
  930MOL0     H25534   4.503   8.525  10.273  1.1603 -3.4130  0.5032
  930MOL0     H25535   4.464   8.744  10.170 -2.7187 -0.5052 -0.4131
  930MOL0     H25536   4.875   8.689  10.685 -1.7775 -1.0287  0.7621
  930MOL0     H25537   5.010   8.522  10.764 -0.8575 -2.7699  2.7495
  930MOL0     H25538   4.981   7.855  10.669 -0.5862  1.9478 -0.7420
  930MOL0     H25539   5.151   7.708  10.787 -1.2512  1.0600 -1.8575
  930MOL0     H25540   5.157   7.626  10.972 -0.1342  1.7027  0.1793
  930MOL0     H25541   5.304   7.580  11.065 -1.3391 -4.0042 -4.5795
  930MOL0     H25542   5.079   7.619  11.202 -0.1178  0.1448  0.8558
  930MOL0     H25543   5.087   7.783  11.149 -3.0223 -2.8932 -1.0041
  930MOL0     H25544   5.316   7.800  11.269 -0.9997  0.5417 -2.0453
  930MOL0     H25545   5.283   7.622  11.323 -1.3127 -0.4319  1.0517
  930MOL0     H25546   5.220   7.780  11.501 -0.6184  2.5839 -0.2818
  930MOL0     H25547   5.087   7.691  11.433 -0.6156 -0.0550  1.4219
  930MOL0     H25548   5.021   8.109  11.391  0.7996  0.2146  2.7789
  930MOL0     H25549   5.283   8.039  11.019  1.6873  3.6631 -2.2669
  930MOL0     H25550   5.142   8.197  10.875 -0.9505 -0.2259  0.3694
  931MOL0     O25551   8.410  10.182   4.953 -0.6819 -0.0459 -0.4200
  931MOL0     C25552   8.388  10.064   4.965  1.0563  0.7695 -1.1521
  931MOL0     O25553   8.279  10.008   5.011  0.1421 -0.0621 -0.4628
  931MOL0     C25554   8.168  10.095   5.015 -1.0664 -1.1155  0.1783
  931MOL0     C25555   8.112  10.103   5.141  0.3617  0.2554  0.0316
  931MOL0     C25556   8.000  10.186   5.168  0.1754  0.6267  0.0200
  931MOL0     C25557   7.953  10.271   5.065  0.2160  0.3664 -0.2825
  931MOL0     O25558   7.862  10.361   5.107  0.4016 -0.6737 -0.1498
  931MOL0     C25559   7.802  10.445   5.005  0.0888  0.2082  0.5482
  931MOL0     C25560   7.741  10.560   5.070 -0.0683  0.1382 -0.5641
  931MOL0     C25561   7.640  10.534   5.185 -0.4262  0.1313  0.1853
  931MOL0     C25562   7.519  10.444   5.144 -0.4287 -0.2201  0.2347
  931MOL0     C25563   7.416  10.453   5.249  0.6844 -1.0388 -0.0373
  931MOL0     C25564   7.332  10.587   5.258 -0.2094  0.3251 -0.9201
  931MOL0     C25565   7.202  10.575   5.351 -0.7624  0.7359 -0.7698
  931MOL0     C25566   7.218  10.601   5.499  0.1763  0.0561 -0.6305
  931MOL0     N25567   7.089  10.588   5.577 -0.0840  0.3165  0.4754
  931MOL0     C25568   6.969  10.643   5.543  0.1750  0.3925  0.2270
  931MOL0     C25569   6.888  10.624   5.650 -0.4673  0.1626 -0.2254
  931MOL0     C25570   6.739  10.671   5.643  0.8184  0.9631  0.2402
  931MOL0     C25571   6.649  10.591   5.737 -1.3271 -1.7055  0.6498
  931MOL0     C25572   6.647  10.447   5.700 -0.6897  0.5083 -0.7330
  931MOL0     C25573   6.535  10.427   5.590 -0.2814  0.4280 -0.7345
  931MOL0     O25574   6.575  10.475   5.465 -0.0741  0.5724 -0.3991
  931MOL0     C25575   6.677  10.424   5.385 -0.3677 -0.4184 -0.3631
  931MOL0     C25576   6.755  10.309   5.401  0.2318 -0.9466 -0.1040
  931MOL0     C25577   6.870  10.282   5.322  0.2533 -0.4619  1.0321
  931MOL0     C25578   6.921  10.145   5.323 -0.3749 -1.1335 -0.6609
  931MOL0     C25579   6.903  10.374   5.219  0.7216  0.0766  1.2399
  931MOL0     C25580   7.007  10.345   5.115 -0.1808  0.0431 -0.0536
  931MOL0     O25581   7.112  10.252   5.147  0.5195 -0.5742 -0.0560
  931MOL0     C25582   7.200  10.200   5.056 -0.1172 -0.4269 -0.0554
  931MOL0     C25583   7.321  10.142   5.113 -0.0863  0.9866  0.5546
  931MOL0     C25584   7.414  10.088   5.027  0.0628  0.4955 -0.3510
  931MOL0     C25585   7.405  10.094   4.887 -0.3116 -1.1287 -0.0039
  931MOL0     O25586   7.509  10.045   4.811 -0.2344 -0.9222  0.8152
  931MOL0     C25587   7.489   9.913   4.784  0.6216 -0.7104 -0.1115
  931MOL0     C25588   7.601   9.875   4.692  0.9128 -0.5358 -0.9371
  931MOL0     C25589   7.744   9.911   4.732 -0.8002 -0.0998 -0.8646
  931MOL0     C25590   7.863   9.835   4.657  0.0277 -0.7335  0.4220
  931MOL0     C25591   8.000   9.901   4.710  0.1908 -0.1363  0.1465
  931MOL0     C25592   8.111   9.810   4.656 -0.4157  0.1861 -0.3757
  931MOL0     C25593   8.252   9.873   4.689 -0.2624  0.5726  0.2747
  931MOL0     C25594   8.366   9.797   4.615 -0.2154  0.4551  0.7392
  931MOL0    Cl25595   8.351   9.811   4.437  0.2946  0.1257 -0.0370
  931MOL0     C25596   7.285  10.150   4.829  0.0787 -0.2236  0.5306
  931MOL0     C25597   7.188  10.208   4.916  0.3484 -0.2129  0.3732
  931MOL0     O25598   7.007  10.413   5.017  0.0085  0.6735 -0.0359
  931MOL0     C25599   6.823  10.493   5.202 -0.3261  0.8578 -0.0771
  931MOL0     C25600   6.715  10.513   5.285 -0.1528 -0.5708 -0.7702
  931MOL0     N25601   6.964  10.541   5.736 -0.4012 -0.2422  0.3807
  931MOL0     N25602   7.088  10.530   5.701  0.5194  0.8708 -0.1183
  931MOL0     C25603   7.995  10.249   4.935  0.4646  0.0879  0.7119
  931MOL0     C25604   8.095  10.159   4.907 -0.5595 -0.1074  0.7802
  931MOL0     C25605   8.504   9.980   4.925  0.9860  0.0833 -0.6749
  931MOL0     C25606   8.618  10.028   4.867  0.3859 -0.3506 -0.1579
  931MOL0     C25607   8.734   9.940   4.858 -0.0993  0.2226  0.0019
  931MOL0     C25608   8.714   9.809   4.886 -0.4300  0.3646  0.4476
  931MOL0     O25609   8.814   9.721   4.887 -0.2264  0.0819 -0.2304
  931MOL0     C25610   8.815   9.614   4.800 -0.2910  0.5196  0.2646
  931MOL0     C25611   8.920   9.513   4.831 -0.5526  0.0346 -0.3400
  931MOL0     C25612   8.916   9.394   4.737 -0.0406 -0.5116  0.1247
  931MOL0     C25613   8.834   9.276   4.787  0.1199 -0.7208  0.5533
  931MOL0     C25614   8.896   9.210   4.906 -0.9188  0.1323  0.2573
  931MOL0     C25615   8.944   9.146   4.998  0.3584 -0.4293 -0.7437
  931MOL0     C25616   8.587   9.762   4.920  0.2262  0.1377 -0.2431
  931MOL0     C25617   8.488   9.843   4.956 -0.2695 -0.1328  0.0582
  931MOL0     H25618   8.142  10.039   5.224 -2.3318  0.7196  1.4508
  931MOL0     H25619   7.945  10.180   5.261 -0.3136  2.3904 -0.1101
  931MOL0     H25620   7.881  10.474   4.934 -0.2261 -2.1494 -0.8752
  931MOL0     H25621   7.722  10.394   4.951 -1.3026  0.5746  2.1818
  931MOL0     H25622   7.811  10.636   5.105  1.7458 -1.5133 -0.4595
  931MOL0     H25623   7.673  10.614   5.003 -0.4778  0.9991  0.5120
  931MOL0     H25624   7.701  10.480   5.259 -0.9253 -0.8824 -0.1191
  931MOL0     H25625   7.615  10.637   5.213  1.1799  0.6451 -0.1465
  931MOL0     H25626   7.485  10.474   5.045 -2.1899  1.4704  1.2826
  931MOL0     H25627   7.544  10.337   5.134 -1.5204 -0.5322  0.6961
  931MOL0     H25628   7.334  10.384   5.228  2.0162 -2.5635 -0.4141
  931MOL0     H25629   7.463  10.440   5.347  3.1816 -0.5966 -1.0895
  931MOL0     H25630   7.385  10.678   5.292 -0.0235 -0.5343  1.2535
  931MOL0     H25631   7.293  10.600   5.157  2.6128  0.9477 -2.0215
  931MOL0     H25632   7.136  10.654   5.312  0.3095  3.0357  1.7365
  931MOL0     H25633   7.155  10.478   5.330  1.1050  0.0880 -2.2764
  931MOL0     H25634   7.257  10.700   5.523  0.9742 -0.9673  2.7493
  931MOL0     H25635   7.282  10.522   5.540 -3.5146 -1.1578  3.6605
  931MOL0     H25636   6.936  10.681   5.447 -0.7362 -1.6617 -0.3234
  931MOL0     H25637   6.736  10.776   5.675 -0.7944  0.7281  0.9402
  931MOL0     H25638   6.697  10.668   5.542  0.5598  1.8361  0.3133
  931MOL0     H25639   6.556  10.649   5.729 -0.0856  0.1366 -1.9559
  931MOL0     H25640   6.691  10.597   5.838 -2.2790  0.4050  0.9789
  931MOL0     H25641   6.616  10.389   5.788  1.8139  2.7743  1.8640
  931MOL0     H25642   6.744  10.408   5.670  0.8165  0.8478  3.1257
  931MOL0     H25643   6.446  10.481   5.623 -0.6215 -0.8369  0.4983
  931MOL0     H25644   6.509  10.321   5.586  1.2497 -0.1311  1.4848
  931MOL0     H25645   6.740  10.240   5.484  0.1295 -0.2257  0.4901
  931MOL0     H25646   6.873  10.087   5.403 -0.8565 -2.4023 -1.8159
  931MOL0     H25647   6.890  10.095   5.231  1.4909 -2.3927 -0.6651
  931MOL0     H25648   7.028  10.147   5.347 -0.6827 -2.6069  1.0743
  931MOL0     H25649   7.342  10.139   5.220  1.1617  2.2978  0.3723
  931MOL0     H25650   7.504  10.047   5.073 -0.6117 -0.2927  0.3136
  931MOL0     H25651   7.497   9.854   4.876 -0.2353 -0.6185  0.0252
  931MOL0     H25652   7.391   9.893   4.740 -0.3709  0.4951  1.4366
  931MOL0     H25653   7.599   9.769   4.665  2.3703 -0.8041 -0.1380
  931MOL0     H25654   7.577   9.928   4.599 -0.0348 -0.3886 -0.6179
  931MOL0     H25655   7.750   9.889   4.839  2.5955 -1.7331 -1.2585
  931MOL0     H25656   7.749  10.019   4.716 -3.5274  0.3039  0.5735
  931MOL0     H25657   7.861   9.728   4.680  2.0420 -0.7793  0.5441
  931MOL0     H25658   7.858   9.849   4.548 -1.3871 -1.7600  0.3311
  931MOL0     H25659   8.008   9.915   4.818  0.2682 -1.6030  0.3553
  931MOL0     H25660   8.010  10.001   4.666  0.7456  0.5727  1.8198
  931MOL0     H25661   8.095   9.710   4.699  0.1657  0.5881  0.8058
  931MOL0     H25662   8.100   9.805   4.548 -0.4130 -0.3121 -0.3583
  931MOL0     H25663   8.276   9.890   4.795 -1.6500 -0.4639  0.7861
  931MOL0     H25664   8.246   9.973   4.645  3.3997  0.9096  0.2423
  931MOL0     H25665   8.371   9.691   4.644  0.1143  0.7113  1.6282
  931MOL0     H25666   8.461   9.843   4.643 -0.2195  0.9049  0.0374
  931MOL0     H25667   7.268  10.148   4.722  0.0575  3.1586  0.3765
  931MOL0     H25668   7.112  10.265   4.864  1.1785 -0.0868 -0.7378
  931MOL0     H25669   6.843  10.554   5.115 -0.6014 -0.3180 -0.9993
  931MOL0     H25670   6.659  10.605   5.269  0.3533  0.3918  2.2906
  931MOL0     H25671   7.954  10.309   4.854  2.2711  0.3537 -0.0624
  931MOL0     H25672   8.135  10.143   4.807 -0.1041 -1.7012  1.1789
  931MOL0     H25673   8.618  10.136   4.858  0.0685 -0.0142  3.0125
  931MOL0     H25674   8.833   9.973   4.829  1.1685 -0.9837  2.5420
  931MOL0     H25675   8.721   9.559   4.803 -0.4274  0.5999 -1.6634
  931MOL0     H25676   8.829   9.646   4.697  0.6762 -2.6015 -0.7007
  931MOL0     H25677   8.913   9.484   4.936  0.9526 -1.4054 -0.5914
  931MOL0     H25678   9.013   9.569   4.818 -1.0337  0.7547 -0.7893
  931MOL0     H25679   9.018   9.360   4.716 -0.7988 -4.2992  1.6515
  931MOL0     H25680   8.870   9.434   4.646 -0.7601  0.2137  0.7897
  931MOL0     H25681   8.806   9.217   4.699 -0.7637  0.7751 -0.2091
  931MOL0     H25682   8.735   9.317   4.809 -0.5602 -0.3576 -2.6740
  931MOL0     H25683   8.969   9.070   5.069  2.4263 -1.1205 -2.1437
  931MOL0     H25684   8.577   9.660   4.956  0.0642 -0.1089 -0.9700
  931MOL0     H25685   8.399   9.801   5.002  0.9723  0.3594  3.1739
  932MOL0     O25686   4.827   9.596   0.003  0.0584 -0.2373  0.2431
  932MOL0     C25687   4.722   9.659   0.013  0.3849 -0.0116  0.7481
  932MOL0     O25688   4.694   9.767   0.096 -0.3430  0.1770 -0.3548
  932MOL0     C25689   4.787   9.785   0.201 -0.8013  0.1681 -0.4993
  932MOL0     C25690   4.896   9.862   0.173 -0.4786 -0.6551 -0.1890
  932MOL0     C25691   4.979   9.885   0.278 -0.1975 -0.2684 -0.0705
  932MOL0     C25692   4.951   9.840   0.410  0.2623 -0.2224  0.2663
  932MOL0     O25693   5.033   9.877   0.517  0.4932 -0.9682 -0.1572
  932MOL0     C25694   4.965   9.900   0.640  0.8993 -0.3750 -0.4080
  932MOL0     C25695   5.050   9.986   0.727 -0.3915 -0.4875  0.1305
  932MOL0     C25696   4.995  10.016   0.864  0.3655  0.4063  0.9915
  932MOL0     C25697   5.107  10.038   0.960 -0.7574 -0.3057  0.4401
  932MOL0     C25698   5.058  10.077   1.099 -0.2520  1.1048 -1.6363
  932MOL0     C25699   5.170  10.109   1.206 -0.3081 -0.2729  1.1374
  932MOL0     C25700   5.098  10.178   1.329  0.0360 -0.2487  0.3356
  932MOL0     C25701   4.981  10.089   1.391 -0.2729  0.2672  1.2859
  932MOL0     N25702   4.959  10.111   1.530  1.1290 -0.4360 -0.3848
  932MOL0     C25703   4.924  10.229   1.589  0.0520  1.0348  0.5916
  932MOL0     C25704   4.888  10.201   1.717  0.4462  0.1476 -0.2069
  932MOL0     C25705   4.852  10.285   1.830 -0.5268  0.0254 -0.2486
  932MOL0     C25706   4.723  10.358   1.812  0.6057 -0.9954 -0.1077
  932MOL0     C25707   4.596  10.272   1.836  0.1950 -0.1425 -0.7945
  932MOL0     C25708   4.460  10.342   1.822 -0.9211  0.2667 -0.3013
  932MOL0     O25709   4.451  10.442   1.925 -0.1298 -0.3681  0.1973
  932MOL0     C25710   4.333  10.492   1.966  0.2327  0.0008 -0.6744
  932MOL0     C25711   4.336  10.611   2.044 -0.1814  0.2963 -0.2886
  932MOL0     C25712   4.213  10.680   2.069  0.7328 -0.1512  0.5486
  932MOL0     C25713   4.226  10.809   2.152 -1.0135 -0.3277  0.2907
  932MOL0     C25714   4.090  10.625   2.034 -0.0748  0.3233 -0.0093
  932MOL0     C25715   3.952  10.679   2.056  0.5453 -0.6771 -1.4511
  932MOL0     O25716   3.844  10.620   2.011  0.4301 -0.2978 -0.2665
  932MOL0     C25717   3.717  10.662   2.061 -1.2033  0.3039 -0.2361
  932MOL0     C25718   3.626  10.730   1.984  0.6149 -0.0240  0.6844
  932MOL0     C25719   3.495  10.760   2.011 -0.2935 -0.1500  0.1628
  932MOL0     C25720   3.453  10.732   2.139 -0.5687  0.8881  0.4250
  932MOL0     O25721   3.331  10.789   2.171 -0.1974 -0.0974 -0.2173
  932MOL0     C25722   3.283  10.771   2.308  0.3663 -0.3383 -0.3840
  932MOL0     C25723   3.136  10.802   2.322  0.5330 -0.3393 -0.1592
  932MOL0     C25724   3.037  10.710   2.259  0.8603  0.3212  0.1555
  932MOL0     C25725   2.901  10.709   2.318 -0.2468  0.1647  0.1518
  932MOL0     C25726   2.874  10.628   2.459 -0.7206  0.1653  0.4427
  932MOL0     C25727   2.732  10.634   2.491  0.1320  0.4829 -0.7872
  932MOL0     C25728   2.709  10.577   2.624 -0.3628 -0.3498  0.1325
  932MOL0     C25729   2.768  10.432   2.649 -0.3960 -0.8033 -0.8486
  932MOL0    Cl25730   2.741  10.393   2.818 -0.3690  0.1381  0.5731
  932MOL0     C25731   3.540  10.660   2.227 -0.5091  0.1935  0.1616
  932MOL0     C25732   3.675  10.627   2.191 -0.3508 -0.5812  0.7132
  932MOL0     O25733   3.947  10.795   2.098 -0.6247 -0.3237 -0.5660
  932MOL0     C25734   4.092  10.504   1.972 -0.6616 -0.0362  0.4007
  932MOL0     C25735   4.208  10.441   1.942  0.4170 -0.4040  0.9605
  932MOL0     N25736   4.904  10.062   1.741  0.2637  0.2024  0.1172
  932MOL0     N25737   4.939  10.016   1.624  0.1044 -0.8110 -0.8249
  932MOL0     C25738   4.844   9.751   0.427 -0.9079  0.7760  0.5179
  932MOL0     C25739   4.758   9.725   0.324 -0.5272 -0.9838  0.0827
  932MOL0     C25740   4.596   9.598  -0.049  0.8901  0.5117 -0.3079
  932MOL0     C25741   4.480   9.666  -0.052  0.3229 -0.1265  0.0787
  932MOL0     C25742   4.361   9.611  -0.091  0.0639  0.4238  0.1782
  932MOL0     C25743   4.356   9.481  -0.140  0.7536 -0.0197 -0.3904
  932MOL0     O25744   4.244   9.433  -0.197  0.3648  0.0258 -0.0188
  932MOL0     C25745   4.249   9.309  -0.278 -0.3280 -0.4178  0.5463
  932MOL0     C25746   4.105   9.255  -0.293 -0.2785  0.9053  0.9542
  932MOL0     C25747   4.091   9.138  -0.394  0.6489  0.6818 -0.0869
  932MOL0     C25748   4.179   9.020  -0.358 -0.2283  0.3557 -0.6683
  932MOL0     C25749   4.136   8.944  -0.238 -0.3195  0.1367  0.8832
  932MOL0     C25750   4.089   8.883  -0.145 -0.1133  0.5480 -0.0079
  932MOL0     C25751   4.480   9.411  -0.146  0.0866 -0.2986 -0.6378
  932MOL0     C25752   4.591   9.471  -0.104 -0.7003  0.2315  0.1594
  932MOL0     H25753   4.912   9.908   0.076  2.7692  1.7956  1.2858
  932MOL0     H25754   5.060   9.952   0.251 -0.5123  0.2753  0.3135
  932MOL0     H25755   4.866   9.945   0.634  0.8179 -0.7092 -1.7147
  932MOL0     H25756   4.946   9.807   0.695 -0.4857  0.0975 -0.0659
  932MOL0     H25757   5.149   9.946   0.749 -1.1888 -2.1167  0.9898
  932MOL0     H25758   5.074  10.081   0.679  1.2330 -0.4573  0.9262
  932MOL0     H25759   4.935  10.108   0.865  0.2568  0.3973 -0.6850
  932MOL0     H25760   4.944   9.933   0.914  1.0421 -0.4685  0.2810
  932MOL0     H25761   5.163   9.946   0.978  0.8720  0.4167 -0.7523
  932MOL0     H25762   5.173  10.120   0.935 -0.9248  0.3113  1.8955
  932MOL0     H25763   5.001  10.169   1.090 -1.7421  0.3246 -0.6034
  932MOL0     H25764   4.987  10.008   1.144  1.1616  1.8281  2.1113
  932MOL0     H25765   5.229  10.020   1.233 -0.5416 -1.0381 -0.7664
  932MOL0     H25766   5.240  10.173   1.151  0.5875 -1.7994  0.4167
  932MOL0     H25767   5.171  10.207   1.405 -1.2070  0.7140  1.2004
  932MOL0     H25768   5.056  10.267   1.282  2.5338 -1.0138 -3.7593
  932MOL0     H25769   5.017   9.987   1.373  2.4804  1.2545  0.5475
  932MOL0     H25770   4.894  10.106   1.328  1.6169  3.4984 -0.7251
  932MOL0     H25771   4.913  10.326   1.540 -1.4283  0.3843 -0.4587
  932MOL0     H25772   4.859  10.236   1.928 -2.9396  0.8080  0.3834
  932MOL0     H25773   4.931  10.360   1.836  1.5807 -2.1102  0.4200
  932MOL0     H25774   4.724  10.396   1.709  3.3115  1.2971  0.6371
  932MOL0     H25775   4.720  10.449   1.873 -2.4552 -0.0528 -1.4674
  932MOL0     H25776   4.603  10.231   1.937 -0.7544 -1.6602 -1.3105
  932MOL0     H25777   4.584  10.195   1.760 -2.3764 -1.3194  0.6556
  932MOL0     H25778   4.390  10.258   1.832 -1.1884  0.6201  1.0012
  932MOL0     H25779   4.460  10.394   1.726 -0.9177 -0.2791 -0.6007
  932MOL0     H25780   4.436  10.644   2.070 -0.7478 -0.2215  3.0225
  932MOL0     H25781   4.316  10.810   2.214 -1.6498  0.5598  1.2250
  932MOL0     H25782   4.212  10.899   2.091 -1.0965  1.1688  2.4045
  932MOL0     H25783   4.153  10.796   2.232  0.7393 -1.6920  1.7634
  932MOL0     H25784   3.665  10.751   1.885 -0.0902  0.9021  0.5845
  932MOL0     H25785   3.435  10.803   1.931  1.9020  0.4399 -1.2766
  932MOL0     H25786   3.293  10.668   2.342  1.5489  0.2881  1.3229
  932MOL0     H25787   3.337  10.839   2.375  0.8500  0.3232 -1.4098
  932MOL0     H25788   3.120  10.803   2.430  2.2827  2.5052  0.1704
  932MOL0     H25789   3.120  10.904   2.286 -1.1059 -0.1535  0.9998
  932MOL0     H25790   3.070  10.606   2.267  0.6032  0.2716  0.5681
  932MOL0     H25791   3.014  10.733   2.155 -1.8102 -2.2617  0.0251
  932MOL0     H25792   2.890  10.817   2.333  2.4115  0.4540  0.4348
  932MOL0     H25793   2.822  10.677   2.250  2.5105 -2.0309 -2.2527
  932MOL0     H25794   2.931  10.669   2.543 -1.2487 -0.8387  1.3184
  932MOL0     H25795   2.929  10.534   2.450 -1.2547 -0.1291  0.1827
  932MOL0     H25796   2.686  10.733   2.498 -0.2383  0.1935  1.5764
  932MOL0     H25797   2.674  10.581   2.415 -1.0789  0.6531  0.0042
  932MOL0     H25798   2.600  10.567   2.621 -0.8387  3.5017 -0.9098
  932MOL0     H25799   2.747  10.632   2.710 -0.1072 -0.1222 -0.1272
  932MOL0     H25800   2.875  10.437   2.631 -0.6740 -0.6812 -2.6994
  932MOL0     H25801   2.714  10.354   2.593 -2.1419  1.2011 -2.0805
  932MOL0     H25802   3.507  10.641   2.329 -2.3102  1.7373 -0.0743
  932MOL0     H25803   3.752  10.572   2.245 -0.1736  0.3548  1.4441
  932MOL0     H25804   4.001  10.454   1.942  0.1993 -1.5913  0.3056
  932MOL0     H25805   4.196  10.344   1.894  2.6476 -0.5663  0.6001
  932MOL0     H25806   4.843   9.691   0.518  1.5860 -1.0584 -0.5587
  932MOL0     H25807   4.674   9.660   0.344 -1.1415 -0.2098  0.0614
  932MOL0     H25808   4.486   9.769  -0.017  0.5360 -0.0324 -0.2381
  932MOL0     H25809   4.284   9.680  -0.122  1.4408  1.4392 -1.1670
  932MOL0     H25810   4.291   9.333  -0.376  0.3595  0.1572  0.9749
  932MOL0     H25811   4.316   9.243  -0.224  3.3137  0.7978 -2.0848
  932MOL0     H25812   4.048   9.341  -0.329 -0.9901  0.7488  1.6883
  932MOL0     H25813   4.058   9.247  -0.194 -2.2370  0.4538  0.0339
  932MOL0     H25814   4.125   9.166  -0.494  0.9688  2.5436  0.5156
  932MOL0     H25815   3.987   9.106  -0.384  0.7190  0.8577  1.6168
  932MOL0     H25816   4.285   9.042  -0.348  0.6078 -3.2743 -0.2666
  932MOL0     H25817   4.172   8.953  -0.444  0.9921 -0.8215  0.1178
  932MOL0     H25818   4.062   8.832  -0.054  0.3862 -0.1475 -0.2406
  932MOL0     H25819   4.489   9.312  -0.188 -1.5504 -1.5335  1.7135
  932MOL0     H25820   4.686   9.418  -0.109 -2.0104 -2.3356  0.6130
  933MOL0     O25821   3.482   4.205   5.132  0.3077  0.0271 -0.1364
  933MOL0     C25822   3.438   4.242   5.022 -0.3048 -0.9125  0.0359
  933MOL0     O25823   3.508   4.261   4.909  1.3495 -0.5162  0.8180
  933MOL0     C25824   3.642   4.217   4.911 -0.1675 -0.4630 -0.2288
  933MOL0     C25825   3.738   4.296   4.974 -0.1542  0.6862  0.0031
  933MOL0     C25826   3.876   4.248   4.980  0.1506 -0.2157  0.3993
  933MOL0     C25827   3.916   4.139   4.903  0.5946  0.8619  0.1469
  933MOL0     O25828   4.050   4.113   4.904 -0.3421  0.1076  0.7956
  933MOL0     C25829   4.096   3.979   4.861  0.4543  0.2095 -0.6850
  933MOL0     C25830   4.042   3.871   4.963  0.2247  0.0370 -0.0143
  933MOL0     C25831   4.140   3.755   4.968  0.3283  0.1892  0.7180
  933MOL0     C25832   4.088   3.621   5.023  0.7621 -0.3651 -0.9357
  933MOL0     C25833   4.206   3.524   5.050  0.6316  1.0460  0.3079
  933MOL0     C25834   4.305   3.563   5.163 -0.0581  0.8646 -0.5986
  933MOL0     C25835   4.291   3.481   5.297 -1.2537 -0.0177 -0.1381
  933MOL0     C25836   4.405   3.504   5.388  0.1298  1.0375  0.4889
  933MOL0     N25837   4.424   3.631   5.447  0.5840  0.0438 -0.4210
  933MOL0     C25838   4.373   3.667   5.574  0.1232 -0.3136 -0.2127
  933MOL0     C25839   4.402   3.797   5.599 -0.2981  0.7944 -0.2991
  933MOL0     C25840   4.345   3.867   5.726  0.4168 -0.1219  0.6238
  933MOL0     C25841   4.242   3.983   5.696  0.4413  1.2337  0.1506
  933MOL0     C25842   4.283   4.069   5.583  0.2336 -0.2040 -0.0063
  933MOL0     C25843   4.403   4.160   5.591  1.0880  0.3270  0.4413
  933MOL0     O25844   4.411   4.242   5.475 -0.0738  0.4731 -0.2707
  933MOL0     C25845   4.521   4.326   5.456  0.5888 -0.6890  0.2830
  933MOL0     C25846   4.600   4.380   5.561  0.7512  0.5297  0.5010
  933MOL0     C25847   4.729   4.439   5.543 -0.5105  0.2138 -0.2275
  933MOL0     C25848   4.810   4.478   5.665 -0.3138  0.5827 -0.8829
  933MOL0     C25849   4.781   4.451   5.411 -0.2945 -0.3292  0.6282
  933MOL0     C25850   4.921   4.506   5.380  0.6171 -0.5021  0.2236
  933MOL0     O25851   4.952   4.637   5.392 -0.0085 -0.7624 -0.1901
  933MOL0     C25852   5.059   4.708   5.336  0.3995 -0.9470 -0.4564
  933MOL0     C25853   5.098   4.831   5.391 -0.0362 -0.4395  1.1825
  933MOL0     C25854   5.209   4.909   5.327  0.2343  1.2916 -0.3916
  933MOL0     C25855   5.288   4.852   5.228  0.0121  0.2358  0.1345
  933MOL0     O25856   5.391   4.928   5.184 -0.0717 -0.3949  0.1465
  933MOL0     C25857   5.521   4.873   5.165  0.1075  1.0980  0.0446
  933MOL0     C25858   5.549   4.876   5.011  0.0845  0.5828 -0.5525
  933MOL0     C25859   5.697   4.854   4.986 -0.8150  0.4244 -0.3287
  933MOL0     C25860   5.706   4.823   4.828  0.4290  0.2003  0.0708
  933MOL0     C25861   5.853   4.787   4.776  0.4823 -0.2102  0.1685
  933MOL0     C25862   5.846   4.759   4.621 -0.4936  0.4079  0.6945
  933MOL0     C25863   5.986   4.732   4.560  0.0942  0.7792 -0.8425
  933MOL0     C25864   6.055   4.605   4.606  0.1561 -0.3041  0.0933
  933MOL0    Cl25865   6.212   4.605   4.505 -0.7904  0.4566 -0.0865
  933MOL0     C25866   5.243   4.729   5.185  0.0422 -0.1596 -0.0360
  933MOL0     C25867   5.134   4.663   5.225 -0.1508 -0.1268 -0.6461
  933MOL0     O25868   4.984   4.425   5.321  0.3718 -0.2224 -0.4242
  933MOL0     C25869   4.706   4.406   5.304 -0.1432  0.1293  0.2523
  933MOL0     C25870   4.575   4.352   5.326 -0.0043 -0.0425 -0.2389
  933MOL0     N25871   4.458   3.848   5.483  0.0103  1.2011  0.6130
  933MOL0     N25872   4.461   3.751   5.393  0.3898 -0.3139 -0.4920
  933MOL0     C25873   3.816   4.072   4.826 -0.4068 -0.1325  0.1798
  933MOL0     C25874   3.681   4.107   4.832  1.2925  0.1676 -0.2537
  933MOL0     C25875   3.290   4.286   5.019 -0.4537 -0.1370 -0.1769
  933MOL0     C25876   3.190   4.198   5.068  0.1307  0.4590  0.0787
  933MOL0     C25877   3.056   4.244   5.062 -0.2533 -0.1089 -1.3993
  933MOL0     C25878   3.015   4.358   5.006 -1.0022  0.4588 -0.1033
  933MOL0     O25879   2.885   4.414   4.998  0.2973 -0.1278 -0.0706
  933MOL0     C25880   2.785   4.310   5.046 -0.0576 -0.1602  0.4481
  933MOL0     C25881   2.636   4.375   5.042  0.1039  0.0146  0.1908
  933MOL0     C25882   2.610   4.388   4.894  0.2784  0.0971  0.3422
  933MOL0     C25883   2.461   4.404   4.860 -0.2101 -0.0562 -0.0551
  933MOL0     C25884   2.436   4.402   4.714 -0.3309  0.0274 -0.7428
  933MOL0     C25885   2.424   4.390   4.592  0.1799  0.0595 -0.4096
  933MOL0     C25886   3.121   4.437   4.952  0.4895 -0.1523  0.6152
  933MOL0     C25887   3.255   4.405   4.962 -0.3429  0.6501  0.6261
  933MOL0     H25888   3.711   4.390   5.021 -0.9622  1.3214 -1.6477
  933MOL0     H25889   3.955   4.303   5.030  0.0380  1.0385 -0.7359
  933MOL0     H25890   4.053   3.949   4.764 -0.7031  0.3092 -0.2255
  933MOL0     H25891   4.204   3.975   4.849  0.7714  0.5194  1.7158
  933MOL0     H25892   4.050   3.919   5.060 -0.2497  1.6289 -0.7297
  933MOL0     H25893   3.938   3.839   4.948  0.0365  1.2247 -1.5055
  933MOL0     H25894   4.182   3.738   4.868 -1.3126  0.4009 -0.0381
  933MOL0     H25895   4.223   3.796   5.026 -0.4468 -0.0525  2.0617
  933MOL0     H25896   4.019   3.635   5.108 -1.5320 -0.6000 -2.6707
  933MOL0     H25897   4.020   3.587   4.945 -0.1770  2.2068 -1.3373
  933MOL0     H25898   4.152   3.432   5.077 -1.8177  3.1241  3.1103
  933MOL0     H25899   4.263   3.516   4.957 -1.3159  0.5785 -0.9152
  933MOL0     H25900   4.403   3.556   5.116  0.4603  2.7202  0.1382
  933MOL0     H25901   4.297   3.669   5.187  1.5424  0.7620  0.5461
  933MOL0     H25902   4.204   3.516   5.353 -0.2608  0.6062  1.0454
  933MOL0     H25903   4.282   3.373   5.280  0.3884 -0.2227  0.1237
  933MOL0     H25904   4.498   3.489   5.332 -0.1646  2.5098 -0.4168
  933MOL0     H25905   4.395   3.431   5.469 -0.9564  0.8103  0.1608
  933MOL0     H25906   4.322   3.598   5.640 -2.1194  0.6268 -0.8626
  933MOL0     H25907   4.289   3.797   5.789 -1.4271 -0.0685 -0.8720
  933MOL0     H25908   4.427   3.919   5.776  3.0950 -1.2956 -2.1581
  933MOL0     H25909   4.220   4.037   5.789  0.7366  1.0731  0.3132
  933MOL0     H25910   4.148   3.942   5.659  1.2625 -1.9430  1.2416
  933MOL0     H25911   4.210   4.150   5.569  1.6357  0.9639 -0.9247
  933MOL0     H25912   4.296   4.019   5.486  0.8026 -1.0124  0.4795
  933MOL0     H25913   4.488   4.093   5.606  0.2905 -0.5240  1.2169
  933MOL0     H25914   4.396   4.225   5.679 -3.0814  1.1188 -0.2791
  933MOL0     H25915   4.553   4.383   5.659  0.4136  0.1501  0.3552
  933MOL0     H25916   4.792   4.585   5.676  1.0173  0.8324 -0.9484
  933MOL0     H25917   4.783   4.419   5.754  0.2211  1.8160  0.1295
  933MOL0     H25918   4.915   4.468   5.636 -0.6170 -0.7497 -1.6132
  933MOL0     H25919   5.042   4.875   5.473 -2.8267 -0.1444 -0.7290
  933MOL0     H25920   5.240   5.004   5.367  3.9522  0.4527 -0.9706
  933MOL0     H25921   5.596   4.934   5.216  2.1100 -1.8284  0.9069
  933MOL0     H25922   5.534   4.775   5.213 -1.2822  1.6168  1.5765
  933MOL0     H25923   5.490   4.795   4.967  0.3372 -1.7130  2.9445
  933MOL0     H25924   5.517   4.974   4.974 -1.2993 -0.7501 -3.2329
  933MOL0     H25925   5.749   4.774   5.038 -0.2994  1.5271  0.8943
  933MOL0     H25926   5.755   4.944   5.008 -0.0466  0.1018 -1.0178
  933MOL0     H25927   5.637   4.742   4.803 -0.1527  1.2823 -2.0805
  933MOL0     H25928   5.674   4.914   4.777  2.5387  0.4862 -0.8460
  933MOL0     H25929   5.895   4.704   4.833 -0.5404 -0.6207  0.3512
  933MOL0     H25930   5.920   4.869   4.803 -3.4540  3.0561  1.1825
  933MOL0     H25931   5.774   4.677   4.617  0.3842 -0.3359 -0.3349
  933MOL0     H25932   5.808   4.855   4.586  0.3307  0.8962  1.0805
  933MOL0     H25933   6.046   4.822   4.572  0.8161  0.0695  1.5425
  933MOL0     H25934   5.981   4.711   4.453  3.2738 -0.9555 -0.7542
  933MOL0     H25935   6.002   4.510   4.601  0.4913 -0.4662 -0.4828
  933MOL0     H25936   6.088   4.621   4.709  1.5785  2.6010 -0.7018
  933MOL0     H25937   5.296   4.692   5.097 -0.8331 -0.2010 -0.5567
  933MOL0     H25938   5.105   4.570   5.176  2.6169 -0.3081 -2.0990
  933MOL0     H25939   4.753   4.406   5.206 -0.9979  1.1916 -0.1763
  933MOL0     H25940   4.525   4.290   5.252 -0.4571  0.1529 -0.0956
  933MOL0     H25941   3.844   3.995   4.756 -1.1466  1.3842 -1.8777
  933MOL0     H25942   3.605   4.057   4.772 -0.2348  2.2124 -0.1373
  933MOL0     H25943   3.216   4.101   5.108  0.6465 -0.6970 -2.7667
  933MOL0     H25944   2.988   4.175   5.110 -0.0405  1.7152  1.8359
  933MOL0     H25945   2.791   4.219   4.986  0.7246  0.2769 -0.1599
  933MOL0     H25946   2.797   4.296   5.153 -1.9598  3.7673  1.3783
  933MOL0     H25947   2.634   4.478   5.081  0.3039 -0.0893  0.4788
  933MOL0     H25948   2.574   4.310   5.104  2.2523 -0.2887  2.1560
  933MOL0     H25949   2.630   4.289   4.852 -0.8237 -0.6129  1.4607
  933MOL0     H25950   2.684   4.461   4.860  2.2983 -1.2625  1.5687
  933MOL0     H25951   2.429   4.500   4.901  0.3230 -0.1069  0.4836
  933MOL0     H25952   2.409   4.321   4.908  0.7830  1.6660  4.5771
  933MOL0     H25953   2.409   4.378   4.487 -0.3474  1.0686 -0.4650
  933MOL0     H25954   3.083   4.526   4.902 -2.3264 -0.2926  2.2769
  933MOL0     H25955   3.330   4.458   4.903 -1.1370  1.6767  0.5151
  934MOL0     O25956   0.062   4.483   4.374 -0.4444  0.2545 -0.2895
  934MOL0     C25957   0.111   4.455   4.260  0.2541 -0.6471 -0.8955
  934MOL0     O25958   0.097   4.529   4.144  0.2944 -0.4929 -0.4321
  934MOL0     C25959   0.008   4.633   4.144 -0.3946 -0.8770 -0.2122
  934MOL0     C25960  -0.095   4.648   4.051  0.6793  0.4549 -0.0542
  934MOL0     C25961  -0.193   4.738   4.065 -0.3281 -0.8382  0.3274
  934MOL0     C25962  -0.204   4.825   4.176 -0.2727 -0.1142 -0.6653
  934MOL0     O25963  -0.291   4.925   4.197 -0.0519  0.4224  0.3667
  934MOL0     C25964  -0.424   4.870   4.199  0.8451  0.9954 -0.6869
  934MOL0     C25965  -0.528   4.983   4.205 -0.6946  0.8246 -0.1018
  934MOL0     C25966  -0.528   5.039   4.347 -0.4519 -0.1035 -0.2841
  934MOL0     C25967  -0.587   5.176   4.359 -0.7631 -0.3098 -1.6050
  934MOL0     C25968  -0.575   5.228   4.504  0.0091 -0.0564  0.3137
  934MOL0     C25969  -0.645   5.368   4.504  0.3339  0.2752 -0.4811
  934MOL0     C25970  -0.660   5.422   4.651  0.3967  0.3728  0.2089
  934MOL0     C25971  -0.712   5.559   4.672  1.1135  0.2457  0.0851
  934MOL0     N25972  -0.629   5.652   4.600  0.1986 -0.1278  0.5694
  934MOL0     C25973  -0.547   5.744   4.665 -0.0292  0.4058 -0.7732
  934MOL0     C25974  -0.499   5.830   4.574 -0.6065  1.1066 -0.0785
  934MOL0     C25975  -0.421   5.950   4.597 -0.2572 -0.0239 -0.4907
  934MOL0     C25976  -0.464   6.065   4.683  0.9186  1.0053 -0.3794
  934MOL0     C25977  -0.359   6.166   4.716 -0.2895 -0.0078 -0.0753
  934MOL0     C25978  -0.363   6.283   4.611 -1.0868 -1.1462 -0.0750
  934MOL0     O25979  -0.277   6.394   4.661 -0.6003  1.0218 -1.1851
  934MOL0     C25980  -0.243   6.498   4.568 -0.0433 -0.4730  0.1310
  934MOL0     C25981  -0.322   6.538   4.464  0.3076 -0.5104 -0.2519
  934MOL0     C25982  -0.293   6.640   4.378  0.4996 -0.2939  0.3016
  934MOL0     C25983  -0.400   6.685   4.281 -0.2724  0.2228  0.6780
  934MOL0     C25984  -0.169   6.712   4.400  0.9731 -0.0666 -0.0327
  934MOL0     C25985  -0.137   6.842   4.331 -0.1246  0.0563 -0.3541
  934MOL0     O25986  -0.028   6.900   4.387 -0.0528 -0.4685  0.7674
  934MOL0     C25987  -0.013   7.031   4.363  0.2915 -0.4761  0.3265
  934MOL0     C25988   0.062   7.076   4.252  0.2125  0.7712 -1.0160
  934MOL0     C25989   0.091   7.214   4.244  0.8025 -0.9295  0.9133
  934MOL0     C25990   0.049   7.298   4.356  0.1451  1.3180  0.9870
  934MOL0     O25991   0.089   7.426   4.386 -0.1526 -0.4409 -0.7328
  934MOL0     C25992   0.161   7.495   4.282  0.3556 -0.9551  0.1543
  934MOL0     C25993   0.054   7.564   4.197 -0.3522 -0.5171  0.1745
  934MOL0     C25994   0.013   7.695   4.254 -0.5016  0.2998 -0.5076
  934MOL0     C25995  -0.110   7.730   4.170  0.0282  0.4916  0.0489
  934MOL0     C25996  -0.186   7.851   4.224 -0.0711 -0.3726  0.6035
  934MOL0     C25997  -0.106   7.976   4.221  0.9853 -0.8966  0.1985
  934MOL0     C25998  -0.184   8.091   4.294  1.4076  0.1884  0.4802
  934MOL0     C25999  -0.090   8.205   4.324 -0.2190  0.2308 -0.4601
  934MOL0    Cl26000   0.022   8.181   4.466 -0.0500 -0.1063 -0.1520
  934MOL0     C26001  -0.030   7.244   4.457 -0.2834  0.2035 -0.3009
  934MOL0     C26002  -0.066   7.113   4.460 -0.5358  0.0378 -0.3964
  934MOL0     O26003  -0.210   6.892   4.249 -0.0793  0.1855  0.4758
  934MOL0     C26004  -0.080   6.672   4.500 -0.1692  0.4915  0.0174
  934MOL0     C26005  -0.117   6.563   4.586 -0.3942  0.9610  1.0504
  934MOL0     N26006  -0.560   5.799   4.454 -0.5036  0.1736 -0.1929
  934MOL0     N26007  -0.632   5.699   4.468  0.0640  0.3518 -0.2759
  934MOL0     C26008  -0.092   4.819   4.269 -0.3105  0.2056  0.6400
  934MOL0     C26009   0.012   4.727   4.247  0.3205  0.5747  0.2334
  934MOL0     C26010   0.176   4.328   4.246  0.6819 -0.4288 -0.2337
  934MOL0     C26011   0.262   4.303   4.138 -0.4437 -0.9618 -0.2665
  934MOL0     C26012   0.321   4.180   4.115 -0.4091 -0.1667  0.2766
  934MOL0     C26013   0.291   4.073   4.200 -0.0061  0.4411 -0.5012
  934MOL0     O26014   0.336   3.944   4.181 -0.1918 -0.2392  0.3265
  934MOL0     C26015   0.331   3.908   4.041  0.2816 -0.2402  0.2314
  934MOL0     C26016   0.344   3.750   4.035  0.5513 -0.6428  0.5896
  934MOL0     C26017   0.232   3.664   4.088 -0.3614  0.6746  0.6334
  934MOL0     C26018   0.093   3.682   4.026 -0.4762 -0.2392  0.1707
  934MOL0     C26019   0.080   3.651   3.879 -0.4011 -0.0299  0.3079
  934MOL0     C26020   0.064   3.625   3.757  0.2438  0.4830  0.4177
  934MOL0     C26021   0.209   4.091   4.318  0.7403 -0.1003  0.3435
  934MOL0     C26022   0.145   4.214   4.330  1.2870  0.5850 -0.6594
  934MOL0     H26023  -0.097   4.559   3.989  2.2242 -0.1318  0.6712
  934MOL0     H26024  -0.268   4.720   3.990 -1.5327 -0.3731  1.3869
  934MOL0     H26025  -0.450   4.817   4.107  0.0133  1.3880 -0.6893
  934MOL0     H26026  -0.435   4.807   4.288 -1.7719 -1.2876 -2.4538
  934MOL0     H26027  -0.518   5.060   4.129  0.7858  0.9949  0.2346
  934MOL0     H26028  -0.624   4.935   4.184 -0.0850 -0.3112 -0.4170
  934MOL0     H26029  -0.572   4.964   4.414  0.9359 -0.8044 -0.1078
  934MOL0     H26030  -0.427   5.053   4.388 -0.3996  1.4105 -0.8831
  934MOL0     H26031  -0.519   5.245   4.309  1.3648 -0.5118  0.7918
  934MOL0     H26032  -0.691   5.191   4.330 -2.6070  0.2814  4.0382
  934MOL0     H26033  -0.625   5.151   4.564 -1.0969 -0.3594 -0.9543
  934MOL0     H26034  -0.469   5.234   4.528 -0.2777  0.0835  1.6008
  934MOL0     H26035  -0.592   5.434   4.435  1.7804 -0.3265  0.0162
  934MOL0     H26036  -0.749   5.366   4.471  0.2389 -0.9091 -0.1597
  934MOL0     H26037  -0.734   5.356   4.697  4.1680 -3.1106  1.9649
  934MOL0     H26038  -0.573   5.407   4.716 -0.4591  1.1983  1.6024
  934MOL0     H26039  -0.718   5.582   4.779 -3.3586 -2.8934  0.7758
  934MOL0     H26040  -0.813   5.566   4.631  0.7171  4.9534  1.2605
  934MOL0     H26041  -0.529   5.750   4.772 -2.6460  4.3390 -0.3217
  934MOL0     H26042  -0.320   5.928   4.632 -1.0306 -0.9009  1.3111
  934MOL0     H26043  -0.410   5.999   4.500  3.0570 -0.0804 -0.2459
  934MOL0     H26044  -0.519   6.025   4.769  2.1633 -1.0529 -0.4638
  934MOL0     H26045  -0.535   6.116   4.618 -0.2406 -1.3842 -1.1251
  934MOL0     H26046  -0.256   6.130   4.715 -0.2916 -0.0404  0.6383
  934MOL0     H26047  -0.376   6.207   4.816 -1.4795 -1.1583  0.2217
  934MOL0     H26048  -0.461   6.326   4.588  1.1392  2.4267 -4.4310
  934MOL0     H26049  -0.327   6.260   4.510 -1.4703  2.4760 -1.1836
  934MOL0     H26050  -0.422   6.496   4.451  0.2189 -0.6265  0.7460
  934MOL0     H26051  -0.426   6.790   4.294  0.5955  0.4980  0.2760
  934MOL0     H26052  -0.364   6.666   4.179 -0.7329 -0.2845  0.6079
  934MOL0     H26053  -0.494   6.630   4.291  0.3895 -0.6719  2.3279
  934MOL0     H26054   0.099   7.006   4.178  0.6966  1.2227 -1.2024
  934MOL0     H26055   0.146   7.257   4.161 -3.3475  0.0304 -1.6550
  934MOL0     H26056   0.223   7.576   4.322  0.4368 -1.2038  0.5359
  934MOL0     H26057   0.234   7.430   4.233 -1.7837 -0.9333 -3.3979
  934MOL0     H26058   0.104   7.580   4.100 -0.7839 -0.4481 -0.0375
  934MOL0     H26059  -0.027   7.492   4.186 -0.8692  0.0259  0.3827
  934MOL0     H26060   0.093   7.770   4.254 -1.6300  1.6417 -3.0820
  934MOL0     H26061  -0.008   7.694   4.362  1.0515  2.2790 -0.1217
  934MOL0     H26062  -0.078   7.761   4.071 -1.9123 -1.6484 -1.3682
  934MOL0     H26063  -0.170   7.638   4.168  1.0071 -0.1600 -1.7814
  934MOL0     H26064  -0.222   7.831   4.325  0.4390 -1.3879  0.5923
  934MOL0     H26065  -0.273   7.866   4.160  0.4317 -1.9987 -0.5202
  934MOL0     H26066  -0.007   7.972   4.267  0.2154 -2.1335  1.8596
  934MOL0     H26067  -0.094   8.006   4.116 -2.6609  0.2490 -0.0509
  934MOL0     H26068  -0.223   8.062   4.392  2.9815  2.6679  1.9664
  934MOL0     H26069  -0.263   8.128   4.228 -0.3593 -3.6301  0.2201
  934MOL0     H26070  -0.156   8.290   4.339 -2.3976 -1.0506 -2.1313
  934MOL0     H26071  -0.019   8.224   4.243 -0.8659 -0.6352 -1.2530
  934MOL0     H26072  -0.058   7.311   4.537  3.3684 -0.0456  1.3698
  934MOL0     H26073  -0.123   7.099   4.550  1.2518  0.9473  0.9537
  934MOL0     H26074   0.016   6.718   4.517 -0.5460  0.3179  3.3256
  934MOL0     H26075  -0.050   6.532   4.666  3.6578  1.0550 -1.9622
  934MOL0     H26076  -0.101   4.888   4.352  3.2630  3.9722 -1.7249
  934MOL0     H26077   0.085   4.739   4.327  1.3647  4.4394 -1.0425
  934MOL0     H26078   0.296   4.386   4.078 -0.2896  0.6279  1.8993
  934MOL0     H26079   0.376   4.172   4.022 -1.3607  1.2847 -0.4606
  934MOL0     H26080   0.236   3.944   4.001 -0.2100 -0.9253  0.7586
  934MOL0     H26081   0.417   3.942   3.982  0.7495 -2.8752 -0.7747
  934MOL0     H26082   0.432   3.714   4.090  1.9468 -1.1466 -1.7998
  934MOL0     H26083   0.355   3.720   3.930 -0.5280  1.0587 -0.0395
  934MOL0     H26084   0.213   3.645   4.194 -0.9992  1.2467  0.6309
  934MOL0     H26085   0.268   3.565   4.056  0.6559  0.6021  1.9260
  934MOL0     H26086   0.045   3.779   4.040 -2.9794 -1.2353 -0.9113
  934MOL0     H26087   0.020   3.616   4.074 -0.8669 -0.0749 -0.1981
  934MOL0     H26088   0.050   3.605   3.653  0.2634 -2.4602  0.8957
  934MOL0     H26089   0.208   4.006   4.385 -0.4125  1.6609  2.7106
  934MOL0     H26090   0.078   4.221   4.415  0.8825  0.0887 -0.9277
  935MOL0     O26091   3.940  10.002   8.657  0.5487 -0.7701  0.1122
  935MOL0     C26092   3.905   9.883   8.664 -0.0610 -0.5149 -0.3803
  935MOL0     O26093   3.973   9.767   8.619 -0.3506  0.5574 -1.0936
  935MOL0     C26094   4.093   9.771   8.551 -0.6612  1.0036 -0.1412
  935MOL0     C26095   4.157   9.650   8.517  0.1842  0.2479 -0.5396
  935MOL0     C26096   4.274   9.651   8.436  0.3096 -0.4187 -0.6754
  935MOL0     C26097   4.344   9.769   8.403  0.7432 -0.0993 -0.7925
  935MOL0     O26098   4.453   9.784   8.317 -0.2172 -0.5816 -0.3316
  935MOL0     C26099   4.494   9.670   8.242 -0.2443  0.2340 -0.0173
  935MOL0     C26100   4.606   9.698   8.139  1.0454  0.0207  0.7688
  935MOL0     C26101   4.586   9.843   8.067 -0.1520  0.4560 -0.0795
  935MOL0     C26102   4.678   9.849   7.955 -0.0069 -0.2174  0.3098
  935MOL0     C26103   4.712   9.991   7.905  0.1248  0.3822  0.6424
  935MOL0     C26104   4.797   9.973   7.770 -0.1824  0.4216  0.4879
  935MOL0     C26105   4.843  10.112   7.713 -0.3190 -0.2641  0.3288
  935MOL0     C26106   4.967  10.169   7.784 -0.2898  0.0428 -0.2386
  935MOL0     N26107   5.039  10.275   7.711  0.4083 -0.2476  0.1143
  935MOL0     C26108   4.986  10.395   7.679  0.5908  0.1064 -0.2092
  935MOL0     C26109   5.094  10.465   7.622 -0.3169  1.1679 -0.2926
  935MOL0     C26110   5.093  10.607   7.576  0.0126 -0.6418 -0.7028
  935MOL0     C26111   5.229  10.683   7.603 -0.1993 -1.0038 -0.3027
  935MOL0     C26112   5.339  10.671   7.488  0.4409  0.0327 -0.6738
  935MOL0     C26113   5.479  10.709   7.536  0.7718  0.3143  0.3649
  935MOL0     O26114   5.503  10.613   7.637  0.2007 -0.1946  0.3601
  935MOL0     C26115   5.622  10.641   7.711  0.3637  0.1748  1.0136
  935MOL0     C26116   5.651  10.579   7.828 -0.7278  0.5707 -0.4286
  935MOL0     C26117   5.763  10.595   7.905  0.2838 -0.1934 -0.4581
  935MOL0     C26118   5.801  10.495   8.010 -0.4023 -0.1459 -0.1246
  935MOL0     C26119   5.851  10.703   7.875  0.2438  0.2773  0.0033
  935MOL0     C26120   5.969  10.739   7.957 -0.2315  0.1237  0.1388
  935MOL0     O26121   6.010  10.676   8.075  0.1748 -0.5551 -0.3640
  935MOL0     C26122   6.134  10.718   8.126  0.0272  0.7220  0.8671
  935MOL0     C26123   6.154  10.848   8.173 -0.9063 -1.3128  0.0023
  935MOL0     C26124   6.279  10.879   8.226 -0.6048  0.3675 -0.1348
  935MOL0     C26125   6.383  10.791   8.240  0.2020 -1.4243 -0.2757
  935MOL0     O26126   6.503  10.822   8.298 -0.1934  0.4486 -0.7155
  935MOL0     C26127   6.509  10.935   8.376 -0.8224 -0.1858  0.1570
  935MOL0     C26128   6.652  10.947   8.417 -0.4197 -0.2861 -0.3110
  935MOL0     C26129   6.760  10.957   8.303  1.1053 -0.3172  0.1368
  935MOL0     C26130   6.875  11.057   8.321 -0.7235 -1.0979  0.5287
  935MOL0     C26131   6.962  11.074   8.193  0.1266  0.3751  0.9844
  935MOL0     C26132   7.061  10.958   8.191  0.6001 -0.1889  0.0204
  935MOL0     C26133   7.122  10.945   8.053  0.3434  0.6530 -0.0045
  935MOL0     C26134   7.237  10.845   8.070 -0.7843 -0.7237 -0.1171
  935MOL0    Cl26135   7.341  10.834   7.915  0.4602 -0.0949 -0.2221
  935MOL0     C26136   6.355  10.661   8.215 -0.3672  1.0371 -0.8140
  935MOL0     C26137   6.230  10.618   8.158 -0.3772  0.4487 -0.6323
  935MOL0     O26138   6.029  10.835   7.907 -0.6560  0.0032 -0.1358
  935MOL0     C26139   5.828  10.767   7.753  0.4107 -0.7631 -1.0022
  935MOL0     C26140   5.719  10.733   7.675  0.3995 -0.4257  0.5426
  935MOL0     N26141   5.202  10.383   7.616  0.4291  0.2941  0.2289
  935MOL0     N26142   5.160  10.267   7.660  0.5881  0.6923 -0.1832
  935MOL0     C26143   4.285   9.887   8.440 -0.4082  0.2363 -0.3665
  935MOL0     C26144   4.157   9.884   8.507 -0.2614 -0.5043  0.1295
  935MOL0     C26145   3.775   9.869   8.727 -0.0374 -0.6012 -0.3519
  935MOL0     C26146   3.729   9.951   8.831  0.0264  0.0455  0.7590
  935MOL0     C26147   3.606   9.916   8.890 -0.2720 -0.0263  0.1720
  935MOL0     C26148   3.532   9.799   8.865 -0.3584  0.4024  0.1436
  935MOL0     O26149   3.418   9.763   8.923  0.2329 -0.2015 -0.2274
  935MOL0     C26150   3.380   9.835   9.043 -0.0935  0.5096 -0.6802
  935MOL0     C26151   3.449   9.776   9.171  0.5339 -0.0759  0.8499
  935MOL0     C26152   3.404   9.828   9.311  0.0746  0.0893 -0.8408
  935MOL0     C26153   3.261   9.869   9.325  1.1239  0.1084  0.0666
  935MOL0     C26154   3.240   9.995   9.268 -0.3833 -0.5680  0.5041
  935MOL0     C26155   3.215  10.106   9.230 -0.5096 -0.6295  0.1382
  935MOL0     C26156   3.581   9.718   8.770 -0.4117  0.9834  0.5072
  935MOL0     C26157   3.697   9.752   8.699 -0.5301 -0.2872  0.6558
  935MOL0     H26158   4.105   9.559   8.543 -2.8413  1.7171 -0.9559
  935MOL0     H26159   4.312   9.554   8.404 -0.6766 -0.8782 -0.4835
  935MOL0     H26160   4.547   9.596   8.303  1.3709  0.2322 -1.3446
  935MOL0     H26161   4.406   9.624   8.195  0.2701  0.3642 -1.1484
  935MOL0     H26162   4.701   9.696   8.192  0.9703  0.4438  0.9237
  935MOL0     H26163   4.598   9.627   8.055  2.0716  2.4908 -1.5635
  935MOL0     H26164   4.483   9.854   8.030 -0.0099  0.3848 -0.5007
  935MOL0     H26165   4.597   9.920   8.144 -1.4604  0.6393 -0.0416
  935MOL0     H26166   4.772   9.797   7.978  0.4965 -0.0115 -1.1737
  935MOL0     H26167   4.632   9.791   7.875  1.1157 -0.4110 -0.2134
  935MOL0     H26168   4.616  10.042   7.894 -1.9879 -3.1267  1.0988
  935MOL0     H26169   4.765  10.045   7.984  3.4405 -2.1217  0.3340
  935MOL0     H26170   4.888   9.915   7.786 -1.0392 -0.7520  1.3470
  935MOL0     H26171   4.741   9.923   7.690  3.5179 -1.9883 -0.8262
  935MOL0     H26172   4.864  10.094   7.607 -0.9912 -0.2475  0.1935
  935MOL0     H26173   4.768  10.191   7.722  2.0979  2.0580  1.7390
  935MOL0     H26174   5.037  10.087   7.803 -0.0973  0.2858  0.0934
  935MOL0     H26175   4.942  10.210   7.882  1.2741  0.4372  0.0174
  935MOL0     H26176   4.883  10.425   7.698 -0.3556 -1.1741 -2.7497
  935MOL0     H26177   5.059  10.613   7.473 -2.2110 -0.9459 -0.0321
  935MOL0     H26178   5.010  10.652   7.631  0.5991 -0.0002 -0.3268
  935MOL0     H26179   5.267  10.653   7.702 -2.0644  1.0465  1.1138
  935MOL0     H26180   5.206  10.790   7.605 -0.1383 -0.9918  1.1277
  935MOL0     H26181   5.307  10.723   7.397  0.0062 -2.0245 -1.7605
  935MOL0     H26182   5.336  10.565   7.461  1.7905 -0.2841  0.2894
  935MOL0     H26183   5.494  10.813   7.566 -0.7728  0.7374 -0.2339
  935MOL0     H26184   5.550  10.683   7.457  1.1935  1.0571  0.4881
  935MOL0     H26185   5.586  10.500   7.864 -1.2730  0.9141 -0.6316
  935MOL0     H26186   5.812  10.560   8.097  2.4970  0.3583 -0.7550
  935MOL0     H26187   5.727  10.422   8.042 -1.4806  2.3147  3.6198
  935MOL0     H26188   5.892  10.441   7.982 -1.1734 -1.0086 -1.0582
  935MOL0     H26189   6.072  10.915   8.148  0.4029  0.2955 -0.1651
  935MOL0     H26190   6.286  10.981   8.260  1.0413  0.3326 -0.2949
  935MOL0     H26191   6.479  11.023   8.318  0.6520  0.7865  0.8024
  935MOL0     H26192   6.451  10.927   8.468 -0.3878  0.0332  0.4533
  935MOL0     H26193   6.650  11.031   8.487 -1.1158  0.5255 -1.2775
  935MOL0     H26194   6.688  10.858   8.469  1.7055  1.3692  1.2841
  935MOL0     H26195   6.693  10.987   8.222 -0.0817 -2.5788  0.1972
  935MOL0     H26196   6.801  10.856   8.287  0.1811 -0.6321 -0.2759
  935MOL0     H26197   6.826  11.152   8.344  0.0708 -0.5649  0.0607
  935MOL0     H26198   6.939  11.020   8.402 -0.6336  0.2000  1.0696
  935MOL0     H26199   7.020  11.167   8.194  3.1510 -1.2616 -1.6967
  935MOL0     H26200   6.909  11.079   8.097  2.5440  2.9170 -0.3717
  935MOL0     H26201   7.141  10.971   8.264  1.3014  1.4832 -1.0060
  935MOL0     H26202   7.015  10.861   8.216 -2.2473  0.6826 -1.4458
  935MOL0     H26203   7.155  11.040   8.010 -2.6479  1.0166 -1.7791
  935MOL0     H26204   7.048  10.904   7.985  1.4295 -0.8076 -0.3651
  935MOL0     H26205   7.205  10.747   8.109  0.3454 -0.5106  1.4364
  935MOL0     H26206   7.303  10.882   8.149 -2.2842  2.3229 -0.1662
  935MOL0     H26207   6.428  10.589   8.249 -1.0574  1.8138  2.7459
  935MOL0     H26208   6.210  10.512   8.147 -0.6876  0.4556 -0.1472
  935MOL0     H26209   5.896  10.848   7.728 -2.6546  2.0536 -0.8572
  935MOL0     H26210   5.717  10.792   7.585  1.9972 -2.5751 -1.0119
  935MOL0     H26211   4.339   9.979   8.422  1.2194 -0.0629  2.3143
  935MOL0     H26212   4.106   9.979   8.509  1.8244  0.6723  1.0409
  935MOL0     H26213   3.782  10.032   8.881 -1.8093  1.2979  0.8064
  935MOL0     H26214   3.576   9.984   8.970  3.8805  2.1059  0.2108
  935MOL0     H26215   3.409   9.940   9.050  1.2007  0.0955  0.5765
  935MOL0     H26216   3.271   9.827   9.048 -0.2242  2.5679  1.2791
  935MOL0     H26217   3.554   9.805   9.159  0.3686  0.1321 -0.1440
  935MOL0     H26218   3.435   9.667   9.168 -0.5813  0.0515 -1.7583
  935MOL0     H26219   3.462   9.915   9.343 -0.4883 -0.0995  0.7852
  935MOL0     H26220   3.431   9.752   9.384  2.1990  2.4760  1.0487
  935MOL0     H26221   3.226   9.866   9.429  2.9143  3.2136  0.8834
  935MOL0     H26222   3.196   9.800   9.270 -0.1718  2.5247 -1.6173
  935MOL0     H26223   3.207  10.209   9.200  4.0003 -0.0750  0.2418
  935MOL0     H26224   3.537   9.621   8.749 -0.5970  1.2121 -0.1819
  935MOL0     H26225   3.726   9.682   8.621 -1.3920  0.3257 -0.2364
  936MOL0     O26226   0.380   7.943   8.072  0.2968  0.0301 -0.4267
  936MOL0     C26227   0.467   7.929   7.991 -0.0474 -0.8699  0.1259
  936MOL0     O26228   0.511   7.809   7.935  0.4637  0.0119  0.2717
  936MOL0     C26229   0.453   7.692   7.969 -0.1306  0.5286 -0.0324
  936MOL0     C26230   0.324   7.667   8.016 -0.5714 -0.6774  0.3150
  936MOL0     C26231   0.293   7.535   8.048  1.8536  0.2689 -0.0572
  936MOL0     C26232   0.393   7.429   8.048  1.0951  0.3423 -0.1535
  936MOL0     O26233   0.367   7.302   8.065 -0.7736  0.1968 -0.3101
  936MOL0     C26234   0.259   7.245   7.996  0.6015 -0.3874  0.4838
  936MOL0     C26235   0.324   7.123   7.930 -0.2083  0.8381 -0.0668
  936MOL0     C26236   0.405   7.157   7.806  0.2258  0.4109 -0.3889
  936MOL0     C26237   0.552   7.121   7.838 -0.0958 -0.5472  1.1543
  936MOL0     C26238   0.642   7.159   7.722 -0.6547 -0.4068  1.0415
  936MOL0     C26239   0.787   7.114   7.737 -0.6435  0.3356 -0.2013
  936MOL0     C26240   0.864   7.218   7.822  0.7187 -0.1303  0.3890
  936MOL0     C26241   1.011   7.182   7.845 -0.3597 -0.0564  0.6246
  936MOL0     N26242   1.034   7.079   7.942 -0.5872 -0.1243  0.0147
  936MOL0     C26243   0.939   7.036   8.029 -0.4330  0.1491  0.3079
  936MOL0     C26244   0.998   6.976   8.133  0.2699 -1.5490 -0.1156
  936MOL0     C26245   0.935   6.931   8.257 -0.3826  0.1791  0.2266
  936MOL0     C26246   0.949   6.788   8.267  0.1909  1.2383 -0.8571
  936MOL0     C26247   0.955   6.722   8.417 -0.9868 -1.0322  0.1702
  936MOL0     C26248   1.041   6.810   8.511  0.6466 -0.0994 -0.2823
  936MOL0     O26249   1.172   6.843   8.465  0.5702 -0.0751  0.2734
  936MOL0     C26250   1.259   6.734   8.458  0.4093 -0.8670 -0.0246
  936MOL0     C26251   1.310   6.691   8.335  0.2243  0.4683  1.0201
  936MOL0     C26252   1.375   6.571   8.327 -0.1821 -0.8191 -0.3074
  936MOL0     C26253   1.429   6.523   8.199  0.1743  0.2209  0.4461
  936MOL0     C26254   1.402   6.498   8.442  0.1393 -0.0112 -0.2144
  936MOL0     C26255   1.480   6.371   8.444 -0.1625 -0.6801 -0.5791
  936MOL0     O26256   1.564   6.361   8.555  0.4887 -0.4047 -0.0692
  936MOL0     C26257   1.626   6.243   8.570  0.3590 -0.1923 -0.0646
  936MOL0     C26258   1.745   6.210   8.508  0.0180 -0.4419 -0.3201
  936MOL0     C26259   1.820   6.097   8.542 -0.2505 -0.2006  0.2472
  936MOL0     C26260   1.774   6.006   8.629  0.7558 -0.3741 -0.8369
  936MOL0     O26261   1.838   5.890   8.677  0.6655  0.4453  0.2388
  936MOL0     C26262   1.957   5.840   8.622 -0.4133  0.3817  0.0235
  936MOL0     C26263   1.984   5.689   8.639 -0.1178 -0.8597 -0.3072
  936MOL0     C26264   1.962   5.651   8.784  0.4488  0.8378  0.6762
  936MOL0     C26265   2.009   5.510   8.823  0.6377  0.6764 -0.6240
  936MOL0     C26266   1.981   5.490   8.977  0.0314  0.0229 -0.0973
  936MOL0     C26267   2.006   5.336   9.023  0.2958  1.1440 -0.8316
  936MOL0     C26268   2.004   5.333   9.181  0.2507  0.2574  0.4210
  936MOL0     C26269   1.970   5.184   9.212  0.2434 -0.1775  1.2257
  936MOL0    Cl26270   2.024   5.138   9.369 -0.0594 -0.0901 -0.1285
  936MOL0     C26271   1.652   6.028   8.695 -0.7514  0.1140  0.4928
  936MOL0     C26272   1.579   6.146   8.663 -0.1160  0.3539 -0.2701
  936MOL0     O26273   1.466   6.287   8.359  0.1364  0.6496  0.5580
  936MOL0     C26274   1.368   6.548   8.567  0.2294  0.4468  0.6942
  936MOL0     C26275   1.297   6.664   8.571  0.0447 -1.1095 -0.0209
  936MOL0     N26276   1.133   6.978   8.114  0.5913 -0.1756  0.1882
  936MOL0     N26277   1.154   7.050   8.006 -0.5122 -0.3144  0.3969
  936MOL0     C26278   0.520   7.461   8.019  0.4223  0.0553  0.6444
  936MOL0     C26279   0.553   7.592   7.970  0.0439  0.8609  0.0359
  936MOL0     C26280   0.532   8.048   7.935 -0.0888  0.4108  0.3595
  936MOL0     C26281   0.639   8.049   7.839 -0.1408 -0.4629 -0.6857
  936MOL0     C26282   0.704   8.164   7.790  1.1841  0.9002  0.8417
  936MOL0     C26283   0.672   8.293   7.850 -0.8631 -0.5609 -0.1284
  936MOL0     O26284   0.733   8.410   7.820 -0.2647 -0.1051 -0.6598
  936MOL0     C26285   0.870   8.401   7.765  0.5027 -0.5264 -1.1852
  936MOL0     C26286   0.962   8.525   7.810  0.3324  0.5141 -0.9705
  936MOL0     C26287   0.963   8.521   7.954  0.0604 -0.0474 -0.2619
  936MOL0     C26288   1.076   8.606   8.017 -0.5812 -0.1178 -0.3255
  936MOL0     C26289   1.207   8.535   8.011 -0.9562 -0.3225 -0.1059
  936MOL0     C26290   1.316   8.475   8.013  0.7090 -0.2312  0.7250
  936MOL0     C26291   0.571   8.292   7.936  0.0825  0.2333 -0.4191
  936MOL0     C26292   0.509   8.181   7.986 -0.1462  0.7145 -1.0027
  936MOL0     H26293   0.249   7.746   8.020 -1.3755 -1.2353 -1.9594
  936MOL0     H26294   0.191   7.518   8.082  2.7447 -2.3027  1.6401
  936MOL0     H26295   0.189   7.211   8.073  0.8288  0.3391  1.0145
  936MOL0     H26296   0.208   7.318   7.933  1.1016  2.6369  3.3329
  936MOL0     H26297   0.395   7.080   8.001 -0.5448  1.7930  0.8519
  936MOL0     H26298   0.258   7.040   7.904  1.4642 -0.6649  0.2375
  936MOL0     H26299   0.375   7.098   7.719  2.6132  0.0270 -1.0470
  936MOL0     H26300   0.407   7.266   7.793  5.1645  0.4849 -1.0016
  936MOL0     H26301   0.581   7.166   7.933  0.8989 -2.6302  1.9006
  936MOL0     H26302   0.561   7.013   7.853  2.5030 -0.7283 -0.8663
  936MOL0     H26303   0.602   7.122   7.627  0.5327  1.1734 -0.1194
  936MOL0     H26304   0.632   7.267   7.712 -1.0699 -0.5937 -1.0309
  936MOL0     H26305   0.785   7.020   7.794 -0.5977  0.0640 -0.6430
  936MOL0     H26306   0.838   7.087   7.644 -2.0334 -1.8660 -0.3954
  936MOL0     H26307   0.864   7.309   7.761  0.4787  0.5337  1.3630
  936MOL0     H26308   0.812   7.240   7.915 -1.4540  1.4982 -1.1275
  936MOL0     H26309   1.077   7.266   7.867  3.1533 -2.2188 -0.8801
  936MOL0     H26310   1.030   7.129   7.752  1.0116  1.0276  0.2594
  936MOL0     H26311   0.833   7.053   8.011 -0.0100 -0.5654 -3.7194
  936MOL0     H26312   0.998   6.979   8.332 -0.9052  1.6437 -0.2460
  936MOL0     H26313   0.835   6.970   8.275  0.5899  1.5287  3.4238
  936MOL0     H26314   1.040   6.758   8.214 -0.1621 -0.9574 -0.3012
  936MOL0     H26315   0.863   6.743   8.216 -0.3490  0.2213  0.8850
  936MOL0     H26316   0.996   6.620   8.414 -1.5736 -1.4193  2.6869
  936MOL0     H26317   0.857   6.700   8.461  0.0489 -0.4255  3.0016
  936MOL0     H26318   1.040   6.774   8.615  2.2542  0.9809  0.1484
  936MOL0     H26319   0.994   6.908   8.515  3.3837  1.2708  1.2467
  936MOL0     H26320   1.275   6.743   8.246 -3.7703  0.0240  2.1317
  936MOL0     H26321   1.369   6.445   8.151  0.0319  1.0505 -0.7581
  936MOL0     H26322   1.422   6.603   8.125  1.1422 -1.5818 -1.7110
  936MOL0     H26323   1.530   6.483   8.209  0.6158  0.7277 -1.6380
  936MOL0     H26324   1.782   6.286   8.440  1.1700 -2.2768 -1.8386
  936MOL0     H26325   1.919   6.086   8.499 -1.6527  0.1789 -3.3941
  936MOL0     H26326   1.955   5.877   8.518 -1.4441  2.1381  0.6143
  936MOL0     H26327   2.050   5.879   8.664  1.2376 -2.0697 -1.1442
  936MOL0     H26328   1.919   5.626   8.577 -1.4695  0.7062 -0.5624
  936MOL0     H26329   2.086   5.662   8.609  0.8552 -0.0505  2.0628
  936MOL0     H26330   1.857   5.658   8.815  0.9918  3.6440  2.2142
  936MOL0     H26331   2.014   5.720   8.852 -0.0761 -0.0254  1.9919
  936MOL0     H26332   1.952   5.436   8.766 -1.4348  1.0085  0.8945
  936MOL0     H26333   2.114   5.504   8.795  1.0607 -2.8552  1.2007
  936MOL0     H26334   1.881   5.523   9.007 -0.3026 -0.3908 -0.7440
  936MOL0     H26335   2.056   5.555   9.024 -0.5365  2.5385 -2.4430
  936MOL0     H26336   1.926   5.271   8.988  1.0904 -0.8407  0.8159
  936MOL0     H26337   2.104   5.307   8.983 -1.3838 -2.1869 -2.9949
  936MOL0     H26338   1.925   5.398   9.222 -1.9407  1.0025 -4.3292
  936MOL0     H26339   2.098   5.361   9.229  0.7471 -0.7727  0.0595
  936MOL0     H26340   2.041   5.140   9.141 -0.1361  0.7858  0.2212
  936MOL0     H26341   1.863   5.172   9.195  0.0391  2.5217  0.1256
  936MOL0     H26342   1.625   5.956   8.772 -2.9015  0.0944 -0.2070
  936MOL0     H26343   1.482   6.165   8.706 -0.5720 -0.7383 -0.7801
  936MOL0     H26344   1.393   6.500   8.662  0.1819 -0.5196  0.2322
  936MOL0     H26345   1.263   6.714   8.661  3.1501  1.5951 -0.1547
  936MOL0     H26346   0.596   7.383   8.017  0.4027  0.0244 -1.4576
  936MOL0     H26347   0.655   7.627   7.955  0.0942  0.5880 -0.2662
  936MOL0     H26348   0.665   7.952   7.799  0.3370 -0.4774 -0.3470
  936MOL0     H26349   0.788   8.150   7.724 -1.9943 -1.1306 -3.2269
  936MOL0     H26350   0.928   8.314   7.798 -0.6942 -0.5195  1.1306
  936MOL0     H26351   0.864   8.393   7.656  0.8172 -1.2294 -1.1544
  936MOL0     H26352   0.923   8.619   7.771 -0.4624  0.7426  0.3310
  936MOL0     H26353   1.062   8.508   7.769  2.3207  2.0664  2.7277
  936MOL0     H26354   0.989   8.419   7.984  0.2627  0.6907  2.2792
  936MOL0     H26355   0.863   8.557   7.979  1.2250  1.7840  2.1817
  936MOL0     H26356   1.055   8.632   8.121  3.0190  1.6093  0.1443
  936MOL0     H26357   1.100   8.702   7.969  1.1648  1.2683  2.9472
  936MOL0     H26358   1.407   8.420   8.004  0.1040 -1.2319  0.5736
  936MOL0     H26359   0.546   8.385   7.986 -0.7082  1.2333 -2.5702
  936MOL0     H26360   0.434   8.192   8.064 -1.4642 -2.2873 -1.7011
  937MOL0     O26361   3.431   7.708  10.254  0.5827  0.1633 -0.5294
  937MOL0     C26362   3.329   7.671  10.314 -0.6344 -0.4958 -0.1753
  937MOL0     O26363   3.268   7.738  10.422  0.4920  0.3984  0.2084
  937MOL0     C26364   3.309   7.874  10.452 -0.2219  1.5315 -0.5752
  937MOL0     C26365   3.216   7.975  10.444  1.6563  0.5103  0.6828
  937MOL0     C26366   3.258   8.111  10.461 -0.0542 -0.5940  0.1575
  937MOL0     C26367   3.395   8.137  10.465  0.6137  0.5665  0.6501
  937MOL0     O26368   3.442   8.265  10.453 -0.0595  0.5716  0.2195
  937MOL0     C26369   3.371   8.391  10.448 -0.4327 -0.4173 -0.2896
  937MOL0     C26370   3.334   8.451  10.588 -0.1684 -0.0847 -0.1133
  937MOL0     C26371   3.441   8.433  10.700  0.0876  0.1827  0.0644
  937MOL0     C26372   3.573   8.509  10.667  0.7890 -0.3664 -0.5809
  937MOL0     C26373   3.690   8.491  10.763 -0.6454 -0.1761 -0.5338
  937MOL0     C26374   3.808   8.574  10.729 -0.0946  0.4754 -1.1297
  937MOL0     C26375   3.935   8.526  10.807  1.1543 -0.2071  1.0790
  937MOL0     C26376   4.069   8.579  10.737  0.5169  0.3870 -0.1779
  937MOL0     N26377   4.064   8.721  10.728  0.7856  0.2765 -0.0805
  937MOL0     C26378   4.023   8.796  10.619  0.7258  0.4749 -0.7343
  937MOL0     C26379   3.991   8.917  10.669  0.5186  0.4285 -1.0062
  937MOL0     C26380   3.916   9.034  10.604 -0.0982 -0.3673 -0.1219
  937MOL0     C26381   3.866   9.131  10.707 -0.6023  0.1944  0.4013
  937MOL0     C26382   3.721   9.088  10.765  0.1970 -0.1359  0.5835
  937MOL0     C26383   3.724   8.960  10.850 -0.4097  1.1004 -0.4009
  937MOL0     O26384   3.593   8.929  10.903  0.4751 -0.4134  0.0279
  937MOL0     C26385   3.598   8.874  11.019 -1.0725  0.5021 -0.3188
  937MOL0     C26386   3.674   8.758  11.055  0.6149  0.3359  0.1303
  937MOL0     C26387   3.639   8.690  11.176 -0.3883  0.1451 -0.3174
  937MOL0     C26388   3.740   8.588  11.226  0.0512  0.4560 -0.5534
  937MOL0     C26389   3.527   8.728  11.256  0.1675  0.4344 -0.6780
  937MOL0     C26390   3.493   8.667  11.389 -0.1950  0.3005  0.9762
  937MOL0     O26391   3.405   8.745  11.463  0.2727 -0.5403 -0.5586
  937MOL0     C26392   3.357   8.707  11.580 -0.3666 -0.1561 -0.8273
  937MOL0     C26393   3.293   8.583  11.596  0.9631  0.2600  0.3885
  937MOL0     C26394   3.224   8.540  11.723  0.2272 -0.0084 -0.1260
  937MOL0     C26395   3.237   8.624  11.831 -1.1764 -1.3815 -0.1870
  937MOL0     O26396   3.185   8.587  11.949 -0.0139  0.1886  0.4993
  937MOL0     C26397   3.240   8.642  12.066 -1.3049 -0.0663 -0.7850
  937MOL0     C26398   3.198   8.573  12.196  0.6710 -0.1233  0.5598
  937MOL0     C26399   3.224   8.418  12.182 -0.5800 -0.3936  0.6399
  937MOL0     C26400   3.374   8.370  12.200  0.4830  0.0671 -0.3866
  937MOL0     C26401   3.426   8.402  12.344  0.1454 -0.5858 -0.1630
  937MOL0     C26402   3.534   8.302  12.387  0.6892  1.0537  0.0444
  937MOL0     C26403   3.664   8.347  12.326 -0.3346  0.0335  0.8529
  937MOL0     C26404   3.786   8.251  12.343 -0.3124 -0.2428  0.2706
  937MOL0    Cl26405   3.872   8.287  12.499 -0.2345 -0.3843 -0.3486
  937MOL0     C26406   3.299   8.752  11.809  0.3725 -0.5223  0.1550
  937MOL0     C26407   3.353   8.798  11.688 -0.7940  0.7260  0.1262
  937MOL0     O26408   3.550   8.558  11.426  0.1832 -0.7478 -0.5484
  937MOL0     C26409   3.453   8.837  11.207 -0.9109 -0.5180  0.1308
  937MOL0     C26410   3.486   8.894  11.086 -0.1493  0.1385  0.6354
  937MOL0     N26411   4.023   8.919  10.803 -1.2702  0.0759 -0.3955
  937MOL0     N26412   4.063   8.805  10.832 -0.0076  0.5560 -0.0581
  937MOL0     C26413   3.485   8.025  10.479  0.5548  0.4531 -0.0486
  937MOL0     C26414   3.445   7.897  10.471  1.1773  0.3548 -0.6295
  937MOL0     C26415   3.262   7.538  10.274 -0.4458  0.1215  0.8618
  937MOL0     C26416   3.176   7.465  10.363 -0.0478 -0.1617  0.3192
  937MOL0     C26417   3.121   7.346  10.321  0.0865 -0.0592 -0.0054
  937MOL0     C26418   3.146   7.297  10.195  0.5798 -0.0820 -0.0089
  937MOL0     O26419   3.087   7.182  10.154 -0.6131  0.3781 -1.1605
  937MOL0     C26420   3.162   7.072  10.102 -0.4122 -0.2858 -0.0352
  937MOL0     C26421   3.074   6.947  10.085 -0.5266  0.6849  0.4981
  937MOL0     C26422   3.165   6.820  10.112 -0.3800 -0.4763 -0.1255
  937MOL0     C26423   3.138   6.695  10.034 -0.6274  0.4767 -0.7482
  937MOL0     C26424   3.160   6.732   9.894  0.9856  1.1389  0.2161
  937MOL0     C26425   3.179   6.743   9.768 -0.1065  0.4905 -0.5069
  937MOL0     C26426   3.234   7.358  10.111  0.0754 -0.3544 -0.3214
  937MOL0     C26427   3.299   7.477  10.151  0.5004 -0.5717 -0.0083
  937MOL0     H26428   3.110   7.954  10.450  1.7544 -1.0203 -1.5252
  937MOL0     H26429   3.178   8.185  10.464  0.1326 -0.3982  0.3229
  937MOL0     H26430   3.442   8.456  10.398 -2.7713 -0.3434 -3.8341
  937MOL0     H26431   3.290   8.381  10.376  0.8705  1.2152 -2.0784
  937MOL0     H26432   3.319   8.559  10.583 -0.8570 -0.1108  1.0204
  937MOL0     H26433   3.249   8.395  10.627  0.2336 -1.7003 -1.4686
  937MOL0     H26434   3.418   8.471  10.800  0.4747 -1.2396  0.7093
  937MOL0     H26435   3.452   8.326  10.718 -0.4261  0.1631  0.2759
  937MOL0     H26436   3.600   8.477  10.566 -0.8752 -1.2536 -0.7787
  937MOL0     H26437   3.543   8.614  10.657  1.7478  0.0568  0.7528
  937MOL0     H26438   3.653   8.510  10.864  1.8767 -1.7424  0.7756
  937MOL0     H26439   3.718   8.385  10.766  1.1538  0.2690 -0.0525
  937MOL0     H26440   3.820   8.582  10.620 -1.5706  0.1765 -1.3370
  937MOL0     H26441   3.793   8.671  10.776  1.2967 -0.5319  1.5546
  937MOL0     H26442   3.941   8.567  10.908  4.1857  1.9787  0.1451
  937MOL0     H26443   3.934   8.417  10.813 -2.9804 -0.3875 -0.1760
  937MOL0     H26444   4.079   8.534  10.637  2.6706 -0.9655  0.5869
  937MOL0     H26445   4.157   8.537  10.785 -0.4312 -2.4315 -0.7035
  937MOL0     H26446   3.996   8.758  10.521 -2.7976 -0.0407  0.3141
  937MOL0     H26447   3.987   9.084  10.537 -1.0814 -0.0402 -0.9618
  937MOL0     H26448   3.835   9.002  10.537  0.3440 -0.2975 -0.7002
  937MOL0     H26449   3.853   9.218  10.641 -1.7496 -0.4389 -0.2304
  937MOL0     H26450   3.935   9.159  10.787 -1.0430  3.4691 -0.2291
  937MOL0     H26451   3.656   9.080  10.678  1.5369  3.2306 -0.8970
  937MOL0     H26452   3.695   9.171  10.832 -0.6487 -0.5474  0.7808
  937MOL0     H26453   3.803   8.983  10.922  2.2624  2.8913 -3.6440
  937MOL0     H26454   3.759   8.875  10.791 -0.0385 -2.0090  3.8136
  937MOL0     H26455   3.764   8.733  11.000 -0.4819 -0.6085 -1.3049
  937MOL0     H26456   3.786   8.620  11.320 -1.8602  3.2142 -0.4477
  937MOL0     H26457   3.674   8.502  11.236 -2.9437  2.3152 -2.6044
  937MOL0     H26458   3.816   8.571  11.149  0.3713  1.6672 -0.5199
  937MOL0     H26459   3.284   8.520  11.508 -1.1465 -2.1322  2.1312
  937MOL0     H26460   3.171   8.446  11.733 -1.1192  0.4408 -2.2661
  937MOL0     H26461   3.349   8.636  12.064 -1.1255  2.2202 -0.9473
  937MOL0     H26462   3.210   8.747  12.075  4.7384  1.8403  3.1566
  937MOL0     H26463   3.252   8.609  12.283 -1.0380  0.3733  1.4711
  937MOL0     H26464   3.090   8.591  12.205  0.2611 -1.7718 -0.4858
  937MOL0     H26465   3.197   8.364  12.091  2.0752 -2.5240  0.9978
  937MOL0     H26466   3.165   8.369  12.260 -0.9487 -2.0744 -0.6278
  937MOL0     H26467   3.371   8.264  12.175 -1.9626  0.7526 -3.7137
  937MOL0     H26468   3.433   8.425  12.127  0.2909  0.6683 -0.0955
  937MOL0     H26469   3.347   8.413  12.419 -0.0254  1.3628 -0.5727
  937MOL0     H26470   3.475   8.500  12.344 -1.3472  0.2085  0.8931
  937MOL0     H26471   3.546   8.315  12.495  0.6386  0.3385  0.1418
  937MOL0     H26472   3.498   8.201  12.363 -0.2548  1.2627  0.5067
  937MOL0     H26473   3.702   8.436  12.375  0.9040 -1.1298  2.0956
  937MOL0     H26474   3.648   8.354  12.218 -0.4843  0.1339  0.8827
  937MOL0     H26475   3.844   8.279  12.255 -3.1962  0.4856 -1.5231
  937MOL0     H26476   3.765   8.144  12.329  3.8369 -1.5818  2.4329
  937MOL0     H26477   3.315   8.820  11.893  1.9864  0.5827 -0.9968
  937MOL0     H26478   3.379   8.902  11.671 -2.4142  1.3615  1.3342
  937MOL0     H26479   3.363   8.875  11.255 -1.3162 -0.2526 -0.8308
  937MOL0     H26480   3.425   8.973  11.043  2.2070  3.3649  2.6993
  937MOL0     H26481   3.590   8.048  10.487  1.1307 -0.4202 -3.4614
  937MOL0     H26482   3.523   7.821  10.470  3.7802  2.8457  0.7997
  937MOL0     H26483   3.149   7.499  10.462 -4.1164 -1.3686 -0.1565
  937MOL0     H26484   3.071   7.289  10.398  1.1197  0.7433  1.2833
  937MOL0     H26485   3.209   7.111  10.011 -1.7622  0.9833 -0.2105
  937MOL0     H26486   3.248   7.052  10.166  2.4128  1.0638 -3.0815
  937MOL0     H26487   3.044   6.942   9.980  1.7575 -3.5815 -0.1485
  937MOL0     H26488   2.985   6.959  10.148 -1.3952  0.4078 -0.6495
  937MOL0     H26489   3.148   6.798  10.218 -1.8947 -1.6475 -0.5820
  937MOL0     H26490   3.271   6.845  10.108 -0.7800  1.4289  0.2849
  937MOL0     H26491   3.037   6.657  10.052 -1.1326  1.9040 -0.4685
  937MOL0     H26492   3.210   6.618  10.064 -0.9666 -0.7993 -2.9646
  937MOL0     H26493   3.168   6.771   9.665 -0.0122  1.9410 -0.1465
  937MOL0     H26494   3.252   7.320  10.011 -0.7181 -4.5374  0.9330
  937MOL0     H26495   3.380   7.519  10.092  1.3646 -1.9150  0.1799
  938MOL0     O26496   4.820   1.238   3.399  0.1106 -0.3575 -0.3270
  938MOL0     C26497   4.790   1.268   3.515 -0.1750 -1.1138 -0.0529
  938MOL0     O26498   4.682   1.342   3.557  1.2373  0.4512 -0.4353
  938MOL0     C26499   4.584   1.378   3.466  0.5363 -0.8579 -0.5231
  938MOL0     C26500   4.561   1.338   3.335  0.5421  0.4977  0.0266
  938MOL0     C26501   4.453   1.372   3.253  0.0097 -0.9066 -0.0428
  938MOL0     C26502   4.350   1.448   3.315  0.6460  0.9060 -0.2947
  938MOL0     O26503   4.233   1.477   3.246 -0.3685 -0.5691  1.0719
  938MOL0     C26504   4.227   1.536   3.110  0.2067 -0.7736 -1.3738
  938MOL0     C26505   4.349   1.636   3.089  0.5406  0.0280  0.1532
  938MOL0     C26506   4.300   1.744   2.981  0.8235  0.4843 -0.7456
  938MOL0     C26507   4.424   1.820   2.941  0.2194  0.6912  0.6149
  938MOL0     C26508   4.409   1.932   2.840 -0.1754  0.2654 -0.6119
  938MOL0     C26509   4.354   1.887   2.707 -0.1553  0.3094  0.3289
  938MOL0     C26510   4.451   1.799   2.628  0.6848 -0.1905 -0.1795
  938MOL0     C26511   4.606   1.841   2.629  0.1276  0.1952 -0.0535
  938MOL0     N26512   4.639   1.970   2.558  0.8864  0.2008  0.0983
  938MOL0     C26513   4.716   1.980   2.443 -0.0309  0.3901 -0.5166
  938MOL0     C26514   4.776   2.098   2.448  0.7728 -0.3285  0.5389
  938MOL0     C26515   4.877   2.162   2.355  0.0293 -0.1795 -0.0806
  938MOL0     C26516   4.983   2.214   2.441 -0.2072 -0.7426  0.5575
  938MOL0     C26517   5.126   2.231   2.377  0.0222 -0.2040 -0.1528
  938MOL0     C26518   5.145   2.307   2.247 -0.9286 -0.0212 -0.0262
  938MOL0     O26519   5.089   2.249   2.133  0.5732  0.2745 -0.2409
  938MOL0     C26520   5.143   2.152   2.058  0.0735  1.0637  0.0039
  938MOL0     C26521   5.101   2.118   1.926  0.1123  1.0529 -0.3652
  938MOL0     C26522   5.167   2.015   1.847  0.3885 -0.7453  0.0306
  938MOL0     C26523   5.125   1.995   1.701  0.6506 -0.8265 -0.1772
  938MOL0     C26524   5.266   1.936   1.912 -0.4721  0.2997  0.6592
  938MOL0     C26525   5.328   1.809   1.841 -0.0401 -0.1243 -0.2517
  938MOL0     O26526   5.339   1.808   1.705 -0.4487 -0.6436 -1.4487
  938MOL0     C26527   5.373   1.683   1.660  0.4215  0.5520  0.0146
  938MOL0     C26528   5.271   1.584   1.630 -0.5945  0.4387 -0.3048
  938MOL0     C26529   5.306   1.456   1.589 -0.4316  0.0556 -0.2773
  938MOL0     C26530   5.442   1.421   1.567  0.4463 -0.6938 -0.8079
  938MOL0     O26531   5.459   1.290   1.525 -0.1481  0.1695 -0.2843
  938MOL0     C26532   5.594   1.246   1.505  0.2263  0.5005 -0.1604
  938MOL0     C26533   5.652   1.299   1.367  0.1164 -0.7440 -0.9099
  938MOL0     C26534   5.808   1.318   1.368  0.2869  1.2991 -0.5236
  938MOL0     C26535   5.852   1.339   1.227  0.6774 -0.1793 -0.1565
  938MOL0     C26536   6.005   1.292   1.227  0.7500  0.1814  0.6057
  938MOL0     C26537   6.103   1.381   1.305  0.3335 -0.4654 -0.0393
  938MOL0     C26538   6.237   1.313   1.328 -0.7748  0.5981  0.1475
  938MOL0     C26539   6.315   1.396   1.434 -0.2187  0.0953 -0.5619
  938MOL0    Cl26540   6.477   1.336   1.500  0.2076 -0.1178 -0.2581
  938MOL0     C26541   5.540   1.517   1.596  0.0868 -0.1158  0.3468
  938MOL0     C26542   5.502   1.649   1.634 -0.1533  0.6736 -0.8371
  938MOL0     O26543   5.386   1.730   1.919  0.3628 -0.7443 -0.0136
  938MOL0     C26544   5.307   1.966   2.039 -0.5591  0.0179 -0.7378
  938MOL0     C26545   5.246   2.069   2.116 -0.0492 -0.3616  1.0085
  938MOL0     N26546   4.749   2.159   2.570  0.1049 -1.0331 -0.4072
  938MOL0     N26547   4.654   2.094   2.620 -0.1368 -0.5931 -0.4483
  938MOL0     C26548   4.370   1.487   3.454 -0.0915 -0.1980  0.6008
  938MOL0     C26549   4.481   1.456   3.524 -0.5988  0.5660 -0.3733
  938MOL0     C26550   4.877   1.212   3.619  0.2698  0.3578  0.2718
  938MOL0     C26551   5.012   1.186   3.592 -1.2202 -0.6601 -0.3291
  938MOL0     C26552   5.089   1.128   3.698 -0.1692  0.0495 -0.4129
  938MOL0     C26553   5.036   1.122   3.835 -1.1539 -0.0886  0.7893
  938MOL0     O26554   5.118   1.076   3.935  0.0470  0.0821 -0.6912
  938MOL0     C26555   5.220   1.173   3.966  0.4909  0.6025 -0.1552
  938MOL0     C26556   5.201   1.255   4.092  0.5004 -0.3814  0.1013
  938MOL0     C26557   5.313   1.365   4.101  0.2993 -0.1333  0.4118
  938MOL0     C26558   5.305   1.445   4.232 -0.2601 -0.0843 -0.9709
  938MOL0     C26559   5.392   1.562   4.240  0.3313  0.1908  0.1616
  938MOL0     C26560   5.463   1.660   4.256  1.0031  0.1209  0.5845
  938MOL0     C26561   4.905   1.150   3.851  0.8318  0.7789 -0.4251
  938MOL0     C26562   4.820   1.193   3.746  1.1061  0.7130 -0.3406
  938MOL0     H26563   4.635   1.278   3.283 -1.3228  0.8068 -3.2778
  938MOL0     H26564   4.443   1.328   3.155 -2.3023 -1.0476  0.2173
  938MOL0     H26565   4.231   1.454   3.038  1.8598 -1.4214 -0.6058
  938MOL0     H26566   4.134   1.592   3.099  0.5448 -0.0573 -0.7150
  938MOL0     H26567   4.375   1.689   3.181  0.2237  0.8824 -0.2339
  938MOL0     H26568   4.433   1.574   3.058 -0.5734 -1.5416  0.1459
  938MOL0     H26569   4.250   1.699   2.894  3.1181  0.8960 -2.3765
  938MOL0     H26570   4.230   1.817   3.022 -1.4173 -3.1729  2.7326
  938MOL0     H26571   4.466   1.868   3.030  2.1534 -0.0417  0.1445
  938MOL0     H26572   4.499   1.750   2.903  0.0038  0.1163  1.2358
  938MOL0     H26573   4.342   2.007   2.883  1.4678  1.0986  0.5979
  938MOL0     H26574   4.506   1.982   2.829  1.6524 -2.7927  0.6064
  938MOL0     H26575   4.257   1.837   2.711  0.5699 -1.0788  1.4545
  938MOL0     H26576   4.345   1.979   2.649  1.0843 -1.5954 -3.2044
  938MOL0     H26577   4.451   1.691   2.648  2.7120 -0.3592 -0.8863
  938MOL0     H26578   4.403   1.814   2.531 -2.8165  0.3171  1.4684
  938MOL0     H26579   4.660   1.761   2.577  1.6687 -0.5334  2.5183
  938MOL0     H26580   4.647   1.843   2.730  1.5248 -2.7164 -0.4672
  938MOL0     H26581   4.709   1.900   2.370 -0.8634  0.4719 -0.5366
  938MOL0     H26582   4.917   2.094   2.280 -1.3932 -0.3370 -0.7277
  938MOL0     H26583   4.824   2.242   2.303  2.1889  1.9888  0.8648
  938MOL0     H26584   4.996   2.158   2.534 -0.7777 -1.3406  0.2897
  938MOL0     H26585   4.960   2.317   2.470 -1.1140 -0.6370 -0.4645
  938MOL0     H26586   5.164   2.128   2.368 -1.1862 -0.7255  0.5042
  938MOL0     H26587   5.191   2.286   2.446 -1.2394  1.1713 -0.0307
  938MOL0     H26588   5.253   2.303   2.231 -0.7870 -2.4021  1.1050
  938MOL0     H26589   5.114   2.412   2.243  0.6075  0.4404 -0.3360
  938MOL0     H26590   5.009   2.166   1.892 -0.1665  1.1475  0.4898
  938MOL0     H26591   5.130   1.889   1.677 -2.5869 -1.4834  1.5351
  938MOL0     H26592   5.021   2.017   1.675 -0.0834 -1.2304  2.2059
  938MOL0     H26593   5.201   2.058   1.653 -1.0714  0.7466 -0.9787
  938MOL0     H26594   5.165   1.599   1.645 -1.0910 -2.0736 -0.8610
  938MOL0     H26595   5.230   1.387   1.553 -0.4365 -0.1870  0.1851
  938MOL0     H26596   5.653   1.269   1.595 -1.7866  1.8720  0.9086
  938MOL0     H26597   5.603   1.138   1.496  0.8544  0.6504 -1.5450
  938MOL0     H26598   5.617   1.226   1.293  1.4537 -2.9728  0.5431
  938MOL0     H26599   5.592   1.388   1.342  0.6867 -0.2290 -0.4734
  938MOL0     H26600   5.844   1.232   1.426 -2.3897  1.8947  2.2750
  938MOL0     H26601   5.834   1.404   1.430  0.6026  1.6016 -1.0738
  938MOL0     H26602   5.792   1.278   1.159 -0.3884  0.7516 -0.0806
  938MOL0     H26603   5.844   1.445   1.200 -0.9180 -0.6179 -1.6120
  938MOL0     H26604   6.031   1.284   1.121 -0.0923 -0.4880  0.4311
  938MOL0     H26605   6.014   1.188   1.261  2.1286  1.1743  3.5293
  938MOL0     H26606   6.122   1.474   1.250 -0.9855  0.8462  1.5856
  938MOL0     H26607   6.060   1.403   1.403 -0.6815  0.0576 -0.5881
  938MOL0     H26608   6.303   1.303   1.240  0.2144  3.0115  0.5363
  938MOL0     H26609   6.212   1.214   1.367 -0.2614  0.9221  1.3283
  938MOL0     H26610   6.257   1.393   1.526 -2.7628 -1.2583 -2.1012
  938MOL0     H26611   6.316   1.493   1.383 -2.8851  0.4919  0.0178
  938MOL0     H26612   5.645   1.503   1.570 -0.1242  1.8616 -1.9381
  938MOL0     H26613   5.578   1.726   1.647  0.8409 -0.4850  0.5351
  938MOL0     H26614   5.390   1.912   2.085 -0.1690  1.1783 -0.0213
  938MOL0     H26615   5.287   2.082   2.216  0.8663  0.8025  0.5009
  938MOL0     H26616   4.290   1.543   3.501 -0.6050 -2.1192  2.1113
  938MOL0     H26617   4.487   1.495   3.625 -0.7018 -0.4504  0.0376
  938MOL0     H26618   5.068   1.185   3.499 -0.5741  1.1636  0.0071
  938MOL0     H26619   5.193   1.102   3.683 -0.1284 -0.5611  0.7730
  938MOL0     H26620   5.319   1.129   3.980  0.8496  2.1722  3.5478
  938MOL0     H26621   5.242   1.248   3.890  1.1284  0.4306 -0.1441
  938MOL0     H26622   5.207   1.195   4.183  2.0606 -2.3664 -1.2141
  938MOL0     H26623   5.101   1.300   4.087  0.0985 -1.3190 -0.5586
  938MOL0     H26624   5.309   1.437   4.019  1.9326  0.8543  1.1471
  938MOL0     H26625   5.407   1.309   4.095 -1.0021 -2.2627 -2.6825
  938MOL0     H26626   5.327   1.390   4.323  0.4017  3.3037  1.0861
  938MOL0     H26627   5.202   1.483   4.241 -0.5911 -1.2536  0.4128
  938MOL0     H26628   5.509   1.756   4.271 -2.7547  2.5736 -1.8991
  938MOL0     H26629   4.865   1.143   3.952 -1.6568  0.4362 -1.3715
  938MOL0     H26630   4.714   1.213   3.755  1.1253  0.9896 -0.7069
  939MOL0     O26631  11.374   3.727   8.612 -0.3105  0.1478  0.5831
  939MOL0     C26632  11.275   3.672   8.567 -0.6172  0.1521  0.4709
  939MOL0     O26633  11.145   3.720   8.583  0.0845  0.3065  0.5793
  939MOL0     C26634  11.107   3.850   8.595  0.8807 -0.0745  0.1368
  939MOL0     C26635  11.172   3.951   8.523 -0.8304 -0.3542  1.2759
  939MOL0     C26636  11.141   4.083   8.546 -0.3592  0.0347  0.3466
  939MOL0     C26637  11.056   4.115   8.646  1.3886 -1.0580 -0.2142
  939MOL0     O26638  11.045   4.243   8.668  0.0333 -0.0539 -0.1664
  939MOL0     C26639  10.911   4.294   8.675 -0.6491  0.0668  0.0230
  939MOL0     C26640  10.920   4.441   8.720  0.0437 -0.1048 -0.0429
  939MOL0     C26641  10.776   4.487   8.770 -0.2922 -0.8816 -0.2491
  939MOL0     C26642  10.691   4.528   8.647  0.2942 -0.0176  0.7265
  939MOL0     C26643  10.579   4.624   8.664  0.7941  0.8715  0.1230
  939MOL0     C26644  10.463   4.566   8.751 -0.7555 -0.1989  0.1065
  939MOL0     C26645  10.357   4.668   8.765 -0.3120 -0.8445 -0.0240
  939MOL0     C26646  10.268   4.631   8.880  0.4613 -0.0702 -0.2072
  939MOL0     N26647  10.211   4.493   8.884  1.0126 -0.4980  0.5824
  939MOL0     C26648  10.112   4.443   8.796  0.2056  0.9263 -0.4686
  939MOL0     C26649  10.105   4.317   8.838  0.5649  0.7596 -0.0603
  939MOL0     C26650  10.009   4.208   8.787  0.0722 -0.9138 -0.7945
  939MOL0     C26651  10.066   4.070   8.810 -0.4104  0.3081  1.1758
  939MOL0     C26652   9.981   3.964   8.720  0.4312 -0.8130 -0.8935
  939MOL0     C26653   9.835   3.933   8.752 -1.5092 -0.6691 -0.1976
  939MOL0     O26654   9.749   4.021   8.672 -0.0326 -0.2810 -0.2211
  939MOL0     C26655   9.696   3.961   8.562 -0.1230 -0.9327  0.5817
  939MOL0     C26656   9.562   3.994   8.542  0.1659  0.9980 -0.8104
  939MOL0     C26657   9.487   3.941   8.435 -0.5498 -0.1010  0.3196
  939MOL0     C26658   9.339   3.955   8.436  0.2691  0.1347  0.4615
  939MOL0     C26659   9.560   3.852   8.347 -0.3208 -0.0503  0.0387
  939MOL0     C26660   9.497   3.788   8.226  0.7511 -0.3987  0.2927
  939MOL0     O26661   9.369   3.817   8.189  0.0248  0.2435 -0.5779
  939MOL0     C26662   9.296   3.728   8.113 -0.3137  0.0503  0.0306
  939MOL0     C26663   9.229   3.776   8.003 -0.5937  0.4291 -0.8740
  939MOL0     C26664   9.137   3.695   7.934 -0.3922  0.5817 -0.5224
  939MOL0     C26665   9.118   3.565   7.970  0.3759  0.5482 -0.8193
  939MOL0     O26666   9.019   3.495   7.916  0.2123  0.6620  0.2782
  939MOL0     C26667   8.982   3.502   7.775 -0.0096  0.2553  0.8142
  939MOL0     C26668   9.069   3.415   7.686 -0.2733  0.8571 -1.9928
  939MOL0     C26669   9.089   3.271   7.749  0.3487 -0.4330  0.6739
  939MOL0     C26670   9.182   3.190   7.670 -0.1976 -0.5933 -0.1702
  939MOL0     C26671   9.206   3.053   7.734 -1.1958 -0.3095 -0.4029
  939MOL0     C26672   9.309   2.974   7.650  0.5156 -0.2094  0.8258
  939MOL0     C26673   9.320   2.829   7.702 -1.1219 -0.3658 -0.6751
  939MOL0     C26674   9.442   2.740   7.657 -0.1055  1.0405 -0.3760
  939MOL0    Cl26675   9.415   2.707   7.481 -0.2474  0.0703  0.6321
  939MOL0     C26676   9.195   3.511   8.072 -0.0959  0.7568 -0.1800
  939MOL0     C26677   9.292   3.590   8.143  0.7814  0.7976 -0.6560
  939MOL0     O26678   9.568   3.715   8.157  1.0425  0.2902  0.5364
  939MOL0     C26679   9.694   3.830   8.369  0.0325 -0.1253  0.6594
  939MOL0     C26680   9.761   3.881   8.479 -0.3498  0.2566  1.4858
  939MOL0     N26681  10.185   4.288   8.942  0.4375  1.1415  0.0344
  939MOL0     N26682  10.243   4.405   8.968  0.1431  0.9086 -0.0130
  939MOL0     C26683  10.992   4.016   8.719  0.0314 -0.6658 -1.0878
  939MOL0     C26684  11.011   3.881   8.689  0.1355  0.1799  0.0231
  939MOL0     C26685  11.293   3.542   8.489  1.2903 -0.6670 -0.0381
  939MOL0     C26686  11.417   3.488   8.464  0.1541  0.8702  0.5753
  939MOL0     C26687  11.429   3.370   8.399 -0.1703 -0.6122  0.9519
  939MOL0     C26688  11.323   3.297   8.349 -0.1056  0.1192 -0.6761
  939MOL0     O26689  11.345   3.184   8.280 -0.3843  0.6350 -0.0850
  939MOL0     C26690  11.256   3.088   8.239  0.5122 -0.1123 -0.2033
  939MOL0     C26691  11.226   3.098   8.091 -0.0499 -0.2658  0.1297
  939MOL0     C26692  11.139   2.991   8.028 -0.0003  0.1228  0.1138
  939MOL0     C26693  10.988   3.016   8.026  0.2223 -0.8110 -0.2319
  939MOL0     C26694  10.924   3.081   8.138  0.8638 -0.1312  0.1754
  939MOL0     C26695  10.876   3.130   8.239  0.0640  0.5100  0.1675
  939MOL0     C26696  11.195   3.353   8.366 -0.5426 -0.9769  0.2391
  939MOL0     C26697  11.174   3.477   8.435  1.0189 -0.0118 -0.6348
  939MOL0     H26698  11.253   3.923   8.456  0.2130  1.0403  1.9222
  939MOL0     H26699  11.181   4.171   8.495  0.2642  0.4079  1.4495
  939MOL0     H26700  10.867   4.272   8.577  0.1707 -4.7208  0.4730
  939MOL0     H26701  10.851   4.239   8.748 -1.4905 -2.8007 -2.6435
  939MOL0     H26702  10.978   4.451   8.812  0.4660 -0.9844 -0.2014
  939MOL0     H26703  10.959   4.489   8.630 -2.1635  0.0783 -0.9579
  939MOL0     H26704  10.718   4.416   8.831 -1.8572  1.4746  1.1981
  939MOL0     H26705  10.801   4.576   8.828  0.8692 -2.7934  2.3622
  939MOL0     H26706  10.766   4.581   8.588 -1.8743  0.8273 -1.4320
  939MOL0     H26707  10.652   4.442   8.592 -1.9678  2.1079 -1.2740
  939MOL0     H26708  10.624   4.720   8.692  2.8868 -1.0557  4.4206
  939MOL0     H26709  10.533   4.637   8.565  1.1908 -0.2076 -0.2198
  939MOL0     H26710  10.421   4.471   8.716 -2.9861 -0.1120  2.2735
  939MOL0     H26711  10.500   4.542   8.851  1.9376  2.2416 -0.1847
  939MOL0     H26712  10.390   4.772   8.761 -0.7618 -0.6017  1.7300
  939MOL0     H26713  10.289   4.657   8.680  0.1769 -1.2972 -0.3683
  939MOL0     H26714  10.176   4.688   8.862 -1.2172 -2.8971 -1.4003
  939MOL0     H26715  10.318   4.657   8.973 -0.0860 -0.2039  0.1303
  939MOL0     H26716  10.054   4.494   8.721  0.6827  1.3753 -0.5408
  939MOL0     H26717   9.919   4.233   8.843  0.6354 -0.1244 -0.2256
  939MOL0     H26718   9.989   4.219   8.680  1.0619  1.1821 -0.8062
  939MOL0     H26719  10.050   4.035   8.912 -2.0496  0.8491  1.1306
  939MOL0     H26720  10.169   4.073   8.772 -0.6641  2.1545  0.5713
  939MOL0     H26721  10.040   3.874   8.744  0.3184 -0.5999  0.2337
  939MOL0     H26722   9.980   3.996   8.615  1.3019 -0.4073 -0.7887
  939MOL0     H26723   9.815   3.950   8.858  0.4152  1.9959 -0.1505
  939MOL0     H26724   9.818   3.825   8.760  0.5387 -1.3734 -3.4655
  939MOL0     H26725   9.512   4.063   8.610  2.6941  1.3238  0.8498
  939MOL0     H26726   9.315   4.023   8.518  0.6892 -0.0603  0.7478
  939MOL0     H26727   9.292   4.006   8.352 -1.7671 -0.7335  1.0099
  939MOL0     H26728   9.281   3.864   8.458 -0.3312  0.4974  0.4032
  939MOL0     H26729   9.243   3.880   7.977 -1.5978  0.7050 -0.3706
  939MOL0     H26730   9.081   3.742   7.854 -2.4965  1.4805  1.3518
  939MOL0     H26731   8.882   3.458   7.762  0.7970 -3.5705  4.9613
  939MOL0     H26732   8.991   3.607   7.746 -2.2682  0.3834  0.4252
  939MOL0     H26733   9.041   3.423   7.581  1.5366  3.4050 -2.3544
  939MOL0     H26734   9.169   3.460   7.690 -1.1216  2.7662 -0.7497
  939MOL0     H26735   8.993   3.220   7.763  0.6286 -0.7744  1.3970
  939MOL0     H26736   9.143   3.281   7.844 -1.4938  0.7972  1.6494
  939MOL0     H26737   9.140   3.170   7.571  0.3183  0.2065 -0.5576
  939MOL0     H26738   9.277   3.241   7.655 -0.5331 -0.3240 -1.5626
  939MOL0     H26739   9.114   2.994   7.735 -0.8466 -0.8979  1.0426
  939MOL0     H26740   9.242   3.050   7.838 -1.3807 -0.3370 -0.3390
  939MOL0     H26741   9.268   2.957   7.550  0.8347 -1.0876  0.8383
  939MOL0     H26742   9.408   3.020   7.641  0.7656 -1.0907 -1.7084
  939MOL0     H26743   9.228   2.782   7.668 -1.5535  0.9933 -1.4456
  939MOL0     H26744   9.327   2.848   7.809  3.5218  0.9013 -0.9877
  939MOL0     H26745   9.437   2.655   7.726  1.5603  1.3621  0.1793
  939MOL0     H26746   9.538   2.791   7.673  0.2467  0.2374  0.1008
  939MOL0     H26747   9.184   3.407   8.104 -2.0305  0.5444 -1.3557
  939MOL0     H26748   9.342   3.545   8.228 -1.9090  0.8531  1.1017
  939MOL0     H26749   9.755   3.778   8.295  0.1538  1.9152 -0.7834
  939MOL0     H26750   9.865   3.853   8.484 -0.5572 -1.5139 -1.6299
  939MOL0     H26751  10.916   4.041   8.793 -0.8406 -0.7567 -1.9264
  939MOL0     H26752  10.954   3.806   8.743 -1.3129  1.1604 -0.1093
  939MOL0     H26753  11.502   3.546   8.500  3.0781 -1.2797 -2.2032
  939MOL0     H26754  11.531   3.340   8.374 -0.4304  0.0424 -1.0947
  939MOL0     H26755  11.301   2.991   8.262 -0.9813 -1.6338 -3.1440
  939MOL0     H26756  11.158   3.100   8.288  0.4529  0.4336 -0.4510
  939MOL0     H26757  11.319   3.096   8.034 -0.8842 -1.5694 -1.2490
  939MOL0     H26758  11.176   3.194   8.072 -0.3867 -0.7650 -1.6737
  939MOL0     H26759  11.156   2.914   8.104  1.5998  1.3686  1.0737
  939MOL0     H26760  11.181   2.955   7.934  0.7064 -2.6546  1.4004
  939MOL0     H26761  10.935   2.925   7.996  0.0130 -0.9512  0.5640
  939MOL0     H26762  10.995   3.083   7.939  0.8963 -0.0915  0.3671
  939MOL0     H26763  10.833   3.181   8.323 -0.2769  0.6477 -0.0915
  939MOL0     H26764  11.113   3.302   8.317 -0.5821  2.1925 -3.4190
  939MOL0     H26765  11.071   3.507   8.451  0.7257  0.0721 -2.4619
  940MOL0     O26766   0.803  10.129   8.451 -0.2581 -0.8978  0.2876
  940MOL0     C26767   0.896  10.181   8.396  0.5161 -0.7176  0.0349
  940MOL0     O26768   0.898  10.237   8.268  0.1784 -0.0184 -0.5674
  940MOL0     C26769   0.788  10.264   8.184 -0.6111  2.1832 -0.3988
  940MOL0     C26770   0.656  10.216   8.197  0.0245  0.3016  0.1075
  940MOL0     C26771   0.545  10.265   8.123 -0.1572 -0.4851 -0.5778
  940MOL0     C26772   0.569  10.353   8.012 -0.0944  0.2975  0.1864
  940MOL0     O26773   0.474  10.389   7.921 -0.5701 -0.8828  0.6532
  940MOL0     C26774   0.349  10.436   7.976 -0.2340  0.5152 -0.5848
  940MOL0     C26775   0.260  10.491   7.865 -0.8039 -0.7572  0.3569
  940MOL0     C26776   0.311  10.633   7.811  0.5645 -0.1731  0.0756
  940MOL0     C26777   0.244  10.673   7.675 -0.1361 -1.0469 -1.2782
  940MOL0     C26778   0.305  10.809   7.641  0.3771 -0.3082  0.2187
  940MOL0     C26779   0.277  10.847   7.491  0.4192  0.0603 -0.4787
  940MOL0     C26780   0.335  10.978   7.452  0.4056 -0.7319  0.2254
  940MOL0     C26781   0.301  11.025   7.308 -0.2744 -0.3467 -0.5916
  940MOL0     N26782   0.354  11.160   7.287 -0.6514  0.3801 -0.5328
  940MOL0     C26783   0.488  11.195   7.268  0.3933  0.0479  0.5944
  940MOL0     C26784   0.474  11.329   7.257 -0.0074 -0.4312 -0.5706
  940MOL0     C26785   0.602  11.419   7.232  1.2228 -0.5599  0.2635
  940MOL0     C26786   0.584  11.512   7.105  0.6051  0.0233 -0.7131
  940MOL0     C26787   0.680  11.621   7.109 -0.5070 -0.8477  0.6508
  940MOL0     C26788   0.819  11.593   7.038  0.5950  0.7769  0.4230
  940MOL0     O26789   0.916  11.520   7.124 -0.0561 -0.1774  0.7273
  940MOL0     C26790   1.037  11.494   7.066  0.8266  0.3196  0.0966
  940MOL0     C26791   1.070  11.532   6.937 -0.5057 -0.1415  0.2133
  940MOL0     C26792   1.197  11.505   6.885 -0.5531  1.1335  0.5016
  940MOL0     C26793   1.229  11.551   6.744  0.2911  0.3220  0.6709
  940MOL0     C26794   1.297  11.446   6.973  0.8051 -0.1117 -0.1212
  940MOL0     C26795   1.440  11.421   6.936 -1.1643 -1.3997 -0.0945
  940MOL0     O26796   1.488  11.486   6.829 -0.6311 -0.1450  0.5367
  940MOL0     C26797   1.624  11.474   6.791  0.3212 -0.5498  0.5894
  940MOL0     C26798   1.649  11.388   6.689 -0.0012  0.0891  0.1972
  940MOL0     C26799   1.778  11.351   6.659 -0.4117 -0.2756 -1.0669
  940MOL0     C26800   1.879  11.421   6.723 -0.8727 -0.6622 -0.2475
  940MOL0     O26801   2.012  11.390   6.702  0.6472 -0.8306  0.4052
  940MOL0     C26802   2.055  11.253   6.727 -0.2904 -0.2704  0.4853
  940MOL0     C26803   2.202  11.275   6.712  0.7039  0.7248 -0.0345
  940MOL0     C26804   2.289  11.178   6.772 -0.9207  0.7638 -0.5907
  940MOL0     C26805   2.442  11.212   6.763 -0.7671  0.0144 -0.8672
  940MOL0     C26806   2.534  11.088   6.762  0.2238  0.6257 -0.3632
  940MOL0     C26807   2.521  10.984   6.868  0.0153 -0.2718  0.0636
  940MOL0     C26808   2.635  10.880   6.854 -0.6831  0.0957  1.1310
  940MOL0     C26809   2.638  10.793   6.976  0.3312  0.3009 -0.0828
  940MOL0    Cl26810   2.488  10.707   7.009  0.0435 -0.5380  0.5437
  940MOL0     C26811   1.852  11.523   6.811  0.3790 -0.4374 -0.5395
  940MOL0     C26812   1.722  11.548   6.855 -0.0977 -0.4993  0.4451
  940MOL0     O26813   1.511  11.364   7.012  0.5348 -0.1562 -0.0508
  940MOL0     C26814   1.251  11.407   7.101 -0.4817 -0.9359 -0.3134
  940MOL0     C26815   1.124  11.428   7.148  1.0325  0.3058  0.0892
  940MOL0     N26816   0.342  11.376   7.284 -1.4405 -0.0648  0.2136
  940MOL0     N26817   0.276  11.265   7.288  0.1356  0.1105  0.6402
  940MOL0     C26818   0.700  10.396   8.002 -0.2087  0.2177  0.3839
  940MOL0     C26819   0.811  10.353   8.083 -1.1108 -0.1350 -0.6865
  940MOL0     C26820   1.023  10.198   8.463 -0.6421 -0.6661  0.7334
  940MOL0     C26821   1.111  10.305   8.445  0.2123  0.0876 -0.0498
  940MOL0     C26822   1.230  10.309   8.512  0.3952  0.0982 -0.9605
  940MOL0     C26823   1.266  10.209   8.600  0.2094 -0.9520  1.0489
  940MOL0     O26824   1.387  10.192   8.660  0.7106 -0.2038  0.4061
  940MOL0     C26825   1.450  10.308   8.702 -0.8316 -1.2018  0.2172
  940MOL0     C26826   1.603  10.308   8.734 -0.1941 -0.4612  0.8037
  940MOL0     C26827   1.693  10.243   8.630  1.4037  0.3426 -0.0659
  940MOL0     C26828   1.836  10.268   8.679 -0.4278 -0.1970 -0.4100
  940MOL0     C26829   1.872  10.189   8.798  1.0058  0.7072  0.2309
  940MOL0     C26830   1.896  10.098   8.874 -0.6899 -0.2642 -0.2715
  940MOL0     C26831   1.179  10.103   8.626 -0.4132 -0.5572  0.7585
  940MOL0     C26832   1.059  10.096   8.552  0.2545 -0.7020 -0.5482
  940MOL0     H26833   0.635  10.144   8.276 -0.7041 -1.6903 -1.7990
  940MOL0     H26834   0.446  10.228   8.147 -1.7909  2.3715 -2.4001
  940MOL0     H26835   0.292  10.352   8.016  1.5746 -0.8111 -0.6330
  940MOL0     H26836   0.381  10.510   8.050 -0.8066  1.5591 -1.3532
  940MOL0     H26837   0.261  10.423   7.779  3.1986  0.0619 -0.4086
  940MOL0     H26838   0.157  10.516   7.895 -0.3860 -0.2940  1.4568
  940MOL0     H26839   0.288  10.703   7.892 -0.9487  0.0572 -0.5216
  940MOL0     H26840   0.418  10.635   7.787  0.1039  2.6461 -2.2894
  940MOL0     H26841   0.266  10.604   7.592  0.0716  1.1466 -3.1474
  940MOL0     H26842   0.135  10.684   7.676  0.0562  1.2441 -0.0141
  940MOL0     H26843   0.274  10.881   7.717 -3.2836 -2.5379  1.0855
  940MOL0     H26844   0.414  10.808   7.645  0.3600  0.7430  3.2083
  940MOL0     H26845   0.293  10.756   7.433 -0.8065  1.5024 -3.2573
  940MOL0     H26846   0.167  10.850   7.489 -0.3155 -7.4417  0.3655
  940MOL0     H26847   0.310  11.047   7.533 -2.1544 -1.1577 -0.1140
  940MOL0     H26848   0.444  10.977   7.465  0.3471 -1.5707  0.6961
  940MOL0     H26849   0.192  11.035   7.299 -0.4424  2.9777  2.7192
  940MOL0     H26850   0.334  10.950   7.235  2.2109 -1.6600  1.7029
  940MOL0     H26851   0.582  11.143   7.259  0.9435  0.7866  1.8293
  940MOL0     H26852   0.631  11.485   7.313 -0.2063 -0.2939  0.5826
  940MOL0     H26853   0.683  11.354   7.196  1.4813 -0.4263  0.5995
  940MOL0     H26854   0.483  11.545   7.127  0.7016  0.2884 -0.6594
  940MOL0     H26855   0.589  11.465   7.006  0.2232  1.6321 -1.5172
  940MOL0     H26856   0.694  11.665   7.208 -0.3486  2.1316 -0.6102
  940MOL0     H26857   0.643  11.708   7.055  1.8521 -0.9380 -1.2511
  940MOL0     H26858   0.861  11.693   7.020  1.6078  0.0549 -1.6416
  940MOL0     H26859   0.802  11.530   6.950  2.0881  0.9371 -0.0151
  940MOL0     H26860   0.999  11.584   6.874  0.6617  1.1493 -0.1146
  940MOL0     H26861   1.138  11.564   6.685  1.3083 -0.6591 -1.2154
  940MOL0     H26862   1.280  11.648   6.747  1.0458  0.0056 -0.8701
  940MOL0     H26863   1.290  11.479   6.689 -0.5798 -0.2156  0.4042
  940MOL0     H26864   1.571  11.329   6.641 -0.1482  1.2520 -1.0501
  940MOL0     H26865   1.803  11.280   6.581 -0.4041  1.2066 -2.4913
  940MOL0     H26866   2.035  11.222   6.830 -0.9824  0.7876  0.6829
  940MOL0     H26867   2.014  11.181   6.657  2.3487 -3.3222  1.8137
  940MOL0     H26868   2.216  11.281   6.604  2.6094  0.2803  0.1528
  940MOL0     H26869   2.234  11.372   6.751 -0.2783  1.8449 -1.8689
  940MOL0     H26870   2.275  11.088   6.710 -1.0237  1.3889 -1.4874
  940MOL0     H26871   2.252  11.166   6.875 -1.2447  4.4064 -0.1427
  940MOL0     H26872   2.457  11.262   6.666  1.5767 -1.5266 -1.3737
  940MOL0     H26873   2.478  11.271   6.847  1.9557 -4.2009  1.2546
  940MOL0     H26874   2.638  11.117   6.745 -0.3214  1.3011 -3.0405
  940MOL0     H26875   2.522  11.034   6.668  1.7780 -0.0202 -0.2282
  940MOL0     H26876   2.524  11.027   6.968  0.7313  4.7241 -1.8359
  940MOL0     H26877   2.441  10.911   6.850  3.0113 -3.1544 -3.1655
  940MOL0     H26878   2.730  10.934   6.847  0.3668 -1.7711  0.0952
  940MOL0     H26879   2.632  10.823   6.760  1.7334 -0.4854  1.3309
  940MOL0     H26880   2.662  10.859   7.060  0.3565 -0.8615  0.8545
  940MOL0     H26881   2.719  10.721   6.963 -0.3235 -0.0134 -2.8916
  940MOL0     H26882   1.941  11.567   6.856 -1.4913 -0.1570  3.2708
  940MOL0     H26883   1.687  11.614   6.934 -3.5414  3.0463 -3.5007
  940MOL0     H26884   1.331  11.365   7.160  1.3943  0.6954 -1.5457
  940MOL0     H26885   1.088  11.418   7.250  0.3343 -1.2858 -0.2925
  940MOL0     H26886   0.729  10.460   7.919  0.4593 -1.0089 -0.3628
  940MOL0     H26887   0.912  10.391   8.072 -1.0662  1.0954  2.8000
  940MOL0     H26888   1.094  10.394   8.386  0.2369  0.1906  0.0981
  940MOL0     H26889   1.296  10.388   8.479 -2.6245  1.2874 -4.9716
  940MOL0     H26890   1.438  10.394   8.635  0.7999  0.1260  1.5278
  940MOL0     H26891   1.400  10.328   8.798  3.3249  1.3754  2.1310
  940MOL0     H26892   1.606  10.250   8.827 -0.0550 -0.9748  0.4861
  940MOL0     H26893   1.644  10.404   8.766 -1.4190 -0.4384  2.4327
  940MOL0     H26894   1.686  10.286   8.529 -3.0863  2.3932  0.8888
  940MOL0     H26895   1.683  10.134   8.622  1.6913  0.3346 -0.3103
  940MOL0     H26896   1.851  10.372   8.708  2.2345  0.0244 -2.2367
  940MOL0     H26897   1.909  10.239   8.603 -3.4500 -4.7834 -2.0168
  940MOL0     H26898   1.904  10.012   8.937  0.8740  0.0436  0.0064
  940MOL0     H26899   1.216  10.019   8.684  3.0662  1.7022  2.1460
  940MOL0     H26900   0.994  10.009   8.551  1.2681 -1.6541 -4.7873
  941MOL0     O26901   9.787   4.959   6.951  0.5101  0.6595  0.2382
  941MOL0     C26902   9.896   4.910   6.985  0.4819  0.0803 -0.1310
  941MOL0     O26903  10.007   4.972   7.043  0.1005  0.1780  0.2527
  941MOL0     C26904  10.029   5.102   7.008 -0.1168  0.7796  0.1156
  941MOL0     C26905  10.102   5.136   6.886 -0.0751 -0.1389  0.1915
  941MOL0     C26906  10.135   5.274   6.869 -0.1333 -0.0552 -0.2454
  941MOL0     C26907  10.113   5.366   6.970 -0.0822 -1.0689  0.0385
  941MOL0     O26908  10.153   5.497   6.933  0.3367  0.4000 -0.1285
  941MOL0     C26909  10.134   5.610   7.021 -1.1243 -0.5589 -0.0152
  941MOL0     C26910  10.199   5.735   6.957  0.4168  0.2164 -0.0283
  941MOL0     C26911  10.150   5.751   6.809  0.6032 -0.0098 -0.2790
  941MOL0     C26912   9.992   5.761   6.809 -0.2890 -0.2082 -1.6900
  941MOL0     C26913   9.929   5.894   6.864 -0.0069 -0.4154  0.5019
  941MOL0     C26914   9.786   5.914   6.833 -0.3323 -0.3324  1.1875
  941MOL0     C26915   9.780   5.954   6.682  0.2775  0.1669  1.0136
  941MOL0     C26916   9.632   5.957   6.635  0.1602 -0.4165 -0.7373
  941MOL0     N26917   9.620   5.974   6.490 -0.8448  0.2729  0.3158
  941MOL0     C26918   9.644   5.883   6.385 -0.4085 -0.6265  0.2114
  941MOL0     C26919   9.630   5.957   6.269 -0.9882  0.1306  0.1540
  941MOL0     C26920   9.627   5.890   6.135  0.1071 -0.6011  0.3877
  941MOL0     C26921   9.759   5.905   6.060 -0.3684 -0.3920 -0.2607
  941MOL0     C26922   9.889   5.890   6.144 -0.0172  0.0857  0.3926
  941MOL0     C26923   9.995   5.882   6.041  0.3365  0.3727  0.1365
  941MOL0     O26924   9.981   5.753   5.979  0.5549  0.4728  0.7560
  941MOL0     C26925  10.080   5.658   5.995  0.2290  0.5514  0.8347
  941MOL0     C26926  10.126   5.623   6.124  0.9319  0.0295  0.8719
  941MOL0     C26927  10.233   5.527   6.133 -0.0919  0.5607 -0.5287
  941MOL0     C26928  10.275   5.489   6.275 -0.0218 -0.9503  0.0451
  941MOL0     C26929  10.288   5.459   6.023  0.4867  0.1691 -0.3772
  941MOL0     C26930  10.398   5.349   6.034 -0.1983  0.7622  0.3114
  941MOL0     O26931  10.424   5.292   5.913 -0.0894 -0.1900  0.0365
  941MOL0     C26932  10.462   5.161   5.917  0.4205  0.6384  0.0432
  941MOL0     C26933  10.436   5.077   6.031  0.0458 -0.0591  0.0294
  941MOL0     C26934  10.484   4.942   6.034  0.3441  0.2418 -0.3910
  941MOL0     C26935  10.562   4.899   5.927 -0.4621  0.4603 -1.0150
  941MOL0     O26936  10.621   4.769   5.918  0.4834  0.1758  0.3823
  941MOL0     C26937  10.654   4.686   6.030  0.4820 -0.2784 -0.4214
  941MOL0     C26938  10.783   4.724   6.101  0.2505 -0.5500 -0.2930
  941MOL0     C26939  10.905   4.712   6.006 -0.0090  0.1513  0.2787
  941MOL0     C26940  11.036   4.749   6.075 -0.0273  0.2912 -0.0476
  941MOL0     C26941  11.154   4.755   5.981 -0.1618 -0.1578  0.6820
  941MOL0     C26942  11.269   4.812   6.060 -0.2054  1.1331 -0.6653
  941MOL0     C26943  11.393   4.810   5.980 -0.2300  0.0661  0.0852
  941MOL0     C26944  11.483   4.685   5.999  0.3763  0.4596  0.6785
  941MOL0    Cl26945  11.565   4.677   6.158  0.2375  0.6560 -0.5200
  941MOL0     C26946  10.581   4.980   5.811 -0.0277  0.1436 -0.0590
  941MOL0     C26947  10.525   5.104   5.805 -0.3097 -0.0250 -0.6481
  941MOL0     O26948  10.458   5.335   6.135  0.3730  0.2258 -0.6104
  941MOL0     C26949  10.237   5.489   5.893 -0.2767 -0.7630  0.3191
  941MOL0     C26950  10.132   5.580   5.885 -0.0403 -0.9076  0.0431
  941MOL0     N26951   9.588   6.081   6.298  0.1398 -0.6477  0.6690
  941MOL0     N26952   9.587   6.094   6.428  0.1573 -0.7612  0.7588
  941MOL0     C26953  10.032   5.333   7.078 -0.0298  0.8982  0.1616
  941MOL0     C26954   9.996   5.204   7.094 -0.2392  0.9890 -0.9185
  941MOL0     C26955   9.919   4.767   6.954  0.8959 -0.3367 -0.9088
  941MOL0     C26956  10.037   4.716   6.988  0.4789  0.5674 -0.8120
  941MOL0     C26957  10.062   4.573   6.985  0.3130  1.0093  0.1942
  941MOL0     C26958   9.950   4.491   6.937 -0.3549 -0.5889 -0.8778
  941MOL0     O26959   9.951   4.354   6.915 -0.3438  0.4562 -0.1072
  941MOL0     C26960  10.066   4.271   6.940 -0.8048  0.9385  0.0071
  941MOL0     C26961  10.032   4.125   6.937 -0.5297  0.3986 -0.4071
  941MOL0     C26962   9.942   4.071   6.818  0.0730  0.5352  0.5409
  941MOL0     C26963  10.019   4.035   6.692 -0.1809 -0.0383 -0.6358
  941MOL0     C26964  10.090   3.904   6.716  0.5008  0.0714  0.2337
  941MOL0     C26965  10.145   3.798   6.729  0.5127  0.4831 -0.6379
  941MOL0     C26966   9.825   4.551   6.917  0.0263 -0.0803 -0.3279
  941MOL0     C26967   9.807   4.686   6.923  0.3846 -0.2812  0.1048
  941MOL0     H26968  10.112   5.066   6.804 -1.8837  1.7552 -1.7442
  941MOL0     H26969  10.187   5.305   6.779  2.2161 -0.7248  0.8068
  941MOL0     H26970  10.027   5.624   7.038 -1.5166 -1.5094 -1.5424
  941MOL0     H26971  10.190   5.579   7.110 -0.1683  1.8540  0.3183
  941MOL0     H26972  10.175   5.834   6.997 -1.0769 -0.5954  1.1713
  941MOL0     H26973  10.308   5.724   6.960  0.6858  1.4145 -2.5403
  941MOL0     H26974  10.208   5.831   6.764  0.9453 -1.3552 -2.3573
  941MOL0     H26975  10.178   5.667   6.745 -1.4470 -0.5246 -0.5889
  941MOL0     H26976   9.965   5.740   6.704 -1.1160 -2.1589 -1.1471
  941MOL0     H26977   9.947   5.678   6.865  1.5825 -1.7150 -2.3171
  941MOL0     H26978   9.938   5.898   6.973 -2.1308 -0.8555  0.7554
  941MOL0     H26979   9.986   5.979   6.827 -0.6371 -0.5755 -0.9022
  941MOL0     H26980   9.725   5.829   6.865  1.2778 -2.1586 -0.3394
  941MOL0     H26981   9.752   6.005   6.883  2.5290  0.7424  1.3637
  941MOL0     H26982   9.820   6.055   6.669  0.8720  0.0067  1.5315
  941MOL0     H26983   9.831   5.880   6.620  1.8241  0.8518  1.4423
  941MOL0     H26984   9.568   6.030   6.685  0.4772 -0.7105  0.1177
  941MOL0     H26985   9.588   5.862   6.669 -0.0298  1.1766  4.3130
  941MOL0     H26986   9.670   5.778   6.388  1.1655 -0.3047 -0.8776
  941MOL0     H26987   9.612   5.782   6.132  0.5913 -0.6397 -1.2484
  941MOL0     H26988   9.546   5.930   6.074 -0.1139 -0.9345  0.4631
  941MOL0     H26989   9.764   6.005   6.017 -1.7473 -1.1787 -2.3724
  941MOL0     H26990   9.757   5.833   5.978  3.1651 -0.7143 -0.1949
  941MOL0     H26991   9.887   5.807   6.215  1.8515  0.3085  0.7545
  941MOL0     H26992   9.910   5.983   6.198  1.7199 -0.9435  1.5909
  941MOL0     H26993  10.086   5.883   6.102  1.6160 -0.9982 -1.6410
  941MOL0     H26994  10.010   5.970   5.977  2.7213 -0.4219 -0.5291
  941MOL0     H26995  10.086   5.676   6.209  0.3267 -1.4043  1.5104
  941MOL0     H26996  10.207   5.528   6.351 -0.2291 -1.6462  0.2273
  941MOL0     H26997  10.281   5.381   6.290  0.0760 -1.0694 -0.7779
  941MOL0     H26998  10.375   5.532   6.286  0.4098 -1.7432 -0.5931
  941MOL0     H26999  10.365   5.109   6.107  0.4142  0.7195  0.0608
  941MOL0     H27000  10.458   4.879   6.118  0.6367 -1.6126 -1.6332
  941MOL0     H27001  10.572   4.681   6.102  0.5310  0.4892 -0.3072
  941MOL0     H27002  10.663   4.583   5.994 -1.1229 -0.5105 -0.2511
  941MOL0     H27003  10.772   4.827   6.136 -4.3231 -1.6998  2.4791
  941MOL0     H27004  10.798   4.663   6.190 -0.2354  1.0679  0.9493
  941MOL0     H27005  10.899   4.786   5.926  1.5611  0.0360  0.0122
  941MOL0     H27006  10.918   4.610   5.968  0.4423  0.5961 -0.8062
  941MOL0     H27007  11.018   4.843   6.128 -3.7183 -0.1443 -0.2500
  941MOL0     H27008  11.055   4.672   6.151  0.8234  0.3425 -0.2033
  941MOL0     H27009  11.138   4.823   5.897  2.2361  0.6658  0.8325
  941MOL0     H27010  11.177   4.655   5.945  0.6766  0.4051 -0.3719
  941MOL0     H27011  11.230   4.913   6.082 -0.3909  1.0014 -0.3737
  941MOL0     H27012  11.290   4.761   6.155 -0.3997 -1.4310 -1.9364
  941MOL0     H27013  11.437   4.903   6.017 -2.3908  0.4583  1.8747
  941MOL0     H27014  11.363   4.822   5.876  0.0386  3.2069  0.2943
  941MOL0     H27015  11.570   4.684   5.932  2.3459 -1.0581  3.0705
  941MOL0     H27016  11.426   4.594   5.984 -1.2802  1.7431 -1.4000
  941MOL0     H27017  10.625   4.936   5.722  0.9643  0.5960  0.1973
  941MOL0     H27018  10.542   5.165   5.717  0.1816  2.0100  0.7945
  941MOL0     H27019  10.279   5.440   5.806 -2.1105 -2.0099  0.0600
  941MOL0     H27020  10.091   5.603   5.787  0.8339  1.4886  0.1592
  941MOL0     H27021  10.007   5.406   7.155 -0.6567  1.4652 -0.5651
  941MOL0     H27022   9.938   5.171   7.180  2.6451 -0.2116  0.6995
  941MOL0     H27023  10.119   4.778   7.022 -0.8211  1.2127  1.3696
  941MOL0     H27024  10.157   4.528   7.011  0.9496  2.3084  0.1850
  941MOL0     H27025  10.138   4.293   6.861  0.4132 -3.6076 -0.4716
  941MOL0     H27026  10.120   4.294   7.032 -2.2340 -2.4590  1.8804
  941MOL0     H27027   9.978   4.089   7.025  1.0696 -0.5464  0.2339
  941MOL0     H27028  10.128   4.074   6.945 -1.1898 -0.8262  0.0036
  941MOL0     H27029   9.857   4.138   6.799 -0.7052  0.7141  4.0440
  941MOL0     H27030   9.900   3.976   6.852  0.5597  0.9877  2.5382
  941MOL0     H27031  10.083   4.120   6.666  0.7796 -1.0140 -1.6070
  941MOL0     H27032   9.949   4.029   6.608 -0.2375 -0.6756 -0.5452
  941MOL0     H27033  10.190   3.707   6.762  0.5145  1.1913  1.4336
  941MOL0     H27034   9.731   4.502   6.893  0.5685 -2.6189  2.1712
  941MOL0     H27035   9.711   4.734   6.909 -0.3218 -2.2326 -2.6647
  942MOL0     O27036   3.688   5.325   7.714  0.1538 -0.3048  0.6942
  942MOL0     C27037   3.701   5.229   7.792 -0.2305  0.0587  0.0488
  942MOL0     O27038   3.596   5.183   7.864 -0.0096  0.4820 -0.0972
  942MOL0     C27039   3.470   5.218   7.828  0.0467  0.3382 -0.4155
  942MOL0     C27040   3.395   5.267   7.926  0.4691 -0.4505  0.1834
  942MOL0     C27041   3.268   5.309   7.897  0.8153 -0.5715  0.0175
  942MOL0     C27042   3.215   5.293   7.764  0.0905  0.6277 -0.1015
  942MOL0     O27043   3.099   5.328   7.713 -0.0817 -0.4695 -0.0426
  942MOL0     C27044   3.002   5.382   7.810 -0.3112  0.1218 -0.0422
  942MOL0     C27045   2.864   5.415   7.735 -0.3096  0.2665  0.1819
  942MOL0     C27046   2.807   5.281   7.680  0.3107  0.5141 -0.0193
  942MOL0     C27047   2.685   5.284   7.589 -0.3111  0.2604  0.0338
  942MOL0     C27048   2.549   5.297   7.644  0.1594 -0.8960  0.9446
  942MOL0     C27049   2.513   5.235   7.771 -0.0701  0.2536  0.1369
  942MOL0     C27050   2.506   5.087   7.755  0.1003 -0.1641 -0.3586
  942MOL0     C27051   2.469   5.012   7.884 -0.5647 -0.0842 -0.5971
  942MOL0     N27052   2.576   5.023   7.985 -1.3709  0.1235 -0.0713
  942MOL0     C27053   2.711   4.996   7.957 -1.1183  0.8583  0.1682
  942MOL0     C27054   2.784   5.038   8.063  0.1594  0.0253 -0.4020
  942MOL0     C27055   2.930   5.037   8.105 -0.1733 -0.0396 -0.7628
  942MOL0     C27056   2.956   4.955   8.237  0.9844 -0.1688  0.8343
  942MOL0     C27057   3.089   4.976   8.299  0.3479  0.2029  0.3096
  942MOL0     C27058   3.083   5.083   8.419 -0.2870 -0.2411 -0.3555
  942MOL0     O27059   3.204   5.081   8.488  0.0049  0.4254  0.2674
  942MOL0     C27060   3.206   5.162   8.592 -0.0195  0.7520 -0.4303
  942MOL0     C27061   3.097   5.236   8.645 -0.1992 -0.1332  0.2723
  942MOL0     C27062   3.113   5.323   8.755  0.6088  0.6807 -0.0789
  942MOL0     C27063   2.986   5.408   8.785 -0.4765  0.3439  0.8375
  942MOL0     C27064   3.234   5.328   8.825  0.2240  0.4981 -0.0781
  942MOL0     C27065   3.260   5.408   8.948  0.0576 -0.6078  0.7069
  942MOL0     O27066   3.370   5.380   9.012 -0.5752 -0.0851  0.2278
  942MOL0     C27067   3.371   5.432   9.148  0.1808  0.5691 -0.1488
  942MOL0     C27068   3.387   5.568   9.176  0.1911  0.6029  0.7352
  942MOL0     C27069   3.409   5.612   9.305 -0.0949 -1.0170 -0.3609
  942MOL0     C27070   3.419   5.520   9.414  0.2973  0.1587 -0.3968
  942MOL0     O27071   3.465   5.557   9.538  0.4222 -0.3010 -0.6125
  942MOL0     C27072   3.415   5.673   9.606  0.7856 -0.2728 -0.5773
  942MOL0     C27073   3.463   5.684   9.747  0.2184 -1.1571 -0.5355
  942MOL0     C27074   3.407   5.808   9.818 -0.6281 -1.0659 -0.5823
  942MOL0     C27075   3.398   5.810   9.972  0.0847  0.2246 -0.7998
  942MOL0     C27076   3.539   5.845  10.037  0.8950  1.4168  0.0147
  942MOL0     C27077   3.604   5.984  10.008 -0.2885 -0.5208 -0.5653
  942MOL0     C27078   3.717   6.009  10.112  0.2880  0.1796  0.2867
  942MOL0     C27079   3.674   6.093  10.229  1.0259 -0.8069 -0.3074
  942MOL0    Cl27080   3.768   6.043  10.367 -0.2202  0.1656  0.1133
  942MOL0     C27081   3.393   5.386   9.387  0.1313  0.0782  0.0106
  942MOL0     C27082   3.374   5.342   9.251  0.4317  0.3943  0.3229
  942MOL0     O27083   3.195   5.509   8.962 -0.6293  0.6536 -1.1189
  942MOL0     C27084   3.346   5.266   8.770 -0.2283  0.5980 -0.0643
  942MOL0     C27085   3.329   5.173   8.653  0.6450 -1.3905 -0.3948
  942MOL0     N27086   2.697   5.094   8.157  1.1523  0.0763 -0.5788
  942MOL0     N27087   2.575   5.094   8.109  0.2674 -0.5573  0.1571
  942MOL0     C27088   3.290   5.220   7.674 -0.3214 -0.4509  0.0149
  942MOL0     C27089   3.421   5.184   7.698 -0.6921 -1.0459 -0.1258
  942MOL0     C27090   3.834   5.168   7.813  0.7760  0.4862  0.7188
  942MOL0     C27091   3.840   5.052   7.884  0.9298 -0.6997  0.3350
  942MOL0     C27092   3.963   4.998   7.924  0.6821 -0.7795 -0.3326
  942MOL0     C27093   4.077   5.058   7.889 -0.4569 -0.2957 -1.1153
  942MOL0     O27094   4.189   5.000   7.937 -0.8017  0.0437 -0.4431
  942MOL0     C27095   4.323   5.055   7.910  0.0325 -0.1664  0.1654
  942MOL0     C27096   4.353   5.029   7.767 -0.9380  0.0751 -0.5388
  942MOL0     C27097   4.492   5.080   7.726 -0.6713 -0.3299  0.0115
  942MOL0     C27098   4.537   5.020   7.590  0.1129  0.5153 -0.6489
  942MOL0     C27099   4.658   5.093   7.556 -0.1585  0.6714  0.7518
  942MOL0     C27100   4.760   5.147   7.531 -0.0439  0.7561 -0.5540
  942MOL0     C27101   4.073   5.176   7.808 -0.1715  0.4272 -0.1644
  942MOL0     C27102   3.953   5.227   7.769 -0.2724  0.3885 -0.3659
  942MOL0     H27103   3.438   5.285   8.024  0.4836 -2.9375  0.6939
  942MOL0     H27104   3.213   5.362   7.974  1.3841  0.0011  0.0418
  942MOL0     H27105   2.990   5.311   7.893 -0.7184  0.8138  0.5041
  942MOL0     H27106   3.037   5.474   7.857  0.6899 -0.6513  0.7882
  942MOL0     H27107   2.794   5.447   7.813  1.0642  0.9532  1.1791
  942MOL0     H27108   2.885   5.485   7.654  1.2651 -0.2960  0.0736
  942MOL0     H27109   2.876   5.228   7.613 -2.9096 -3.2450 -0.8210
  942MOL0     H27110   2.776   5.215   7.762 -1.2092 -1.2758 -1.9035
  942MOL0     H27111   2.692   5.365   7.515  2.2761 -1.8203 -2.2088
  942MOL0     H27112   2.679   5.187   7.540 -1.4613 -0.1925  1.0296
  942MOL0     H27113   2.539   5.400   7.680  1.2626 -1.3479  2.6734
  942MOL0     H27114   2.477   5.274   7.565  1.4417 -0.2774 -0.4450
  942MOL0     H27115   2.581   5.260   7.853  0.2630 -0.3647  0.0497
  942MOL0     H27116   2.412   5.260   7.807 -0.0795 -1.2029  1.2047
  942MOL0     H27117   2.426   5.078   7.682  0.3798 -0.6190 -0.6161
  942MOL0     H27118   2.584   5.031   7.703 -0.5465 -0.3219 -1.1742
  942MOL0     H27119   2.444   4.911   7.850  0.2810  0.2927 -2.3998
  942MOL0     H27120   2.382   5.061   7.930  1.3658  1.8624  1.2506
  942MOL0     H27121   2.766   4.972   7.866  2.4814  1.2199  2.0680
  942MOL0     H27122   2.987   5.001   8.019 -0.7291 -1.5361 -0.5357
  942MOL0     H27123   2.964   5.139   8.126 -0.1105 -0.4120  1.0649
  942MOL0     H27124   2.928   4.852   8.212 -0.0993  0.3288 -0.0739
  942MOL0     H27125   2.884   4.994   8.309  1.8588 -0.2618  1.7833
  942MOL0     H27126   3.155   5.023   8.225 -0.9443  0.6130 -0.6017
  942MOL0     H27127   3.133   4.879   8.325  3.6332  1.0187 -1.6427
  942MOL0     H27128   3.015   5.041   8.494 -1.6304  4.6480  1.5668
  942MOL0     H27129   3.057   5.181   8.377  0.7398  0.0595 -0.3131
  942MOL0     H27130   3.000   5.230   8.596  0.5620  1.2588 -1.5644
  942MOL0     H27131   2.908   5.369   8.718  0.2712  0.1285  0.0601
  942MOL0     H27132   2.958   5.389   8.889  0.8116 -0.3221  1.0981
  942MOL0     H27133   2.999   5.516   8.775 -3.0658  0.6537  0.2578
  942MOL0     H27134   3.380   5.640   9.095 -1.4544  0.8363  1.0402
  942MOL0     H27135   3.431   5.716   9.328 -2.3013 -0.1759 -1.6716
  942MOL0     H27136   3.428   5.761   9.542  1.0863  1.1593  1.3642
  942MOL0     H27137   3.306   5.669   9.608  0.7120  0.8882 -1.3196
  942MOL0     H27138   3.424   5.601   9.807 -2.0294  1.6497  2.3161
  942MOL0     H27139   3.571   5.698   9.749 -0.1205  2.3473 -1.0502
  942MOL0     H27140   3.304   5.822   9.785  0.2539  0.0711 -3.0730
  942MOL0     H27141   3.455   5.903   9.792 -1.1465 -0.6737 -0.1448
  942MOL0     H27142   3.341   5.903   9.979 -0.6444  0.0097 -3.0355
  942MOL0     H27143   3.358   5.720  10.020  2.8713 -0.0785  1.1797
  942MOL0     H27144   3.604   5.764  10.003  0.9734  1.1069  0.8838
  942MOL0     H27145   3.544   5.838  10.146  1.2435  0.9703 -0.0269
  942MOL0     H27146   3.648   5.964   9.910 -0.7380 -1.3076 -0.6150
  942MOL0     H27147   3.536   6.070  10.006  0.4934  0.1088 -0.7897
  942MOL0     H27148   3.803   6.062  10.070 -1.1745  3.5110  1.1500
  942MOL0     H27149   3.744   5.913  10.156 -0.2562 -0.2883 -0.3924
  942MOL0     H27150   3.568   6.087  10.256  1.1966 -1.2465  0.2928
  942MOL0     H27151   3.694   6.199  10.210 -0.7248 -0.6840 -1.7635
  942MOL0     H27152   3.399   5.312   9.466 -2.2935  0.8856  1.0138
  942MOL0     H27153   3.349   5.242   9.217 -1.0962 -0.1769  2.9057
  942MOL0     H27154   3.444   5.278   8.815  0.2833  0.5394 -1.1265
  942MOL0     H27155   3.421   5.120   8.631  0.7941 -1.1059 -0.4629
  942MOL0     H27156   3.254   5.197   7.574  3.5683 -2.1310 -1.1799
  942MOL0     H27157   3.483   5.136   7.623  3.2389 -1.2120  2.9110
  942MOL0     H27158   3.748   4.998   7.900 -0.3308  1.2752  0.0995
  942MOL0     H27159   3.949   4.907   7.982 -0.7507  0.7390  1.8632
  942MOL0     H27160   4.341   5.158   7.942  0.8075 -0.8571  2.1263
  942MOL0     H27161   4.397   4.996   7.965 -0.0024  0.8961  1.4078
  942MOL0     H27162   4.280   5.064   7.693 -0.4294 -0.0359 -1.1051
  942MOL0     H27163   4.370   4.921   7.764  1.2342  0.4018 -1.2738
  942MOL0     H27164   4.568   5.047   7.798 -1.2662 -1.0161  0.3403
  942MOL0     H27165   4.480   5.189   7.727 -1.7597 -0.3498 -2.6638
  942MOL0     H27166   4.464   5.049   7.514  1.8971  1.9753 -1.9044
  942MOL0     H27167   4.550   4.912   7.604 -4.8572 -0.0121  2.0792
  942MOL0     H27168   4.852   5.195   7.507  0.1012 -0.4720 -2.7520
  942MOL0     H27169   4.170   5.217   7.781 -0.3463 -0.1830 -1.7928
  942MOL0     H27170   3.956   5.322   7.717  0.4385  2.1610  2.6797
  943MOL0     O27171   6.347   7.774   6.724  0.1769 -0.9093 -0.7163
  943MOL0     C27172   6.458   7.767   6.682  0.2440 -0.6223 -0.7788
  943MOL0     O27173   6.494   7.713   6.561 -0.6766  0.9318 -0.8231
  943MOL0     C27174   6.393   7.664   6.487  0.0698  0.2082  0.1554
  943MOL0     C27175   6.306   7.570   6.536 -0.7537 -0.3422  0.1035
  943MOL0     C27176   6.211   7.521   6.441 -0.9618 -0.0636 -1.1868
  943MOL0     C27177   6.213   7.548   6.307  0.3561  0.4498 -0.0739
  943MOL0     O27178   6.126   7.479   6.230  0.1085  0.1592  0.2158
  943MOL0     C27179   6.156   7.478   6.093  1.2945 -0.2846  0.4715
  943MOL0     C27180   6.058   7.380   6.024  0.0511  0.2387 -0.2538
  943MOL0     C27181   5.917   7.426   6.041  0.3886 -0.1004 -0.6567
  943MOL0     C27182   5.821   7.372   5.935 -0.6971  1.2559 -0.7052
  943MOL0     C27183   5.700   7.467   5.912  0.0709 -0.4772  0.5688
  943MOL0     C27184   5.592   7.399   5.827 -0.5239  1.1020 -0.3112
  943MOL0     C27185   5.638   7.361   5.689 -0.8191  0.1743 -0.7058
  943MOL0     C27186   5.524   7.303   5.613  0.1603 -0.1267  0.0104
  943MOL0     N27187   5.406   7.391   5.601  0.0938  0.5024  0.4071
  943MOL0     C27188   5.367   7.471   5.498 -0.3414  0.3148  0.7228
  943MOL0     C27189   5.242   7.506   5.527 -0.4225  0.4224  0.3865
  943MOL0     C27190   5.145   7.572   5.432 -0.4617 -0.0429 -0.3028
  943MOL0     C27191   5.208   7.717   5.382  0.3839  0.3739 -0.1203
  943MOL0     C27192   5.091   7.816   5.364  0.0098  0.1082 -0.1218
  943MOL0     C27193   5.000   7.785   5.248  0.9886 -0.0231 -0.1454
  943MOL0     O27194   5.053   7.844   5.134  0.2391  0.0926 -0.2827
  943MOL0     C27195   5.011   7.793   5.013  0.0773  0.3705 -0.2126
  943MOL0     C27196   4.908   7.846   4.943  0.2733  0.2274 -0.3418
  943MOL0     C27197   4.867   7.800   4.812 -0.3482  0.5575 -0.2116
  943MOL0     C27198   4.794   7.889   4.717  0.4024 -0.1468  0.2874
  943MOL0     C27199   4.946   7.692   4.759 -0.2309  0.2575 -0.0372
  943MOL0     C27200   4.922   7.629   4.622  0.4006 -0.3839  0.2565
  943MOL0     O27201   4.960   7.499   4.607 -0.4872  0.2439 -0.0739
  943MOL0     C27202   5.039   7.478   4.494 -0.2981  0.7965 -0.0434
  943MOL0     C27203   4.974   7.465   4.369  0.8305 -0.3285 -0.0515
  943MOL0     C27204   5.047   7.456   4.257 -0.1765 -0.2767  0.5130
  943MOL0     C27205   5.187   7.485   4.249 -0.1208  0.1418 -0.9449
  943MOL0     O27206   5.258   7.472   4.132  0.2097  0.3001  0.2000
  943MOL0     C27207   5.215   7.541   4.016  0.4669 -0.0926 -0.9899
  943MOL0     C27208   5.241   7.477   3.890  0.5822  0.0892  0.3419
  943MOL0     C27209   5.191   7.578   3.788  0.3255  0.5106 -0.3406
  943MOL0     C27210   5.212   7.539   3.650  0.4529 -0.7887 -0.3206
  943MOL0     C27211   5.361   7.536   3.600 -0.2460  0.2208  0.1559
  943MOL0     C27212   5.379   7.483   3.458 -0.5119 -0.6173  0.8747
  943MOL0     C27213   5.511   7.495   3.382 -0.2434  0.4851  0.2452
  943MOL0     C27214   5.629   7.436   3.460 -0.3879 -0.0304 -0.7802
  943MOL0    Cl27215   5.587   7.264   3.502 -0.2463  0.0650 -0.3654
  943MOL0     C27216   5.259   7.493   4.372  0.2663  0.2863  0.8062
  943MOL0     C27217   5.184   7.468   4.492 -0.5836  1.0501  0.2931
  943MOL0     O27218   4.892   7.713   4.533  0.4256  0.4350  0.4720
  943MOL0     C27219   5.057   7.637   4.840  0.8226 -1.3589  0.3141
  943MOL0     C27220   5.091   7.692   4.956 -0.1557  0.9104 -0.0331
  943MOL0     N27221   5.201   7.460   5.650 -1.7468  0.2536  0.1213
  943MOL0     N27222   5.309   7.396   5.691  0.9367  1.0495 -0.2790
  943MOL0     C27223   6.313   7.640   6.264  0.8918  0.6268 -0.2543
  943MOL0     C27224   6.399   7.704   6.351  0.8162  0.2941  0.1881
  943MOL0     C27225   6.571   7.819   6.769  0.1505  0.7664  0.2802
  943MOL0     C27226   6.563   7.829   6.907  0.1949  0.2455  0.6001
  943MOL0     C27227   6.677   7.858   6.983  1.1777  1.0457  0.7087
  943MOL0     C27228   6.787   7.907   6.920  0.2724 -0.6065 -0.4776
  943MOL0     O27229   6.892   7.951   6.989  0.2089 -0.5210  0.6139
  943MOL0     C27230   7.013   7.880   6.986  0.2151  0.4443 -0.8582
  943MOL0     C27231   7.084   7.895   7.119  1.0234  0.1508 -0.0615
  943MOL0     C27232   6.996   7.839   7.232  0.2632  0.3422  0.6339
  943MOL0     C27233   7.060   7.876   7.367 -0.8386 -0.2790  0.7205
  943MOL0     C27234   6.989   7.831   7.482  0.5856  0.5308  0.2253
  943MOL0     C27235   6.927   7.797   7.577 -0.0743  0.3853 -0.1713
  943MOL0     C27236   6.791   7.922   6.780  0.9149 -0.3857 -0.3138
  943MOL0     C27237   6.689   7.865   6.709  1.6109 -0.4632  0.1252
  943MOL0     H27238   6.311   7.541   6.641 -0.1633 -1.5147 -0.2319
  943MOL0     H27239   6.142   7.441   6.465 -0.5814 -0.7503 -2.2832
  943MOL0     H27240   6.144   7.576   6.044 -0.4484 -0.6652  0.0848
  943MOL0     H27241   6.257   7.436   6.088  1.0681 -0.7176 -0.8683
  943MOL0     H27242   6.091   7.366   5.921 -1.3005  0.2642 -0.7191
  943MOL0     H27243   6.055   7.279   6.064  0.3683 -0.8006 -2.6905
  943MOL0     H27244   5.882   7.386   6.136 -1.1542 -0.4852 -1.3503
  943MOL0     H27245   5.924   7.534   6.049  2.2690 -0.2312 -0.1605
  943MOL0     H27246   5.866   7.359   5.836 -1.4358 -1.5047 -0.7611
  943MOL0     H27247   5.784   7.274   5.967  0.0618  0.9888 -0.6249
  943MOL0     H27248   5.659   7.511   6.003  0.1939 -0.1133  0.4506
  943MOL0     H27249   5.725   7.553   5.850  1.4176  1.0481  3.0795
  943MOL0     H27250   5.547   7.322   5.889 -0.8734  0.2972 -1.5397
  943MOL0     H27251   5.522   7.479   5.800  0.7826  1.3963 -3.2240
  943MOL0     H27252   5.672   7.446   5.629 -0.4244 -1.1663 -2.4771
  943MOL0     H27253   5.711   7.281   5.700 -2.7867 -1.8662 -1.5384
  943MOL0     H27254   5.497   7.210   5.664  0.4780 -1.2172 -1.7449
  943MOL0     H27255   5.547   7.265   5.513  0.7619  1.0533 -0.3156
  943MOL0     H27256   5.416   7.492   5.403  0.3930 -1.4536  0.6601
  943MOL0     H27257   5.121   7.501   5.352 -0.6134  1.3401 -1.5332
  943MOL0     H27258   5.051   7.596   5.483 -1.0683 -0.4146 -1.2169
  943MOL0     H27259   5.275   7.708   5.296 -1.3178 -1.2311 -1.3662
  943MOL0     H27260   5.257   7.754   5.472 -2.2365 -1.5562  2.2966
  943MOL0     H27261   5.132   7.917   5.355  2.3088 -0.7213  0.2668
  943MOL0     H27262   5.031   7.822   5.455  1.6946  2.5635  0.9076
  943MOL0     H27263   4.899   7.827   5.262 -0.5409 -3.6066  0.8289
  943MOL0     H27264   4.996   7.676   5.238 -1.2100  0.0905 -1.2227
  943MOL0     H27265   4.853   7.932   4.981 -2.8216 -1.6413 -0.2351
  943MOL0     H27266   4.731   7.954   4.778  0.0916 -0.8931  0.7750
  943MOL0     H27267   4.862   7.950   4.657 -1.9364  0.9252 -1.4364
  943MOL0     H27268   4.730   7.833   4.647 -0.6786 -2.2422  2.7894
  943MOL0     H27269   4.866   7.473   4.360  0.1469  1.9620  5.6579
  943MOL0     H27270   4.988   7.464   4.166 -1.0473 -0.9010  1.0125
  943MOL0     H27271   5.110   7.566   4.037  0.8373 -0.5064  1.8022
  943MOL0     H27272   5.259   7.640   4.032 -0.5635  0.1421  0.6442
  943MOL0     H27273   5.347   7.461   3.866  0.1919  0.2751 -1.6455
  943MOL0     H27274   5.198   7.376   3.892  0.7672  0.0116  0.7954
  943MOL0     H27275   5.234   7.676   3.810 -0.2781  0.2230  2.5049
  943MOL0     H27276   5.082   7.572   3.788  0.3312  0.1752 -1.4526
  943MOL0     H27277   5.180   7.435   3.643  0.5293 -0.7875 -0.6555
  943MOL0     H27278   5.158   7.600   3.577 -1.0720 -1.9430 -0.2145
  943MOL0     H27279   5.422   7.478   3.669 -0.3074  3.5057  3.2648
  943MOL0     H27280   5.400   7.638   3.590 -1.2041  0.4531 -1.8319
  943MOL0     H27281   5.352   7.378   3.471  1.4988 -0.9961  2.5854
  943MOL0     H27282   5.307   7.538   3.397  0.1055 -1.5678 -0.7818
  943MOL0     H27283   5.529   7.595   3.343  2.3285  0.5034  1.2921
  943MOL0     H27284   5.510   7.430   3.294 -3.8364 -0.8890  1.1119
  943MOL0     H27285   5.642   7.496   3.550 -1.6889 -0.6349 -0.1512
  943MOL0     H27286   5.725   7.448   3.410 -1.2971 -0.3057 -2.6751
  943MOL0     H27287   5.367   7.493   4.378  0.4398  1.6510 -1.4576
  943MOL0     H27288   5.249   7.480   4.578 -0.3410  1.1237  0.1011
  943MOL0     H27289   5.134   7.570   4.802  1.2400 -0.3850 -0.5845
  943MOL0     H27290   5.168   7.649   5.019 -3.1656 -1.9105  2.0099
  943MOL0     H27291   6.321   7.664   6.158  0.4705 -2.5148 -1.0950
  943MOL0     H27292   6.492   7.749   6.318 -1.1239  3.4758 -1.4157
  943MOL0     H27293   6.476   7.780   6.949  0.8203 -1.7865 -0.3770
  943MOL0     H27294   6.666   7.842   7.090 -1.7889 -2.9727  0.0698
  943MOL0     H27295   6.994   7.774   6.968 -1.1549  0.8305 -1.9000
  943MOL0     H27296   7.076   7.924   6.909  2.5473  5.2732  3.1945
  943MOL0     H27297   7.087   8.003   7.137  0.0243 -0.0157  1.1956
  943MOL0     H27298   7.187   7.859   7.118  0.1506 -2.5418 -1.2569
  943MOL0     H27299   7.011   7.731   7.219  2.3084  0.8002 -1.3950
  943MOL0     H27300   6.894   7.878   7.232  0.8794  2.1013  2.4267
  943MOL0     H27301   7.069   7.984   7.377 -0.5607 -0.4350  2.3894
  943MOL0     H27302   7.161   7.835   7.371  0.0074  1.3087 -1.7595
  943MOL0     H27303   6.857   7.762   7.651 -0.1486  0.9240  0.0175
  943MOL0     H27304   6.870   7.983   6.737  0.4075  0.2889 -0.3128
  943MOL0     H27305   6.686   7.869   6.600  0.9742 -1.0271  0.1162
  944MOL0     O27306  10.387   1.565   0.807 -0.3793  0.7536  0.4471
  944MOL0     C27307  10.275   1.516   0.784 -0.1294  0.6810 -0.3343
  944MOL0     O27308  10.194   1.461   0.878  0.7186  0.3440 -0.4221
  944MOL0     C27309  10.247   1.451   1.007 -0.2410  0.6594 -0.2938
  944MOL0     C27310  10.177   1.488   1.122  1.2370  0.3137 -0.4785
  944MOL0     C27311  10.223   1.472   1.256 -0.4570  0.0359 -0.4231
  944MOL0     C27312  10.354   1.418   1.271 -0.3078 -0.2359 -1.3293
  944MOL0     O27313  10.399   1.408   1.404  0.0122 -0.3847  0.0485
  944MOL0     C27314  10.546   1.382   1.427 -0.4083  0.4306 -0.6819
  944MOL0     C27315  10.571   1.231   1.425 -0.2710 -0.3233 -0.0259
  944MOL0     C27316  10.719   1.190   1.440  0.1218  0.5904 -0.1059
  944MOL0     C27317  10.760   1.182   1.584  0.3725  0.0320 -0.4128
  944MOL0     C27318  10.888   1.094   1.590  1.0698  0.7210 -0.1498
  944MOL0     C27319  10.928   1.078   1.736 -1.1226  0.5224 -0.3608
  944MOL0     C27320  11.061   1.000   1.737 -1.0431 -0.0591  0.8530
  944MOL0     C27321  11.039   0.852   1.698  1.0016 -0.3756 -0.5987
  944MOL0     N27322  11.153   0.771   1.638 -0.4553 -0.3467 -0.1822
  944MOL0     C27323  11.162   0.750   1.500  0.4848  0.9940 -0.7752
  944MOL0     C27324  11.275   0.675   1.489  0.2217 -0.8686  1.5240
  944MOL0     C27325  11.319   0.603   1.361 -0.2297 -0.5987  0.0458
  944MOL0     C27326  11.331   0.704   1.244  0.0528 -0.3667 -0.6842
  944MOL0     C27327  11.418   0.632   1.136 -0.2476  0.2501 -0.4102
  944MOL0     C27328  11.442   0.740   1.035  0.1791 -0.0898 -0.3779
  944MOL0     O27329  11.517   0.847   1.076 -0.3247 -0.1174  0.5459
  944MOL0     C27330  11.587   0.912   0.978  0.4135  0.2379 -0.3363
  944MOL0     C27331  11.637   0.855   0.861  0.9612 -0.1857 -0.3390
  944MOL0     C27332  11.707   0.931   0.767 -0.3842  0.5133 -0.6692
  944MOL0     C27333  11.753   0.858   0.644  0.5100  0.1044  0.0342
  944MOL0     C27334  11.737   1.067   0.793 -0.0651 -1.0579  0.6931
  944MOL0     C27335  11.829   1.149   0.703  0.1202  0.4464  0.1993
  944MOL0     O27336  11.940   1.086   0.653  0.0661 -0.3363 -0.0178
  944MOL0     C27337  12.037   1.161   0.596  0.5317 -1.0518  0.8582
  944MOL0     C27338  12.120   1.093   0.511 -0.2511 -0.3518 -0.0650
  944MOL0     C27339  12.225   1.150   0.446 -0.3816  0.0762  0.0702
  944MOL0     C27340  12.271   1.278   0.497  0.4079  0.6190  0.1623
  944MOL0     O27341  12.400   1.325   0.463 -0.3623  0.4091 -0.2147
  944MOL0     C27342  12.465   1.432   0.534  0.2136  0.4506  0.9717
  944MOL0     C27343  12.614   1.434   0.473  0.4963  0.5050 -0.8804
  944MOL0     C27344  12.687   1.306   0.512 -0.6475  1.1081  0.5467
  944MOL0     C27345  12.825   1.289   0.443  0.0884 -0.7776  0.5939
  944MOL0     C27346  12.910   1.170   0.499 -0.5040  0.6723  0.0565
  944MOL0     C27347  13.038   1.165   0.426 -1.1207 -0.3939 -0.4909
  944MOL0     C27348  13.141   1.049   0.469  0.3688  0.0826  0.5673
  944MOL0     C27349  13.222   1.058   0.595 -0.1053 -0.2092  0.3415
  944MOL0    Cl27350  13.108   1.051   0.744 -0.4496  0.1418  0.2575
  944MOL0     C27351  12.186   1.345   0.589 -0.8996  0.6867 -0.8414
  944MOL0     C27352  12.074   1.286   0.643  0.0828  0.1316  0.4239
  944MOL0     O27353  11.786   1.258   0.667  0.1973  0.6375 -0.1784
  944MOL0     C27354  11.693   1.120   0.917  0.3510 -1.3630 -1.7359
  944MOL0     C27355  11.620   1.040   1.012 -0.1453 -0.8006 -0.0642
  944MOL0     N27356  11.333   0.665   1.611 -0.4570  0.5081 -0.6446
  944MOL0     N27357  11.262   0.722   1.706  0.0080 -0.3884  0.0326
  944MOL0     C27358  10.426   1.374   1.156  0.0533 -0.6240 -0.1558
  944MOL0     C27359  10.370   1.387   1.031  0.1419 -0.7653 -0.6456
  944MOL0     C27360  10.229   1.520   0.643 -0.6495  0.3935 -0.6952
  944MOL0     C27361  10.239   1.629   0.555  0.4775  0.1170 -0.6904
  944MOL0     C27362  10.198   1.618   0.421 -0.1389  0.5123 -0.7395
  944MOL0     C27363  10.139   1.496   0.377  0.5280 -0.1439  0.2395
  944MOL0     O27364  10.079   1.468   0.248 -0.6411 -0.1781  0.4419
  944MOL0     C27365  10.089   1.573   0.152  0.9290  0.0991  0.4962
  944MOL0     C27366  10.210   1.560   0.056  0.5223  0.4920 -0.0660
  944MOL0     C27367  10.209   1.435  -0.034 -0.1424 -0.2643 -0.1563
  944MOL0     C27368  10.268   1.310   0.022 -1.1639 -0.2063 -0.4319
  944MOL0     C27369  10.203   1.186  -0.028 -0.7605  0.4542 -0.2057
  944MOL0     C27370  10.135   1.083  -0.037 -0.5933  0.8882  0.3309
  944MOL0     C27371  10.110   1.403   0.468  0.3409  0.0662  0.0096
  944MOL0     C27372  10.160   1.410   0.596  1.1226 -0.4987 -0.0627
  944MOL0     H27373  10.085   1.542   1.102  1.4076  1.5390  1.6532
  944MOL0     H27374  10.170   1.515   1.341 -1.9231 -0.0088 -1.2846
  944MOL0     H27375  10.609   1.435   1.355  0.1040 -1.1789 -1.4756
  944MOL0     H27376  10.578   1.412   1.527  4.1520 -5.0389  0.0357
  944MOL0     H27377  10.517   1.185   1.508 -0.2802  0.1318  0.2234
  944MOL0     H27378  10.524   1.176   1.343  1.2711 -2.2337  0.2869
  944MOL0     H27379  10.728   1.088   1.402 -2.7840  1.3120 -3.2199
  944MOL0     H27380  10.781   1.267   1.392  2.0508 -0.7688  0.0762
  944MOL0     H27381  10.796   1.279   1.617 -0.3052  0.8408 -1.9477
  944MOL0     H27382  10.669   1.151   1.638  1.4346 -0.2610  1.2864
  944MOL0     H27383  10.852   0.996   1.557  0.2450  1.5247 -1.7773
  944MOL0     H27384  10.957   1.131   1.514 -1.2035  1.3807 -2.0050
  944MOL0     H27385  10.949   1.176   1.781  2.4444  0.5591 -1.7821
  944MOL0     H27386  10.848   1.037   1.798  0.7456  0.3710  2.1137
  944MOL0     H27387  11.136   1.028   1.662 -0.7656 -1.3349  0.6250
  944MOL0     H27388  11.104   1.004   1.838 -0.2024 -0.9812  0.5581
  944MOL0     H27389  10.956   0.828   1.632  2.9078 -2.2134 -2.4960
  944MOL0     H27390  11.006   0.805   1.792 -2.2368  0.7142 -1.0808
  944MOL0     H27391  11.077   0.782   1.441 -2.8225 -4.8229  0.1213
  944MOL0     H27392  11.424   0.576   1.373  0.2388  0.8048 -0.6471
  944MOL0     H27393  11.248   0.521   1.346 -3.8097  2.3882 -0.9307
  944MOL0     H27394  11.388   0.793   1.272  1.6794 -0.3499 -3.6282
  944MOL0     H27395  11.233   0.728   1.203 -1.0702 -1.9270  0.9425
  944MOL0     H27396  11.363   0.546   1.095 -0.0685  0.2076 -0.5655
  944MOL0     H27397  11.514   0.601   1.179 -1.1793  1.2327  2.6285
  944MOL0     H27398  11.348   0.785   1.002  0.6091  0.8033 -0.4124
  944MOL0     H27399  11.502   0.685   0.962  0.5033  1.2668 -1.1695
  944MOL0     H27400  11.629   0.751   0.830  0.2120  0.1745 -1.4118
  944MOL0     H27401  11.669   0.795   0.614  0.3711  1.4152 -2.6260
  944MOL0     H27402  11.762   0.936   0.568 -0.4145  1.8879  1.6686
  944MOL0     H27403  11.842   0.799   0.669 -2.2916 -3.1632  3.4564
  944MOL0     H27404  12.088   0.994   0.482 -0.4775 -0.2880 -0.0386
  944MOL0     H27405  12.276   1.083   0.377 -0.6898 -0.2579  0.1695
  944MOL0     H27406  12.413   1.522   0.500 -0.6877 -1.3636 -3.0652
  944MOL0     H27407  12.471   1.419   0.643  1.6114  0.8943  0.9724
  944MOL0     H27408  12.611   1.454   0.365 -0.0776 -2.6293 -1.5298
  944MOL0     H27409  12.666   1.523   0.508 -1.6162  1.6273 -0.4299
  944MOL0     H27410  12.624   1.221   0.483 -0.9423  1.3097  0.5893
  944MOL0     H27411  12.705   1.302   0.619 -0.1365 -0.0313  0.4223
  944MOL0     H27412  12.803   1.261   0.339 -0.4023 -0.6652  0.6681
  944MOL0     H27413  12.887   1.379   0.443 -3.0265  1.4999  0.6255
  944MOL0     H27414  12.855   1.075   0.499  0.0097  0.3442  1.4294
  944MOL0     H27415  12.932   1.185   0.605  2.5282  2.4425 -0.7075
  944MOL0     H27416  13.037   1.159   0.316  0.2352  0.1098 -0.5569
  944MOL0     H27417  13.082   1.264   0.443 -1.9795  0.4419 -2.7293
  944MOL0     H27418  13.218   1.039   0.392  0.8255  1.4816  0.8150
  944MOL0     H27419  13.091   0.952   0.482  0.3306 -0.6088 -3.5203
  944MOL0     H27420  13.272   1.155   0.595 -0.5361  0.0493  2.0112
  944MOL0     H27421  13.303   0.985   0.607  0.8252 -0.2791 -4.3597
  944MOL0     H27422  12.213   1.445   0.623 -1.8866  0.9104 -0.6742
  944MOL0     H27423  12.005   1.332   0.712  0.1336 -0.3652  0.8105
  944MOL0     H27424  11.705   1.223   0.947  0.9859 -2.5626  2.9706
  944MOL0     H27425  11.579   1.082   1.103 -0.8113  1.1002 -1.1674
  944MOL0     H27426  10.526   1.333   1.165 -0.2846 -2.8087 -4.3310
  944MOL0     H27427  10.433   1.366   0.945  2.6774  1.0295  0.6341
  944MOL0     H27428  10.281   1.716   0.604  3.0411 -2.1401  1.5066
  944MOL0     H27429  10.210   1.704   0.355 -1.2579 -0.4575 -2.2786
  944MOL0     H27430   9.999   1.560   0.091  2.4103 -1.6884 -1.5046
  944MOL0     H27431  10.091   1.674   0.193 -0.4297  0.3378  0.0316
  944MOL0     H27432  10.307   1.570   0.106  0.6072 -0.3939 -0.0422
  944MOL0     H27433  10.204   1.651  -0.003  1.6836  1.2381  0.9189
  944MOL0     H27434  10.270   1.454  -0.123 -1.3288  2.2815 -0.5089
  944MOL0     H27435  10.106   1.419  -0.067  0.1447  1.3318 -2.0070
  944MOL0     H27436  10.270   1.322   0.131  1.7407  1.9936 -0.5834
  944MOL0     H27437  10.369   1.304  -0.019 -1.7218  0.6026 -2.0302
  944MOL0     H27438  10.079   0.992  -0.040 -0.9402  1.0992 -2.5682
  944MOL0     H27439  10.055   1.312   0.446 -1.2273  0.9146  0.2258
  944MOL0     H27440  10.141   1.324   0.660 -2.4729 -0.0752 -0.3846
  945MOL0     O27441   1.888   7.050   3.741 -0.8249  0.3109 -0.3280
  945MOL0     C27442   1.767   7.053   3.754  0.2053  0.5683  1.1599
  945MOL0     O27443   1.696   7.156   3.795 -0.3946 -0.2074 -0.4581
  945MOL0     C27444   1.760   7.257   3.862 -0.2025  0.8938  0.2824
  945MOL0     C27445   1.752   7.396   3.830  0.3335  0.2299 -0.2915
  945MOL0     C27446   1.813   7.492   3.910 -0.6217 -0.6222  0.3596
  945MOL0     C27447   1.891   7.454   4.019 -0.4659  0.0521 -0.6321
  945MOL0     O27448   1.975   7.529   4.094 -0.0240 -0.4122 -0.4149
  945MOL0     C27449   1.971   7.678   4.103  0.4788  0.5108 -0.0211
  945MOL0     C27450   2.011   7.714   4.243  0.2840 -0.3685  0.2471
  945MOL0     C27451   2.140   7.658   4.301 -0.0395 -0.4405 -0.1268
  945MOL0     C27452   2.273   7.690   4.221 -1.1861  0.0682  0.0929
  945MOL0     C27453   2.389   7.615   4.277 -0.3090 -0.4405  0.1129
  945MOL0     C27454   2.454   7.677   4.402  0.0758  0.3792 -0.1199
  945MOL0     C27455   2.561   7.600   4.477  0.4147  1.0302  0.5936
  945MOL0     C27456   2.582   7.662   4.617  0.2514  0.0248  0.5721
  945MOL0     N27457   2.694   7.602   4.685  0.4232  0.2018 -0.1686
  945MOL0     C27458   2.828   7.618   4.659  0.2658  0.4116  0.2916
  945MOL0     C27459   2.894   7.582   4.774  0.4790  0.2575 -0.2895
  945MOL0     C27460   3.041   7.592   4.793  0.5381 -0.6192 -0.2145
  945MOL0     C27461   3.061   7.724   4.876 -0.6037  0.2421  1.0772
  945MOL0     C27462   3.024   7.718   5.024  0.0744 -0.4076  1.1305
  945MOL0     C27463   3.059   7.844   5.093  0.8845 -0.9015 -0.2100
  945MOL0     O27464   3.195   7.875   5.070 -0.3385 -0.0485 -0.4039
  945MOL0     C27465   3.212   8.004   5.028  0.1957  0.2957  0.4478
  945MOL0     C27466   3.239   8.032   4.900  0.1317 -0.2000  0.4057
  945MOL0     C27467   3.258   8.172   4.854  0.1977 -0.6322  0.7520
  945MOL0     C27468   3.313   8.200   4.716  0.1447  0.0252 -0.0739
  945MOL0     C27469   3.261   8.279   4.951 -0.4697 -0.1778  0.0881
  945MOL0     C27470   3.297   8.422   4.925  0.8560  0.4758 -0.2815
  945MOL0     O27471   3.359   8.496   5.028 -0.0328 -0.0463  1.4838
  945MOL0     C27472   3.408   8.618   4.976 -0.1047  1.1199  0.8220
  945MOL0     C27473   3.356   8.737   5.014 -0.5349  0.2820 -0.5996
  945MOL0     C27474   3.402   8.853   4.965  1.2288 -0.1897 -0.9082
  945MOL0     C27475   3.498   8.855   4.868  1.1282 -0.7491 -0.4555
  945MOL0     O27476   3.529   8.982   4.826  0.6600  0.1901  0.9577
  945MOL0     C27477   3.649   8.993   4.741 -0.5086  0.3311  0.2005
  945MOL0     C27478   3.677   9.141   4.717 -0.9040 -0.9111  0.0943
  945MOL0     C27479   3.583   9.226   4.628  0.4585 -0.3255  0.0602
  945MOL0     C27480   3.652   9.371   4.614  0.5224 -0.6657  0.6730
  945MOL0     C27481   3.536   9.460   4.559 -0.8313  0.6266  0.6025
  945MOL0     C27482   3.586   9.596   4.514  0.4031 -0.1485  0.5073
  945MOL0     C27483   3.689   9.596   4.399 -1.3268  0.0812  0.1098
  945MOL0     C27484   3.739   9.744   4.375  0.1577  1.1354  0.4148
  945MOL0    Cl27485   3.604   9.863   4.336  0.0361 -0.3292  0.2124
  945MOL0     C27486   3.544   8.736   4.821  0.1212  0.1655  0.8226
  945MOL0     C27487   3.508   8.620   4.874 -0.3400  0.2768 -0.5823
  945MOL0     O27488   3.239   8.468   4.829 -0.0316 -0.6880 -0.6185
  945MOL0     C27489   3.226   8.237   5.084 -0.6486  0.0421  0.2614
  945MOL0     C27490   3.191   8.107   5.118 -0.4541  0.1740 -0.5917
  945MOL0     N27491   2.791   7.545   4.862 -0.5013  0.2022 -0.0842
  945MOL0     N27492   2.678   7.552   4.810 -0.4781 -0.1256  0.5618
  945MOL0     C27493   1.905   7.323   4.043  0.0313  0.0306 -0.7245
  945MOL0     C27494   1.852   7.221   3.968 -0.3542 -0.4964  0.2519
  945MOL0     C27495   1.691   6.931   3.722  0.4022 -0.1859  0.4467
  945MOL0     C27496   1.564   6.918   3.780  0.8541  0.2601 -0.1789
  945MOL0     C27497   1.475   6.818   3.750 -0.5857 -0.2364 -0.4847
  945MOL0     C27498   1.524   6.716   3.659 -0.3722 -0.3177  0.6366
  945MOL0     O27499   1.440   6.619   3.609  0.1543  0.1117 -0.6419
  945MOL0     C27500   1.297   6.608   3.629  0.1234  0.3717 -0.6616
  945MOL0     C27501   1.226   6.639   3.498  0.1049  0.0152 -0.3527
  945MOL0     C27502   1.175   6.794   3.491 -0.6218 -0.3474  0.1125
  945MOL0     C27503   1.090   6.818   3.365  0.3003  0.5128 -0.4636
  945MOL0     C27504   0.951   6.773   3.394  0.0421  0.6409  0.7434
  945MOL0     C27505   0.836   6.751   3.417  0.8072 -0.3936 -0.1611
  945MOL0     C27506   1.652   6.735   3.604  0.3902 -0.1006  0.7912
  945MOL0     C27507   1.735   6.836   3.638  0.4355 -0.1898 -0.6335
  945MOL0     H27508   1.687   7.417   3.746 -2.2280 -0.5194  1.3912
  945MOL0     H27509   1.803   7.599   3.893 -1.0200 -0.5503  0.9976
  945MOL0     H27510   2.043   7.728   4.039  0.5488  1.0677  0.4850
  945MOL0     H27511   1.870   7.713   4.082 -0.0745 -0.0609  1.5523
  945MOL0     H27512   2.011   7.823   4.242 -0.5174 -0.3655 -0.6177
  945MOL0     H27513   1.933   7.690   4.316  3.4435 -0.1077  4.0721
  945MOL0     H27514   2.162   7.694   4.402 -2.1395  1.0682 -0.1452
  945MOL0     H27515   2.123   7.550   4.310 -0.8662 -0.4752 -1.7233
  945MOL0     H27516   2.254   7.664   4.116 -1.1072  0.8919 -0.1309
  945MOL0     H27517   2.293   7.796   4.238 -1.1035  0.0456  0.1348
  945MOL0     H27518   2.366   7.511   4.299  1.7454 -0.5474  2.0458
  945MOL0     H27519   2.451   7.616   4.187  0.3121 -0.1520  0.5436
  945MOL0     H27520   2.503   7.773   4.383  2.0640 -0.3890  0.8686
  945MOL0     H27521   2.373   7.694   4.473 -1.1165  0.2673 -1.4210
  945MOL0     H27522   2.531   7.496   4.491  0.7848  0.6694 -1.0670
  945MOL0     H27523   2.647   7.604   4.410  2.2058  1.3753  2.7659
  945MOL0     H27524   2.501   7.661   4.691  3.0052 -0.4092  3.8262
  945MOL0     H27525   2.613   7.766   4.609  0.4980  0.0780  1.8503
  945MOL0     H27526   2.880   7.640   4.566  0.2118  0.5381  0.2923
  945MOL0     H27527   3.086   7.511   4.850 -1.4948 -0.3654  1.8965
  945MOL0     H27528   3.076   7.604   4.690 -3.6311 -0.8645 -1.8818
  945MOL0     H27529   3.006   7.806   4.829 -1.0345  0.7776  2.4833
  945MOL0     H27530   3.168   7.745   4.870 -0.6333  0.2225  0.4022
  945MOL0     H27531   3.083   7.644   5.079  1.4055 -0.6839 -0.6095
  945MOL0     H27532   2.916   7.701   5.028  0.3005 -3.1881 -1.3895
  945MOL0     H27533   3.042   7.842   5.201 -1.4496  5.2217 -0.0713
  945MOL0     H27534   2.995   7.928   5.065  1.1003 -0.0394  1.7257
  945MOL0     H27535   3.245   7.955   4.823 -3.4030 -2.3744  2.0999
  945MOL0     H27536   3.406   8.143   4.703 -1.4384 -2.4356 -1.3594
  945MOL0     H27537   3.247   8.170   4.634 -0.5964 -1.9560  1.1921
  945MOL0     H27538   3.355   8.300   4.699 -0.1171  0.7374  2.9174
  945MOL0     H27539   3.285   8.719   5.094  0.1880 -1.4103 -0.2874
  945MOL0     H27540   3.351   8.944   4.996  0.7769 -0.0808 -1.9529
  945MOL0     H27541   3.734   8.957   4.800  0.7145  2.8200  0.0462
  945MOL0     H27542   3.633   8.950   4.641 -2.6164  0.7777  0.2969
  945MOL0     H27543   3.701   9.195   4.809  0.5056 -4.5808  2.1228
  945MOL0     H27544   3.774   9.148   4.667 -0.9294 -0.7165  0.0709
  945MOL0     H27545   3.478   9.238   4.657  0.1351  2.6177 -1.8730
  945MOL0     H27546   3.580   9.176   4.530  2.7667  1.0597 -0.8130
  945MOL0     H27547   3.690   9.414   4.707  0.5059  0.1356  0.3208
  945MOL0     H27548   3.733   9.350   4.543  0.0647  0.8340 -0.3438
  945MOL0     H27549   3.459   9.471   4.636 -0.9364 -1.0290  0.7596
  945MOL0     H27550   3.484   9.406   4.480 -3.1465  3.3663  0.0680
  945MOL0     H27551   3.499   9.657   4.492  1.1827  2.6368  4.1162
  945MOL0     H27552   3.634   9.644   4.600  0.7194  2.7572 -1.1635
  945MOL0     H27553   3.635   9.563   4.310 -1.7767 -0.5917  0.6233
  945MOL0     H27554   3.769   9.522   4.415  0.1587  1.5300 -0.3555
  945MOL0     H27555   3.817   9.757   4.300  0.7426  0.1326  0.8304
  945MOL0     H27556   3.797   9.780   4.461  1.5870 -1.1328  0.5010
  945MOL0     H27557   3.629   8.740   4.753 -0.2160 -2.4874  0.1082
  945MOL0     H27558   3.558   8.533   4.833 -1.0787  0.6390 -2.3562
  945MOL0     H27559   3.228   8.322   5.152 -3.8329 -0.7479  1.5135
  945MOL0     H27560   3.160   8.088   5.220 -1.7872 -1.9580 -1.3216
  945MOL0     H27561   1.966   7.293   4.128 -1.5860 -0.0884  0.4506
  945MOL0     H27562   1.876   7.118   3.993  4.3509  0.5807  1.0496
  945MOL0     H27563   1.525   6.996   3.845  1.6212 -1.5759  2.6847
  945MOL0     H27564   1.382   6.811   3.805 -1.2537  1.4331 -1.3201
  945MOL0     H27565   1.269   6.507   3.662  1.5227  0.4884  1.0359
  945MOL0     H27566   1.263   6.662   3.717 -0.7543 -0.9497 -0.1538
  945MOL0     H27567   1.143   6.570   3.485 -0.7605  1.2263 -1.5830
  945MOL0     H27568   1.303   6.610   3.425  0.7559  2.8386 -0.9189
  945MOL0     H27569   1.269   6.848   3.491 -0.9773  0.4884 -3.0874
  945MOL0     H27570   1.112   6.820   3.577 -1.0411  0.3427 -0.3922
  945MOL0     H27571   1.134   6.763   3.282  2.4253 -0.5462  1.2439
  945MOL0     H27572   1.103   6.921   3.332 -0.6835  1.0877  0.8637
  945MOL0     H27573   0.733   6.741   3.444  1.3955 -4.9530  1.2743
  945MOL0     H27574   1.672   6.670   3.519 -0.5919  3.1238 -2.1788
  945MOL0     H27575   1.834   6.823   3.595 -0.4827 -4.0275 -2.0013
  946MOL0     O27576   5.212   3.056   1.972 -0.0310 -0.3344 -0.0471
  946MOL0     C27577   5.240   3.106   1.871  0.7805  0.8266  0.8943
  946MOL0     O27578   5.240   3.032   1.753  0.4405  0.3091  0.3403
  946MOL0     C27579   5.244   2.900   1.762 -0.3654  0.4586  0.0004
  946MOL0     C27580   5.364   2.837   1.804  0.4384  0.1354 -0.9915
  946MOL0     C27581   5.383   2.695   1.787  0.5955  0.0381 -0.7894
  946MOL0     C27582   5.279   2.610   1.755 -0.2531 -0.3698  0.4993
  946MOL0     O27583   5.317   2.477   1.733  0.3745  0.0583  0.8496
  946MOL0     C27584   5.210   2.394   1.690  0.4546  0.4860 -0.1755
  946MOL0     C27585   5.174   2.417   1.538 -0.3470  0.4863  0.0967
  946MOL0     C27586   5.047   2.332   1.518 -0.6055 -0.2793  0.1230
  946MOL0     C27587   4.995   2.358   1.371 -0.7499 -0.3138  0.3626
  946MOL0     C27588   4.888   2.264   1.323  0.3414  0.4193 -0.0823
  946MOL0     C27589   4.934   2.128   1.283  0.6291  0.9600  0.2839
  946MOL0     C27590   4.827   2.033   1.215  0.6651 -0.8956 -0.0787
  946MOL0     C27591   4.874   1.886   1.194  0.4548 -0.3444  0.0999
  946MOL0     N27592   4.904   1.827   1.328 -0.8755  0.5169  0.0957
  946MOL0     C27593   4.822   1.811   1.435 -0.4426 -0.4892 -0.7838
  946MOL0     C27594   4.874   1.735   1.533  0.1852 -0.3876 -0.1749
  946MOL0     C27595   4.790   1.685   1.652  0.0560 -0.6236 -0.8862
  946MOL0     C27596   4.886   1.677   1.768 -0.2050  0.3362 -0.0886
  946MOL0     C27597   4.821   1.659   1.910 -0.8684 -0.1165  0.1362
  946MOL0     C27598   4.753   1.782   1.968  0.5545  0.0415  0.1772
  946MOL0     O27599   4.702   1.749   2.103 -0.3070 -0.4649 -0.7008
  946MOL0     C27600   4.600   1.652   2.126 -0.7112  0.2008  0.2579
  946MOL0     C27601   4.578   1.594   2.250  0.1924  0.2238 -0.1417
  946MOL0     C27602   4.467   1.512   2.286  0.0538  0.0310  0.5487
  946MOL0     C27603   4.445   1.466   2.428  0.8658  0.5822  0.3792
  946MOL0     C27604   4.367   1.489   2.188  0.0966 -1.0571 -0.1354
  946MOL0     C27605   4.263   1.393   2.199  0.2165  0.4373 -0.7410
  946MOL0     O27606   4.189   1.386   2.083 -1.1081 -0.0771 -0.2452
  946MOL0     C27607   4.086   1.293   2.074  0.6305  0.4357 -0.1642
  946MOL0     C27608   4.080   1.215   1.959  0.2314 -0.1345  0.7380
  946MOL0     C27609   3.979   1.123   1.934 -0.0659 -0.4551 -0.1448
  946MOL0     C27610   3.874   1.115   2.022  0.3129 -0.6658 -0.1067
  946MOL0     O27611   3.778   1.026   1.996 -0.0161  0.7274  0.2578
  946MOL0     C27612   3.643   1.072   2.020 -0.7071  0.3113 -0.3108
  946MOL0     C27613   3.541   0.979   1.955 -0.4835  0.4708  0.3280
  946MOL0     C27614   3.401   1.034   1.962 -0.1194 -0.0315  0.0662
  946MOL0     C27615   3.298   0.923   1.947 -0.1837  0.0359 -0.7068
  946MOL0     C27616   3.158   0.976   1.953 -0.8967 -0.4846  0.6788
  946MOL0     C27617   3.050   0.872   1.937  0.4761 -0.5927  1.8073
  946MOL0     C27618   3.030   0.816   1.792  0.3042 -0.1574  0.7735
  946MOL0     C27619   2.973   0.940   1.712  0.3364  0.3146  0.1075
  946MOL0    Cl27620   2.922   0.897   1.553 -0.3442 -0.0333  0.1574
  946MOL0     C27621   3.878   1.184   2.143 -0.1080  0.0247  0.7805
  946MOL0     C27622   3.983   1.273   2.170  0.3190  0.2320 -0.3623
  946MOL0     O27623   4.238   1.338   2.308 -0.0265  0.5767  0.3399
  946MOL0     C27624   4.394   1.555   2.065 -0.5983  0.0049  0.1322
  946MOL0     C27625   4.509   1.624   2.035 -0.2859 -0.0659  0.7124
  946MOL0     N27626   5.004   1.712   1.487 -0.4492  0.0876  0.6489
  946MOL0     N27627   5.020   1.776   1.372  0.5944  0.6799 -0.2354
  946MOL0     C27628   5.154   2.674   1.730 -0.3757  0.1746 -0.3274
  946MOL0     C27629   5.142   2.813   1.725  0.5894  0.1030  0.3166
  946MOL0     C27630   5.260   3.247   1.866  0.0332  0.3401  0.0074
  946MOL0     C27631   5.260   3.307   1.742  0.1834 -0.4183  0.9731
  946MOL0     C27632   5.281   3.447   1.732 -0.4688  0.9022  1.2028
  946MOL0     C27633   5.316   3.530   1.845  0.2913 -0.1389  1.1203
  946MOL0     O27634   5.342   3.662   1.838  0.0141 -0.4964  0.2004
  946MOL0     C27635   5.338   3.743   1.723  0.3537  0.2645  1.2110
  946MOL0     C27636   5.465   3.704   1.623 -1.0580  0.6808 -0.1696
  946MOL0     C27637   5.599   3.639   1.676 -0.4605  0.2305  0.6687
  946MOL0     C27638   5.684   3.727   1.769 -0.2296 -0.5242 -1.2232
  946MOL0     C27639   5.623   3.759   1.895  0.5931 -0.0879  0.1228
  946MOL0     C27640   5.554   3.802   1.987 -0.6983 -0.6328  0.5066
  946MOL0     C27641   5.316   3.462   1.970  0.4743  0.7602  0.5401
  946MOL0     C27642   5.292   3.324   1.976 -1.1508  0.2802  0.3724
  946MOL0     H27643   5.449   2.894   1.839 -0.3245  0.7288 -0.0487
  946MOL0     H27644   5.474   2.655   1.830 -0.0447 -0.9154 -0.2896
  946MOL0     H27645   5.242   2.290   1.701 -1.2190  0.0707  1.2652
  946MOL0     H27646   5.123   2.406   1.756 -0.4644  0.3726 -1.3408
  946MOL0     H27647   5.161   2.521   1.505  2.5574  1.2939  1.0873
  946MOL0     H27648   5.255   2.378   1.476  0.2927  1.6588  0.1521
  946MOL0     H27649   5.055   2.227   1.547 -0.8231  0.1613  1.8657
  946MOL0     H27650   4.962   2.370   1.576 -3.9923 -2.4813 -2.9419
  946MOL0     H27651   4.944   2.455   1.366  0.2445  0.2343  0.4693
  946MOL0     H27652   5.072   2.359   1.293 -1.4971 -1.6325 -0.4143
  946MOL0     H27653   4.820   2.251   1.408 -4.4694  1.2564 -3.3787
  946MOL0     H27654   4.834   2.299   1.235 -0.1032 -1.8874 -0.8086
  946MOL0     H27655   5.009   2.145   1.206  1.4552 -1.9296  0.3525
  946MOL0     H27656   4.992   2.073   1.358  0.9205 -2.5694 -2.2701
  946MOL0     H27657   4.738   2.019   1.277  1.0096 -1.6495  0.2516
  946MOL0     H27658   4.800   2.089   1.125  1.2851  0.7744  0.7299
  946MOL0     H27659   4.964   1.878   1.133 -0.4965  0.6109 -1.4825
  946MOL0     H27660   4.800   1.830   1.136  1.4780 -0.4858 -1.1036
  946MOL0     H27661   4.727   1.864   1.431  0.3927  1.1323 -0.2050
  946MOL0     H27662   4.699   1.745   1.667  1.8108  2.6951 -2.4150
  946MOL0     H27663   4.753   1.587   1.622 -2.0759  0.1733 -1.0449
  946MOL0     H27664   4.959   1.759   1.768 -0.4300  0.5373 -0.6875
  946MOL0     H27665   4.933   1.579   1.752 -0.1230  0.6259 -1.7414
  946MOL0     H27666   4.905   1.651   1.980  1.0338  2.2751 -1.6691
  946MOL0     H27667   4.754   1.573   1.902 -1.5131  0.5684 -3.0852
  946MOL0     H27668   4.675   1.811   1.897  1.2057 -2.4480 -1.6927
  946MOL0     H27669   4.817   1.870   1.969  0.8090 -0.0227 -2.7260
  946MOL0     H27670   4.640   1.603   2.338 -2.2990 -1.1836  1.8887
  946MOL0     H27671   4.529   1.499   2.490  0.8818 -1.6871  1.6666
  946MOL0     H27672   4.344   1.493   2.461  1.2993  2.2974  0.3970
  946MOL0     H27673   4.460   1.358   2.425 -1.3867  0.2416 -1.8579
  946MOL0     H27674   4.156   1.228   1.882 -2.0901 -0.6603 -1.8201
  946MOL0     H27675   3.980   1.077   1.835  2.5145 -0.5810 -0.1378
  946MOL0     H27676   3.619   1.070   2.126  1.4239 -0.6296  0.2065
  946MOL0     H27677   3.640   1.177   1.989  2.2094 -0.0029 -2.1013
  946MOL0     H27678   3.566   0.955   1.851  1.4485 -1.6792  1.1914
  946MOL0     H27679   3.553   0.894   2.024  1.7181  1.0054  0.6609
  946MOL0     H27680   3.395   1.110   1.884  0.6554  1.0615  1.0378
  946MOL0     H27681   3.378   1.088   2.055 -0.4257  0.6133 -0.3810
  946MOL0     H27682   3.326   0.875   1.853  1.8055 -3.8067  1.6094
  946MOL0     H27683   3.317   0.846   2.022 -1.5469  2.1434  1.9918
  946MOL0     H27684   3.144   1.059   1.883 -1.3735 -1.8985 -0.9741
  946MOL0     H27685   3.139   1.012   2.054  0.9043  2.8083  0.0025
  946MOL0     H27686   3.068   0.783   1.998 -0.0925  0.5481  3.7070
  946MOL0     H27687   2.960   0.927   1.967  0.4653 -1.3683  3.2993
  946MOL0     H27688   2.961   0.732   1.800 -0.8076  0.8373  1.8833
  946MOL0     H27689   3.121   0.786   1.738  0.7377  1.6411  0.4330
  946MOL0     H27690   3.051   1.014   1.695 -0.3211  0.9341 -0.2437
  946MOL0     H27691   2.894   0.984   1.773  1.4054  1.4641  0.6998
  946MOL0     H27692   3.809   1.159   2.223 -1.6943 -0.7568 -0.7571
  946MOL0     H27693   3.972   1.319   2.268  0.7326  0.8357 -0.5940
  946MOL0     H27694   4.321   1.549   1.985  0.7971  1.7291 -1.3481
  946MOL0     H27695   4.519   1.683   1.944 -0.6706  2.5238  2.2475
  946MOL0     H27696   5.064   2.615   1.715 -0.7158  0.2570  1.2688
  946MOL0     H27697   5.047   2.854   1.695  0.4738 -0.9318 -0.8274
  946MOL0     H27698   5.236   3.245   1.657 -0.0043 -0.0483  0.7548
  946MOL0     H27699   5.289   3.500   1.638  2.2617  2.5657  2.2449
  946MOL0     H27700   5.237   3.739   1.682  0.7518  1.9336 -0.0263
  946MOL0     H27701   5.345   3.848   1.749 -1.1599 -0.0392  3.0113
  946MOL0     H27702   5.509   3.793   1.577  1.1227 -0.9530 -1.4250
  946MOL0     H27703   5.433   3.656   1.529  3.2146  0.2220 -1.5911
  946MOL0     H27704   5.664   3.613   1.592 -0.7843 -1.4003  0.8834
  946MOL0     H27705   5.575   3.541   1.718  3.1248 -0.5824  1.1373
  946MOL0     H27706   5.704   3.815   1.707  2.2048 -0.4319 -0.4127
  946MOL0     H27707   5.785   3.687   1.777  0.4514  1.1036 -1.2104
  946MOL0     H27708   5.492   3.845   2.063 -1.3506  1.1699 -0.9685
  946MOL0     H27709   5.350   3.513   2.059  1.8853 -3.4213  2.6530
  946MOL0     H27710   5.305   3.298   2.080 -0.4713  2.6086  0.9374
  947MOL0     O27711   6.856   0.919   3.719  0.0587  0.4488 -0.2985
  947MOL0     C27712   6.767   0.855   3.659 -0.2989  0.1381  0.4654
  947MOL0     O27713   6.645   0.816   3.714 -0.1908 -0.4501  0.1688
  947MOL0     C27714   6.629   0.836   3.844 -0.2734  0.0230 -0.1350
  947MOL0     C27715   6.498   0.882   3.884 -0.6989  0.5995  0.6270
  947MOL0     C27716   6.468   0.891   4.022  0.0475 -0.1918 -0.1922
  947MOL0     C27717   6.559   0.843   4.113 -0.2931 -0.2645 -0.2600
  947MOL0     O27718   6.534   0.875   4.246 -0.0452  0.0742 -0.5376
  947MOL0     C27719   6.649   0.895   4.331 -0.8727  0.6687  0.2911
  947MOL0     C27720   6.595   0.919   4.476 -0.3709 -0.4868  0.1238
  947MOL0     C27721   6.507   0.811   4.536  0.0610 -0.1079  0.0721
  947MOL0     C27722   6.457   0.857   4.671  0.7129 -0.0958  0.1675
  947MOL0     C27723   6.345   0.769   4.702  0.5097  0.0285  0.4854
  947MOL0     C27724   6.261   0.830   4.813  0.1106  0.1921  0.4748
  947MOL0     C27725   6.149   0.728   4.848 -0.0085  0.0828  0.0436
  947MOL0     C27726   6.039   0.773   4.934  0.3648  0.0317  0.3622
  947MOL0     N27727   6.091   0.849   5.045  1.1954  0.0424 -0.8962
  947MOL0     C27728   6.123   0.805   5.173 -0.1654  0.3386  0.3920
  947MOL0     C27729   6.183   0.911   5.233 -0.8464  0.1266 -0.2191
  947MOL0     C27730   6.234   0.885   5.377 -0.4750 -0.0432  0.3907
  947MOL0     C27731   6.121   0.851   5.484 -0.4920 -0.6938  0.1993
  947MOL0     C27732   6.043   0.981   5.501  0.8671 -0.1953 -0.7163
  947MOL0     C27733   5.962   0.987   5.637  0.2802 -0.2336  0.4541
  947MOL0     O27734   6.066   1.000   5.744  0.0490 -0.1497 -0.0082
  947MOL0     C27735   6.035   0.952   5.864  0.4175  0.4893  0.3958
  947MOL0     C27736   5.905   0.934   5.912 -0.4167 -0.6139  0.2057
  947MOL0     C27737   5.885   0.880   6.042  0.7450  0.2126  0.9955
  947MOL0     C27738   5.741   0.876   6.084 -0.3059 -0.1240 -0.1155
  947MOL0     C27739   5.986   0.835   6.117  0.8944 -0.3834 -1.1874
  947MOL0     C27740   5.967   0.774   6.251  0.3903  0.6515  0.4668
  947MOL0     O27741   5.899   0.660   6.261 -0.1312 -0.7536 -0.2163
  947MOL0     C27742   5.858   0.604   6.377  0.2350 -0.1347 -0.0374
  947MOL0     C27743   5.805   0.666   6.496 -0.0219 -0.2605 -0.5932
  947MOL0     C27744   5.768   0.587   6.598  0.5810  0.2369  0.4023
  947MOL0     C27745   5.760   0.446   6.594  0.7496  0.0291  1.1344
  947MOL0     O27746   5.715   0.362   6.701  0.1031 -0.1234  0.3861
  947MOL0     C27747   5.752   0.391   6.834  0.0039  0.5344 -0.8560
  947MOL0     C27748   5.730   0.269   6.920  1.0438 -0.2958  0.2082
  947MOL0     C27749   5.603   0.188   6.893 -0.5580  0.3850 -0.6569
  947MOL0     C27750   5.477   0.271   6.864 -0.5076 -0.2197  0.3255
  947MOL0     C27751   5.359   0.177   6.853 -0.3010 -0.0487 -0.1722
  947MOL0     C27752   5.230   0.246   6.863  1.0005  0.1058  0.2616
  947MOL0     C27753   5.112   0.141   6.850 -0.3919 -0.5821  0.1950
  947MOL0     C27754   4.977   0.190   6.883 -0.5511  0.8120 -0.6630
  947MOL0    Cl27755   4.982   0.281   7.042  0.3272 -0.3614  0.1578
  947MOL0     C27756   5.783   0.373   6.477 -0.8880 -0.7154  0.2231
  947MOL0     C27757   5.833   0.460   6.370  0.1202  0.4457  0.4260
  947MOL0     O27758   6.023   0.835   6.339  0.1202  0.9263 -0.3377
  947MOL0     C27759   6.117   0.845   6.063  0.1822  0.8465 -0.4509
  947MOL0     C27760   6.150   0.906   5.941 -0.1487 -0.2751  0.3413
  947MOL0     N27761   6.187   1.013   5.144 -0.6550  0.3269 -0.8375
  947MOL0     N27762   6.130   0.978   5.035 -0.1561 -0.7589  0.9593
  947MOL0     C27763   6.680   0.803   4.073 -0.3716  0.7635  0.5596
  947MOL0     C27764   6.718   0.779   3.944 -0.6605 -0.1230  0.6423
  947MOL0     C27765   6.792   0.805   3.523  0.0037 -0.5176 -0.6204
  947MOL0     C27766   6.909   0.833   3.460  0.5644  0.2772 -0.5469
  947MOL0     C27767   6.940   0.787   3.329 -0.1265  0.8334  0.1741
  947MOL0     C27768   6.850   0.713   3.254  0.2567  0.4031 -0.1038
  947MOL0     O27769   6.889   0.663   3.139 -0.1438 -0.0712  0.1189
  947MOL0     C27770   6.795   0.582   3.060  0.3873 -0.0479 -0.1479
  947MOL0     C27771   6.862   0.570   2.914 -0.0764  0.4803  0.4120
  947MOL0     C27772   7.007   0.520   2.909 -0.3740  0.0672 -0.0937
  947MOL0     C27773   7.053   0.505   2.758 -0.6871 -0.4140 -0.1629
  947MOL0     C27774   7.181   0.432   2.738 -0.1513 -0.1985 -0.2114
  947MOL0     C27775   7.283   0.375   2.710 -1.0759 -0.2823 -0.0911
  947MOL0     C27776   6.727   0.693   3.310  0.6289  0.2732 -1.1671
  947MOL0     C27777   6.703   0.727   3.450  0.3598  0.2010  0.2745
  947MOL0     H27778   6.429   0.922   3.810 -0.9443  1.7299  1.4280
  947MOL0     H27779   6.370   0.910   4.064  1.0801 -1.5394  3.2291
  947MOL0     H27780   6.708   0.803   4.329 -3.9284 -1.5610  2.6676
  947MOL0     H27781   6.705   0.983   4.296  1.9596 -1.6861 -1.5205
  947MOL0     H27782   6.685   0.924   4.538 -0.2606 -0.3428 -0.0429
  947MOL0     H27783   6.546   1.017   4.470 -0.5074 -0.6348 -1.6510
  947MOL0     H27784   6.421   0.794   4.471 -3.1751 -0.2288  3.9847
  947MOL0     H27785   6.556   0.713   4.536  1.7759  0.7086 -1.2049
  947MOL0     H27786   6.542   0.838   4.737  2.4402 -1.9970 -2.4308
  947MOL0     H27787   6.430   0.963   4.677 -0.4643 -0.3635 -0.0239
  947MOL0     H27788   6.294   0.756   4.606  1.4257  1.8555 -0.2866
  947MOL0     H27789   6.374   0.669   4.735 -4.6885 -1.7801  0.5401
  947MOL0     H27790   6.310   0.851   4.908 -1.6971 -3.3057  2.3890
  947MOL0     H27791   6.234   0.928   4.775  0.6465  0.0415 -0.3301
  947MOL0     H27792   6.098   0.672   4.770 -0.8708 -1.0011  1.3531
  947MOL0     H27793   6.208   0.650   4.897  1.0092  1.0496  0.3950
  947MOL0     H27794   5.983   0.687   4.973 -0.5199 -0.5008 -1.9260
  947MOL0     H27795   5.976   0.832   4.867 -0.3369  1.0186  1.8385
  947MOL0     H27796   6.112   0.709   5.222 -0.6876  1.7368  3.2269
  947MOL0     H27797   6.300   0.799   5.380 -1.4387 -0.8701 -1.1995
  947MOL0     H27798   6.295   0.976   5.386 -0.4568  0.4094 -2.9745
  947MOL0     H27799   6.164   0.812   5.576  2.7910 -1.3461 -1.4675
  947MOL0     H27800   6.052   0.776   5.444 -1.3689  1.1860 -2.0691
  947MOL0     H27801   5.957   0.983   5.434  0.2354  1.3968  0.0809
  947MOL0     H27802   6.098   1.074   5.488 -2.1014  1.7077 -0.6137
  947MOL0     H27803   5.895   0.901   5.630  1.3352 -1.0036 -4.9946
  947MOL0     H27804   5.895   1.073   5.647  0.4975 -0.0020 -0.0077
  947MOL0     H27805   5.814   0.958   5.857  1.2441 -0.2804 -2.5882
  947MOL0     H27806   5.695   0.779   6.107 -1.2712  0.7515  1.9721
  947MOL0     H27807   5.742   0.929   6.180  0.5661 -1.4092  0.6166
  947MOL0     H27808   5.674   0.916   6.007 -1.4789 -2.1332 -0.2088
  947MOL0     H27809   5.796   0.772   6.517 -1.1847 -0.2969 -0.8372
  947MOL0     H27810   5.747   0.638   6.692 -0.9887  0.9645 -0.3193
  947MOL0     H27811   5.858   0.408   6.855  0.0404 -1.3029  0.8085
  947MOL0     H27812   5.690   0.474   6.869  0.3853  0.0897  0.9860
  947MOL0     H27813   5.820   0.210   6.905  2.3811  2.0791 -1.9066
  947MOL0     H27814   5.727   0.309   7.022  2.4331  0.4275 -0.0138
  947MOL0     H27815   5.590   0.131   6.986  0.6895  0.6402 -0.3137
  947MOL0     H27816   5.627   0.120   6.811  2.6034 -2.2786  2.1875
  947MOL0     H27817   5.462   0.341   6.947  0.8573 -0.7449  1.0587
  947MOL0     H27818   5.490   0.328   6.772  2.6903 -0.9936  0.1735
  947MOL0     H27819   5.374   0.091   6.919  1.0770  1.2954  1.3300
  947MOL0     H27820   5.361   0.133   6.752  3.0817  2.2191 -1.2926
  947MOL0     H27821   5.224   0.298   6.959 -1.4212  1.6704 -0.6406
  947MOL0     H27822   5.219   0.317   6.780  0.7764  1.1608  1.1729
  947MOL0     H27823   5.133   0.047   6.901 -0.2004 -1.3078 -1.1853
  947MOL0     H27824   5.117   0.102   6.748 -0.8606  2.2344 -1.0051
  947MOL0     H27825   4.914   0.100   6.886  0.4141  0.0901 -1.6097
  947MOL0     H27826   4.936   0.249   6.801  1.1082  1.3006 -1.1697
  947MOL0     H27827   5.770   0.266   6.463 -1.4409 -0.5904 -0.2778
  947MOL0     H27828   5.856   0.428   6.269  0.9332  2.3565 -0.0364
  947MOL0     H27829   6.193   0.802   6.127 -1.5166 -1.1955  0.3102
  947MOL0     H27830   6.251   0.902   5.901  0.0791 -1.8867  0.9889
  947MOL0     H27831   6.759   0.765   4.137  1.3670 -1.2235 -2.5147
  947MOL0     H27832   6.816   0.734   3.930 -0.9106 -0.5569  0.2830
  947MOL0     H27833   6.985   0.899   3.503  0.1874 -1.1832  2.6308
  947MOL0     H27834   7.027   0.825   3.276 -2.6689  3.0276 -2.7323
  947MOL0     H27835   6.790   0.486   3.114  2.6212 -0.8844 -1.3013
  947MOL0     H27836   6.696   0.622   3.034 -0.1641 -1.5926 -0.5736
  947MOL0     H27837   6.848   0.669   2.870 -1.1498  0.8793  1.5828
  947MOL0     H27838   6.816   0.494   2.851  3.4876  0.6971 -2.7921
  947MOL0     H27839   7.021   0.423   2.958 -0.9352 -0.0734 -0.2046
  947MOL0     H27840   7.069   0.597   2.955  0.4242 -1.3606  1.3251
  947MOL0     H27841   7.063   0.605   2.715  2.5055 -0.7764 -0.4546
  947MOL0     H27842   6.976   0.447   2.707 -2.7413 -0.2858  2.5664
  947MOL0     H27843   7.362   0.309   2.682  0.3525  2.5161 -3.5476
  947MOL0     H27844   6.646   0.638   3.263 -0.4435 -0.8992  1.8263
  947MOL0     H27845   6.614   0.701   3.506  0.5096  1.4339  1.1226
  948MOL0     O27846   3.576   3.968   3.340  0.0849  1.0894 -0.7260
  948MOL0     C27847   3.580   3.942   3.221 -0.6473 -0.2112 -0.1803
  948MOL0     O27848   3.672   3.858   3.159 -0.4529 -0.1140 -0.2761
  948MOL0     C27849   3.788   3.825   3.232  0.4375 -0.2689  0.8604
  948MOL0     C27850   3.849   3.700   3.231  0.1421 -0.3422 -0.4434
  948MOL0     C27851   3.962   3.671   3.307 -1.2118 -0.5544  0.2210
  948MOL0     C27852   4.030   3.769   3.384 -0.3418 -0.1474  0.1002
  948MOL0     O27853   4.150   3.739   3.445  0.2693 -1.3683  0.7396
  948MOL0     C27854   4.208   3.610   3.474  0.2266 -0.7894 -0.7950
  948MOL0     C27855   4.290   3.617   3.604 -0.3243  0.0946 -0.0101
  948MOL0     C27856   4.215   3.614   3.734 -0.3468 -0.1742  1.4178
  948MOL0     C27857   4.164   3.755   3.761 -0.2721  0.1392 -0.6181
  948MOL0     C27858   4.154   3.771   3.921  0.0634  1.5665 -0.2623
  948MOL0     C27859   4.088   3.905   3.975 -0.0517  0.0336  0.5868
  948MOL0     C27860   4.080   3.923   4.124  0.3947  0.7935  0.1099
  948MOL0     C27861   4.024   4.066   4.150 -0.5572  0.5394 -0.2597
  948MOL0     N27862   3.973   4.105   4.284  0.0050 -0.1626 -0.6228
  948MOL0     C27863   4.015   4.211   4.358  0.0174  0.7296  0.0336
  948MOL0     C27864   3.936   4.218   4.472 -0.0986 -0.6665  0.4397
  948MOL0     C27865   3.926   4.314   4.594  0.5534  0.5528 -0.2179
  948MOL0     C27866   4.012   4.439   4.582 -0.3359 -0.4890  0.5826
  948MOL0     C27867   4.167   4.428   4.573  0.6846  1.2201  0.7658
  948MOL0     C27868   4.218   4.321   4.675 -1.1699 -0.4014 -0.2079
  948MOL0     O27869   4.361   4.328   4.696 -0.1214  0.0748 -0.1954
  948MOL0     C27870   4.398   4.215   4.765 -0.1321  0.3387  0.0465
  948MOL0     C27871   4.380   4.187   4.897 -1.0391 -0.7480  0.0930
  948MOL0     C27872   4.445   4.079   4.964 -0.4194  0.5647  0.0338
  948MOL0     C27873   4.397   4.043   5.102 -0.2874 -0.0277  1.7002
  948MOL0     C27874   4.533   3.998   4.878  1.6847 -0.6285 -0.7089
  948MOL0     C27875   4.593   3.877   4.927  0.6840 -1.2021 -0.1012
  948MOL0     O27876   4.719   3.854   4.874  0.2160  0.0690 -0.1245
  948MOL0     C27877   4.776   3.732   4.887 -1.3053 -0.5944 -0.4023
  948MOL0     C27878   4.805   3.657   4.782 -0.0315 -0.1677  0.0594
  948MOL0     C27879   4.853   3.531   4.795 -0.3540  0.2923 -0.2454
  948MOL0     C27880   4.887   3.473   4.922 -0.4944  0.3548 -0.9082
  948MOL0     O27881   4.915   3.332   4.923 -0.5577 -0.1284  0.0844
  948MOL0     C27882   5.003   3.285   5.029  0.6447 -0.3751 -0.0015
  948MOL0     C27883   5.127   3.216   4.973 -0.2917 -0.4465  0.1544
  948MOL0     C27884   5.093   3.092   4.880  0.0698  0.3153  0.0315
  948MOL0     C27885   5.009   2.984   4.957  0.8800 -0.1888  0.4146
  948MOL0     C27886   4.984   2.852   4.894 -0.1154  0.7416 -0.6242
  948MOL0     C27887   5.101   2.777   4.846  0.0690  0.8240  0.7122
  948MOL0     C27888   5.220   2.769   4.952  0.6535  0.2476 -0.4000
  948MOL0     C27889   5.198   2.677   5.069 -0.6484  0.3037 -0.5397
  948MOL0    Cl27890   5.239   2.501   5.024  0.1161 -0.6245 -0.2824
  948MOL0     C27891   4.866   3.554   5.042  0.1204 -0.4759  0.4388
  948MOL0     C27892   4.808   3.681   5.020 -0.8266 -0.5597 -0.4391
  948MOL0     O27893   4.540   3.814   5.014  0.3638  0.1865 -0.3771
  948MOL0     C27894   4.530   4.005   4.738 -0.2899  0.1386 -0.3451
  948MOL0     C27895   4.468   4.130   4.682 -0.3722  0.9167 -0.3934
  948MOL0     N27896   3.858   4.104   4.457  0.4659 -0.2497  0.0208
  948MOL0     N27897   3.875   4.040   4.348 -0.4634 -0.4552  0.5436
  948MOL0     C27898   3.970   3.903   3.396 -1.0136  0.1195  1.0003
  948MOL0     C27899   3.859   3.931   3.311 -0.1387 -0.3397  0.1738
  948MOL0     C27900   3.475   4.000   3.124 -0.5854 -1.3239  0.1968
  948MOL0     C27901   3.507   4.000   2.987  0.4485  0.0626  0.8833
  948MOL0     C27902   3.405   4.048   2.903 -0.9366 -0.1424  0.0730
  948MOL0     C27903   3.292   4.110   2.940 -0.6031  1.0069 -0.2112
  948MOL0     O27904   3.187   4.159   2.859  0.2128 -0.5574  0.5233
  948MOL0     C27905   3.199   4.142   2.712  0.2205 -0.2382  1.1703
  948MOL0     C27906   3.188   4.007   2.639 -1.0232  0.2023 -0.0552
  948MOL0     C27907   3.044   3.941   2.643 -0.5714 -0.2182 -0.5261
  948MOL0     C27908   2.948   3.971   2.528 -0.2016  0.3080  0.5332
  948MOL0     C27909   2.982   3.914   2.398  0.4323  0.4438  0.4977
  948MOL0     C27910   3.006   3.867   2.288  0.1571 -0.2979  0.3752
  948MOL0     C27911   3.267   4.106   3.075 -0.5633  0.4530 -0.1253
  948MOL0     C27912   3.364   4.065   3.166  0.3647 -0.7552  0.6589
  948MOL0     H27913   3.803   3.620   3.173  0.8663 -2.1158  1.3076
  948MOL0     H27914   4.014   3.576   3.302 -1.8578 -0.9013 -0.0086
  948MOL0     H27915   4.136   3.528   3.479  0.0096 -0.5204  1.4685
  948MOL0     H27916   4.288   3.600   3.400 -0.2649 -0.9552 -1.3120
  948MOL0     H27917   4.353   3.527   3.601  0.7477  0.8311 -0.1019
  948MOL0     H27918   4.345   3.712   3.600 -2.3451  1.2691 -1.5324
  948MOL0     H27919   4.136   3.539   3.733 -0.2765 -0.4285 -2.6451
  948MOL0     H27920   4.286   3.589   3.814  2.4514 -1.2419 -1.1989
  948MOL0     H27921   4.225   3.841   3.730 -1.8570  3.2416  3.7906
  948MOL0     H27922   4.065   3.771   3.718 -0.7374 -0.5166  0.1720
  948MOL0     H27923   4.104   3.680   3.955  1.3657  0.3944 -1.3373
  948MOL0     H27924   4.251   3.772   3.971 -1.6946  5.0076  3.6233
  948MOL0     H27925   4.154   3.979   3.930  2.0177 -0.7852  2.1153
  948MOL0     H27926   3.987   3.920   3.935  0.4742 -0.8942 -1.1626
  948MOL0     H27927   4.024   3.840   4.168  2.5639  0.9888  3.6054
  948MOL0     H27928   4.179   3.916   4.169  1.0960 -2.8366 -1.6526
  948MOL0     H27929   3.939   4.063   4.081 -2.3963 -2.3398  1.8408
  948MOL0     H27930   4.098   4.142   4.129 -2.4834  2.8527  0.7926
  948MOL0     H27931   4.097   4.278   4.334  1.0931 -0.0913  1.3037
  948MOL0     H27932   3.821   4.347   4.595 -0.5052 -2.4830 -0.9816
  948MOL0     H27933   3.957   4.271   4.689  1.0061 -0.0700 -0.6455
  948MOL0     H27934   3.983   4.501   4.667  1.6623  1.1392  0.1596
  948MOL0     H27935   3.986   4.498   4.493 -0.6558 -0.4237  0.7202
  948MOL0     H27936   4.211   4.527   4.587  3.8311  0.1332 -0.5697
  948MOL0     H27937   4.198   4.400   4.472  0.8435 -1.4676  1.4867
  948MOL0     H27938   4.189   4.220   4.643  0.8878 -0.8632 -0.7858
  948MOL0     H27939   4.175   4.353   4.770  0.3959 -1.6857  0.9831
  948MOL0     H27940   4.327   4.260   4.957  3.3010  2.2417  0.6946
  948MOL0     H27941   4.481   4.045   5.171  1.0663  5.2214  0.3686
  948MOL0     H27942   4.327   4.124   5.127  0.3306  2.6380 -3.5754
  948MOL0     H27943   4.344   3.947   5.096 -1.5736  0.6670  1.4586
  948MOL0     H27944   4.788   3.706   4.687  4.0969 -0.5291 -1.0857
  948MOL0     H27945   4.867   3.463   4.711 -0.3525 -2.2921  1.7001
  948MOL0     H27946   5.027   3.370   5.095 -1.1008  0.5957 -0.5637
  948MOL0     H27947   4.961   3.206   5.091  1.6762 -1.4814 -0.6698
  948MOL0     H27948   5.182   3.288   4.911 -0.3576 -1.2394 -0.8643
  948MOL0     H27949   5.184   3.179   5.059 -3.2731  1.0118  2.9577
  948MOL0     H27950   5.183   3.044   4.839  0.7008  0.4972  1.1531
  948MOL0     H27951   5.050   3.121   4.784  1.8220 -2.0151 -1.5854
  948MOL0     H27952   5.065   2.974   5.050  2.7138  1.3479 -0.4565
  948MOL0     H27953   4.908   3.022   4.978  0.2119 -1.3623 -0.5738
  948MOL0     H27954   4.919   2.878   4.810  1.4481  0.5036 -1.9572
  948MOL0     H27955   4.923   2.785   4.955  0.5047  1.3947  0.7559
  948MOL0     H27956   5.074   2.678   4.807 -1.3772  2.5442 -3.2069
  948MOL0     H27957   5.148   2.826   4.761  0.7821 -1.0802 -0.0568
  948MOL0     H27958   5.241   2.875   4.972  0.0093  0.5445 -1.2288
  948MOL0     H27959   5.303   2.720   4.900  1.0043 -1.5647  1.7136
  948MOL0     H27960   5.091   2.689   5.091 -0.8239 -2.0445  0.1345
  948MOL0     H27961   5.268   2.716   5.144  1.1309 -1.6047 -1.1184
  948MOL0     H27962   4.864   3.515   5.143 -0.7341  4.2053  2.5065
  948MOL0     H27963   4.782   3.734   5.110 -0.6928 -0.0306 -0.7108
  948MOL0     H27964   4.586   3.936   4.676  1.7060  4.1078 -3.3819
  948MOL0     H27965   4.467   4.138   4.574  0.9089  0.7884 -0.4360
  948MOL0     H27966   4.026   3.973   3.458  0.8492  0.2460 -0.6874
  948MOL0     H27967   3.821   4.032   3.326  0.7585  0.5593 -2.8477
  948MOL0     H27968   3.601   3.965   2.945 -0.2067 -2.8955  1.6647
  948MOL0     H27969   3.415   4.034   2.796  0.6921  1.7127 -0.0651
  948MOL0     H27970   3.134   4.214   2.662  1.2281 -0.6592 -0.8557
  948MOL0     H27971   3.297   4.188   2.695  0.1650 -1.0067 -1.9101
  948MOL0     H27972   3.251   3.934   2.690 -3.1142 -1.7969 -0.2201
  948MOL0     H27973   3.237   4.017   2.541 -0.9950  0.0494 -0.0566
  948MOL0     H27974   2.993   3.986   2.729 -1.3282  2.3918 -2.2051
  948MOL0     H27975   3.048   3.834   2.662  2.6471 -0.1199 -0.1074
  948MOL0     H27976   2.941   4.079   2.512  1.5448  0.0539 -2.8343
  948MOL0     H27977   2.846   3.943   2.556 -1.2081  0.2485 -2.7305
  948MOL0     H27978   3.009   3.814   2.194 -2.4534  0.7858 -0.4173
  948MOL0     H27979   3.171   4.136   3.115 -1.7227 -0.2454 -2.2435
  948MOL0     H27980   3.333   4.069   3.270 -3.5196 -4.2668 -0.0844
  949MOL0     O27981   1.932   1.380   2.116  0.1308 -0.2671  1.1056
  949MOL0     C27982   1.812   1.404   2.113  0.1633  0.3415 -0.4865
  949MOL0     O27983   1.758   1.531   2.106  0.1959  0.6339 -0.2936
  949MOL0     C27984   1.841   1.641   2.108 -0.1900 -0.1123  0.5221
  949MOL0     C27985   1.903   1.679   1.984  0.5782 -0.1867 -0.1780
  949MOL0     C27986   1.997   1.780   1.979  1.1048  0.5353  0.4824
  949MOL0     C27987   2.011   1.868   2.091 -0.1368  0.2510 -0.4587
  949MOL0     O27988   2.097   1.974   2.085  0.4801  0.1843 -0.1237
  949MOL0     C27989   2.181   1.986   2.204 -0.3870 -0.0534  0.6066
  949MOL0     C27990   2.325   1.956   2.159  1.0729  0.2798 -0.8147
  949MOL0     C27991   2.355   1.809   2.154 -0.0360  0.1340 -0.0363
  949MOL0     C27992   2.509   1.782   2.136 -0.7151 -0.2955  0.4612
  949MOL0     C27993   2.539   1.632   2.177 -0.2354 -1.3525  0.9417
  949MOL0     C27994   2.687   1.614   2.211 -0.7450  0.3711  1.2511
  949MOL0     C27995   2.802   1.676   2.121  0.0964 -0.1968 -0.2824
  949MOL0     C27996   2.912   1.753   2.198  0.2523  0.5976  0.1497
  949MOL0     N27997   2.864   1.887   2.244 -0.0376  0.0444 -0.7742
  949MOL0     C27998   2.832   1.996   2.166 -0.0253 -0.4386 -0.1044
  949MOL0     C27999   2.743   2.060   2.251  0.0711 -0.2497 -0.4335
  949MOL0     C28000   2.677   2.187   2.223  0.5839  0.3696  0.1941
  949MOL0     C28001   2.623   2.203   2.078  0.0354  0.0491 -0.2780
  949MOL0     C28002   2.525   2.322   2.068  0.4512  1.3406  0.3958
  949MOL0     C28003   2.488   2.370   1.921 -0.5670 -0.2630  0.0822
  949MOL0     O28004   2.408   2.276   1.876  0.3278  0.3690  0.6015
  949MOL0     C28005   2.276   2.297   1.894 -0.0156 -0.2233  0.1036
  949MOL0     C28006   2.208   2.395   1.963  0.5408 -0.7118  0.5484
  949MOL0     C28007   2.066   2.414   1.950 -0.1309  0.0455  0.5190
  949MOL0     C28008   2.000   2.532   2.023 -0.4986 -0.6309  0.3243
  949MOL0     C28009   1.994   2.323   1.858 -0.2536  0.2199  0.1262
  949MOL0     C28010   1.853   2.345   1.810  0.0584 -0.3133  0.4311
  949MOL0     O28011   1.770   2.431   1.872 -0.4955  0.4233 -0.2419
  949MOL0     C28012   1.639   2.453   1.833 -0.1675  0.1299  0.0343
  949MOL0     C28013   1.607   2.553   1.739 -0.1500  0.0752  0.2190
  949MOL0     C28014   1.466   2.574   1.719  0.2171  0.6000  0.6497
  949MOL0     C28015   1.362   2.504   1.786 -1.3667 -1.1266 -0.9292
  949MOL0     O28016   1.226   2.525   1.774  0.2637 -0.9388 -0.5638
  949MOL0     C28017   1.183   2.540   1.646  0.5737  0.6759  0.1899
  949MOL0     C28018   1.065   2.642   1.651 -0.0873  0.3205 -0.1342
  949MOL0     C28019   0.943   2.586   1.723 -0.1434  1.2257  0.0182
  949MOL0     C28020   0.829   2.692   1.730  0.2376  0.0324  0.0313
  949MOL0     C28021   0.717   2.647   1.828 -0.2521  1.1325 -0.7165
  949MOL0     C28022   0.615   2.751   1.865  1.0956  0.9371 -0.1272
  949MOL0     C28023   0.492   2.686   1.927 -0.2726  0.4158 -0.2958
  949MOL0     C28024   0.469   2.712   2.076  0.1774  0.8450 -0.2069
  949MOL0    Cl28025   0.414   2.880   2.118  0.0500  0.2983 -0.5981
  949MOL0     C28026   1.408   2.403   1.869  0.5754 -1.2758  0.3447
  949MOL0     C28027   1.539   2.383   1.893  0.3436  0.5230 -1.3859
  949MOL0     O28028   1.818   2.274   1.717  0.1410  0.3388  0.6139
  949MOL0     C28029   2.069   2.217   1.791 -0.2853  0.2342 -0.4095
  949MOL0     C28030   2.206   2.203   1.817  0.6722  0.0979  1.7053
  949MOL0     N28031   2.732   2.000   2.374 -0.0812 -0.5617  0.8560
  949MOL0     N28032   2.805   1.900   2.363  0.2767 -0.4116  0.1025
  949MOL0     C28033   1.941   1.832   2.206 -0.1347  0.2561 -1.0487
  949MOL0     C28034   1.861   1.723   2.221  1.0568 -0.2062  0.4088
  949MOL0     C28035   1.716   1.285   2.093 -0.0895 -0.1234 -0.5403
  949MOL0     C28036   1.598   1.292   2.171  0.1227  0.1504 -0.4758
  949MOL0     C28037   1.506   1.179   2.178 -0.7644 -0.4747  1.0185
  949MOL0     C28038   1.526   1.066   2.097  0.2520 -0.5829  0.3121
  949MOL0     O28039   1.452   0.953   2.094 -0.3818 -0.0503 -0.4599
  949MOL0     C28040   1.311   0.962   2.134  0.0278 -0.2819 -0.1892
  949MOL0     C28041   1.232   0.859   2.055 -0.8416  0.4589 -0.2184
  949MOL0     C28042   1.079   0.880   2.079 -0.2521 -0.1929  0.7814
  949MOL0     C28043   0.986   0.769   2.017 -0.6805 -0.7516  1.1592
  949MOL0     C28044   0.837   0.789   2.049 -0.4496 -0.2811 -0.6024
  949MOL0     C28045   0.722   0.812   2.075 -0.2567  0.1940  0.4100
  949MOL0     C28046   1.639   1.062   2.025 -0.1126  0.3915  0.2330
  949MOL0     C28047   1.736   1.171   2.021  0.1370  0.8320 -0.3116
  949MOL0     H28048   1.870   1.617   1.902  2.0576 -0.1829 -0.8055
  949MOL0     H28049   2.061   1.814   1.898 -0.2535  1.4358 -0.2470
  949MOL0     H28050   2.170   2.089   2.237  1.6244  0.3785  0.0476
  949MOL0     H28051   2.147   1.930   2.291 -3.4603 -0.8184 -0.9205
  949MOL0     H28052   2.354   2.004   2.065 -0.2683  0.5469 -1.1041
  949MOL0     H28053   2.395   1.994   2.234  1.3770 -0.2022 -0.8442
  949MOL0     H28054   2.320   1.762   2.247 -0.7266  0.3017 -0.2022
  949MOL0     H28055   2.298   1.763   2.073 -1.1175 -0.5026  1.0366
  949MOL0     H28056   2.543   1.800   2.033 -2.8981  0.7724 -0.1484
  949MOL0     H28057   2.558   1.854   2.202  1.0668  0.3616 -1.4605
  949MOL0     H28058   2.480   1.598   2.262 -0.7517  0.2553  1.2557
  949MOL0     H28059   2.514   1.557   2.102 -5.5088  1.9508 -1.1170
  949MOL0     H28060   2.708   1.668   2.304 -0.1399  0.4961  1.0456
  949MOL0     H28061   2.708   1.507   2.206  2.4711  0.9000 -3.1158
  949MOL0     H28062   2.859   1.595   2.073 -1.0425 -0.8082 -0.6343
  949MOL0     H28063   2.761   1.744   2.046  0.5376  1.6921  1.1128
  949MOL0     H28064   2.999   1.764   2.133  0.5212 -2.5352 -0.1547
  949MOL0     H28065   2.936   1.694   2.286  0.1776  1.3433  0.6745
  949MOL0     H28066   2.863   2.024   2.066  3.3889 -2.6083  0.2030
  949MOL0     H28067   2.590   2.201   2.288 -0.6053 -0.3167 -1.1995
  949MOL0     H28068   2.754   2.258   2.257 -3.2764  3.1255  4.4400
  949MOL0     H28069   2.570   2.113   2.045  3.5998 -1.8722 -1.3685
  949MOL0     H28070   2.697   2.215   1.998  0.1094 -1.2518 -0.4366
  949MOL0     H28071   2.575   2.409   2.111 -1.5378  1.5794  2.4058
  949MOL0     H28072   2.438   2.292   2.127  0.3270 -1.1913 -0.9098
  949MOL0     H28073   2.576   2.363   1.857  0.2522 -0.6521  1.2273
  949MOL0     H28074   2.452   2.473   1.921 -0.2837 -0.1185  2.5473
  949MOL0     H28075   2.254   2.467   2.030 -0.9273  0.9816 -0.1945
  949MOL0     H28076   2.063   2.559   2.109 -1.6063 -1.3104  1.3861
  949MOL0     H28077   1.993   2.612   1.949  0.6635 -1.0291 -0.2532
  949MOL0     H28078   1.900   2.514   2.062  0.3279 -1.3290  2.2580
  949MOL0     H28079   1.692   2.609   1.701  0.5685 -1.7059 -0.8741
  949MOL0     H28080   1.426   2.656   1.661 -1.0120 -1.9208 -2.3953
  949MOL0     H28081   1.263   2.573   1.579  0.9491  1.0397  0.8050
  949MOL0     H28082   1.127   2.456   1.605  0.6964  0.2668  0.8343
  949MOL0     H28083   1.096   2.736   1.699  1.5944 -0.4970  0.4254
  949MOL0     H28084   1.031   2.657   1.548 -3.2049 -1.5913  0.4803
  949MOL0     H28085   0.989   2.570   1.821  0.0168 -1.9213 -0.4704
  949MOL0     H28086   0.917   2.490   1.678 -1.6005  1.7252 -0.2549
  949MOL0     H28087   0.865   2.792   1.758 -1.8514  0.7963  0.2065
  949MOL0     H28088   0.786   2.697   1.629 -2.5362  3.8107  1.1559
  949MOL0     H28089   0.776   2.610   1.913 -0.6126 -1.6121 -1.5756
  949MOL0     H28090   0.662   2.563   1.785 -0.0432  0.2529  0.6527
  949MOL0     H28091   0.656   2.832   1.926  0.3899 -1.6030  4.0994
  949MOL0     H28092   0.589   2.791   1.766 -1.2060 -0.9709 -0.3751
  949MOL0     H28093   0.495   2.577   1.914  0.6587  0.5553 -1.3583
  949MOL0     H28094   0.408   2.730   1.871 -0.2674  1.0655  0.1971
  949MOL0     H28095   0.565   2.687   2.122  0.6815 -2.1846 -2.6123
  949MOL0     H28096   0.412   2.628   2.117  2.7665 -2.9185 -3.5591
  949MOL0     H28097   1.328   2.354   1.924  0.7413  0.4295  2.2547
  949MOL0     H28098   1.555   2.300   1.962  2.0849  1.6136 -0.3991
  949MOL0     H28099   2.025   2.149   1.718 -4.8895 -0.5174  2.6388
  949MOL0     H28100   2.265   2.138   1.753 -1.3016  0.0656 -0.2120
  949MOL0     H28101   1.929   1.902   2.288  0.0628 -3.9146  2.9001
  949MOL0     H28102   1.798   1.698   2.306 -2.3945 -3.4819 -2.7093
  949MOL0     H28103   1.579   1.364   2.250  1.5660  0.2197 -0.1728
  949MOL0     H28104   1.417   1.171   2.240 -0.4584  1.3241  1.7645
  949MOL0     H28105   1.308   0.943   2.242  1.4835  1.1427  0.1447
  949MOL0     H28106   1.271   1.061   2.107  1.3465 -0.3072 -2.4649
  949MOL0     H28107   1.278   0.769   2.095  2.5023  2.6359  1.2740
  949MOL0     H28108   1.265   0.856   1.950  0.5549  1.0468  0.1784
  949MOL0     H28109   1.050   0.984   2.062 -0.3932  0.3024  3.5139
  949MOL0     H28110   1.070   0.872   2.188 -4.9620 -1.1593  0.5212
  949MOL0     H28111   1.021   0.673   2.055  1.3948  0.0635  1.4324
  949MOL0     H28112   0.989   0.749   1.910 -2.3078 -0.6077  1.0510
  949MOL0     H28113   0.618   0.813   2.102 -0.1497  3.7101  1.1389
  949MOL0     H28114   1.658   0.966   1.979  0.4451 -0.8003  2.7661
  949MOL0     H28115   1.816   1.167   1.948  0.4267  0.3143  0.0298
  950MOL0     O28116  10.985   1.162   3.494 -0.3187 -0.5252  0.5541
  950MOL0     C28117  10.990   1.073   3.582 -0.6554 -0.7486 -0.2302
  950MOL0     O28118  11.101   1.029   3.649  0.0146  0.2778 -0.1827
  950MOL0     C28119  11.217   1.096   3.623  0.1870  0.3059 -1.4353
  950MOL0     C28120  11.299   1.075   3.513 -0.4188 -0.3364  0.4466
  950MOL0     C28121  11.412   1.159   3.498  1.1219  0.0086  1.1654
  950MOL0     C28122  11.467   1.233   3.606 -0.2563  0.2204 -0.1272
  950MOL0     O28123  11.581   1.295   3.572 -0.3238 -0.5605 -0.2234
  950MOL0     C28124  11.682   1.319   3.670 -0.0094 -0.4895  0.2313
  950MOL0     C28125  11.704   1.466   3.688  0.0308 -0.3999  0.5821
  950MOL0     C28126  11.592   1.541   3.755 -0.5705 -0.9492  0.3121
  950MOL0     C28127  11.623   1.696   3.782 -0.5197  0.2773  1.4704
  950MOL0     C28128  11.502   1.770   3.783  0.3962 -0.2593  0.2442
  950MOL0     C28129  11.539   1.912   3.798 -0.6303 -0.6985 -0.5093
  950MOL0     C28130  11.535   1.961   3.945  0.9131  1.0797  0.4172
  950MOL0     C28131  11.568   2.108   3.952  0.4653  0.0210  0.3882
  950MOL0     N28132  11.718   2.130   3.940  0.2076  0.0070  0.3019
  950MOL0     C28133  11.824   2.065   4.006  0.9971 -0.2490 -1.5728
  950MOL0     C28134  11.937   2.115   3.947  0.8845 -0.3376  0.5374
  950MOL0     C28135  12.079   2.088   3.972 -0.0240 -0.5309 -0.0319
  950MOL0     C28136  12.166   2.206   4.032  0.5504 -0.3115 -0.5483
  950MOL0     C28137  12.099   2.276   4.154 -0.6572  0.3570  1.0020
  950MOL0     C28138  12.062   2.175   4.261  0.2001  0.5411 -0.2739
  950MOL0     O28139  12.018   2.237   4.378  0.3906  0.2991 -1.1270
  950MOL0     C28140  11.886   2.252   4.409 -0.3846 -0.7469  0.7500
  950MOL0     C28141  11.850   2.282   4.543 -1.0865  0.0755  0.6746
  950MOL0     C28142  11.714   2.300   4.579  0.6923 -0.5526 -1.0935
  950MOL0     C28143  11.693   2.337   4.727 -0.6674 -0.0496 -0.7081
  950MOL0     C28144  11.607   2.295   4.481 -0.4366  0.4350  0.7115
  950MOL0     C28145  11.462   2.310   4.520 -0.3486 -0.0941  1.0750
  950MOL0     O28146  11.383   2.355   4.413 -0.4140  0.5447  0.3115
  950MOL0     C28147  11.251   2.355   4.407  0.2399 -0.8018  0.2057
  950MOL0     C28148  11.174   2.249   4.365 -0.2860  0.1857 -0.0854
  950MOL0     C28149  11.034   2.247   4.359  0.1510 -0.1754 -0.2021
  950MOL0     C28150  10.963   2.371   4.374 -0.4227 -0.0034 -0.7666
  950MOL0     O28151  10.830   2.398   4.369 -0.4147  0.2086  0.0522
  950MOL0     C28152  10.761   2.311   4.289  1.1706  0.6904  0.6485
  950MOL0     C28153  10.629   2.378   4.259 -0.2421  0.6087  0.1253
  950MOL0     C28154  10.550   2.426   4.377 -0.0382 -0.2056 -0.0531
  950MOL0     C28155  10.429   2.511   4.346 -0.4965 -0.0510  0.1896
  950MOL0     C28156  10.442   2.659   4.371 -0.4101  0.4959  0.5955
  950MOL0     C28157  10.558   2.727   4.289 -1.1429 -0.6592 -0.1582
  950MOL0     C28158  10.544   2.875   4.324 -0.0945 -0.0070 -0.8094
  950MOL0     C28159  10.675   2.956   4.298 -0.8523  0.2255 -0.3135
  950MOL0    Cl28160  10.719   2.989   4.118  0.1868 -0.3503 -0.6847
  950MOL0     C28161  11.040   2.478   4.417 -0.5419 -0.4987 -0.4710
  950MOL0     C28162  11.180   2.475   4.439 -0.6422  0.8032  0.1746
  950MOL0     O28163  11.417   2.281   4.631  0.1258  0.2704 -0.4226
  950MOL0     C28164  11.652   2.267   4.347  0.5980  0.3627  0.6146
  950MOL0     C28165  11.786   2.257   4.310  0.1128 -1.1119 -0.1034
  950MOL0     N28166  11.899   2.198   3.847 -0.0042  0.6924 -0.3979
  950MOL0     N28167  11.769   2.192   3.829 -0.9586  0.9804 -0.7286
  950MOL0     C28168  11.383   1.240   3.730  0.1405 -0.4737 -0.1675
  950MOL0     C28169  11.263   1.168   3.727  0.5444  0.1869 -1.0604
  950MOL0     C28170  10.857   1.009   3.615  0.0279  0.3964  0.5674
  950MOL0     C28171  10.838   0.909   3.708  0.3292  1.0099  0.3356
  950MOL0     C28172  10.714   0.845   3.728 -0.2757 -0.2034 -0.2845
  950MOL0     C28173  10.604   0.901   3.665  0.1265 -0.4420 -0.0682
  950MOL0     O28174  10.476   0.853   3.689 -1.0105  0.3430  0.1334
  950MOL0     C28175  10.457   0.727   3.617  0.2326  0.0486 -0.1644
  950MOL0     C28176  10.457   0.601   3.708  0.5479 -0.0169 -0.5247
  950MOL0     C28177  10.405   0.476   3.625  0.5828 -0.2896 -0.4207
  950MOL0     C28178  10.253   0.489   3.610  0.6552  0.7570  0.2303
  950MOL0     C28179  10.216   0.362   3.548  0.1658  0.1446  0.2804
  950MOL0     C28180  10.211   0.264   3.486 -0.0510  0.4227 -0.7092
  950MOL0     C28181  10.615   1.012   3.581 -0.2295 -0.3679 -0.5292
  950MOL0     C28182  10.741   1.061   3.552 -1.4554  0.5259  0.7510
  950MOL0     H28183  11.280   1.002   3.435 -0.3595  0.7276 -0.5851
  950MOL0     H28184  11.477   1.151   3.412 -0.1153 -2.8200  0.4124
  950MOL0     H28185  11.655   1.273   3.765  2.3009  0.6141  1.5132
  950MOL0     H28186  11.771   1.264   3.638 -1.0050 -4.0911  2.9887
  950MOL0     H28187  11.793   1.482   3.750 -0.4988 -3.4305  2.2914
  950MOL0     H28188  11.725   1.515   3.592  1.9803  3.6535  2.7783
  950MOL0     H28189  11.507   1.532   3.686 -1.2822  1.0369  0.8765
  950MOL0     H28190  11.560   1.481   3.842 -1.0521 -0.9683  0.1270
  950MOL0     H28191  11.681   1.710   3.873  2.6063 -2.9960  0.2258
  950MOL0     H28192  11.685   1.727   3.698 -4.0058 -0.9632 -1.8662
  950MOL0     H28193  11.460   1.769   3.682  0.0004  1.4510  0.3673
  950MOL0     H28194  11.427   1.750   3.861 -3.5331  3.0165 -2.2628
  950MOL0     H28195  11.633   1.935   3.748 -0.0472  0.1189  0.9099
  950MOL0     H28196  11.477   1.973   3.731 -0.5293 -2.5787 -2.4368
  950MOL0     H28197  11.431   1.943   3.973  1.0266 -2.2332 -0.8056
  950MOL0     H28198  11.591   1.906   4.020 -1.8199  1.1019  2.6255
  950MOL0     H28199  11.539   2.150   4.049  1.8680  0.6137  0.5844
  950MOL0     H28200  11.520   2.166   3.873  0.3029 -0.1980  0.3292
  950MOL0     H28201  11.811   1.993   4.085 -1.2970 -1.0236 -2.5715
  950MOL0     H28202  12.081   2.026   4.062 -4.5185 -0.0423  0.6428
  950MOL0     H28203  12.135   2.052   3.885  3.5125  1.1957  1.3365
  950MOL0     H28204  12.189   2.271   3.948 -1.0112 -2.6639 -2.9760
  950MOL0     H28205  12.267   2.167   4.044  1.4957  1.4014 -2.4257
  950MOL0     H28206  12.008   2.332   4.129 -0.9343  0.1347  1.4994
  950MOL0     H28207  12.174   2.347   4.192  1.9258 -1.9517  0.5161
  950MOL0     H28208  12.148   2.113   4.290  0.6017  2.4388  3.0618
  950MOL0     H28209  11.988   2.102   4.229 -0.9449  2.3772 -2.0003
  950MOL0     H28210  11.935   2.282   4.611  0.4492 -2.0801 -1.0879
  950MOL0     H28211  11.788   2.350   4.781 -0.7266  1.3472 -0.9136
  950MOL0     H28212  11.655   2.439   4.739  1.6873  0.7339  0.9121
  950MOL0     H28213  11.617   2.273   4.773 -1.0133  0.2845 -0.8162
  950MOL0     H28214  11.223   2.157   4.333 -0.9771 -0.4218  0.5804
  950MOL0     H28215  10.984   2.158   4.324  2.1083 -1.0528 -0.8884
  950MOL0     H28216  10.815   2.271   4.202  2.1011  0.4526  1.3227
  950MOL0     H28217  10.730   2.219   4.338  0.7508  0.7609  0.5217
  950MOL0     H28218  10.661   2.465   4.201  2.6536  0.0779  0.7546
  950MOL0     H28219  10.560   2.313   4.205 -2.3208  0.8780  2.3026
  950MOL0     H28220  10.604   2.492   4.446  0.6011 -1.4940  0.7187
  950MOL0     H28221  10.521   2.337   4.434 -0.3025 -1.8124 -2.5606
  950MOL0     H28222  10.405   2.505   4.239  1.1733  0.6879 -0.2609
  950MOL0     H28223  10.338   2.471   4.392 -0.3219  1.5071  1.9943
  950MOL0     H28224  10.463   2.666   4.478  2.3339 -2.2150  0.3939
  950MOL0     H28225  10.347   2.705   4.344 -1.6913 -1.9320  0.7049
  950MOL0     H28226  10.659   2.691   4.309 -0.3048  1.5121 -0.2357
  950MOL0     H28227  10.533   2.718   4.183 -0.6579  0.8040 -0.4151
  950MOL0     H28228  10.528   2.887   4.432  3.8966  1.7063 -0.2341
  950MOL0     H28229  10.459   2.922   4.273 -0.1038  4.3160  2.5401
  950MOL0     H28230  10.757   2.898   4.340 -0.6361 -2.5170 -3.9713
  950MOL0     H28231  10.660   3.049   4.353  2.6861 -0.1794  1.6078
  950MOL0     H28232  10.973   2.562   4.433  0.1436 -0.1841  0.9400
  950MOL0     H28233  11.230   2.566   4.472 -1.0392  1.0682  0.0437
  950MOL0     H28234  11.572   2.255   4.275  0.5303 -0.3708  0.7946
  950MOL0     H28235  11.802   2.258   4.203 -2.4594 -0.6056 -0.5579
  950MOL0     H28236  11.419   1.290   3.820  2.2544  0.4964 -1.4673
  950MOL0     H28237  11.201   1.153   3.816  0.5745 -1.0623 -1.2251
  950MOL0     H28238  10.933   0.877   3.750 -1.3240 -2.2168  1.9039
  950MOL0     H28239  10.704   0.757   3.790 -0.7620  0.9549  1.3687
  950MOL0     H28240  10.362   0.735   3.563  0.9543 -0.6552 -1.5677
  950MOL0     H28241  10.531   0.707   3.539 -1.2843 -2.2117 -1.1176
  950MOL0     H28242  10.399   0.618   3.799  0.9902  2.9600 -0.6798
  950MOL0     H28243  10.560   0.597   3.745 -0.7211  0.6442  3.5752
  950MOL0     H28244  10.436   0.391   3.688 -1.6234 -1.1922 -0.4609
  950MOL0     H28245  10.443   0.472   3.523  1.1187 -0.0109 -0.2356
  950MOL0     H28246  10.237   0.569   3.537  1.0629  1.5278  0.9586
  950MOL0     H28247  10.197   0.509   3.702  1.9240  0.2730  1.1291
  950MOL0     H28248  10.213   0.176   3.425  0.1834  0.5182 -0.8433
  950MOL0     H28249  10.531   1.062   3.535  0.1001  2.2129  1.4466
  950MOL0     H28250  10.757   1.135   3.475 -0.8897 -1.5927 -1.2936
  951MOL0     O28251   3.728   1.589   5.482  0.0316 -0.2382 -0.0063
  951MOL0     C28252   3.657   1.633   5.388  0.1639  0.3123  0.4651
  951MOL0     O28253   3.616   1.761   5.380  1.0095  0.5167  0.4505
  951MOL0     C28254   3.625   1.844   5.485 -0.2259  0.0605 -0.0045
  951MOL0     C28255   3.528   1.868   5.581 -0.0531 -0.4887  0.3107
  951MOL0     C28256   3.546   1.973   5.665  0.0279  1.2904 -0.5908
  951MOL0     C28257   3.659   2.064   5.669  0.1520 -0.3715  0.1067
  951MOL0     O28258   3.676   2.171   5.759  0.4073 -0.0842 -0.4684
  951MOL0     C28259   3.635   2.148   5.888  0.4795  0.4572 -0.2814
  951MOL0     C28260   3.651   2.281   5.956  0.6530  0.4921 -0.5665
  951MOL0     C28261   3.634   2.266   6.104  0.0165 -0.5133 -1.4103
  951MOL0     C28262   3.648   2.404   6.167 -0.7091 -0.9775  0.5501
  951MOL0     C28263   3.676   2.399   6.321  0.4022  0.6962  0.3262
  951MOL0     C28264   3.650   2.545   6.367 -0.2108 -0.8089 -0.3689
  951MOL0     C28265   3.695   2.576   6.509  0.8905  0.1565 -0.8566
  951MOL0     C28266   3.608   2.497   6.619 -0.5374  0.7270  0.3143
  951MOL0     N28267   3.674   2.537   6.748 -0.1620  0.0148 -0.0571
  951MOL0     C28268   3.771   2.468   6.808  0.2734  0.5516  0.1837
  951MOL0     C28269   3.779   2.505   6.939  0.6049 -0.2325 -0.4676
  951MOL0     C28270   3.874   2.462   7.043  0.2860  0.8695  0.1951
  951MOL0     C28271   3.807   2.369   7.150  0.3278 -0.1549 -0.3361
  951MOL0     C28272   3.717   2.440   7.255 -0.1597 -0.2633  0.1464
  951MOL0     C28273   3.793   2.522   7.356 -0.3483 -0.3548  0.9776
  951MOL0     O28274   3.868   2.426   7.432  0.7334 -0.2353  0.1493
  951MOL0     C28275   3.970   2.484   7.508  0.4627 -0.1753  0.6134
  951MOL0     C28276   4.001   2.420   7.624 -0.6421 -0.6990 -0.1589
  951MOL0     C28277   4.105   2.460   7.711  0.4815 -0.4528 -0.3174
  951MOL0     C28278   4.121   2.380   7.838 -0.2391 -0.3228  0.0068
  951MOL0     C28279   4.187   2.567   7.679  0.7502 -0.5094 -0.1354
  951MOL0     C28280   4.295   2.605   7.771 -0.5603  0.2020  0.0340
  951MOL0     O28281   4.275   2.626   7.895 -0.0382  0.2582 -0.4974
  951MOL0     C28282   4.384   2.652   7.983  1.4116  0.5886  0.3488
  951MOL0     C28283   4.469   2.547   8.010  0.4132  0.6562 -0.4370
  951MOL0     C28284   4.571   2.555   8.104  0.5117 -0.8015 -1.0916
  951MOL0     C28285   4.583   2.681   8.173  0.9573 -1.0361  1.0860
  951MOL0     O28286   4.697   2.698   8.248  0.0631  0.3828 -0.1840
  951MOL0     C28287   4.719   2.825   8.317 -0.1531 -0.5341 -0.0503
  951MOL0     C28288   4.851   2.820   8.403  0.4072 -0.0682 -0.2922
  951MOL0     C28289   4.875   2.946   8.489 -0.3401  0.4292  1.1015
  951MOL0     C28290   4.995   2.921   8.576 -0.5174 -0.2539 -0.1024
  951MOL0     C28291   5.025   3.051   8.646  0.3791  0.0236  0.8200
  951MOL0     C28292   5.150   3.029   8.738 -1.1937  0.3023  0.2691
  951MOL0     C28293   5.201   3.164   8.800  0.1898 -0.1557  0.0844
  951MOL0     C28294   5.331   3.141   8.876  0.4934 -0.5795  0.5109
  951MOL0    Cl28295   5.384   3.290   8.974  0.5129  0.6710  0.0599
  951MOL0     C28296   4.483   2.783   8.160  0.3856  0.6401 -0.2105
  951MOL0     C28297   4.385   2.764   8.061  0.3461 -0.5544 -0.7215
  951MOL0     O28298   4.406   2.615   7.721  1.6965 -0.4124  0.1654
  951MOL0     C28299   4.159   2.639   7.559  0.0663 -0.1120 -0.2468
  951MOL0     C28300   4.053   2.594   7.478 -0.4012 -0.1049  1.1341
  951MOL0     N28301   3.679   2.610   6.949  0.4045 -0.1182  0.0758
  951MOL0     N28302   3.628   2.633   6.836  0.5096 -0.0595  0.0851
  951MOL0     C28303   3.757   2.032   5.576  0.6775  0.3706 -0.4168
  951MOL0     C28304   3.741   1.935   5.480  0.6738 -0.5582 -0.2126
  951MOL0     C28305   3.601   1.527   5.299 -0.0590  1.0069  1.3551
  951MOL0     C28306   3.659   1.397   5.289  0.2384 -0.2559  0.3170
  951MOL0     C28307   3.595   1.288   5.218 -0.3969 -0.8320 -0.1383
  951MOL0     C28308   3.474   1.311   5.158 -0.5034 -0.2682  0.0624
  951MOL0     O28309   3.408   1.207   5.103 -0.0844  0.2570 -0.0462
  951MOL0     C28310   3.443   1.191   4.965 -0.5520  0.6038 -0.0235
  951MOL0     C28311   3.332   1.181   4.866  0.6348  0.3546  0.2153
  951MOL0     C28312   3.373   1.201   4.725  0.4105  0.3114 -0.3834
  951MOL0     C28313   3.259   1.195   4.626  0.1600 -0.0453 -0.6286
  951MOL0     C28314   3.307   1.244   4.499  0.0403 -0.0782 -0.2793
  951MOL0     C28315   3.356   1.285   4.402 -0.1042 -0.3371 -0.3043
  951MOL0     C28316   3.423   1.441   5.147  0.4107 -0.3261  0.3811
  951MOL0     C28317   3.486   1.544   5.217 -0.0057 -0.2850 -0.5849
  951MOL0     H28318   3.436   1.811   5.582 -0.8028  0.6864 -0.4841
  951MOL0     H28319   3.472   1.974   5.743  0.3440  1.1586 -0.2861
  951MOL0     H28320   3.532   2.113   5.892  1.5007 -2.6809  3.0316
  951MOL0     H28321   3.696   2.067   5.927  1.5607 -1.2319 -4.8311
  951MOL0     H28322   3.745   2.331   5.930  0.4275  1.5299  0.5480
  951MOL0     H28323   3.578   2.348   5.910  0.7810 -0.2256 -1.8936
  951MOL0     H28324   3.536   2.220   6.122  1.0732 -2.9960 -1.5588
  951MOL0     H28325   3.716   2.201   6.136  1.1442  0.8890 -1.3812
  951MOL0     H28326   3.734   2.451   6.118 -0.4519 -0.7506  1.2039
  951MOL0     H28327   3.573   2.482   6.149  0.5465  0.1093 -0.1434
  951MOL0     H28328   3.612   2.328   6.374  2.0621  1.5774  3.8241
  951MOL0     H28329   3.780   2.370   6.340 -0.0866  0.1269  2.4426
  951MOL0     H28330   3.704   2.619   6.307 -1.5549 -0.8025 -1.6487
  951MOL0     H28331   3.542   2.566   6.367 -0.2347 -0.9281 -0.5129
  951MOL0     H28332   3.800   2.546   6.513  1.0009  0.6070  1.4344
  951MOL0     H28333   3.684   2.685   6.513  0.7088  0.3320 -4.0761
  951MOL0     H28334   3.614   2.392   6.589  0.5979  1.3678 -1.9329
  951MOL0     H28335   3.500   2.513   6.613 -0.6314  0.0840  0.2251
  951MOL0     H28336   3.843   2.407   6.754  0.0831  0.9147 -0.4930
  951MOL0     H28337   3.955   2.411   6.989 -0.5687  1.2953 -1.5737
  951MOL0     H28338   3.921   2.548   7.091  0.1498  0.9986  0.0975
  951MOL0     H28339   3.890   2.325   7.205 -1.4395 -1.5600  1.3516
  951MOL0     H28340   3.746   2.294   7.098  1.0163 -1.1607  0.2742
  951MOL0     H28341   3.659   2.358   7.300  2.1498 -3.0162 -1.5060
  951MOL0     H28342   3.649   2.509   7.207  2.7479  1.4729 -1.7769
  951MOL0     H28343   3.728   2.578   7.424  0.8025  3.8302 -1.0477
  951MOL0     H28344   3.853   2.593   7.299 -0.8494  0.2487  1.1919
  951MOL0     H28345   3.948   2.326   7.636 -1.8140 -0.3459 -2.1046
  951MOL0     H28346   4.093   2.277   7.815  0.0899 -0.4107 -0.0045
  951MOL0     H28347   4.228   2.372   7.860 -0.5638 -1.5126  1.2846
  951MOL0     H28348   4.065   2.418   7.924  4.3856  0.7188  2.9326
  951MOL0     H28349   4.442   2.450   7.969 -3.4129 -0.2496  3.5699
  951MOL0     H28350   4.645   2.477   8.111 -1.0419 -2.5048 -2.5562
  951MOL0     H28351   4.720   2.910   8.249  1.1219  1.0763  1.8661
  951MOL0     H28352   4.628   2.843   8.376 -3.0925 -3.8945 -3.0325
  951MOL0     H28353   4.828   2.737   8.471 -2.2033 -0.1777 -1.1701
  951MOL0     H28354   4.935   2.801   8.336  0.1937 -4.4344  0.3866
  951MOL0     H28355   4.785   2.962   8.550 -2.4758  0.1419 -1.8071
  951MOL0     H28356   4.890   3.029   8.419  0.7222 -1.4758 -1.0267
  951MOL0     H28357   4.975   2.847   8.654  0.0560 -0.8033 -0.4628
  951MOL0     H28358   5.084   2.880   8.527 -1.1112  1.4398 -2.8082
  951MOL0     H28359   4.942   3.057   8.718 -1.3760 -0.7327 -1.0392
  951MOL0     H28360   5.011   3.139   8.584 -1.2911 -0.9782 -0.3099
  951MOL0     H28361   5.121   2.957   8.815  0.8297 -1.4436 -0.5094
  951MOL0     H28362   5.237   2.988   8.687 -0.6640  1.3076  0.3359
  951MOL0     H28363   5.131   3.229   8.853  1.2745 -1.0474  2.7927
  951MOL0     H28364   5.228   3.236   8.723 -2.2759  0.8611  0.0894
  951MOL0     H28365   5.404   3.115   8.798 -2.3964 -4.9561 -1.1760
  951MOL0     H28366   5.321   3.049   8.934  1.9508 -2.3207 -1.8275
  951MOL0     H28367   4.484   2.875   8.216 -0.3526  0.3718  0.2546
  951MOL0     H28368   4.304   2.836   8.055  0.3683 -0.3360  1.0376
  951MOL0     H28369   4.223   2.723   7.535  1.7524  0.4665  4.9711
  951MOL0     H28370   4.044   2.641   7.380  3.8166  1.0838  1.1236
  951MOL0     H28371   3.846   2.093   5.562  1.3582 -0.4195  0.3350
  951MOL0     H28372   3.814   1.922   5.401 -2.0496  0.5477 -3.1773
  951MOL0     H28373   3.757   1.376   5.332  1.0337 -2.4834 -2.2773
  951MOL0     H28374   3.657   1.199   5.208  0.8277 -0.5220  3.3031
  951MOL0     H28375   3.505   1.275   4.933 -1.2835  1.5963  1.0873
  951MOL0     H28376   3.510   1.105   4.973  1.1441  2.0101  2.1755
  951MOL0     H28377   3.260   1.261   4.890  1.6860  1.0068  1.2833
  951MOL0     H28378   3.288   1.081   4.875  2.2493 -0.1420  4.1745
  951MOL0     H28379   3.450   1.126   4.705 -0.5061 -0.7317 -0.1374
  951MOL0     H28380   3.430   1.294   4.723  0.3980  0.3050 -1.7627
  951MOL0     H28381   3.186   1.266   4.666  2.5265  1.3827  1.4393
  951MOL0     H28382   3.225   1.091   4.624  0.0465 -0.1006  1.5702
  951MOL0     H28383   3.403   1.342   4.324  2.5267 -1.1678  0.5930
  951MOL0     H28384   3.331   1.451   5.091 -1.3237 -2.6051  2.5743
  951MOL0     H28385   3.436   1.640   5.207  0.5968  0.3348  1.7939
  952MOL0     O28386   7.400   5.248   1.973 -0.1216  0.5548  0.6986
  952MOL0     C28387   7.285   5.267   1.931 -0.2076 -1.2281 -0.1465
  952MOL0     O28388   7.181   5.295   2.006  0.4033 -0.2315  0.1129
  952MOL0     C28389   7.206   5.310   2.138 -0.4641  0.1628  0.4235
  952MOL0     C28390   7.225   5.193   2.219  0.0132  0.7736 -0.0797
  952MOL0     C28391   7.261   5.212   2.355  0.3523  0.3799  0.3280
  952MOL0     C28392   7.279   5.350   2.403 -0.0095 -0.5045 -0.1510
  952MOL0     O28393   7.299   5.369   2.532 -0.3403  0.2036 -0.0407
  952MOL0     C28394   7.431   5.324   2.573 -0.1531  0.4400 -0.4973
  952MOL0     C28395   7.447   5.231   2.700  0.4064 -0.4225 -0.0248
  952MOL0     C28396   7.354   5.105   2.699 -0.3480 -0.2242 -0.8160
  952MOL0     C28397   7.307   5.077   2.842  0.1156  1.4317  0.1341
  952MOL0     C28398   7.183   4.984   2.846  0.0098  0.4464  0.3682
  952MOL0     C28399   7.072   5.047   2.921  0.0386  0.1789 -0.1882
  952MOL0     C28400   6.951   4.947   2.935 -0.0365  0.7017 -0.4930
  952MOL0     C28401   6.888   4.918   2.802  0.0622 -0.5244 -0.0251
  952MOL0     N28402   6.832   5.043   2.730 -0.6510  0.4864 -0.3388
  952MOL0     C28403   6.906   5.143   2.670  0.6242 -0.2723 -0.0271
  952MOL0     C28404   6.816   5.229   2.632 -0.8440 -0.2884  0.7052
  952MOL0     C28405   6.831   5.360   2.566  0.1248  0.0917  0.7515
  952MOL0     C28406   6.830   5.341   2.413 -0.3433  0.0163 -0.0085
  952MOL0     C28407   6.893   5.459   2.339 -0.0848  0.6295 -0.3005
  952MOL0     C28408   6.894   5.422   2.193  1.0154 -0.6560 -0.1666
  952MOL0     O28409   6.939   5.542   2.127 -0.4050 -0.2587  0.5462
  952MOL0     C28410   6.911   5.566   2.000  0.5581 -0.6001  0.0903
  952MOL0     C28411   6.838   5.485   1.905 -0.0703 -1.2760 -1.2631
  952MOL0     C28412   6.806   5.539   1.780  0.7343  0.0236  0.0781
  952MOL0     C28413   6.715   5.466   1.702 -0.5993 -0.3070  0.0985
  952MOL0     C28414   6.867   5.654   1.723 -0.3210  0.1694 -0.3692
  952MOL0     C28415   6.860   5.694   1.584  0.2961 -0.3351  0.1924
  952MOL0     O28416   6.747   5.669   1.510  0.1289  0.1141  0.0507
  952MOL0     C28417   6.751   5.707   1.376 -0.1866 -0.5355 -0.1561
  952MOL0     C28418   6.790   5.614   1.279 -1.2372 -0.4000 -0.8720
  952MOL0     C28419   6.802   5.667   1.148 -0.0916 -0.2134 -0.1336
  952MOL0     C28420   6.803   5.799   1.118  0.5777 -0.0485 -0.4804
  952MOL0     O28421   6.813   5.834   0.990  0.6794  0.2746  0.2947
  952MOL0     C28422   6.860   5.967   0.963 -0.9185 -1.1175  0.3866
  952MOL0     C28423   6.896   5.978   0.816  0.5551 -0.1932  0.1258
  952MOL0     C28424   7.025   5.921   0.787  0.8312 -0.0840  1.0443
  952MOL0     C28425   7.144   5.983   0.852  0.2322 -0.2593  0.4184
  952MOL0     C28426   7.157   6.136   0.820 -0.0359  0.0330 -0.1740
  952MOL0     C28427   7.137   6.172   0.674 -0.2689  0.2300 -0.8376
  952MOL0     C28428   7.268   6.133   0.590 -0.3711 -0.3164 -1.2065
  952MOL0     C28429   7.297   6.239   0.472  0.6567 -0.4414 -0.3463
  952MOL0    Cl28430   7.171   6.181   0.362  0.2995 -0.1684 -0.3185
  952MOL0     C28431   6.760   5.891   1.219  1.0578  0.6964  0.0124
  952MOL0     C28432   6.728   5.839   1.344  0.2301 -0.3403  0.3689
  952MOL0     O28433   6.953   5.753   1.538 -0.4068 -0.1213 -0.8234
  952MOL0     C28434   6.936   5.738   1.817  0.4275  0.3104  0.0853
  952MOL0     C28435   6.956   5.689   1.950  0.5959  0.6246  0.3725
  952MOL0     N28436   6.683   5.177   2.659 -0.2736 -0.2208  0.1643
  952MOL0     N28437   6.694   5.062   2.710 -0.4629  0.4525 -0.2903
  952MOL0     C28438   7.273   5.459   2.319  0.6418  0.1335  0.7400
  952MOL0     C28439   7.231   5.440   2.191 -0.7780 -0.6600  0.0880
  952MOL0     C28440   7.273   5.274   1.786 -1.1731  0.1532  0.5203
  952MOL0     C28441   7.147   5.282   1.734  0.2319  0.5234 -0.2941
  952MOL0     C28442   7.123   5.290   1.598  0.6103  0.6441  0.2995
  952MOL0     C28443   7.239   5.293   1.511  0.2692  0.2930  0.5004
  952MOL0     O28444   7.233   5.282   1.367  0.3272  0.0053  0.1689
  952MOL0     C28445   7.105   5.317   1.305  0.1920 -0.8404  0.2100
  952MOL0     C28446   7.094   5.286   1.150 -0.7422 -0.0554 -0.5220
  952MOL0     C28447   6.983   5.364   1.079  0.3188  1.1514 -0.2613
  952MOL0     C28448   6.952   5.293   0.949 -0.0664 -0.4958  0.4613
  952MOL0     C28449   7.055   5.323   0.852 -0.0662 -0.6207 -0.5638
  952MOL0     C28450   7.131   5.331   0.759 -1.1691  0.4930  0.3759
  952MOL0     C28451   7.369   5.284   1.564  0.4239 -0.9840  0.3534
  952MOL0     C28452   7.388   5.270   1.702 -0.3716  0.3742  0.8411
  952MOL0     H28453   7.196   5.090   2.200 -0.8118  0.9037  0.4382
  952MOL0     H28454   7.282   5.124   2.415 -1.1420 -0.8191 -0.8092
  952MOL0     H28455   7.473   5.270   2.488 -2.2537 -1.0785 -0.6456
  952MOL0     H28456   7.499   5.408   2.591 -1.9725  2.2890 -1.8054
  952MOL0     H28457   7.552   5.204   2.713  0.4725  0.3903  1.3536
  952MOL0     H28458   7.416   5.303   2.776  4.3268  2.5970 -0.9555
  952MOL0     H28459   7.263   5.129   2.644  0.4347 -0.3515 -2.2074
  952MOL0     H28460   7.398   5.014   2.655 -1.6118 -0.8923 -0.7354
  952MOL0     H28461   7.388   5.038   2.904 -0.2735 -0.2660 -0.3827
  952MOL0     H28462   7.279   5.173   2.887  1.3814  1.5508  0.7033
  952MOL0     H28463   7.156   4.969   2.741  1.6250 -1.7715  0.1932
  952MOL0     H28464   7.215   4.894   2.900 -2.6035 -0.2722  0.8634
  952MOL0     H28465   7.110   5.079   3.019 -1.1451  0.1719  0.2950
  952MOL0     H28466   7.041   5.139   2.870 -1.2016 -0.7376 -1.1525
  952MOL0     H28467   6.985   4.848   2.970 -1.6724  0.0132 -0.7698
  952MOL0     H28468   6.884   4.978   3.016  1.1920 -0.8877  1.2465
  952MOL0     H28469   6.802   4.854   2.821 -1.9097  1.7078 -0.9003
  952MOL0     H28470   6.958   4.857   2.745 -0.0915 -1.3552  0.6642
  952MOL0     H28471   7.014   5.143   2.670  0.6630 -1.7293  1.3914
  952MOL0     H28472   6.752   5.433   2.585  0.8829  1.1054  0.1360
  952MOL0     H28473   6.923   5.405   2.604  1.1977 -2.3136  1.1714
  952MOL0     H28474   6.731   5.316   2.374 -0.8034  1.2109  0.3555
  952MOL0     H28475   6.891   5.254   2.386 -1.3164 -0.1341 -1.9634
  952MOL0     H28476   6.997   5.478   2.364  0.3588  0.4194 -1.8538
  952MOL0     H28477   6.835   5.549   2.364 -2.9374 -1.0812 -0.3582
  952MOL0     H28478   6.804   5.387   2.140  1.3356  1.0017 -1.9286
  952MOL0     H28479   6.967   5.341   2.182 -0.6202 -2.3500  0.7802
  952MOL0     H28480   6.786   5.402   1.951 -0.9101 -0.4901 -0.7575
  952MOL0     H28481   6.679   5.373   1.748  1.6527 -2.5225 -2.2710
  952MOL0     H28482   6.623   5.521   1.680 -0.3576 -0.0765 -0.3364
  952MOL0     H28483   6.769   5.445   1.610  2.1274  1.6539  1.1181
  952MOL0     H28484   6.809   5.509   1.297  0.5620 -0.1971 -1.4048
  952MOL0     H28485   6.830   5.601   1.066  0.4309 -0.2369  0.0594
  952MOL0     H28486   6.781   6.040   0.984  0.7182  0.4823  1.1618
  952MOL0     H28487   6.950   5.987   1.021 -0.7956 -1.2615  0.2454
  952MOL0     H28488   6.822   5.919   0.761 -1.1219 -0.0912  2.1241
  952MOL0     H28489   6.880   6.081   0.783 -1.4974 -1.0526 -1.7858
  952MOL0     H28490   7.033   5.931   0.678  1.3754 -0.1726  1.0783
  952MOL0     H28491   7.012   5.814   0.805  0.3409 -0.8978 -3.1623
  952MOL0     H28492   7.151   5.974   0.961 -0.7159 -0.4613  0.4642
  952MOL0     H28493   7.219   5.925   0.798  0.0823 -0.0543 -0.0109
  952MOL0     H28494   7.259   6.155   0.856 -0.5176 -0.1641  1.3828
  952MOL0     H28495   7.096   6.199   0.886  0.2581  0.6088 -0.4484
  952MOL0     H28496   7.044   6.127   0.638 -0.7118  0.7638 -0.3677
  952MOL0     H28497   7.117   6.278   0.656  1.7412  0.5732 -1.3267
  952MOL0     H28498   7.251   6.031   0.553 -1.4029 -0.2815 -0.8646
  952MOL0     H28499   7.352   6.137   0.660 -3.3303  2.2885  2.5563
  952MOL0     H28500   7.395   6.239   0.424 -0.2859 -1.2176 -2.3593
  952MOL0     H28501   7.284   6.344   0.498  0.9929 -0.4841  0.0097
  952MOL0     H28502   6.743   5.996   1.197 -1.7094  0.4458  0.5328
  952MOL0     H28503   6.691   5.906   1.421 -2.2633 -2.0461  0.7410
  952MOL0     H28504   6.972   5.838   1.794 -0.3766  1.2850  2.6311
  952MOL0     H28505   7.008   5.759   2.015  1.4691  0.3324  0.0005
  952MOL0     H28506   7.278   5.559   2.359  0.5455  0.8336 -0.8930
  952MOL0     H28507   7.212   5.524   2.126 -1.6765  1.0426  2.4255
  952MOL0     H28508   7.054   5.278   1.789 -0.8080 -0.9094 -2.0369
  952MOL0     H28509   7.020   5.275   1.567  1.4354 -2.3089 -1.3465
  952MOL0     H28510   7.032   5.261   1.363 -0.5033 -0.1754 -0.0096
  952MOL0     H28511   7.078   5.420   1.329  1.2415 -0.5505  0.2023
  952MOL0     H28512   7.072   5.180   1.133 -3.9325  0.6761 -1.5796
  952MOL0     H28513   7.189   5.311   1.102 -1.2918  0.0108 -1.6039
  952MOL0     H28514   7.025   5.463   1.063  0.6275  1.3606  1.6305
  952MOL0     H28515   6.895   5.379   1.143 -0.6796 -2.7361 -0.4329
  952MOL0     H28516   6.862   5.336   0.904  0.9235  2.5944  1.2193
  952MOL0     H28517   6.942   5.184   0.946 -0.5415 -0.5780  2.8019
  952MOL0     H28518   7.195   5.335   0.673  1.6749 -0.1799  2.3225
  952MOL0     H28519   7.452   5.294   1.494 -0.2359 -0.7086 -0.4051
  952MOL0     H28520   7.488   5.256   1.743  0.4710 -0.1653 -1.2316
  953MOL0     O28521   8.643   9.717  10.078 -0.4214 -0.1983 -0.0285
  953MOL0     C28522   8.681   9.720  10.195 -1.0558 -0.9751  0.0805
  953MOL0     O28523   8.788   9.655  10.248 -0.1966 -0.2148  0.0312
  953MOL0     C28524   8.870   9.600  10.159 -0.2975  0.1796  1.1102
  953MOL0     C28525   8.858   9.469  10.128  0.7286 -0.4925  0.9047
  953MOL0     C28526   8.951   9.401  10.047 -0.1844  0.0418 -0.6621
  953MOL0     C28527   9.061   9.464   9.994  1.0313  0.5598 -0.1740
  953MOL0     O28528   9.171   9.402   9.933  0.4126 -0.3893 -0.4691
  953MOL0     C28529   9.167   9.271   9.876  0.5394 -0.8771 -0.4649
  953MOL0     C28530   9.296   9.196   9.914 -0.1379  0.5620  0.5035
  953MOL0     C28531   9.346   9.203  10.058  0.2745  1.0635  0.7401
  953MOL0     C28532   9.395   9.063  10.111  0.3583 -0.7536 -0.1198
  953MOL0     C28533   9.457   9.076  10.245 -0.0030 -1.1247 -0.3295
  953MOL0     C28534   9.449   8.953  10.336  0.1127 -0.7591 -0.3333
  953MOL0     C28535   9.539   8.945  10.459  0.3718 -0.0947 -0.3695
  953MOL0     C28536   9.502   8.821  10.546  0.9460  0.4273  0.1243
  953MOL0     N28537   9.578   8.832  10.674 -0.3117 -0.5783  0.5865
  953MOL0     C28538   9.702   8.775  10.696  0.2458  0.6595 -0.8468
  953MOL0     C28539   9.724   8.774  10.830  0.5540  0.6467  0.3601
  953MOL0     C28540   9.826   8.710  10.919  0.3487 -0.4681 -0.5501
  953MOL0     C28541   9.842   8.556  10.913 -0.1428  0.1243 -0.3760
  953MOL0     C28542   9.954   8.517  11.023 -0.5965 -0.2475 -0.0021
  953MOL0     C28543   9.897   8.383  11.068 -0.5963  0.6401 -0.1237
  953MOL0     O28544   9.917   8.286  10.974  0.3477 -0.2369  0.6767
  953MOL0     C28545   9.924   8.153  11.014  0.3779 -0.7388 -1.0817
  953MOL0     C28546   9.876   8.108  11.139 -0.2367 -0.2139  0.5325
  953MOL0     C28547   9.907   7.972  11.184  0.9929 -0.1885  0.5874
  953MOL0     C28548   9.883   7.941  11.328 -0.6050 -0.2437  1.0663
  953MOL0     C28549   9.953   7.878  11.085  0.8791 -0.2258  0.2397
  953MOL0     C28550   9.961   7.739  11.115  0.6679 -0.5271 -1.0948
  953MOL0     O28551  10.044   7.673  11.040  0.1289  0.2721  0.5393
  953MOL0     C28552  10.111   7.568  11.108 -0.7302 -0.9968  0.1683
  953MOL0     C28553  10.141   7.561  11.248 -0.1092 -0.1064 -0.7484
  953MOL0     C28554  10.223   7.457  11.288 -0.6005  1.2128 -0.1878
  953MOL0     C28555  10.264   7.347  11.213  0.2674 -1.6997 -0.0850
  953MOL0     O28556  10.351   7.245  11.256  0.4723 -0.6339 -1.5522
  953MOL0     C28557  10.291   7.114  11.250 -0.6493  0.6678 -0.0980
  953MOL0     C28558  10.358   7.032  11.365  0.3711  0.3462  0.3821
  953MOL0     C28559  10.298   6.896  11.389  0.1061  0.3162 -0.1273
  953MOL0     C28560  10.324   6.791  11.277  0.2479  0.1794 -0.3213
  953MOL0     C28561  10.270   6.646  11.313 -0.6350 -0.0119 -0.1542
  953MOL0     C28562  10.353   6.582  11.428 -0.2288  0.3046  0.4532
  953MOL0     C28563  10.303   6.437  11.428 -0.1082 -0.2063 -0.0227
  953MOL0     C28564  10.382   6.356  11.531 -0.7457 -1.0828  0.3431
  953MOL0    Cl28565  10.547   6.313  11.481 -0.4551 -0.2729 -0.5453
  953MOL0     C28566  10.214   7.350  11.076  0.1773  0.2260 -0.4619
  953MOL0     C28567  10.153   7.463  11.033  0.9719 -0.2635  0.0246
  953MOL0     O28568   9.896   7.698  11.205  0.1423  0.6237  0.7958
  953MOL0     C28569   9.976   7.925  10.954  0.1217  0.0984  0.0318
  953MOL0     C28570   9.971   8.056  10.922  0.6758 -0.0504  0.0356
  953MOL0     N28571   9.622   8.845  10.887 -0.2121  0.4207  0.4104
  953MOL0     N28572   9.535   8.880  10.796  0.4674 -0.5281  0.1637
  953MOL0     C28573   9.073   9.600  10.026 -0.9465  0.3960 -0.5038
  953MOL0     C28574   8.972   9.671  10.098 -1.2176  0.5696 -0.2306
  953MOL0     C28575   8.597   9.803  10.287 -0.1965  0.1457  0.3716
  953MOL0     C28576   8.486   9.881  10.247 -0.1108 -0.2188  0.1637
  953MOL0     C28577   8.410   9.962  10.329 -0.5476  0.5800  0.4044
  953MOL0     C28578   8.442   9.975  10.462 -0.2956 -0.1601  0.3650
  953MOL0     O28579   8.376  10.041  10.568 -0.2287  0.5075  0.1683
  953MOL0     C28580   8.275  10.145  10.552  0.1708  1.1981  0.0497
  953MOL0     C28581   8.347  10.279  10.511  0.4943  0.4926  0.9356
  953MOL0     C28582   8.425  10.342  10.630 -0.3519 -0.3517 -0.2686
  953MOL0     C28583   8.353  10.441  10.721  0.3484  0.3488 -0.1199
  953MOL0     C28584   8.248  10.366  10.794 -0.1154 -0.1091  0.0644
  953MOL0     C28585   8.168  10.315  10.873 -0.9790  0.8511 -0.7633
  953MOL0     C28586   8.550   9.900  10.512 -0.0053 -0.2469 -0.4506
  953MOL0     C28587   8.627   9.818  10.422 -1.4520  0.1186 -0.1871
  953MOL0     H28588   8.776   9.405  10.160 -1.2223  0.9705 -0.8740
  953MOL0     H28589   8.936   9.294  10.040  3.2012 -0.7268  1.4263
  953MOL0     H28590   9.077   9.226   9.921  0.9229  0.4891  1.7848
  953MOL0     H28591   9.154   9.286   9.768 -0.9994 -1.8635 -0.4506
  953MOL0     H28592   9.279   9.091   9.889 -0.1454  0.8048 -0.5692
  953MOL0     H28593   9.382   9.214   9.848 -0.4393 -4.8261 -1.8435
  953MOL0     H28594   9.435   9.267  10.063  2.1073 -1.1425 -1.1608
  953MOL0     H28595   9.257   9.229  10.116  0.3831  0.3515  1.2374
  953MOL0     H28596   9.306   9.001  10.126 -0.3588 -0.3810 -2.4132
  953MOL0     H28597   9.457   9.020  10.031 -2.6958 -2.7815 -1.6106
  953MOL0     H28598   9.564   9.101  10.243  0.0396 -1.3481 -1.2689
  953MOL0     H28599   9.409   9.157  10.301  0.4192 -1.3161  0.3254
  953MOL0     H28600   9.344   8.939  10.364 -0.7286  0.7901 -2.4314
  953MOL0     H28601   9.480   8.872  10.269  1.4544 -0.7650  0.2671
  953MOL0     H28602   9.644   8.948  10.429  0.8432 -1.3636  0.9874
  953MOL0     H28603   9.528   9.030  10.527  0.5792 -1.1099  0.9820
  953MOL0     H28604   9.528   8.730  10.490  0.9692  2.1122 -2.7858
  953MOL0     H28605   9.399   8.827  10.581  0.9000  2.3607 -0.2642
  953MOL0     H28606   9.751   8.723  10.614  0.3099  0.1394 -0.4845
  953MOL0     H28607   9.922   8.758  10.897 -0.1200  0.9012  0.2859
  953MOL0     H28608   9.802   8.739  11.022  1.0995 -1.0655 -0.1992
  953MOL0     H28609   9.891   8.529  10.819  2.7951 -0.6536  1.2477
  953MOL0     H28610   9.743   8.509  10.912 -0.5383  0.9464 -1.4614
  953MOL0     H28611   9.950   8.592  11.102  0.3662  3.0371 -2.8100
  953MOL0     H28612  10.052   8.502  10.977  0.0064 -0.0721  1.1892
  953MOL0     H28613   9.795   8.394  11.105 -0.8988 -0.1758 -0.7000
  953MOL0     H28614   9.961   8.350  11.150  3.5647  2.6238 -2.2178
  953MOL0     H28615   9.822   8.176  11.204 -0.0261  1.2107 -0.7309
  953MOL0     H28616   9.959   7.870  11.364 -1.5944 -0.2895  3.2744
  953MOL0     H28617   9.894   8.030  11.391 -0.4017 -0.5358  1.4514
  953MOL0     H28618   9.779   7.906  11.335 -0.1315 -1.6662  1.3235
  953MOL0     H28619  10.127   7.651  11.306 -1.5009  0.4436 -1.8661
  953MOL0     H28620  10.259   7.456  11.390  1.1166 -3.1799 -0.6060
  953MOL0     H28621  10.185   7.117  11.277 -1.2038 -1.1810 -1.8521
  953MOL0     H28622  10.301   7.058  11.157  0.4107  1.3936 -0.4391
  953MOL0     H28623  10.465   7.021  11.345  0.4033 -1.0139  1.2179
  953MOL0     H28624  10.344   7.088  11.458  3.5904  0.8060  0.6916
  953MOL0     H28625  10.190   6.905  11.406  0.1727 -0.0701  0.5371
  953MOL0     H28626  10.333   6.859  11.486 -3.0467 -1.3047  0.5525
  953MOL0     H28627  10.264   6.824  11.192 -0.0080  0.1627 -0.1493
  953MOL0     H28628  10.426   6.782  11.239 -0.0289  0.7952 -1.2380
  953MOL0     H28629  10.269   6.576  11.229 -1.3178  1.1726 -1.1719
  953MOL0     H28630  10.164   6.649  11.339 -0.9449  5.8243 -0.7237
  953MOL0     H28631  10.460   6.594  11.410 -0.3097 -0.8809 -1.0604
  953MOL0     H28632  10.332   6.631  11.523 -2.0792 -0.8992  0.7105
  953MOL0     H28633  10.312   6.386  11.332  0.5126  0.2048 -0.1932
  953MOL0     H28634  10.196   6.435  11.449 -0.1221 -2.2307 -0.1223
  953MOL0     H28635  10.321   6.269  11.554 -0.6928 -0.7347  1.9209
  953MOL0     H28636  10.395   6.409  11.626  2.9814 -0.2640 -0.4354
  953MOL0     H28637  10.229   7.266  11.010  0.5589  1.7260 -2.3720
  953MOL0     H28638  10.136   7.474  10.926  1.1523  0.8783  0.0984
  953MOL0     H28639   9.979   7.860  10.868 -0.7587  0.3089 -0.1655
  953MOL0     H28640   9.999   8.069  10.818  0.5123 -2.2370 -0.3185
  953MOL0     H28641   9.164   9.645   9.989 -0.3590 -0.1886  0.1841
  953MOL0     H28642   8.982   9.778  10.112 -0.6488  0.2361  2.3820
  953MOL0     H28643   8.459   9.865  10.143  0.1931 -0.3380  0.0989
  953MOL0     H28644   8.313  10.001  10.297 -1.3213 -3.4416 -3.0815
  953MOL0     H28645   8.214  10.127  10.463 -0.0167  1.5848  0.0976
  953MOL0     H28646   8.214  10.146  10.643  2.1758 -2.0206  1.6455
  953MOL0     H28647   8.280  10.335  10.445  0.8878  0.3979  0.4469
  953MOL0     H28648   8.428  10.247  10.445  0.7561  0.7339  1.1373
  953MOL0     H28649   8.506  10.393  10.578 -0.5783 -0.6247 -0.9007
  953MOL0     H28650   8.469  10.270  10.699 -1.4206  0.0604  0.8899
  953MOL0     H28651   8.302  10.504  10.647 -5.1578 -0.8712  2.1821
  953MOL0     H28652   8.416  10.510  10.778 -0.5208 -0.0624  1.3895
  953MOL0     H28653   8.110  10.258  10.942 -0.3042 -1.8425 -2.2623
  953MOL0     H28654   8.561   9.919  10.618  1.9901 -0.0107 -0.6744
  953MOL0     H28655   8.717   9.767  10.453 -0.0626  1.8523 -1.1688
  954MOL0     O28656   5.605   5.321   9.042  0.1036  0.9342  0.2555
  954MOL0     C28657   5.618   5.440   9.080 -0.7719 -0.2529 -0.1811
  954MOL0     O28658   5.742   5.497   9.108 -0.4479 -0.2621  0.0423
  954MOL0     C28659   5.865   5.443   9.064  0.0375 -0.2374  0.1354
  954MOL0     C28660   5.886   5.383   8.934 -0.0350  0.6929 -0.7385
  954MOL0     C28661   6.014   5.344   8.897 -1.2130  0.1818  0.4904
  954MOL0     C28662   6.125   5.367   8.978 -0.1689  1.0295 -0.3173
  954MOL0     O28663   6.245   5.330   8.933 -0.4863  0.1795  0.6475
  954MOL0     C28664   6.333   5.238   8.996  0.3391  0.1590  0.0175
  954MOL0     C28665   6.452   5.315   9.055 -0.3680  0.0246 -0.6842
  954MOL0     C28666   6.548   5.208   9.117  0.2645 -0.4923 -0.5591
  954MOL0     C28667   6.683   5.260   9.171 -0.3439  0.0763  0.1265
  954MOL0     C28668   6.756   5.141   9.233  0.0197 -0.2710 -1.0135
  954MOL0     C28669   6.900   5.178   9.277  0.1764 -0.2597 -0.3255
  954MOL0     C28670   6.981   5.052   9.308  0.5726  0.6565 -0.2123
  954MOL0     C28671   7.131   5.052   9.251  0.6338  0.3299  0.3541
  954MOL0     N28672   7.202   4.927   9.276 -0.0549 -0.1481 -0.2259
  954MOL0     C28673   7.291   4.909   9.381 -0.1761  0.2818  0.9556
  954MOL0     C28674   7.351   4.783   9.359 -0.3129 -0.4534  0.2343
  954MOL0     C28675   7.444   4.714   9.454 -0.3115  1.2576 -0.4041
  954MOL0     C28676   7.582   4.758   9.422  0.5237 -0.0415 -0.0056
  954MOL0     C28677   7.601   4.903   9.477 -0.2173  0.0534 -0.5475
  954MOL0     C28678   7.751   4.943   9.514  0.6061  0.5203  0.4962
  954MOL0     O28679   7.766   5.088   9.528  0.5068  0.8076 -0.2532
  954MOL0     C28680   7.886   5.144   9.558 -0.2682  0.4327  0.4272
  954MOL0     C28681   7.896   5.278   9.521 -0.2244  0.5800  0.0341
  954MOL0     C28682   8.007   5.360   9.529 -0.3297 -0.2778  0.7855
  954MOL0     C28683   7.979   5.504   9.493 -0.4592  0.1362  0.2358
  954MOL0     C28684   8.126   5.300   9.572  0.1859 -0.4445  0.1773
  954MOL0     C28685   8.257   5.356   9.585 -1.1106 -0.0482 -0.8759
  954MOL0     O28686   8.339   5.301   9.681 -0.3602  0.1328  0.0253
  954MOL0     C28687   8.477   5.274   9.660  0.7349  0.3343 -0.1492
  954MOL0     C28688   8.537   5.270   9.538  0.2628  0.2341 -0.2879
  954MOL0     C28689   8.673   5.263   9.539 -0.9735 -0.7089  0.4332
  954MOL0     C28690   8.752   5.244   9.655  0.5656 -0.2945 -0.7044
  954MOL0     O28691   8.892   5.227   9.642 -0.2759 -0.0938 -1.0193
  954MOL0     C28692   8.976   5.328   9.705 -1.0074 -0.7598  0.2787
  954MOL0     C28693   8.992   5.456   9.622  0.6568 -0.5398  0.6258
  954MOL0     C28694   9.065   5.556   9.707  0.9774 -0.4964 -0.8321
  954MOL0     C28695   9.088   5.684   9.627  0.5171  0.2923  0.2478
  954MOL0     C28696   9.144   5.787   9.732 -0.0670 -0.2148  0.2201
  954MOL0     C28697   9.148   5.934   9.686 -0.2657 -0.3950 -0.4913
  954MOL0     C28698   9.217   5.941   9.543  0.2940 -0.4575 -0.3587
  954MOL0     C28699   9.238   6.085   9.495 -0.6768 -0.0033  0.7256
  954MOL0    Cl28700   9.356   6.166   9.599  0.0952 -0.4864  0.4662
  954MOL0     C28701   8.685   5.242   9.785  0.6120  0.4436 -0.1558
  954MOL0     C28702   8.542   5.255   9.785  0.6828  0.1006 -0.5680
  954MOL0     O28703   8.294   5.444   9.506 -0.0325 -0.0069  0.4768
  954MOL0     C28704   8.116   5.164   9.602  0.1670  1.3035  0.3128
  954MOL0     C28705   8.006   5.083   9.600  0.0726  0.9859 -0.7353
  954MOL0     N28706   7.307   4.744   9.236 -0.1113 -0.6565 -0.6580
  954MOL0     N28707   7.221   4.826   9.187  0.7035  0.2814  0.6856
  954MOL0     C28708   6.110   5.403   9.116 -0.7283  0.1565 -0.0236
  954MOL0     C28709   5.982   5.439   9.156 -0.1759 -0.5099 -0.0152
  954MOL0     C28710   5.496   5.514   9.106 -0.0412  0.8756  0.3230
  954MOL0     C28711   5.491   5.652   9.092 -0.4120 -0.7061  0.9996
  954MOL0     C28712   5.370   5.718   9.103 -0.1386  0.2320  0.2528
  954MOL0     C28713   5.257   5.654   9.154 -0.3233  0.9581 -0.2108
  954MOL0     O28714   5.133   5.710   9.148  0.8500 -0.8209 -0.3247
  954MOL0     C28715   5.118   5.841   9.088 -0.3786  0.0932  1.2720
  954MOL0     C28716   4.966   5.861   9.081  0.2847 -0.8010  0.3406
  954MOL0     C28717   4.885   5.837   9.210  0.1777 -0.1060 -0.0110
  954MOL0     C28718   4.941   5.889   9.349 -0.0261 -0.5490 -0.7694
  954MOL0     C28719   4.976   6.035   9.336  0.2185 -0.0917  0.0865
  954MOL0     C28720   4.988   6.153   9.297  0.4743  0.8873 -0.1928
  954MOL0     C28721   5.268   5.522   9.179  0.1237 -0.1454 -0.1002
  954MOL0     C28722   5.386   5.453   9.153  1.1349 -0.3075 -0.3349
  954MOL0     H28723   5.800   5.374   8.869  0.2080 -0.8777 -0.8723
  954MOL0     H28724   6.036   5.290   8.806  3.5549  1.3160  0.6829
  954MOL0     H28725   6.285   5.182   9.076  0.5451 -0.9514 -0.6227
  954MOL0     H28726   6.377   5.170   8.922  0.8617 -1.7683  2.0168
  954MOL0     H28727   6.513   5.358   8.975 -0.8277 -1.8550 -2.1084
  954MOL0     H28728   6.415   5.391   9.125  0.1893 -0.7496  0.4769
  954MOL0     H28729   6.497   5.153   9.196 -1.0499  0.3819 -0.7552
  954MOL0     H28730   6.581   5.140   9.038  2.4626  1.5318 -1.5243
  954MOL0     H28731   6.747   5.300   9.092  0.1212  0.5220  0.7136
  954MOL0     H28732   6.670   5.342   9.242 -1.9067  1.5531 -1.7479
  954MOL0     H28733   6.697   5.121   9.323 -0.6758  2.0101 -0.9033
  954MOL0     H28734   6.767   5.061   9.159  1.0861  1.3210 -2.6493
  954MOL0     H28735   6.956   5.234   9.201  0.7954  1.1208  1.0850
  954MOL0     H28736   6.896   5.232   9.372  2.4663 -0.5837  0.0341
  954MOL0     H28737   6.987   5.045   9.417  1.0234 -0.6878 -0.3118
  954MOL0     H28738   6.938   4.957   9.274  2.8414 -1.7734  3.1350
  954MOL0     H28739   7.181   5.131   9.308  2.3886  0.0900 -0.7848
  954MOL0     H28740   7.124   5.064   9.142 -1.9636 -3.0708 -0.0328
  954MOL0     H28741   7.316   4.978   9.461  0.0151  2.2465 -0.7171
  954MOL0     H28742   7.416   4.740   9.557  0.0387  0.3432 -0.0694
  954MOL0     H28743   7.441   4.606   9.445  0.5375  1.1927 -0.0565
  954MOL0     H28744   7.606   4.754   9.316 -0.1876 -0.7468 -0.1549
  954MOL0     H28745   7.654   4.684   9.456  1.0522  0.2456 -0.4890
  954MOL0     H28746   7.543   4.918   9.569 -0.8996 -0.7141 -0.8461
  954MOL0     H28747   7.562   4.965   9.397  0.3267  0.3086 -0.6240
  954MOL0     H28748   7.811   4.898   9.434  1.0825  2.1177 -0.0842
  954MOL0     H28749   7.779   4.900   9.610 -2.4257  0.0996  1.2956
  954MOL0     H28750   7.801   5.319   9.489  0.3430  1.6485 -0.3303
  954MOL0     H28751   7.932   5.517   9.394 -0.0868  1.0059  0.1574
  954MOL0     H28752   7.913   5.547   9.569  1.9580  0.5434  2.2302
  954MOL0     H28753   8.071   5.561   9.505 -1.2155  1.0111  2.2226
  954MOL0     H28754   8.482   5.285   9.446 -1.7167 -0.2319  0.7756
  954MOL0     H28755   8.724   5.281   9.445  1.2260  0.9748  1.8354
  954MOL0     H28756   8.928   5.347   9.801 -1.0287  3.1970 -0.3196
  954MOL0     H28757   9.078   5.297   9.728  0.6191  3.9652  0.5854
  954MOL0     H28758   9.044   5.442   9.527 -1.7860  5.1526 -1.9822
  954MOL0     H28759   8.898   5.500   9.588  1.4781  0.4515 -0.4210
  954MOL0     H28760   9.152   5.522   9.763  0.1360  2.1714  2.4471
  954MOL0     H28761   8.992   5.591   9.781  0.7621  1.9057 -2.0698
  954MOL0     H28762   9.160   5.669   9.547 -0.7667  0.7401 -1.0239
  954MOL0     H28763   9.002   5.730   9.579  1.3656 -0.2989 -1.9710
  954MOL0     H28764   9.241   5.758   9.774  0.5383  2.3146  0.7551
  954MOL0     H28765   9.065   5.788   9.807  0.0167 -0.0344  0.3073
  954MOL0     H28766   9.045   5.970   9.691  0.3906  1.4316  1.3500
  954MOL0     H28767   9.203   5.995   9.759 -0.4549 -1.0310  0.1824
  954MOL0     H28768   9.150   5.889   9.474  2.4040 -5.6471  1.0188
  954MOL0     H28769   9.309   5.883   9.535  1.0081  0.8655 -3.0216
  954MOL0     H28770   9.147   6.143   9.514 -1.3539 -0.8555  0.1720
  954MOL0     H28771   9.286   6.092   9.397 -1.0193  1.0351  0.6221
  954MOL0     H28772   8.748   5.228   9.872 -0.1616 -2.4272  0.0540
  954MOL0     H28773   8.486   5.258   9.878 -2.2974  1.5654 -2.2684
  954MOL0     H28774   8.203   5.109   9.636  0.2433  0.9810 -0.3699
  954MOL0     H28775   8.013   4.977   9.617 -3.5006  0.0710 -3.5863
  954MOL0     H28776   6.203   5.409   9.172 -0.8499  0.2903  0.1666
  954MOL0     H28777   5.967   5.479   9.255  1.5094 -0.8346  0.3922
  954MOL0     H28778   5.576   5.709   9.057 -0.8723 -1.0423 -0.7657
  954MOL0     H28779   5.365   5.821   9.067 -4.0656  0.5579  1.2847
  954MOL0     H28780   5.160   5.921   9.150 -2.6236  2.0404  0.4294
  954MOL0     H28781   5.162   5.850   8.989 -0.7989  1.1739  1.1703
  954MOL0     H28782   4.921   5.796   9.006  1.4830  3.2780 -4.4465
  954MOL0     H28783   4.944   5.963   9.050 -2.5167 -0.9855  1.4034
  954MOL0     H28784   4.868   5.731   9.229 -1.5920  0.3726  1.3548
  954MOL0     H28785   4.780   5.868   9.198  0.3855  0.6723  0.0914
  954MOL0     H28786   5.031   5.835   9.378  0.4193  1.0726  1.0481
  954MOL0     H28787   4.873   5.876   9.433  2.3472  1.0674  1.5307
  954MOL0     H28788   4.968   6.245   9.244 -1.1819  0.1265 -0.9371
  954MOL0     H28789   5.185   5.459   9.209  1.7116 -1.6414  1.3347
  954MOL0     H28790   5.387   5.344   9.151  0.9441 -0.3061 -0.4932
  955MOL0     O28791   7.691   1.446  10.920 -0.7016  0.8749 -0.1238
  955MOL0     C28792   7.759   1.364  10.863  0.8827 -0.2196 -0.2252
  955MOL0     O28793   7.843   1.272  10.923 -0.2993 -0.7345  0.0652
  955MOL0     C28794   7.854   1.259  11.059 -0.6270  0.8872  0.4447
  955MOL0     C28795   7.761   1.300  11.152  0.4408 -0.2464 -0.6072
  955MOL0     C28796   7.767   1.246  11.280  0.5360 -0.2695  1.0841
  955MOL0     C28797   7.873   1.160  11.316 -0.2760  0.1319 -0.8182
  955MOL0     O28798   7.891   1.113  11.444  0.5815 -0.2440 -0.0740
  955MOL0     C28799   7.824   1.170  11.556  0.3688  0.1491 -0.1385
  955MOL0     C28800   7.856   1.097  11.683 -0.7343 -0.0297  0.0399
  955MOL0     C28801   7.739   1.004  11.736 -0.8938 -0.7907 -0.1512
  955MOL0     C28802   7.794   0.892  11.827  0.0933 -0.9101 -0.3924
  955MOL0     C28803   7.682   0.793  11.883 -0.3339  0.1650  0.0563
  955MOL0     C28804   7.563   0.867  11.955 -0.7376  0.4201 -0.5670
  955MOL0     C28805   7.604   0.942  12.083  0.6520  0.6457 -0.1920
  955MOL0     C28806   7.475   1.016  12.137  0.5824  0.3083  0.1897
  955MOL0     N28807   7.413   1.111  12.043  0.1347 -0.6052 -0.2930
  955MOL0     C28808   7.298   1.100  11.972  0.4037  0.3971  0.0058
  955MOL0     C28809   7.289   1.214  11.899  1.5460  0.1190 -0.5388
  955MOL0     C28810   7.176   1.236  11.800 -0.8854 -0.1314  0.0143
  955MOL0     C28811   7.226   1.206  11.654  0.2582 -0.4556  0.9215
  955MOL0     C28812   7.374   1.241  11.617 -1.2952 -1.1307  0.2527
  955MOL0     C28813   7.391   1.270  11.462  0.6459  0.0478  0.2948
  955MOL0     O28814   7.312   1.378  11.438  0.1159 -0.4254  0.9268
  955MOL0     C28815   7.293   1.395  11.301 -0.3248  0.2748 -0.2026
  955MOL0     C28816   7.207   1.323  11.214 -0.0856  0.1272 -0.3302
  955MOL0     C28817   7.205   1.326  11.078  0.2589  0.2486  0.0807
  955MOL0     C28818   7.115   1.227  11.003 -0.1057 -0.3405  0.1259
  955MOL0     C28819   7.280   1.428  11.017 -0.4625 -0.0654 -0.0423
  955MOL0     C28820   7.274   1.467  10.873 -0.7991  0.0919 -0.1776
  955MOL0     O28821   7.339   1.580  10.833 -0.0742  0.0570  0.4341
  955MOL0     C28822   7.342   1.630  10.707 -0.2640  0.5092 -0.3684
  955MOL0     C28823   7.247   1.611  10.610 -0.5182  0.2565  0.0473
  955MOL0     C28824   7.266   1.669  10.482  0.0199 -0.2561 -0.3778
  955MOL0     C28825   7.378   1.755  10.461  0.0589  0.1339  0.4234
  955MOL0     O28826   7.413   1.813  10.339  0.0412 -0.1943 -0.1534
  955MOL0     C28827   7.314   1.795  10.233  0.3339 -0.1453 -0.3666
  955MOL0     C28828   7.351   1.903  10.129  0.4870 -0.7513  0.2894
  955MOL0     C28829   7.489   1.901  10.066 -0.6792  0.1920 -0.2064
  955MOL0     C28830   7.501   1.979   9.932 -0.5705  0.7709  0.1688
  955MOL0     C28831   7.645   1.991   9.878 -0.1578  0.4438  0.0988
  955MOL0     C28832   7.703   1.849   9.832  0.6783 -0.0306  0.3104
  955MOL0     C28833   7.837   1.871   9.755  0.0675  0.1575 -0.6912
  955MOL0     C28834   7.904   1.731   9.724  0.7910  0.9433 -0.0624
  955MOL0    Cl28835   7.905   1.626   9.879 -0.1940 -0.2717  0.1799
  955MOL0     C28836   7.455   1.780  10.565 -0.2073  0.2016 -0.0075
  955MOL0     C28837   7.448   1.711  10.682 -1.1299  0.9443 -0.0366
  955MOL0     O28838   7.205   1.398  10.801 -0.6532 -0.4784  0.4357
  955MOL0     C28839   7.361   1.508  11.100  0.7678  0.1864  0.6792
  955MOL0     C28840   7.360   1.496  11.240 -0.4765  0.6961  0.0981
  955MOL0     N28841   7.398   1.289  11.925 -0.5001  0.4143  1.7056
  955MOL0     N28842   7.473   1.226  12.004 -0.3951  0.0273 -0.6986
  955MOL0     C28843   7.966   1.128  11.225 -0.3516 -0.3711 -0.4491
  955MOL0     C28844   7.953   1.177  11.096 -1.2569 -0.2596  1.0182
  955MOL0     C28845   7.773   1.374  10.719 -0.7996 -0.5826  0.1812
  955MOL0     C28846   7.708   1.474  10.643 -0.2792 -0.0535 -0.1150
  955MOL0     C28847   7.722   1.484  10.499  0.6730 -0.0164  0.2501
  955MOL0     C28848   7.803   1.391  10.433 -0.5413 -0.4022 -0.4090
  955MOL0     O28849   7.836   1.381  10.302 -0.0887 -0.9292  0.7911
  955MOL0     C28850   7.791   1.471  10.196 -0.1714 -0.0063 -0.4369
  955MOL0     C28851   7.681   1.396  10.126  0.3424  0.0713  0.5409
  955MOL0     C28852   7.720   1.351   9.984 -0.0697  0.7379  0.0910
  955MOL0     C28853   7.632   1.250   9.919 -0.1081  1.0433  0.6550
  955MOL0     C28854   7.628   1.236   9.773 -0.3653 -0.4092 -0.1619
  955MOL0     C28855   7.638   1.222   9.653  0.7109  0.0844 -0.1498
  955MOL0     C28856   7.877   1.295  10.507 -0.7732  0.0706 -0.1873
  955MOL0     C28857   7.862   1.283  10.648 -0.1311  0.3836  0.1727
  955MOL0     H28858   7.674   1.358  11.125  2.9874  2.5174 -3.8054
  955MOL0     H28859   7.701   1.283  11.358 -2.1380 -1.0614 -0.6679
  955MOL0     H28860   7.860   1.272  11.573  0.3826  0.0101  0.7286
  955MOL0     H28861   7.716   1.163  11.542  0.1442  1.1922  0.8955
  955MOL0     H28862   7.948   1.040  11.664 -1.2736  0.0145 -3.3385
  955MOL0     H28863   7.876   1.163  11.768  0.4304 -0.3986  0.0677
  955MOL0     H28864   7.653   1.053  11.784  1.3518 -0.4435  3.9370
  955MOL0     H28865   7.684   0.941  11.665 -2.5625 -0.1784  0.5322
  955MOL0     H28866   7.864   0.832  11.770  1.8112  1.4019 -0.8576
  955MOL0     H28867   7.849   0.937  11.910 -0.4193  1.0268 -1.0518
  955MOL0     H28868   7.641   0.744  11.794  1.4900 -1.2206 -0.0898
  955MOL0     H28869   7.717   0.714  11.950 -0.6072 -0.5706 -0.6497
  955MOL0     H28870   7.523   0.943  11.887 -2.4591 -1.0222 -1.2329
  955MOL0     H28871   7.481   0.798  11.975  1.3439 -2.2024 -0.5372
  955MOL0     H28872   7.643   0.865  12.151 -1.9222  0.8004  1.6067
  955MOL0     H28873   7.692   1.005  12.064  1.7442 -0.6113  0.5037
  955MOL0     H28874   7.514   1.075  12.220  0.3463 -0.6434  0.9919
  955MOL0     H28875   7.409   0.942  12.183  1.7190  0.5091  2.2306
  955MOL0     H28876   7.214   1.032  11.980 -2.4309  3.4470 -1.3113
  955MOL0     H28877   7.095   1.168  11.827 -2.0876  0.2563 -2.3952
  955MOL0     H28878   7.143   1.340  11.809  1.3802  0.8977 -2.3813
  955MOL0     H28879   7.161   1.255  11.580  2.9667  0.9760 -0.6548
  955MOL0     H28880   7.216   1.097  11.646 -2.2905 -0.1748 -1.5293
  955MOL0     H28881   7.437   1.161  11.656 -1.5264 -0.5281  1.9315
  955MOL0     H28882   7.408   1.324  11.678 -1.3845 -1.2665  0.4880
  955MOL0     H28883   7.346   1.188  11.405  0.7404 -0.3006  0.7228
  955MOL0     H28884   7.496   1.289  11.437  0.3015  2.7669  0.6189
  955MOL0     H28885   7.150   1.248  11.267  0.8407 -0.8148 -0.6310
  955MOL0     H28886   7.182   1.178  10.932 -1.2390 -0.3236 -0.9850
  955MOL0     H28887   7.082   1.155  11.079  1.2671 -0.1836  0.9121
  955MOL0     H28888   7.031   1.278  10.956 -0.6757  0.1514  1.6005
  955MOL0     H28889   7.168   1.537  10.622 -2.3982  1.8324 -1.7982
  955MOL0     H28890   7.194   1.641  10.406 -0.1336 -0.6794 -0.0817
  955MOL0     H28891   7.325   1.694  10.192 -0.4190  0.2334 -1.5774
  955MOL0     H28892   7.215   1.801  10.278  1.6881  2.4507  2.5813
  955MOL0     H28893   7.278   1.897  10.048  0.9500  1.3903 -0.3447
  955MOL0     H28894   7.342   1.999  10.181  2.5161 -1.6797  2.5741
  955MOL0     H28895   7.513   1.799  10.032  1.3649  0.5909 -0.1004
  955MOL0     H28896   7.575   1.929  10.127 -0.8184 -2.4696  1.3669
  955MOL0     H28897   7.445   1.928   9.854  1.1552  0.3089 -0.8058
  955MOL0     H28898   7.452   2.076   9.943  2.6901  2.3922  1.8422
  955MOL0     H28899   7.709   2.030   9.958  3.6354 -2.8721 -0.9390
  955MOL0     H28900   7.642   2.061   9.794 -1.7225  1.1882  0.7363
  955MOL0     H28901   7.706   1.782   9.918 -0.2909  1.6307  1.7243
  955MOL0     H28902   7.628   1.795   9.774 -1.3411  1.4457  1.4142
  955MOL0     H28903   7.911   1.913   9.824 -0.0926 -0.9453  0.1858
  955MOL0     H28904   7.827   1.925   9.661  0.1272  2.2274  0.4283
  955MOL0     H28905   8.006   1.751   9.692  0.9123  0.7270  0.1871
  955MOL0     H28906   7.855   1.689   9.636 -2.4993  1.2255  1.4683
  955MOL0     H28907   7.523   1.864  10.572  1.9138 -1.5282  1.8431
  955MOL0     H28908   7.525   1.715  10.758  0.2389  1.5956 -1.3971
  955MOL0     H28909   7.422   1.589  11.063  1.5979 -0.7570 -0.0849
  955MOL0     H28910   7.422   1.569  11.292  0.4234 -0.2762  0.4364
  955MOL0     H28911   8.040   1.054  11.256  3.7342  3.4882  0.1304
  955MOL0     H28912   8.022   1.139  11.021 -0.2918  0.4487  1.5272
  955MOL0     H28913   7.642   1.541  10.697 -0.3396 -0.3222  0.1495
  955MOL0     H28914   7.648   1.532  10.436 -1.8271 -1.2099  2.0747
  955MOL0     H28915   7.750   1.565  10.233 -0.1320 -0.8736  1.9559
  955MOL0     H28916   7.873   1.493  10.126 -0.7106  1.2642 -0.6810
  955MOL0     H28917   7.592   1.457  10.108 -0.6808 -0.7850  2.4256
  955MOL0     H28918   7.645   1.312  10.185 -2.0212  0.0318 -0.8363
  955MOL0     H28919   7.821   1.307   9.984 -0.7111 -0.8972 -1.8466
  955MOL0     H28920   7.710   1.437   9.918  1.7367  1.9348  1.2890
  955MOL0     H28921   7.536   1.295   9.944  0.2869  2.6007 -0.4660
  955MOL0     H28922   7.640   1.152   9.967 -3.5647 -0.0379 -0.6979
  955MOL0     H28923   7.641   1.202   9.548 -1.5035  0.3360 -0.3074
  955MOL0     H28924   7.931   1.221  10.450  3.6498  2.0465  0.9989
  955MOL0     H28925   7.910   1.197  10.693 -1.7460 -0.6337  0.0259
  956MOL0     O28926   6.713  11.313  11.037  1.1297  0.1362  0.0841
  956MOL0     C28927   6.789  11.314  10.944 -0.2236  0.5365  0.1290
  956MOL0     O28928   6.923  11.299  10.948 -0.2939  0.0173  0.2757
  956MOL0     C28929   6.984  11.252  11.056  0.6511  0.4502  0.9293
  956MOL0     C28930   7.033  11.122  11.053  0.1170 -0.2689 -0.0802
  956MOL0     C28931   7.064  11.052  11.168  0.1496  0.0103 -0.3112
  956MOL0     C28932   7.074  11.117  11.286  0.6128  0.5103 -0.7381
  956MOL0     O28933   7.109  11.061  11.406 -0.6772 -0.1071 -0.4132
  956MOL0     C28934   7.112  10.912  11.425 -0.5323 -0.3024  0.4032
  956MOL0     C28935   6.974  10.839  11.429 -0.3049 -0.3765  0.0786
  956MOL0     C28936   6.880  10.901  11.535  0.1902 -0.3192  0.1865
  956MOL0     C28937   6.734  10.836  11.509 -0.1327 -0.5105  0.1739
  956MOL0     C28938   6.627  10.951  11.514 -0.2924  0.2808  0.1364
  956MOL0     C28939   6.632  11.025  11.372 -0.4269  0.2341 -0.5199
  956MOL0     C28940   6.581  11.173  11.365  0.0243 -0.6743 -0.2188
  956MOL0     C28941   6.433  11.187  11.391 -0.5837  0.5531  0.3306
  956MOL0     N28942   6.349  11.135  11.278 -0.9610 -0.5414  1.5786
  956MOL0     C28943   6.364  11.188  11.149  0.0128 -0.2765  0.3017
  956MOL0     C28944   6.315  11.091  11.069  0.1661  1.0106  0.8653
  956MOL0     C28945   6.340  11.100  10.915 -0.2707 -0.3452  0.1887
  956MOL0     C28946   6.250  11.202  10.839  0.2029 -0.1526 -0.5746
  956MOL0     C28947   6.304  11.241  10.708 -0.2935 -0.1036 -0.4869
  956MOL0     C28948   6.284  11.141  10.585  0.2332  0.0576 -0.5268
  956MOL0     O28949   6.146  11.134  10.527 -0.3378 -0.4126  0.1817
  956MOL0     C28950   6.124  11.044  10.430  0.1103  0.9867  0.3701
  956MOL0     C28951   6.219  10.963  10.365  0.9919 -1.7066  0.0715
  956MOL0     C28952   6.179  10.868  10.269  0.8422 -0.7476  0.1792
  956MOL0     C28953   6.293  10.799  10.209  0.0881  0.3115  0.1512
  956MOL0     C28954   6.043  10.856  10.231  0.0803 -0.2854 -0.2078
  956MOL0     C28955   5.979  10.746  10.146 -0.2038  0.8715  0.2993
  956MOL0     O28956   5.840  10.755  10.116 -0.1950 -0.1515 -0.6431
  956MOL0     C28957   5.776  10.668  10.040  0.4453 -0.8409  0.5826
  956MOL0     C28958   5.715  10.719   9.928  0.7116  0.5268  0.2603
  956MOL0     C28959   5.643  10.635   9.843 -0.1149 -0.5182  0.2025
  956MOL0     C28960   5.634  10.493   9.875  0.6979 -0.0888 -0.4918
  956MOL0     O28961   5.559  10.400   9.803  0.0439  0.4087  0.5531
  956MOL0     C28962   5.497  10.447   9.678  0.0852 -0.8367  0.6626
  956MOL0     C28963   5.447  10.333   9.588  0.1048 -0.0472 -0.1970
  956MOL0     C28964   5.350  10.392   9.478 -0.2008 -0.5784 -0.6807
  956MOL0     C28965   5.212  10.411   9.535  0.1447  0.2410  0.2036
  956MOL0     C28966   5.112  10.480   9.443  0.2977  0.5697  0.3883
  956MOL0     C28967   4.972  10.511   9.509 -0.7803 -0.7857  0.4881
  956MOL0     C28968   4.854  10.567   9.433 -0.3496  0.2697  0.7218
  956MOL0     C28969   4.722  10.564   9.518 -0.4756 -0.0164  0.0806
  956MOL0    Cl28970   4.655  10.404   9.505  0.5174  0.3001 -0.3705
  956MOL0     C28971   5.682  10.446   9.994 -0.4749 -0.2713 -0.3951
  956MOL0     C28972   5.757  10.533  10.070  0.1959 -0.1130  0.5452
  956MOL0     O28973   6.049  10.651  10.108 -0.3165  0.2161  0.1134
  956MOL0     C28974   5.950  10.934  10.302 -0.9528  0.2008 -0.7082
  956MOL0     C28975   5.989  11.028  10.394 -1.0165  0.6549 -0.6185
  956MOL0     N28976   6.266  10.984  11.150  0.4389  0.2050 -0.6004
  956MOL0     N28977   6.281  11.017  11.267 -0.0492 -0.1908  0.6561
  956MOL0     C28978   7.043  11.258  11.284  0.8690  0.6645 -0.3678
  956MOL0     C28979   6.998  11.326  11.172 -0.1761 -0.4927  1.0877
  956MOL0     C28980   6.731  11.375  10.817 -0.4414 -0.0695 -0.1601
  956MOL0     C28981   6.805  11.381  10.695  1.1482 -0.1126  0.5729
  956MOL0     C28982   6.762  11.451  10.582  0.3181 -0.3736  0.1098
  956MOL0     C28983   6.636  11.524  10.586  0.2536  0.3228  0.7596
  956MOL0     O28984   6.583  11.595  10.475  0.1479 -0.1646  0.1922
  956MOL0     C28985   6.645  11.596  10.349  0.3038  0.0748  0.0391
  956MOL0     C28986   6.546  11.533  10.244  1.1681  0.0646 -0.1946
  956MOL0     C28987   6.414  11.609  10.229  1.0042 -0.4647 -0.2846
  956MOL0     C28988   6.319  11.540  10.121  0.9016 -0.0633 -0.8393
  956MOL0     C28989   6.211  11.635  10.085  0.7361 -0.0323 -1.1612
  956MOL0     C28990   6.136  11.723  10.045 -0.1845  0.5268  0.7619
  956MOL0     C28991   6.560  11.511  10.704 -0.1055  0.1288 -0.7428
  956MOL0     C28992   6.608  11.453  10.820 -0.8173 -0.6500  0.6292
  956MOL0     H28993   7.025  11.060  10.964 -0.2563  1.6699 -1.4634
  956MOL0     H28994   7.081  10.945  11.159 -1.7881 -0.3091 -0.5066
  956MOL0     H28995   7.193  10.871  11.365 -1.1190 -0.8043 -0.0554
  956MOL0     H28996   7.148  10.913  11.529  2.0073 -1.4702 -0.3858
  956MOL0     H28997   6.925  10.827  11.332 -0.4256  0.0942  0.0784
  956MOL0     H28998   6.990  10.735  11.460  0.5396  0.0715  1.1957
  956MOL0     H28999   6.922  10.880  11.634  3.4428 -1.3105 -1.2400
  956MOL0     H29000   6.877  11.010  11.528  1.4704 -0.1988  1.0386
  956MOL0     H29001   6.740  10.784  11.413  3.9728  1.7282 -1.0386
  956MOL0     H29002   6.719  10.762  11.587 -0.3310 -1.2010 -0.5031
  956MOL0     H29003   6.528  10.905  11.527  1.0882 -4.3600 -3.2452
  956MOL0     H29004   6.637  11.019  11.600  0.7119  2.3441 -1.5264
  956MOL0     H29005   6.736  11.026  11.339 -0.0103  1.3476  0.7309
  956MOL0     H29006   6.577  10.956  11.306 -2.7353 -0.4410  1.9327
  956MOL0     H29007   6.621  11.233  11.447  2.0056  0.0877 -1.6644
  956MOL0     H29008   6.608  11.224  11.272 -2.7462  3.4029  0.9197
  956MOL0     H29009   6.417  11.294  11.409 -1.8453  0.7946 -1.8387
  956MOL0     H29010   6.418  11.143  11.490  2.6073  0.1759  0.7505
  956MOL0     H29011   6.436  11.260  11.110 -1.5842  2.1789  1.6479
  956MOL0     H29012   6.443  11.134  10.905 -0.2920 -0.0034  1.0468
  956MOL0     H29013   6.321  11.000  10.875 -0.4627  1.0715 -3.6407
  956MOL0     H29014   6.242  11.290  10.904 -2.1512 -2.0319  1.9516
  956MOL0     H29015   6.150  11.158  10.829  0.4029 -0.0834 -3.5250
  956MOL0     H29016   6.412  11.247  10.717 -0.4710  0.0596  3.1537
  956MOL0     H29017   6.270  11.342  10.682  2.1940  1.3020  1.2617
  956MOL0     H29018   6.314  11.044  10.625  0.9623  0.4023 -0.2112
  956MOL0     H29019   6.356  11.168  10.508 -1.9221 -0.1344 -2.7101
  956MOL0     H29020   6.322  10.976  10.399  0.2200  0.1100  1.9451
  956MOL0     H29021   6.301  10.827  10.104 -1.1610  0.5736  0.1118
  956MOL0     H29022   6.386  10.832  10.256  0.6654 -1.8016  0.6039
  956MOL0     H29023   6.282  10.692  10.230 -2.8152  0.0321 -2.2102
  956MOL0     H29024   5.725  10.823   9.897  0.2165 -0.1839 -2.4873
  956MOL0     H29025   5.603  10.671   9.749  0.3769 -4.3412 -1.7033
  956MOL0     H29026   5.410  10.512   9.690  0.6259 -0.1154  0.6744
  956MOL0     H29027   5.576  10.502   9.627  0.4215 -1.5506  0.4014
  956MOL0     H29028   5.530  10.287   9.534  2.1597  4.0114 -0.9209
  956MOL0     H29029   5.389  10.258   9.642  1.0010 -0.3725  0.3381
  956MOL0     H29030   5.337  10.330   9.389 -0.9566 -0.2093 -0.8382
  956MOL0     H29031   5.402  10.483   9.446 -0.9363 -0.3727 -1.3189
  956MOL0     H29032   5.173  10.320   9.581  2.2349 -1.0064 -0.3646
  956MOL0     H29033   5.226  10.479   9.620  3.5217  1.4833 -1.1738
  956MOL0     H29034   5.084  10.408   9.366  1.3099  1.0947 -0.5150
  956MOL0     H29035   5.154  10.564   9.386 -1.0752  0.2952 -1.1049
  956MOL0     H29036   4.930  10.412   9.529 -1.7421 -0.2966  0.9629
  956MOL0     H29037   4.977  10.565   9.604 -0.9939 -1.7700  1.0772
  956MOL0     H29038   4.843  10.521   9.335  2.1267  1.4139 -0.1659
  956MOL0     H29039   4.855  10.671   9.398 -1.8194 -0.1624 -0.6944
  956MOL0     H29040   4.662  10.650   9.487  1.2117  2.5505  3.2167
  956MOL0     H29041   4.732  10.581   9.626 -0.6897  1.1743 -0.0707
  956MOL0     H29042   5.673  10.341  10.018  0.0177 -0.5996 -1.5924
  956MOL0     H29043   5.806  10.493  10.159 -2.2072  0.2566  2.1466
  956MOL0     H29044   5.847  10.938  10.267 -0.2825 -0.3738 -2.8960
  956MOL0     H29045   5.897  11.068  10.436 -1.5637 -0.0354 -1.1303
  956MOL0     H29046   7.043  11.306  11.381 -1.7116 -2.3560  1.3033
  956MOL0     H29047   6.966  11.429  11.181 -3.0277 -1.1169 -0.5355
  956MOL0     H29048   6.901  11.334  10.676  1.4619  0.1417  1.4928
  956MOL0     H29049   6.831  11.448  10.498  2.4351  1.7577  1.6180
  956MOL0     H29050   6.671  11.696  10.315  3.0176 -1.3641 -2.6031
  956MOL0     H29051   6.738  11.539  10.356 -1.3050 -2.5298  2.5650
  956MOL0     H29052   6.524  11.429  10.271  1.0510 -0.0059 -0.5644
  956MOL0     H29053   6.598  11.528  10.148  0.0337 -0.8552 -0.7825
  956MOL0     H29054   6.419  11.718  10.220  2.2824 -0.1030  3.3240
  956MOL0     H29055   6.360  11.591  10.322 -0.2237  0.8630 -0.6942
  956MOL0     H29056   6.274  11.456  10.176 -1.6833  0.9858 -1.2306
  956MOL0     H29057   6.376  11.506  10.034  2.4198 -1.9362  0.7563
  956MOL0     H29058   6.070  11.802  10.015  0.2061  0.3238 -0.7070
  956MOL0     H29059   6.459  11.550  10.696 -0.7740 -1.5344 -0.8090
  956MOL0     H29060   6.551  11.450  10.913  1.0971  2.5815  2.0694
  957MOL0     O29061   1.146   0.894   2.445 -0.3123 -0.1953 -0.3313
  957MOL0     C29062   1.064   0.962   2.506 -0.1584 -0.5471 -0.5384
  957MOL0     O29063   1.089   1.075   2.584 -0.3417  0.0453 -0.0763
  957MOL0     C29064   1.221   1.117   2.598  0.0230 -0.2210  0.2806
  957MOL0     C29065   1.332   1.044   2.642 -0.1104 -0.5365 -0.2129
  957MOL0     C29066   1.463   1.099   2.649  0.4362 -0.0824 -0.2409
  957MOL0     C29067   1.489   1.239   2.628  0.0075  0.9459  0.4611
  957MOL0     O29068   1.611   1.293   2.624 -0.9271 -1.1096  0.7004
  957MOL0     C29069   1.721   1.211   2.617 -0.1694  0.3648  0.0852
  957MOL0     C29070   1.851   1.291   2.595  1.2617  0.1437 -0.2677
  957MOL0     C29071   1.860   1.367   2.462  0.3730  0.1479  0.8630
  957MOL0     C29072   2.006   1.415   2.439 -0.0590 -0.3760 -0.5868
  957MOL0     C29073   2.058   1.539   2.524  0.4261  0.2218  0.2030
  957MOL0     C29074   2.177   1.605   2.450  1.2521  0.2878 -0.1205
  957MOL0     C29075   2.253   1.697   2.532 -0.1673 -0.2041 -0.4005
  957MOL0     C29076   2.394   1.656   2.564  0.4405 -0.2583  0.5792
  957MOL0     N29077   2.460   1.760   2.642 -0.8044 -0.2521 -0.2133
  957MOL0     C29078   2.586   1.807   2.636  0.0020  0.6504 -0.3422
  957MOL0     C29079   2.609   1.870   2.751 -0.7123  0.3475 -0.0803
  957MOL0     C29080   2.739   1.926   2.803  0.1654  0.0776  0.6319
  957MOL0     C29081   2.853   1.881   2.717  0.2717  0.5367 -0.1013
  957MOL0     C29082   2.981   1.943   2.760  0.6788  0.1306  0.7486
  957MOL0     C29083   3.096   1.873   2.696 -0.1789 -0.0264 -0.7360
  957MOL0     O29084   3.115   1.886   2.554 -0.0743 -0.4687 -0.3018
  957MOL0     C29085   3.240   1.896   2.492 -0.4394 -0.4726 -0.0914
  957MOL0     C29086   3.351   1.805   2.518  0.0681 -0.0064  0.1635
  957MOL0     C29087   3.468   1.802   2.431 -0.2824 -0.1475  0.0162
  957MOL0     C29088   3.568   1.692   2.464 -1.4726  0.1081 -0.5633
  957MOL0     C29089   3.473   1.887   2.321 -0.5591 -0.6652  0.4316
  957MOL0     C29090   3.601   1.924   2.252 -0.0525  0.1311  0.3961
  957MOL0     O29091   3.600   1.975   2.124 -0.9034  0.3874 -0.8023
  957MOL0     C29092   3.712   2.019   2.068 -1.4702  0.7224 -0.0503
  957MOL0     C29093   3.715   2.001   1.934  0.7802 -0.0314 -0.1664
  957MOL0     C29094   3.818   2.040   1.859 -1.3011  0.0760  0.2868
  957MOL0     C29095   3.936   2.091   1.911 -0.9806  0.0597  0.3078
  957MOL0     O29096   4.040   2.122   1.829  0.4417 -0.3247 -0.3533
  957MOL0     C29097   4.133   2.211   1.880 -0.5809 -0.0605  0.6552
  957MOL0     C29098   4.241   2.241   1.774  0.0493  0.0745  0.3242
  957MOL0     C29099   4.196   2.285   1.638 -0.2933  0.6447  0.0534
  957MOL0     C29100   4.111   2.406   1.625  0.4262 -0.0167  0.4247
  957MOL0     C29101   4.080   2.451   1.475  0.3962  0.1778  0.1761
  957MOL0     C29102   3.973   2.566   1.478 -0.0793  0.9343  1.0440
  957MOL0     C29103   4.037   2.702   1.519 -0.0551 -0.3022  0.7199
  957MOL0     C29104   3.931   2.810   1.511  0.6855  0.5029  1.2843
  957MOL0    Cl29105   4.004   2.952   1.581 -0.4200 -0.8200  0.6535
  957MOL0     C29106   3.947   2.107   2.051  0.1718  0.9476 -0.5664
  957MOL0     C29107   3.830   2.080   2.123 -0.7121  0.3041  0.2730
  957MOL0     O29108   3.697   1.935   2.332  0.3085  0.4189  0.1360
  957MOL0     C29109   3.364   1.972   2.293 -0.0982 -0.3014  0.8398
  957MOL0     C29110   3.248   1.971   2.377 -0.6592  0.5361  0.3335
  957MOL0     N29111   2.504   1.851   2.834 -0.5098  0.0856  0.6338
  957MOL0     N29112   2.415   1.784   2.765 -0.4139 -0.6542 -0.4373
  957MOL0     C29113   1.373   1.308   2.585 -0.3214 -0.0948 -0.7869
  957MOL0     C29114   1.245   1.252   2.572  0.5570  1.1257 -0.6797
  957MOL0     C29115   0.926   0.921   2.495  0.0749 -0.6618  0.6936
  957MOL0     C29116   0.826   0.992   2.572 -0.5643  0.3039 -0.5529
  957MOL0     C29117   0.694   0.940   2.562 -0.0869  0.1091 -0.7597
  957MOL0     C29118   0.663   0.830   2.485 -0.7543  0.1210  0.2404
  957MOL0     O29119   0.530   0.793   2.470 -0.3085 -0.7525  0.0785
  957MOL0     C29120   0.486   0.672   2.417  0.3167  0.0462 -0.2786
  957MOL0     C29121   0.340   0.672   2.406  0.0954  0.6575  0.1348
  957MOL0     C29122   0.271   0.534   2.380  0.2268  0.0194  0.6071
  957MOL0     C29123   0.160   0.537   2.282  1.2430 -0.7297 -0.8332
  957MOL0     C29124   0.047   0.625   2.330 -0.3784  0.6982  1.1220
  957MOL0     C29125  -0.033   0.708   2.366 -0.7630  0.5507  0.9083
  957MOL0     C29126   0.765   0.768   2.409  0.1454  0.3655 -0.3805
  957MOL0     C29127   0.888   0.808   2.419 -0.0807 -0.2301  0.0980
  957MOL0     H29128   1.319   0.939   2.665  0.9077 -0.8991 -1.1477
  957MOL0     H29129   1.543   1.035   2.684 -0.5947 -0.7788  0.9298
  957MOL0     H29130   1.731   1.142   2.701 -1.9715  0.0909  0.1193
  957MOL0     H29131   1.723   1.146   2.530 -0.5938 -3.1042  2.4895
  957MOL0     H29132   1.858   1.364   2.677  0.0665 -1.5229  1.4136
  957MOL0     H29133   1.938   1.225   2.596  1.7980  0.7153  2.7109
  957MOL0     H29134   1.838   1.295   2.382  1.4551  0.2911  0.4113
  957MOL0     H29135   1.792   1.449   2.436 -0.1760 -0.4553  0.3618
  957MOL0     H29136   2.079   1.335   2.454 -0.5873 -0.4627  1.9082
  957MOL0     H29137   2.006   1.454   2.337 -1.4990  0.2179 -0.3887
  957MOL0     H29138   1.976   1.611   2.530 -0.1891 -0.5525  1.9108
  957MOL0     H29139   2.090   1.496   2.619  1.9391  0.5599 -0.1346
  957MOL0     H29140   2.234   1.520   2.412  4.3526  0.6456  3.1302
  957MOL0     H29141   2.142   1.662   2.363 -0.0780 -1.1564 -0.5851
  957MOL0     H29142   2.252   1.798   2.491  0.9391  0.1911  0.4812
  957MOL0     H29143   2.197   1.703   2.626  0.1085 -3.0116  0.0312
  957MOL0     H29144   2.450   1.648   2.470 -0.6442 -0.0852 -0.0913
  957MOL0     H29145   2.402   1.565   2.623  1.0530 -0.6238 -0.0446
  957MOL0     H29146   2.659   1.799   2.556 -0.0576  1.2051 -0.4565
  957MOL0     H29147   2.728   2.035   2.806 -3.3444 -0.1719  1.6735
  957MOL0     H29148   2.754   1.891   2.906 -0.0795  1.3845  1.1268
  957MOL0     H29149   2.828   1.911   2.615  3.0242  1.1202 -0.6622
  957MOL0     H29150   2.862   1.772   2.727  0.0983  0.7453  3.7994
  957MOL0     H29151   3.002   1.959   2.866  2.5815  0.6923  0.3237
  957MOL0     H29152   2.972   2.043   2.716  0.0888 -1.4141 -3.0517
  957MOL0     H29153   3.084   1.764   2.706  5.0175 -0.8997 -1.5650
  957MOL0     H29154   3.185   1.894   2.756  0.3270 -2.8432 -0.3695
  957MOL0     H29155   3.331   1.741   2.603  1.6924  0.1015  0.6698
  957MOL0     H29156   3.654   1.710   2.530  0.1033 -2.2925 -1.7997
  957MOL0     H29157   3.525   1.609   2.520  0.2117 -0.2968  0.2005
  957MOL0     H29158   3.628   1.662   2.377  1.5114  1.1543  0.9655
  957MOL0     H29159   3.638   1.965   1.866  2.6088 -1.5425 -1.5282
  957MOL0     H29160   3.811   2.050   1.751  3.8970 -1.9562 -0.5206
  957MOL0     H29161   4.084   2.305   1.910 -0.3195  0.2687  0.0683
  957MOL0     H29162   4.176   2.169   1.971 -1.6104 -2.5100  0.0806
  957MOL0     H29163   4.316   2.316   1.801 -1.3495  0.8675  2.2697
  957MOL0     H29164   4.301   2.150   1.766 -0.3489 -0.5073  2.8806
  957MOL0     H29165   4.144   2.203   1.587  2.2007 -0.3398 -1.0813
  957MOL0     H29166   4.288   2.307   1.583  0.2484 -0.6758  0.3833
  957MOL0     H29167   4.017   2.402   1.681 -0.2860  0.0597 -0.7368
  957MOL0     H29168   4.159   2.491   1.676 -1.1862  1.4570 -0.4044
  957MOL0     H29169   4.062   2.359   1.418 -0.4361 -0.2960  1.1654
  957MOL0     H29170   4.167   2.497   1.429 -0.7304  1.0510 -1.1570
  957MOL0     H29171   3.932   2.572   1.376  1.0805 -2.5519  0.2532
  957MOL0     H29172   3.893   2.531   1.544  2.1548 -3.7158  1.6522
  957MOL0     H29173   4.111   2.728   1.443  0.4724  1.8314  1.8610
  957MOL0     H29174   4.091   2.694   1.614  0.3995  0.6884  0.5545
  957MOL0     H29175   3.844   2.790   1.574  0.0759  2.5745  1.1675
  957MOL0     H29176   3.906   2.835   1.408  1.2897  0.8359  1.2101
  957MOL0     H29177   4.034   2.132   2.111  0.6436 -1.9749  0.1118
  957MOL0     H29178   3.834   2.095   2.230 -0.2299 -0.8952  0.4383
  957MOL0     H29179   3.370   2.047   2.215 -0.7395 -2.7643 -1.7244
  957MOL0     H29180   3.164   2.037   2.358  0.1489  1.3892 -0.3609
  957MOL0     H29181   1.390   1.413   2.564  0.1846 -0.2529 -1.2004
  957MOL0     H29182   1.159   1.309   2.539  0.4841  0.3280 -1.9150
  957MOL0     H29183   0.841   1.084   2.628  0.9922 -0.2965  0.0719
  957MOL0     H29184   0.608   0.988   2.609 -2.4873 -3.0625 -1.5271
  957MOL0     H29185   0.537   0.649   2.323  1.2147 -0.7305  0.3789
  957MOL0     H29186   0.519   0.595   2.488  0.1626  1.0616  0.9200
  957MOL0     H29187   0.312   0.742   2.327 -1.4834 -1.6915 -1.5157
  957MOL0     H29188   0.292   0.708   2.497  0.7225  2.9234 -0.3557
  957MOL0     H29189   0.230   0.507   2.477  2.3407  1.0686  1.8567
  957MOL0     H29190   0.347   0.461   2.348  3.7484  2.6748  2.2572
  957MOL0     H29191   0.113   0.441   2.263  0.0816 -0.1526 -0.9360
  957MOL0     H29192   0.199   0.573   2.186  0.8726 -1.7612 -1.3801
  957MOL0     H29193  -0.106   0.780   2.395 -0.5107  2.8410 -3.3488
  957MOL0     H29194   0.744   0.686   2.340 -0.0529  0.0038  0.0994
  957MOL0     H29195   0.963   0.757   2.360  0.9967  1.6331 -0.2426
  958MOL0     O29196   7.868   7.625   3.086  0.5632  1.2097  0.4160
  958MOL0     C29197   7.909   7.596   3.196  0.6120  0.0180  1.1023
  958MOL0     O29198   8.012   7.515   3.220  0.2116 -0.1385  1.1184
  958MOL0     C29199   8.098   7.493   3.116  0.1631  0.7182  0.7156
  958MOL0     C29200   8.044   7.423   3.007 -0.0420  0.1685  0.3827
  958MOL0     C29201   8.119   7.384   2.897  0.4182 -0.7231  0.9181
  958MOL0     C29202   8.256   7.416   2.887 -1.0984 -0.0723 -0.3115
  958MOL0     O29203   8.339   7.382   2.784  0.7164  1.1097  0.6637
  958MOL0     C29204   8.458   7.462   2.753 -0.2205  0.0967 -0.1629
  958MOL0     C29205   8.519   7.401   2.627  1.6016 -0.2766  0.3316
  958MOL0     C29206   8.435   7.449   2.502 -0.4653 -0.0259  1.0392
  958MOL0     C29207   8.512   7.413   2.365  0.2388 -0.4392 -0.1908
  958MOL0     C29208   8.426   7.452   2.240 -0.0419 -0.8161  0.3849
  958MOL0     C29209   8.310   7.360   2.211  0.5498 -0.1286  0.2094
  958MOL0     C29210   8.236   7.390   2.081  0.0331 -0.1260  0.3332
  958MOL0     C29211   8.299   7.304   1.965  0.5723 -0.5664 -0.1614
  958MOL0     N29212   8.441   7.297   1.963  0.2673 -0.8357  0.6005
  958MOL0     C29213   8.526   7.391   1.909 -0.0877  0.0298  0.8350
  958MOL0     C29214   8.653   7.347   1.945 -0.6309  0.3102  0.4442
  958MOL0     C29215   8.781   7.411   1.918 -1.3016 -1.1324  0.0399
  958MOL0     C29216   8.813   7.529   2.017 -0.0299  0.2273  0.3976
  958MOL0     C29217   8.948   7.603   1.988 -0.3920 -1.0541 -0.7658
  958MOL0     C29218   8.963   7.663   1.846 -0.4905 -0.0506 -0.5222
  958MOL0     O29219   8.831   7.701   1.800 -0.5939 -0.8748  0.3902
  958MOL0     C29220   8.791   7.825   1.799  0.3058 -0.0285  0.7170
  958MOL0     C29221   8.853   7.933   1.868 -0.3121 -0.3769  0.0503
  958MOL0     C29222   8.797   8.062   1.854 -0.0033  1.2000 -0.0128
  958MOL0     C29223   8.864   8.170   1.931 -0.2602  0.2669 -0.2482
  958MOL0     C29224   8.685   8.083   1.765 -0.9329  0.4484  1.1484
  958MOL0     C29225   8.625   8.216   1.725 -0.3857  1.1884 -0.1866
  958MOL0     O29226   8.542   8.222   1.613  0.6907  0.2842  0.5374
  958MOL0     C29227   8.471   8.333   1.580 -0.3989 -0.3720  0.4853
  958MOL0     C29228   8.450   8.372   1.443 -0.5912  1.0715  0.3601
  958MOL0     C29229   8.382   8.481   1.406  0.2407 -0.8551 -0.2237
  958MOL0     C29230   8.332   8.566   1.501 -0.6200 -0.0465 -0.1952
  958MOL0     O29231   8.251   8.668   1.465  0.2578  0.5712 -0.3988
  958MOL0     C29232   8.300   8.799   1.485 -0.2650 -0.3865 -0.4487
  958MOL0     C29233   8.187   8.899   1.483  0.7774 -0.3388 -0.3464
  958MOL0     C29234   8.134   8.944   1.629  0.5638 -0.2916 -0.0683
  958MOL0     C29235   8.110   8.830   1.724  1.1266 -0.7045  0.0296
  958MOL0     C29236   8.041   8.886   1.854 -0.4866 -0.4188  0.4812
  958MOL0     C29237   8.152   8.946   1.945 -0.3626  0.5055 -0.4687
  958MOL0     C29238   8.107   9.015   2.071 -1.4342 -0.2441  0.3484
  958MOL0     C29239   8.004   9.132   2.047 -0.7364 -0.2848  0.9645
  958MOL0    Cl29240   7.942   9.198   2.199  0.2494  0.4252 -0.1807
  958MOL0     C29241   8.351   8.522   1.636  0.4865  1.3791  0.5463
  958MOL0     C29242   8.420   8.407   1.680  0.9311  0.0611  0.1575
  958MOL0     O29243   8.651   8.310   1.804  0.7676  0.1900 -0.5411
  958MOL0     C29244   8.622   7.969   1.703 -1.5924 -0.2757  0.7401
  958MOL0     C29245   8.680   7.842   1.717 -0.5150 -0.7901 -0.0497
  958MOL0     N29246   8.639   7.241   2.038 -0.5161  0.3807 -0.2008
  958MOL0     N29247   8.519   7.213   2.037 -0.2366 -0.0769 -0.3829
  958MOL0     C29248   8.303   7.502   2.995  0.3593  0.2723  0.8130
  958MOL0     C29249   8.230   7.536   3.107 -0.4279  0.9805 -0.1199
  958MOL0     C29250   7.821   7.635   3.309  0.1502  0.4529  1.2279
  958MOL0     C29251   7.708   7.713   3.283 -1.5860  0.9096  1.0650
  958MOL0     C29252   7.624   7.756   3.379 -0.6041  0.6060  0.2220
  958MOL0     C29253   7.648   7.707   3.510 -0.0295  0.0580  0.3710
  958MOL0     O29254   7.563   7.752   3.604 -0.1532  0.0672  0.1647
  958MOL0     C29255   7.567   7.676   3.723 -0.1622 -0.2524 -0.1008
  958MOL0     C29256   7.441   7.729   3.796 -0.4366  0.9921  0.9341
  958MOL0     C29257   7.440   7.885   3.814  0.0771 -0.9539 -0.6800
  958MOL0     C29258   7.315   7.952   3.880  1.2284 -0.8087 -1.0765
  958MOL0     C29259   7.192   7.934   3.803  0.7710  0.2555 -0.0775
  958MOL0     C29260   7.085   7.923   3.737 -0.6897  0.4572  0.5761
  958MOL0     C29261   7.753   7.620   3.536  0.1369  0.1994 -0.3978
  958MOL0     C29262   7.831   7.575   3.433  0.3649 -0.5070  0.2452
  958MOL0     H29263   7.939   7.396   3.016 -0.8461  1.8283 -2.6137
  958MOL0     H29264   8.067   7.334   2.816  0.8209  2.7508 -1.7566
  958MOL0     H29265   8.430   7.566   2.734 -0.8514  0.3816  2.0560
  958MOL0     H29266   8.525   7.467   2.839 -1.3697  1.1971  0.7132
  958MOL0     H29267   8.622   7.436   2.621  2.0280 -1.6287 -1.0112
  958MOL0     H29268   8.523   7.292   2.635 -0.0400 -0.4286 -0.4764
  958MOL0     H29269   8.339   7.397   2.493  0.1407 -0.9111 -1.1299
  958MOL0     H29270   8.420   7.556   2.511  1.3321  0.5295 -1.3520
  958MOL0     H29271   8.607   7.467   2.357  0.6064 -0.8719  1.1137
  958MOL0     H29272   8.548   7.310   2.361 -0.9169 -1.1632  3.9167
  958MOL0     H29273   8.391   7.553   2.263 -2.0719 -1.9771  2.9414
  958MOL0     H29274   8.489   7.467   2.152  1.4474 -0.1188  1.5103
  958MOL0     H29275   8.341   7.255   2.208 -1.1937 -0.6606 -0.2620
  958MOL0     H29276   8.236   7.369   2.291 -0.3982  1.8081 -0.8301
  958MOL0     H29277   8.136   7.346   2.084 -0.7364  1.5568  1.8290
  958MOL0     H29278   8.230   7.498   2.066  1.2681  0.1493  1.6350
  958MOL0     H29279   8.275   7.346   1.867 -1.1456 -1.4300 -0.1553
  958MOL0     H29280   8.269   7.199   1.975 -0.1643 -0.2349  1.4418
  958MOL0     H29281   8.509   7.474   1.841  0.7405 -0.2867  0.2325
  958MOL0     H29282   8.853   7.330   1.926  1.3168  1.0724  0.1180
  958MOL0     H29283   8.797   7.443   1.815  3.1531 -0.6926  0.6612
  958MOL0     H29284   8.818   7.474   2.111  1.6565  0.7964  0.6787
  958MOL0     H29285   8.739   7.609   2.024 -1.9924 -1.3757 -0.8707
  958MOL0     H29286   9.033   7.537   2.009 -1.8212 -1.8257  3.9703
  958MOL0     H29287   8.954   7.687   2.058  0.8106 -0.6886 -1.2820
  958MOL0     H29288   9.003   7.595   1.771  0.8581  1.5702 -1.3329
  958MOL0     H29289   9.037   7.744   1.843  4.2077 -3.9227 -0.8245
  958MOL0     H29290   8.945   7.935   1.925 -1.5336  0.4092  2.0838
  958MOL0     H29291   8.797   8.247   1.971 -0.5313 -0.5839  1.0033
  958MOL0     H29292   8.903   8.120   2.020 -0.0987  2.2606  0.8696
  958MOL0     H29293   8.942   8.221   1.874 -0.7599 -1.7712 -2.9273
  958MOL0     H29294   8.485   8.306   1.364  3.0108  0.2431  2.4136
  958MOL0     H29295   8.373   8.503   1.301  0.8786  1.5125  0.1600
  958MOL0     H29296   8.359   8.818   1.575 -0.0688  0.4062 -0.7373
  958MOL0     H29297   8.369   8.817   1.402 -1.0550  1.0140 -0.8253
  958MOL0     H29298   8.223   8.985   1.426  1.4679 -1.4997 -1.7181
  958MOL0     H29299   8.105   8.863   1.420  2.1261 -1.0898 -1.7564
  958MOL0     H29300   8.041   9.001   1.619  0.8911  0.1642 -0.5563
  958MOL0     H29301   8.201   9.016   1.675 -1.6237  0.9944  1.2321
  958MOL0     H29302   8.048   8.763   1.664 -2.4386  2.3251 -0.0607
  958MOL0     H29303   8.203   8.782   1.756  0.2061 -0.8843  2.6665
  958MOL0     H29304   7.999   8.803   1.911  0.1963 -0.6277  0.6908
  958MOL0     H29305   7.966   8.963   1.837 -0.0550 -0.6177 -3.0874
  958MOL0     H29306   8.213   8.864   1.983 -2.2573  0.0317  1.7898
  958MOL0     H29307   8.227   9.006   1.892  2.7344 -2.3443  0.3475
  958MOL0     H29308   8.198   9.045   2.124  0.6107 -0.7116 -2.6613
  958MOL0     H29309   8.062   8.941   2.138 -2.5465  0.4846  0.4217
  958MOL0     H29310   7.926   9.085   1.987  1.0977 -2.1466 -0.1110
  958MOL0     H29311   8.059   9.207   1.989  1.1330 -0.6669  2.1367
  958MOL0     H29312   8.286   8.577   1.702 -0.2115  1.4296 -0.1645
  958MOL0     H29313   8.405   8.383   1.784 -0.6403 -1.3064 -0.3402
  958MOL0     H29314   8.528   7.982   1.651 -0.8949  0.0995 -0.4548
  958MOL0     H29315   8.621   7.763   1.672 -0.6420  0.0023 -1.3275
  958MOL0     H29316   8.401   7.547   2.982  1.1691 -1.6674 -0.1113
  958MOL0     H29317   8.279   7.601   3.178 -0.5236 -0.3153  1.1794
  958MOL0     H29318   7.697   7.751   3.181 -0.0915 -1.3058  0.0145
  958MOL0     H29319   7.555   7.836   3.355 -0.4687  0.8739  0.7042
  958MOL0     H29320   7.547   7.570   3.703 -0.5327 -0.5537  1.7383
  958MOL0     H29321   7.654   7.699   3.785  0.2489  0.7673 -1.0288
  958MOL0     H29322   7.423   7.687   3.895  0.4453 -2.0868 -0.1205
  958MOL0     H29323   7.351   7.699   3.740  1.1613 -4.1133  0.6185
  958MOL0     H29324   7.461   7.939   3.721  0.2749  0.6459  0.2474
  958MOL0     H29325   7.511   7.919   3.890  0.7792  0.1924 -1.8175
  958MOL0     H29326   7.318   8.059   3.906  2.4229 -0.8107 -1.1422
  958MOL0     H29327   7.303   7.910   3.980 -0.5337  0.8262 -0.5346
  958MOL0     H29328   7.009   7.883   3.673  0.5260  1.5205 -1.6817
  958MOL0     H29329   7.769   7.574   3.633  0.2836 -0.4019 -0.7005
  958MOL0     H29330   7.903   7.498   3.459 -0.1158 -0.5451  1.5513
  959MOL0     O29331   5.623   5.380   8.397  0.0827  0.0463 -0.3222
  959MOL0     C29332   5.591   5.268   8.355 -0.2572 -0.2584 -0.7131
  959MOL0     O29333   5.665   5.151   8.381 -0.8310 -0.4121 -0.5163
  959MOL0     C29334   5.694   5.117   8.512 -0.1413  0.0358 -0.8131
  959MOL0     C29335   5.789   5.018   8.531 -0.3957 -0.3397  0.4287
  959MOL0     C29336   5.840   4.984   8.660  0.1493 -0.0840  0.8414
  959MOL0     C29337   5.791   5.052   8.766 -0.2487  0.6367 -0.1419
  959MOL0     O29338   5.841   5.002   8.881  0.4225 -0.1990  0.4874
  959MOL0     C29339   5.786   5.037   9.003 -0.6780 -0.6665  0.6921
  959MOL0     C29340   5.841   4.933   9.103  0.3645  0.5329 -0.8577
  959MOL0     C29341   5.993   4.954   9.133  0.7806  0.7852 -0.5986
  959MOL0     C29342   6.024   4.841   9.238  0.8628  0.4281 -0.7917
  959MOL0     C29343   6.163   4.855   9.290 -0.3990 -0.8773 -0.4061
  959MOL0     C29344   6.258   4.793   9.187  0.4887 -0.6535  0.3595
  959MOL0     C29345   6.406   4.833   9.242 -0.2298  0.3913  0.4205
  959MOL0     C29346   6.433   4.783   9.384 -0.7661 -0.3541 -0.2027
  959MOL0     N29347   6.574   4.812   9.421  1.1243  0.1154  0.3719
  959MOL0     C29348   6.685   4.743   9.371 -0.1069  0.1672  0.5959
  959MOL0     C29349   6.785   4.796   9.444 -0.2403  0.4922  0.1407
  959MOL0     C29350   6.920   4.742   9.461 -0.2077 -0.0542 -0.1217
  959MOL0     C29351   6.916   4.594   9.461  0.5831  0.0069  0.2070
  959MOL0     C29352   7.060   4.532   9.468  0.3476 -0.2214  0.1833
  959MOL0     C29353   7.143   4.576   9.586 -0.6731 -0.1890  0.1097
  959MOL0     O29354   7.251   4.479   9.600  0.5740 -0.4107 -0.6490
  959MOL0     C29355   7.266   4.429   9.725  0.8608  0.1811 -0.2126
  959MOL0     C29356   7.168   4.361   9.790 -0.0078  0.2209 -0.4262
  959MOL0     C29357   7.188   4.275   9.903 -0.3019 -0.3298  0.4188
  959MOL0     C29358   7.087   4.178   9.956 -0.0763 -0.0991 -0.1679
  959MOL0     C29359   7.313   4.293   9.972 -0.4872  0.4854  0.3934
  959MOL0     C29360   7.354   4.237  10.096  0.7660 -0.0542  0.7541
  959MOL0     O29361   7.287   4.124  10.143  0.9469  0.5715  0.1376
  959MOL0     C29362   7.340   4.061  10.246 -0.0029 -0.2054 -0.2360
  959MOL0     C29363   7.416   3.954  10.212 -0.0026  0.2755  0.2449
  959MOL0     C29364   7.474   3.880  10.321  0.3223 -0.4887  0.1265
  959MOL0     C29365   7.442   3.916  10.459 -0.9241  0.1728 -0.8443
  959MOL0     O29366   7.473   3.837  10.565 -0.6375  0.5206 -0.0990
  959MOL0     C29367   7.467   3.691  10.542  0.6481 -0.7260 -0.7493
  959MOL0     C29368   7.456   3.622  10.675 -0.3239  0.0034  0.6354
  959MOL0     C29369   7.354   3.508  10.669 -0.5023  0.2761  0.4840
  959MOL0     C29370   7.400   3.387  10.577 -0.0470 -0.5338 -0.9449
  959MOL0     C29371   7.296   3.308  10.525  0.2939  1.1800  0.3836
  959MOL0     C29372   7.338   3.221  10.406 -0.9229  0.2258  0.1949
  959MOL0     C29373   7.409   3.095  10.454  0.3756  0.7215  0.3748
  959MOL0     C29374   7.484   3.026  10.335  0.0497 -0.5629 -0.5076
  959MOL0    Cl29375   7.456   2.856  10.339 -0.1725 -0.2972 -0.6577
  959MOL0     C29376   7.361   4.024  10.481 -0.2299  0.0500 -0.3427
  959MOL0     C29377   7.310   4.097  10.375 -0.5507 -1.0367  0.6209
  959MOL0     O29378   7.431   4.299  10.162  0.7245  0.7874  0.3056
  959MOL0     C29379   7.402   4.391   9.920  0.5293 -0.3407 -0.2675
  959MOL0     C29380   7.383   4.453   9.795 -0.1795  0.2525  0.7618
  959MOL0     N29381   6.740   4.911   9.498  0.2587  0.5523  0.0192
  959MOL0     N29382   6.616   4.907   9.492 -0.5222  0.1927 -0.5552
  959MOL0     C29383   5.694   5.153   8.755  0.2310 -0.4247  0.0799
  959MOL0     C29384   5.646   5.181   8.625  0.1165  0.4493  0.2988
  959MOL0     C29385   5.487   5.265   8.262  0.5688  0.3615  0.1898
  959MOL0     C29386   5.463   5.153   8.184 -0.3629  0.0103 -0.3419
  959MOL0     C29387   5.356   5.152   8.097 -0.7819 -0.3644  0.1164
  959MOL0     C29388   5.283   5.263   8.078 -0.5181  0.0294 -0.2218
  959MOL0     O29389   5.182   5.252   7.986  0.3079 -0.6660  0.0381
  959MOL0     C29390   5.126   5.370   7.931 -0.7829 -0.0526 -1.0084
  959MOL0     C29391   5.016   5.332   7.842 -1.4248 -0.2969  0.0637
  959MOL0     C29392   5.079   5.287   7.704  0.7555 -0.7459 -0.7541
  959MOL0     C29393   5.146   5.390   7.610 -0.5385 -0.1987 -0.2323
  959MOL0     C29394   5.130   5.358   7.467 -0.2687  1.2552  0.4191
  959MOL0     C29395   5.110   5.343   7.344 -0.5742  0.1338 -0.2864
  959MOL0     C29396   5.308   5.379   8.152 -0.5688  0.7628 -0.0657
  959MOL0     C29397   5.417   5.386   8.241 -0.1068 -0.1022 -0.4499
  959MOL0     H29398   5.826   4.952   8.454 -2.8489 -0.7349 -0.4802
  959MOL0     H29399   5.910   4.902   8.667 -1.7911 -1.8930  0.0197
  959MOL0     H29400   5.812   5.137   9.039 -1.1394 -0.3514  0.1654
  959MOL0     H29401   5.679   5.020   9.016 -1.0079 -0.0631 -1.0695
  959MOL0     H29402   5.787   4.958   9.194 -0.1489 -3.7136  0.2210
  959MOL0     H29403   5.821   4.827   9.085  3.7321 -0.2251 -0.8061
  959MOL0     H29404   6.050   4.945   9.040  0.7733 -2.1364 -0.4204
  959MOL0     H29405   6.013   5.056   9.167 -0.3703  1.6873 -2.4255
  959MOL0     H29406   5.971   4.865   9.331  3.0261 -0.2484  0.6921
  959MOL0     H29407   5.995   4.746   9.195  0.2652  1.2241 -2.1968
  959MOL0     H29408   6.182   4.961   9.306  4.6946 -1.6700  0.7086
  959MOL0     H29409   6.176   4.803   9.385  0.4770  0.2452  0.1028
  959MOL0     H29410   6.247   4.685   9.175  3.5197 -0.9650 -0.2754
  959MOL0     H29411   6.239   4.840   9.090  2.3218 -0.4538  0.0699
  959MOL0     H29412   6.482   4.773   9.190 -1.4313 -0.3297 -0.5671
  959MOL0     H29413   6.426   4.939   9.226 -3.1779  0.9315 -0.3117
  959MOL0     H29414   6.403   4.679   9.393 -0.3295 -0.4269  0.5042
  959MOL0     H29415   6.370   4.833   9.458  1.1698  0.6875  0.8231
  959MOL0     H29416   6.687   4.652   9.312  2.9855 -2.4231  4.2549
  959MOL0     H29417   6.981   4.779   9.379  0.1626  0.1643  0.2507
  959MOL0     H29418   6.959   4.789   9.551  0.7258  1.0931 -1.0984
  959MOL0     H29419   6.862   4.549   9.377 -0.4210 -2.1588  1.9012
  959MOL0     H29420   6.854   4.569   9.547 -1.1512 -0.3521 -1.0873
  959MOL0     H29421   7.115   4.552   9.375  0.2870  0.1022  0.2150
  959MOL0     H29422   7.039   4.426   9.480 -0.2560 -0.0153  0.9700
  959MOL0     H29423   7.077   4.566   9.673  1.3908 -4.1488  1.4392
  959MOL0     H29424   7.186   4.676   9.578  0.7530 -0.6164  1.7467
  959MOL0     H29425   7.071   4.371   9.741 -0.1540  2.5071  0.1986
  959MOL0     H29426   7.047   4.217  10.050 -2.0994  0.4874 -1.2121
  959MOL0     H29427   6.998   4.176   9.893 -0.2467 -0.0021  0.0721
  959MOL0     H29428   7.137   4.081   9.956  2.7438  1.2334 -1.2509
  959MOL0     H29429   7.438   3.913  10.114  3.3794 -2.7392  2.0113
  959MOL0     H29430   7.543   3.801  10.296  1.9348  0.1918  2.1408
  959MOL0     H29431   7.373   3.673  10.489  0.1282 -0.6661  0.1376
  959MOL0     H29432   7.555   3.650  10.492  0.7018 -0.0973 -1.1857
  959MOL0     H29433   7.553   3.576  10.698 -0.0942 -0.0560 -0.4167
  959MOL0     H29434   7.432   3.687  10.759  1.0692 -1.7334  2.5066
  959MOL0     H29435   7.259   3.548  10.631 -0.5063 -0.3675 -0.2094
  959MOL0     H29436   7.345   3.472  10.772 -0.3256  1.8629  1.0760
  959MOL0     H29437   7.453   3.434  10.493  1.3736 -1.3604 -0.5405
  959MOL0     H29438   7.471   3.321  10.628 -1.4911 -2.4832 -1.3249
  959MOL0     H29439   7.221   3.376  10.483 -0.7280  0.6715  1.3450
  959MOL0     H29440   7.242   3.240  10.591  0.0007  0.6049 -0.4209
  959MOL0     H29441   7.243   3.185  10.366 -0.0769 -0.7488 -1.0122
  959MOL0     H29442   7.396   3.275  10.332  0.8937 -2.6908 -0.6555
  959MOL0     H29443   7.337   3.026  10.501  1.5863 -1.0707 -0.3026
  959MOL0     H29444   7.476   3.123  10.536  0.2933  0.7992  0.4158
  959MOL0     H29445   7.583   3.067  10.354 -0.6139  0.9939 -0.2773
  959MOL0     H29446   7.430   3.064  10.247 -3.0033  1.9052  2.1577
  959MOL0     H29447   7.345   4.067  10.579  1.9926 -1.3881  0.7229
  959MOL0     H29448   7.249   4.185  10.392  1.3673  0.2819  1.0665
  959MOL0     H29449   7.500   4.413   9.961  0.5964 -0.7060 -0.2305
  959MOL0     H29450   7.462   4.512   9.751  0.6142 -0.8110  0.7041
  959MOL0     H29451   5.652   5.193   8.846  0.9955  1.1063 -0.2153
  959MOL0     H29452   5.558   5.244   8.615 -1.6354 -1.6203  1.7345
  959MOL0     H29453   5.528   5.066   8.181  2.3164  1.7706  1.8922
  959MOL0     H29454   5.341   5.065   8.034  1.0402 -2.0861  1.8602
  959MOL0     H29455   5.081   5.435   8.007  0.0140  1.0193 -1.4259
  959MOL0     H29456   5.201   5.430   7.878 -2.5361  2.3167 -1.0027
  959MOL0     H29457   4.947   5.415   7.819 -0.4405 -0.0340 -2.2768
  959MOL0     H29458   4.963   5.245   7.879  1.5911 -1.7873  1.1991
  959MOL0     H29459   4.997   5.248   7.643 -2.4390  3.1241  0.5521
  959MOL0     H29460   5.130   5.191   7.717  1.2986 -0.7323 -2.5429
  959MOL0     H29461   5.252   5.381   7.634  0.0092  4.1037 -0.2135
  959MOL0     H29462   5.115   5.493   7.632  0.6659  0.4803 -1.5693
  959MOL0     H29463   5.096   5.328   7.239  0.5698 -1.0426 -0.3046
  959MOL0     H29464   5.247   5.469   8.142  1.1248  1.8427 -1.3066
  959MOL0     H29465   5.441   5.474   8.299  1.2600 -2.3427  2.6758
  960MOL0     O29466   9.734  10.831   1.963 -1.0705  0.4924  0.2789
  960MOL0     C29467   9.726  10.928   2.040  0.0595  0.6370 -0.8652
  960MOL0     O29468   9.629  11.019   2.037 -0.0597  1.1274 -0.9662
  960MOL0     C29469   9.513  11.007   1.958  0.7834  0.2203 -0.7054
  960MOL0     C29470   9.463  11.120   1.892 -0.0681 -0.2705 -0.3311
  960MOL0     C29471   9.351  11.110   1.798  0.1209 -0.7036 -0.3532
  960MOL0     C29472   9.277  10.991   1.793  0.2565 -0.0210 -0.1346
  960MOL0     O29473   9.156  10.982   1.731  0.0871 -0.2018 -0.6391
  960MOL0     C29474   9.147  11.023   1.591 -0.8217 -0.1278 -0.7507
  960MOL0     C29475   9.049  11.134   1.565 -0.1838 -0.3711 -0.2243
  960MOL0     C29476   8.920  11.098   1.620 -0.3021  0.5334 -0.5993
  960MOL0     C29477   8.814  11.212   1.604  1.1036  0.0740  0.5313
  960MOL0     C29478   8.676  11.167   1.651  0.9752 -0.9469  0.5043
  960MOL0     C29479   8.572  11.258   1.594  0.2638  0.2330  0.1311
  960MOL0     C29480   8.595  11.411   1.622  1.2326  0.7348 -0.1758
  960MOL0     C29481   8.477  11.508   1.592  0.5908 -0.0150  0.8195
  960MOL0     N29482   8.344  11.452   1.641 -0.6507  0.0281 -0.0546
  960MOL0     C29483   8.311  11.470   1.772  0.4464 -0.5336 -0.1152
  960MOL0     C29484   8.200  11.388   1.771  0.3476 -0.4793 -0.2024
  960MOL0     C29485   8.112  11.381   1.895 -0.3750 -0.2424  0.3084
  960MOL0     C29486   8.045  11.515   1.917  0.8891  0.2436 -0.0001
  960MOL0     C29487   7.933  11.493   2.026 -0.1310 -0.1401  0.7562
  960MOL0     C29488   7.844  11.612   2.055 -0.4615 -0.6357 -0.2044
  960MOL0     O29489   7.779  11.659   1.935  0.1473 -0.0363 -0.1752
  960MOL0     C29490   7.699  11.767   1.936  0.5929  0.2921 -0.8941
  960MOL0     C29491   7.642  11.816   2.053 -1.4815 -0.3249  0.2552
  960MOL0     C29492   7.567  11.931   2.051 -0.4665 -0.4952 -0.4872
  960MOL0     C29493   7.528  11.987   2.188  0.9238  0.5742 -0.2580
  960MOL0     C29494   7.519  11.988   1.935  0.1919  0.2866  0.1386
  960MOL0     C29495   7.427  12.098   1.924  1.2607  0.1811  0.6647
  960MOL0     O29496   7.364  12.107   1.805 -0.3932 -0.3419  0.5633
  960MOL0     C29497   7.241  12.177   1.794 -0.0072 -0.1969  0.6642
  960MOL0     C29498   7.124  12.121   1.861 -0.0278  0.7577 -0.4348
  960MOL0     C29499   7.006  12.194   1.873 -1.2365 -1.0986 -1.7260
  960MOL0     C29500   7.006  12.327   1.831  0.9199 -0.3117 -0.7847
  960MOL0     O29501   6.889  12.391   1.870  0.5525  0.2576 -0.3998
  960MOL0     C29502   6.842  12.503   1.802  0.3527 -0.4266 -0.1983
  960MOL0     C29503   6.686  12.519   1.817 -0.1265 -0.3532 -0.5301
  960MOL0     C29504   6.605  12.411   1.745 -0.2528 -0.3694 -1.2295
  960MOL0     C29505   6.457  12.438   1.753 -0.5077  0.0499  0.4685
  960MOL0     C29506   6.385  12.325   1.689 -0.2510  0.3916  0.5179
  960MOL0     C29507   6.408  12.294   1.532 -0.1614 -0.5614  0.1739
  960MOL0     C29508   6.316  12.188   1.480  0.2307 -0.1723 -0.3840
  960MOL0     C29509   6.386  12.054   1.435  0.0879 -0.5713  0.5268
  960MOL0    Cl29510   6.523  12.102   1.315  0.2845 -0.0755  0.1082
  960MOL0     C29511   7.123  12.384   1.765 -0.4198  0.6291  0.9165
  960MOL0     C29512   7.235  12.307   1.751  0.7539 -0.3636  0.7874
  960MOL0     O29513   7.390  12.168   2.022  0.1662  0.5991  0.1022
  960MOL0     C29514   7.578  11.932   1.815  0.8333  0.1681 -0.0858
  960MOL0     C29515   7.660  11.823   1.814  0.0132  0.4129 -0.3148
  960MOL0     N29516   8.174  11.332   1.653  0.8841  0.1713 -0.3021
  960MOL0     N29517   8.255  11.378   1.571  0.6446  0.3929  0.6617
  960MOL0     C29518   9.326  10.884   1.855 -0.2114 -0.0023 -0.6560
  960MOL0     C29519   9.441  10.887   1.941 -0.6700 -0.2338  0.8366
  960MOL0     C29520   9.819  10.935   2.158 -0.5800  0.2668  0.5393
  960MOL0     C29521   9.824  11.041   2.247 -0.1368 -0.5611 -0.6577
  960MOL0     C29522   9.914  11.055   2.348  0.0808  0.5935  0.3405
  960MOL0     C29523   9.999  10.940   2.369 -0.0712  0.3285 -0.4864
  960MOL0     O29524  10.093  10.938   2.472 -0.4598  1.0937  0.0399
  960MOL0     C29525  10.156  10.806   2.501 -0.2083  0.0525 -0.1399
  960MOL0     C29526  10.244  10.820   2.620  0.3051 -0.2939 -0.5287
  960MOL0     C29527  10.186  10.831   2.759  0.3762 -0.2835 -0.4143
  960MOL0     C29528  10.134  10.978   2.792  0.0856 -0.6934  0.2684
  960MOL0     C29529   9.996  11.009   2.749 -0.3880 -0.5420 -0.5089
  960MOL0     C29530   9.883  11.045   2.712 -0.6219 -0.2048  0.3395
  960MOL0     C29531   9.980  10.818   2.298 -0.1472 -0.6411 -0.4114
  960MOL0     C29532   9.901  10.821   2.186  1.1258 -0.3102 -1.0019
  960MOL0     H29533   9.520  11.213   1.899 -0.3249 -0.1792  0.7826
  960MOL0     H29534   9.309  11.204   1.764  1.2048  0.9876  2.5381
  960MOL0     H29535   9.242  11.051   1.544  1.0265 -4.9461 -0.4342
  960MOL0     H29536   9.120  10.932   1.537  3.1946 -1.8964 -0.1683
  960MOL0     H29537   9.084  11.220   1.622 -1.5796  0.3208 -0.3860
  960MOL0     H29538   9.053  11.162   1.459  1.7428 -2.1531 -0.7047
  960MOL0     H29539   8.890  11.004   1.572  0.4796  1.1946 -2.4727
  960MOL0     H29540   8.937  11.084   1.727  0.0260 -1.3283 -0.8513
  960MOL0     H29541   8.841  11.308   1.649  2.2610  0.0942 -0.1714
  960MOL0     H29542   8.808  11.227   1.496 -2.4273  0.6052  0.6805
  960MOL0     H29543   8.653  11.066   1.616 -0.8725 -0.1865 -0.6166
  960MOL0     H29544   8.665  11.176   1.760 -0.6950 -0.0106  0.2993
  960MOL0     H29545   8.578  11.235   1.487 -1.6034 -0.9360  0.2401
  960MOL0     H29546   8.475  11.229   1.634  0.7914 -2.5807 -0.3762
  960MOL0     H29547   8.596  11.414   1.732 -0.3750  1.1576 -0.1556
  960MOL0     H29548   8.688  11.449   1.579  0.1637  1.6462 -1.7636
  960MOL0     H29549   8.465  11.533   1.486 -1.7741  0.4173  1.1343
  960MOL0     H29550   8.501  11.598   1.648  2.0192  2.1114 -2.8752
  960MOL0     H29551   8.331  11.540   1.853  2.4500 -0.6149 -0.4813
  960MOL0     H29552   8.039  11.302   1.879  0.6607 -0.5978 -3.8303
  960MOL0     H29553   8.176  11.355   1.979  4.2428  0.3320 -2.6519
  960MOL0     H29554   7.999  11.536   1.819 -0.2329  1.5751  0.7644
  960MOL0     H29555   8.129  11.579   1.946  1.2449 -0.3802  0.3518
  960MOL0     H29556   7.985  11.471   2.120 -0.1595  1.0945  1.0725
  960MOL0     H29557   7.873  11.406   1.996 -2.1548  1.0923  1.0280
  960MOL0     H29558   7.906  11.686   2.107  1.6683 -1.0899 -1.9220
  960MOL0     H29559   7.767  11.590   2.129  0.8027  0.9301  1.6786
  960MOL0     H29560   7.671  11.787   2.154  1.9370  0.3559 -0.4198
  960MOL0     H29561   7.420  11.990   2.200  0.8403  3.7598 -0.7440
  960MOL0     H29562   7.581  11.937   2.270 -0.2220 -0.6475 -0.2495
  960MOL0     H29563   7.566  12.090   2.190  0.3805  0.8877 -2.8248
  960MOL0     H29564   7.126  12.021   1.903  2.0377  1.7929  2.2980
  960MOL0     H29565   6.917  12.141   1.902 -1.0320  0.2088  1.7754
  960MOL0     H29566   6.893  12.592   1.841 -1.0604  0.1177  0.5070
  960MOL0     H29567   6.861  12.489   1.695  0.0800  0.2995 -0.3448
  960MOL0     H29568   6.662  12.517   1.923 -0.6721  1.2905 -0.6088
  960MOL0     H29569   6.659  12.615   1.772 -3.9379 -1.2919 -0.6077
  960MOL0     H29570   6.618  12.322   1.808 -3.2592 -1.1863 -1.6272
  960MOL0     H29571   6.639  12.392   1.643 -0.4352 -0.8874 -1.1997
  960MOL0     H29572   6.421  12.463   1.853 -0.9772 -2.0987  0.8886
  960MOL0     H29573   6.435  12.527   1.692  0.8687  0.0913 -0.0014
  960MOL0     H29574   6.280  12.352   1.703 -0.6092 -0.6286 -0.0957
  960MOL0     H29575   6.393  12.237   1.753 -0.3691  1.4643  2.0571
  960MOL0     H29576   6.396  12.389   1.478 -1.2235 -0.1341  1.1201
  960MOL0     H29577   6.509  12.255   1.518  0.1850  0.8319 -1.5922
  960MOL0     H29578   6.262  12.222   1.391 -1.4422 -0.0073  0.6427
  960MOL0     H29579   6.227  12.176   1.543 -2.1168  1.1839 -3.1693
  960MOL0     H29580   6.328  11.987   1.372  2.9572 -0.2357 -2.7562
  960MOL0     H29581   6.416  12.003   1.527  2.0296  1.0175  0.8544
  960MOL0     H29582   7.130  12.491   1.747  3.7053  0.5450  1.1462
  960MOL0     H29583   7.328  12.359   1.729  0.1123  0.2616 -0.5995
  960MOL0     H29584   7.555  11.985   1.723 -1.3875  2.4559  1.6435
  960MOL0     H29585   7.696  11.786   1.719 -0.4478  0.0700 -0.3651
  960MOL0     H29586   9.281  10.787   1.835  2.9349 -1.5251 -1.0502
  960MOL0     H29587   9.478  10.805   2.002  2.5117  0.0411 -0.5152
  960MOL0     H29588   9.759  11.124   2.221 -0.4149 -0.8860 -1.0053
  960MOL0     H29589   9.909  11.134   2.423  4.3298  1.0910  0.3269
  960MOL0     H29590  10.088  10.723   2.522  1.2342 -1.7482 -2.1829
  960MOL0     H29591  10.220  10.776   2.418  0.0349 -1.9990  0.7478
  960MOL0     H29592  10.320  10.898   2.608 -2.6469  3.2322  1.3744
  960MOL0     H29593  10.307  10.731   2.620  0.1822 -0.5693  3.4760
  960MOL0     H29594  10.270  10.810   2.826  0.7871 -0.1548 -0.8780
  960MOL0     H29595  10.105  10.758   2.759 -2.6070  2.7901 -0.3211
  960MOL0     H29596  10.197  11.051   2.741 -0.4329  0.1330  0.7803
  960MOL0     H29597  10.141  11.012   2.896 -4.3282 -3.4393  1.7390
  960MOL0     H29598   9.794  11.088   2.671  0.9481  1.1887 -1.8654
  960MOL0     H29599  10.023  10.721   2.318 -0.8950 -0.5925  1.6329
  960MOL0     H29600   9.898  10.728   2.129  2.3821 -0.1821 -1.3024
  961MOL0     O29601   0.102   1.576   6.900 -0.4476  0.3242  0.0644
  961MOL0     C29602   0.095   1.493   6.992  1.2558  0.4852  0.1902
  961MOL0     O29603  -0.012   1.411   7.009  0.1724 -0.1314  0.5299
  961MOL0     C29604  -0.132   1.430   6.936 -0.6772  0.8369  0.0746
  961MOL0     C29605  -0.229   1.529   6.963 -0.1837  0.2815  0.6228
  961MOL0     C29606  -0.350   1.528   6.899  0.0507  0.3524  0.3952
  961MOL0     C29607  -0.382   1.427   6.801  0.5183  0.1905 -1.0183
  961MOL0     O29608  -0.497   1.429   6.724  0.1264  0.2156  0.5631
  961MOL0     C29609  -0.622   1.481   6.785  0.1128 -0.2584  0.0107
  961MOL0     C29610  -0.734   1.469   6.685  0.4707 -0.5022  0.3399
  961MOL0     C29611  -0.864   1.530   6.746  0.0928 -0.3866  0.8200
  961MOL0     C29612  -0.987   1.513   6.655  0.4722 -0.1989  0.1478
  961MOL0     C29613  -1.086   1.629   6.689  0.2832  0.7924 -0.4319
  961MOL0     C29614  -1.201   1.612   6.587 -0.3564 -0.4622  0.1843
  961MOL0     C29615  -1.301   1.727   6.606  0.0844  0.9235  0.0707
  961MOL0     C29616  -1.366   1.747   6.745  0.0089 -0.2918  0.4063
  961MOL0     N29617  -1.469   1.651   6.780 -0.1415  0.4812 -0.8236
  961MOL0     C29618  -1.597   1.677   6.759  0.9914 -0.0682 -0.4958
  961MOL0     C29619  -1.657   1.550   6.750 -0.6409  0.0365  1.0223
  961MOL0     C29620  -1.798   1.518   6.701 -0.2066  0.2094  0.4921
  961MOL0     C29621  -1.817   1.536   6.547  0.3130  0.1724 -0.1263
  961MOL0     C29622  -1.950   1.489   6.489 -0.4933  0.4483  0.0735
  961MOL0     C29623  -1.962   1.522   6.344  0.3206  0.0635  0.9128
  961MOL0     O29624  -1.951   1.657   6.319  0.9111 -0.1577 -0.3562
  961MOL0     C29625  -1.925   1.705   6.192 -0.2962  0.9149 -0.1208
  961MOL0     C29626  -1.950   1.639   6.069 -0.0366  1.1849 -0.3027
  961MOL0     C29627  -1.946   1.702   5.943 -0.1523  1.1218  1.5783
  961MOL0     C29628  -1.993   1.629   5.821  0.0998  0.2695  0.8971
  961MOL0     C29629  -1.880   1.825   5.932 -0.3246 -0.4632 -0.6464
  961MOL0     C29630  -1.831   1.892   5.804 -0.2439  0.5835 -0.3344
  961MOL0     O29631  -1.822   2.031   5.818  0.8665 -0.5563 -1.1264
  961MOL0     C29632  -1.819   2.110   5.703  0.2757 -0.0957  0.1760
  961MOL0     C29633  -1.934   2.152   5.636  0.1924 -0.6777 -0.1019
  961MOL0     C29634  -1.931   2.229   5.515  0.0307  0.8177  0.4602
  961MOL0     C29635  -1.808   2.253   5.441  0.7864 -0.1752  0.0602
  961MOL0     O29636  -1.804   2.306   5.320 -0.1134  0.5494 -0.3462
  961MOL0     C29637  -1.906   2.264   5.231  0.6356  0.2941 -0.0491
  961MOL0     C29638  -1.825   2.269   5.096  0.4304  0.3089 -0.7238
  961MOL0     C29639  -1.750   2.130   5.065  0.5823 -0.0895 -0.4749
  961MOL0     C29640  -1.619   2.112   5.141 -0.4101  0.1736  0.2689
  961MOL0     C29641  -1.529   2.004   5.083  0.3722 -0.3054  0.0477
  961MOL0     C29642  -1.395   1.994   5.171  1.0742 -0.1385  0.1118
  961MOL0     C29643  -1.407   1.928   5.304 -0.7664 -0.5332 -0.8769
  961MOL0     C29644  -1.460   1.784   5.305 -0.2038  0.5409 -0.1495
  961MOL0    Cl29645  -1.332   1.671   5.227  0.1073  0.4800  0.1520
  961MOL0     C29646  -1.691   2.214   5.502 -0.3671  0.8541 -0.1865
  961MOL0     C29647  -1.694   2.140   5.629  0.0625  0.8118 -0.2060
  961MOL0     O29648  -1.819   1.835   5.699  1.2621  0.2241  0.4682
  961MOL0     C29649  -1.855   1.893   6.055 -0.0745 -0.0809 -0.1788
  961MOL0     C29650  -1.874   1.832   6.180  0.9112  1.1602  0.2544
  961MOL0     N29651  -1.554   1.456   6.771  0.0390  0.5452 -0.1303
  961MOL0     N29652  -1.445   1.517   6.804 -0.4826 -0.4109  0.1977
  961MOL0     C29653  -0.281   1.337   6.769  0.0968  0.0628  0.2343
  961MOL0     C29654  -0.160   1.333   6.835  0.9878 -0.3325  1.0311
  961MOL0     C29655   0.215   1.462   7.070  0.0064  0.3408 -0.1569
  961MOL0     C29656   0.217   1.362   7.166 -0.2094  0.0589  0.4988
  961MOL0     C29657   0.334   1.339   7.240 -0.3682  0.1194 -0.5602
  961MOL0     C29658   0.450   1.429   7.232  0.1170  0.2349  0.7990
  961MOL0     O29659   0.570   1.416   7.292  0.1287  0.3240 -0.3235
  961MOL0     C29660   0.609   1.302   7.357  0.2099 -0.0998  0.5094
  961MOL0     C29661   0.567   1.294   7.500  0.1621 -0.0121  0.2895
  961MOL0     C29662   0.625   1.409   7.590  1.0407  0.9784  0.3441
  961MOL0     C29663   0.634   1.342   7.729  0.3041  0.2418 -0.9857
  961MOL0     C29664   0.705   1.432   7.822  0.0973  0.1539 -0.7261
  961MOL0     C29665   0.742   1.512   7.909  0.1554  0.0139  1.0778
  961MOL0     C29666   0.438   1.527   7.142 -0.1288  0.6274  0.1560
  961MOL0     C29667   0.326   1.553   7.055  0.6603  0.2817 -0.3968
  961MOL0     H29668  -0.202   1.615   7.025 -2.3444  0.0813  1.9436
  961MOL0     H29669  -0.417   1.610   6.925 -2.1777 -1.7406  1.5865
  961MOL0     H29670  -0.650   1.436   6.881 -1.2622  0.8897  0.1743
  961MOL0     H29671  -0.598   1.586   6.802  1.1903 -0.6723  1.1804
  961MOL0     H29672  -0.710   1.521   6.592  0.4456 -1.6370 -0.3177
  961MOL0     H29673  -0.736   1.365   6.652  3.7462  0.0215 -1.9585
  961MOL0     H29674  -0.879   1.492   6.848  0.3749 -0.2118  0.9264
  961MOL0     H29675  -0.832   1.634   6.754  2.3608 -0.9649  0.0124
  961MOL0     H29676  -0.956   1.516   6.550  2.0063 -0.4071  0.5662
  961MOL0     H29677  -1.036   1.419   6.684 -4.4847  0.8315 -3.5469
  961MOL0     H29678  -1.119   1.621   6.793  3.6965  1.5879  0.8371
  961MOL0     H29679  -1.028   1.721   6.689 -1.4933  1.9587  0.3759
  961MOL0     H29680  -1.177   1.612   6.480 -2.4247  4.1955 -0.5157
  961MOL0     H29681  -1.263   1.530   6.624 -0.5570  0.4406  1.9627
  961MOL0     H29682  -1.259   1.818   6.560  1.1934 -0.2210 -1.2850
  961MOL0     H29683  -1.380   1.700   6.536 -0.5862 -1.0565  1.5228
  961MOL0     H29684  -1.426   1.837   6.729 -1.5312 -1.0344  1.8441
  961MOL0     H29685  -1.287   1.757   6.819  2.3775  1.5870 -2.1323
  961MOL0     H29686  -1.635   1.777   6.741 -0.4023 -0.0228  2.2136
  961MOL0     H29687  -1.826   1.418   6.737  2.7838 -0.5835  0.8723
  961MOL0     H29688  -1.870   1.589   6.743 -0.5577 -0.9537  1.9729
  961MOL0     H29689  -1.753   1.471   6.487 -1.4620 -0.4871 -1.4016
  961MOL0     H29690  -1.798   1.639   6.514  1.9545 -1.0126 -3.3701
  961MOL0     H29691  -2.031   1.536   6.546 -1.0499  2.0845 -1.8880
  961MOL0     H29692  -1.957   1.381   6.505  0.3768  0.0951 -1.6721
  961MOL0     H29693  -2.063   1.491   6.317 -0.3977  1.3428  2.0096
  961MOL0     H29694  -1.887   1.463   6.291  0.9901 -0.2462  2.1673
  961MOL0     H29695  -1.976   1.534   6.071  0.4729  1.0086 -1.7074
  961MOL0     H29696  -1.901   1.589   5.778  0.0097 -1.9814  2.6432
  961MOL0     H29697  -2.059   1.547   5.851  0.5645  0.1891  1.7437
  961MOL0     H29698  -2.050   1.702   5.764  1.3627  2.8256  2.6922
  961MOL0     H29699  -2.025   2.129   5.691  0.4132 -0.8181  0.2073
  961MOL0     H29700  -2.027   2.246   5.468 -0.4679  1.0221  1.5158
  961MOL0     H29701  -1.937   2.160   5.241  0.5942 -0.0778 -3.0402
  961MOL0     H29702  -1.988   2.337   5.229 -0.0105 -0.3902  0.8546
  961MOL0     H29703  -1.893   2.290   5.013  2.0506 -0.7974 -2.4300
  961MOL0     H29704  -1.750   2.349   5.100 -0.2317  1.0665 -2.4396
  961MOL0     H29705  -1.729   2.123   4.958  3.0190  1.8707 -0.2152
  961MOL0     H29706  -1.812   2.042   5.086  2.9881 -1.5031  1.1602
  961MOL0     H29707  -1.558   2.203   5.134  1.2672 -0.8911  0.4776
  961MOL0     H29708  -1.636   2.105   5.249  1.4763  0.8362  0.6416
  961MOL0     H29709  -1.512   2.019   4.976  0.0396  0.4909  0.0962
  961MOL0     H29710  -1.577   1.907   5.069  1.7948 -0.9679 -0.4342
  961MOL0     H29711  -1.330   1.934   5.107  1.9590  3.7231 -3.0463
  961MOL0     H29712  -1.355   2.094   5.190 -2.0463  1.9230 -2.8333
  961MOL0     H29713  -1.472   1.992   5.365 -1.7198 -2.2171 -0.0509
  961MOL0     H29714  -1.308   1.925   5.352 -1.6172 -1.7641  0.9101
  961MOL0     H29715  -1.560   1.779   5.262 -0.5865 -0.3646  0.7965
  961MOL0     H29716  -1.487   1.753   5.407 -1.6464 -0.5767 -0.8355
  961MOL0     H29717  -1.597   2.236   5.454  0.7191 -0.3144  1.2974
  961MOL0     H29718  -1.600   2.104   5.669 -0.1244  1.9605  1.3576
  961MOL0     H29719  -1.833   1.999   6.064 -2.0464  0.5233 -1.6245
  961MOL0     H29720  -1.869   1.892   6.271 -0.7542  1.8062 -0.0397
  961MOL0     H29721  -0.304   1.261   6.696  0.3564 -1.6063  1.8210
  961MOL0     H29722  -0.087   1.258   6.806  0.9507  0.0667 -0.1329
  961MOL0     H29723   0.124   1.309   7.185  0.6319 -1.6483  0.0244
  961MOL0     H29724   0.341   1.253   7.306  2.9946 -0.2438 -1.2249
  961MOL0     H29725   0.575   1.210   7.308 -1.5768  1.7358 -2.0181
  961MOL0     H29726   0.718   1.301   7.357  0.2242 -0.4794 -0.7856
  961MOL0     H29727   0.594   1.194   7.535 -1.9983 -1.1479 -1.1188
  961MOL0     H29728   0.460   1.284   7.518  0.3966 -2.3387  0.6868
  961MOL0     H29729   0.568   1.503   7.585  1.4690  1.4296  2.7610
  961MOL0     H29730   0.724   1.428   7.548  0.4952  2.8424 -0.2375
  961MOL0     H29731   0.680   1.243   7.722 -2.6384 -1.6161  2.5634
  961MOL0     H29732   0.535   1.321   7.771  0.1967  1.5834 -0.5150
  961MOL0     H29733   0.786   1.566   7.989 -2.8423  1.1230  2.1231
  961MOL0     H29734   0.512   1.607   7.133  0.7098 -0.3431 -2.2265
  961MOL0     H29735   0.335   1.641   6.993 -0.1721  0.9320  0.3689
  962MOL0     O29736   6.003   4.577   2.116  0.4065  0.2972 -0.2531
  962MOL0     C29737   5.937   4.587   2.214  0.5072 -0.4128 -0.7656
  962MOL0     O29738   5.817   4.643   2.221 -0.0486  0.4673  0.2799
  962MOL0     C29739   5.724   4.660   2.121 -0.5211 -0.1183 -0.1550
  962MOL0     C29740   5.725   4.605   1.994  0.5071  0.0540 -0.5711
  962MOL0     C29741   5.607   4.617   1.918  0.5236  0.0229  1.1274
  962MOL0     C29742   5.491   4.669   1.961 -0.4551 -1.3309 -0.1052
  962MOL0     O29743   5.383   4.642   1.881  0.1316 -0.8625 -0.4704
  962MOL0     C29744   5.259   4.701   1.911 -0.1981 -0.1095  0.7268
  962MOL0     C29745   5.157   4.662   1.792 -0.2858 -0.8390 -0.3915
  962MOL0     C29746   5.036   4.755   1.826 -0.1698 -0.7728  0.6471
  962MOL0     C29747   4.931   4.719   1.713  0.2752 -0.0810 -0.9193
  962MOL0     C29748   4.792   4.784   1.742  0.3437 -0.0346  0.1352
  962MOL0     C29749   4.690   4.724   1.648 -0.8315  1.8045 -0.0529
  962MOL0     C29750   4.710   4.771   1.498  0.0815 -0.6127  0.9417
  962MOL0     C29751   4.578   4.757   1.413  1.0423 -0.2572 -0.4449
  962MOL0     N29752   4.607   4.802   1.277 -0.9309 -0.1931  0.6645
  962MOL0     C29753   4.548   4.905   1.211  0.1369  0.7135  1.3805
  962MOL0     C29754   4.610   4.929   1.096  0.5370 -1.2188 -0.3006
  962MOL0     C29755   4.584   5.024   0.972 -0.3251  0.2624 -0.2690
  962MOL0     C29756   4.450   5.099   0.981  0.9976 -0.7676  0.5301
  962MOL0     C29757   4.423   5.187   0.848 -0.3678  0.3550  0.9162
  962MOL0     C29758   4.401   5.104   0.722 -0.4712  0.7337  1.5118
  962MOL0     O29759   4.287   5.026   0.736 -0.0486  0.3697  0.4395
  962MOL0     C29760   4.279   4.894   0.686  1.1052  0.7291  0.3050
  962MOL0     C29761   4.157   4.835   0.722  1.0223  0.5971 -0.2771
  962MOL0     C29762   4.123   4.703   0.678  0.1074 -0.4163  0.0227
  962MOL0     C29763   3.988   4.647   0.724 -0.0886 -0.6873 -0.1758
  962MOL0     C29764   4.211   4.642   0.583  0.8643  0.5881 -0.3317
  962MOL0     C29765   4.182   4.512   0.523  0.2825  0.3326  0.3276
  962MOL0     O29766   4.055   4.469   0.519 -0.3539  0.6089  0.1835
  962MOL0     C29767   4.011   4.358   0.449 -0.7507  0.4650 -0.3651
  962MOL0     C29768   4.063   4.304   0.331 -0.0711 -0.1783  0.3388
  962MOL0     C29769   3.995   4.201   0.256 -0.2740 -0.8848  0.8245
  962MOL0     C29770   3.874   4.151   0.296  0.0720  0.1255 -0.5281
  962MOL0     O29771   3.818   4.054   0.223 -0.1996 -0.7545 -0.2110
  962MOL0     C29772   3.690   4.003   0.275  0.6143 -1.3147  0.6453
  962MOL0     C29773   3.646   3.887   0.192  0.5305  0.4525 -0.2946
  962MOL0     C29774   3.613   3.926   0.051  0.5291  0.4415 -1.3241
  962MOL0     C29775   3.577   3.799  -0.043  0.3697  0.4945  0.1289
  962MOL0     C29776   3.500   3.842  -0.180  0.2521  0.8035 -0.4318
  962MOL0     C29777   3.598   3.915  -0.282  0.5630  1.0407  0.6041
  962MOL0     C29778   3.534   3.921  -0.421 -1.1548  0.2164 -0.4061
  962MOL0     C29779   3.429   4.026  -0.415 -0.6688  0.0619  0.0154
  962MOL0    Cl29780   3.415   4.140  -0.555  0.1345 -0.1774  0.1312
  962MOL0     C29781   3.833   4.187   0.430  0.1118  0.6483 -0.4594
  962MOL0     C29782   3.894   4.296   0.495  0.6624  0.2163  0.1344
  962MOL0     O29783   4.274   4.454   0.472 -0.6729 -0.1730  0.5714
  962MOL0     C29784   4.335   4.707   0.547 -0.1951 -0.1122 -0.7916
  962MOL0     C29785   4.372   4.831   0.597  0.1602 -0.1616 -0.5913
  962MOL0     N29786   4.703   4.830   1.088 -0.8811 -0.3219  0.7233
  962MOL0     N29787   4.693   4.744   1.183  0.3129  0.3864  0.4125
  962MOL0     C29788   5.490   4.734   2.084 -0.1198  0.3504  0.1404
  962MOL0     C29789   5.603   4.724   2.162  0.0775 -0.1945 -0.2235
  962MOL0     C29790   6.008   4.546   2.337  0.0472 -1.0424  0.6075
  962MOL0     C29791   5.951   4.570   2.470  0.8654 -0.1402  0.5774
  962MOL0     C29792   6.021   4.534   2.588  0.8013  0.1203 -0.0073
  962MOL0     C29793   6.142   4.470   2.571 -0.4645  0.1982 -0.1187
  962MOL0     O29794   6.205   4.444   2.687 -0.0996 -0.4806  0.0940
  962MOL0     C29795   6.307   4.532   2.729  0.0198 -1.1551 -0.5544
  962MOL0     C29796   6.296   4.552   2.882 -0.0215 -0.7843 -0.6274
  962MOL0     C29797   6.434   4.599   2.937  0.7787  0.6836 -0.1065
  962MOL0     C29798   6.504   4.490   3.015  0.4259 -0.3047  1.0620
  962MOL0     C29799   6.555   4.386   2.931 -0.3325 -0.1162 -0.1273
  962MOL0     C29800   6.607   4.301   2.860  0.6474 -0.3956  0.0036
  962MOL0     C29801   6.199   4.442   2.451  0.9181  0.2810 -0.4904
  962MOL0     C29802   6.135   4.481   2.337  0.1386 -0.1925  0.0241
  962MOL0     H29803   5.818   4.553   1.968  1.6948  3.0893 -2.9661
  962MOL0     H29804   5.606   4.564   1.823  0.1463  0.2151  1.0184
  962MOL0     H29805   5.224   4.659   2.006 -3.0798 -3.0241 -1.3810
  962MOL0     H29806   5.278   4.808   1.925 -0.9741  0.0145  0.8705
  962MOL0     H29807   5.204   4.706   1.704  0.8122  3.2656  1.9818
  962MOL0     H29808   5.144   4.554   1.779  0.2522 -0.6242 -3.5310
  962MOL0     H29809   5.000   4.727   1.925 -0.8007  0.7008  0.8535
  962MOL0     H29810   5.063   4.860   1.813  0.2844 -1.1050 -1.4806
  962MOL0     H29811   4.971   4.763   1.621  2.6323  2.7438  1.2892
  962MOL0     H29812   4.923   4.610   1.714  2.9318 -0.5035  3.7688
  962MOL0     H29813   4.771   4.762   1.847  0.5878 -1.4427 -0.0895
  962MOL0     H29814   4.789   4.893   1.739 -2.9881 -0.0115 -2.3247
  962MOL0     H29815   4.697   4.615   1.657  1.0057  1.9298  0.5013
  962MOL0     H29816   4.587   4.751   1.676 -1.4275  0.6009 -0.9791
  962MOL0     H29817   4.746   4.873   1.514  0.3365 -0.2322 -1.6662
  962MOL0     H29818   4.791   4.714   1.452 -1.4022 -1.4694 -0.7501
  962MOL0     H29819   4.491   4.802   1.462  1.5514  1.6953 -1.2359
  962MOL0     H29820   4.554   4.651   1.425  1.6228 -0.0893  4.4130
  962MOL0     H29821   4.478   4.977   1.253  4.1330  3.5382  3.9417
  962MOL0     H29822   4.666   5.096   0.968 -2.6946  3.1786 -3.9977
  962MOL0     H29823   4.589   4.966   0.879  0.9049  0.2613 -0.2220
  962MOL0     H29824   4.457   5.167   1.067  0.6244  0.3007 -0.2684
  962MOL0     H29825   4.365   5.032   0.994  1.2301 -1.3602 -0.8317
  962MOL0     H29826   4.515   5.246   0.834  0.8457 -2.1059 -3.5666
  962MOL0     H29827   4.340   5.253   0.873  0.5221  0.9817  2.3189
  962MOL0     H29828   4.489   5.043   0.702  0.8974  3.1972 -0.7238
  962MOL0     H29829   4.404   5.164   0.630  3.6698 -3.1324 -1.3019
  962MOL0     H29830   4.094   4.900   0.782  0.4253 -1.7844  1.8560
  962MOL0     H29831   3.915   4.630   0.645 -0.6698  0.4690  0.0824
  962MOL0     H29832   3.994   4.551   0.776 -0.6181 -0.6140  0.0304
  962MOL0     H29833   3.944   4.719   0.794 -0.8017 -1.0207 -0.2717
  962MOL0     H29834   4.148   4.336   0.270 -0.8611 -1.2866 -1.4179
  962MOL0     H29835   4.049   4.162   0.170 -3.2506  0.4700 -1.8427
  962MOL0     H29836   3.689   3.984   0.382  1.6911  0.6850  1.0632
  962MOL0     H29837   3.620   4.081   0.242 -0.2699 -1.5402  1.9241
  962MOL0     H29838   3.731   3.820   0.207  1.3633  2.0637  3.3210
  962MOL0     H29839   3.554   3.845   0.233  1.1699 -1.0572 -0.3716
  962MOL0     H29840   3.696   3.984   0.010  3.6045 -1.6783  1.3310
  962MOL0     H29841   3.526   3.992   0.054  0.7556  0.7428 -1.2976
  962MOL0     H29842   3.669   3.743  -0.060 -1.4224 -2.6362  0.1087
  962MOL0     H29843   3.513   3.724   0.004  1.0704 -0.6101 -0.6274
  962MOL0     H29844   3.404   3.887  -0.158 -0.0806 -0.3001  0.4947
  962MOL0     H29845   3.478   3.748  -0.232  1.4834 -0.0631  0.5247
  962MOL0     H29846   3.629   4.014  -0.247  2.5106  0.9032 -0.6122
  962MOL0     H29847   3.688   3.856  -0.296  2.0886  3.9728 -4.1363
  962MOL0     H29848   3.504   3.826  -0.468  2.5487 -0.1987 -2.2999
  962MOL0     H29849   3.611   3.948  -0.493 -1.3283  0.3921 -0.5273
  962MOL0     H29850   3.448   4.085  -0.325 -2.9587 -1.9221  1.9598
  962MOL0     H29851   3.330   3.984  -0.395 -1.5329  3.4089  4.3859
  962MOL0     H29852   3.753   4.128   0.474 -0.1720  2.6394  1.9103
  962MOL0     H29853   3.845   4.323   0.588  0.4682 -2.0299  0.7353
  962MOL0     H29854   4.411   4.656   0.489  1.3936  2.0413 -0.7075
  962MOL0     H29855   4.459   4.887   0.564  0.6444 -1.0241 -0.8005
  962MOL0     H29856   5.404   4.787   2.124  0.6373  1.7340 -0.0079
  962MOL0     H29857   5.600   4.771   2.260  6.0525 -2.0548  1.2740
  962MOL0     H29858   5.861   4.630   2.481 -0.1710 -1.3995 -0.6661
  962MOL0     H29859   5.984   4.541   2.690  0.5332 -3.9554  0.3290
  962MOL0     H29860   6.401   4.485   2.699  0.2922 -0.1214 -1.3844
  962MOL0     H29861   6.317   4.628   2.677  0.3424 -1.6488 -1.4383
  962MOL0     H29862   6.259   4.461   2.929  1.7333  0.4031  3.5080
  962MOL0     H29863   6.221   4.627   2.910 -0.1398 -1.1239 -0.0149
  962MOL0     H29864   6.403   4.672   3.012 -2.5256 -1.4611  0.7830
  962MOL0     H29865   6.491   4.643   2.854  1.6492 -1.6074 -0.8013
  962MOL0     H29866   6.428   4.456   3.087 -1.1107  3.0677  1.2125
  962MOL0     H29867   6.581   4.533   3.079 -1.1850  0.1329  2.8158
  962MOL0     H29868   6.660   4.223   2.808  0.7929  0.4319 -1.1218
  962MOL0     H29869   6.296   4.393   2.448  2.8750  3.7592 -0.4959
  962MOL0     H29870   6.192   4.463   2.246  1.0103  0.0142  0.5207
  963MOL0     O29871   6.531   0.801   9.145  0.3210  0.8607  0.2603
  963MOL0     C29872   6.447   0.756   9.068 -0.0715 -0.4878 -0.3544
  963MOL0     O29873   6.337   0.829   9.022  0.5920 -0.0779 -0.3168
  963MOL0     C29874   6.294   0.939   9.081 -0.6953 -0.0757 -0.2235
  963MOL0     C29875   6.237   1.041   9.009  0.3830 -0.4591 -0.0430
  963MOL0     C29876   6.164   1.147   9.065  0.5917 -0.1754  0.0075
  963MOL0     C29877   6.169   1.160   9.213  0.3367  0.9462 -0.1933
  963MOL0     O29878   6.099   1.259   9.277  0.4193  0.2827  0.1459
  963MOL0     C29879   5.970   1.283   9.227  0.3180  0.4355  0.0896
  963MOL0     C29880   5.882   1.369   9.318 -0.0716 -0.0935 -0.3572
  963MOL0     C29881   5.961   1.494   9.373 -0.6683 -0.6568  0.1960
  963MOL0     C29882   5.871   1.623   9.396  0.2171  0.4687  0.0998
  963MOL0     C29883   5.931   1.717   9.500  0.6863  0.2339 -0.0763
  963MOL0     C29884   5.849   1.843   9.530  1.9230 -0.1667  0.3479
  963MOL0     C29885   5.701   1.818   9.543 -0.0346 -0.1692  0.5729
  963MOL0     C29886   5.626   1.836   9.406 -0.4634  0.1899 -0.6704
  963MOL0     N29887   5.569   1.969   9.391  0.6194 -0.2435  0.7541
  963MOL0     C29888   5.470   2.016   9.469 -0.2132  0.1712 -0.2363
  963MOL0     C29889   5.434   2.140   9.415  0.4398 -0.0084 -0.4395
  963MOL0     C29890   5.338   2.245   9.467  0.1339 -0.2645 -0.5793
  963MOL0     C29891   5.356   2.263   9.623 -1.5413 -0.2005  0.0950
  963MOL0     C29892   5.499   2.268   9.667 -0.0172  0.0962  0.2471
  963MOL0     C29893   5.493   2.335   9.807 -0.2890 -0.5433  0.1785
  963MOL0     O29894   5.383   2.287   9.893  0.3502 -0.4293 -0.8831
  963MOL0     C29895   5.326   2.380   9.978  0.4790  0.0222  0.0879
  963MOL0     C29896   5.354   2.515  10.003 -0.5284  0.8792 -0.1778
  963MOL0     C29897   5.277   2.593  10.090  0.5122  1.0591 -0.1358
  963MOL0     C29898   5.325   2.730  10.117 -0.6110 -0.2009  0.3901
  963MOL0     C29899   5.165   2.545  10.153 -0.0843 -0.1690 -0.6181
  963MOL0     C29900   5.073   2.617  10.242  0.1070 -0.0380  0.3499
  963MOL0     O29901   5.009   2.535  10.336 -0.1718  0.4950  0.2366
  963MOL0     C29902   4.916   2.593  10.416  0.0920 -0.2780 -0.6250
  963MOL0     C29903   4.771   2.589  10.391 -1.0118 -0.1246 -0.1409
  963MOL0     C29904   4.694   2.656  10.493 -0.6336  0.4144  0.4084
  963MOL0     C29905   4.745   2.722  10.608  0.0347  0.4442 -1.8606
  963MOL0     O29906   4.664   2.786  10.701 -0.1989  0.9753  0.0974
  963MOL0     C29907   4.602   2.902  10.641  0.1633  0.2267 -0.4569
  963MOL0     C29908   4.535   2.993  10.748  0.7376  0.6013  0.8390
  963MOL0     C29909   4.627   3.078  10.834 -0.3492  0.4744 -0.1116
  963MOL0     C29910   4.691   3.199  10.751 -0.0526  0.7711  0.0636
  963MOL0     C29911   4.792   3.247  10.859 -0.6434 -0.2609 -0.5134
  963MOL0     C29912   4.919   3.160  10.878  0.0163  0.3770  0.0345
  963MOL0     C29913   5.039   3.254  10.873 -0.5220 -0.3684 -0.5272
  963MOL0     C29914   5.180   3.184  10.910  0.5815 -0.1049  0.6331
  963MOL0    Cl29915   5.201   3.191  11.085 -0.0447 -0.1450  0.1726
  963MOL0     C29916   4.882   2.732  10.622  0.1083  0.6565  0.9259
  963MOL0     C29917   4.962   2.656  10.532 -0.4890 -0.7379 -0.2055
  963MOL0     O29918   5.057   2.735  10.226 -0.2008 -0.3326 -0.0645
  963MOL0     C29919   5.148   2.405  10.140  0.8925 -0.4066  0.1825
  963MOL0     C29920   5.228   2.328  10.058  0.4171  0.3734  0.4808
  963MOL0     N29921   5.511   2.155   9.302 -0.1874  0.1678  0.1145
  963MOL0     N29922   5.586   2.051   9.284  0.3650 -0.0540  0.9970
  963MOL0     C29923   6.230   1.061   9.293 -0.5768  0.7627  0.1744
  963MOL0     C29924   6.288   0.954   9.228 -0.3351  0.0550 -0.2384
  963MOL0     C29925   6.456   0.622   9.023 -0.2504 -0.8022  0.8576
  963MOL0     C29926   6.341   0.557   8.955 -0.0370  0.5535  0.7223
  963MOL0     C29927   6.353   0.429   8.895  0.0049 -0.1491  0.7425
  963MOL0     C29928   6.474   0.351   8.906  0.5119  0.2266 -0.3145
  963MOL0     O29929   6.465   0.227   8.856  0.0341 -1.0423 -0.0136
  963MOL0     C29930   6.579   0.178   8.795 -0.3351  0.5755 -0.0203
  963MOL0     C29931   6.534   0.052   8.722 -0.6261 -0.2511 -0.1909
  963MOL0     C29932   6.657  -0.023   8.651  0.3759 -0.1038  0.4831
  963MOL0     C29933   6.682   0.047   8.516 -0.2920  1.0416 -0.5181
  963MOL0     C29934   6.778  -0.036   8.448 -0.4210 -0.5888 -0.4048
  963MOL0     C29935   6.862  -0.082   8.379 -0.3029  0.5884 -1.2035
  963MOL0     C29936   6.577   0.405   8.983  0.2371 -0.0199  0.2898
  963MOL0     C29937   6.564   0.542   9.032 -0.3294  0.0265 -0.5242
  963MOL0     H29938   6.236   1.046   8.901  4.3236  3.9619 -0.2205
  963MOL0     H29939   6.104   1.221   9.013 -0.6301  0.7466  2.5235
  963MOL0     H29940   5.989   1.348   9.141  1.3905  0.4659  0.3343
  963MOL0     H29941   5.917   1.192   9.199  1.8068 -0.2547 -0.5513
  963MOL0     H29942   5.803   1.422   9.266  0.8198  0.7714 -0.8574
  963MOL0     H29943   5.842   1.314   9.404 -2.6213  2.3559  0.1639
  963MOL0     H29944   6.008   1.465   9.467  0.5213 -3.1701 -1.0821
  963MOL0     H29945   6.039   1.528   9.305 -2.8486  2.7539 -0.8788
  963MOL0     H29946   5.861   1.670   9.298  0.8192  0.4158  0.0072
  963MOL0     H29947   5.783   1.566   9.427  1.2203 -1.9151 -1.1131
  963MOL0     H29948   5.934   1.663   9.595 -4.0352 -1.4199 -0.6196
  963MOL0     H29949   6.031   1.752   9.474  0.5820  1.0096  0.5411
  963MOL0     H29950   5.881   1.873   9.630  0.9042 -1.3853  1.0745
  963MOL0     H29951   5.868   1.920   9.455  1.1623 -0.2393  0.0656
  963MOL0     H29952   5.682   1.729   9.605  1.4442 -1.0505 -0.1909
  963MOL0     H29953   5.663   1.896   9.611 -0.4627  1.4208 -1.4004
  963MOL0     H29954   5.547   1.763   9.391 -0.2950 -0.1926  0.2340
  963MOL0     H29955   5.704   1.810   9.334  0.9577 -0.5657  1.0694
  963MOL0     H29956   5.439   1.983   9.567 -0.9395 -4.4693 -1.7932
  963MOL0     H29957   5.353   2.340   9.414 -2.2459  0.6590  0.2582
  963MOL0     H29958   5.233   2.215   9.464  0.7676 -3.3982  2.5931
  963MOL0     H29959   5.308   2.178   9.672 -1.7134 -0.8471 -1.1609
  963MOL0     H29960   5.311   2.360   9.648  1.5125  1.4541 -0.3939
  963MOL0     H29961   5.546   2.330   9.590 -4.3337  1.8554 -1.2672
  963MOL0     H29962   5.547   2.171   9.681 -0.9743 -0.2712  1.0368
  963MOL0     H29963   5.479   2.441   9.784  0.0076 -0.8324 -1.4499
  963MOL0     H29964   5.587   2.325   9.862 -0.0496  1.0379  0.1060
  963MOL0     H29965   5.443   2.561   9.960  0.3551 -1.6543 -1.2382
  963MOL0     H29966   5.252   2.801  10.077  0.0029 -0.1388 -0.6612
  963MOL0     H29967   5.328   2.755  10.224 -1.4678  3.8964 -0.3497
  963MOL0     H29968   5.420   2.747  10.065 -2.3426 -0.3100 -3.1038
  963MOL0     H29969   4.732   2.546  10.300 -0.0707  0.5922 -0.8992
  963MOL0     H29970   4.588   2.673  10.473 -1.3672  0.8415  4.0307
  963MOL0     H29971   4.679   2.964  10.594  0.0114 -1.7821 -3.6530
  963MOL0     H29972   4.541   2.876  10.554 -1.3595  0.7376  0.4222
  963MOL0     H29973   4.471   3.066  10.698 -0.2139 -1.6220 -1.4675
  963MOL0     H29974   4.475   2.934  10.817  1.4940 -0.4252  0.6555
  963MOL0     H29975   4.709   3.018  10.874  1.1146  1.5130 -1.4531
  963MOL0     H29976   4.572   3.111  10.923 -3.0090  3.4453 -2.6007
  963MOL0     H29977   4.749   3.169  10.664 -0.5533 -0.9502  0.2699
  963MOL0     H29978   4.612   3.274  10.741 -1.3857 -0.1672  2.5373
  963MOL0     H29979   4.751   3.251  10.961  0.5729  0.7380 -0.0253
  963MOL0     H29980   4.835   3.345  10.835  1.9137 -1.6378 -1.9628
  963MOL0     H29981   4.915   3.095  10.966 -1.2345  0.1211 -0.1949
  963MOL0     H29982   4.926   3.101  10.786  1.4196  0.4213  0.0920
  963MOL0     H29983   5.018   3.336  10.942  1.2597  0.1263 -0.5246
  963MOL0     H29984   5.045   3.294  10.771 -1.8012 -0.7648 -0.7722
  963MOL0     H29985   5.259   3.241  10.860  0.0314 -0.7779 -1.0901
  963MOL0     H29986   5.181   3.082  10.872  0.1065  0.2068 -0.2469
  963MOL0     H29987   4.931   2.781  10.706 -0.1674 -2.0960  2.8398
  963MOL0     H29988   5.071   2.661  10.541 -0.6351 -0.4591  2.2398
  963MOL0     H29989   5.063   2.362  10.191  0.1271  2.8184  1.8953
  963MOL0     H29990   5.222   2.219  10.057 -0.6921  0.3366  2.8928
  963MOL0     H29991   6.232   1.074   9.401  0.0855  1.3626  0.1050
  963MOL0     H29992   6.341   0.874   9.278 -1.7517 -1.5790 -1.2355
  963MOL0     H29993   6.250   0.614   8.943  0.4691  1.3297  0.5114
  963MOL0     H29994   6.278   0.376   8.836  1.0186 -3.2740  2.0378
  963MOL0     H29995   6.613   0.249   8.720  2.5126 -0.5674  0.0340
  963MOL0     H29996   6.659   0.153   8.866 -0.2352 -0.1863 -0.3826
  963MOL0     H29997   6.466   0.077   8.640 -0.4179 -0.8156 -0.5435
  963MOL0     H29998   6.496  -0.020   8.794 -0.3653  2.4752  2.8914
  963MOL0     H29999   6.626  -0.127   8.648  0.8145 -0.3244  2.2343
  963MOL0     H30000   6.753  -0.020   8.705  2.2637  2.2554 -2.6653
  963MOL0     H30001   6.736   0.142   8.522 -0.0966  1.0354 -1.7976
  963MOL0     H30002   6.600   0.062   8.445  0.6020  2.2260 -1.3227
  963MOL0     H30003   6.941  -0.140   8.335  0.1573 -0.2910  0.7011
  963MOL0     H30004   6.656   0.334   9.006 -2.0937 -3.3845 -1.1626
  963MOL0     H30005   6.646   0.571   9.097  1.5848 -0.9871 -2.3526
  964MOL0     O30006   5.776   3.255  11.056  0.1888 -0.8236  0.0291
  964MOL0     C30007   5.682   3.256  10.975 -0.5160 -0.6356 -0.2690
  964MOL0     O30008   5.581   3.172  10.977 -0.1404 -0.9679 -0.1161
  964MOL0     C30009   5.614   3.043  11.023 -0.1658 -0.5415  0.2254
  964MOL0     C30010   5.647   2.937  10.934 -0.4540  0.5264 -0.7510
  964MOL0     C30011   5.674   2.807  10.988 -0.2332  0.3643 -0.5689
  964MOL0     C30012   5.681   2.783  11.129 -0.2572 -0.5850 -0.0899
  964MOL0     O30013   5.703   2.648  11.174 -0.0084 -0.2183 -0.4048
  964MOL0     C30014   5.595   2.560  11.141 -0.0544  0.3594 -0.2032
  964MOL0     C30015   5.596   2.454  11.262 -0.6133  0.8331  0.4290
  964MOL0     C30016   5.538   2.523  11.386 -0.5808  0.1740  0.0368
  964MOL0     C30017   5.541   2.432  11.504 -0.4612  0.1073  0.2162
  964MOL0     C30018   5.478   2.501  11.630 -0.5225  0.5864  0.3179
  964MOL0     C30019   5.315   2.503  11.618 -0.3073 -0.3811  0.1949
  964MOL0     C30020   5.252   2.533  11.765 -0.4072  0.1279  0.0588
  964MOL0     C30021   5.310   2.673  11.813  0.1797 -0.1374  0.0265
  964MOL0     N30022   5.228   2.706  11.930  0.2966 -0.2330 -0.0215
  964MOL0     C30023   5.122   2.800  11.934 -0.0052 -0.4111  0.4735
  964MOL0     C30024   5.069   2.799  12.056  0.6275  0.2522  1.2440
  964MOL0     C30025   4.950   2.877  12.112  0.0877  0.6191 -0.1603
  964MOL0     C30026   4.983   2.961  12.228 -0.2522 -0.4620 -0.0044
  964MOL0     C30027   4.860   3.047  12.271 -0.7873  0.2162 -0.1875
  964MOL0     C30028   4.866   3.191  12.211 -0.0054 -0.0372 -0.2931
  964MOL0     O30029   4.760   3.272  12.254  1.0846  0.0857 -0.4111
  964MOL0     C30030   4.744   3.407  12.209  0.3677  1.1036 -0.2506
  964MOL0     C30031   4.825   3.466  12.111 -0.2051  1.6539  0.2459
  964MOL0     C30032   4.798   3.592  12.064 -0.6306  0.8556 -0.3612
  964MOL0     C30033   4.882   3.645  11.953 -0.4312 -0.9710  0.1883
  964MOL0     C30034   4.688   3.665  12.116  0.1907  0.0253  1.0646
  964MOL0     C30035   4.648   3.795  12.057 -0.6519 -0.3539  0.2141
  964MOL0     O30036   4.632   3.807  11.923  0.7713 -0.1040 -0.6943
  964MOL0     C30037   4.574   3.922  11.876  0.3339 -0.7692 -0.3146
  964MOL0     C30038   4.441   3.947  11.853  0.0789 -0.4181  0.5815
  964MOL0     C30039   4.392   4.061  11.796  0.5776 -0.1748 -0.1540
  964MOL0     C30040   4.489   4.166  11.770  0.2275  0.1777 -0.0203
  964MOL0     O30041   4.434   4.275  11.708  0.2864  1.0046  0.0043
  964MOL0     C30042   4.520   4.361  11.634  0.1856  0.0136  1.3112
  964MOL0     C30043   4.589   4.300  11.516  0.3020  0.3951 -0.9393
  964MOL0     C30044   4.496   4.211  11.430  0.7355 -0.5358  0.0833
  964MOL0     C30045   4.374   4.286  11.383  0.1999 -0.0734  0.1034
  964MOL0     C30046   4.290   4.207  11.280  1.1923 -0.3958  0.4074
  964MOL0     C30047   4.217   4.083  11.342  0.2257  0.5046 -0.1627
  964MOL0     C30048   4.116   4.028  11.250  0.8380  0.9668  0.9191
  964MOL0     C30049   4.043   3.904  11.320  0.6040 -0.9080 -0.3089
  964MOL0    Cl30050   4.143   3.792  11.417  0.3530  0.0365 -0.4562
  964MOL0     C30051   4.628   4.137  11.785 -0.1513  0.3783  0.2286
  964MOL0     C30052   4.671   4.023  11.850  0.1870  0.5581 -0.8443
  964MOL0     O30053   4.650   3.894  12.137  0.0573  0.6853  0.9155
  964MOL0     C30054   4.622   3.619  12.233 -0.0684 -0.5115 -0.4325
  964MOL0     C30055   4.641   3.483  12.269 -0.2982 -0.3350 -0.3971
  964MOL0     N30056   5.138   2.707  12.129  0.6378 -0.1145  0.1087
  964MOL0     N30057   5.226   2.650  12.055  0.0623  0.3884  1.3256
  964MOL0     C30058   5.653   2.891  11.210 -1.1684  0.0730 -0.1407
  964MOL0     C30059   5.623   3.017  11.158  0.2034 -0.3934 -0.0260
  964MOL0     C30060   5.664   3.371  10.884  0.3039  0.1785  0.8821
  964MOL0     C30061   5.731   3.494  10.892  0.0582  0.1887 -0.8694
  964MOL0     C30062   5.704   3.598  10.800 -0.1197  0.4492  0.4430
  964MOL0     C30063   5.613   3.589  10.704  0.2896 -0.4575 -0.9378
  964MOL0     O30064   5.607   3.705  10.619 -0.2504  0.8394 -1.0906
  964MOL0     C30065   5.571   3.689  10.478 -0.2438 -0.4234 -0.2077
  964MOL0     C30066   5.629   3.801  10.394 -0.6735 -0.8347  0.0843
  964MOL0     C30067   5.591   3.775  10.246 -0.4525 -0.3651 -0.4165
  964MOL0     C30068   5.642   3.887  10.149  0.4579  0.2169  0.3021
  964MOL0     C30069   5.567   4.016  10.180  0.5231  0.4702 -0.2625
  964MOL0     C30070   5.491   4.111  10.198  0.9091  0.1323 -0.3033
  964MOL0     C30071   5.547   3.467  10.693 -0.0713 -0.0571  0.3243
  964MOL0     C30072   5.576   3.356  10.779  1.0432 -0.0338 -0.6134
  964MOL0     H30073   5.639   2.957  10.828 -1.5378  1.5806 -0.4945
  964MOL0     H30074   5.695   2.731  10.914  1.1980  1.9486 -1.8848
  964MOL0     H30075   5.494   2.600  11.131 -0.4439 -0.2009  1.2990
  964MOL0     H30076   5.611   2.523  11.039  0.6466  1.1794 -0.4094
  964MOL0     H30077   5.542   2.361  11.242 -0.2802  0.8633 -0.7215
  964MOL0     H30078   5.700   2.425  11.281  0.6230  3.2203 -1.9508
  964MOL0     H30079   5.601   2.612  11.400 -1.7602  1.0289  0.0362
  964MOL0     H30080   5.438   2.559  11.364 -0.6988 -0.9915 -1.4729
  964MOL0     H30081   5.497   2.335  11.477 -1.4794  0.8602 -0.9477
  964MOL0     H30082   5.646   2.411  11.528 -0.4359  0.0370  0.0481
  964MOL0     H30083   5.512   2.435  11.711 -0.0751  2.3537  1.6525
  964MOL0     H30084   5.516   2.603  11.642  1.2351 -0.3012  3.3139
  964MOL0     H30085   5.283   2.590  11.560 -3.2466 -3.1204 -2.6411
  964MOL0     H30086   5.278   2.412  11.571 -1.5811  1.0535 -1.7172
  964MOL0     H30087   5.145   2.552  11.751 -0.5834 -0.2076  0.9124
  964MOL0     H30088   5.262   2.461  11.847  2.1052  2.2841  1.8033
  964MOL0     H30089   5.299   2.738  11.726 -2.9612  0.2041  0.5850
  964MOL0     H30090   5.412   2.663  11.851  0.9281  0.2635 -1.7388
  964MOL0     H30091   5.079   2.858  11.853 -1.9087 -0.5307  1.3607
  964MOL0     H30092   4.888   2.931  12.039 -0.4501  0.4326  0.1505
  964MOL0     H30093   4.894   2.799  12.165  2.5051 -1.1848 -0.1098
  964MOL0     H30094   5.065   3.029  12.201 -0.0656 -0.4468  0.5854
  964MOL0     H30095   5.026   2.906  12.312 -0.2645 -0.2064  0.1707
  964MOL0     H30096   4.867   3.061  12.379  0.9753 -0.6821 -0.1506
  964MOL0     H30097   4.770   2.988  12.251 -0.6852  0.2928 -0.9053
  964MOL0     H30098   4.862   3.194  12.102 -1.3160  2.7280 -0.2658
  964MOL0     H30099   4.951   3.248  12.251  0.6733 -3.1826  3.4584
  964MOL0     H30100   4.906   3.411  12.065 -0.5296  0.6577  0.8360
  964MOL0     H30101   4.965   3.580  11.923 -1.2485 -0.5097 -3.5717
  964MOL0     H30102   4.835   3.660  11.855  4.1615  4.1577 -1.8072
  964MOL0     H30103   4.931   3.736  11.990  0.5589 -1.0046 -0.9599
  964MOL0     H30104   4.370   3.870  11.883  1.5666 -1.5265  1.4017
  964MOL0     H30105   4.286   4.080  11.787  0.5995  0.9451  1.5137
  964MOL0     H30106   4.460   4.445  11.597  0.6467  0.3332  1.2810
  964MOL0     H30107   4.596   4.404  11.701  2.3863  1.2574 -1.7410
  964MOL0     H30108   4.633   4.379  11.454  5.2896  1.7433  3.5142
  964MOL0     H30109   4.670   4.240  11.560 -1.8948 -1.0009  1.4974
  964MOL0     H30110   4.457   4.128  11.490 -0.4354  0.0189  0.1040
  964MOL0     H30111   4.545   4.167  11.343 -0.6300 -2.7055  0.3468
  964MOL0     H30112   4.322   4.308  11.476  2.6772 -1.8180  2.0442
  964MOL0     H30113   4.404   4.379  11.334 -2.2587 -0.0536 -1.5657
  964MOL0     H30114   4.352   4.174  11.196 -1.3280 -0.7358 -1.4261
  964MOL0     H30115   4.213   4.272  11.238 -0.6748 -3.1801 -0.8120
  964MOL0     H30116   4.287   4.000  11.358 -1.3211 -0.5286  1.8015
  964MOL0     H30117   4.172   4.115  11.436  0.0954  5.9310 -1.7712
  964MOL0     H30118   4.162   4.007  11.153  0.0207  2.0424  0.2799
  964MOL0     H30119   4.046   4.105  11.217 -0.7006  0.1533  2.1368
  964MOL0     H30120   3.995   3.840  11.245 -0.6766 -1.7269  1.1386
  964MOL0     H30121   3.965   3.950  11.382  0.5849 -2.2989  0.7466
  964MOL0     H30122   4.695   4.221  11.772  1.4234 -1.1194 -1.9918
  964MOL0     H30123   4.778   4.011  11.863  0.4556  2.6140 -0.9528
  964MOL0     H30124   4.550   3.678  12.289  0.9825 -0.9376  1.4478
  964MOL0     H30125   4.574   3.445  12.346 -0.7601  1.2540  0.0360
  964MOL0     H30126   5.670   2.899  11.316  0.8181  2.4577 -0.5522
  964MOL0     H30127   5.612   3.099  11.227  0.4440 -0.0853 -0.3512
  964MOL0     H30128   5.810   3.515  10.964 -0.4714  0.3054 -0.3170
  964MOL0     H30129   5.759   3.691  10.810 -1.1627  1.1136  0.1320
  964MOL0     H30130   5.604   3.591  10.443 -1.6919 -0.9027 -0.2857
  964MOL0     H30131   5.463   3.696  10.464 -0.2781 -2.2174 -1.0349
  964MOL0     H30132   5.738   3.813  10.394 -0.8820  2.7324 -2.1957
  964MOL0     H30133   5.580   3.893  10.428 -1.3712 -0.3899 -1.9255
  964MOL0     H30134   5.483   3.762  10.234 -0.5051  0.1794 -0.5910
  964MOL0     H30135   5.632   3.677  10.219 -0.9483 -0.5802 -0.3999
  964MOL0     H30136   5.616   3.855  10.048 -0.4611  1.9584 -0.0497
  964MOL0     H30137   5.749   3.911  10.159  0.0114  1.7744  1.8582
  964MOL0     H30138   5.416   4.181  10.228  2.9116  1.2690  2.4497
  964MOL0     H30139   5.483   3.450  10.607 -0.2416 -0.3254  0.5046
  964MOL0     H30140   5.521   3.263  10.775  1.0466 -0.0964  0.5536
  965MOL0     O30141  10.248   9.750   9.024  0.1198  1.0807  0.1187
  965MOL0     C30142  10.292   9.852   9.073  0.1118  0.6849  0.5272
  965MOL0     O30143  10.288   9.972   9.019 -0.1113 -0.1548  0.4739
  965MOL0     C30144  10.255  10.006   8.889  0.0984  0.1028 -0.2182
  965MOL0     C30145  10.209   9.920   8.784 -0.7722  0.3524 -0.3703
  965MOL0     C30146  10.208   9.957   8.651 -0.6240  0.3224 -0.4893
  965MOL0     C30147  10.240  10.089   8.616 -0.5715  0.2987  0.3631
  965MOL0     O30148  10.260  10.129   8.482 -0.1055  0.2166 -1.0269
  965MOL0     C30149  10.295  10.032   8.379 -0.7283 -0.6707 -0.5792
  965MOL0     C30150  10.186  10.021   8.273 -0.0563 -0.2563 -1.0272
  965MOL0     C30151  10.172  10.151   8.197  0.5782 -0.6032 -0.0866
  965MOL0     C30152  10.277  10.182   8.089 -0.1281 -0.2561  0.5169
  965MOL0     C30153  10.253  10.320   8.033  0.2763  0.1234  0.1082
  965MOL0     C30154  10.139  10.335   7.929  0.0214 -0.0363 -0.0256
  965MOL0     C30155  10.015  10.389   8.000 -0.1088 -0.3046 -0.1151
  965MOL0     C30156   9.894  10.360   7.905  0.4091 -0.2668 -0.1613
  965MOL0     N30157   9.903  10.428   7.778 -0.3853 -0.2101 -0.1382
  965MOL0     C30158   9.853  10.549   7.751 -0.6722 -1.3804  0.6303
  965MOL0     C30159   9.910  10.581   7.635 -0.5518 -0.4471 -0.1235
  965MOL0     C30160   9.875  10.702   7.550  0.3661 -0.4983  0.5687
  965MOL0     C30161   9.978  10.810   7.573 -0.9783  0.3664  0.0789
  965MOL0     C30162   9.963  10.934   7.485 -0.0957  0.4998  0.3742
  965MOL0     C30163  10.069  11.048   7.523  0.8114 -0.0905  0.1886
  965MOL0     O30164  10.057  11.095   7.662  1.0275 -0.2655  0.0122
  965MOL0     C30165  10.171  11.171   7.702  1.4462 -0.4546 -0.9435
  965MOL0     C30166  10.220  11.134   7.829 -0.1366  0.3134 -0.5003
  965MOL0     C30167  10.331  11.200   7.889  0.0200  0.8259  0.2218
  965MOL0     C30168  10.379  11.155   8.019  0.2064 -0.2907 -0.1619
  965MOL0     C30169  10.387  11.311   7.823 -0.3311  0.0462 -0.3996
  965MOL0     C30170  10.495  11.397   7.881  0.3856  0.4786 -0.2846
  965MOL0     O30171  10.477  11.526   7.844  0.0174 -0.2971 -0.1725
  965MOL0     C30172  10.586  11.598   7.829  0.6812 -0.9963  0.1696
  965MOL0     C30173  10.586  11.682   7.719 -0.2023 -0.4251 -0.5655
  965MOL0     C30174  10.685  11.782   7.715  0.9707 -0.7317 -0.5979
  965MOL0     C30175  10.773  11.803   7.820  0.2206  0.2393 -0.2667
  965MOL0     O30176  10.869  11.898   7.800  0.0596  0.4170 -0.6617
  965MOL0     C30177  10.942  11.945   7.916 -0.7015 -0.0767  0.1037
  965MOL0     C30178  10.873  12.022   8.029  0.4028  0.1878  0.1219
  965MOL0     C30179  10.785  12.128   7.962 -0.9266 -0.1193 -0.5294
  965MOL0     C30180  10.670  12.170   8.052  0.6094  0.2494  0.7180
  965MOL0     C30181  10.621  12.304   7.998 -0.1399  0.2512  0.9247
  965MOL0     C30182  10.516  12.365   8.080 -0.5811  0.8280 -0.4982
  965MOL0     C30183  10.449  12.491   8.037 -0.0293  0.5653  0.3654
  965MOL0     C30184  10.309  12.498   8.100 -0.4915 -1.0059  0.3436
  965MOL0    Cl30185  10.195  12.376   8.010 -0.0377  0.4003 -0.2437
  965MOL0     C30186  10.772  11.715   7.932 -0.3154  0.3097  0.1417
  965MOL0     C30187  10.672  11.617   7.935  1.6784  0.0317  0.6975
  965MOL0     O30188  10.590  11.349   7.939  0.2096 -0.1157 -0.1217
  965MOL0     C30189  10.322  11.354   7.706  0.6157 -0.6891 -0.6739
  965MOL0     C30190  10.216  11.289   7.645 -0.2963  1.2530  0.3264
  965MOL0     N30191   9.986  10.482   7.589 -0.5557  0.2605  0.1319
  965MOL0     N30192   9.979  10.386   7.677 -0.0179  0.1955  0.1419
  965MOL0     C30193  10.282  10.176   8.720  0.1349  0.1592  0.5412
  965MOL0     C30194  10.272  10.140   8.854  0.1969  0.2674  0.4444
  965MOL0     C30195  10.354   9.837   9.203 -0.0955 -0.5295 -0.1024
  965MOL0     C30196  10.421   9.949   9.255  0.5377 -1.1556 -0.1773
  965MOL0     C30197  10.480   9.937   9.383  0.1657  0.5075 -0.0947
  965MOL0     C30198  10.466   9.820   9.470  0.2125 -0.4158 -0.7636
  965MOL0     O30199  10.514   9.824   9.605 -0.4670 -0.1237  0.4149
  965MOL0     C30200  10.625   9.906   9.638  0.0847  0.3615  0.0426
  965MOL0     C30201  10.692   9.877   9.774  0.6236 -0.2525 -1.0031
  965MOL0     C30202  10.589   9.874   9.885 -0.3026  0.8880 -0.0635
  965MOL0     C30203  10.605   9.744   9.978 -0.3147  0.1316  0.9084
  965MOL0     C30204  10.734   9.750  10.057 -0.3178 -0.2135 -0.1765
  965MOL0     C30205  10.839   9.749  10.112 -0.0915  0.8763 -0.1290
  965MOL0     C30206  10.402   9.712   9.409  0.3975 -0.3700  0.1768
  965MOL0     C30207  10.344   9.724   9.283 -0.6598  0.5162 -0.3391
  965MOL0     H30208  10.181   9.818   8.812 -2.5143  1.1898  1.1657
  965MOL0     H30209  10.179   9.882   8.579 -4.8483  0.7789  0.4748
  965MOL0     H30210  10.386  10.070   8.331 -0.8989 -1.3996 -1.4994
  965MOL0     H30211  10.331   9.938   8.422  0.8777  2.0179  4.9018
  965MOL0     H30212  10.209   9.938   8.205  1.9607 -0.5530 -0.0474
  965MOL0     H30213  10.090   9.999   8.320  0.3689  1.1812  0.6248
  965MOL0     H30214  10.070  10.144   8.158  0.3214 -0.4094  0.5316
  965MOL0     H30215  10.162  10.230   8.272  1.2280  0.6910 -1.3208
  965MOL0     H30216  10.375  10.180   8.138  1.0169  1.4178 -1.5472
  965MOL0     H30217  10.297  10.111   8.009 -0.7829 -0.9935  0.9963
  965MOL0     H30218  10.235  10.385   8.119  1.5704  0.0597  0.4522
  965MOL0     H30219  10.347  10.357   7.989  0.9803 -0.1586  1.3221
  965MOL0     H30220  10.185  10.402   7.856  2.5539 -1.2245  0.3701
  965MOL0     H30221  10.113  10.242   7.879  2.5991 -0.2947 -1.0289
  965MOL0     H30222   9.994  10.341   8.096 -1.8583  1.8942  0.7186
  965MOL0     H30223  10.028  10.496   8.021 -0.2911 -0.0701 -1.1520
  965MOL0     H30224   9.797  10.390   7.946  0.3970 -0.8011  0.2045
  965MOL0     H30225   9.882  10.255   7.880  3.5947 -0.4345 -1.4529
  965MOL0     H30226   9.777  10.594   7.814  0.9953 -0.3614  1.9974
  965MOL0     H30227   9.870  10.672   7.445  0.1384  0.9700  0.1259
  965MOL0     H30228   9.785  10.747   7.595  0.8942 -0.1448  1.2950
  965MOL0     H30229  10.080  10.772   7.557 -0.8894  0.3053  0.7729
  965MOL0     H30230   9.963  10.843   7.676 -0.6574 -1.0579  0.5972
  965MOL0     H30231   9.863  10.978   7.489  0.0678  0.7961  1.4788
  965MOL0     H30232   9.980  10.897   7.383 -2.5202 -2.3183  0.8278
  965MOL0     H30233  10.057  11.135   7.457  0.0752  0.2637  0.7715
  965MOL0     H30234  10.168  11.002   7.518  0.0226 -1.6914 -2.4470
  965MOL0     H30235  10.171  11.049   7.876  1.6025 -1.1751 -1.2487
  965MOL0     H30236  10.314  11.076   8.057  0.4833  0.5366  2.1656
  965MOL0     H30237  10.480  11.117   8.001  0.0972 -0.6839  0.0505
  965MOL0     H30238  10.378  11.226   8.102  0.7007 -4.9233  4.2501
  965MOL0     H30239  10.522  11.666   7.633  0.0356 -0.6475 -0.7047
  965MOL0     H30240  10.690  11.843   7.625  2.4277  0.5040  0.2784
  965MOL0     H30241  10.997  11.864   7.965  3.6384  2.7113  0.3789
  965MOL0     H30242  11.015  12.020   7.886 -1.2218  0.7996  0.9509
  965MOL0     H30243  10.809  11.956   8.088  0.2233  0.5420  0.3293
  965MOL0     H30244  10.939  12.067   8.104 -0.3803 -2.2409  2.4054
  965MOL0     H30245  10.757  12.099   7.860  1.4517 -1.8184 -0.7938
  965MOL0     H30246  10.852  12.215   7.966  0.3112 -0.8673  6.0605
  965MOL0     H30247  10.585  12.102   8.049 -0.2860  1.3380  0.6240
  965MOL0     H30248  10.705  12.184   8.155  1.1324  0.7759  0.4780
  965MOL0     H30249  10.571  12.292   7.901 -0.1987  3.5191  0.4433
  965MOL0     H30250  10.704  12.374   7.990  0.2027  0.0209  2.1941
  965MOL0     H30251  10.441  12.286   8.090 -2.9075  3.1169  1.3162
  965MOL0     H30252  10.556  12.389   8.179  0.1437 -1.4643 -0.1818
  965MOL0     H30253  10.447  12.493   7.927  0.3641  4.4149  0.2744
  965MOL0     H30254  10.506  12.582   8.056  2.0225  1.3813 -6.6678
  965MOL0     H30255  10.272  12.600   8.089 -0.2115 -0.7600  1.5869
  965MOL0     H30256  10.316  12.482   8.208  0.3168  1.1897  0.6642
  965MOL0     H30257  10.834  11.742   8.017  0.0879  0.8208 -0.3093
  965MOL0     H30258  10.646  11.575   8.032 -0.9081 -0.3020 -0.0483
  965MOL0     H30259  10.356  11.444   7.657 -1.5114 -0.0124 -0.9950
  965MOL0     H30260  10.166  11.327   7.556 -1.3414  1.4480  0.9721
  965MOL0     H30261  10.303  10.278   8.690 -0.9655  0.8405  1.9550
  965MOL0     H30262  10.298  10.221   8.921  1.1495  3.3415 -3.3004
  965MOL0     H30263  10.426  10.046   9.208  2.0048 -1.7901 -1.4147
  965MOL0     H30264  10.529  10.027   9.419 -1.3761  0.6234  1.9097
  965MOL0     H30265  10.707   9.901   9.566  2.2666  1.4517  2.2984
  965MOL0     H30266  10.596  10.011   9.649  1.4560  0.8839 -1.0873
  965MOL0     H30267  10.767   9.951   9.804 -1.3425  0.7986  1.6846
  965MOL0     H30268  10.748   9.784   9.767 -0.3828 -0.8596 -1.1547
  965MOL0     H30269  10.489   9.878   9.839 -1.7658 -1.2282  2.6614
  965MOL0     H30270  10.590   9.969   9.940  1.9777  2.7384 -2.9904
  965MOL0     H30271  10.602   9.657   9.913  0.5906  0.4553  0.4164
  965MOL0     H30272  10.522   9.729  10.047 -0.1145 -2.2878  0.7032
  965MOL0     H30273  10.931   9.739  10.166 -0.1374 -1.9596 -0.4484
  965MOL0     H30274  10.388   9.626   9.474 -2.2104  0.1400  0.4104
  965MOL0     H30275  10.305   9.632   9.240 -1.8472  0.3068  1.0810
  966MOL0     O30276   4.343   9.933  11.225  0.7347  0.7004  0.0598
  966MOL0     C30277   4.351  10.047  11.172 -0.0883  0.6822 -0.8251
  966MOL0     O30278   4.463  10.100  11.116  0.5673 -0.3309 -0.2110
  966MOL0     C30279   4.570  10.009  11.124 -0.3789 -0.7838 -0.2498
  966MOL0     C30280   4.637  10.007  11.247  0.8375  0.6343 -0.0506
  966MOL0     C30281   4.742   9.917  11.277  0.0917  0.2035  0.9203
  966MOL0     C30282   4.783   9.821  11.182 -0.0843 -0.5416  0.2887
  966MOL0     O30283   4.882   9.739  11.218 -0.0681 -0.0395 -1.2245
  966MOL0     C30284   5.007   9.771  11.170  0.4721  0.2102 -0.1736
  966MOL0     C30285   5.040   9.772  11.016 -0.3074  0.4168 -0.2905
  966MOL0     C30286   5.170   9.848  10.993 -0.5186 -0.8690  0.1157
  966MOL0     C30287   5.223   9.854  10.850 -0.8814 -0.0352 -0.4143
  966MOL0     C30288   5.314   9.978  10.846 -0.3408  0.0023  0.4927
  966MOL0     C30289   5.380   9.996  10.707 -0.0768  0.4878 -0.2508
  966MOL0     C30290   5.466  10.127  10.685 -0.0452  1.2300  0.3835
  966MOL0     C30291   5.547  10.129  10.560 -0.0815 -0.1427  1.0246
  966MOL0     N30292   5.608  10.262  10.565 -0.9356  0.6646  0.4894
  966MOL0     C30293   5.564  10.383  10.509 -0.0507 -0.4409  0.3048
  966MOL0     C30294   5.663  10.468  10.528  0.4560 -0.4338  0.8228
  966MOL0     C30295   5.656  10.620  10.502  0.3470 -0.1897  0.1925
  966MOL0     C30296   5.580  10.662  10.380 -0.0161 -0.2601  0.2740
  966MOL0     C30297   5.580  10.817  10.372 -0.2087  0.6531  0.3931
  966MOL0     C30298   5.515  10.866  10.241  0.3651  0.3014 -0.1608
  966MOL0     O30299   5.379  10.813  10.260 -0.9286  0.5453  0.5652
  966MOL0     C30300   5.278  10.816  10.167 -0.0042  0.4338 -1.0096
  966MOL0     C30301   5.297  10.778  10.035  0.0100 -0.8519  0.2736
  966MOL0     C30302   5.195  10.769   9.943  0.0691 -0.3119 -0.7874
  966MOL0     C30303   5.230  10.728   9.804 -0.0491  0.9381  0.7688
  966MOL0     C30304   5.060  10.812   9.978 -0.1081  0.5704  0.5817
  966MOL0     C30305   4.938  10.802   9.891 -0.8039  0.5012 -0.1407
  966MOL0     O30306   4.818  10.798   9.956 -0.1052 -0.4125  0.9790
  966MOL0     C30307   4.703  10.788   9.882  0.3211  0.7808 -0.0637
  966MOL0     C30308   4.671  10.859   9.762  0.4789  0.0199 -0.3349
  966MOL0     C30309   4.538  10.841   9.701 -0.1022  0.1795  0.7579
  966MOL0     C30310   4.447  10.752   9.769  0.2230 -0.9031  0.5259
  966MOL0     O30311   4.320  10.747   9.732  0.0390  0.0355 -0.6308
  966MOL0     C30312   4.291  10.669   9.612 -0.9631  0.3495  0.4507
  966MOL0     C30313   4.150  10.623   9.613  1.2630 -0.7820  0.2727
  966MOL0     C30314   4.126  10.567   9.475  0.4568  0.9025 -0.3633
  966MOL0     C30315   3.980  10.506   9.480 -0.0460 -0.3453  0.1004
  966MOL0     C30316   3.922  10.488   9.339  0.1906  0.4084  0.1370
  966MOL0     C30317   3.826  10.367   9.326 -0.0078 -0.3295  0.9703
  966MOL0     C30318   3.701  10.379   9.415 -0.2230  0.2240  0.1994
  966MOL0     C30319   3.623  10.256   9.404 -0.8386 -0.2557  0.1347
  966MOL0    Cl30320   3.565  10.229   9.230 -0.3005  0.1539  0.1943
  966MOL0     C30321   4.476  10.690   9.888  0.0735 -0.6301  0.1474
  966MOL0     C30322   4.604  10.699   9.941  0.4281 -1.3853  0.0307
  966MOL0     O30323   4.947  10.803   9.769 -0.3919 -0.4186 -0.1672
  966MOL0     C30324   5.041  10.842  10.117 -0.7348  0.8111  0.2236
  966MOL0     C30325   5.149  10.849  10.209 -0.0087  0.3315  0.6095
  966MOL0     N30326   5.773  10.405  10.584  0.2550  0.3914 -0.2199
  966MOL0     N30327   5.734  10.285  10.606  0.5014 -0.8391  0.9504
  966MOL0     C30328   4.705   9.817  11.069 -0.3847  0.2131 -0.2414
  966MOL0     C30329   4.610   9.909  11.035  0.0138  0.4938 -0.1014
  966MOL0     C30330   4.226  10.128  11.176  0.0288 -0.9855  0.9015
  966MOL0     C30331   4.105  10.077  11.231 -0.1044 -0.2254  0.5074
  966MOL0     C30332   4.001  10.173  11.248 -0.6141  0.0810  0.7155
  966MOL0     C30333   4.014  10.311  11.220 -0.3712 -0.1811  0.7094
  966MOL0     O30334   3.907  10.398  11.238 -0.8088  0.5714  0.2834
  966MOL0     C30335   3.782  10.365  11.305  0.1739 -0.2187  0.8969
  966MOL0     C30336   3.679  10.471  11.300  0.4514 -0.2092 -0.3551
  966MOL0     C30337   3.538  10.400  11.300  1.6327 -0.0010  0.8630
  966MOL0     C30338   3.414  10.488  11.345  0.1002  0.1479 -0.6787
  966MOL0     C30339   3.277  10.449  11.312  0.0075 -0.0082 -0.3007
  966MOL0     C30340   3.162  10.425  11.293  0.8935  0.1085  0.0925
  966MOL0     C30341   4.136  10.344  11.171  0.9413 -0.0343 -0.2207
  966MOL0     C30342   4.241  10.262  11.155  1.2145 -1.0765 -0.8223
  966MOL0     H30343   4.604  10.071  11.328 -0.7724 -1.4085  0.9867
  966MOL0     H30344   4.771   9.917  11.381 -0.3948 -1.5586  1.0833
  966MOL0     H30345   5.053   9.857  11.218  3.8207 -1.4738 -0.0294
  966MOL0     H30346   5.066   9.693  11.220 -1.2873  0.1153  1.9129
  966MOL0     H30347   5.041   9.669  10.979 -0.7168  0.1753  0.3419
  966MOL0     H30348   4.963   9.831  10.964 -0.1669  1.9040  1.1080
  966MOL0     H30349   5.141   9.947  11.028  2.0136 -0.2016  0.4802
  966MOL0     H30350   5.251   9.808  11.054 -0.0438 -1.1409 -0.6767
  966MOL0     H30351   5.275   9.760  10.832  1.0436  0.5077  1.8099
  966MOL0     H30352   5.147   9.871  10.773 -1.6244  2.8485  0.8039
  966MOL0     H30353   5.253  10.068  10.859  0.9894  1.0801 -0.4199
  966MOL0     H30354   5.384   9.969  10.929 -1.7316 -1.6066  1.5551
  966MOL0     H30355   5.446   9.910  10.688 -0.1695  0.6182 -1.2602
  966MOL0     H30356   5.298  10.007  10.635 -2.9144 -0.3789  2.6087
  966MOL0     H30357   5.405  10.217  10.701 -0.4475  0.8384  1.1001
  966MOL0     H30358   5.543  10.141  10.762  0.2315 -1.6624  0.7202
  966MOL0     H30359   5.488  10.120  10.469  2.8831 -0.8401 -0.9699
  966MOL0     H30360   5.623  10.050  10.562  0.5225  0.4305  1.5890
  966MOL0     H30361   5.467  10.407  10.465  0.1485 -0.2119 -0.0107
  966MOL0     H30362   5.604  10.670  10.583  1.1371  0.8072  0.1041
  966MOL0     H30363   5.757  10.663  10.500  1.2361 -1.9834  2.3142
  966MOL0     H30364   5.480  10.620  10.395 -1.1487  2.6488  1.7839
  966MOL0     H30365   5.613  10.619  10.285 -0.8335 -1.7919  0.6565
  966MOL0     H30366   5.684  10.849  10.368  0.3450 -1.0886  0.1720
  966MOL0     H30367   5.522  10.849  10.459 -1.7681  2.0134 -1.0561
  966MOL0     H30368   5.567  10.825  10.153 -1.3327  0.3977 -1.2575
  966MOL0     H30369   5.513  10.975  10.227  1.1055  0.4608  0.8847
  966MOL0     H30370   5.395  10.749   9.998  0.5027  0.1529  0.7447
  966MOL0     H30371   5.304  10.648   9.812 -0.8359  0.0203 -0.7443
  966MOL0     H30372   5.146  10.683   9.751 -0.2453  0.2830  1.6134
  966MOL0     H30373   5.272  10.818   9.758  2.8886  0.6813  2.6535
  966MOL0     H30374   4.746  10.929   9.727  2.6493 -1.2106  1.6109
  966MOL0     H30375   4.486  10.898   9.625  0.0665  1.7016  1.7339
  966MOL0     H30376   4.304  10.736   9.527 -1.6393 -1.3990 -1.0741
  966MOL0     H30377   4.357  10.582   9.615  1.1507  1.8747  2.0419
  966MOL0     H30378   4.133  10.547   9.690  0.2051 -1.4116 -0.5591
  966MOL0     H30379   4.079  10.706   9.616  1.1119 -0.8819 -0.4326
  966MOL0     H30380   4.207  10.496   9.453 -2.0140 -2.2185 -0.1614
  966MOL0     H30381   4.131  10.649   9.402 -0.7893  1.4893  0.1912
  966MOL0     H30382   3.997  10.413   9.536  1.1480 -2.4248 -3.4086
  966MOL0     H30383   3.914  10.569   9.541  1.3059 -0.5671  1.8908
  966MOL0     H30384   4.014  10.469   9.283  2.0930  1.9158  2.5581
  966MOL0     H30385   3.887  10.585   9.303  1.9111  2.4024  3.3620
  966MOL0     H30386   3.798  10.360   9.220 -0.3573 -1.6164  1.1239
  966MOL0     H30387   3.882  10.280   9.363  1.4099  2.3049  5.8524
  966MOL0     H30388   3.632  10.459   9.384 -2.8274 -1.5586  0.9991
  966MOL0     H30389   3.726  10.401   9.519 -2.7169  0.4454  0.8366
  966MOL0     H30390   3.552  10.258   9.487  0.2283 -2.5654  1.1855
  966MOL0     H30391   3.691  10.176   9.431  1.8778  2.1689  1.0093
  966MOL0     H30392   4.402  10.631   9.941 -1.2324  1.5722  0.8929
  966MOL0     H30393   4.637  10.646  10.030  3.8646 -0.0409 -0.3121
  966MOL0     H30394   4.938  10.863  10.144 -0.9442 -1.7692  1.7306
  966MOL0     H30395   5.117  10.884  10.306  0.3199  3.0823 -0.1895
  966MOL0     H30396   4.739   9.743  10.996 -1.0844 -2.5035  2.0043
  966MOL0     H30397   4.558   9.879  10.945 -1.2524 -2.0196  1.3397
  966MOL0     H30398   4.091   9.973  11.257 -0.1351  0.1046  1.8905
  966MOL0     H30399   3.903  10.137  11.275  0.0477 -3.6756 -1.2489
  966MOL0     H30400   3.747  10.273  11.257  0.5876  0.3844 -0.5976
  966MOL0     H30401   3.812  10.346  11.408  1.6427  0.4084  0.5979
  966MOL0     H30402   3.689  10.555  11.231  1.2251  0.8640  0.9954
  966MOL0     H30403   3.682  10.514  11.401 -0.7764 -0.2060 -0.2993
  966MOL0     H30404   3.546  10.305  11.354 -0.1234 -1.7127 -1.6727
  966MOL0     H30405   3.524  10.381  11.193 -0.0692  1.7006  0.7319
  966MOL0     H30406   3.437  10.583  11.295 -2.5233 -0.2266 -2.8150
  966MOL0     H30407   3.408  10.507  11.452 -0.3444  0.4113 -0.7486
  966MOL0     H30408   3.056  10.407  11.283  0.7123  1.8070 -1.6082
  966MOL0     H30409   4.141  10.452  11.162 -1.2862  0.3155  1.6073
  966MOL0     H30410   4.334  10.303  11.116  0.2570  2.3093  0.1519
  967MOL0     O30411   9.843   6.921   4.010 -0.7186  0.1258 -0.1078
  967MOL0     C30412   9.889   7.015   4.078  0.3199  1.6675  0.6497
  967MOL0     O30413  10.013   7.062   4.067 -1.0318 -0.0106 -0.3175
  967MOL0     C30414  10.113   6.996   3.999 -0.3928 -0.1823  0.6220
  967MOL0     C30415  10.144   6.862   4.011  0.3701 -0.5562  0.0163
  967MOL0     C30416  10.240   6.793   3.930  0.4423  0.9174  0.2108
  967MOL0     C30417  10.308   6.870   3.834 -0.0485  0.4909 -0.0872
  967MOL0     O30418  10.395   6.795   3.759 -1.1166 -0.3550 -0.3984
  967MOL0     C30419  10.507   6.867   3.696  1.2121  0.5908 -0.4990
  967MOL0     C30420  10.467   6.907   3.554  1.2195  0.3680  0.8216
  967MOL0     C30421  10.385   6.809   3.464 -0.4401  0.1499 -0.1282
  967MOL0     C30422  10.326   6.896   3.352 -0.4508 -0.1376 -0.4993
  967MOL0     C30423  10.283   6.813   3.233 -0.4904 -0.0176  0.4088
  967MOL0     C30424  10.185   6.887   3.151  0.7131  0.4222  0.9144
  967MOL0     C30425  10.129   6.817   3.019  0.0808  0.7274  0.0514
  967MOL0     C30426  10.043   6.913   2.929  0.0286 -0.1805 -0.7333
  967MOL0     N30427  10.125   6.962   2.819 -0.0492  0.8577 -0.2368
  967MOL0     C30428  10.087   6.980   2.690 -0.0663  0.5962 -0.2723
  967MOL0     C30429  10.193   7.026   2.630  0.2422 -0.6055  0.5687
  967MOL0     C30430  10.213   7.047   2.480  0.5101 -0.5579  0.5314
  967MOL0     C30431  10.360   7.039   2.434 -0.5728  0.2937 -0.2415
  967MOL0     C30432  10.419   6.902   2.442 -0.1427  0.2432 -0.3405
  967MOL0     C30433  10.345   6.803   2.348  0.0875 -0.6302  0.4363
  967MOL0     O30434  10.319   6.866   2.217 -0.1392  0.2871 -0.2261
  967MOL0     C30435  10.274   6.769   2.126 -0.3258 -0.0702 -0.5336
  967MOL0     C30436  10.145   6.744   2.101  0.7470 -0.4791  0.3221
  967MOL0     C30437  10.103   6.637   2.015 -0.7877  1.0626  0.1179
  967MOL0     C30438   9.962   6.604   1.990 -0.1784 -0.3963 -0.3313
  967MOL0     C30439  10.205   6.572   1.943 -0.3185 -0.2293 -0.2355
  967MOL0     C30440  10.175   6.471   1.844 -0.3056  0.2737  0.4682
  967MOL0     O30441  10.210   6.504   1.714  0.0594 -0.3208  0.4638
  967MOL0     C30442  10.186   6.420   1.616  0.9168 -0.8958  0.2657
  967MOL0     C30443  10.284   6.358   1.544 -0.6426 -0.5453 -0.3865
  967MOL0     C30444  10.273   6.280   1.437  0.0004 -0.1159  0.0469
  967MOL0     C30445  10.139   6.264   1.388  0.2649 -0.2598 -0.8248
  967MOL0     O30446  10.123   6.186   1.277  0.2588 -0.0236  0.4455
  967MOL0     C30447   9.993   6.131   1.229  0.3104  0.2441 -0.0592
  967MOL0     C30448   9.975   6.000   1.293 -0.2303  0.8439 -0.0120
  967MOL0     C30449  10.045   5.897   1.195 -0.3030  0.0678 -0.1272
  967MOL0     C30450   9.990   5.878   1.056  0.1867 -0.4940  0.8618
  967MOL0     C30451   9.845   5.829   1.062  0.2165  0.2974 -0.5762
  967MOL0     C30452   9.824   5.719   0.958 -0.1029 -0.6182 -0.2181
  967MOL0     C30453   9.878   5.587   1.000 -0.6584  1.0648 -0.3633
  967MOL0     C30454   9.830   5.469   0.903 -0.4491 -0.5410 -0.3576
  967MOL0    Cl30455   9.896   5.311   0.989 -0.5022 -0.7374 -0.1882
  967MOL0     C30456  10.026   6.314   1.458  0.0845  0.0113  1.0922
  967MOL0     C30457  10.053   6.402   1.566 -0.7784 -0.1610  0.0892
  967MOL0     O30458  10.116   6.373   1.879 -0.6792  0.1261  0.1565
  967MOL0     C30459  10.341   6.599   1.965 -0.2417  0.6156  0.7116
  967MOL0     C30460  10.372   6.699   2.055 -0.9369 -0.4046 -0.1260
  967MOL0     N30461  10.294   7.032   2.729 -0.1791 -0.7049  1.1359
  967MOL0     N30462  10.247   7.007   2.836 -0.4906  0.8404 -0.9815
  967MOL0     C30463  10.287   7.004   3.821 -0.2753 -0.5861 -0.4530
  967MOL0     C30464  10.185   7.064   3.900  0.4061 -1.2291  0.7309
  967MOL0     C30465   9.801   7.070   4.173  0.3104 -1.0099 -0.3642
  967MOL0     C30466   9.838   7.116   4.304  1.0859  0.1679 -0.9229
  967MOL0     C30467   9.743   7.188   4.382 -0.4597  0.1418  0.0724
  967MOL0     C30468   9.610   7.201   4.338  0.2691  0.5867 -0.3702
  967MOL0     O30469   9.515   7.266   4.413  0.3108  0.3919  0.0989
  967MOL0     C30470   9.544   7.302   4.549  0.2128  0.6154  0.9926
  967MOL0     C30471   9.569   7.456   4.561  0.0792  0.4274 -0.2147
  967MOL0     C30472   9.717   7.492   4.570 -0.1525  0.3451  0.8744
  967MOL0     C30473   9.720   7.634   4.613  0.1351  0.1220  0.3141
  967MOL0     C30474   9.711   7.658   4.759 -0.0829 -0.6603 -0.0826
  967MOL0     C30475   9.712   7.689   4.870 -0.5720 -0.2602 -1.5877
  967MOL0     C30476   9.573   7.148   4.214  0.1321 -0.4801  0.0614
  967MOL0     C30477   9.661   7.080   4.136 -0.3019  0.5161  0.6919
  967MOL0     H30478  10.088   6.815   4.091 -2.7499  1.8025 -0.5911
  967MOL0     H30479  10.267   6.689   3.936 -0.2614  0.7981  1.6528
  967MOL0     H30480  10.545   6.952   3.754  0.5799 -1.7580  3.7528
  967MOL0     H30481  10.588   6.794   3.699 -1.2540 -2.3851  2.6859
  967MOL0     H30482  10.413   7.001   3.566 -1.8519 -1.0937 -0.5067
  967MOL0     H30483  10.561   6.933   3.505  0.1145 -0.2235 -1.7713
  967MOL0     H30484  10.455   6.732   3.431  0.4246  1.2040 -0.8298
  967MOL0     H30485  10.303   6.767   3.523 -0.2819  0.4575  0.3134
  967MOL0     H30486  10.241   6.954   3.389  1.3649  1.1791  1.9181
  967MOL0     H30487  10.406   6.966   3.327  1.4551 -0.6685  3.3824
  967MOL0     H30488  10.374   6.780   3.181  0.6449  0.5446  1.9605
  967MOL0     H30489  10.234   6.722   3.269  0.7362 -0.6262  0.5931
  967MOL0     H30490  10.100   6.908   3.216 -0.3425 -0.5082 -0.1256
  967MOL0     H30491  10.225   6.983   3.119  0.6842  0.7734  1.9003
  967MOL0     H30492  10.210   6.783   2.954 -0.5543  0.5149 -0.6522
  967MOL0     H30493  10.071   6.726   3.039  0.2842 -0.0029 -2.3644
  967MOL0     H30494   9.991   6.983   2.995 -0.2888  0.2135 -1.3918
  967MOL0     H30495   9.966   6.855   2.877 -0.0117  0.9967 -2.0496
  967MOL0     H30496   9.988   6.969   2.647  0.0612  2.0717 -1.0139
  967MOL0     H30497  10.158   6.980   2.413  0.2353  1.3659 -1.2306
  967MOL0     H30498  10.163   7.137   2.445  0.3332 -1.0879 -0.6172
  967MOL0     H30499  10.422   7.104   2.496  0.6608 -0.9724 -0.1035
  967MOL0     H30500  10.350   7.082   2.334 -1.7232  1.5190  0.3646
  967MOL0     H30501  10.422   6.855   2.541 -2.6656 -3.5495 -1.8010
  967MOL0     H30502  10.525   6.895   2.418  0.6345  1.6843  2.2849
  967MOL0     H30503  10.258   6.772   2.406  0.4700 -0.8741  0.8967
  967MOL0     H30504  10.402   6.711   2.333  1.6731  0.5209 -1.1385
  967MOL0     H30505  10.062   6.807   2.131  0.7269 -0.2803 -0.1455
  967MOL0     H30506   9.945   6.657   1.896 -0.2522  0.2514  0.0407
  967MOL0     H30507   9.937   6.497   1.990  0.4564 -0.5725  1.1020
  967MOL0     H30508   9.898   6.649   2.066 -0.0497 -0.4079 -0.2155
  967MOL0     H30509  10.384   6.378   1.581 -0.2332  0.0808 -1.7789
  967MOL0     H30510  10.357   6.236   1.386  0.1754 -2.1073  1.8820
  967MOL0     H30511   9.912   6.198   1.258  0.2808  1.6270 -2.9316
  967MOL0     H30512   9.995   6.131   1.119  0.6428 -0.3614 -0.0602
  967MOL0     H30513  10.030   5.992   1.387  0.6607 -0.5667 -0.6221
  967MOL0     H30514   9.873   5.963   1.308 -1.8577  4.4489 -1.0043
  967MOL0     H30515  10.052   5.798   1.241 -1.4409 -0.1301 -0.3658
  967MOL0     H30516  10.150   5.929   1.189 -0.3775  0.5345  0.9814
  967MOL0     H30517  10.009   5.963   0.990  3.1250 -1.0957  0.8051
  967MOL0     H30518  10.054   5.798   1.018  0.2289  0.0431 -0.2264
  967MOL0     H30519   9.775   5.911   1.043 -0.9413 -0.4568  0.3415
  967MOL0     H30520   9.815   5.796   1.161 -4.1300 -1.8034 -2.3377
  967MOL0     H30521   9.716   5.703   0.947 -0.1875 -0.4983  0.4340
  967MOL0     H30522   9.868   5.749   0.862 -0.9759  2.4377  0.2214
  967MOL0     H30523   9.844   5.558   1.100 -0.0519  0.5622 -0.2927
  967MOL0     H30524   9.987   5.587   0.999 -0.6359 -0.3644 -0.8586
  967MOL0     H30525   9.888   5.476   0.810 -2.7438  0.9199 -1.7830
  967MOL0     H30526   9.728   5.456   0.867 -0.0061 -0.7579 -1.5678
  967MOL0     H30527   9.923   6.312   1.424  0.2127 -1.9315  0.7379
  967MOL0     H30528   9.969   6.450   1.616 -0.3065  2.1886 -1.2373
  967MOL0     H30529  10.418   6.542   1.914 -0.3594  0.8164  0.3116
  967MOL0     H30530  10.477   6.724   2.074 -0.8143  0.0577 -1.3417
  967MOL0     H30531  10.353   7.067   3.763  1.1490  1.7608  3.3917
  967MOL0     H30532  10.168   7.171   3.905  2.2528 -0.8816  0.2828
  967MOL0     H30533   9.938   7.105   4.344  1.1817  4.0289  0.3815
  967MOL0     H30534   9.786   7.228   4.473  2.4284 -1.1259 -0.6304
  967MOL0     H30535   9.444   7.284   4.589 -0.1007  1.2333  0.5129
  967MOL0     H30536   9.613   7.237   4.603  0.0689  0.3139  0.8123
  967MOL0     H30537   9.515   7.503   4.645 -1.9208  2.0106 -2.2603
  967MOL0     H30538   9.517   7.515   4.485 -0.6385  0.1681  0.0612
  967MOL0     H30539   9.774   7.485   4.477  1.1505 -3.7834  1.7956
  967MOL0     H30540   9.759   7.415   4.635 -2.8140 -1.3651  0.7341
  967MOL0     H30541   9.638   7.691   4.569  0.5870  1.3038  0.9740
  967MOL0     H30542   9.816   7.672   4.579  0.9292 -0.2829  1.9947
  967MOL0     H30543   9.709   7.723   4.971  1.3854 -2.0681 -0.8695
  967MOL0     H30544   9.473   7.163   4.174 -0.7751 -2.1415  1.5586
  967MOL0     H30545   9.637   7.034   4.041  0.8811 -0.6210  0.9155
  968MOL0     O30546   3.416   2.103   1.573 -0.0071  1.3011  0.2291
  968MOL0     C30547   3.488   2.196   1.542  0.3165 -0.3257  0.1239
  968MOL0     O30548   3.545   2.277   1.630  0.0436  0.0993  0.6918
  968MOL0     C30549   3.513   2.275   1.767 -0.7011  1.0793 -0.5300
  968MOL0     C30550   3.616   2.294   1.859 -0.3630  0.7315  0.5439
  968MOL0     C30551   3.588   2.317   1.994 -0.0220 -0.9047  0.2740
  968MOL0     C30552   3.457   2.303   2.045  0.0458  0.2256 -0.7121
  968MOL0     O30553   3.414   2.308   2.179  0.7638 -0.0570 -0.2980
  968MOL0     C30554   3.501   2.381   2.257  0.6512  0.0420 -0.3034
  968MOL0     C30555   3.452   2.387   2.402  0.0977 -1.6279 -0.4032
  968MOL0     C30556   3.438   2.265   2.477  0.1034 -0.2992 -0.5288
  968MOL0     C30557   3.384   2.294   2.620  1.4180 -0.6953  0.2529
  968MOL0     C30558   3.381   2.166   2.705  0.6352 -0.2547 -0.3807
  968MOL0     C30559   3.300   2.185   2.843  0.1765  0.2839  0.6470
  968MOL0     C30560   3.330   2.078   2.946 -0.4705  0.5363 -0.2341
  968MOL0     C30561   3.311   2.108   3.098  0.2435 -0.0070  0.1736
  968MOL0     N30562   3.166   2.121   3.137 -0.2073  0.6847  0.3756
  968MOL0     C30563   3.087   2.233   3.108  0.3077  1.1393 -0.2230
  968MOL0     C30564   2.964   2.178   3.093 -0.3058 -0.0826  0.4133
  968MOL0     C30565   2.847   2.261   3.038 -0.2744 -0.2398  0.5186
  968MOL0     C30566   2.753   2.303   3.146 -0.8139  0.1331  0.8199
  968MOL0     C30567   2.613   2.321   3.095 -0.4520 -0.2854 -0.1473
  968MOL0     C30568   2.605   2.450   3.018 -0.3701  0.3651 -0.0091
  968MOL0     O30569   2.469   2.465   2.979 -0.3198 -0.3529  0.7445
  968MOL0     C30570   2.411   2.375   2.892  0.0873 -0.0101  0.2893
  968MOL0     C30571   2.472   2.294   2.801 -0.6881  0.0079  0.5417
  968MOL0     C30572   2.400   2.222   2.705  0.1273  1.0430  0.8394
  968MOL0     C30573   2.473   2.133   2.611 -0.5698  0.3408  0.7761
  968MOL0     C30574   2.256   2.225   2.710  0.0176  0.3862  0.2769
  968MOL0     C30575   2.155   2.147   2.630 -0.0694  0.0960 -0.3642
  968MOL0     O30576   2.026   2.174   2.642 -1.0019 -0.5618 -0.6775
  968MOL0     C30577   1.932   2.076   2.621  0.7477 -0.2315  0.3969
  968MOL0     C30578   1.796   2.117   2.597 -0.6474  0.6632  0.1949
  968MOL0     C30579   1.695   2.031   2.576 -0.6267 -0.1747  0.0996
  968MOL0     C30580   1.708   1.897   2.602 -0.4414 -0.0806  0.0844
  968MOL0     O30581   1.596   1.820   2.567 -0.0690  0.7866 -0.0210
  968MOL0     C30582   1.601   1.679   2.603  0.7718 -0.7387  0.9102
  968MOL0     C30583   1.525   1.650   2.727  0.1447 -0.5308  0.6899
  968MOL0     C30584   1.380   1.710   2.707 -1.0672 -0.1125 -0.1154
  968MOL0     C30585   1.307   1.671   2.836 -0.8119 -0.0220  0.2130
  968MOL0     C30586   1.177   1.742   2.859 -0.0657  0.1204  0.1442
  968MOL0     C30587   1.073   1.746   2.741 -0.7711  0.4657 -0.4522
  968MOL0     C30588   1.040   1.609   2.669  0.2507 -0.1637 -0.3137
  968MOL0     C30589   0.982   1.619   2.537 -0.3607 -1.3101  0.7033
  968MOL0    Cl30590   0.822   1.709   2.522  0.0913 -0.1509  0.0047
  968MOL0     C30591   1.839   1.848   2.651  0.4562 -1.2097  0.3849
  968MOL0     C30592   1.941   1.944   2.652 -1.0835  0.4194 -0.5188
  968MOL0     O30593   2.200   2.059   2.560  0.5678 -0.0876 -0.4476
  968MOL0     C30594   2.190   2.305   2.806 -0.6516 -0.4184 -0.0099
  968MOL0     C30595   2.266   2.382   2.893 -0.2442  0.3323  0.8231
  968MOL0     N30596   2.975   2.035   3.113  0.1593 -0.6488 -0.3514
  968MOL0     N30597   3.099   2.004   3.140  0.6946 -0.2414  0.4307
  968MOL0     C30598   3.359   2.275   1.953  0.1985  0.4431  0.7035
  968MOL0     C30599   3.388   2.263   1.815  0.1901 -0.0792 -0.4629
  968MOL0     C30600   3.517   2.219   1.391 -0.3931 -0.6037 -0.2610
  968MOL0     C30601   3.603   2.327   1.345 -0.4878 -0.2309  1.1663
  968MOL0     C30602   3.620   2.336   1.213  0.3875  0.4273 -0.2674
  968MOL0     C30603   3.575   2.253   1.114 -0.5965 -0.7574 -0.0998
  968MOL0     O30604   3.611   2.289   0.988 -0.2624  0.5460  0.5542
  968MOL0     C30605   3.515   2.262   0.883 -0.7402  0.2932 -0.0063
  968MOL0     C30606   3.540   2.343   0.755 -0.5206 -0.1511 -0.9418
  968MOL0     C30607   3.671   2.297   0.681  1.0868 -0.9518 -0.0388
  968MOL0     C30608   3.800   2.348   0.751 -0.5605 -0.3651  0.2489
  968MOL0     C30609   3.913   2.300   0.664  0.3776  0.1099 -0.4660
  968MOL0     C30610   4.016   2.279   0.602  1.1781 -0.8516 -0.4828
  968MOL0     C30611   3.489   2.153   1.157 -0.0399  0.3465 -0.0042
  968MOL0     C30612   3.462   2.131   1.291 -0.2542 -0.3436  0.2719
  968MOL0     H30613   3.715   2.318   1.820 -0.1938  1.6196  1.4799
  968MOL0     H30614   3.676   2.330   2.056  0.2131 -2.1823  0.2393
  968MOL0     H30615   3.602   2.341   2.266  1.2468  1.3382 -0.9529
  968MOL0     H30616   3.509   2.480   2.211  1.7098 -1.3267 -3.3254
  968MOL0     H30617   3.528   2.457   2.439 -0.4889  0.1494 -2.3796
  968MOL0     H30618   3.361   2.447   2.411  1.7246  0.7304  2.0052
  968MOL0     H30619   3.375   2.197   2.418  0.9269  0.0359 -1.8346
  968MOL0     H30620   3.533   2.212   2.484  0.4881  0.0919 -2.3457
  968MOL0     H30621   3.451   2.368   2.664  0.8419  0.1453 -0.2606
  968MOL0     H30622   3.286   2.339   2.600  2.8213  2.6751  0.2109
  968MOL0     H30623   3.341   2.080   2.651  0.1713 -1.0836  1.2005
  968MOL0     H30624   3.487   2.141   2.718  0.3744 -1.1309  0.1051
  968MOL0     H30625   3.315   2.286   2.883  1.7467 -0.6584  2.6098
  968MOL0     H30626   3.194   2.175   2.820 -0.4361  3.6144  1.3957
  968MOL0     H30627   3.274   1.987   2.920 -2.5442  1.7698 -0.3431
  968MOL0     H30628   3.433   2.047   2.924 -0.3569 -0.9645  2.0607
  968MOL0     H30629   3.363   2.202   3.120  0.6746  0.0745 -1.1275
  968MOL0     H30630   3.359   2.033   3.161  3.0958  1.4170 -0.1371
  968MOL0     H30631   3.104   2.337   3.084 -0.1146  0.7134 -2.6833
  968MOL0     H30632   2.889   2.345   2.983 -2.1243  0.8468  0.6924
  968MOL0     H30633   2.796   2.194   2.968 -0.5267  0.7274 -0.2404
  968MOL0     H30634   2.798   2.393   3.187 -0.9483 -0.0462  1.3624
  968MOL0     H30635   2.761   2.229   3.226  1.0425  2.2252  2.6773
  968MOL0     H30636   2.555   2.337   3.186  0.3438  1.2164  0.1225
  968MOL0     H30637   2.573   2.225   3.060 -1.0178 -1.0829  2.5052
  968MOL0     H30638   2.678   2.447   2.936  2.6830  0.8043  2.4873
  968MOL0     H30639   2.644   2.531   3.081  0.5622 -0.6098  0.6979
  968MOL0     H30640   2.580   2.284   2.797 -0.5539  1.6089 -1.6360
  968MOL0     H30641   2.579   2.140   2.633  0.2510  0.0450 -2.5066
  968MOL0     H30642   2.436   2.030   2.623  0.3189 -0.4082 -2.0100
  968MOL0     H30643   2.465   2.179   2.512 -0.9883 -0.2653  0.5196
  968MOL0     H30644   1.794   2.223   2.575 -1.0467  0.2740 -1.9194
  968MOL0     H30645   1.602   2.073   2.540  0.7408  0.6544 -2.7312
  968MOL0     H30646   1.545   1.626   2.525 -2.0064 -0.9082  2.8813
  968MOL0     H30647   1.701   1.636   2.590  2.0849  2.2116  0.2653
  968MOL0     H30648   1.516   1.542   2.743  1.8292 -0.8906 -0.5184
  968MOL0     H30649   1.567   1.690   2.820 -2.3523 -0.7965  2.0136
  968MOL0     H30650   1.328   1.667   2.621 -0.1417 -0.5113 -0.4768
  968MOL0     H30651   1.373   1.819   2.706 -3.7847 -0.2221 -1.5939
  968MOL0     H30652   1.283   1.565   2.828  1.0262 -0.6320  2.0631
  968MOL0     H30653   1.380   1.678   2.917  1.7187 -2.3488 -1.6982
  968MOL0     H30654   1.206   1.846   2.873 -0.8716  0.2149  1.2238
  968MOL0     H30655   1.123   1.720   2.951 -1.6908  1.4667 -0.4262
  968MOL0     H30656   0.980   1.790   2.779 -1.5968 -2.8580  1.7988
  968MOL0     H30657   1.131   1.811   2.674 -0.1079  0.0095 -0.3210
  968MOL0     H30658   0.960   1.562   2.727  0.5028  0.2972  0.4081
  968MOL0     H30659   1.128   1.545   2.675  0.0907 -0.2583  3.0302
  968MOL0     H30660   0.976   1.514   2.505  0.2797 -2.2197  3.2854
  968MOL0     H30661   1.051   1.672   2.471 -4.0289  0.8438 -1.7400
  968MOL0     H30662   1.863   1.750   2.691 -1.3796 -2.0807 -0.5135
  968MOL0     H30663   2.035   1.897   2.680 -2.4551 -4.1132 -2.5892
  968MOL0     H30664   2.084   2.326   2.817 -0.3131  1.5322 -0.0044
  968MOL0     H30665   2.219   2.443   2.969 -2.7503 -1.8884  1.2125
  968MOL0     H30666   3.261   2.251   1.994  1.2630  0.2530  3.3524
  968MOL0     H30667   3.308   2.252   1.742 -0.5816 -0.4423  0.4058
  968MOL0     H30668   3.659   2.399   1.403  4.3071 -0.0500 -3.0095
  968MOL0     H30669   3.680   2.420   1.180 -0.8141  0.8614 -1.4524
  968MOL0     H30670   3.523   2.155   0.863  0.2604  0.7026 -2.0342
  968MOL0     H30671   3.410   2.276   0.910 -1.5282 -4.0191 -0.0032
  968MOL0     H30672   3.541   2.451   0.766 -0.0847 -0.3663  1.9749
  968MOL0     H30673   3.450   2.324   0.695  0.6619 -0.0468 -2.8283
  968MOL0     H30674   3.682   2.328   0.577 -1.2770 -1.0879 -0.4005
  968MOL0     H30675   3.681   2.188   0.676 -0.7232 -1.0905 -2.4971
  968MOL0     H30676   3.817   2.298   0.846  4.8752 -2.3189 -1.3851
  968MOL0     H30677   3.803   2.456   0.767 -0.3442 -0.8934  5.3058
  968MOL0     H30678   4.098   2.290   0.534  1.0495 -2.0892 -0.8690
  968MOL0     H30679   3.448   2.087   1.081  1.0164  2.0588 -2.1941
  968MOL0     H30680   3.393   2.050   1.314 -1.0175  0.1146 -0.3484
  969MOL0     O30681   1.889   3.814   7.793 -0.4185  0.1820  0.4103
  969MOL0     C30682   1.978   3.815   7.708  1.0367  0.5953  0.1187
  969MOL0     O30683   1.958   3.879   7.592 -0.1910 -0.6574  0.1493
  969MOL0     C30684   1.844   3.945   7.564 -0.2892 -0.9514  0.3242
  969MOL0     C30685   1.808   4.055   7.641  0.3170 -0.6764 -1.0519
  969MOL0     C30686   1.696   4.125   7.600  0.6151  0.9672  0.0174
  969MOL0     C30687   1.611   4.094   7.496 -0.6716 -0.3565  0.0276
  969MOL0     O30688   1.492   4.153   7.467  0.4917 -0.5318  0.1962
  969MOL0     C30689   1.460   4.278   7.532  0.5883  0.6842  0.2654
  969MOL0     C30690   1.332   4.339   7.480 -0.1738 -0.2152 -0.2322
  969MOL0     C30691   1.204   4.276   7.517  0.1817  0.5768  0.3657
  969MOL0     C30692   1.085   4.356   7.453 -0.3892 -1.2932  1.1252
  969MOL0     C30693   0.951   4.280   7.484 -0.9256  0.1928 -0.0946
  969MOL0     C30694   0.854   4.260   7.371  0.7195 -0.9053 -0.2414
  969MOL0     C30695   0.774   4.125   7.378  0.4072  0.1374 -0.6743
  969MOL0     C30696   0.664   4.124   7.489 -0.2151 -0.9183 -0.4554
  969MOL0     N30697   0.713   4.141   7.627  0.4672  0.2540  0.9234
  969MOL0     C30698   0.791   4.047   7.679 -0.3517 -0.9792  1.3682
  969MOL0     C30699   0.806   4.084   7.802 -1.2271 -0.0611 -0.7135
  969MOL0     C30700   0.857   4.002   7.908  0.3735 -0.3041 -0.3525
  969MOL0     C30701   1.010   3.956   7.875  0.6136  0.3334 -0.7507
  969MOL0     C30702   1.105   4.073   7.868 -1.1174 -0.0496 -0.0225
  969MOL0     C30703   1.076   4.159   7.991  0.5664 -0.6380  0.2222
  969MOL0     O30704   1.086   4.081   8.115  0.1920 -0.2294  0.6234
  969MOL0     C30705   1.203   4.057   8.185  0.1442 -0.0544  0.8303
  969MOL0     C30706   1.185   4.033   8.320  0.2200 -0.1350 -0.3228
  969MOL0     C30707   1.299   4.025   8.411 -0.3572  0.4280  0.0968
  969MOL0     C30708   1.277   4.035   8.557 -0.2057  0.1005 -0.1382
  969MOL0     C30709   1.430   4.030   8.358 -0.3196 -0.1073 -0.4565
  969MOL0     C30710   1.564   4.032   8.428 -0.3187 -0.2747 -0.4712
  969MOL0     O30711   1.676   4.022   8.354  0.0783  0.4782 -0.2529
  969MOL0     C30712   1.797   4.025   8.421 -0.3031 -0.3481 -0.4881
  969MOL0     C30713   1.891   4.108   8.353 -0.5908 -0.0007 -0.3646
  969MOL0     C30714   2.023   4.118   8.413 -0.8681  0.9895 -0.1676
  969MOL0     C30715   2.061   4.045   8.531  0.7634 -0.2398 -0.1431
  969MOL0     O30716   2.178   4.050   8.593 -0.4816 -0.0119 -0.3924
  969MOL0     C30717   2.293   4.050   8.503  0.7075 -0.8790 -0.2170
  969MOL0     C30718   2.436   4.043   8.581  0.8960 -1.1567  0.2893
  969MOL0     C30719   2.466   4.189   8.606  0.9649  1.2430  0.6542
  969MOL0     C30720   2.534   4.251   8.486 -0.6586 -0.5370  0.4019
  969MOL0     C30721   2.564   4.398   8.512  0.2140  0.8070 -0.1133
  969MOL0     C30722   2.692   4.413   8.606  0.4742  0.0177 -0.4313
  969MOL0     C30723   2.755   4.551   8.606  0.2396  0.4077  0.9143
  969MOL0     C30724   2.846   4.554   8.485  0.3168 -0.1284 -0.4873
  969MOL0    Cl30725   3.002   4.470   8.515  0.1220 -0.2990 -0.2865
  969MOL0     C30726   1.954   3.989   8.601  0.7400 -0.6054 -1.1800
  969MOL0     C30727   1.826   3.975   8.547  0.3489  0.4456  0.1329
  969MOL0     O30728   1.562   4.070   8.543  0.4075 -0.2091 -0.5661
  969MOL0     C30729   1.441   4.037   8.218  0.0441  0.4859  1.0749
  969MOL0     C30730   1.339   4.060   8.130  0.7350 -0.6974  0.1663
  969MOL0     N30731   0.756   4.210   7.810 -0.0701 -0.7680  0.1783
  969MOL0     N30732   0.695   4.244   7.699 -0.0100 -1.0780  0.4972
  969MOL0     C30733   1.654   3.979   7.419  1.1647  0.3108 -0.8260
  969MOL0     C30734   1.768   3.905   7.458  0.3491  0.2766 -0.6186
  969MOL0     C30735   2.113   3.768   7.729 -0.3789 -0.2285  0.4004
  969MOL0     C30736   2.142   3.693   7.848  0.0392 -1.0716  0.3376
  969MOL0     C30737   2.281   3.655   7.870 -0.1229 -1.1098  0.4257
  969MOL0     C30738   2.382   3.697   7.788  0.4860  1.4672  0.3431
  969MOL0     O30739   2.514   3.689   7.825  0.2140  0.3149  0.4458
  969MOL0     C30740   2.543   3.712   7.971  0.2866 -0.6549  0.6226
  969MOL0     C30741   2.694   3.712   7.980 -0.0186  0.2501  0.4180
  969MOL0     C30742   2.750   3.696   8.126  0.5641 -0.8106 -0.6051
  969MOL0     C30743   2.899   3.715   8.121  0.6498  0.1054  0.4884
  969MOL0     C30744   2.974   3.589   8.127  0.3512  0.5452 -1.0831
  969MOL0     C30745   3.043   3.488   8.131  0.2927  1.1448  0.4156
  969MOL0     C30746   2.349   3.761   7.668  0.8046 -0.0916 -0.1248
  969MOL0     C30747   2.216   3.788   7.636 -0.4283 -0.4634 -0.0060
  969MOL0     H30748   1.863   4.095   7.724 -0.5512  4.5640 -2.6547
  969MOL0     H30749   1.671   4.211   7.661 -0.2409 -0.0184  1.1381
  969MOL0     H30750   1.446   4.276   7.641  0.8319  0.4209  0.2917
  969MOL0     H30751   1.541   4.350   7.517  1.6634 -0.6091 -0.3111
  969MOL0     H30752   1.322   4.446   7.499 -1.7433 -0.2450 -0.7890
  969MOL0     H30753   1.331   4.332   7.371 -1.3624 -0.3327 -0.2216
  969MOL0     H30754   1.203   4.172   7.482  3.2160 -0.1384  2.0048
  969MOL0     H30755   1.192   4.280   7.626  0.2568  0.1640  0.3905
  969MOL0     H30756   1.073   4.456   7.495  2.1995 -0.6040  0.4155
  969MOL0     H30757   1.111   4.373   7.348  0.7724  3.6731  1.9742
  969MOL0     H30758   0.972   4.178   7.517  0.8822  0.8009  0.7244
  969MOL0     H30759   0.903   4.336   7.565 -0.1927  1.0928 -0.2699
  969MOL0     H30760   0.780   4.340   7.365  1.3650 -0.3522 -1.0442
  969MOL0     H30761   0.896   4.274   7.271 -0.9397 -0.4263 -0.9056
  969MOL0     H30762   0.732   4.108   7.279 -2.2708  4.7979 -0.6307
  969MOL0     H30763   0.835   4.037   7.403 -0.3780  0.1794  1.6706
  969MOL0     H30764   0.614   4.027   7.479  0.5416 -2.0685  4.3658
  969MOL0     H30765   0.588   4.197   7.462 -2.2836 -2.9143 -0.3123
  969MOL0     H30766   0.826   3.955   7.633 -3.4652 -1.0234 -1.2839
  969MOL0     H30767   0.835   4.045   8.006  1.3967 -2.3856  0.8547
  969MOL0     H30768   0.792   3.914   7.908  1.1878 -0.9156 -0.2932
  969MOL0     H30769   1.018   3.895   7.785  3.6401 -1.9518  0.8707
  969MOL0     H30770   1.043   3.890   7.956 -2.5796  1.0562  1.3097
  969MOL0     H30771   1.085   4.113   7.769 -2.9920 -1.7871 -0.4227
  969MOL0     H30772   1.205   4.029   7.873 -1.4393 -0.6931  2.0652
  969MOL0     H30773   0.980   4.211   7.987  0.1372 -1.4695 -2.6215
  969MOL0     H30774   1.152   4.237   7.993 -0.6362  0.5895 -0.2788
  969MOL0     H30775   1.085   4.033   8.360 -0.7451 -0.4221 -2.5932
  969MOL0     H30776   1.331   3.960   8.616 -0.0052  0.7782  0.5777
  969MOL0     H30777   1.303   4.134   8.597  1.5209  0.7340 -2.5613
  969MOL0     H30778   1.173   4.031   8.589  0.3688 -1.5590  1.7112
  969MOL0     H30779   1.874   4.171   8.266 -0.5653  0.6432  0.0928
  969MOL0     H30780   2.095   4.182   8.364 -0.6972  3.0909  2.5596
  969MOL0     H30781   2.284   3.951   8.458 -0.7019 -0.8471 -0.0613
  969MOL0     H30782   2.297   4.126   8.424  0.3073 -1.7194 -1.0587
  969MOL0     H30783   2.426   3.987   8.674 -1.3928 -0.7655  0.3331
  969MOL0     H30784   2.518   4.016   8.514 -1.9646  0.0550 -4.0831
  969MOL0     H30785   2.526   4.201   8.697 -1.1521 -0.1407  2.3165
  969MOL0     H30786   2.372   4.241   8.628  0.6929  1.1602 -0.2894
  969MOL0     H30787   2.627   4.198   8.462 -2.3398 -2.2718 -2.8884
  969MOL0     H30788   2.474   4.237   8.396 -0.8520 -4.5917  0.9905
  969MOL0     H30789   2.475   4.450   8.549 -1.1956 -0.7099 -1.2388
  969MOL0     H30790   2.578   4.448   8.416  0.0747 -1.6478 -1.5002
  969MOL0     H30791   2.652   4.405   8.708 -0.3430 -0.0901 -0.7502
  969MOL0     H30792   2.762   4.329   8.604  1.4090  0.8048 -1.1777
  969MOL0     H30793   2.820   4.556   8.694 -0.4756  1.9236  1.3877
  969MOL0     H30794   2.688   4.638   8.606  1.9223  1.8553 -2.1190
  969MOL0     H30795   2.884   4.656   8.474  2.8088 -0.9576 -0.1290
  969MOL0     H30796   2.793   4.510   8.400  3.5281 -2.3734 -1.5308
  969MOL0     H30797   1.972   3.956   8.703  0.0954 -0.8403 -1.1357
  969MOL0     H30798   1.745   3.924   8.599 -1.7197  2.2122 -1.1807
  969MOL0     H30799   1.538   4.030   8.171 -0.2511  2.1202  0.1526
  969MOL0     H30800   1.369   4.075   8.026  1.9316 -2.4296  0.2015
  969MOL0     H30801   1.587   3.940   7.343 -0.8299  1.3784  0.3165
  969MOL0     H30802   1.794   3.816   7.400 -1.5228  1.0658 -2.8135
  969MOL0     H30803   2.064   3.685   7.924  0.5620 -2.7808  0.7565
  969MOL0     H30804   2.289   3.613   7.970 -0.6197 -0.4911  0.7380
  969MOL0     H30805   2.500   3.806   8.006 -1.7516 -1.5611  0.7300
  969MOL0     H30806   2.515   3.633   8.041 -1.9093  0.7420  1.4531
  969MOL0     H30807   2.722   3.799   7.921  2.4465 -3.1544 -4.1276
  969MOL0     H30808   2.724   3.619   7.929 -0.9187 -1.2092  2.4045
  969MOL0     H30809   2.727   3.594   8.159 -0.1181  0.0931  1.9416
  969MOL0     H30810   2.712   3.768   8.199 -0.4475 -1.4811 -0.4441
  969MOL0     H30811   2.922   3.791   8.196 -0.1454  0.6113  0.2205
  969MOL0     H30812   2.936   3.751   8.024  1.2234 -0.9786  0.2790
  969MOL0     H30813   3.105   3.402   8.141 -0.2694  0.6814  0.0080
  969MOL0     H30814   2.427   3.789   7.598 -0.4460  0.8310 -1.2012
  969MOL0     H30815   2.204   3.848   7.546  1.2420 -1.2525 -0.8054
  970MOL0     O30816   1.644   7.654   5.126  0.2900 -0.3665  0.3160
  970MOL0     C30817   1.575   7.559   5.080 -0.0877  0.5937  0.3744
  970MOL0     O30818   1.625   7.450   5.014  0.0573 -0.1033  0.3796
  970MOL0     C30819   1.759   7.413   5.021 -0.5112  0.8822 -0.2066
  970MOL0     C30820   1.831   7.373   4.912 -0.4107  0.4760  0.2035
  970MOL0     C30821   1.963   7.313   4.917 -0.0604 -0.3838 -0.2532
  970MOL0     C30822   2.027   7.308   5.042 -0.6986 -0.0415  0.3534
  970MOL0     O30823   2.151   7.248   5.050 -0.4526 -0.2603 -0.1231
  970MOL0     C30824   2.252   7.321   5.130  0.0304  0.3601  0.0253
  970MOL0     C30825   2.364   7.222   5.184 -0.2022  1.4098  0.1692
  970MOL0     C30826   2.493   7.303   5.208 -0.3966 -0.6827  0.2503
  970MOL0     C30827   2.607   7.233   5.284  0.4747  0.0529  0.5496
  970MOL0     C30828   2.750   7.287   5.243  0.8232 -0.3474 -0.1841
  970MOL0     C30829   2.784   7.258   5.106  0.7833 -0.1197  0.2883
  970MOL0     C30830   2.820   7.119   5.063 -0.5489 -0.3027  0.6135
  970MOL0     C30831   2.860   7.114   4.910  0.7314  0.1014  0.6327
  970MOL0     N30832   2.732   7.108   4.827 -0.4533  0.5916 -0.3683
  970MOL0     C30833   2.650   7.209   4.784  0.5424 -0.2316  0.2975
  970MOL0     C30834   2.545   7.146   4.736 -0.2037  0.4155  0.1604
  970MOL0     C30835   2.426   7.205   4.666 -0.3329 -0.1881 -0.2652
  970MOL0     C30836   2.400   7.340   4.739 -0.5890 -0.4017 -0.0652
  970MOL0     C30837   2.284   7.415   4.671 -0.5121  0.0903 -0.0875
  970MOL0     C30838   2.226   7.545   4.736  0.3212  0.8580 -0.6343
  970MOL0     O30839   2.104   7.586   4.659 -0.5025 -0.1641  0.3106
  970MOL0     C30840   1.990   7.650   4.708 -0.1362 -0.4139 -0.7640
  970MOL0     C30841   1.876   7.662   4.634  0.1388  0.0049  0.0047
  970MOL0     C30842   1.763   7.739   4.664  0.0757  0.1979 -0.6101
  970MOL0     C30843   1.657   7.740   4.554 -0.0955 -0.3490 -0.5196
  970MOL0     C30844   1.751   7.803   4.794 -0.7151 -0.3310  1.2881
  970MOL0     C30845   1.634   7.864   4.857  0.1158 -0.1943  0.7095
  970MOL0     O30846   1.656   7.928   4.971 -0.3681  0.3139 -0.2230
  970MOL0     C30847   1.554   7.975   5.051 -0.3670  0.1327  0.2078
  970MOL0     C30848   1.577   8.102   5.109  0.3075 -1.0637  0.3473
  970MOL0     C30849   1.490   8.158   5.201 -0.2589 -0.1405  0.3799
  970MOL0     C30850   1.368   8.095   5.220  0.2737 -0.1479 -1.4327
  970MOL0     O30851   1.281   8.163   5.307 -0.1140  0.1094  0.2159
  970MOL0     C30852   1.168   8.092   5.365  1.4728 -0.2621 -0.1768
  970MOL0     C30853   1.078   8.170   5.472  0.4419  0.8409 -0.3995
  970MOL0     C30854   1.012   8.298   5.416  0.5667  1.3576  0.5418
  970MOL0     C30855   0.941   8.278   5.281 -0.0867 -0.6060 -0.6492
  970MOL0     C30856   0.846   8.395   5.261  0.5017 -0.4112 -0.9054
  970MOL0     C30857   0.777   8.381   5.126 -0.2684 -0.3671  0.7713
  970MOL0     C30858   0.641   8.301   5.135  0.8941  0.2520 -0.2809
  970MOL0     C30859   0.602   8.210   5.026  0.8513 -0.3413 -0.1674
  970MOL0    Cl30860   0.625   8.295   4.869  0.0508 -0.7039  0.0917
  970MOL0     C30861   1.333   7.971   5.169  0.1634  0.0056 -0.2853
  970MOL0     C30862   1.422   7.906   5.079  0.1497  0.2668 -0.3349
  970MOL0     O30863   1.526   7.853   4.803 -0.5080 -0.0323 -0.1791
  970MOL0     C30864   1.865   7.787   4.873 -0.7047  0.5679  0.2303
  970MOL0     C30865   1.977   7.714   4.836 -0.2278 -0.7425  0.0068
  970MOL0     N30866   2.560   7.011   4.745 -0.3927 -0.0273  0.3225
  970MOL0     N30867   2.678   6.993   4.800  0.5302  0.3514 -0.5537
  970MOL0     C30868   1.956   7.346   5.162  0.8254 -0.0715  1.2900
  970MOL0     C30869   1.820   7.394   5.149  0.5822 -0.7595 -0.0099
  970MOL0     C30870   1.431   7.558   5.090  0.9744  0.4070 -0.1400
  970MOL0     C30871   1.348   7.499   4.994 -0.7915 -0.0380 -0.2454
  970MOL0     C30872   1.212   7.515   4.999 -0.3789 -0.2878  0.0632
  970MOL0     C30873   1.151   7.578   5.117 -0.0280  0.0254  0.7570
  970MOL0     O30874   1.012   7.600   5.133  0.0200  0.0186 -0.1937
  970MOL0     C30875   0.953   7.694   5.041  0.6941 -0.5568  0.1618
  970MOL0     C30876   0.918   7.827   5.111 -0.4583 -0.7669  0.5661
  970MOL0     C30877   0.813   7.841   5.222  0.7294  0.2161  0.3362
  970MOL0     C30878   0.669   7.841   5.155 -1.0069  0.5135 -1.0997
  970MOL0     C30879   0.586   7.712   5.157 -0.5379 -1.1113 -0.8709
  970MOL0     C30880   0.527   7.603   5.152 -0.4152 -0.8977  0.3961
  970MOL0     C30881   1.236   7.627   5.220 -0.3247 -0.2943  0.5082
  970MOL0     C30882   1.378   7.619   5.209  0.0413  0.5022  0.2795
  970MOL0     H30883   1.777   7.372   4.818 -0.8095  3.6770  0.2972
  970MOL0     H30884   2.018   7.265   4.837  1.5792 -1.0756  1.2132
  970MOL0     H30885   2.299   7.393   5.062 -0.8396  0.0729 -0.8979
  970MOL0     H30886   2.221   7.363   5.226  2.7254 -3.1230  2.7220
  970MOL0     H30887   2.344   7.174   5.280  2.1004  0.0839  0.0633
  970MOL0     H30888   2.389   7.142   5.113  0.0312  0.7184  1.0068
  970MOL0     H30889   2.529   7.338   5.111  1.6656 -2.1151  0.4399
  970MOL0     H30890   2.462   7.392   5.264 -2.3071 -1.6746  0.8522
  970MOL0     H30891   2.591   7.249   5.391 -2.2399  2.5016 -0.0979
  970MOL0     H30892   2.602   7.124   5.268  2.5742  0.3234 -3.0786
  970MOL0     H30893   2.750   7.396   5.253  3.2780 -0.3888  1.3134
  970MOL0     H30894   2.824   7.242   5.311  0.0067  1.0143  1.6871
  970MOL0     H30895   2.697   7.283   5.045 -0.8040 -2.2431  1.5106
  970MOL0     H30896   2.860   7.329   5.074 -0.1941  1.0375  0.4658
  970MOL0     H30897   2.903   7.081   5.124  1.6157 -0.2597 -2.1098
  970MOL0     H30898   2.736   7.053   5.085  1.8966 -3.8335  0.1964
  970MOL0     H30899   2.910   7.020   4.886  0.4883 -0.3408  1.7923
  970MOL0     H30900   2.933   7.190   4.883  0.8008  1.1099  3.3435
  970MOL0     H30901   2.667   7.316   4.794 -0.9449  0.0709 -0.1000
  970MOL0     H30902   2.451   7.232   4.563 -1.3381  0.6362 -0.3139
  970MOL0     H30903   2.335   7.144   4.668 -0.5650  0.1537 -0.0087
  970MOL0     H30904   2.488   7.401   4.718 -1.1414 -0.1168 -1.7130
  970MOL0     H30905   2.383   7.321   4.846  1.2986  0.9015  0.4991
  970MOL0     H30906   2.207   7.338   4.678  0.9085 -1.2645  4.7198
  970MOL0     H30907   2.313   7.436   4.568  0.9492 -1.0450  0.0640
  970MOL0     H30908   2.301   7.624   4.749 -0.1530  1.3619 -0.9131
  970MOL0     H30909   2.185   7.527   4.835  2.1285  2.1470  0.4145
  970MOL0     H30910   1.880   7.618   4.535 -2.1896 -2.7090  0.9698
  970MOL0     H30911   1.587   7.823   4.569  1.9893  1.3184  0.7006
  970MOL0     H30912   1.707   7.765   4.459 -0.1400  2.3395  0.0750
  970MOL0     H30913   1.602   7.648   4.538  1.8390 -1.5157 -0.8103
  970MOL0     H30914   1.663   8.165   5.087 -0.2453 -1.0692 -2.1339
  970MOL0     H30915   1.506   8.257   5.242 -3.0008  0.2144  0.7792
  970MOL0     H30916   1.101   8.067   5.283  0.2981 -2.4597  1.3350
  970MOL0     H30917   1.205   8.004   5.418 -1.9089 -1.2030  0.8953
  970MOL0     H30918   1.010   8.097   5.518 -1.4817  2.5283 -0.4107
  970MOL0     H30919   1.136   8.202   5.558  1.1804 -2.2989  0.3879
  970MOL0     H30920   1.076   8.385   5.398  1.2399  1.4016  2.8215
  970MOL0     H30921   0.941   8.330   5.492 -0.9005 -1.8201  0.6486
  970MOL0     H30922   1.014   8.293   5.201  2.2259  2.0029  1.7167
  970MOL0     H30923   0.895   8.180   5.268 -3.9567  0.8898  0.3622
  970MOL0     H30924   0.899   8.491   5.268 -0.8798  0.4438 -1.7230
  970MOL0     H30925   0.772   8.386   5.341 -0.5159  0.0869 -1.7791
  970MOL0     H30926   0.746   8.480   5.091 -2.9757 -0.9267  1.3546
  970MOL0     H30927   0.849   8.341   5.054 -0.2898 -0.7606  0.9614
  970MOL0     H30928   0.565   8.379   5.141  1.9594  1.6283 -2.8957
  970MOL0     H30929   0.640   8.243   5.227  0.0190 -3.8968 -2.6520
  970MOL0     H30930   0.496   8.185   5.037  0.9621 -0.0779  1.7635
  970MOL0     H30931   0.657   8.116   5.034  0.4831 -0.5950 -0.5543
  970MOL0     H30932   1.236   7.928   5.190 -0.2582  2.0115  2.5078
  970MOL0     H30933   1.400   7.808   5.038  0.0282  0.4029 -0.5936
  970MOL0     H30934   1.861   7.809   4.980  0.8146  0.6179  0.2975
  970MOL0     H30935   2.066   7.708   4.898  0.3493  1.8017 -0.4589
  970MOL0     H30936   1.994   7.330   5.262  1.0239  1.9073  1.5556
  970MOL0     H30937   1.755   7.436   5.225 -0.6433  1.3177 -2.0660
  970MOL0     H30938   1.382   7.435   4.912 -0.1844  0.4259 -0.3548
  970MOL0     H30939   1.155   7.474   4.917 -0.1346  0.6898 -0.6225
  970MOL0     H30940   1.024   7.707   4.959  1.1345 -3.7908 -0.1218
  970MOL0     H30941   0.867   7.652   4.987 -0.2259  0.4248  0.8363
  970MOL0     H30942   0.889   7.900   5.035 -3.1735 -1.0228  1.2748
  970MOL0     H30943   1.004   7.877   5.157  1.4818  0.1375 -3.5562
  970MOL0     H30944   0.823   7.939   5.269 -5.3623  2.4025 -1.9801
  970MOL0     H30945   0.805   7.767   5.303  0.0665  0.4322  0.4778
  970MOL0     H30946   0.672   7.879   5.053 -1.4924  1.6255 -0.7188
  970MOL0     H30947   0.617   7.925   5.202  0.6411  1.0720 -0.1837
  970MOL0     H30948   0.469   7.513   5.146 -3.1341  0.6320  1.6633
  970MOL0     H30949   1.175   7.682   5.292 -0.4736 -0.0877  0.2294
  970MOL0     H30950   1.433   7.674   5.284 -0.9549 -1.2932  2.4570
  971MOL0     O30951   9.221   2.699   0.685  0.1992  0.4051  0.5663
  971MOL0     C30952   9.247   2.574   0.657 -0.2658 -0.8065 -0.1794
  971MOL0     O30953   9.334   2.535   0.573 -0.0491  0.0644  0.1675
  971MOL0     C30954   9.432   2.624   0.532 -0.3626 -0.4811  0.6345
  971MOL0     C30955   9.468   2.645   0.396  0.2132  0.2534 -0.2018
  971MOL0     C30956   9.578   2.714   0.354 -0.1882 -0.3893 -1.4110
  971MOL0     C30957   9.660   2.785   0.449  0.3077  0.1314 -0.6841
  971MOL0     O30958   9.773   2.861   0.413  0.5517  0.5881  0.5691
  971MOL0     C30959   9.800   2.871   0.270  0.2583 -0.0265 -0.2285
  971MOL0     C30960   9.940   2.932   0.248 -0.5154  0.5174 -0.0666
  971MOL0     C30961   9.973   2.953   0.107 -0.2346 -0.4105 -0.2064
  971MOL0     C30962  10.113   2.992   0.088  0.4444  1.0527  0.4431
  971MOL0     C30963  10.144   3.028  -0.053  0.1017 -0.5890  0.5196
  971MOL0     C30964  10.295   3.069  -0.065  1.5319  0.6168 -1.0806
  971MOL0     C30965  10.321   3.098  -0.219  0.7342  0.7607 -0.5232
  971MOL0     C30966  10.463   3.128  -0.241  0.6345 -0.4096 -0.1144
  971MOL0     N30967  10.500   3.090  -0.377 -1.0591  0.3529 -0.1292
  971MOL0     C30968  10.535   2.966  -0.415  0.3357  1.1916  0.4487
  971MOL0     C30969  10.579   2.986  -0.539  0.7682  0.6229  0.6975
  971MOL0     C30970  10.634   2.879  -0.627  0.1142 -0.0445  0.2992
  971MOL0     C30971  10.789   2.872  -0.602  0.1409 -0.6313  0.5707
  971MOL0     C30972  10.873   2.822  -0.719  1.4311  0.7416  0.1575
  971MOL0     C30973  10.815   2.700  -0.792  0.0119  0.4037 -0.4883
  971MOL0     O30974  10.909   2.642  -0.876 -0.8049  0.4923  0.0622
  971MOL0     C30975  11.011   2.565  -0.826  0.8401  0.2250 -0.2569
  971MOL0     C30976  11.013   2.515  -0.694 -0.4682 -0.2132  0.2641
  971MOL0     C30977  11.114   2.438  -0.644  0.8044 -0.6448 -0.0588
  971MOL0     C30978  11.109   2.403  -0.502  0.3135 -0.0442 -0.2938
  971MOL0     C30979  11.221   2.404  -0.733  0.2377  0.5130  0.4119
  971MOL0     C30980  11.341   2.325  -0.700 -0.7531 -0.6550 -0.0178
  971MOL0     O30981  11.439   2.340  -0.784 -0.4457  0.1922  0.3587
  971MOL0     C30982  11.538   2.238  -0.780  0.1878 -0.2677  0.7354
  971MOL0     C30983  11.671   2.270  -0.745 -0.3039  0.3098 -0.4992
  971MOL0     C30984  11.770   2.180  -0.729  0.1090  0.0979  1.3579
  971MOL0     C30985  11.750   2.052  -0.768 -0.7528  0.6312  0.1236
  971MOL0     O30986  11.858   1.964  -0.745  0.1663  0.5189 -0.1022
  971MOL0     C30987  11.940   1.927  -0.861 -0.1801  0.5447  0.4410
  971MOL0     C30988  12.066   2.010  -0.884 -0.5845 -0.7167 -0.0757
  971MOL0     C30989  12.139   2.036  -0.750 -0.5698  0.7396 -0.3422
  971MOL0     C30990  12.263   2.113  -0.787 -0.6571  0.0876  0.3303
  971MOL0     C30991  12.385   2.027  -0.843  0.2448  0.5283 -0.3973
  971MOL0     C30992  12.428   1.908  -0.750  0.1332 -0.1186  0.0544
  971MOL0     C30993  12.444   1.949  -0.597 -0.4814  0.1972 -0.0202
  971MOL0     C30994  12.494   1.825  -0.504  0.8369  0.2505 -0.3405
  971MOL0    Cl30995  12.380   1.690  -0.510  0.2975  0.0188 -0.4232
  971MOL0     C30996  11.625   2.017  -0.828  0.3664  0.3906  0.3656
  971MOL0     C30997  11.520   2.113  -0.833  0.4021 -0.4783 -0.5317
  971MOL0     O30998  11.341   2.247  -0.610  0.4394 -0.8059  1.0126
  971MOL0     C30999  11.211   2.446  -0.868  1.4153  0.4163 -0.2895
  971MOL0     C31000  11.109   2.529  -0.909 -0.7765  0.6683  0.6008
  971MOL0     N31001  10.561   3.123  -0.580 -0.5733  1.0203 -0.2822
  971MOL0     N31002  10.518   3.178  -0.476 -0.8668 -0.6593 -0.5081
  971MOL0     C31003   9.617   2.771   0.586  0.5654 -0.8383  0.7169
  971MOL0     C31004   9.512   2.691   0.629 -0.3905  0.4820  0.8160
  971MOL0     C31005   9.158   2.466   0.720  0.1472 -0.8216  0.0948
  971MOL0     C31006   9.173   2.330   0.694  0.2165 -0.3380  0.8017
  971MOL0     C31007   9.085   2.239   0.763  0.7397 -0.1443  0.3905
  971MOL0     C31008   8.996   2.284   0.863  0.3700 -0.0712  0.0253
  971MOL0     O31009   8.903   2.206   0.920  0.1725  0.4548  0.1065
  971MOL0     C31010   8.820   2.119   0.838 -0.2464 -0.5843 -0.4493
  971MOL0     C31011   8.769   1.984   0.895  0.1782  0.0873  0.0099
  971MOL0     C31012   8.890   1.890   0.939  0.0607 -0.3421  0.0737
  971MOL0     C31013   8.829   1.749   0.975  0.7340 -0.3665  0.1909
  971MOL0     C31014   8.848   1.649   0.873  0.2254 -1.0454 -0.1098
  971MOL0     C31015   8.853   1.557   0.792  0.0013 -0.5152 -0.1427
  971MOL0     C31016   8.995   2.417   0.893  0.6402  0.1666  0.0864
  971MOL0     C31017   9.074   2.504   0.823  0.4064 -0.7596 -0.3829
  971MOL0     H31018   9.420   2.574   0.329 -0.5433  1.4207 -0.9543
  971MOL0     H31019   9.619   2.717   0.254  4.4592  0.6388  0.2529
  971MOL0     H31020   9.810   2.767   0.237  2.8202 -0.8539  2.6846
  971MOL0     H31021   9.729   2.923   0.205  0.5038 -0.6470 -1.0126
  971MOL0     H31022   9.948   3.035   0.285  1.1658  1.2857 -2.3681
  971MOL0     H31023  10.016   2.865   0.288  0.2957  0.5389 -1.5163
  971MOL0     H31024   9.941   2.866   0.049 -0.2003  0.3667 -1.4270
  971MOL0     H31025   9.911   3.041   0.086 -2.0438 -1.6897 -0.5039
  971MOL0     H31026  10.134   3.072   0.159  0.2964 -1.7430  3.9031
  971MOL0     H31027  10.176   2.904   0.099 -1.4592 -0.4914 -0.3743
  971MOL0     H31028  10.108   2.948  -0.118 -3.8176 -0.0797  1.8081
  971MOL0     H31029  10.078   3.114  -0.071 -1.4562 -2.2899 -2.9547
  971MOL0     H31030  10.306   3.162  -0.009  0.2147 -0.2631  0.7102
  971MOL0     H31031  10.353   2.981  -0.036 -0.7662 -1.2122 -1.6528
  971MOL0     H31032  10.277   3.021  -0.283  0.8935  0.4624 -0.2801
  971MOL0     H31033  10.268   3.192  -0.240  1.9446  1.2317 -1.5815
  971MOL0     H31034  10.527   3.081  -0.165  2.5097  3.7918  1.2233
  971MOL0     H31035  10.474   3.235  -0.221 -1.0010  0.4971 -3.4983
  971MOL0     H31036  10.531   2.867  -0.371  2.0939 -1.0178 -3.6887
  971MOL0     H31037  10.586   2.785  -0.599  0.8950 -0.0465  1.7633
  971MOL0     H31038  10.602   2.905  -0.728 -0.8949 -1.7200  0.1506
  971MOL0     H31039  10.805   2.806  -0.516 -1.3702 -1.0009  0.5969
  971MOL0     H31040  10.834   2.968  -0.574  1.2660 -0.8777 -0.2967
  971MOL0     H31041  10.969   2.783  -0.685 -0.4311 -2.1014  2.6953
  971MOL0     H31042  10.894   2.910  -0.781  1.5255  2.3572  2.3752
  971MOL0     H31043  10.731   2.726  -0.858 -2.2280 -2.0950  1.1468
  971MOL0     H31044  10.775   2.631  -0.717  0.8769 -1.7811 -1.9549
  971MOL0     H31045  10.936   2.527  -0.618  0.7374 -0.7560  1.6178
  971MOL0     H31046  11.073   2.482  -0.435 -1.8095 -2.0489  1.0847
  971MOL0     H31047  11.049   2.315  -0.477 -0.3802  0.7979  1.0963
  971MOL0     H31048  11.210   2.395  -0.462  0.7180  2.4037 -0.6544
  971MOL0     H31049  11.710   2.365  -0.708  0.9583 -0.7268  0.9715
  971MOL0     H31050  11.865   2.215  -0.691  1.8781 -2.7570 -0.1055
  971MOL0     H31051  11.978   1.825  -0.847  2.5958  1.6026  1.2758
  971MOL0     H31052  11.868   1.925  -0.944  1.1203 -0.6923 -0.7173
  971MOL0     H31053  12.135   1.966  -0.957  0.0994 -1.7489  1.1371
  971MOL0     H31054  12.022   2.104  -0.918  1.6370  1.6765  3.0476
  971MOL0     H31055  12.166   1.943  -0.699  3.3400  2.6192  1.4858
  971MOL0     H31056  12.077   2.105  -0.693  2.4570  4.4640 -1.1164
  971MOL0     H31057  12.243   2.194  -0.858  1.9675 -1.2216 -2.1070
  971MOL0     H31058  12.283   2.173  -0.698  0.3909  3.8575 -2.1911
  971MOL0     H31059  12.477   2.085  -0.848  0.6649  0.1037  1.6443
  971MOL0     H31060  12.361   1.990  -0.943  0.1483 -5.5050  1.4658
  971MOL0     H31061  12.352   1.830  -0.753 -1.1605  1.0882  0.0991
  971MOL0     H31062  12.522   1.859  -0.774  0.3273  0.4759 -0.4129
  971MOL0     H31063  12.348   1.983  -0.557 -1.0000  0.6353 -1.5684
  971MOL0     H31064  12.510   2.034  -0.585 -3.3707  2.6608 -0.3626
  971MOL0     H31065  12.491   1.869  -0.404 -1.3280 -1.9013  0.6554
  971MOL0     H31066  12.601   1.809  -0.520  0.8852  0.1284  0.1058
  971MOL0     H31067  11.632   1.913  -0.857  1.4872  0.6231 -0.2662
  971MOL0     H31068  11.429   2.083  -0.883 -0.3939  0.1507  0.4975
  971MOL0     H31069  11.293   2.417  -0.933  0.0209 -0.0872 -1.8900
  971MOL0     H31070  11.103   2.560  -1.013  0.3670  4.1300  1.4418
  971MOL0     H31071   9.664   2.825   0.668  0.1414  0.4143  0.1607
  971MOL0     H31072   9.496   2.695   0.736 -1.9703  3.4131  0.5802
  971MOL0     H31073   9.250   2.300   0.623  0.5107  4.2951 -1.1785
  971MOL0     H31074   9.086   2.134   0.736  2.0768  0.0817 -0.5782
  971MOL0     H31075   8.734   2.174   0.797 -0.6923 -1.3310 -0.5397
  971MOL0     H31076   8.873   2.098   0.745 -3.9700 -0.3125 -2.8471
  971MOL0     H31077   8.715   1.934   0.814  2.3851  0.7642 -2.0116
  971MOL0     H31078   8.707   2.010   0.981 -1.8335  0.1036 -1.3758
  971MOL0     H31079   8.936   1.942   1.023 -1.2824  0.5350  0.2916
  971MOL0     H31080   8.959   1.878   0.856 -0.3921  1.7605 -0.6562
  971MOL0     H31081   8.721   1.757   0.990  0.7461  2.9010 -0.6629
  971MOL0     H31082   8.873   1.712   1.068  1.6213  1.2952  0.4836
  971MOL0     H31083   8.869   1.476   0.724 -2.2462  0.6091 -2.1676
  971MOL0     H31084   8.934   2.450   0.976 -0.3579  0.0140 -0.5540
  971MOL0     H31085   9.055   2.608   0.846 -0.2183 -1.3965  2.3411
  972MOL0     O31086   3.615   1.334   7.745  0.2497 -1.0099 -0.5169
  972MOL0     C31087   3.498   1.379   7.751  0.2579 -0.0632  0.6012
  972MOL0     O31088   3.409   1.356   7.847 -0.3345  0.3143  1.1312
  972MOL0     C31089   3.435   1.256   7.936  0.7283  0.2784  0.9542
  972MOL0     C31090   3.494   1.133   7.902 -0.5841 -0.2348  0.1920
  972MOL0     C31091   3.529   1.042   8.001  0.3794  1.0792  0.4072
  972MOL0     C31092   3.494   1.060   8.134  0.2037  0.5700  0.6654
  972MOL0     O31093   3.520   0.971   8.238 -0.6401 -0.2352  0.3274
  972MOL0     C31094   3.614   0.862   8.225  0.0897 -0.0089 -0.7700
  972MOL0     C31095   3.702   0.840   8.352  0.4641  0.0288 -0.1936
  972MOL0     C31096   3.619   0.763   8.461 -0.6710  0.5689  0.4244
  972MOL0     C31097   3.713   0.719   8.581 -0.0546  0.3597  0.4786
  972MOL0     C31098   3.624   0.687   8.703 -0.4007 -0.7062 -1.7581
  972MOL0     C31099   3.525   0.575   8.679  0.9454  0.3630 -0.6728
  972MOL0     C31100   3.436   0.534   8.804  0.0412 -0.0159  0.2860
  972MOL0     C31101   3.340   0.420   8.782  0.8049  0.7098  0.3932
  972MOL0     N31102   3.221   0.466   8.712 -0.2464  0.0113 -0.0785
  972MOL0     C31103   3.185   0.451   8.585 -0.3537  1.2238 -0.7346
  972MOL0     C31104   3.055   0.471   8.580  0.2754 -0.3320  0.4676
  972MOL0     C31105   2.949   0.438   8.467  0.3634  0.2480 -0.4293
  972MOL0     C31106   2.951   0.300   8.405  0.3214 -0.0611 -1.2443
  972MOL0     C31107   2.951   0.192   8.506  0.2901  0.6118  0.0333
  972MOL0     C31108   3.000   0.067   8.438  0.3724 -0.5759  0.4622
  972MOL0     O31109   3.005  -0.037   8.536  0.0990  0.0748  0.1212
  972MOL0     C31110   2.889  -0.110   8.554 -0.3247 -0.1429  0.4057
  972MOL0     C31111   2.898  -0.225   8.632 -0.1852 -0.5826  0.5515
  972MOL0     C31112   2.808  -0.321   8.641  0.1273 -0.1758 -0.8785
  972MOL0     C31113   2.838  -0.435   8.735  0.0092  0.0081  0.3679
  972MOL0     C31114   2.698  -0.312   8.562 -1.4427 -0.0482 -0.0879
  972MOL0     C31115   2.597  -0.416   8.546  0.4499 -0.2775  0.0405
  972MOL0     O31116   2.646  -0.545   8.564 -0.5061 -0.7799 -0.1801
  972MOL0     C31117   2.562  -0.638   8.596  0.1696  0.0548 -0.0134
  972MOL0     C31118   2.488  -0.633   8.718  0.0941 -0.1227  0.4726
  972MOL0     C31119   2.396  -0.736   8.747  0.1102 -0.5925  0.0999
  972MOL0     C31120   2.380  -0.846   8.657 -0.1453  0.1349  0.7193
  972MOL0     O31121   2.304  -0.954   8.702  0.2871  0.1148 -0.2966
  972MOL0     C31122   2.307  -1.076   8.627 -0.8029  0.4671 -0.5310
  972MOL0     C31123   2.229  -1.194   8.691  0.5929  0.5577 -0.4403
  972MOL0     C31124   2.237  -1.192   8.845  0.1732  0.0524 -0.1268
  972MOL0     C31125   2.383  -1.224   8.895  0.5427 -0.4232  0.9375
  972MOL0     C31126   2.410  -1.241   9.040 -0.2116 -0.2182 -0.5019
  972MOL0     C31127   2.351  -1.372   9.112 -0.2115 -0.4525 -0.4132
  972MOL0     C31128   2.352  -1.342   9.267  0.3462  0.0189  0.6632
  972MOL0     C31129   2.368  -1.464   9.366 -0.5641 -0.1819 -1.0105
  972MOL0    Cl31130   2.357  -1.394   9.533 -0.1850 -0.2671 -0.3400
  972MOL0     C31131   2.463  -0.845   8.538 -0.2561  0.1926  0.9779
  972MOL0     C31132   2.545  -0.739   8.506 -0.4784  0.0479 -0.2838
  972MOL0     O31133   2.474  -0.387   8.530 -0.4269  0.8012  0.4978
  972MOL0     C31134   2.670  -0.185   8.501 -0.6814  0.2728 -0.0489
  972MOL0     C31135   2.767  -0.094   8.494 -1.1983 -0.0043 -0.6565
  972MOL0     N31136   3.017   0.531   8.702 -0.6863  0.3852  0.4492
  972MOL0     N31137   3.116   0.517   8.777 -0.2597  0.6492 -0.6218
  972MOL0     C31138   3.423   1.180   8.160  0.0466 -0.5840 -0.4881
  972MOL0     C31139   3.397   1.274   8.059  0.6502 -0.1069 -0.4201
  972MOL0     C31140   3.450   1.453   7.628 -0.1428  1.0071 -0.4662
  972MOL0     C31141   3.313   1.466   7.593 -0.7830 -0.2116 -0.1694
  972MOL0     C31142   3.275   1.524   7.471  0.6264 -0.8479  0.2421
  972MOL0     C31143   3.372   1.581   7.386  0.2757  1.2196 -0.1956
  972MOL0     O31144   3.340   1.649   7.276 -0.0055 -0.8014  0.4463
  972MOL0     C31145   3.272   1.572   7.172  0.7006  0.3453  0.4641
  972MOL0     C31146   3.296   1.642   7.035 -0.0406  0.0605  0.2098
  972MOL0     C31147   3.228   1.556   6.928  0.2324  1.0715 -0.0297
  972MOL0     C31148   3.198   1.629   6.784  0.0522  0.4498 -0.4770
  972MOL0     C31149   3.325   1.669   6.739  0.1554  0.6723  0.1505
  972MOL0     C31150   3.444   1.698   6.726 -0.3982  0.8101 -0.2273
  972MOL0     C31151   3.505   1.575   7.425 -0.9388  0.3462  0.3531
  972MOL0     C31152   3.542   1.518   7.546 -0.2342 -0.5403  0.3591
  972MOL0     H31153   3.496   1.113   7.795  4.8348  1.1943 -0.2750
  972MOL0     H31154   3.572   0.947   7.972  0.1835  0.0499  3.2192
  972MOL0     H31155   3.554   0.774   8.199 -1.0652  0.4782  0.1376
  972MOL0     H31156   3.690   0.885   8.149  2.0498 -2.1537  0.4205
  972MOL0     H31157   3.789   0.779   8.326 -0.0814 -0.6979 -0.3363
  972MOL0     H31158   3.730   0.937   8.393  0.5271  1.5213 -3.4534
  972MOL0     H31159   3.544   0.830   8.505 -1.2441  1.3086 -1.5459
  972MOL0     H31160   3.564   0.678   8.418  0.2138  0.3247 -0.2419
  972MOL0     H31161   3.769   0.630   8.550 -0.3330  0.7505 -1.2295
  972MOL0     H31162   3.773   0.805   8.612 -0.2553  1.6042 -2.3588
  972MOL0     H31163   3.688   0.677   8.791 -1.4010  2.8745 -0.4215
  972MOL0     H31164   3.566   0.775   8.731  1.9806  0.9790 -1.7673
  972MOL0     H31165   3.449   0.609   8.610 -0.8477 -1.1272  0.4625
  972MOL0     H31166   3.568   0.483   8.637  0.6105 -0.0741 -0.0715
  972MOL0     H31167   3.502   0.508   8.887 -0.5741 -2.3768  0.1169
  972MOL0     H31168   3.379   0.615   8.848 -1.6600 -1.0057 -0.0098
  972MOL0     H31169   3.300   0.380   8.875 -0.1959  2.8180  0.9070
  972MOL0     H31170   3.400   0.361   8.711 -0.3869  2.7043 -2.4469
  972MOL0     H31171   3.247   0.400   8.511  2.0537 -0.2529  2.1037
  972MOL0     H31172   2.847   0.462   8.499 -1.0188 -2.3692 -2.5512
  972MOL0     H31173   2.967   0.513   8.390 -1.8323  1.9191  0.5554
  972MOL0     H31174   3.029   0.294   8.328  0.2195 -0.5030 -1.3141
  972MOL0     H31175   2.860   0.293   8.345  0.9821 -0.7785 -2.1920
  972MOL0     H31176   2.847   0.176   8.537  0.4742  0.5234  0.6198
  972MOL0     H31177   3.018   0.223   8.586 -0.3508  1.7793  0.1518
  972MOL0     H31178   3.098   0.087   8.394 -0.4244 -1.5411 -1.9440
  972MOL0     H31179   2.939   0.038   8.351 -0.4408  0.0912  0.7863
  972MOL0     H31180   2.989  -0.239   8.690 -0.9351 -1.6738  1.5033
  972MOL0     H31181   2.893  -0.399   8.823  3.4163 -5.1471  0.7580
  972MOL0     H31182   2.744  -0.476   8.771 -1.6579  1.9432 -1.4792
  972MOL0     H31183   2.899  -0.514   8.690 -0.9668 -1.0053  0.7984
  972MOL0     H31184   2.496  -0.539   8.772 -0.6948  1.3397 -1.7779
  972MOL0     H31185   2.343  -0.738   8.841  0.7781  0.2063  0.5057
  972MOL0     H31186   2.263  -1.055   8.529 -3.7103  1.3859  0.8628
  972MOL0     H31187   2.410  -1.109   8.613 -1.4993 -1.9269 -0.5387
  972MOL0     H31188   2.125  -1.188   8.659  0.2882 -1.2326  0.1476
  972MOL0     H31189   2.263  -1.289   8.649 -1.9582 -0.3917 -0.5197
  972MOL0     H31190   2.163  -1.263   8.884  1.1967 -0.6708  0.5483
  972MOL0     H31191   2.198  -1.101   8.891 -3.4520 -1.2683 -0.2667
  972MOL0     H31192   2.414  -1.318   8.848  1.3327 -0.6200  1.8298
  972MOL0     H31193   2.455  -1.148   8.864 -2.8719  1.8212 -2.4360
  972MOL0     H31194   2.365  -1.149   9.079  0.4735 -0.1572  0.1717
  972MOL0     H31195   2.515  -1.237   9.070 -0.8866 -1.3997  2.3875
  972MOL0     H31196   2.248  -1.382   9.077 -0.7167  2.4676 -0.0230
  972MOL0     H31197   2.413  -1.460   9.090 -0.5464 -1.4313  2.2285
  972MOL0     H31198   2.255  -1.292   9.278 -1.0547 -1.6069 -2.7103
  972MOL0     H31199   2.421  -1.262   9.294  0.9421 -0.7044  1.3168
  972MOL0     H31200   2.472  -1.497   9.358  0.4797  1.9361  2.0683
  972MOL0     H31201   2.296  -1.545   9.351 -1.3906  0.2557  0.3480
  972MOL0     H31202   2.454  -0.928   8.468  1.0011  2.0337 -1.5072
  972MOL0     H31203   2.602  -0.749   8.415  2.4816 -1.3217  1.5640
  972MOL0     H31204   2.574  -0.166   8.455 -2.8301 -3.3998  2.4648
  972MOL0     H31205   2.748  -0.005   8.435 -1.4525  0.9768  0.8617
  972MOL0     H31206   3.397   1.205   8.262  2.1444  0.9112 -0.2640
  972MOL0     H31207   3.338   1.360   8.089 -0.9369 -0.7803 -1.4523
  972MOL0     H31208   3.250   1.438   7.677 -2.5277  2.1046 -0.5783
  972MOL0     H31209   3.170   1.520   7.444  0.7154  1.9795 -0.8949
  972MOL0     H31210   3.308   1.469   7.174  0.7383  0.3298 -0.4673
  972MOL0     H31211   3.165   1.580   7.191  0.4838  1.8412 -1.0947
  972MOL0     H31212   3.403   1.656   7.017 -0.2030  2.7521  0.9823
  972MOL0     H31213   3.258   1.744   7.027  1.2709  0.8625  2.9362
  972MOL0     H31214   3.133   1.517   6.967  0.9442 -1.1115 -0.3711
  972MOL0     H31215   3.287   1.467   6.908 -2.2337 -1.1965  1.9961
  972MOL0     H31216   3.128   1.714   6.788 -1.3027 -0.6555  0.2269
  972MOL0     H31217   3.158   1.565   6.704  0.1474  0.3130 -0.4145
  972MOL0     H31218   3.550   1.699   6.709 -0.7816 -0.5833 -3.5641
  972MOL0     H31219   3.580   1.619   7.361  3.2131 -2.3523  2.9170
  972MOL0     H31220   3.649   1.522   7.562 -0.2076 -1.6714  0.5628
  973MOL0     O31221   3.656   2.368   4.765 -0.5087  0.5973 -0.5255
  973MOL0     C31222   3.776   2.360   4.755 -1.0264 -0.6336  0.4696
  973MOL0     O31223   3.859   2.448   4.682  0.3538 -0.2786 -0.1283
  973MOL0     C31224   3.801   2.568   4.629 -1.1006  0.0849 -0.4912
  973MOL0     C31225   3.707   2.571   4.518 -0.5073  0.7878 -0.0822
  973MOL0     C31226   3.654   2.687   4.461 -0.8108 -0.1705 -0.3466
  973MOL0     C31227   3.691   2.808   4.520  1.1765  0.5524 -0.5342
  973MOL0     O31228   3.653   2.929   4.463  0.3848  0.3436  0.5419
  973MOL0     C31229   3.640   2.933   4.318 -0.7917 -0.8058  0.3852
  973MOL0     C31230   3.653   3.084   4.288 -0.2377 -0.6297  0.0136
  973MOL0     C31231   3.677   3.126   4.142 -0.0229  0.6136  0.3719
  973MOL0     C31232   3.571   3.069   4.048 -0.4439 -0.2971  0.2116
  973MOL0     C31233   3.589   3.155   3.922  0.8629  0.5154  0.8534
  973MOL0     C31234   3.484   3.110   3.828  1.3041  0.4142 -0.2647
  973MOL0     C31235   3.497   3.183   3.705 -0.2452  0.1457  0.0979
  973MOL0     C31236   3.376   3.146   3.616 -0.7207  0.4980  0.4671
  973MOL0     N31237   3.397   3.186   3.478  0.1390 -0.1955 -0.5140
  973MOL0     C31238   3.391   3.317   3.450 -0.0311  0.5875  0.8239
  973MOL0     C31239   3.390   3.319   3.316 -0.9142  0.4848  0.0973
  973MOL0     C31240   3.405   3.431   3.219  0.4715  0.0114  0.6397
  973MOL0     C31241   3.393   3.558   3.295 -0.0722  0.4636 -0.5967
  973MOL0     C31242   3.255   3.600   3.342 -0.0653 -0.0599 -0.6906
  973MOL0     C31243   3.257   3.733   3.411 -0.4899  0.0714  0.0757
  973MOL0     O31244   3.136   3.784   3.463 -0.4711 -0.1541 -0.9660
  973MOL0     C31245   3.031   3.804   3.371 -0.8628 -0.0432  0.2864
  973MOL0     C31246   3.054   3.853   3.245  0.1312 -0.1133  0.5617
  973MOL0     C31247   2.949   3.853   3.149  0.6202  0.5596 -0.1092
  973MOL0     C31248   2.989   3.882   3.007 -0.2785 -0.3855  0.0165
  973MOL0     C31249   2.817   3.823   3.181 -0.0938  0.8343 -0.3737
  973MOL0     C31250   2.696   3.832   3.095 -0.7182 -0.6782  1.6970
  973MOL0     O31251   2.578   3.778   3.142 -0.8026 -0.1318 -0.5319
  973MOL0     C31252   2.452   3.803   3.095  0.1581  0.1012 -0.4563
  973MOL0     C31253   2.404   3.918   3.028 -0.1005 -0.4487  0.4355
  973MOL0     C31254   2.278   3.928   2.966  0.3272  0.7647  0.2479
  973MOL0     C31255   2.201   3.813   2.978 -0.5781  0.2004  1.3328
  973MOL0     O31256   2.076   3.827   2.922  0.5633 -0.2459  0.3751
  973MOL0     C31257   1.968   3.756   2.968  1.0755 -0.1570 -0.2726
  973MOL0     C31258   1.829   3.807   2.913 -0.9369  0.1382 -0.7345
  973MOL0     C31259   1.813   3.960   2.925  0.4588 -0.7846 -0.5799
  973MOL0     C31260   1.844   4.026   2.789 -1.5704  0.2008  0.9338
  973MOL0     C31261   1.876   4.172   2.792 -0.6895 -0.3648 -0.0158
  973MOL0     C31262   1.934   4.239   2.664 -0.9622  0.1658  0.1162
  973MOL0     C31263   2.028   4.356   2.695  0.1814 -0.1599  0.4540
  973MOL0     C31264   1.985   4.486   2.615 -0.4135  0.0994 -0.3001
  973MOL0    Cl31265   1.961   4.444   2.446 -0.2223 -0.2895  0.3525
  973MOL0     C31266   2.244   3.695   3.035 -0.4421  0.2776 -0.5447
  973MOL0     C31267   2.367   3.698   3.102 -0.8936 -0.0641  0.0496
  973MOL0     O31268   2.707   3.889   2.984  0.6655  0.3019 -0.3622
  973MOL0     C31269   2.803   3.763   3.309  0.4400  1.0292  0.1780
  973MOL0     C31270   2.907   3.762   3.403 -0.2550  0.3761  0.4885
  973MOL0     N31271   3.399   3.188   3.266  0.4469  0.7287  0.4390
  973MOL0     N31272   3.407   3.107   3.367 -0.6734 -0.4792  0.5001
  973MOL0     C31273   3.776   2.808   4.635 -0.0366  0.1699 -0.6118
  973MOL0     C31274   3.836   2.690   4.694 -0.7213 -0.4570  0.7771
  973MOL0     C31275   3.844   2.251   4.821  1.8102 -0.2751  0.0031
  973MOL0     C31276   3.798   2.208   4.943 -0.4196  0.4863  0.1529
  973MOL0     C31277   3.870   2.110   5.008  0.3504  0.9984  0.6327
  973MOL0     C31278   3.980   2.043   4.946  1.2033 -0.1638  0.3240
  973MOL0     O31279   4.053   1.948   5.013 -0.1871  0.2824  0.4087
  973MOL0     C31280   4.003   1.885   5.129  0.3262  0.4498 -0.4883
  973MOL0     C31281   4.074   1.755   5.179 -0.0844  0.3290  0.3293
  973MOL0     C31282   3.983   1.685   5.275 -0.5451  0.1668  0.6629
  973MOL0     C31283   4.040   1.551   5.326  0.5654  0.5569 -0.0542
  973MOL0     C31284   4.155   1.576   5.409 -0.9389  0.7060 -0.4883
  973MOL0     C31285   4.253   1.603   5.477 -0.0322 -0.0778  0.7665
  973MOL0     C31286   4.024   2.093   4.830  0.3885 -0.3177 -0.6404
  973MOL0     C31287   3.963   2.201   4.773  0.1564 -1.6194 -0.6956
  973MOL0     H31288   3.684   2.474   4.476  3.0178 -0.0350 -0.4177
  973MOL0     H31289   3.593   2.672   4.373 -0.6364 -1.5976 -0.2490
  973MOL0     H31290   3.720   2.872   4.274 -0.8322  1.1708 -2.7207
  973MOL0     H31291   3.542   2.898   4.287  0.1664 -0.4565 -3.6800
  973MOL0     H31292   3.574   3.145   4.334  2.8395  3.6139  0.3054
  973MOL0     H31293   3.748   3.113   4.336 -2.0101  0.1442  3.3591
  973MOL0     H31294   3.668   3.235   4.140 -1.5987  0.5314  1.0354
  973MOL0     H31295   3.777   3.093   4.114 -1.2222 -0.6811 -2.7543
  973MOL0     H31296   3.587   2.963   4.028  0.1297 -0.1807  0.0478
  973MOL0     H31297   3.472   3.076   4.093 -0.0620  0.6152  0.9454
  973MOL0     H31298   3.585   3.259   3.958  1.8761  0.3565  1.4580
  973MOL0     H31299   3.687   3.136   3.878 -0.9469  0.3962 -3.6438
  973MOL0     H31300   3.497   3.003   3.806  3.1983  0.5353  0.1686
  973MOL0     H31301   3.392   3.128   3.885  1.6631  0.6390  0.2432
  973MOL0     H31302   3.493   3.292   3.708  0.4847  0.2100 -0.8374
  973MOL0     H31303   3.589   3.148   3.657  1.4946  1.9590  1.9303
  973MOL0     H31304   3.287   3.200   3.651  0.0958  1.5471  1.0099
  973MOL0     H31305   3.358   3.039   3.623 -0.1317  0.0659 -2.9954
  973MOL0     H31306   3.406   3.404   3.514  1.8383  1.4538 -0.7057
  973MOL0     H31307   3.506   3.432   3.176  1.0560  0.2020  1.9517
  973MOL0     H31308   3.331   3.412   3.141 -2.5108  0.0342  3.2963
  973MOL0     H31309   3.431   3.636   3.229  1.7992 -1.4009 -1.8573
  973MOL0     H31310   3.461   3.547   3.380 -2.0356 -2.3128  0.7634
  973MOL0     H31311   3.207   3.527   3.409 -2.7799  1.9774 -0.2492
  973MOL0     H31312   3.183   3.613   3.260  0.8824 -2.6798 -2.0816
  973MOL0     H31313   3.304   3.801   3.339 -1.1546 -0.3565 -0.7804
  973MOL0     H31314   3.322   3.700   3.492  0.7594  2.8018  0.3197
  973MOL0     H31315   3.152   3.883   3.210  0.1904  0.4773  1.2287
  973MOL0     H31316   3.093   3.855   2.984  0.3144  1.2279  0.6369
  973MOL0     H31317   2.935   3.826   2.931  0.1124 -1.6879  0.6739
  973MOL0     H31318   2.979   3.990   2.989  1.1380 -0.1582  0.4593
  973MOL0     H31319   2.478   3.997   3.015 -1.9290  0.8627 -3.5717
  973MOL0     H31320   2.236   4.005   2.903  1.0092  1.1655  0.2836
  973MOL0     H31321   1.983   3.656   2.928  0.8149  0.5809 -2.3688
  973MOL0     H31322   1.948   3.762   3.076 -1.7683  1.0058 -0.7670
  973MOL0     H31323   1.823   3.793   2.805  1.3033  3.2564 -1.4144
  973MOL0     H31324   1.744   3.756   2.959 -0.2192  0.3718  0.9298
  973MOL0     H31325   1.869   4.015   3.001 -0.7659 -1.0252  0.5329
  973MOL0     H31326   1.708   3.976   2.951  0.5068 -0.1835 -0.7252
  973MOL0     H31327   1.940   3.984   2.756 -0.8705  1.2180  1.6229
  973MOL0     H31328   1.768   4.009   2.712  0.2389  0.1837 -0.9394
  973MOL0     H31329   1.948   4.193   2.872 -0.8326  0.5190 -0.1095
  973MOL0     H31330   1.788   4.229   2.824 -1.0777 -0.3943 -1.0186
  973MOL0     H31331   1.986   4.163   2.605 -1.0350 -0.1507  0.4558
  973MOL0     H31332   1.852   4.264   2.595  0.2398 -2.1356 -2.3309
  973MOL0     H31333   2.133   4.337   2.672  1.5575  3.2661  3.0266
  973MOL0     H31334   2.025   4.373   2.803 -1.0222 -3.1067  0.9892
  973MOL0     H31335   2.049   4.575   2.617 -3.4293  2.4034  0.6320
  973MOL0     H31336   1.893   4.530   2.652 -1.0204  1.0624 -2.7523
  973MOL0     H31337   2.199   3.597   3.020 -0.4245  0.4272 -1.6296
  973MOL0     H31338   2.410   3.603   3.133 -1.2797 -0.3906 -0.4145
  973MOL0     H31339   2.703   3.735   3.340  1.0526 -0.3648  1.0225
  973MOL0     H31340   2.876   3.729   3.502  2.6896  0.9336  1.7185
  973MOL0     H31341   3.792   2.905   4.681  2.3653 -1.6183  2.7484
  973MOL0     H31342   3.903   2.694   4.779  0.2443 -0.8843  0.0493
  973MOL0     H31343   3.702   2.246   4.979 -0.7929 -0.1431 -0.1678
  973MOL0     H31344   3.844   2.072   5.106  0.6044  0.1385  0.3686
  973MOL0     H31345   4.011   1.956   5.211  0.9361 -1.2717  1.0080
  973MOL0     H31346   3.899   1.857   5.108  0.3127 -0.2032  0.3998
  973MOL0     H31347   4.166   1.773   5.234  1.3313  0.0615 -1.8447
  973MOL0     H31348   4.103   1.697   5.091  0.7598 -0.7627  1.2947
  973MOL0     H31349   3.885   1.663   5.231  1.1372 -4.6143 -1.4157
  973MOL0     H31350   3.974   1.753   5.360 -1.2236  0.0739  0.6725
  973MOL0     H31351   4.070   1.493   5.239  4.5205  2.5602 -0.2373
  973MOL0     H31352   3.968   1.502   5.392  2.8180 -1.2951  1.2006
  973MOL0     H31353   4.344   1.620   5.532  3.3036  0.8066 -4.3505
  973MOL0     H31354   4.116   2.048   4.793 -1.1980 -3.9825 -0.5327
  973MOL0     H31355   4.021   2.243   4.692  1.1981 -1.1851  0.2367
  974MOL0     O31356   6.754   1.988  10.130 -0.1037  0.1289  0.4868
  974MOL0     C31357   6.745   2.085  10.058  0.6694  0.2536 -0.1958
  974MOL0     O31358   6.740   2.216  10.092  0.0926  0.4670 -1.4268
  974MOL0     C31359   6.772   2.250  10.219  0.3044  0.8520  0.0532
  974MOL0     C31360   6.684   2.317  10.307 -0.1475  0.5846  0.3069
  974MOL0     C31361   6.735   2.369  10.421  0.5273 -0.9576  0.1212
  974MOL0     C31362   6.870   2.339  10.460 -0.4240  1.1223 -0.2130
  974MOL0     O31363   6.917   2.383  10.581 -0.4085 -0.0909  0.6984
  974MOL0     C31364   7.008   2.309  10.667  0.8146  0.0697 -0.5757
  974MOL0     C31365   6.968   2.307  10.810  0.5820  0.0503 -0.2592
  974MOL0     C31366   6.839   2.242  10.842 -0.1331  0.5697  0.8320
  974MOL0     C31367   6.846   2.094  10.864  0.8315  0.5300 -0.6114
  974MOL0     C31368   6.714   2.024  10.895  0.0178  0.4078 -0.1745
  974MOL0     C31369   6.628   2.018  10.768 -0.0428 -0.3342  1.1115
  974MOL0     C31370   6.513   1.906  10.787  0.7884 -0.8111  0.7735
  974MOL0     C31371   6.472   1.832  10.659  0.9050  0.5160 -0.2143
  974MOL0     N31372   6.384   1.732  10.716 -0.4021  0.0022 -0.2300
  974MOL0     C31373   6.431   1.606  10.771  1.1551 -0.1792  0.1310
  974MOL0     C31374   6.332   1.567  10.851  0.2595 -0.5280 -0.0868
  974MOL0     C31375   6.327   1.435  10.927  0.3616 -0.0749 -0.1007
  974MOL0     C31376   6.346   1.449  11.074  0.5844 -0.2755  0.4503
  974MOL0     C31377   6.352   1.316  11.152 -0.3508  0.7625 -0.2319
  974MOL0     C31378   6.346   1.320  11.303 -0.0233 -0.4109 -0.6516
  974MOL0     O31379   6.242   1.399  11.373 -0.3672 -0.5908 -0.4570
  974MOL0     C31380   6.262   1.470  11.494  0.1162  1.0960 -0.4023
  974MOL0     C31381   6.368   1.436  11.575  0.0248 -0.5728 -0.2586
  974MOL0     C31382   6.397   1.502  11.703  0.0659 -0.1049 -0.1412
  974MOL0     C31383   6.511   1.445  11.783  0.1727  0.8242 -0.5223
  974MOL0     C31384   6.305   1.608  11.740 -0.6937  0.1137 -0.4881
  974MOL0     C31385   6.326   1.689  11.861  0.3380  0.3997 -0.5257
  974MOL0     O31386   6.278   1.819  11.846 -0.7377 -0.3214  0.7182
  974MOL0     C31387   6.289   1.911  11.940 -0.0457  0.0343 -0.1281
  974MOL0     C31388   6.211   1.895  12.053 -0.9220  0.5072 -0.1982
  974MOL0     C31389   6.213   1.989  12.153  1.2231 -0.3869 -0.8021
  974MOL0     C31390   6.292   2.100  12.152 -0.6676  0.5723  0.3381
  974MOL0     O31391   6.310   2.174  12.268 -0.3202 -0.1462  0.4638
  974MOL0     C31392   6.437   2.137  12.335  0.5763 -0.8400 -1.0050
  974MOL0     C31393   6.454   2.155  12.490  0.1523  0.7490 -0.0892
  974MOL0     C31394   6.448   2.025  12.569 -0.2971  0.5473 -0.4789
  974MOL0     C31395   6.305   1.975  12.588  0.5202 -0.6563 -0.9589
  974MOL0     C31396   6.253   2.030  12.726  0.3035 -0.0531  0.0784
  974MOL0     C31397   6.121   1.959  12.756 -0.7012  0.7708 -0.8387
  974MOL0     C31398   6.012   1.989  12.651 -0.1819  0.4561  0.4422
  974MOL0     C31399   5.884   1.895  12.656  0.1446  0.4110  0.1030
  974MOL0    Cl31400   5.906   1.717  12.628  0.0638 -0.1108 -0.0019
  974MOL0     C31401   6.379   2.108  12.045 -0.0113  0.4529  1.2693
  974MOL0     C31402   6.377   2.018  11.934 -0.3025 -0.1434 -0.8095
  974MOL0     O31403   6.373   1.640  11.961 -0.1564 -0.0694  0.1549
  974MOL0     C31404   6.200   1.639  11.648 -0.5587  1.2582  0.3315
  974MOL0     C31405   6.182   1.567  11.530 -0.3055 -0.4746 -0.3905
  974MOL0     N31406   6.227   1.657  10.832 -0.3738  0.0059  0.8994
  974MOL0     N31407   6.256   1.752  10.754  0.1727 -0.4494 -1.9457
  974MOL0     C31408   6.958   2.270  10.375 -1.2512 -0.4292  0.2176
  974MOL0     C31409   6.904   2.223  10.259 -0.3747  0.1410  0.5959
  974MOL0     C31410   6.737   2.051   9.919  0.9068  2.1931  0.2128
  974MOL0     C31411   6.708   1.919   9.878  0.0540 -0.2827 -0.4373
  974MOL0     C31412   6.716   1.886   9.741 -0.2901 -0.2906 -0.0426
  974MOL0     C31413   6.742   1.978   9.641 -0.5492 -0.0546 -0.4635
  974MOL0     O31414   6.751   1.930   9.511  0.2767 -0.6296 -0.3228
  974MOL0     C31415   6.758   2.009   9.387  0.5485 -0.1983  0.2364
  974MOL0     C31416   6.747   1.911   9.269 -0.1172  0.9978 -0.2109
  974MOL0     C31417   6.715   1.974   9.136 -0.5703 -0.1858 -0.7851
  974MOL0     C31418   6.739   1.899   9.006  0.0298  0.2262  1.5909
  974MOL0     C31419   6.720   1.981   8.890 -0.1313  0.3758 -0.1359
  974MOL0     C31420   6.721   2.055   8.798  0.3718  0.2331 -0.3318
  974MOL0     C31421   6.762   2.115   9.681  0.5414  0.6193 -0.9322
  974MOL0     C31422   6.763   2.147   9.820 -0.5121 -0.0850 -0.4100
  974MOL0     H31423   6.585   2.342  10.270 -0.0441 -0.4136 -0.6779
  974MOL0     H31424   6.670   2.428  10.485  3.9783  1.6626  1.5903
  974MOL0     H31425   7.040   2.214  10.623  1.1477 -0.8700  1.5729
  974MOL0     H31426   7.092   2.376  10.647  0.9356 -0.9504 -4.3238
  974MOL0     H31427   7.049   2.255  10.863  1.6775  2.8059  0.9822
  974MOL0     H31428   6.958   2.406  10.855 -2.1498 -0.5623  0.6654
  974MOL0     H31429   6.813   2.289  10.937  3.2586  0.8567  1.7514
  974MOL0     H31430   6.766   2.276  10.767  1.6178 -0.3929 -1.4238
  974MOL0     H31431   6.892   2.044  10.778  1.8334 -0.5704  0.5371
  974MOL0     H31432   6.908   2.083  10.953  0.9994 -1.5918 -0.9405
  974MOL0     H31433   6.735   1.922  10.929  1.8243  0.1870 -1.7721
  974MOL0     H31434   6.657   2.072  10.975  1.3287 -1.3092  1.9175
  974MOL0     H31435   6.582   2.113  10.738 -2.4411 -1.1856  1.8139
  974MOL0     H31436   6.692   1.985  10.686  0.4083 -2.6176  2.2929
  974MOL0     H31437   6.546   1.841  10.869  3.3648  1.5942  1.7739
  974MOL0     H31438   6.425   1.964  10.816  1.6412  1.4489 -0.8666
  974MOL0     H31439   6.556   1.792  10.601  1.3012 -1.5988  1.6957
  974MOL0     H31440   6.419   1.893  10.586  0.0570  0.7433  0.5793
  974MOL0     H31441   6.537   1.583  10.775  1.8930  2.7585 -0.0068
  974MOL0     H31442   6.229   1.392  10.902  0.0953  1.1938 -1.4059
  974MOL0     H31443   6.399   1.364  10.886  1.2072  1.0894 -0.6765
  974MOL0     H31444   6.268   1.513  11.116  3.2727  3.1019  0.7260
  974MOL0     H31445   6.438   1.506  11.089 -0.1625  1.1931 -0.3644
  974MOL0     H31446   6.441   1.261  11.121 -1.4185  0.0453 -2.2397
  974MOL0     H31447   6.275   1.246  11.119  2.1012 -1.9380 -0.6076
  974MOL0     H31448   6.449   1.347  11.325 -0.0373 -0.1057 -0.9550
  974MOL0     H31449   6.349   1.218  11.344  2.1050 -0.0231  0.2512
  974MOL0     H31450   6.431   1.351  11.552  2.9835  1.9149 -2.2481
  974MOL0     H31451   6.548   1.348  11.749  0.1122  0.9636 -0.9909
  974MOL0     H31452   6.592   1.516  11.799  0.3461  0.3637  0.7646
  974MOL0     H31453   6.461   1.426  11.879  0.2105 -0.6353 -0.7701
  974MOL0     H31454   6.139   1.814  12.056 -1.1402  0.7304  1.2464
  974MOL0     H31455   6.149   1.980  12.240  3.3536  1.2652  1.0624
  974MOL0     H31456   6.459   2.033  12.312 -0.1331 -1.7156  1.8415
  974MOL0     H31457   6.509   2.211  12.299 -0.8033  0.1999 -1.7108
  974MOL0     H31458   6.551   2.197  12.519 -0.2686  0.4630  1.8442
  974MOL0     H31459   6.373   2.217  12.531  0.5560 -0.6281  2.9754
  974MOL0     H31460   6.494   2.052  12.665  1.5300  1.4387 -1.5610
  974MOL0     H31461   6.505   1.949  12.515  0.7936  2.1241 -1.6464
  974MOL0     H31462   6.243   1.998  12.501  1.3456 -2.1322 -1.9794
  974MOL0     H31463   6.321   1.867  12.586  0.9971 -0.6835  1.6129
  974MOL0     H31464   6.235   2.138  12.718 -2.0614 -0.5258 -2.5041
  974MOL0     H31465   6.326   2.009  12.805  2.8923  0.2788 -2.0606
  974MOL0     H31466   6.136   1.851  12.749 -1.2052  0.7725 -2.2125
  974MOL0     H31467   6.084   1.981  12.857  3.5778  0.4459  0.9953
  974MOL0     H31468   6.045   1.970  12.549 -3.1270  0.7833 -0.6744
  974MOL0     H31469   5.979   2.094  12.648  1.9596  1.1595 -0.2084
  974MOL0     H31470   5.823   1.938  12.577  0.7967 -0.6384 -0.9995
  974MOL0     H31471   5.822   1.904  12.746 -2.2568  2.7893 -1.6382
  974MOL0     H31472   6.445   2.194  12.040  2.9399 -1.7315 -0.7692
  974MOL0     H31473   6.443   2.019  11.848  1.5318 -2.3220  0.4496
  974MOL0     H31474   6.134   1.721  11.672 -3.0087 -0.1915 -1.0623
  974MOL0     H31475   6.102   1.598  11.463  0.6263  0.9877 -0.8699
  974MOL0     H31476   7.063   2.260  10.401  0.0258  2.6042 -3.0571
  974MOL0     H31477   6.963   2.170  10.185  0.2446  0.6152  0.7325
  974MOL0     H31478   6.686   1.838   9.947 -0.7348  0.0402 -0.3054
  974MOL0     H31479   6.715   1.781   9.715  1.5696 -0.1439 -0.8701
  974MOL0     H31480   6.674   2.079   9.377 -0.4061 -1.4992 -1.4643
  974MOL0     H31481   6.854   2.058   9.369  0.6236 -0.4193  0.0232
  974MOL0     H31482   6.680   1.833   9.305  1.8127 -0.7846 -0.2522
  974MOL0     H31483   6.844   1.861   9.263 -1.5381 -1.8808 -0.9333
  974MOL0     H31484   6.784   2.058   9.142  1.8291 -2.0509 -0.4865
  974MOL0     H31485   6.614   2.014   9.127  0.0552  1.6632 -0.0093
  974MOL0     H31486   6.666   1.817   9.006 -1.2967  1.2973 -0.7648
  974MOL0     H31487   6.838   1.855   8.999 -0.2952 -0.4504  1.1512
  974MOL0     H31488   6.719   2.117   8.710 -0.7652 -3.7053 -3.3570
  974MOL0     H31489   6.783   2.195   9.610 -1.8035  0.5557 -1.7945
  974MOL0     H31490   6.796   2.247   9.846  1.3302 -0.9764  0.8765
  975MOL0     O31491   3.740   0.788   6.264  0.4877  0.2676 -0.3065
  975MOL0     C31492   3.751   0.913   6.269  0.4155  0.2853 -0.0651
  975MOL0     O31493   3.676   1.002   6.197 -1.4375  0.1546  0.3512
  975MOL0     C31494   3.571   0.943   6.124  0.4450 -0.2652  0.9603
  975MOL0     C31495   3.570   0.965   5.984  0.2831 -0.6009  0.2141
  975MOL0     C31496   3.468   0.931   5.899 -0.8389 -0.0859 -0.3320
  975MOL0     C31497   3.358   0.862   5.960  0.1821 -0.7648  0.5841
  975MOL0     O31498   3.264   0.820   5.868  0.0245 -1.5825 -0.4412
  975MOL0     C31499   3.132   0.774   5.917  0.0930 -0.8186 -0.2580
  975MOL0     C31500   3.062   0.694   5.808 -0.2620  0.3180 -0.5303
  975MOL0     C31501   3.018   0.788   5.691 -0.1646  0.3402  0.4088
  975MOL0     C31502   3.102   0.789   5.557  0.1550  0.0273  0.2241
  975MOL0     C31503   3.131   0.650   5.503  0.4327 -0.2561  0.6697
  975MOL0     C31504   3.167   0.664   5.353 -0.2637 -0.9970  0.4598
  975MOL0     C31505   3.249   0.547   5.299 -0.1101 -0.6635  1.0577
  975MOL0     C31506   3.399   0.561   5.313 -0.0369  0.6399  0.1317
  975MOL0     N31507   3.467   0.440   5.261 -0.0118 -0.0722  0.2119
  975MOL0     C31508   3.501   0.334   5.337 -0.7724  0.5836 -0.5818
  975MOL0     C31509   3.548   0.246   5.238  0.2373  0.3154  0.3907
  975MOL0     C31510   3.604   0.110   5.260 -0.8781  0.6995 -0.3276
  975MOL0     C31511   3.718   0.101   5.356 -0.4196  0.4057  0.0124
  975MOL0     C31512   3.846   0.169   5.303  1.3086 -0.8447  0.0314
  975MOL0     C31513   3.961   0.076   5.270  0.1644 -1.3831 -0.9407
  975MOL0     O31514   3.938   0.015   5.148 -0.8186  0.5832 -0.2046
  975MOL0     C31515   4.004  -0.102   5.125  0.0939  0.1609  0.6286
  975MOL0     C31516   3.936  -0.194   5.041 -0.3222 -0.3423  0.0617
  975MOL0     C31517   4.003  -0.316   5.001 -0.3016 -0.0460 -0.0975
  975MOL0     C31518   3.942  -0.396   4.893 -0.1243  0.3382 -0.7167
  975MOL0     C31519   4.141  -0.338   5.041 -0.0193  0.0061  0.0572
  975MOL0     C31520   4.199  -0.472   5.040 -0.4386 -0.2340 -0.1712
  975MOL0     O31521   4.310  -0.492   4.961 -0.4454 -0.0666  0.2585
  975MOL0     C31522   4.344  -0.608   4.902  0.8610 -0.3728 -0.7954
  975MOL0     C31523   4.284  -0.731   4.928  0.1687  0.7140  0.6299
  975MOL0     C31524   4.335  -0.850   4.873 -1.3211  0.9003 -0.1121
  975MOL0     C31525   4.442  -0.850   4.784 -1.1255  0.3638 -0.3241
  975MOL0     O31526   4.479  -0.970   4.719  0.2899 -0.3443  0.5795
  975MOL0     C31527   4.619  -0.990   4.717 -0.5461  0.1110  0.5838
  975MOL0     C31528   4.650  -1.131   4.668 -0.3969  0.0632  0.2381
  975MOL0     C31529   4.797  -1.161   4.653  0.3552 -0.7232 -0.3424
  975MOL0     C31530   4.876  -1.148   4.782  0.4609 -0.2707  0.5540
  975MOL0     C31531   5.025  -1.182   4.752 -0.0383 -0.9633  0.4500
  975MOL0     C31532   5.116  -1.171   4.878  0.1685 -0.1297  0.1703
  975MOL0     C31533   5.115  -1.307   4.964  0.2205 -0.0178  1.1724
  975MOL0     C31534   5.248  -1.307   5.057  0.3679  1.2456 -1.1374
  975MOL0    Cl31535   5.231  -1.443   5.177  0.1604 -0.1801 -0.4029
  975MOL0     C31536   4.502  -0.728   4.769 -1.2023 -1.6587 -0.2777
  975MOL0     C31537   4.459  -0.607   4.830  0.2676  0.3966  0.2341
  975MOL0     O31538   4.126  -0.556   5.087  0.2056 -0.0416 -0.3646
  975MOL0     C31539   4.205  -0.245   5.123  0.4750 -0.4494  0.8545
  975MOL0     C31540   4.139  -0.130   5.172 -0.7874  0.2236  0.1846
  975MOL0     N31541   3.552   0.313   5.116  0.8640  0.6821  0.0846
  975MOL0     N31542   3.501   0.432   5.128  0.4402 -0.0970  0.2274
  975MOL0     C31543   3.355   0.847   6.100 -0.6478 -0.0691 -0.2558
  975MOL0     C31544   3.467   0.883   6.186  0.3708  0.3487 -0.0985
  975MOL0     C31545   3.833   0.962   6.384 -0.6752 -0.4987 -0.0900
  975MOL0     C31546   3.810   1.082   6.455 -0.8877 -0.0203 -0.0718
  975MOL0     C31547   3.902   1.114   6.558 -0.6351 -1.1241 -1.1018
  975MOL0     C31548   4.017   1.045   6.588 -0.4715 -0.7379 -0.2610
  975MOL0     O31549   4.107   1.091   6.687 -0.3717  0.7052  0.9036
  975MOL0     C31550   4.057   1.173   6.795  0.0748  0.2748 -0.1973
  975MOL0     C31551   4.172   1.222   6.885 -1.0468 -0.0605 -1.0059
  975MOL0     C31552   4.115   1.310   6.989  0.6818 -0.1553  0.5313
  975MOL0     C31553   4.228   1.375   7.065 -0.3501 -0.1407  0.7565
  975MOL0     C31554   4.199   1.357   7.211  0.1580 -0.6901 -0.2644
  975MOL0     C31555   4.180   1.369   7.330 -0.5451 -0.4708  0.5378
  975MOL0     C31556   4.034   0.923   6.525 -0.0946 -0.8313 -0.1045
  975MOL0     C31557   3.948   0.886   6.415  0.1734 -0.0626  0.2677
  975MOL0     H31558   3.648   1.030   5.945 -0.2338  0.6005  1.1396
  975MOL0     H31559   3.470   0.952   5.793 -0.0748  2.1145  0.0785
  975MOL0     H31560   3.148   0.708   6.003  2.1076  2.0058  1.7509
  975MOL0     H31561   3.076   0.860   5.955  2.2233  0.4785  0.1646
  975MOL0     H31562   3.143   0.627   5.776  0.0757  1.0225 -1.1807
  975MOL0     H31563   2.976   0.644   5.853  1.5720 -0.0202  2.8983
  975MOL0     H31564   2.917   0.758   5.661  0.4152 -1.4876  0.1146
  975MOL0     H31565   3.024   0.893   5.720  0.3624  0.0161  1.5496
  975MOL0     H31566   3.046   0.844   5.481  1.2906 -1.7720 -2.0300
  975MOL0     H31567   3.199   0.838   5.573  1.1236 -2.0005  1.0751
  975MOL0     H31568   3.210   0.604   5.563  0.1309 -1.5956  0.0717
  975MOL0     H31569   3.039   0.592   5.500  0.3975 -0.2451 -2.7601
  975MOL0     H31570   3.070   0.671   5.301  0.7445  1.5151 -1.2728
  975MOL0     H31571   3.221   0.757   5.333  2.4338 -1.6736  3.7738
  975MOL0     H31572   3.212   0.448   5.326 -2.0067 -1.0881 -2.3994
  975MOL0     H31573   3.233   0.562   5.191  1.1430 -2.6962  0.5476
  975MOL0     H31574   3.420   0.574   5.420 -3.1612  3.8989  0.5266
  975MOL0     H31575   3.425   0.646   5.250  1.5764 -0.4672 -0.7709
  975MOL0     H31576   3.511   0.319   5.444  0.4892  0.0506 -0.7541
  975MOL0     H31577   3.528   0.053   5.314 -0.5317  1.4036  0.9210
  975MOL0     H31578   3.643   0.062   5.169  3.9640  1.3195  1.1012
  975MOL0     H31579   3.744  -0.002   5.382  1.1863  1.4392  3.0539
  975MOL0     H31580   3.696   0.141   5.456 -0.4861 -4.0622  2.0113
  975MOL0     H31581   3.879   0.239   5.380  0.6976  1.2895 -1.5622
  975MOL0     H31582   3.827   0.229   5.214  2.1335 -2.6337 -1.4228
  975MOL0     H31583   3.964   0.004   5.353 -2.4462 -0.8184 -0.2423
  975MOL0     H31584   4.053   0.135   5.259 -1.1124  0.5660 -1.8357
  975MOL0     H31585   3.841  -0.183   4.989 -0.1316  0.6482 -0.0826
  975MOL0     H31586   4.018  -0.452   4.838 -0.5646 -0.8244 -0.1627
  975MOL0     H31587   3.864  -0.470   4.913 -1.3677  1.3320 -1.7385
  975MOL0     H31588   3.905  -0.324   4.820  2.5801  1.8520 -0.7314
  975MOL0     H31589   4.192  -0.745   4.984 -2.2105 -0.3956 -3.1776
  975MOL0     H31590   4.280  -0.942   4.895 -0.3100 -0.3572 -2.4031
  975MOL0     H31591   4.664  -0.915   4.651  0.8164  0.6243  2.0345
  975MOL0     H31592   4.648  -0.965   4.820 -0.6170  2.8986  0.0159
  975MOL0     H31593   4.612  -1.202   4.742 -0.8535 -0.1773 -0.2143
  975MOL0     H31594   4.608  -1.148   4.568 -0.1889  1.2789 -0.0762
  975MOL0     H31595   4.835  -1.084   4.584  0.3500  0.0273  0.4690
  975MOL0     H31596   4.818  -1.259   4.610  1.5407  0.6489 -3.1739
  975MOL0     H31597   4.871  -1.057   4.842  0.1586 -2.4088  4.0513
  975MOL0     H31598   4.852  -1.230   4.851 -1.3256  1.2727  1.8804
  975MOL0     H31599   5.073  -1.117   4.678 -0.0408 -2.9412 -1.3789
  975MOL0     H31600   5.025  -1.288   4.725 -0.1355 -1.2217  1.4338
  975MOL0     H31601   5.217  -1.168   4.838  0.9856 -0.2394  2.1351
  975MOL0     H31602   5.100  -1.083   4.941 -2.7479  0.9242 -1.8084
  975MOL0     H31603   5.115  -1.399   4.906 -0.6611  1.6573 -1.6776
  975MOL0     H31604   5.034  -1.304   5.037  0.1914  2.7351  1.1610
  975MOL0     H31605   5.248  -1.218   5.120 -3.2031  0.1321  0.6917
  975MOL0     H31606   5.343  -1.318   5.004  0.6517 -0.0162 -0.4251
  975MOL0     H31607   4.582  -0.704   4.700 -0.1682  0.2948  1.4769
  975MOL0     H31608   4.512  -0.513   4.824  1.8423 -0.5227 -0.6158
  975MOL0     H31609   4.303  -0.271   5.163  0.3700 -2.7660 -0.2401
  975MOL0     H31610   4.198  -0.064   5.234 -0.5560 -0.9027  1.2054
  975MOL0     H31611   3.282   0.787   6.153  2.0564 -1.5259  2.1436
  975MOL0     H31612   3.471   0.861   6.292 -2.8262 -0.4731 -0.0408
  975MOL0     H31613   3.725   1.144   6.429 -0.7247  0.9967  1.6186
  975MOL0     H31614   3.864   1.193   6.622 -1.1257 -1.4917 -0.9300
  975MOL0     H31615   4.017   1.267   6.757  1.3369  0.9280  0.0428
  975MOL0     H31616   3.977   1.124   6.851 -0.0920 -1.5027 -1.8434
  975MOL0     H31617   4.255   1.255   6.823 -0.9387 -2.5225 -2.3268
  975MOL0     H31618   4.212   1.134   6.936  0.9125  1.5993  0.4675
  975MOL0     H31619   4.060   1.243   7.055  0.6055  0.8694  1.5483
  975MOL0     H31620   4.059   1.398   6.955 -2.2297 -1.9298  0.4561
  975MOL0     H31621   4.234   1.482   7.045  2.0995  0.0955  2.3227
  975MOL0     H31622   4.325   1.334   7.037 -0.0921 -0.2744  1.7910
  975MOL0     H31623   4.169   1.387   7.435  1.9566  1.6893  0.5307
  975MOL0     H31624   4.125   0.872   6.554 -0.0114 -0.5540  0.1306
  975MOL0     H31625   3.960   0.791   6.365 -2.0777  0.2181 -0.9410
  976MOL0     O31626   1.534   5.009   0.110  0.0973 -0.4370  0.8722
  976MOL0     C31627   1.599   5.100   0.164  0.4878  0.1360  0.3717
  976MOL0     O31628   1.740   5.107   0.180  0.2057  0.1247  0.4385
  976MOL0     C31629   1.806   4.990   0.174 -0.6429  0.1850  0.3090
  976MOL0     C31630   1.767   4.856   0.216 -0.2577 -0.2691 -0.1833
  976MOL0     C31631   1.866   4.760   0.238  0.1005  0.1208  0.2607
  976MOL0     C31632   2.004   4.784   0.220 -0.2098  0.1291 -0.0501
  976MOL0     O31633   2.107   4.693   0.243 -0.0853  0.1251  0.6480
  976MOL0     C31634   2.065   4.560   0.258 -0.5610  0.7507 -0.5188
  976MOL0     C31635   2.194   4.461   0.259 -1.0250  1.0884  1.2396
  976MOL0     C31636   2.154   4.315   0.269  0.3719  0.4215  0.1783
  976MOL0     C31637   2.262   4.221   0.323  1.0282 -0.7012 -0.4951
  976MOL0     C31638   2.385   4.194   0.225 -0.4849 -0.8925 -2.1333
  976MOL0     C31639   2.458   4.058   0.243  1.1019 -0.2938  0.2045
  976MOL0     C31640   2.380   3.938   0.180 -0.2845 -0.2840  0.3097
  976MOL0     C31641   2.406   3.925   0.032  0.2696 -0.2638 -0.6333
  976MOL0     N31642   2.495   3.818   0.023 -1.6218 -0.3054 -1.1077
  976MOL0     C31643   2.461   3.691  -0.011 -0.6770  0.0898 -0.4740
  976MOL0     C31644   2.576   3.620  -0.031 -0.0023 -1.0126  0.6014
  976MOL0     C31645   2.597   3.483  -0.073 -0.4412  0.1211 -0.9607
  976MOL0     C31646   2.653   3.408   0.047  0.1824  1.0691  0.1635
  976MOL0     C31647   2.689   3.255   0.027  0.0484 -1.3773 -0.1215
  976MOL0     C31648   2.756   3.200   0.156 -0.1427 -0.3481  0.3045
  976MOL0     O31649   2.868   3.276   0.195 -0.8825 -0.2972  0.1522
  976MOL0     C31650   2.964   3.235   0.282  0.1987  0.2164  0.9252
  976MOL0     C31651   2.943   3.126   0.369  0.1439  0.0850 -0.1712
  976MOL0     C31652   3.045   3.084   0.453  0.2755 -0.0512  0.4118
  976MOL0     C31653   3.002   2.972   0.545  1.1624 -0.3726  0.8214
  976MOL0     C31654   3.165   3.152   0.461  0.1044  0.5868  1.1135
  976MOL0     C31655   3.277   3.132   0.560 -0.5629 -0.2668 -0.0270
  976MOL0     O31656   3.379   3.226   0.575 -0.0730 -0.0317  0.2974
  976MOL0     C31657   3.462   3.225   0.680 -1.4243 -0.0827 -0.0571
  976MOL0     C31658   3.556   3.124   0.708 -0.8213  1.1859 -0.5584
  976MOL0     C31659   3.645   3.133   0.819 -0.4361  0.7622 -0.6016
  976MOL0     C31660   3.640   3.239   0.896  0.1939  0.4145  0.0822
  976MOL0     O31661   3.718   3.265   1.005 -0.1183 -0.9236  0.2028
  976MOL0     C31662   3.771   3.160   1.076 -0.5772  0.6833  0.0179
  976MOL0     C31663   3.918   3.132   1.048 -1.0577 -0.6251  0.7060
  976MOL0     C31664   3.992   3.262   1.029 -1.2135  0.1058 -0.0859
  976MOL0     C31665   4.144   3.253   0.986  0.7150 -0.6503 -0.8712
  976MOL0     C31666   4.181   3.168   0.869  1.0335 -0.0552  0.6614
  976MOL0     C31667   4.323   3.188   0.828  0.6940  0.0366  0.2219
  976MOL0     C31668   4.348   3.101   0.696 -0.3770 -0.9728 -0.2551
  976MOL0     C31669   4.503   3.109   0.680 -1.0963 -0.3511 -0.0253
  976MOL0    Cl31670   4.540   2.989   0.543 -0.2513  0.2086  0.1890
  976MOL0     C31671   3.539   3.330   0.879 -0.8986 -0.3491  0.3622
  976MOL0     C31672   3.444   3.328   0.774  0.1699  0.3769  0.1636
  976MOL0     O31673   3.284   3.020   0.597  0.1685  0.7747  0.4541
  976MOL0     C31674   3.188   3.263   0.372  0.0797  0.0895 -0.2990
  976MOL0     C31675   3.092   3.307   0.283 -0.8437  0.1727 -0.2172
  976MOL0     N31676   2.685   3.712  -0.001  0.3867  0.1831  0.4825
  976MOL0     N31677   2.631   3.833   0.028  0.9614  0.0900 -0.0242
  976MOL0     C31678   2.031   4.916   0.180 -0.8644 -0.2805 -0.8765
  976MOL0     C31679   1.939   5.021   0.162  0.7352  0.5108 -0.8524
  976MOL0     C31680   1.536   5.234   0.194 -0.8252 -0.1699 -0.5582
  976MOL0     C31681   1.608   5.333   0.255  0.3178 -0.0261 -0.4802
  976MOL0     C31682   1.557   5.465   0.288 -0.4522 -0.0351 -1.2692
  976MOL0     C31683   1.431   5.495   0.255  0.3109 -0.4515 -0.1662
  976MOL0     O31684   1.384   5.618   0.290 -0.8349  0.2041 -0.1373
  976MOL0     C31685   1.245   5.623   0.338 -0.5276 -0.2195  0.0520
  976MOL0     C31686   1.152   5.667   0.235  0.1284 -0.5576  0.6801
  976MOL0     C31687   1.006   5.681   0.287  0.8886 -1.1478 -0.4288
  976MOL0     C31688   0.933   5.554   0.316 -0.3828 -0.1951  0.0653
  976MOL0     C31689   0.782   5.581   0.336 -0.7434 -0.7527  0.3475
  976MOL0     C31690   0.664   5.604   0.360 -1.3759 -0.2243  1.0887
  976MOL0     C31691   1.353   5.392   0.194  0.5135 -0.6424 -0.1958
  976MOL0     C31692   1.405   5.268   0.167 -0.3441 -0.4195  0.5128
  976MOL0     H31693   1.667   4.825   0.242  1.0167 -2.0829  3.1983
  976MOL0     H31694   1.826   4.660   0.247 -2.0093  0.4194 -3.4757
  976MOL0     H31695   2.012   4.555   0.353  1.6539  0.1304  0.7522
  976MOL0     H31696   1.998   4.522   0.180 -3.9221 -0.3692  2.6257
  976MOL0     H31697   2.256   4.479   0.170  1.6613  0.5857  2.8940
  976MOL0     H31698   2.254   4.488   0.346  1.7894  1.6460 -0.7154
  976MOL0     H31699   2.062   4.308   0.329 -3.1306  1.2815 -4.5516
  976MOL0     H31700   2.120   4.273   0.174 -0.2755 -0.7793  0.9075
  976MOL0     H31701   2.303   4.272   0.410 -2.1420  3.0229 -0.9651
  976MOL0     H31702   2.219   4.130   0.365  1.2176 -0.3244  0.5432
  976MOL0     H31703   2.347   4.190   0.123 -2.5326 -3.0459 -1.3497
  976MOL0     H31704   2.463   4.271   0.220 -0.0128 -1.2142 -0.4191
  976MOL0     H31705   2.552   4.056   0.186  0.1490 -1.5158 -1.4393
  976MOL0     H31706   2.480   4.040   0.348  0.6944 -0.2025  0.3076
  976MOL0     H31707   2.403   3.846   0.235 -0.9150  0.5540  2.0225
  976MOL0     H31708   2.275   3.955   0.206 -0.0258  3.1388 -0.3658
  976MOL0     H31709   2.427   4.024  -0.010 -2.7231  0.4022 -0.7397
  976MOL0     H31710   2.310   3.893  -0.009  0.1921  0.1054 -0.7426
  976MOL0     H31711   2.364   3.642  -0.018  0.0948 -1.4878 -0.3624
  976MOL0     H31712   2.502   3.432  -0.089 -2.3513  1.6741  3.8410
  976MOL0     H31713   2.665   3.484  -0.159 -0.2182 -0.6109 -0.7994
  976MOL0     H31714   2.581   3.425   0.128 -1.9882  0.3434 -1.5260
  976MOL0     H31715   2.748   3.458   0.064  1.8140 -1.8421  0.2563
  976MOL0     H31716   2.765   3.267  -0.050 -2.1078 -1.1731 -2.3536
  976MOL0     H31717   2.619   3.187  -0.023 -3.0984  1.1334  0.5618
  976MOL0     H31718   2.795   3.098   0.155  1.0923  0.1045  0.9424
  976MOL0     H31719   2.678   3.206   0.233  0.6847  0.7127  1.0889
  976MOL0     H31720   2.854   3.064   0.366  1.1333 -1.3359 -0.8122
  976MOL0     H31721   2.898   2.941   0.538  0.9489  0.4295  0.4176
  976MOL0     H31722   3.058   2.880   0.526 -0.3796 -1.6627  2.2190
  976MOL0     H31723   3.015   3.008   0.648 -2.7395 -0.1873  1.3794
  976MOL0     H31724   3.571   3.035   0.648  2.3158  1.8558 -0.9269
  976MOL0     H31725   3.719   3.057   0.839 -1.2177 -0.6115 -2.5989
  976MOL0     H31726   3.765   3.180   1.183 -1.6804  2.7630 -0.3650
  976MOL0     H31727   3.717   3.066   1.057 -2.8116  1.7944  0.4950
  976MOL0     H31728   3.961   3.080   1.134  0.5568  3.7685  2.8792
  976MOL0     H31729   3.913   3.075   0.955  0.6974  1.3205 -0.6693
  976MOL0     H31730   3.988   3.313   1.125  1.6653  2.2767 -0.9748
  976MOL0     H31731   3.942   3.330   0.959 -1.4524 -0.6475 -0.6529
  976MOL0     H31732   4.170   3.357   0.964  3.6937 -0.9651  0.7687
  976MOL0     H31733   4.202   3.216   1.070  0.9827  1.4629 -0.0838
  976MOL0     H31734   4.115   3.179   0.782  1.0204 -2.1301  0.3372
  976MOL0     H31735   4.158   3.070   0.912 -0.3471 -0.3686 -0.6830
  976MOL0     H31736   4.336   3.293   0.800 -3.8977  0.7598 -0.0197
  976MOL0     H31737   4.387   3.163   0.913  1.0541 -3.9070 -1.0104
  976MOL0     H31738   4.294   3.136   0.607  1.8008  0.4134 -1.1282
  976MOL0     H31739   4.330   2.993   0.704 -2.4752 -0.6621 -0.4043
  976MOL0     H31740   4.556   3.086   0.774 -0.1720  1.5403 -0.0363
  976MOL0     H31741   4.535   3.209   0.651 -0.3863 -1.1149 -2.0181
  976MOL0     H31742   3.542   3.400   0.962  1.8505 -0.3996  0.4124
  976MOL0     H31743   3.367   3.403   0.762 -0.2165  0.1902  1.3486
  976MOL0     H31744   3.283   3.316   0.374  0.9155 -1.2070 -1.9095
  976MOL0     H31745   3.122   3.390   0.219 -0.8805  0.1047 -0.3227
  976MOL0     H31746   2.137   4.936   0.165 -1.2805  1.4950 -1.6859
  976MOL0     H31747   1.973   5.122   0.138  1.6754  0.6168  0.7536
  976MOL0     H31748   1.713   5.324   0.282 -0.2061  3.0422  3.4901
  976MOL0     H31749   1.603   5.548   0.341 -1.1147 -0.0814 -0.6186
  976MOL0     H31750   1.204   5.528   0.373  2.2266 -3.0707 -3.6333
  976MOL0     H31751   1.246   5.700   0.415 -1.6762  1.1240 -1.2302
  976MOL0     H31752   1.149   5.591   0.157 -1.1593  0.2537 -0.1042
  976MOL0     H31753   1.188   5.765   0.201 -0.0201 -0.3367  1.1464
  976MOL0     H31754   0.954   5.735   0.208 -1.9827 -3.3659 -0.2033
  976MOL0     H31755   1.011   5.736   0.381 -1.4490 -1.6997  0.0648
  976MOL0     H31756   0.981   5.515   0.406  1.6516 -1.7987 -1.6117
  976MOL0     H31757   0.954   5.479   0.240  0.3873 -2.0162  1.9991
  976MOL0     H31758   0.566   5.645   0.373 -0.5349  1.6641  1.9645
  976MOL0     H31759   1.250   5.421   0.177  1.5877  3.3600 -0.9185
  976MOL0     H31760   1.342   5.194   0.119  1.3066 -2.4023  1.2508
  977MOL0     O31761   3.863   3.945  10.326  0.1717 -0.2849 -0.0233
  977MOL0     C31762   3.945   3.976  10.244 -0.0706  0.5836 -0.3911
  977MOL0     O31763   4.083   3.965  10.261  1.1061 -0.3087  0.8774
  977MOL0     C31764   4.115   3.926  10.387  0.5538  0.8098 -0.7178
  977MOL0     C31765   4.120   3.791  10.431 -0.2501  0.1898 -0.2640
  977MOL0     C31766   4.157   3.750  10.557  0.6743 -0.6704  0.1007
  977MOL0     C31767   4.186   3.840  10.666  0.2797 -0.3582 -0.6476
  977MOL0     O31768   4.191   3.800  10.794  0.0375 -0.7598  0.1384
  977MOL0     C31769   4.294   3.853  10.880 -0.1772  0.0633 -1.0403
  977MOL0     C31770   4.280   3.787  11.019  0.1198  0.8474 -0.0071
  977MOL0     C31771   4.378   3.841  11.131 -0.3832  0.5048  0.1109
  977MOL0     C31772   4.514   3.802  11.086 -0.1916 -0.2089 -0.3707
  977MOL0     C31773   4.616   3.870  11.179 -1.4063 -0.2139  0.2564
  977MOL0     C31774   4.618   3.834  11.333  0.2292 -0.9030 -0.0136
  977MOL0     C31775   4.756   3.842  11.401  0.1564 -1.1974 -0.5973
  977MOL0     C31776   4.749   3.807  11.547 -1.2318 -0.0556 -0.3666
  977MOL0     N31777   4.891   3.812  11.595 -0.4066 -0.0286  0.6329
  977MOL0     C31778   4.973   3.709  11.588  0.5222 -0.9171  0.2399
  977MOL0     C31779   5.095   3.755  11.639 -0.1664  0.8060 -0.2751
  977MOL0     C31780   5.228   3.686  11.651 -0.2529 -0.7794 -0.4583
  977MOL0     C31781   5.349   3.767  11.597 -0.5223 -0.3846 -0.6740
  977MOL0     C31782   5.478   3.688  11.583  0.2209 -0.0452 -0.3771
  977MOL0     C31783   5.464   3.564  11.476  0.5114 -0.7282  1.2395
  977MOL0     O31784   5.541   3.456  11.519  0.1460  0.0554 -0.1682
  977MOL0     C31785   5.675   3.469  11.496 -0.0232 -0.0274  0.8348
  977MOL0     C31786   5.770   3.529  11.574 -0.0624  0.6036  0.4473
  977MOL0     C31787   5.901   3.501  11.564 -0.1167 -0.1695  0.5061
  977MOL0     C31788   5.993   3.568  11.659 -0.4022 -0.4971  0.3801
  977MOL0     C31789   5.945   3.415  11.458  0.8396 -0.6528 -0.0402
  977MOL0     C31790   6.085   3.379  11.438  0.6741  0.8952 -0.4182
  977MOL0     O31791   6.114   3.340  11.311  0.7362  0.3668 -0.1585
  977MOL0     C31792   6.219   3.255  11.285  0.8767  0.2494  0.0322
  977MOL0     C31793   6.274   3.154  11.367  0.2553 -0.4630 -0.0156
  977MOL0     C31794   6.394   3.082  11.326 -0.3603  0.0758  0.1410
  977MOL0     C31795   6.447   3.094  11.194 -0.5867 -0.8306 -0.8625
  977MOL0     O31796   6.550   3.013  11.178 -0.6276  0.4939  0.1547
  977MOL0     C31797   6.620   3.014  11.052  0.6593  0.5020  0.1506
  977MOL0     C31798   6.743   2.924  11.046  0.0082 -0.5531 -0.4039
  977MOL0     C31799   6.740   2.815  11.158 -0.1242  0.4742  0.5286
  977MOL0     C31800   6.866   2.733  11.159 -0.7964 -0.6458 -0.4107
  977MOL0     C31801   6.868   2.651  11.290 -0.0853  0.2207 -0.1043
  977MOL0     C31802   6.996   2.575  11.304  0.6246 -0.0009 -0.2088
  977MOL0     C31803   7.012   2.458  11.201  0.3034  0.4220 -0.0823
  977MOL0     C31804   7.147   2.430  11.143 -0.0438 -0.5697 -0.6609
  977MOL0    Cl31805   7.194   2.587  11.058  0.1096  0.1001 -0.1424
  977MOL0     C31806   6.386   3.191  11.104 -0.1246 -0.5621  0.9461
  977MOL0     C31807   6.271   3.265  11.150  0.2517  0.5531  0.1712
  977MOL0     O31808   6.170   3.380  11.529 -0.0516 -0.0585 -0.0800
  977MOL0     C31809   5.855   3.366  11.363  0.3448  0.4456 -0.6830
  977MOL0     C31810   5.719   3.397  11.384 -0.5363 -0.4638  0.1572
  977MOL0     N31811   5.073   3.889  11.677 -0.2877  0.2021  1.3555
  977MOL0     N31812   4.953   3.919  11.649 -0.6224 -0.7712 -0.4057
  977MOL0     C31813   4.164   3.976  10.626 -0.3737 -0.1492 -0.3842
  977MOL0     C31814   4.136   4.016  10.490  0.4034 -0.4102 -0.4219
  977MOL0     C31815   3.901   4.015  10.112 -0.4507 -0.9504 -0.2935
  977MOL0     C31816   3.980   4.000   9.994 -0.5270 -0.4622 -0.5451
  977MOL0     C31817   3.928   4.020   9.864  0.2080 -0.3891 -0.7712
  977MOL0     C31818   3.798   4.073   9.851 -0.7425  1.4644  0.2311
  977MOL0     O31819   3.737   4.107   9.732 -0.3967  0.1596 -0.6971
  977MOL0     C31820   3.815   4.175   9.640  0.6148  0.0464 -0.6074
  977MOL0     C31821   3.712   4.246   9.554  0.6655 -0.3986 -1.4807
  977MOL0     C31822   3.787   4.327   9.445 -0.3057  0.3671 -0.1724
  977MOL0     C31823   3.799   4.268   9.305  0.8780 -0.0208 -0.8564
  977MOL0     C31824   3.662   4.242   9.256 -0.2041  0.5729 -0.3546
  977MOL0     C31825   3.556   4.194   9.208  0.3852  0.0052  0.4048
  977MOL0     C31826   3.721   4.082   9.970  0.0147 -1.1197 -0.1063
  977MOL0     C31827   3.772   4.060  10.093 -0.7544  0.7966 -0.9723
  977MOL0     H31828   4.090   3.716  10.359  1.5514 -0.5904 -0.2668
  977MOL0     H31829   4.156   3.645  10.585 -0.0143 -0.0748  2.4725
  977MOL0     H31830   4.394   3.835  10.841 -0.2331 -0.5536 -0.9023
  977MOL0     H31831   4.279   3.960  10.900  0.0009 -0.0331 -0.3629
  977MOL0     H31832   4.178   3.788  11.057  0.5574  0.5375  1.2471
  977MOL0     H31833   4.304   3.680  11.010  0.4647  1.0047 -1.1221
  977MOL0     H31834   4.370   3.948  11.150 -0.2552  0.7078 -0.8821
  977MOL0     H31835   4.370   3.791  11.228  0.7423  0.5440  0.2437
  977MOL0     H31836   4.519   3.692  11.086  0.9030 -0.1856 -1.7963
  977MOL0     H31837   4.539   3.836  10.985  0.8326  3.0636  0.8564
  977MOL0     H31838   4.715   3.852  11.137 -0.7199  4.3305 -0.5362
  977MOL0     H31839   4.614   3.979  11.185 -0.2118 -0.2267  1.1327
  977MOL0     H31840   4.549   3.901  11.385 -0.6675 -0.5262 -1.6187
  977MOL0     H31841   4.570   3.737  11.348 -1.1789 -0.0920  0.9299
  977MOL0     H31842   4.817   3.765  11.353  1.3345 -0.3346 -0.5412
  977MOL0     H31843   4.801   3.940  11.381  1.4194 -2.2667 -3.5403
  977MOL0     H31844   4.695   3.713  11.559 -0.6631 -0.0224  4.5001
  977MOL0     H31845   4.701   3.882  11.611 -0.0244 -0.0434  0.5667
  977MOL0     H31846   4.968   3.610  11.543  0.6990 -1.4941  1.4454
  977MOL0     H31847   5.252   3.669  11.757 -2.0318  2.1393  0.5178
  977MOL0     H31848   5.215   3.582  11.619 -0.0175 -0.5216 -1.4306
  977MOL0     H31849   5.373   3.847  11.668  2.6448 -2.9869  1.4467
  977MOL0     H31850   5.340   3.826  11.505  3.0435  1.2911 -0.1133
  977MOL0     H31851   5.503   3.653  11.683 -0.2284  2.6015  0.7413
  977MOL0     H31852   5.563   3.750  11.551 -0.0282  0.8593  0.6441
  977MOL0     H31853   5.504   3.595  11.379 -0.0903 -0.7609  0.9764
  977MOL0     H31854   5.363   3.523  11.480  0.5091 -0.6486  2.0566
  977MOL0     H31855   5.743   3.607  11.645  0.1024  1.1953 -0.1361
  977MOL0     H31856   5.947   3.634  11.733  0.1736 -0.5055  0.7554
  977MOL0     H31857   6.053   3.503  11.724  1.4180  1.1748  0.4532
  977MOL0     H31858   6.058   3.640  11.609  1.8154  0.8303  4.6958
  977MOL0     H31859   6.226   3.129  11.461  0.6686  0.2778  0.3972
  977MOL0     H31860   6.438   3.020  11.403 -0.2514  0.4953  0.4216
  977MOL0     H31861   6.551   2.971  10.978  2.7474 -1.1945 -0.8995
  977MOL0     H31862   6.645   3.114  11.015 -0.9572  0.6019 -0.7569
  977MOL0     H31863   6.755   2.881  10.947  2.0410 -1.3412  0.1353
  977MOL0     H31864   6.829   2.984  11.077 -1.1379  1.5794 -1.2157
  977MOL0     H31865   6.645   2.762  11.149 -0.6200  1.4759 -0.4211
  977MOL0     H31866   6.733   2.865  11.255 -1.9896  0.4373  0.4374
  977MOL0     H31867   6.886   2.672  11.070 -2.2761  0.1230 -1.3093
  977MOL0     H31868   6.937   2.817  11.159 -1.7963  0.2181  0.7000
  977MOL0     H31869   6.774   2.595  11.288  0.2310 -0.3961  1.5447
  977MOL0     H31870   6.853   2.724  11.370 -1.8017  0.4708 -0.5968
  977MOL0     H31871   7.067   2.652  11.273  0.3797  0.3541  0.1064
  977MOL0     H31872   7.015   2.537  11.404  0.7304  0.4725 -0.0481
  977MOL0     H31873   6.939   2.479  11.122  0.1456  1.1854  0.2502
  977MOL0     H31874   6.971   2.376  11.259 -2.4510  1.9326  0.2730
  977MOL0     H31875   7.154   2.348  11.072  1.6579  0.0671 -1.2869
  977MOL0     H31876   7.219   2.403  11.221 -1.2656  0.4064  0.8743
  977MOL0     H31877   6.414   3.194  10.999  3.0822  2.2211  1.7394
  977MOL0     H31878   6.234   3.335  11.075 -1.2354 -0.4047 -0.0329
  977MOL0     H31879   5.885   3.305  11.278 -1.4711 -0.2532 -0.8622
  977MOL0     H31880   5.640   3.349  11.327 -2.4590  1.5914  0.9392
  977MOL0     H31881   4.171   4.055  10.701  4.5252  0.6177 -1.2653
  977MOL0     H31882   4.130   4.122  10.466 -1.1864 -0.4723 -0.3760
  977MOL0     H31883   4.085   3.973   9.995 -0.4901 -0.4639 -1.9011
  977MOL0     H31884   3.981   3.993   9.774 -3.0209 -1.3012 -2.5448
  977MOL0     H31885   3.879   4.250   9.688  0.2842 -0.8692  1.3526
  977MOL0     H31886   3.877   4.106   9.581 -0.3019 -0.1628 -1.3622
  977MOL0     H31887   3.664   4.319   9.620  0.9334  0.7118 -2.4694
  977MOL0     H31888   3.632   4.182   9.515 -2.3058  1.7294  0.6156
  977MOL0     H31889   3.894   4.345   9.460 -0.4534  0.3385  0.9912
  977MOL0     H31890   3.727   4.417   9.430 -0.2091  0.2584 -1.3071
  977MOL0     H31891   3.839   4.168   9.325  2.9232  1.1417  1.4942
  977MOL0     H31892   3.859   4.327   9.236  0.4444 -1.3569 -2.4258
  977MOL0     H31893   3.468   4.140   9.179  0.3293  0.9339 -1.2446
  977MOL0     H31894   3.617   4.112   9.963  0.5599  1.5949  1.6968
  977MOL0     H31895   3.713   4.074  10.183 -0.3224 -0.5607 -0.4554
  978MOL0     O31896   6.076  10.261   8.314 -0.4715 -0.3460 -0.3066
  978MOL0     C31897   6.076  10.269   8.440  0.1195 -0.2421  1.1548
  978MOL0     O31898   5.968  10.272   8.523 -0.4691 -1.0912  0.7827
  978MOL0     C31899   5.853  10.233   8.454  0.0345 -0.2009 -0.2943
  978MOL0     C31900   5.831  10.099   8.454  0.1128  0.0470  0.5080
  978MOL0     C31901   5.705  10.042   8.411  0.1151 -0.0102  0.3766
  978MOL0     C31902   5.614  10.125   8.358 -0.0949 -0.3352  0.3655
  978MOL0     O31903   5.484  10.077   8.335  0.2019  0.6582  0.3201
  978MOL0     C31904   5.486   9.957   8.263 -0.8434  0.2735  0.1433
  978MOL0     C31905   5.341   9.907   8.221  0.7306  0.3749  0.0035
  978MOL0     C31906   5.249   9.878   8.348 -0.1394  0.2641 -0.9299
  978MOL0     C31907   5.106   9.836   8.313 -1.1673 -0.3886  0.2801
  978MOL0     C31908   5.037   9.937   8.221  0.1158 -0.1397  0.2221
  978MOL0     C31909   4.877   9.943   8.256  0.2662 -0.4645  0.7107
  978MOL0     C31910   4.849   9.976   8.403 -0.2318 -0.0315 -0.0906
  978MOL0     C31911   4.698   9.979   8.426 -0.1250  1.2311  0.5900
  978MOL0     N31912   4.646  10.033   8.552  0.7689  0.5589  0.4715
  978MOL0     C31913   4.671   9.972   8.673  0.1557  0.1713  0.2856
  978MOL0     C31914   4.585  10.034   8.760 -0.4718  0.3713 -0.3361
  978MOL0     C31915   4.533   9.987   8.895 -0.0379  0.1251 -0.4089
  978MOL0     C31916   4.402   9.909   8.884 -0.5370  0.4299 -0.3369
  978MOL0     C31917   4.436   9.773   8.821 -0.7374 -0.6723 -0.2711
  978MOL0     C31918   4.324   9.682   8.838  1.0435  0.2018  0.4058
  978MOL0     O31919   4.327   9.636   8.975 -0.3391 -0.4786  0.1235
  978MOL0     C31920   4.204   9.619   9.039 -0.3914  0.3684 -0.2967
  978MOL0     C31921   4.075   9.654   8.995 -0.0851 -0.0769 -0.5957
  978MOL0     C31922   3.958   9.632   9.069  1.0843  0.1016 -0.6536
  978MOL0     C31923   3.818   9.665   9.016 -0.2714  0.5149 -0.8213
  978MOL0     C31924   3.967   9.576   9.204 -0.3724 -0.4828  0.6039
  978MOL0     C31925   3.858   9.554   9.304 -1.2381 -0.4728 -0.6211
  978MOL0     O31926   3.877   9.466   9.409 -0.3532 -0.0903  0.1773
  978MOL0     C31927   3.795   9.481   9.521 -0.1886  0.0062 -0.7719
  978MOL0     C31928   3.852   9.541   9.635  0.0732 -0.2362 -1.3142
  978MOL0     C31929   3.778   9.551   9.754 -0.6968  0.4293  0.2482
  978MOL0     C31930   3.641   9.531   9.751  0.0716  0.3018 -0.7793
  978MOL0     O31931   3.554   9.570   9.850 -0.2927  0.4297 -0.1063
  978MOL0     C31932   3.440   9.489   9.864 -0.1716 -0.5112 -0.9315
  978MOL0     C31933   3.370   9.480   9.992 -0.0672  0.2718 -0.3079
  978MOL0     C31934   3.283   9.605  10.007 -0.7365 -0.0882 -0.6848
  978MOL0     C31935   3.213   9.597  10.152 -0.2326 -0.7224 -0.0653
  978MOL0     C31936   3.064   9.631  10.166 -0.5902  0.3959  0.8240
  978MOL0     C31937   2.977   9.522  10.105  0.1978 -0.3674 -0.2500
  978MOL0     C31938   2.830   9.561  10.129  0.3503  0.0041  0.6624
  978MOL0     C31939   2.755   9.465  10.232  0.4472 -0.5092  0.3104
  978MOL0    Cl31940   2.594   9.526  10.255 -0.4896  0.3543 -0.2692
  978MOL0     C31941   3.583   9.483   9.634 -0.1132 -0.0585  0.1783
  978MOL0     C31942   3.660   9.445   9.517 -0.1202  0.8199 -0.3652
  978MOL0     O31943   3.763   9.631   9.299  0.7800 -0.1849  0.5624
  978MOL0     C31944   4.098   9.541   9.242 -0.9320  0.2758 -0.6531
  978MOL0     C31945   4.210   9.564   9.162  0.2452  0.0817  0.2615
  978MOL0     N31946   4.508  10.120   8.683 -0.5396  0.6069  0.7098
  978MOL0     N31947   4.544  10.122   8.568 -0.1656  0.6754  0.9614
  978MOL0     C31948   5.637  10.268   8.353  0.6550 -0.4846  0.5036
  978MOL0     C31949   5.753  10.317   8.405  0.3248 -0.0799 -0.4272
  978MOL0     C31950   6.211  10.303   8.504 -0.3369 -0.6059 -0.0188
  978MOL0     C31951   6.316  10.344   8.427  0.1390 -0.6073  0.1850
  978MOL0     C31952   6.433  10.377   8.487 -0.2577 -0.1771 -1.1961
  978MOL0     C31953   6.467  10.367   8.630 -0.1680  0.2207  0.0967
  978MOL0     O31954   6.581  10.410   8.699  0.0049  0.3104  0.3290
  978MOL0     C31955   6.709  10.384   8.631  0.2388 -1.4264  0.3519
  978MOL0     C31956   6.781  10.530   8.630  0.1416 -0.4759  0.2900
  978MOL0     C31957   6.780  10.608   8.768  0.2079 -0.1117  0.6953
  978MOL0     C31958   6.887  10.712   8.754 -0.8226  0.4138  0.3208
  978MOL0     C31959   6.905  10.791   8.880 -0.0154  0.1242  0.1342
  978MOL0     C31960   6.897  10.867   8.975 -0.2297  0.1210  0.1586
  978MOL0     C31961   6.359  10.315   8.701 -0.6154 -0.2989  0.7451
  978MOL0     C31962   6.235  10.280   8.638  0.3329  0.2600  1.0163
  978MOL0     H31963   5.905  10.027   8.487  1.5000  0.1383 -2.1871
  978MOL0     H31964   5.684   9.937   8.432  0.7492 -0.7298 -2.2118
  978MOL0     H31965   5.560   9.965   8.183 -0.8411 -2.5707 -0.2486
  978MOL0     H31966   5.505   9.871   8.328 -1.3840 -1.2413 -1.5978
  978MOL0     H31967   5.296   9.976   8.149  0.8367  1.0929  0.6212
  978MOL0     H31968   5.354   9.818   8.158 -1.3051  0.8343 -1.1524
  978MOL0     H31969   5.282   9.794   8.410 -0.8389 -3.2184 -4.7842
  978MOL0     H31970   5.240   9.973   8.400 -0.7027  0.0369 -0.6031
  978MOL0     H31971   5.118   9.745   8.254 -2.4398 -2.2165  2.6631
  978MOL0     H31972   5.045   9.805   8.399  2.0233  0.6065  3.1270
  978MOL0     H31973   5.082  10.035   8.239  1.6908 -0.7940 -0.0345
  978MOL0     H31974   5.039   9.918   8.114  1.1012 -0.4361  0.2883
  978MOL0     H31975   4.830  10.017   8.191 -1.3690 -1.8297  0.2791
  978MOL0     H31976   4.833   9.844   8.241  2.1915 -1.0480 -1.9255
  978MOL0     H31977   4.900   9.900   8.464  2.2081  0.3494 -1.5224
  978MOL0     H31978   4.885  10.076   8.427  1.4719 -0.1709 -1.8136
  978MOL0     H31979   4.668   9.873   8.421 -2.1394  1.7488  0.7245
  978MOL0     H31980   4.645  10.025   8.343  1.5796 -0.6938 -1.6995
  978MOL0     H31981   4.718   9.881   8.710 -1.8899 -0.8370  0.5718
  978MOL0     H31982   4.614   9.931   8.942  0.3511  1.9333  1.2557
  978MOL0     H31983   4.509  10.074   8.958  0.2827 -0.8626  1.1272
  978MOL0     H31984   4.332   9.957   8.816 -1.1661 -0.1352 -0.1043
  978MOL0     H31985   4.363   9.903   8.987 -0.8821  3.9443 -0.1459
  978MOL0     H31986   4.515   9.731   8.885 -1.2798 -0.6470  0.4273
  978MOL0     H31987   4.469   9.785   8.717  0.9002 -0.1488  0.2806
  978MOL0     H31988   4.343   9.590   8.783 -1.8259 -0.1293 -0.1494
  978MOL0     H31989   4.229   9.719   8.799  0.0669 -2.3974  0.1784
  978MOL0     H31990   4.066   9.712   8.904  1.2341  1.7778  0.3743
  978MOL0     H31991   3.799   9.766   9.056 -1.6731 -0.5233  1.3197
  978MOL0     H31992   3.806   9.655   8.908 -0.3433  1.0922 -0.8721
  978MOL0     H31993   3.746   9.595   9.059  1.8093 -2.5921 -2.0330
  978MOL0     H31994   3.956   9.563   9.660 -0.2595  1.0891 -1.0558
  978MOL0     H31995   3.820   9.581   9.849  0.6042  1.2254 -0.5583
  978MOL0     H31996   3.361   9.518   9.794 -0.6623  0.8788  0.1545
  978MOL0     H31997   3.457   9.384   9.837  1.7941 -0.1485 -1.2256
  978MOL0     H31998   3.302   9.395   9.982 -0.5202  0.4837  0.8608
  978MOL0     H31999   3.442   9.468  10.073 -0.3281  0.3527 -0.0628
  978MOL0     H32000   3.208   9.594   9.928 -1.4684 -0.4442  0.0386
  978MOL0     H32001   3.333   9.701   9.988 -2.9316  0.5946 -3.8497
  978MOL0     H32002   3.228   9.497  10.194 -3.2052 -0.6902  1.3158
  978MOL0     H32003   3.278   9.652  10.221  1.9323 -3.4209  0.2491
  978MOL0     H32004   3.046   9.722  10.108  0.8317  0.4233  0.3881
  978MOL0     H32005   3.050   9.661  10.270 -0.8423  3.0764  0.0932
  978MOL0     H32006   2.990   9.516   9.997  0.2757 -1.6887 -0.1915
  978MOL0     H32007   3.005   9.431  10.159 -1.6648 -1.4176 -0.9801
  978MOL0     H32008   2.772   9.565  10.036 -0.0139  3.2439  0.9042
  978MOL0     H32009   2.811   9.662  10.168 -3.6959 -0.6892  0.8599
  978MOL0     H32010   2.819   9.446  10.319  1.3396  2.4007  0.4194
  978MOL0     H32011   2.736   9.367  10.189  0.3863  0.4740 -2.0436
  978MOL0     H32012   3.476   9.465   9.638 -0.1639  0.4895  2.6294
  978MOL0     H32013   3.627   9.397   9.425  0.5303  2.5439 -1.5639
  978MOL0     H32014   4.109   9.486   9.335  1.3719  1.8182  0.0812
  978MOL0     H32015   4.305   9.522   9.195 -0.4444 -2.7473 -1.0217
  978MOL0     H32016   5.570  10.344   8.313  2.0501  2.5652  3.4333
  978MOL0     H32017   5.773  10.421   8.386  0.5289 -0.0208  0.0904
  978MOL0     H32018   6.294  10.369   8.324  1.1255 -2.2704 -0.4619
  978MOL0     H32019   6.510  10.419   8.423 -0.9328  0.1501 -1.8249
  978MOL0     H32020   6.765  10.318   8.697  0.8194 -1.0840  0.2096
  978MOL0     H32021   6.697  10.341   8.531  0.3237 -0.1117 -0.2589
  978MOL0     H32022   6.752  10.587   8.541 -1.0691  1.9937  2.1348
  978MOL0     H32023   6.884  10.495   8.621 -0.0276 -1.4731  1.8409
  978MOL0     H32024   6.787  10.535   8.849 -1.0281  0.1421  1.0544
  978MOL0     H32025   6.686  10.664   8.772  0.9485  1.4098 -1.5835
  978MOL0     H32026   6.853  10.788   8.683  0.1575  1.2918  0.7705
  978MOL0     H32027   6.979  10.669   8.712  0.4360  1.5806  1.7800
  978MOL0     H32028   6.898  10.933   9.060  0.6355  1.1503 -0.6298
  978MOL0     H32029   6.355  10.312   8.809 -2.4235 -1.6358  0.6800
  978MOL0     H32030   6.146  10.257   8.697 -2.2384  2.7298 -1.5611
  979MOL0     O32031   7.851  10.441   9.753  0.2528  0.5627  0.2717
  979MOL0     C32032   7.876  10.549   9.703 -0.6045 -0.1530  0.8646
  979MOL0     O32033   7.929  10.655   9.764 -0.2122  0.5021 -0.2292
  979MOL0     C32034   7.936  10.685   9.900  0.4915 -0.5215  0.6060
  979MOL0     C32035   7.975  10.821   9.919 -0.2829  0.2082 -0.4539
  979MOL0     C32036   8.008  10.863  10.049 -0.3116 -0.2763  0.5389
  979MOL0     C32037   7.996  10.777  10.156 -0.4769  0.3349 -0.3096
  979MOL0     O32038   8.011  10.834  10.284 -0.0288 -0.2454 -0.0519
  979MOL0     C32039   8.013  10.755  10.408 -1.3334 -0.0280 -0.3964
  979MOL0     C32040   8.022  10.838  10.530  0.0519 -0.2302  0.1942
  979MOL0     C32041   8.101  10.775  10.643 -0.3486  0.1266 -0.6476
  979MOL0     C32042   8.127  10.872  10.761  0.4204  0.4242  0.1040
  979MOL0     C32043   8.153  10.806  10.897  0.3595  0.8465 -0.1623
  979MOL0     C32044   8.160  10.911  11.003  1.0796  0.7396 -0.2440
  979MOL0     C32045   8.190  10.863  11.146 -0.3758  0.6082  0.0335
  979MOL0     C32046   8.331  10.811  11.178 -0.3517 -0.0583  0.2887
  979MOL0     N32047   8.422  10.922  11.143  0.3377  0.2676 -0.9146
  979MOL0     C32048   8.507  10.913  11.034  0.2546 -0.4680  0.0874
  979MOL0     C32049   8.599  11.011  11.057 -0.3311  0.1827  0.2428
  979MOL0     C32050   8.701  11.052  10.958 -0.3213  0.4103 -0.0135
  979MOL0     C32051   8.651  11.165  10.870 -0.5899 -0.2443 -0.5439
  979MOL0     C32052   8.762  11.231  10.778  0.3730 -0.2000  0.2881
  979MOL0     C32053   8.706  11.330  10.668  0.3069  0.6117  0.1457
  979MOL0     O32054   8.584  11.397  10.704 -0.6680  0.4152 -1.2492
  979MOL0     C32055   8.565  11.532  10.703  0.5284  0.1665 -0.3127
  979MOL0     C32056   8.657  11.618  10.763 -0.3401 -0.1704  0.2411
  979MOL0     C32057   8.614  11.754  10.776  0.3476 -0.0140 -0.4761
  979MOL0     C32058   8.704  11.851  10.840  0.3150 -0.0973  0.5082
  979MOL0     C32059   8.487  11.799  10.735  1.0151  0.5201  0.1508
  979MOL0     C32060   8.439  11.937  10.736 -0.5143  0.5661 -0.1096
  979MOL0     O32061   8.522  12.038  10.709 -0.8247  0.5059  0.1492
  979MOL0     C32062   8.483  12.159  10.669 -0.3995 -0.4338  1.3528
  979MOL0     C32063   8.574  12.259  10.682 -0.0388  0.4214  0.9260
  979MOL0     C32064   8.547  12.390  10.634 -0.1562  0.1860 -1.0898
  979MOL0     C32065   8.446  12.413  10.546 -0.6524 -0.8650 -0.3611
  979MOL0     O32066   8.420  12.541  10.504 -0.2272 -0.3180  0.3712
  979MOL0     C32067   8.289  12.570  10.461 -0.2654 -0.2649  0.1925
  979MOL0     C32068   8.268  12.563  10.306 -0.4045 -0.6649  0.7816
  979MOL0     C32069   8.122  12.609  10.269 -0.0500  0.6486  0.7577
  979MOL0     C32070   8.096  12.610  10.113  0.8881  0.3906  0.3822
  979MOL0     C32071   8.184  12.705  10.037  0.3628 -0.1451  0.7877
  979MOL0     C32072   8.152  12.732   9.891 -0.2216  0.3211 -0.2772
  979MOL0     C32073   8.190  12.609   9.814 -0.7879 -1.0159 -0.7157
  979MOL0     C32074   8.131  12.625   9.677  0.0752  0.0930  0.7047
  979MOL0    Cl32075   8.266  12.678   9.579  0.2279  0.0120  0.1829
  979MOL0     C32076   8.364  12.304  10.520 -0.2359  0.1712 -0.3087
  979MOL0     C32077   8.385  12.182  10.573 -0.3735 -0.5910 -0.6445
  979MOL0     O32078   8.320  11.946  10.751 -0.0552  0.2408 -0.5873
  979MOL0     C32079   8.400  11.699  10.683  0.9501 -0.2691  0.3327
  979MOL0     C32080   8.439  11.569  10.669  0.3930 -0.8207  0.3843
  979MOL0     N32081   8.571  11.078  11.171 -0.4574  0.1563 -0.4777
  979MOL0     N32082   8.462  11.029  11.218  0.6176 -0.1686 -0.0657
  979MOL0     C32083   7.966  10.638  10.135 -0.0008  0.3665  0.0073
  979MOL0     C32084   7.929  10.596  10.007  0.0364  0.2820  0.3704
  979MOL0     C32085   7.855  10.561   9.549 -0.8657 -0.6661  0.6329
  979MOL0     C32086   7.847  10.455   9.452  0.3654 -0.2336  0.7848
  979MOL0     C32087   7.821  10.487   9.315  1.3470  0.5682  0.1090
  979MOL0     C32088   7.817  10.620   9.269 -0.1180 -0.2086 -0.0479
  979MOL0     O32089   7.787  10.645   9.136  0.3031  0.7709  0.0228
  979MOL0     C32090   7.818  10.775   9.067 -0.6388  0.2257 -1.2669
  979MOL0     C32091   7.953  10.822   9.073 -0.2774  0.3154  0.2032
  979MOL0     C32092   8.050  10.771   8.963  0.4236  0.3613  0.0050
  979MOL0     C32093   8.076  10.857   8.849  0.2177 -0.1784 -0.5521
  979MOL0     C32094   7.953  10.872   8.766 -0.5415 -0.0844  0.0101
  979MOL0     C32095   7.858  10.877   8.685  1.0919  0.1943  0.0403
  979MOL0     C32096   7.820  10.729   9.362  0.9456 -0.3842 -0.9572
  979MOL0     C32097   7.837  10.698   9.498  0.1079 -0.9409 -0.6449
  979MOL0     H32098   7.999  10.886   9.836 -1.1124  0.5794 -0.4099
  979MOL0     H32099   8.043  10.964  10.067 -2.2916  0.6068 -0.2705
  979MOL0     H32100   7.919  10.700  10.413 -2.4511  1.8715  1.7442
  979MOL0     H32101   8.098  10.686  10.404 -1.0820  0.2021  0.5036
  979MOL0     H32102   8.080  10.927  10.506 -0.7414 -0.0180 -1.0371
  979MOL0     H32103   7.925  10.875  10.564  0.1136  0.8865 -0.7941
  979MOL0     H32104   8.036  10.691  10.669  0.7109 -0.2634  0.8763
  979MOL0     H32105   8.195  10.724  10.621  1.4308  1.9786  1.9975
  979MOL0     H32106   8.216  10.932  10.740  0.7848 -0.7139 -1.8166
  979MOL0     H32107   8.038  10.929  10.788  0.6973 -0.8941  4.7037
  979MOL0     H32108   8.075  10.735  10.925  2.2721 -1.3450 -0.0537
  979MOL0     H32109   8.243  10.745  10.883 -1.2508 -2.3233  2.1645
  979MOL0     H32110   8.225  10.996  10.981 -0.8455  1.8642 -2.0276
  979MOL0     H32111   8.059  10.952  11.018  0.7733 -0.3253  0.6904
  979MOL0     H32112   8.161  10.947  11.209 -0.4862  0.1121  0.6531
  979MOL0     H32113   8.120  10.782  11.169  2.1869 -1.7974 -0.0912
  979MOL0     H32114   8.346  10.718  11.123 -1.9036 -0.7616  0.9951
  979MOL0     H32115   8.342  10.796  11.286 -0.9897  4.0089  1.0743
  979MOL0     H32116   8.500  10.857  10.942 -3.1148  2.4606 -1.6652
  979MOL0     H32117   8.794  11.086  11.005 -2.1069  1.7844  2.7624
  979MOL0     H32118   8.721  10.977  10.881  1.3621  0.3407  0.4536
  979MOL0     H32119   8.619  11.241  10.941  1.2079  0.7111 -0.6881
  979MOL0     H32120   8.566  11.126  10.813  1.4988 -2.6540 -2.2815
  979MOL0     H32121   8.809  11.152  10.719 -0.9802 -0.7620 -0.0514
  979MOL0     H32122   8.834  11.291  10.835 -0.3010  0.6837  0.2430
  979MOL0     H32123   8.675  11.268  10.583  1.6145 -0.5756  0.4989
  979MOL0     H32124   8.788  11.397  10.639  1.5391  0.4997  3.0369
  979MOL0     H32125   8.755  11.586  10.799  0.8281  2.0139 -0.7646
  979MOL0     H32126   8.793  11.804  10.885  3.0826  1.1635 -3.1623
  979MOL0     H32127   8.746  11.922  10.768  1.1138 -0.0951  0.9549
  979MOL0     H32128   8.655  11.910  10.918 -0.7364  0.3025 -0.4468
  979MOL0     H32129   8.651  12.247  10.757  0.4883  1.1290  0.5149
  979MOL0     H32130   8.609  12.475  10.662 -1.2185 -0.5991  5.1993
  979MOL0     H32131   8.210  12.516  10.514 -1.3508  0.5602 -0.5549
  979MOL0     H32132   8.264  12.670  10.495 -0.2409 -0.9148  2.2536
  979MOL0     H32133   8.346  12.622  10.256 -0.1037 -1.6727  0.0222
  979MOL0     H32134   8.277  12.460  10.269 -1.3796 -0.3302 -0.4145
  979MOL0     H32135   8.102  12.713  10.297 -0.2350  1.0505 -0.7733
  979MOL0     H32136   8.041  12.551  10.314  0.7104 -0.9632  0.1118
  979MOL0     H32137   8.084  12.509  10.072  2.2582 -0.3634  1.7399
  979MOL0     H32138   7.998  12.657  10.104  1.5827  1.7782 -0.2604
  979MOL0     H32139   8.288  12.673  10.046  1.0225  1.1084 -1.6209
  979MOL0     H32140   8.176  12.799  10.094  0.6938  0.3859 -0.0345
  979MOL0     H32141   8.048  12.762   9.878 -0.0112  0.8707 -0.7642
  979MOL0     H32142   8.213  12.817   9.857  1.0131 -0.2137  0.5165
  979MOL0     H32143   8.148  12.518   9.858  1.1101 -1.2677  0.6948
  979MOL0     H32144   8.298  12.595   9.824 -0.9733 -0.8405  3.3736
  979MOL0     H32145   8.044  12.690   9.679 -0.1199 -0.1712  1.6733
  979MOL0     H32146   8.110  12.529   9.629 -0.2508 -0.7098  2.3724
  979MOL0     H32147   8.275  12.318  10.460 -1.6255  1.9523  1.9721
  979MOL0     H32148   8.307  12.108  10.557  0.1126 -1.3752  0.5218
  979MOL0     H32149   8.298  11.721  10.652  0.1554 -4.1496 -0.3222
  979MOL0     H32150   8.364  11.502  10.627 -3.1354  2.8816  0.1916
  979MOL0     H32151   7.978  10.563  10.213 -2.5640 -3.4646 -2.9179
  979MOL0     H32152   7.914  10.489   9.995 -1.6431  0.4675  0.6587
  979MOL0     H32153   7.866  10.352   9.483  2.1695 -0.5359 -1.0903
  979MOL0     H32154   7.809  10.420   9.230  0.0342  1.1898 -0.2167
  979MOL0     H32155   7.779  10.777   8.965  0.9870  2.7365 -1.9372
  979MOL0     H32156   7.771  10.855   9.126 -2.2008 -0.5525 -1.4011
  979MOL0     H32157   7.999  10.800   9.169  2.8845  2.9972 -0.5114
  979MOL0     H32158   7.951  10.931   9.066  0.8095  0.3698  0.6294
  979MOL0     H32159   8.013  10.673   8.928  1.7924 -0.1775  0.0138
  979MOL0     H32160   8.143  10.743   9.012  0.0223 -0.0750  0.5314
  979MOL0     H32161   8.150  10.803   8.789  2.2131  1.6692  0.1366
  979MOL0     H32162   8.118  10.955   8.872 -0.2632  0.7229 -3.1348
  979MOL0     H32163   7.780  10.891   8.613  1.1175  2.6809  0.3825
  979MOL0     H32164   7.799  10.829   9.328  1.0055 -0.5909 -1.6152
  979MOL0     H32165   7.838  10.787   9.560 -0.0566 -1.0798 -0.4411
  980MOL0     O32166   3.960   7.602   2.791  0.6473  0.4550  0.1388
  980MOL0     C32167   3.945   7.529   2.889 -1.1895 -0.1622  0.1873
  980MOL0     O32168   3.828   7.501   2.940 -0.4973  0.5674 -0.5491
  980MOL0     C32169   3.730   7.596   2.914  0.1837  0.2023 -0.0470
  980MOL0     C32170   3.661   7.585   2.795  0.0492  0.0043  0.2766
  980MOL0     C32171   3.569   7.684   2.775 -0.6621  0.4236  0.4005
  980MOL0     C32172   3.527   7.786   2.857  0.5697  0.6795  0.2785
  980MOL0     O32173   3.433   7.881   2.830 -0.0386  0.1477  0.1737
  980MOL0     C32174   3.413   8.003   2.902 -0.2828  0.0717 -0.5181
  980MOL0     C32175   3.336   8.092   2.816 -0.5340 -0.5169 -0.6474
  980MOL0     C32176   3.278   8.215   2.891 -0.0804 -1.0082 -0.2959
  980MOL0     C32177   3.397   8.309   2.941 -0.4567  0.0170 -0.4735
  980MOL0     C32178   3.334   8.431   3.018  0.6980 -0.2160  0.2438
  980MOL0     C32179   3.437   8.538   3.061  0.1459 -0.1649 -0.3991
  980MOL0     C32180   3.346   8.655   3.109 -0.1027 -0.9258 -0.2759
  980MOL0     C32181   3.421   8.791   3.114 -0.5462  0.3208 -0.3938
  980MOL0     N32182   3.331   8.899   3.153  0.4680  0.0387  0.6045
  980MOL0     C32183   3.270   8.929   3.270 -0.1046  0.1440  0.4224
  980MOL0     C32184   3.220   9.048   3.270  0.1597 -0.1396 -0.2125
  980MOL0     C32185   3.149   9.117   3.382  0.7954 -0.2932 -0.2311
  980MOL0     C32186   3.240   9.216   3.451 -0.7822 -0.0905  0.3967
  980MOL0     C32187   3.229   9.356   3.383  0.0010 -0.0001 -0.3112
  980MOL0     C32188   3.307   9.455   3.460  0.0291 -0.6333 -0.8266
  980MOL0     O32189   3.448   9.407   3.487  1.4054  0.2865  0.2178
  980MOL0     C32190   3.533   9.475   3.567  0.0879  0.0209  0.1339
  980MOL0     C32191   3.504   9.592   3.637 -0.2994  0.3595 -0.6140
  980MOL0     C32192   3.608   9.658   3.711 -0.0807 -0.0350  0.0629
  980MOL0     C32193   3.563   9.772   3.799 -0.6597  0.6781  0.0034
  980MOL0     C32194   3.747   9.618   3.691 -0.6245 -0.3283 -1.7206
  980MOL0     C32195   3.859   9.695   3.749  0.0621 -0.1329 -0.5844
  980MOL0     O32196   3.966   9.621   3.764  0.1569  0.2226 -0.2200
  980MOL0     C32197   4.085   9.684   3.766  0.5497 -0.1181  0.1869
  980MOL0     C32198   4.143   9.748   3.656 -0.0695 -0.0205 -0.4502
  980MOL0     C32199   4.274   9.791   3.666 -0.4714  0.7567  1.0000
  980MOL0     C32200   4.364   9.754   3.776  0.8273 -0.4933 -1.0976
  980MOL0     O32201   4.494   9.776   3.758  0.0445 -0.4857 -0.8445
  980MOL0     C32202   4.576   9.753   3.867 -0.2455  0.7345  0.1114
  980MOL0     C32203   4.719   9.770   3.827  0.4601  0.7009 -0.4425
  980MOL0     C32204   4.730   9.903   3.737  0.3518 -0.1876  0.3804
  980MOL0     C32205   4.855   9.898   3.653  0.2141 -0.5053  0.0792
  980MOL0     C32206   4.900  10.040   3.602  1.1650 -0.3985  0.2176
  980MOL0     C32207   5.055  10.072   3.560  1.4946  0.1784  0.7535
  980MOL0     C32208   5.071  10.222   3.528 -0.7154  0.3224  0.7619
  980MOL0     C32209   5.217  10.251   3.497  0.2684  0.3868 -0.7182
  980MOL0    Cl32210   5.244  10.425   3.504 -0.3497  0.1677  0.1816
  980MOL0     C32211   4.287   9.727   3.895 -0.4593  0.1059  0.2771
  980MOL0     C32212   4.152   9.687   3.885 -0.1192  0.8095 -0.0115
  980MOL0     O32213   3.848   9.816   3.784 -0.4199 -0.3147 -0.2242
  980MOL0     C32214   3.768   9.499   3.625  0.1183  0.4477  0.2780
  980MOL0     C32215   3.664   9.429   3.564 -0.5198 -0.4086  0.1571
  980MOL0     N32216   3.238   9.100   3.137 -0.1540  0.4173  0.4680
  980MOL0     N32217   3.304   9.005   3.074  0.4110  0.0903 -0.6079
  980MOL0     C32218   3.579   7.777   2.985 -0.2615  0.6386  0.2305
  980MOL0     C32219   3.680   7.684   3.014 -0.5053  0.1273  0.9588
  980MOL0     C32220   4.070   7.482   2.956  0.6023  0.5765 -0.5604
  980MOL0     C32221   4.186   7.503   2.886  0.1365 -0.2750  0.0499
  980MOL0     C32222   4.310   7.460   2.939 -0.1476 -0.9487  0.1702
  980MOL0     C32223   4.316   7.394   3.062  0.1526  0.3154 -0.4159
  980MOL0     O32224   4.430   7.348   3.126  0.2107  0.4810  0.7514
  980MOL0     C32225   4.552   7.391   3.078  0.5316 -0.5175 -0.3968
  980MOL0     C32226   4.656   7.346   3.183 -0.1191 -0.0866  0.7492
  980MOL0     C32227   4.644   7.195   3.215 -0.3354  0.1787 -0.1979
  980MOL0     C32228   4.774   7.152   3.287 -0.4236 -0.7600  0.4553
  980MOL0     C32229   4.762   7.011   3.326 -0.0348  0.3559  0.4861
  980MOL0     C32230   4.730   6.897   3.340 -1.1844  0.4548  0.4077
  980MOL0     C32231   4.193   7.373   3.130 -0.3184 -0.4008 -0.9698
  980MOL0     C32232   4.069   7.417   3.079 -0.2005  0.3785  0.0661
  980MOL0     H32233   3.680   7.500   2.731 -0.3837  1.1905 -1.5100
  980MOL0     H32234   3.522   7.685   2.677 -0.4186 -0.8560  0.2481
  980MOL0     H32235   3.362   7.979   2.996 -0.9671 -0.6541 -1.0654
  980MOL0     H32236   3.502   8.051   2.943 -4.1974  4.5718  4.3303
  980MOL0     H32237   3.395   8.123   2.730  1.6480 -1.3752  0.4681
  980MOL0     H32238   3.252   8.031   2.782  2.4643 -3.6254 -3.1676
  980MOL0     H32239   3.213   8.279   2.830 -0.1914  0.7824  1.6118
  980MOL0     H32240   3.214   8.175   2.970 -1.8349  0.7308 -0.7362
  980MOL0     H32241   3.453   8.250   3.014  1.4893  2.9790  0.5997
  980MOL0     H32242   3.464   8.345   2.862  1.5201  1.2916  1.6657
  980MOL0     H32243   3.257   8.473   2.953  1.0270  0.3432  0.2103
  980MOL0     H32244   3.275   8.391   3.101  2.1545 -0.3829  1.2458
  980MOL0     H32245   3.502   8.504   3.142  0.1092  1.5836  0.3924
  980MOL0     H32246   3.503   8.577   2.984  1.9456 -2.0100  0.1118
  980MOL0     H32247   3.272   8.667   3.030  0.4060 -0.4951 -0.6978
  980MOL0     H32248   3.287   8.638   3.199 -2.1063 -0.0072 -1.3422
  980MOL0     H32249   3.466   8.816   3.017  1.5383 -0.1674  0.4080
  980MOL0     H32250   3.503   8.780   3.186 -0.4528 -1.7179 -0.7407
  980MOL0     H32251   3.266   8.870   3.361 -0.4183 -1.4709 -0.5888
  980MOL0     H32252   3.065   9.176   3.346 -0.1289 -0.9491  0.7810
  980MOL0     H32253   3.105   9.047   3.455  2.1422 -1.6553 -0.6679
  980MOL0     H32254   3.340   9.172   3.449 -0.9970 -0.6678  1.4644
  980MOL0     H32255   3.207   9.231   3.555 -1.4213  1.5061 -0.0070
  980MOL0     H32256   3.123   9.384   3.386  0.6384  2.7735 -0.9677
  980MOL0     H32257   3.269   9.350   3.281  3.3847  1.4782  0.7935
  980MOL0     H32258   3.250   9.488   3.547  0.2608  3.3902 -1.9996
  980MOL0     H32259   3.315   9.553   3.413  1.1139 -0.7879 -0.9947
  980MOL0     H32260   3.402   9.630   3.637  0.0564  1.3412 -1.2684
  980MOL0     H32261   3.460   9.753   3.829  0.3922 -2.3031  2.2243
  980MOL0     H32262   3.632   9.769   3.884  1.1949  1.0060 -1.4179
  980MOL0     H32263   3.569   9.873   3.757  1.9016  1.1352  1.2752
  980MOL0     H32264   4.092   9.764   3.562  1.1542  2.2135 -0.8075
  980MOL0     H32265   4.332   9.834   3.585  2.3603 -0.3439  2.3193
  980MOL0     H32266   4.542   9.816   3.950  0.8087  1.7906 -0.2321
  980MOL0     H32267   4.578   9.652   3.908 -0.3047  0.3869 -0.7224
  980MOL0     H32268   4.779   9.771   3.919 -1.3424  0.3555  0.7917
  980MOL0     H32269   4.745   9.684   3.764  2.3313  0.9688 -0.1087
  980MOL0     H32270   4.721   9.996   3.793  0.7783 -1.2565  2.3201
  980MOL0     H32271   4.652   9.913   3.660 -1.8376  2.4990  2.7413
  980MOL0     H32272   4.935   9.851   3.710 -0.8007  0.4948  2.4293
  980MOL0     H32273   4.830   9.835   3.567  2.3519 -1.0742 -0.1841
  980MOL0     H32274   4.869  10.104   3.685 -3.2200  1.2537 -2.3479
  980MOL0     H32275   4.823  10.062   3.528  0.9856  0.7987  0.7269
  980MOL0     H32276   5.111  10.036   3.646 -1.9067 -4.2273  1.4824
  980MOL0     H32277   5.077  10.010   3.473 -2.8500 -2.7883  1.4421
  980MOL0     H32278   5.030  10.283   3.608  0.6306 -1.0055  2.5742
  980MOL0     H32279   5.018  10.253   3.437 -1.2100 -2.1730  0.1149
  980MOL0     H32280   5.235  10.230   3.391  1.3665  0.0834 -0.4897
  980MOL0     H32281   5.292  10.215   3.569  0.4685  0.8658 -0.6887
  980MOL0     H32282   4.339   9.737   3.990  3.3092 -1.6623 -1.3822
  980MOL0     H32283   4.098   9.661   3.976  1.1056 -1.2158  0.1713
  980MOL0     H32284   3.861   9.443   3.615  0.3674  0.5197  1.9052
  980MOL0     H32285   3.684   9.333   3.518  0.3253  1.5678 -4.1049
  980MOL0     H32286   3.534   7.843   3.059  0.7603  2.5794 -0.8040
  980MOL0     H32287   3.731   7.682   3.110  0.0905 -2.1186  0.6495
  980MOL0     H32288   4.191   7.545   2.786 -3.5069 -0.1524 -0.2021
  980MOL0     H32289   4.408   7.478   2.896 -0.1549  1.0407  0.8627
  980MOL0     H32290   4.573   7.346   2.981  1.2670  2.6195 -1.8129
  980MOL0     H32291   4.536   7.499   3.075 -1.3806 -0.4745  3.6386
  980MOL0     H32292   4.641   7.402   3.275 -0.3737  1.6546 -0.3031
  980MOL0     H32293   4.755   7.371   3.145  0.4652 -1.5604  1.2217
  980MOL0     H32294   4.624   7.139   3.123 -2.2025 -0.2643  0.4482
  980MOL0     H32295   4.564   7.185   3.289 -1.7266 -0.2588 -1.7170
  980MOL0     H32296   4.783   7.219   3.373 -0.4345  0.9252 -0.8062
  980MOL0     H32297   4.856   7.168   3.216  0.7957  4.0816  2.4886
  980MOL0     H32298   4.721   6.791   3.350  1.9231 -0.1706 -1.9969
  980MOL0     H32299   4.198   7.332   3.231 -0.2603 -0.9154 -1.1824
  980MOL0     H32300   3.978   7.415   3.139 -0.4206 -0.9164 -0.2749
  981MOL0     O32301   5.957   5.784   2.973  0.3925 -0.5202 -0.7502
  981MOL0     C32302   6.036   5.880   2.975 -1.0378 -0.4751 -0.0498
  981MOL0     O32303   6.167   5.881   3.028 -0.6891  0.5077 -0.4885
  981MOL0     C32304   6.201   5.758   3.088 -0.7181 -1.0104  0.2086
  981MOL0     C32305   6.305   5.686   3.031 -0.5296 -0.8177  0.7400
  981MOL0     C32306   6.348   5.569   3.097 -0.3574 -0.4592 -0.1947
  981MOL0     C32307   6.267   5.509   3.202 -0.6045  0.3793 -0.1155
  981MOL0     O32308   6.314   5.384   3.244 -0.1011  0.1928  0.5553
  981MOL0     C32309   6.297   5.364   3.382  0.2049 -0.9050 -0.2141
  981MOL0     C32310   6.324   5.219   3.420 -0.0979 -0.1954 -0.1201
  981MOL0     C32311   6.293   5.187   3.563 -0.3318  0.3603  0.7108
  981MOL0     C32312   6.351   5.046   3.608 -0.0560 -0.3813 -0.1021
  981MOL0     C32313   6.514   5.044   3.622  1.0572  0.0962 -0.1960
  981MOL0     C32314   6.562   4.937   3.719 -1.1420 -0.5361 -0.6154
  981MOL0     C32315   6.703   4.943   3.772 -0.0677  0.5320  0.1775
  981MOL0     C32316   6.758   5.076   3.806  0.4189 -0.1928  0.1824
  981MOL0     N32317   6.695   5.128   3.934 -0.5999  0.3919  0.1224
  981MOL0     C32318   6.763   5.111   4.055  0.3940  1.1007 -0.0551
  981MOL0     C32319   6.687   5.168   4.149  0.0362 -0.0624  0.6931
  981MOL0     C32320   6.719   5.179   4.292 -0.8730 -0.9458 -0.8633
  981MOL0     C32321   6.820   5.286   4.344 -0.6245  0.3855 -0.8133
  981MOL0     C32322   6.764   5.424   4.305 -0.2617 -0.1290  0.4911
  981MOL0     C32323   6.854   5.545   4.344  0.6282 -0.2238 -0.1639
  981MOL0     O32324   6.991   5.538   4.303 -0.6456 -0.1912 -0.4903
  981MOL0     C32325   7.097   5.547   4.385  1.0815  0.7150  1.1580
  981MOL0     C32326   7.097   5.537   4.523 -0.9542  0.7895 -0.3714
  981MOL0     C32327   7.205   5.535   4.596 -0.5814  0.4315  0.3371
  981MOL0     C32328   7.198   5.502   4.750 -0.2616  0.0241 -1.0175
  981MOL0     C32329   7.334   5.552   4.535 -0.8843  0.1572  0.6235
  981MOL0     C32330   7.451   5.544   4.616 -0.6545  1.0897  0.1235
  981MOL0     O32331   7.550   5.472   4.555  0.3829  0.2231 -0.2939
  981MOL0     C32332   7.683   5.490   4.589 -0.4255  0.7533 -0.5853
  981MOL0     C32333   7.736   5.441   4.713 -0.2641 -0.0312 -0.3963
  981MOL0     C32334   7.875   5.460   4.736 -0.1246 -1.1073  0.1407
  981MOL0     C32335   7.963   5.508   4.648 -0.1537  0.1893  0.5378
  981MOL0     O32336   8.094   5.528   4.656  0.0536 -0.0429 -0.4137
  981MOL0     C32337   8.157   5.423   4.729 -1.0303  0.3755 -0.1791
  981MOL0     C32338   8.301   5.422   4.688  0.2210  0.1501  0.0900
  981MOL0     C32339   8.393   5.330   4.767 -0.6639 -0.2020 -0.5325
  981MOL0     C32340   8.393   5.185   4.705 -0.3234 -0.4300  0.0784
  981MOL0     C32341   8.466   5.092   4.794 -0.1700  0.0826  0.3000
  981MOL0     C32342   8.439   4.948   4.751  0.3966  1.0335 -0.4011
  981MOL0     C32343   8.502   4.838   4.837 -0.2909 -0.6223  0.4519
  981MOL0     C32344   8.493   4.702   4.768 -0.1164  0.0097 -0.0098
  981MOL0    Cl32345   8.323   4.656   4.763  0.5952  0.2664 -0.7571
  981MOL0     C32346   7.909   5.547   4.528  0.4735 -0.2594 -0.2278
  981MOL0     C32347   7.779   5.533   4.497  0.3041  0.1171  1.3387
  981MOL0     O32348   7.469   5.619   4.712  0.1539  0.7222  0.7111
  981MOL0     C32349   7.338   5.571   4.398 -0.8033 -0.0045 -0.1304
  981MOL0     C32350   7.225   5.569   4.321 -0.1433 -0.0439 -0.5156
  981MOL0     N32351   6.576   5.214   4.079 -0.2567  0.4214  0.3253
  981MOL0     N32352   6.581   5.191   3.951 -0.0694 -0.4591  0.3086
  981MOL0     C32353   6.158   5.577   3.248 -0.4587 -0.1348  0.1042
  981MOL0     C32354   6.136   5.703   3.195 -0.2299 -0.4336 -0.7155
  981MOL0     C32355   5.985   5.998   2.906 -0.5667 -0.6150  0.2753
  981MOL0     C32356   6.081   6.094   2.859  0.4463 -0.0873 -0.3271
  981MOL0     C32357   6.041   6.212   2.795 -0.2271 -0.5323  0.2827
  981MOL0     C32358   5.899   6.228   2.774 -0.5485 -0.8120  0.0541
  981MOL0     O32359   5.847   6.344   2.715 -0.1576  0.3468  0.0174
  981MOL0     C32360   5.935   6.445   2.648  0.2021  0.3263  0.7038
  981MOL0     C32361   5.908   6.438   2.501  0.0308  0.5794  0.7259
  981MOL0     C32362   5.769   6.462   2.440  0.2154  0.0857  0.4021
  981MOL0     C32363   5.786   6.527   2.297 -0.6490 -0.3201 -0.0185
  981MOL0     C32364   5.655   6.563   2.253 -0.1600 -0.2242 -0.0351
  981MOL0     C32365   5.543   6.574   2.218  0.0632 -0.6693  0.3821
  981MOL0     C32366   5.810   6.133   2.814  0.1023 -0.1588 -0.4712
  981MOL0     C32367   5.853   6.021   2.887 -0.7903 -0.0274  0.1124
  981MOL0     H32368   6.343   5.719   2.935 -2.2821  2.8632  1.1255
  981MOL0     H32369   6.432   5.509   3.064 -3.2464 -3.4140 -2.8138
  981MOL0     H32370   6.367   5.430   3.435 -1.7393  0.2067  1.1016
  981MOL0     H32371   6.192   5.377   3.410  0.2292 -0.3519 -0.3629
  981MOL0     H32372   6.260   5.153   3.360 -2.2591 -0.7619  2.5995
  981MOL0     H32373   6.428   5.191   3.400  1.4267  3.0258  2.3215
  981MOL0     H32374   6.325   5.267   3.631  1.5184  2.9134 -2.8627
  981MOL0     H32375   6.185   5.179   3.572 -0.4533  2.8525  2.5256
  981MOL0     H32376   6.309   5.026   3.707 -1.2426 -0.2411 -0.5670
  981MOL0     H32377   6.309   4.964   3.549 -2.4731 -0.1154  1.1016
  981MOL0     H32378   6.554   5.019   3.523 -1.9729  0.2892 -1.5733
  981MOL0     H32379   6.542   5.146   3.651 -1.5450  1.9656 -3.5263
  981MOL0     H32380   6.499   4.956   3.806  2.4496  0.3888  2.0016
  981MOL0     H32381   6.539   4.840   3.672  0.7925  0.5264 -4.1853
  981MOL0     H32382   6.710   4.870   3.853 -2.8821 -0.9062 -0.7250
  981MOL0     H32383   6.772   4.899   3.699  1.6674 -1.0727  2.6489
  981MOL0     H32384   6.743   5.158   3.735 -0.9483 -0.4821  0.1150
  981MOL0     H32385   6.863   5.068   3.833  0.4911  0.3125  0.0588
  981MOL0     H32386   6.852   5.050   4.069 -0.1661 -0.4991 -2.6453
  981MOL0     H32387   6.625   5.183   4.348 -2.4592 -1.3997 -3.3386
  981MOL0     H32388   6.765   5.087   4.328 -1.6169 -1.1263 -0.3487
  981MOL0     H32389   6.911   5.269   4.285  0.7167  1.9452  0.7091
  981MOL0     H32390   6.854   5.270   4.447 -0.9646 -0.1634 -0.7772
  981MOL0     H32391   6.661   5.438   4.342 -0.6165 -0.3398 -0.3944
  981MOL0     H32392   6.744   5.422   4.198  0.2912  2.4384  0.2843
  981MOL0     H32393   6.848   5.558   4.453  2.0332 -3.7829  0.5116
  981MOL0     H32394   6.804   5.634   4.307 -0.4329 -1.0374 -0.7348
  981MOL0     H32395   7.005   5.522   4.578  0.6908 -0.3939  2.2151
  981MOL0     H32396   7.245   5.584   4.805  2.1328  1.3231 -4.5950
  981MOL0     H32397   7.094   5.492   4.783  0.2470  0.0477  0.6517
  981MOL0     H32398   7.259   5.412   4.765 -0.4148 -0.2537 -1.9966
  981MOL0     H32399   7.672   5.402   4.792 -0.2248  0.5344 -0.0849
  981MOL0     H32400   7.912   5.441   4.836  2.1737 -2.4434 -0.8793
  981MOL0     H32401   8.157   5.458   4.832  2.7017  1.1891 -0.2955
  981MOL0     H32402   8.108   5.327   4.710 -3.5888  1.4857  0.3889
  981MOL0     H32403   8.320   5.402   4.582 -0.9860  0.2781 -0.1732
  981MOL0     H32404   8.338   5.524   4.701  1.4260 -0.2211 -0.3395
  981MOL0     H32405   8.360   5.333   4.872 -0.2360 -0.9767 -0.3717
  981MOL0     H32406   8.494   5.369   4.753 -1.3197  1.5970 -0.5032
  981MOL0     H32407   8.287   5.164   4.685 -1.1819  3.1580  0.1531
  981MOL0     H32408   8.435   5.172   4.605 -3.1878 -1.3221 -1.1404
  981MOL0     H32409   8.433   5.105   4.897  0.3898 -1.6077  0.7208
  981MOL0     H32410   8.573   5.118   4.790 -0.3029  0.7589  0.8953
  981MOL0     H32411   8.330   4.940   4.757  0.5844 -1.2624  1.3437
  981MOL0     H32412   8.460   4.939   4.644 -1.7434  0.6907 -0.8372
  981MOL0     H32413   8.446   4.845   4.932 -2.0873  3.2417 -0.6758
  981MOL0     H32414   8.603   4.870   4.865 -0.4933  0.6356 -0.1742
  981MOL0     H32415   8.543   4.635   4.838  0.4064  3.1806  2.9355
  981MOL0     H32416   8.538   4.691   4.669  1.1636  1.0946  0.4228
  981MOL0     H32417   7.989   5.584   4.465  1.9475  0.6703  2.1016
  981MOL0     H32418   7.746   5.569   4.400  0.4484 -0.4621  1.0708
  981MOL0     H32419   7.435   5.597   4.357 -0.6280  2.7115  1.7360
  981MOL0     H32420   7.227   5.599   4.217  2.3330 -1.2165 -0.9031
  981MOL0     H32421   6.092   5.541   3.326 -2.5024  1.5061 -0.7827
  981MOL0     H32422   6.060   5.768   3.236  0.6579  0.1690  0.0309
  981MOL0     H32423   6.186   6.092   2.889  0.2317  0.6146  0.4752
  981MOL0     H32424   6.115   6.286   2.766  0.5424 -1.3855  0.0264
  981MOL0     H32425   5.888   6.535   2.688  0.6957 -0.1217  2.3836
  981MOL0     H32426   6.042   6.465   2.660  0.0475  4.0525 -2.3905
  981MOL0     H32427   5.935   6.336   2.474 -0.1299  0.9819 -1.0543
  981MOL0     H32428   5.975   6.508   2.450  0.8807 -0.2118  0.7377
  981MOL0     H32429   5.714   6.531   2.505  0.9355  2.8247 -1.6913
  981MOL0     H32430   5.703   6.376   2.423 -0.1429 -0.0188  2.0668
  981MOL0     H32431   5.841   6.453   2.240 -3.0101 -1.3858 -1.0266
  981MOL0     H32432   5.860   6.608   2.303  0.2903 -0.9470 -2.2114
  981MOL0     H32433   5.440   6.603   2.206  0.4902  1.1931  0.7997
  981MOL0     H32434   5.704   6.156   2.803  0.2094 -0.3417 -2.2524
  981MOL0     H32435   5.772   5.958   2.920 -2.0247  1.5525  0.2355
  982MOL0     O32436   8.651   7.398   6.575 -0.6667 -0.1586 -0.3718
  982MOL0     C32437   8.704   7.432   6.467 -0.6478  0.3557 -0.3282
  982MOL0     O32438   8.687   7.370   6.348 -0.2023 -0.3815  0.0680
  982MOL0     C32439   8.611   7.253   6.350 -0.4108 -0.7369 -0.9574
  982MOL0     C32440   8.476   7.236   6.389 -0.8834 -0.1770  0.0858
  982MOL0     C32441   8.410   7.115   6.372 -0.4808 -0.1178 -0.3579
  982MOL0     C32442   8.477   7.000   6.328 -0.8436  0.0750 -1.0373
  982MOL0     O32443   8.443   6.871   6.324 -0.1002 -0.6798 -0.7088
  982MOL0     C32444   8.332   6.840   6.236  0.6939 -0.0300 -0.0696
  982MOL0     C32445   8.374   6.709   6.170  0.6630  0.2271 -0.6219
  982MOL0     C32446   8.506   6.726   6.092 -0.3584  0.1020 -0.0450
  982MOL0     C32447   8.520   6.605   6.004 -0.3314 -0.0658 -0.1116
  982MOL0     C32448   8.662   6.587   5.932 -0.4710 -0.0038  1.3044
  982MOL0     C32449   8.780   6.549   6.029 -0.8336 -0.5227  0.8828
  982MOL0     C32450   8.772   6.400   6.061  0.5471 -0.6565  0.0199
  982MOL0     C32451   8.858   6.361   6.183  0.2844  0.3491 -0.2218
  982MOL0     N32452   8.996   6.393   6.167  0.2596 -0.2098 -0.1417
  982MOL0     C32453   9.097   6.304   6.143 -0.7036 -0.1553  0.3740
  982MOL0     C32454   9.218   6.367   6.167 -0.1189 -0.3694 -0.0133
  982MOL0     C32455   9.350   6.306   6.144  0.8988 -0.3406 -1.4010
  982MOL0     C32456   9.436   6.371   6.046 -0.3651  0.6827 -0.0242
  982MOL0     C32457   9.544   6.272   6.004 -0.6300 -0.1483 -0.0181
  982MOL0     C32458   9.545   6.236   5.863  0.4414  0.0877  0.4008
  982MOL0     O32459   9.644   6.141   5.836 -0.8689 -0.1159  0.3122
  982MOL0     C32460   9.645   6.063   5.719  0.1260  0.9025 -0.4286
  982MOL0     C32461   9.556   6.086   5.612 -0.3430  0.3532  0.6499
  982MOL0     C32462   9.573   6.015   5.490  1.5561 -0.5610 -0.4143
  982MOL0     C32463   9.476   6.062   5.386  0.0150  0.4699  0.3512
  982MOL0     C32464   9.670   5.909   5.478  0.7048  0.1263  0.2799
  982MOL0     C32465   9.682   5.838   5.346  0.9019 -0.3501  0.3326
  982MOL0     O32466   9.711   5.703   5.363 -0.0874  0.3781 -0.2744
  982MOL0     C32467   9.732   5.636   5.252 -0.1967  1.2747 -0.2423
  982MOL0     C32468   9.633   5.553   5.190  0.6855 -0.6106 -0.8054
  982MOL0     C32469   9.663   5.489   5.070 -0.1673 -0.7875 -0.0804
  982MOL0     C32470   9.790   5.489   5.021  0.8990  0.5003  0.1826
  982MOL0     O32471   9.836   5.404   4.914 -0.3410 -0.6402 -0.1483
  982MOL0     C32472   9.764   5.282   4.894 -0.1647 -0.4894 -0.0602
  982MOL0     C32473   9.839   5.220   4.774 -0.3116  1.1955  0.1496
  982MOL0     C32474   9.794   5.080   4.729  1.0829  0.1394  0.6894
  982MOL0     C32475   9.890   4.998   4.637 -0.2965  0.7159  0.6268
  982MOL0     C32476   9.818   4.869   4.581 -0.5858 -0.5393 -0.1608
  982MOL0     C32477   9.910   4.795   4.479 -0.4680 -0.1559  0.6336
  982MOL0     C32478   9.831   4.698   4.392 -0.2163  0.0374 -0.2552
  982MOL0     C32479   9.906   4.658   4.266 -0.3117  0.4873 -0.2579
  982MOL0    Cl32480  10.070   4.590   4.300 -0.2411  0.3394 -0.7041
  982MOL0     C32481   9.889   5.564   5.083  0.6108  0.1362  1.0817
  982MOL0     C32482   9.859   5.642   5.192  0.6764 -0.4404 -0.0566
  982MOL0     O32483   9.685   5.893   5.237 -0.2677 -0.2113  0.0222
  982MOL0     C32484   9.747   5.879   5.591 -1.1465 -0.2101  0.1002
  982MOL0     C32485   9.728   5.945   5.711  0.3294 -0.2625  1.0047
  982MOL0     N32486   9.184   6.495   6.196 -0.9936 -0.1826 -0.7314
  982MOL0     N32487   9.055   6.508   6.196 -0.1072 -0.1019 -0.1486
  982MOL0     C32488   8.611   7.013   6.290 -0.8500 -1.0752  1.2228
  982MOL0     C32489   8.677   7.137   6.309 -0.1611 -0.2091  1.4569
  982MOL0     C32490   8.804   7.543   6.466 -0.0493  0.8258 -0.0043
  982MOL0     C32491   8.887   7.574   6.356 -0.4349 -0.3138  0.6654
  982MOL0     C32492   8.982   7.684   6.366 -0.1050  0.5911 -0.5309
  982MOL0     C32493   9.004   7.746   6.501 -0.7554 -1.0882 -0.2308
  982MOL0     O32494   9.107   7.830   6.537 -0.2297 -0.5038  0.7253
  982MOL0     C32495   9.233   7.835   6.460 -0.2553  0.1166 -0.2576
  982MOL0     C32496   9.328   7.924   6.527 -1.0527 -0.3449  0.6228
  982MOL0     C32497   9.273   8.064   6.512  0.7694  1.1514 -0.1148
  982MOL0     C32498   9.366   8.164   6.596  0.6238 -0.4102 -0.8756
  982MOL0     C32499   9.405   8.109   6.734  0.0050 -1.0435 -0.1274
  982MOL0     C32500   9.419   8.063   6.842  0.6413  0.5634 -0.6041
  982MOL0     C32501   8.918   7.711   6.604 -0.1256  0.0579  0.6722
  982MOL0     C32502   8.821   7.621   6.578  0.5706  0.9752 -0.2493
  982MOL0     H32503   8.428   7.328   6.422  1.3263  0.5014  1.7050
  982MOL0     H32504   8.303   7.114   6.392 -0.7813  2.4935 -1.5037
  982MOL0     H32505   8.239   6.816   6.289  0.1191 -0.8873 -1.3993
  982MOL0     H32506   8.306   6.916   6.161 -2.2661 -2.8923 -2.2660
  982MOL0     H32507   8.395   6.628   6.239  0.9362 -0.7362 -1.7929
  982MOL0     H32508   8.297   6.676   6.100 -0.1099 -1.5382  0.9892
  982MOL0     H32509   8.498   6.815   6.028  0.4192 -1.9141 -3.1960
  982MOL0     H32510   8.584   6.741   6.166  0.0782  0.7733 -0.6214
  982MOL0     H32511   8.492   6.520   6.066 -1.0631  1.4591  1.7523
  982MOL0     H32512   8.447   6.631   5.927 -1.2307  3.3576  1.6748
  982MOL0     H32513   8.664   6.506   5.858 -0.3633  1.5075 -0.4463
  982MOL0     H32514   8.689   6.683   5.887 -1.4436  0.6873  2.1764
  982MOL0     H32515   8.877   6.557   5.979 -0.8053 -2.7362  0.4944
  982MOL0     H32516   8.775   6.611   6.119  2.9056 -2.6427  2.7689
  982MOL0     H32517   8.678   6.348   6.078 -0.6197  1.9055  1.9984
  982MOL0     H32518   8.817   6.361   5.969 -0.5684  0.7078 -1.1414
  982MOL0     H32519   8.841   6.256   6.206  0.9074  0.3053  0.0746
  982MOL0     H32520   8.817   6.424   6.263  0.4149  1.1872 -0.7984
  982MOL0     H32521   9.088   6.207   6.094 -0.2794  1.2806 -2.7728
  982MOL0     H32522   9.397   6.308   6.242  0.6585  1.0395 -1.2859
  982MOL0     H32523   9.334   6.200   6.122 -0.5775 -0.3580 -0.3616
  982MOL0     H32524   9.483   6.460   6.090 -0.0985  1.2369 -1.3824
  982MOL0     H32525   9.382   6.413   5.961  2.0571  2.4817 -0.8143
  982MOL0     H32526   9.556   6.178   6.059  2.3972 -0.0112 -0.2752
  982MOL0     H32527   9.639   6.327   6.011 -0.8640  0.5275 -1.6470
  982MOL0     H32528   9.550   6.328   5.804 -0.8110 -0.7278 -1.0670
  982MOL0     H32529   9.443   6.200   5.846 -0.0603  1.4293  0.4522
  982MOL0     H32530   9.479   6.162   5.607 -2.2078 -1.5283 -2.4200
  982MOL0     H32531   9.396   6.118   5.435 -0.1099 -1.0367  1.9550
  982MOL0     H32532   9.532   6.116   5.309  1.1547  2.5285  2.5117
  982MOL0     H32533   9.425   5.979   5.336 -0.0359  0.3845  0.5427
  982MOL0     H32534   9.538   5.547   5.242  1.6480 -0.3483  1.0821
  982MOL0     H32535   9.578   5.463   5.008 -1.9231  1.7404  1.1175
  982MOL0     H32536   9.759   5.205   4.971 -3.7113 -1.6258 -1.2380
  982MOL0     H32537   9.662   5.313   4.872 -0.6545  1.1620  3.7785
  982MOL0     H32538   9.842   5.295   4.694 -0.9166  0.7455 -0.3063
  982MOL0     H32539   9.946   5.218   4.796  0.1440  0.6712 -1.9481
  982MOL0     H32540   9.695   5.080   4.683  1.0962 -3.4448  0.3312
  982MOL0     H32541   9.768   5.023   4.819 -1.6914  1.8405  1.0511
  982MOL0     H32542   9.937   5.062   4.561 -2.3142 -0.3974 -1.7219
  982MOL0     H32543   9.975   4.957   4.692 -1.2037 -1.6128  0.3909
  982MOL0     H32544   9.728   4.895   4.523  0.1107  0.2328 -0.9159
  982MOL0     H32545   9.776   4.802   4.657 -0.7025  0.4398  0.6532
  982MOL0     H32546   9.966   4.863   4.414  0.6092 -0.3312  1.3572
  982MOL0     H32547   9.984   4.732   4.530  1.0297  0.0723 -1.1645
  982MOL0     H32548   9.741   4.749   4.355 -0.3273  0.0015 -0.0339
  982MOL0     H32549   9.809   4.605   4.444  2.1996 -1.1411 -1.1839
  982MOL0     H32550   9.913   4.736   4.190 -3.6384 -0.1872 -1.4444
  982MOL0     H32551   9.839   4.585   4.219  1.0841  0.6771 -2.7253
  982MOL0     H32552   9.992   5.555   5.050 -0.2942  0.7279 -2.2729
  982MOL0     H32553   9.946   5.685   5.240  0.7863  1.1979 -1.6344
  982MOL0     H32554   9.825   5.804   5.597 -1.7734 -0.8293  0.8462
  982MOL0     H32555   9.789   5.917   5.797  1.5540  1.8240  0.8835
  982MOL0     H32556   8.659   6.925   6.249  1.7863 -0.1278  2.0648
  982MOL0     H32557   8.779   7.149   6.275 -0.6336 -0.3193 -0.0896
  982MOL0     H32558   8.874   7.512   6.267  0.6199  1.1026 -0.5221
  982MOL0     H32559   9.056   7.717   6.293  2.9834 -0.0585  2.0613
  982MOL0     H32560   9.280   7.737   6.447  3.7038  2.1365 -3.2685
  982MOL0     H32561   9.208   7.880   6.364 -1.7502 -0.4618 -0.1641
  982MOL0     H32562   9.427   7.917   6.481 -0.8351  1.5096  0.7165
  982MOL0     H32563   9.323   7.881   6.627  1.3479  0.6228  1.2359
  982MOL0     H32564   9.170   8.071   6.548  0.7581  2.7249 -0.3522
  982MOL0     H32565   9.256   8.088   6.407 -0.8132  1.1634  0.1190
  982MOL0     H32566   9.337   8.268   6.612  1.7746 -0.2397  0.3552
  982MOL0     H32567   9.458   8.182   6.539  1.4286  2.3974  1.0771
  982MOL0     H32568   9.425   8.018   6.939  0.1092  1.2084 -0.2604
  982MOL0     H32569   8.925   7.776   6.690 -0.6501  3.8419 -1.8890
  982MOL0     H32570   8.759   7.605   6.665  3.7734 -1.6053  1.8039
  983MOL0     O32571   1.537   7.445   8.439 -0.0757 -0.2640 -0.3553
  983MOL0     C32572   1.645   7.390   8.406 -0.2278  0.2580  0.1885
  983MOL0     O32573   1.690   7.380   8.281 -0.5904  0.7515 -0.8950
  983MOL0     C32574   1.644   7.465   8.182 -0.0664 -0.2444 -0.2293
  983MOL0     C32575   1.510   7.499   8.160  0.1894 -0.6656 -0.0817
  983MOL0     C32576   1.476   7.566   8.047 -0.5261  0.0189  0.3581
  983MOL0     C32577   1.571   7.629   7.966  0.3011  0.8472 -0.7069
  983MOL0     O32578   1.534   7.688   7.849  0.9418  0.0548 -0.6893
  983MOL0     C32579   1.615   7.807   7.830 -0.7410  0.3077  0.2796
  983MOL0     C32580   1.554   7.909   7.727 -0.7293 -0.3228  0.1346
  983MOL0     C32581   1.665   7.996   7.664 -0.8439  0.4249 -0.3679
  983MOL0     C32582   1.603   8.082   7.556 -0.2319 -0.3981 -0.0843
  983MOL0     C32583   1.628   8.026   7.412  0.9444 -1.2066 -0.3435
  983MOL0     C32584   1.756   8.086   7.347 -0.0320 -0.8003 -0.1849
  983MOL0     C32585   1.792   8.053   7.208 -0.0001  0.7249  1.3538
  983MOL0     C32586   1.767   7.911   7.170 -0.1933  0.1773 -0.7310
  983MOL0     N32587   1.801   7.887   7.031 -0.4345  0.1259 -0.1849
  983MOL0     C32588   1.710   7.831   6.949 -0.0070  0.2898  0.4633
  983MOL0     C32589   1.783   7.801   6.837  0.3666  0.4376 -0.7746
  983MOL0     C32590   1.732   7.723   6.714 -0.3910 -0.4964 -0.4257
  983MOL0     C32591   1.674   7.821   6.608 -0.6949  0.2902 -0.7969
  983MOL0     C32592   1.779   7.879   6.515  0.4239  0.6369 -0.9943
  983MOL0     C32593   1.714   7.988   6.439  1.1915  0.4161 -0.3186
  983MOL0     O32594   1.635   7.924   6.332  0.8971  0.1270 -0.0718
  983MOL0     C32595   1.499   7.934   6.327  0.2013  0.5751 -0.5627
  983MOL0     C32596   1.414   7.988   6.423 -0.7334  0.3226 -0.1951
  983MOL0     C32597   1.276   7.984   6.417  0.0659  0.9317  0.2832
  983MOL0     C32598   1.204   8.057   6.534  0.3256 -0.6137  0.6088
  983MOL0     C32599   1.209   7.917   6.308 -0.5782 -0.5385 -0.0075
  983MOL0     C32600   1.056   7.902   6.295 -0.5682 -0.0754  0.6989
  983MOL0     O32601   1.015   7.813   6.193 -0.1842 -0.6351 -0.2004
  983MOL0     C32602   0.879   7.799   6.173  0.8455 -0.1855 -0.1675
  983MOL0     C32603   0.805   7.904   6.112 -0.0222 -0.1149  0.0917
  983MOL0     C32604   0.662   7.890   6.104 -0.0419  0.3905 -0.2361
  983MOL0     C32605   0.592   7.780   6.166  1.0157  0.3027 -0.4958
  983MOL0     O32606   0.460   7.746   6.136 -0.6410 -0.1956 -1.0871
  983MOL0     C32607   0.354   7.838   6.156 -0.0014  0.4465  0.0923
  983MOL0     C32608   0.286   7.812   6.297  0.4007 -0.2277 -1.1365
  983MOL0     C32609   0.159   7.722   6.299  0.4551  0.2651  0.1332
  983MOL0     C32610   0.050   7.798   6.222  0.3207  0.5107  0.7538
  983MOL0     C32611  -0.073   7.702   6.221  0.3030 -0.5226 -0.8709
  983MOL0     C32612  -0.181   7.766   6.132  0.4662  0.2537 -0.8863
  983MOL0     C32613  -0.284   7.660   6.071 -0.5883 -0.6314 -0.4263
  983MOL0     C32614  -0.428   7.728   6.061 -0.5406  0.1401 -0.3135
  983MOL0    Cl32615  -0.549   7.608   6.041  0.0628  0.2107 -0.2580
  983MOL0     C32616   0.675   7.674   6.219  0.3253 -0.7429 -0.1453
  983MOL0     C32617   0.816   7.685   6.210  0.9478 -1.1035  0.0658
  983MOL0     O32618   0.979   7.966   6.370 -0.3820  0.1795  0.5950
  983MOL0     C32619   1.288   7.856   6.208  0.0333  0.0298  0.6595
  983MOL0     C32620   1.433   7.862   6.224 -0.4587 -0.2067 -0.7046
  983MOL0     N32621   1.912   7.836   6.863  1.3649 -0.0707 -0.0113
  983MOL0     N32622   1.924   7.881   6.983 -0.8328 -0.0614 -0.8181
  983MOL0     C32623   1.707   7.602   7.994 -0.5518  0.3887 -1.3559
  983MOL0     C32624   1.742   7.506   8.098 -0.2593  0.2885  0.5824
  983MOL0     C32625   1.705   7.321   8.513  0.4132  0.2953 -0.4108
  983MOL0     C32626   1.664   7.328   8.644  0.5303 -0.8076  0.5489
  983MOL0     C32627   1.731   7.252   8.739  0.1433 -0.8599 -0.5888
  983MOL0     C32628   1.833   7.156   8.712  0.5600 -0.2246 -0.5570
  983MOL0     O32629   1.885   7.080   8.810  0.1404 -0.7610 -0.4254
  983MOL0     C32630   2.013   7.043   8.805 -0.9764 -0.5968  0.4968
  983MOL0     C32631   2.045   6.976   8.943  0.1489 -0.6693 -0.1184
  983MOL0     C32632   2.097   7.064   9.043  0.1131 -0.2778 -0.8251
  983MOL0     C32633   2.119   6.995   9.180 -0.4157  0.3342 -1.2094
  983MOL0     C32634   2.235   6.898   9.177  0.7010 -0.3928  0.2252
  983MOL0     C32635   2.327   6.816   9.179  0.3043 -0.6743  0.2605
  983MOL0     C32636   1.859   7.146   8.579 -0.2249  0.0856 -0.6233
  983MOL0     C32637   1.802   7.225   8.480  0.4772  0.4023 -0.6048
  983MOL0     H32638   1.425   7.451   8.208 -0.6440 -0.4447 -1.2968
  983MOL0     H32639   1.369   7.579   8.032 -0.4524 -0.3017 -0.4766
  983MOL0     H32640   1.642   7.854   7.925  1.8247 -0.6260  0.0987
  983MOL0     H32641   1.714   7.772   7.797 -0.3904  1.4075  0.1131
  983MOL0     H32642   1.522   7.851   7.640  1.8241 -0.8869 -0.5112
  983MOL0     H32643   1.480   7.970   7.779  0.0787 -0.2888  1.2945
  983MOL0     H32644   1.698   8.058   7.748  0.3242 -1.5702  0.7144
  983MOL0     H32645   1.759   7.950   7.633 -3.3807 -2.3364 -4.9260
  983MOL0     H32646   1.496   8.101   7.567 -0.0590  1.5240 -1.2091
  983MOL0     H32647   1.645   8.180   7.579 -0.3191 -0.7773  1.8942
  983MOL0     H32648   1.628   7.917   7.416 -2.6439 -1.3908 -2.0057
  983MOL0     H32649   1.542   8.073   7.363  1.7027  2.3055  1.3400
  983MOL0     H32650   1.746   8.195   7.355 -0.8887 -0.9640  1.6117
  983MOL0     H32651   1.833   8.062   7.420 -0.8033 -0.5206  0.7433
  983MOL0     H32652   1.726   8.123   7.155 -1.1131 -1.6029 -0.5377
  983MOL0     H32653   1.898   8.075   7.195  0.4405 -0.9709  1.8886
  983MOL0     H32654   1.663   7.886   7.190 -0.9960  1.5397 -2.8342
  983MOL0     H32655   1.835   7.851   7.232  0.4411 -0.4868 -2.0293
  983MOL0     H32656   1.604   7.817   6.971  0.1248  0.5926  1.3075
  983MOL0     H32657   1.817   7.674   6.667 -0.2420  0.8885 -1.6646
  983MOL0     H32658   1.648   7.658   6.744 -1.8156  1.6150  0.4275
  983MOL0     H32659   1.616   7.902   6.653  1.0558  0.1569  1.9483
  983MOL0     H32660   1.601   7.767   6.547 -2.0879  0.1392  0.9200
  983MOL0     H32661   1.830   7.806   6.452  1.4977  0.4977  0.0143
  983MOL0     H32662   1.858   7.921   6.577 -0.6052 -0.6441  1.2972
  983MOL0     H32663   1.779   8.055   6.382 -1.6741  4.4176  0.6719
  983MOL0     H32664   1.655   8.061   6.495  1.5791  0.8143 -0.4242
  983MOL0     H32665   1.457   8.034   6.511 -4.4132 -2.0463  3.2101
  983MOL0     H32666   1.142   8.141   6.499 -0.1015 -1.3107 -0.3672
  983MOL0     H32667   1.125   7.994   6.577 -0.7485 -0.9014 -1.6024
  983MOL0     H32668   1.279   8.090   6.606  0.0129 -0.3425  0.8100
  983MOL0     H32669   0.859   7.993   6.082  1.1126  0.0224  2.3148
  983MOL0     H32670   0.603   7.966   6.055  2.3731  2.2624 -0.4146
  983MOL0     H32671   0.383   7.944   6.154  1.3386  0.0938 -0.0215
  983MOL0     H32672   0.279   7.829   6.076 -2.6468 -0.8470  2.5306
  983MOL0     H32673   0.364   7.787   6.368 -2.5263  0.2016  2.5160
  983MOL0     H32674   0.249   7.908   6.335 -0.4681 -0.8279 -0.4110
  983MOL0     H32675   0.128   7.705   6.402 -0.6599  4.1927  0.6026
  983MOL0     H32676   0.182   7.623   6.258 -0.9689 -0.5591  1.2203
  983MOL0     H32677   0.033   7.896   6.267  4.1134  0.8453  1.8253
  983MOL0     H32678   0.087   7.813   6.120 -0.5801 -3.6343 -0.3817
  983MOL0     H32679  -0.108   7.678   6.322  1.3935 -0.7272 -0.5337
  983MOL0     H32680  -0.033   7.611   6.175  1.8708 -0.4526  0.2807
  983MOL0     H32681  -0.236   7.843   6.186 -0.0316  0.9329 -2.3042
  983MOL0     H32682  -0.130   7.818   6.050  0.8969 -1.5485 -1.8223
  983MOL0     H32683  -0.295   7.579   6.143  0.3004 -1.5646 -1.2996
  983MOL0     H32684  -0.256   7.629   5.970 -0.6368 -2.0431 -0.0282
  983MOL0     H32685  -0.418   7.793   5.974  0.7902 -0.8549 -0.9290
  983MOL0     H32686  -0.444   7.789   6.150  0.3516 -1.6579  1.1533
  983MOL0     H32687   0.634   7.581   6.257 -1.5439  0.6673  1.5151
  983MOL0     H32688   0.874   7.602   6.250  1.7267  0.3168  2.0556
  983MOL0     H32689   1.242   7.814   6.119 -0.9491  0.3637  1.0025
  983MOL0     H32690   1.504   7.808   6.163  0.5623 -1.0897  1.1715
  983MOL0     H32691   1.784   7.652   7.935 -0.3843 -0.1849 -1.6277
  983MOL0     H32692   1.844   7.473   8.116  0.6915  3.0487  0.6357
  983MOL0     H32693   1.588   7.400   8.672 -0.3906 -2.0558  1.3959
  983MOL0     H32694   1.701   7.259   8.843 -0.5746  2.4244 -0.9175
  983MOL0     H32695   2.044   6.964   8.736  0.0700 -0.4047  0.7244
  983MOL0     H32696   2.083   7.123   8.781  1.3520 -2.2294  1.4498
  983MOL0     H32697   2.118   6.894   8.944  2.4212  1.2032 -1.4902
  983MOL0     H32698   1.950   6.938   8.981 -0.2626  0.7187  0.3174
  983MOL0     H32699   2.025   7.145   9.060 -0.5123 -1.1033  0.6142
  983MOL0     H32700   2.190   7.103   9.001 -0.9530  0.8952 -2.2009
  983MOL0     H32701   2.035   6.941   9.225  2.0778 -1.8381  1.2375
  983MOL0     H32702   2.158   7.065   9.255 -1.9854 -0.3497  0.3180
  983MOL0     H32703   2.394   6.733   9.191  1.8868  0.2946 -1.2257
  983MOL0     H32704   1.922   7.064   8.549 -1.0219 -1.1185  0.8526
  983MOL0     H32705   1.826   7.205   8.377  1.8132 -0.0823 -0.2197
  984MOL0     O32706   2.868   5.518   4.803 -0.0082  0.3573 -0.4873
  984MOL0     C32707   2.925   5.418   4.756 -0.3688  0.3677  0.2208
  984MOL0     O32708   2.856   5.303   4.734 -0.4617  0.1775  0.2890
  984MOL0     C32709   2.730   5.292   4.791 -0.0750 -0.2676  0.2755
  984MOL0     C32710   2.718   5.230   4.916 -0.2913  0.2757 -0.3441
  984MOL0     C32711   2.601   5.225   4.984  0.9613 -0.6932  0.4476
  984MOL0     C32712   2.491   5.303   4.936 -0.5900  0.1361 -0.7148
  984MOL0     O32713   2.369   5.302   4.988  0.5829 -0.2195 -0.0101
  984MOL0     C32714   2.334   5.211   5.092  0.4900  0.1128 -0.1256
  984MOL0     C32715   2.182   5.224   5.120 -1.0044 -0.3124 -0.7971
  984MOL0     C32716   2.109   5.168   5.002  0.5727 -0.3554  0.3690
  984MOL0     C32717   1.955   5.174   5.005  0.1849  1.3617  0.8537
  984MOL0     C32718   1.882   5.162   4.864  0.9121 -0.5705  0.2367
  984MOL0     C32719   1.725   5.148   4.874 -0.6456 -0.2081  0.6657
  984MOL0     C32720   1.682   5.030   4.951 -0.3288  0.9744 -0.2000
  984MOL0     C32721   1.524   5.011   4.940  0.3718  0.9442  0.0803
  984MOL0     N32722   1.485   4.881   5.009 -0.2831 -1.1329  0.6800
  984MOL0     C32723   1.385   4.859   5.095  0.3125  1.1461 -0.0723
  984MOL0     C32724   1.375   4.729   5.104  0.2314 -0.2687  0.4684
  984MOL0     C32725   1.292   4.667   5.206 -0.6551  0.5594  0.4839
  984MOL0     C32726   1.141   4.674   5.167  0.8975  0.2243  0.8323
  984MOL0     C32727   1.089   4.541   5.104  0.0103  0.0502  0.6365
  984MOL0     C32728   1.114   4.542   4.950  0.0811  0.1660 -0.2062
  984MOL0     O32729   1.043   4.653   4.888 -0.3682 -0.1499 -0.1525
  984MOL0     C32730   1.119   4.733   4.807 -0.2847 -0.9909  0.1553
  984MOL0     C32731   1.095   4.874   4.811 -0.0772  0.2255  0.5937
  984MOL0     C32732   1.165   4.964   4.726  0.6602 -0.1186  1.5505
  984MOL0     C32733   1.120   5.112   4.720 -0.4703 -0.1227 -0.1615
  984MOL0     C32734   1.273   4.914   4.640  0.0051 -0.1354  0.3602
  984MOL0     C32735   1.345   5.011   4.548  0.1063  0.5045  0.2017
  984MOL0     O32736   1.439   4.950   4.465  0.5184 -0.7914 -0.1558
  984MOL0     C32737   1.539   5.033   4.423 -0.1662  0.3567  0.6228
  984MOL0     C32738   1.528   5.099   4.304  0.7392 -0.1190 -0.0354
  984MOL0     C32739   1.638   5.158   4.253  1.3389  0.2325 -0.4737
  984MOL0     C32740   1.753   5.166   4.314 -0.8922 -0.0932  0.1112
  984MOL0     O32741   1.863   5.212   4.256  0.1232 -0.9556 -0.3516
  984MOL0     C32742   1.846   5.287   4.140  0.1423 -1.1687 -0.4057
  984MOL0     C32743   1.980   5.351   4.102  1.1298  1.0955 -0.4445
  984MOL0     C32744   2.030   5.451   4.199  0.1274 -0.5257  0.3647
  984MOL0     C32745   1.920   5.566   4.202  0.2809 -1.1964  0.0691
  984MOL0     C32746   1.944   5.690   4.294 -0.0531 -0.1210 -0.1398
  984MOL0     C32747   1.969   5.682   4.435 -0.2636 -0.0354  0.8033
  984MOL0     C32748   2.029   5.809   4.506  0.7830  0.0658  1.0040
  984MOL0     C32749   1.914   5.895   4.553  0.1037 -0.2028 -0.2415
  984MOL0    Cl32750   1.967   5.976   4.694  0.3843 -0.3768  0.1603
  984MOL0     C32751   1.771   5.110   4.440 -0.3920  0.0520 -0.1842
  984MOL0     C32752   1.663   5.043   4.501 -0.3705 -0.2816  0.2881
  984MOL0     O32753   1.329   5.130   4.547  0.4228 -0.5337 -0.2864
  984MOL0     C32754   1.314   4.785   4.662  0.0605  0.6836 -1.7237
  984MOL0     C32755   1.227   4.696   4.729 -0.5246 -0.3075  0.4021
  984MOL0     N32756   1.466   4.670   5.019 -0.1904  0.4802 -0.1404
  984MOL0     N32757   1.540   4.764   4.962 -0.0940 -1.1080  0.9380
  984MOL0     C32758   2.505   5.358   4.810  0.5228 -0.1811  0.2259
  984MOL0     C32759   2.622   5.351   4.735 -0.0313  0.5059 -0.3341
  984MOL0     C32760   3.059   5.427   4.698 -0.1393  0.2258 -0.6679
  984MOL0     C32761   3.103   5.557   4.667 -0.2404  0.0971 -0.8458
  984MOL0     C32762   3.219   5.569   4.589 -0.5337  0.0641 -0.1736
  984MOL0     C32763   3.288   5.455   4.539  0.5759  0.2591  0.5399
  984MOL0     O32764   3.390   5.464   4.447  0.2977  0.0390  0.5189
  984MOL0     C32765   3.495   5.559   4.492  0.6034  0.0699 -0.5801
  984MOL0     C32766   3.624   5.524   4.423 -0.0887  0.9690  0.4858
  984MOL0     C32767   3.745   5.608   4.464 -0.1861  0.3461 -0.2574
  984MOL0     C32768   3.790   5.583   4.610  0.5186 -0.5119  0.1976
  984MOL0     C32769   3.925   5.530   4.618  0.3945  0.4816 -0.4555
  984MOL0     C32770   4.045   5.502   4.644  0.7372 -0.2910  0.9215
  984MOL0     C32771   3.244   5.326   4.572  0.1391 -0.4400 -0.3014
  984MOL0     C32772   3.128   5.313   4.645 -0.1810  0.0158 -1.3210
  984MOL0     H32773   2.814   5.194   4.950  0.8953 -1.1649 -4.5931
  984MOL0     H32774   2.592   5.155   5.067 -2.0862 -5.1130 -3.0587
  984MOL0     H32775   2.354   5.108   5.063 -0.6478  0.2091 -1.3629
  984MOL0     H32776   2.393   5.238   5.180 -0.7516 -0.3702  0.8774
  984MOL0     H32777   2.162   5.177   5.216 -1.1428  0.1645 -0.5869
  984MOL0     H32778   2.159   5.330   5.136 -1.2335 -0.3161 -1.1054
  984MOL0     H32779   2.133   5.230   4.916 -1.1938 -0.9106 -0.5684
  984MOL0     H32780   2.141   5.067   4.973 -0.2418  0.8066 -5.8563
  984MOL0     H32781   1.925   5.089   5.067 -0.2010  0.0038 -1.1204
  984MOL0     H32782   1.916   5.270   5.040  2.0362  2.2987  0.4466
  984MOL0     H32783   1.897   5.254   4.807 -0.2848 -1.3477 -1.4557
  984MOL0     H32784   1.921   5.086   4.795  0.7052  0.5617 -1.1769
  984MOL0     H32785   1.693   5.241   4.921 -2.0033  0.3272 -1.2240
  984MOL0     H32786   1.688   5.159   4.772  2.7965 -0.0201 -0.6921
  984MOL0     H32787   1.741   4.943   4.920  0.2347  0.9315  0.9464
  984MOL0     H32788   1.700   5.034   5.059 -1.1122 -0.7482  0.0302
  984MOL0     H32789   1.486   5.008   4.837 -4.6193 -1.1389  1.6351
  984MOL0     H32790   1.468   5.090   4.990  0.4585  1.0146  0.0646
  984MOL0     H32791   1.346   4.925   5.172 -0.1253  0.9775 -0.1488
  984MOL0     H32792   1.321   4.563   5.225 -2.2964 -0.2434 -1.1615
  984MOL0     H32793   1.310   4.726   5.297 -1.4060 -0.1973  1.1425
  984MOL0     H32794   1.113   4.763   5.110  3.2999  0.5567  0.0469
  984MOL0     H32795   1.088   4.689   5.262 -2.0187 -1.8298 -0.3399
  984MOL0     H32796   0.981   4.538   5.121 -0.0797 -1.7839 -0.0088
  984MOL0     H32797   1.135   4.451   5.145 -0.9859 -0.6886  0.1900
  984MOL0     H32798   1.060   4.456   4.909 -2.5770  1.8800 -0.5118
  984MOL0     H32799   1.223   4.533   4.944  0.2592 -1.6086  3.0881
  984MOL0     H32800   1.016   4.904   4.879 -0.7207  1.7417 -0.7578
  984MOL0     H32801   1.089   5.138   4.618 -1.6537  0.8295  0.4061
  984MOL0     H32802   1.030   5.138   4.777 -0.8873 -3.8407  1.1656
  984MOL0     H32803   1.207   5.172   4.747  1.0461 -1.0977 -2.5296
  984MOL0     H32804   1.424   5.100   4.272  0.2243  0.4759  1.5314
  984MOL0     H32805   1.617   5.216   4.164  2.8396 -0.6842 -1.4647
  984MOL0     H32806   1.816   5.218   4.060 -1.6120  0.4555 -1.2431
  984MOL0     H32807   1.762   5.358   4.139  1.6725  0.7163 -0.3881
  984MOL0     H32808   2.038   5.259   4.100 -1.0950 -0.4271  0.4860
  984MOL0     H32809   1.985   5.386   3.998 -1.8009  1.4383 -0.5725
  984MOL0     H32810   2.131   5.486   4.173 -0.5352  1.2996  0.1219
  984MOL0     H32811   2.032   5.421   4.304 -1.2173 -2.5044 -0.1169
  984MOL0     H32812   1.907   5.605   4.101 -2.2291 -1.9521  0.0315
  984MOL0     H32813   1.823   5.528   4.234  1.1750 -4.8694 -1.1660
  984MOL0     H32814   1.866   5.765   4.277  0.3854  0.2501 -0.5591
  984MOL0     H32815   2.034   5.738   4.254 -0.0874  0.4651  0.4628
  984MOL0     H32816   1.879   5.658   4.491 -0.2454  1.6812  1.6272
  984MOL0     H32817   2.041   5.603   4.457  0.2454  0.1875  0.0171
  984MOL0     H32818   2.097   5.870   4.447 -0.6738  1.8914  1.1110
  984MOL0     H32819   2.078   5.773   4.597  1.4477  0.9991  1.0233
  984MOL0     H32820   1.827   5.833   4.578  0.9625 -2.0682 -1.6767
  984MOL0     H32821   1.885   5.966   4.474  2.5896  1.0374 -0.1238
  984MOL0     H32822   1.869   5.117   4.486  0.0070 -1.3504 -0.7816
  984MOL0     H32823   1.677   4.967   4.577  2.8637 -0.1869 -0.0543
  984MOL0     H32824   1.403   4.750   4.610  0.7725  0.6574 -0.5078
  984MOL0     H32825   1.233   4.589   4.713  0.2577 -0.0136 -1.5125
  984MOL0     H32826   2.416   5.408   4.771 -0.3356 -1.2731  0.7345
  984MOL0     H32827   2.625   5.397   4.637 -4.0911  0.1604 -0.7831
  984MOL0     H32828   3.052   5.651   4.684 -0.1432 -0.0005 -0.0095
  984MOL0     H32829   3.250   5.665   4.548 -2.1396  0.0008 -1.6399
  984MOL0     H32830   3.466   5.657   4.452 -1.3724  0.6821  2.1097
  984MOL0     H32831   3.508   5.559   4.600 -5.1797 -0.2293  0.4299
  984MOL0     H32832   3.606   5.508   4.316 -1.9520  1.7437  0.6626
  984MOL0     H32833   3.648   5.425   4.464  0.5027  1.9824  2.7367
  984MOL0     H32834   3.723   5.713   4.445 -3.6525 -0.6653 -2.9459
  984MOL0     H32835   3.828   5.577   4.399  1.5942  0.3753  1.8800
  984MOL0     H32836   3.715   5.513   4.649 -1.5480  0.1488 -2.3143
  984MOL0     H32837   3.792   5.671   4.675  0.3608 -0.8517  0.6700
  984MOL0     H32838   4.150   5.493   4.663  1.3826  1.1900 -1.4498
  984MOL0     H32839   3.306   5.248   4.527  1.4990  1.1993 -1.4069
  984MOL0     H32840   3.092   5.217   4.678 -1.0359  0.7697  0.0048
  985MOL0     O32841   2.580   1.902   9.162  0.0335  0.0384  0.3931
  985MOL0     C32842   2.642   1.871   9.057 -0.5000 -0.1702 -0.4935
  985MOL0     O32843   2.775   1.882   9.049 -0.0942  0.3191  0.0347
  985MOL0     C32844   2.845   1.927   9.157 -0.5269  0.8954  0.6506
  985MOL0     C32845   2.923   1.843   9.227  0.9963 -0.1074 -0.3558
  985MOL0     C32846   2.970   1.884   9.352  0.4327  0.1631 -1.1350
  985MOL0     C32847   2.938   2.009   9.404  0.6475 -0.5850  0.3548
  985MOL0     O32848   2.973   2.035   9.529 -0.3049  0.8674 -0.6974
  985MOL0     C32849   3.030   2.164   9.554  0.2328  0.3066 -0.2236
  985MOL0     C32850   3.095   2.161   9.696  0.4799 -0.8411  0.2847
  985MOL0     C32851   3.172   2.294   9.715 -0.0927 -0.0186 -0.6127
  985MOL0     C32852   3.221   2.314   9.858 -0.7564  0.4508  0.2309
  985MOL0     C32853   3.347   2.224   9.881  0.0905 -0.3558 -0.0643
  985MOL0     C32854   3.428   2.249  10.005 -0.3070 -0.3538  1.4872
  985MOL0     C32855   3.367   2.175  10.124 -0.0679  0.0609 -0.5091
  985MOL0     C32856   3.422   2.037  10.134  0.0033  0.8096 -0.2409
  985MOL0     N32857   3.327   1.935  10.090  1.1799 -0.7354 -0.1249
  985MOL0     C32858   3.312   1.893   9.958 -0.8929  1.4923 -0.3464
  985MOL0     C32859   3.213   1.804   9.961  0.6532 -0.5221  0.1291
  985MOL0     C32860   3.157   1.719   9.849  0.3648 -0.7760  1.0852
  985MOL0     C32861   3.029   1.771   9.797  0.0765 -1.0489 -0.2270
  985MOL0     C32862   2.966   1.675   9.702 -0.3712 -0.3299  0.6938
  985MOL0     C32863   2.843   1.727   9.624 -0.3384 -0.2421 -0.6062
  985MOL0     O32864   2.727   1.703   9.710  0.3152 -0.2549 -0.2454
  985MOL0     C32865   2.603   1.688   9.652  1.1103 -0.3125 -0.1945
  985MOL0     C32866   2.499   1.637   9.720 -0.6845  0.3343 -0.8788
  985MOL0     C32867   2.378   1.625   9.668  0.3921 -0.0202  0.2650
  985MOL0     C32868   2.287   1.548   9.764 -0.8422 -0.2480  0.0071
  985MOL0     C32869   2.345   1.682   9.542  0.1168  0.9734  0.6608
  985MOL0     C32870   2.211   1.650   9.472  0.0673 -0.2082 -0.4871
  985MOL0     O32871   2.110   1.612   9.547  0.1685  0.0046 -0.5792
  985MOL0     C32872   1.996   1.554   9.485 -0.1078  0.5368  0.5091
  985MOL0     C32873   2.007   1.461   9.379 -0.3765 -0.3727 -1.1468
  985MOL0     C32874   1.901   1.389   9.339 -0.9727  0.0278 -0.1245
  985MOL0     C32875   1.772   1.403   9.397  0.0558  1.2185  0.3403
  985MOL0     O32876   1.682   1.303   9.365 -0.3481 -0.0181 -0.7317
  985MOL0     C32877   1.666   1.207   9.481  0.7417 -0.5977  0.4081
  985MOL0     C32878   1.599   1.078   9.438 -0.0507  0.0578 -0.2944
  985MOL0     C32879   1.470   1.087   9.361  0.2787 -1.6088  0.1645
  985MOL0     C32880   1.387   0.966   9.341 -0.1925  0.8773 -0.3211
  985MOL0     C32881   1.281   1.005   9.235  0.7522 -0.5681  0.3808
  985MOL0     C32882   1.189   0.892   9.177 -0.2049  0.7808 -0.5769
  985MOL0     C32883   1.103   0.829   9.283 -0.1181 -0.1107 -0.1305
  985MOL0     C32884   0.975   0.904   9.321  0.2606  0.6317  0.7221
  985MOL0    Cl32885   0.981   1.026   9.445  0.0394  0.0810 -0.2709
  985MOL0     C32886   1.761   1.483   9.502 -0.4542  0.6528 -0.3292
  985MOL0     C32887   1.868   1.568   9.545 -0.7900  0.9564 -0.4629
  985MOL0     O32888   2.225   1.647   9.349 -0.1175  0.4809 -0.6342
  985MOL0     C32889   2.448   1.743   9.474 -0.4312 -0.2783  1.0282
  985MOL0     C32890   2.579   1.748   9.523  0.1520 -0.0866 -0.7081
  985MOL0     N32891   3.173   1.778  10.095  0.2364 -0.2079  0.0750
  985MOL0     N32892   3.247   1.863  10.169  0.8089  0.2465 -0.1018
  985MOL0     C32893   2.861   2.103   9.335 -0.9072 -1.2366  0.2697
  985MOL0     C32894   2.823   2.056   9.203  0.1186 -0.1133 -1.1856
  985MOL0     C32895   2.572   1.844   8.929  0.2967 -0.1696 -0.6781
  985MOL0     C32896   2.638   1.829   8.804 -0.8197 -0.5705  0.3593
  985MOL0     C32897   2.554   1.821   8.695 -0.2873  0.5528 -0.0916
  985MOL0     C32898   2.409   1.807   8.711  0.4045 -0.2117 -0.0896
  985MOL0     O32899   2.324   1.792   8.606  0.4823 -0.7075  0.1156
  985MOL0     C32900   2.391   1.799   8.480 -0.0939  0.0886 -0.1445
  985MOL0     C32901   2.284   1.762   8.377  0.9423  0.0898 -0.3451
  985MOL0     C32902   2.171   1.871   8.373 -0.4468  0.7663 -0.4146
  985MOL0     C32903   2.066   1.836   8.269  0.5100  0.8287  1.1582
  985MOL0     C32904   1.984   1.947   8.224 -0.6555 -0.5753  0.0397
  985MOL0     C32905   1.913   2.034   8.188  0.5534 -0.4100  0.4986
  985MOL0     C32906   2.350   1.804   8.832 -0.4961 -0.4269  0.0824
  985MOL0     C32907   2.431   1.830   8.940 -0.3622  0.6617 -0.1983
  985MOL0     H32908   2.952   1.752   9.177  0.2171  1.3331 -3.7018
  985MOL0     H32909   3.023   1.806   9.405 -0.2700  0.0222 -0.6189
  985MOL0     H32910   3.104   2.182   9.475 -0.0851 -5.5756 -2.3380
  985MOL0     H32911   2.951   2.238   9.541 -2.0661 -1.9902 -0.1708
  985MOL0     H32912   3.014   2.150   9.768  0.9107  0.7280  1.0523
  985MOL0     H32913   3.151   2.070   9.715  0.0577 -0.6941  2.4213
  985MOL0     H32914   3.264   2.285   9.656  0.6121  0.2172  0.4158
  985MOL0     H32915   3.114   2.376   9.674  2.1878  1.3654 -1.2293
  985MOL0     H32916   3.248   2.420   9.858 -0.4099  0.3690  0.8235
  985MOL0     H32917   3.147   2.296   9.936 -1.6599 -3.3407 -1.2686
  985MOL0     H32918   3.294   2.128   9.877  0.0221 -0.2998 -0.7589
  985MOL0     H32919   3.412   2.237   9.794 -1.4594  0.6045 -1.1351
  985MOL0     H32920   3.535   2.230   9.992 -0.2655  0.9582 -0.4397
  985MOL0     H32921   3.422   2.354  10.035  0.8425  0.3507 -0.5664
  985MOL0     H32922   3.398   2.237  10.209  0.4056 -0.0336 -0.6081
  985MOL0     H32923   3.258   2.166  10.128 -0.1941 -1.5678 -4.2243
  985MOL0     H32924   3.460   1.998  10.229  2.3128 -1.7283 -2.0352
  985MOL0     H32925   3.514   2.030  10.075 -0.3059  2.1811 -0.9313
  985MOL0     H32926   3.372   1.905   9.868 -2.7048 -0.3567 -1.9139
  985MOL0     H32927   3.233   1.713   9.770  0.9101  1.9319  1.3122
  985MOL0     H32928   3.144   1.620   9.893  0.2357 -1.3211 -0.1353
  985MOL0     H32929   3.057   1.865   9.749  0.0180 -0.7744  0.2675
  985MOL0     H32930   2.969   1.797   9.885  0.5277  1.3408 -0.5557
  985MOL0     H32931   2.941   1.581   9.751 -0.9333  0.3750  1.8085
  985MOL0     H32932   3.040   1.651   9.625  0.0328  1.6061  0.4351
  985MOL0     H32933   2.838   1.679   9.526  5.8634  0.0449 -1.4743
  985MOL0     H32934   2.856   1.836   9.616 -0.5288 -0.1962 -0.3295
  985MOL0     H32935   2.522   1.585   9.812 -1.1712 -2.4242 -2.2064
  985MOL0     H32936   2.260   1.451   9.723  1.5625 -0.4606 -1.2488
  985MOL0     H32937   2.327   1.525   9.862 -2.7873  0.0391  0.9231
  985MOL0     H32938   2.191   1.600   9.780 -0.6808  0.2081 -0.4645
  985MOL0     H32939   2.104   1.444   9.334  1.2119  0.9068  1.5225
  985MOL0     H32940   1.917   1.314   9.262 -0.7177  1.1440 -1.1922
  985MOL0     H32941   1.761   1.184   9.530  1.1452  2.7597  1.4240
  985MOL0     H32942   1.611   1.258   9.561 -0.3634 -0.5027 -0.3913
  985MOL0     H32943   1.659   1.018   9.368  3.0698  0.4574  1.8498
  985MOL0     H32944   1.592   1.011   9.524 -4.1859  0.5103 -0.0553
  985MOL0     H32945   1.513   1.119   9.265  2.7574  1.6846  2.1666
  985MOL0     H32946   1.403   1.165   9.398  0.0215 -1.6659 -0.1733
  985MOL0     H32947   1.453   0.889   9.299  4.1044  0.9750  5.1566
  985MOL0     H32948   1.340   0.932   9.434 -0.2708  1.3357 -0.1939
  985MOL0     H32949   1.326   1.043   9.143 -0.6631 -2.5212 -1.1980
  985MOL0     H32950   1.219   1.087   9.275 -0.4322 -1.4368  0.3825
  985MOL0     H32951   1.137   0.927   9.087  0.4452 -0.0141 -1.2709
  985MOL0     H32952   1.252   0.810   9.142  3.4816  2.3093  1.8715
  985MOL0     H32953   1.144   0.794   9.378 -1.5342 -1.2576  0.1089
  985MOL0     H32954   1.073   0.731   9.246  5.4670 -1.5960 -1.5186
  985MOL0     H32955   0.920   0.824   9.371  1.9026 -2.3653 -1.8498
  985MOL0     H32956   0.930   0.947   9.232  1.9287  0.4334 -0.2618
  985MOL0     H32957   1.682   1.481   9.577 -1.2909  1.8335 -1.1455
  985MOL0     H32958   1.866   1.619   9.640 -0.4429 -2.6296  1.6304
  985MOL0     H32959   2.431   1.767   9.370 -1.0058  0.2678  1.2462
  985MOL0     H32960   2.661   1.791   9.465  1.8702 -2.9342 -0.5572
  985MOL0     H32961   2.841   2.205   9.366  0.2412 -0.7150 -0.6253
  985MOL0     H32962   2.747   2.121   9.162 -0.8563  0.5537  1.4504
  985MOL0     H32963   2.745   1.839   8.789 -0.5790  0.4512  2.3762
  985MOL0     H32964   2.606   1.827   8.600  0.3472  2.3974  0.3495
  985MOL0     H32965   2.430   1.899   8.462 -2.5079  2.3743  5.1653
  985MOL0     H32966   2.473   1.727   8.468  0.3141  0.3255  1.0710
  985MOL0     H32967   2.234   1.667   8.398  0.3764  0.8737  2.3032
  985MOL0     H32968   2.331   1.760   8.278 -3.1789 -0.4304 -2.4900
  985MOL0     H32969   2.215   1.961   8.330 -0.9605  0.6832 -1.1287
  985MOL0     H32970   2.127   1.892   8.471 -0.7313  2.5035 -0.8850
  985MOL0     H32971   2.010   1.750   8.307 -1.6269 -0.1479 -3.4768
  985MOL0     H32972   2.115   1.801   8.178 -3.5664  0.4289 -1.1327
  985MOL0     H32973   1.849   2.115   8.162  2.4474  1.3453  1.0246
  985MOL0     H32974   2.244   1.797   8.852 -0.9275 -1.4310 -2.2035
  985MOL0     H32975   2.382   1.840   9.036 -0.7878 -0.8768 -0.2231
  986MOL0     O32976   5.789  10.609   5.430 -0.2246 -0.0947  0.2013
  986MOL0     C32977   5.830  10.691   5.350  0.3093 -0.2613 -0.7346
  986MOL0     O32978   5.753  10.737   5.237  0.2220 -0.6274  0.1573
  986MOL0     C32979   5.633  10.673   5.232  0.1334  0.5440  0.0229
  986MOL0     C32980   5.516  10.742   5.259 -0.0054 -0.6105  0.3727
  986MOL0     C32981   5.392  10.684   5.231 -0.5807 -0.2574 -1.1711
  986MOL0     C32982   5.384  10.552   5.196  0.3375  0.5963 -0.0428
  986MOL0     O32983   5.275  10.488   5.161 -0.6345  0.4618 -0.2362
  986MOL0     C32984   5.145  10.535   5.211 -0.7048  0.1031  0.8342
  986MOL0     C32985   5.131  10.526   5.357  1.3849  0.4256  0.0337
  986MOL0     C32986   5.136  10.384   5.412 -0.3659 -0.0113  0.3714
  986MOL0     C32987   4.993  10.346   5.449  0.3713 -0.7186  0.5106
  986MOL0     C32988   4.961  10.197   5.469 -0.0267 -0.8493 -0.5321
  986MOL0     C32989   4.809  10.188   5.512  0.3677 -0.0993  0.1254
  986MOL0     C32990   4.778  10.039   5.556  0.2600  0.4238 -0.5009
  986MOL0     C32991   4.827  10.017   5.701 -0.7810  0.8038  0.4931
  986MOL0     N32992   4.792   9.880   5.735  0.2629 -0.4626 -0.0331
  986MOL0     C32993   4.739   9.845   5.857 -0.4408 -0.1661  0.2755
  986MOL0     C32994   4.752   9.710   5.867  0.8374 -0.2574 -0.0873
  986MOL0     C32995   4.719   9.631   5.990 -0.2291  0.6113 -0.1386
  986MOL0     C32996   4.592   9.663   6.073 -0.3049  0.1125  0.4557
  986MOL0     C32997   4.471   9.688   5.975  1.1706  0.3979 -0.1983
  986MOL0     C32998   4.340   9.684   6.063  0.1429 -0.2595 -0.2603
  986MOL0     O32999   4.337   9.786   6.163  0.6828  0.8202  0.6025
  986MOL0     C33000   4.261   9.896   6.129 -0.2147  0.3873 -0.4465
  986MOL0     C33001   4.279   9.972   6.011 -0.9609  0.2946  0.2954
  986MOL0     C33002   4.202  10.083   5.992  0.0339  0.0492  0.4493
  986MOL0     C33003   4.247  10.161   5.870  0.2496 -0.2798  0.2910
  986MOL0     C33004   4.101  10.124   6.072  0.6557 -0.9047 -0.8789
  986MOL0     C33005   4.003  10.235   6.062  0.1329 -0.3399  0.3057
  986MOL0     O33006   3.942  10.270   6.176 -0.7306 -0.2149  0.9799
  986MOL0     C33007   3.841  10.361   6.170  0.1276  0.9211  0.0890
  986MOL0     C33008   3.708  10.332   6.121 -0.0192 -0.1949  0.8860
  986MOL0     C33009   3.619  10.444   6.097  0.0378  0.4789 -0.0547
  986MOL0     C33010   3.656  10.572   6.118  0.2932 -0.8245 -1.1742
  986MOL0     O33011   3.572  10.684   6.109 -0.6475  0.8313 -0.2638
  986MOL0     C33012   3.452  10.696   6.027 -0.9799 -0.1109  0.7991
  986MOL0     C33013   3.436  10.839   5.982  0.1669 -0.8153  0.0766
  986MOL0     C33014   3.297  10.876   5.950 -0.2712 -0.7101  0.6460
  986MOL0     C33015   3.246  10.811   5.819 -0.4708 -0.2292 -0.5611
  986MOL0     C33016   3.092  10.841   5.808 -0.0734  0.6681 -0.1252
  986MOL0     C33017   3.019  10.793   5.685  0.5248  0.6577 -0.5366
  986MOL0     C33018   2.866  10.822   5.694  0.6898 -0.0127  0.6303
  986MOL0     C33019   2.781  10.766   5.576  0.4236 -1.1567  0.7185
  986MOL0    Cl33020   2.690  10.900   5.502 -0.1818 -0.0542 -0.4622
  986MOL0     C33021   3.794  10.595   6.139  0.2735 -0.3614 -0.1933
  986MOL0     C33022   3.885  10.490   6.173 -0.4152  0.2446 -0.3581
  986MOL0     O33023   3.976  10.269   5.951  0.5447 -0.5722  0.5300
  986MOL0     C33024   4.086  10.048   6.190 -1.4429 -1.0064 -0.3875
  986MOL0     C33025   4.153   9.928   6.222 -1.1583 -0.2772 -0.4298
  986MOL0     N33026   4.795   9.663   5.744 -0.4066  0.2173 -0.1016
  986MOL0     N33027   4.823   9.767   5.663 -0.2824  0.1545 -0.5941
  986MOL0     C33028   5.505  10.476   5.170 -0.1614 -0.4651 -1.3008
  986MOL0     C33029   5.621  10.546   5.180  0.1543  0.2162 -0.1131
  986MOL0     C33030   5.960  10.760   5.370 -0.1046 -0.1848 -0.3121
  986MOL0     C33031   6.015  10.858   5.284  0.5879  0.2110 -0.4030
  986MOL0     C33032   6.139  10.918   5.306  0.1873 -0.0160 -0.2880
  986MOL0     C33033   6.217  10.897   5.416  1.0154 -0.6035  0.0897
  986MOL0     O33034   6.338  10.945   5.452  0.0149 -0.4992  0.0005
  986MOL0     C33035   6.439  10.995   5.362 -0.6182  0.0949  0.3266
  986MOL0     C33036   6.505  10.876   5.287  0.0365 -0.1030  0.2758
  986MOL0     C33037   6.565  10.917   5.153  1.1505  0.0491  0.5418
  986MOL0     C33038   6.642  10.806   5.089  0.9764 -1.5219  0.0751
  986MOL0     C33039   6.690  10.853   4.955  0.2145 -0.4448  0.8244
  986MOL0     C33040   6.733  10.895   4.852  0.2190  0.7199  1.2759
  986MOL0     C33041   6.167  10.794   5.495  0.2312  0.3482 -0.0207
  986MOL0     C33042   6.051  10.723   5.475 -0.7823  0.3464 -0.2977
  986MOL0     H33043   5.532  10.843   5.297  3.6947 -1.7561  2.3144
  986MOL0     H33044   5.305  10.748   5.243  0.6493  1.3092 -0.2883
  986MOL0     H33045   5.124  10.639   5.184 -4.4777 -0.4524  0.9863
  986MOL0     H33046   5.066  10.474   5.166 -1.0005  1.3559 -0.4401
  986MOL0     H33047   5.199  10.595   5.408 -1.1646  2.6690  0.5639
  986MOL0     H33048   5.036  10.572   5.384  2.3040  0.4058  3.9080
  986MOL0     H33049   5.182  10.315   5.341  0.7117  2.2998 -1.3061
  986MOL0     H33050   5.205  10.383   5.497  0.0742  5.2523  0.4009
  986MOL0     H33051   4.970  10.407   5.536  1.2552  0.0572  0.2221
  986MOL0     H33052   4.936  10.376   5.361  1.8790 -1.3252 -0.7261
  986MOL0     H33053   4.972  10.148   5.372  0.0956  0.2298 -1.0815
  986MOL0     H33054   5.034  10.159   5.541  3.6776  1.9298 -2.4776
  986MOL0     H33055   4.790  10.253   5.598 -6.5527 -1.7311  0.4498
  986MOL0     H33056   4.750  10.235   5.433  0.5909  1.2322  0.7127
  986MOL0     H33057   4.670  10.022   5.559  0.1396  1.2034 -0.2205
  986MOL0     H33058   4.818   9.967   5.484 -1.9003  0.4608 -1.8171
  986MOL0     H33059   4.773  10.083   5.769 -2.8531  0.7181 -0.9638
  986MOL0     H33060   4.937  10.017   5.703 -0.7840  1.4720  0.6942
  986MOL0     H33061   4.698   9.919   5.926 -0.1138  0.3337 -0.0574
  986MOL0     H33062   4.698   9.530   5.956 -2.5753  0.1269  2.4273
  986MOL0     H33063   4.806   9.637   6.057  2.1374  1.4905 -3.0439
  986MOL0     H33064   4.617   9.748   6.137  1.7638 -0.9788  1.1792
  986MOL0     H33065   4.565   9.582   6.140  1.1289  0.3659  1.3635
  986MOL0     H33066   4.466   9.612   5.897 -0.8941  0.4674 -0.1873
  986MOL0     H33067   4.484   9.786   5.929  1.3008  0.9853  1.0433
  986MOL0     H33068   4.332   9.588   6.116  1.9191 -0.5837 -0.5211
  986MOL0     H33069   4.249   9.692   6.003 -0.1164 -1.2471 -0.0271
  986MOL0     H33070   4.362   9.958   5.943 -0.5719  0.6330  0.7008
  986MOL0     H33071   4.164  10.189   5.805  0.1488 -0.7170  0.2289
  986MOL0     H33072   4.296  10.250   5.911  3.8485 -1.4369 -1.1484
  986MOL0     H33073   4.320  10.105   5.811  0.1496 -0.6691  0.5360
  986MOL0     H33074   3.679  10.232   6.090 -0.1617 -0.4776  1.8918
  986MOL0     H33075   3.514  10.425   6.076 -0.2287 -1.4256  2.4845
  986MOL0     H33076   3.448  10.642   5.933 -2.4776  4.5076 -2.1317
  986MOL0     H33077   3.366  10.668   6.090  1.5916 -4.9368  2.6839
  986MOL0     H33078   3.478  10.899   6.063 -1.9337 -1.1243  1.4863
  986MOL0     H33079   3.501  10.844   5.894  1.1102 -1.3214  0.7276
  986MOL0     H33080   3.301  10.984   5.936 -2.0610 -0.3562  2.4524
  986MOL0     H33081   3.229  10.850   6.032 -3.0855 -2.3905 -2.0039
  986MOL0     H33082   3.295  10.861   5.735 -0.5495  0.4313 -0.2226
  986MOL0     H33083   3.264  10.704   5.819 -4.5030 -1.0763  0.8370
  986MOL0     H33084   3.072  10.948   5.806  2.7500  1.2707 -2.0217
  986MOL0     H33085   3.040  10.800   5.895 -0.7343 -1.1889 -1.3543
  986MOL0     H33086   3.053  10.840   5.592 -1.8614  2.4844 -0.5975
  986MOL0     H33087   3.041  10.686   5.675 -1.2730  0.0947  0.9129
  986MOL0     H33088   2.871  10.931   5.690  2.0968  0.0177  2.1107
  986MOL0     H33089   2.809  10.797   5.784 -1.7470  3.9500  0.4318
  986MOL0     H33090   2.728  10.683   5.622  1.9176 -0.1501  4.6807
  986MOL0     H33091   2.835  10.718   5.493  1.6966  0.4066  0.5792
  986MOL0     H33092   3.833  10.696   6.148  1.0623 -0.4557 -2.0995
  986MOL0     H33093   3.986  10.505   6.209  0.7969 -2.7600 -2.1481
  986MOL0     H33094   4.014  10.066   6.269  1.6998  0.3022  2.4496
  986MOL0     H33095   4.140   9.877   6.316 -0.7062 -0.7511 -0.6169
  986MOL0     H33096   5.495  10.370   5.148 -0.0979 -0.7365 -0.0628
  986MOL0     H33097   5.712  10.495   5.151  1.8035  2.4050  0.8484
  986MOL0     H33098   5.957  10.881   5.195  1.9689  1.9313 -0.8995
  986MOL0     H33099   6.163  10.992   5.230  1.2728 -1.3186 -1.2610
  986MOL0     H33100   6.382  11.063   5.297 -2.2082 -1.5409 -0.0766
  986MOL0     H33101   6.521  11.040   5.418  2.0903 -1.0754 -2.4783
  986MOL0     H33102   6.436  10.794   5.269  0.9696 -0.5736 -1.3825
  986MOL0     H33103   6.586  10.830   5.346  1.6780 -2.5470 -3.5238
  986MOL0     H33104   6.628  11.006   5.165  2.7335 -1.4135  4.5768
  986MOL0     H33105   6.477  10.942   5.093  0.2705 -0.1376  1.7090
  986MOL0     H33106   6.578  10.718   5.081  1.4749 -1.8022 -1.0139
  986MOL0     H33107   6.728  10.780   5.152  1.6844 -0.5528 -0.4587
  986MOL0     H33108   6.776  10.934   4.762  4.8502 -1.2015  2.3576
  986MOL0     H33109   6.219  10.763   5.586  1.0748  1.9264  0.0800
  986MOL0     H33110   6.027  10.636   5.535  3.1733 -1.4808 -1.0504
  987MOL0     O33111   4.591   7.562   2.303 -0.6117 -0.4940 -0.4422
  987MOL0     C33112   4.708   7.562   2.350  1.2231 -0.6187  0.4981
  987MOL0     O33113   4.797   7.673   2.355  0.4102  0.2935 -0.3068
  987MOL0     C33114   4.731   7.788   2.341 -0.1615 -0.2664 -0.6207
  987MOL0     C33115   4.686   7.858   2.453 -0.5227 -0.3695  0.2322
  987MOL0     C33116   4.643   7.992   2.443 -0.1146  0.4743 -0.3489
  987MOL0     C33117   4.623   8.042   2.312  0.8617  1.0142 -0.8078
  987MOL0     O33118   4.582   8.166   2.295  0.3713  0.7767 -0.2486
  987MOL0     C33119   4.648   8.276   2.353  0.6378 -0.0260  0.8467
  987MOL0     C33120   4.585   8.406   2.319 -1.1256  0.4153  0.3100
  987MOL0     C33121   4.434   8.425   2.359 -1.0418  0.5521  0.3097
  987MOL0     C33122   4.378   8.556   2.313  0.1534 -0.1413  0.6453
  987MOL0     C33123   4.250   8.585   2.385  0.4380 -0.7233 -0.5792
  987MOL0     C33124   4.159   8.695   2.322 -0.1857  0.2876 -0.1210
  987MOL0     C33125   4.128   8.661   2.173  0.4856  0.0829  0.4029
  987MOL0     C33126   4.022   8.752   2.106 -0.1089  0.3465  0.2333
  987MOL0     N33127   3.883   8.732   2.159 -0.7625  0.1222 -0.0094
  987MOL0     C33128   3.845   8.798   2.277 -0.2311 -0.2092  0.5958
  987MOL0     C33129   3.716   8.753   2.302  0.4143 -0.5060 -0.0151
  987MOL0     C33130   3.619   8.826   2.401 -0.7543 -0.1962  0.5245
  987MOL0     C33131   3.499   8.723   2.422 -1.4227  0.3490  0.0957
  987MOL0     C33132   3.389   8.766   2.524 -1.0152  0.5024  0.1454
  987MOL0     C33133   3.329   8.904   2.494 -0.1810  0.9972  0.6553
  987MOL0     O33134   3.261   8.912   2.368 -0.5321  0.1612  1.1251
  987MOL0     C33135   3.162   8.822   2.326 -0.9566  0.9086  0.8213
  987MOL0     C33136   3.127   8.813   2.189 -0.1071 -0.1147 -0.9011
  987MOL0     C33137   3.020   8.741   2.135  0.0140  0.5801 -0.5377
  987MOL0     C33138   2.994   8.749   1.987 -0.1436 -0.1696  0.3447
  987MOL0     C33139   2.948   8.661   2.226 -0.3204  0.4845 -0.8117
  987MOL0     C33140   2.830   8.579   2.199  0.7265  0.4571  0.9213
  987MOL0     O33141   2.794   8.479   2.294 -0.3820  0.1816 -0.2230
  987MOL0     C33142   2.714   8.374   2.256 -1.0180  0.1814  0.2560
  987MOL0     C33143   2.772   8.248   2.232  1.8075  0.1860  0.2056
  987MOL0     C33144   2.694   8.136   2.180 -0.3398  0.4969 -0.2953
  987MOL0     C33145   2.554   8.149   2.173  0.0742 -0.5084  1.2211
  987MOL0     O33146   2.489   8.039   2.141 -0.1558 -0.2638  0.2381
  987MOL0     C33147   2.349   8.041   2.107  0.5159  0.4321  0.3018
  987MOL0     C33148   2.283   7.910   2.050 -0.2848 -0.1322 -0.5738
  987MOL0     C33149   2.357   7.848   1.933  0.2253  0.0371 -0.0569
  987MOL0     C33150   2.507   7.831   1.947  1.0447 -0.1032 -0.2829
  987MOL0     C33151   2.577   7.725   1.866  0.5724  0.7050 -0.3235
  987MOL0     C33152   2.716   7.714   1.925 -0.0250  0.9021 -0.4575
  987MOL0     C33153   2.800   7.600   1.851  0.0168  0.5727  0.0879
  987MOL0     C33154   2.947   7.600   1.896  0.7212  0.8209  0.6530
  987MOL0    Cl33155   3.022   7.508   1.773  0.4820 -0.1898 -0.0818
  987MOL0     C33156   2.495   8.281   2.185  0.2373  0.0555 -0.2657
  987MOL0     C33157   2.571   8.394   2.230 -0.2132  1.0093 -0.6729
  987MOL0     O33158   2.769   8.587   2.087 -0.6234 -0.3604 -1.4401
  987MOL0     C33159   2.984   8.669   2.362 -0.5891 -0.8162  0.0091
  987MOL0     C33160   3.088   8.743   2.414  0.7938 -0.2069 -0.9137
  987MOL0     N33161   3.688   8.664   2.201 -0.4141  0.8861 -0.2851
  987MOL0     N33162   3.780   8.642   2.117 -0.2234 -0.5557 -0.6210
  987MOL0     C33163   4.642   7.966   2.205  0.0612  0.1581 -0.7864
  987MOL0     C33164   4.699   7.839   2.214 -0.5311 -0.0399  1.2181
  987MOL0     C33165   4.766   7.422   2.364  0.9858  0.7687  0.0822
  987MOL0     C33166   4.873   7.396   2.453 -0.1510  0.3780  0.6452
  987MOL0     C33167   4.942   7.277   2.452  0.2862  0.2420 -0.2102
  987MOL0     C33168   4.879   7.163   2.387 -0.3724  0.4755 -0.4896
  987MOL0     O33169   4.960   7.052   2.382  0.8356 -0.2141 -0.3830
  987MOL0     C33170   4.908   6.924   2.325 -0.4606 -0.0454 -0.5645
  987MOL0     C33171   4.809   6.845   2.423  1.4874 -0.0491  0.4154
  987MOL0     C33172   4.883   6.726   2.473 -0.0308  0.2519 -0.1204
  987MOL0     C33173   4.836   6.692   2.614  0.3715 -0.2164  0.4231
  987MOL0     C33174   4.871   6.555   2.656 -0.4330 -0.4292 -0.0413
  987MOL0     C33175   4.894   6.446   2.696 -0.0736 -0.1208  0.2386
  987MOL0     C33176   4.754   7.174   2.318  0.0387 -0.3715  0.1417
  987MOL0     C33177   4.695   7.309   2.314 -0.4048 -0.0464  0.4393
  987MOL0     H33178   4.697   7.823   2.555 -1.2830  1.2286  0.8931
  987MOL0     H33179   4.603   8.039   2.533 -0.3401  1.1313 -0.7844
  987MOL0     H33180   4.639   8.258   2.460 -1.0420 -0.7963  0.6069
  987MOL0     H33181   4.752   8.274   2.319  0.2813 -1.6520 -0.2892
  987MOL0     H33182   4.637   8.492   2.364 -0.3364  0.1470 -0.0864
  987MOL0     H33183   4.588   8.403   2.210 -4.0361  1.7592  0.0836
  987MOL0     H33184   4.376   8.347   2.309 -0.3112 -0.6860  1.3084
  987MOL0     H33185   4.413   8.413   2.466 -1.0406  3.8760  0.7811
  987MOL0     H33186   4.451   8.637   2.328 -0.1026  0.0742  0.7369
  987MOL0     H33187   4.367   8.558   2.204  1.5373  0.9698  0.4904
  987MOL0     H33188   4.189   8.494   2.378 -0.8197 -0.0999  1.5597
  987MOL0     H33189   4.269   8.603   2.491  0.3240  0.9977 -0.8278
  987MOL0     H33190   4.071   8.713   2.383  0.3487  1.9276  0.1999
  987MOL0     H33191   4.212   8.790   2.331 -0.0235  0.2952 -1.1010
  987MOL0     H33192   4.223   8.683   2.124  0.5237  0.1110  0.4881
  987MOL0     H33193   4.093   8.558   2.167 -3.6908  1.3724 -0.8243
  987MOL0     H33194   4.025   8.723   2.001 -1.6288 -0.0475  0.2735
  987MOL0     H33195   4.053   8.857   2.112  3.0843 -0.2632 -2.6850
  987MOL0     H33196   3.894   8.872   2.339  0.6720 -0.6933  0.4893
  987MOL0     H33197   3.674   8.835   2.495  1.4057 -0.6509 -0.6180
  987MOL0     H33198   3.588   8.924   2.366  0.1972 -0.6720 -1.8305
  987MOL0     H33199   3.537   8.628   2.459 -0.4450  0.7710  0.2132
  987MOL0     H33200   3.459   8.719   2.320  2.4766 -0.4292 -1.6161
  987MOL0     H33201   3.440   8.776   2.621  1.0315  0.1225 -0.8301
  987MOL0     H33202   3.314   8.687   2.533  0.1591 -0.5483  1.1232
  987MOL0     H33203   3.407   8.980   2.500 -1.0380  1.9443  0.0946
  987MOL0     H33204   3.265   8.928   2.579 -0.6300  1.9225  0.0685
  987MOL0     H33205   3.190   8.872   2.122  1.1456 -0.3993 -0.0108
  987MOL0     H33206   2.953   8.656   1.948 -2.4067  0.3425  1.3588
  987MOL0     H33207   2.925   8.834   1.976  0.5645  0.1343 -2.3036
  987MOL0     H33208   3.081   8.774   1.925  1.2260  0.8729  2.5476
  987MOL0     H33209   2.880   8.240   2.243  1.7027 -0.6662  0.7188
  987MOL0     H33210   2.740   8.040   2.161 -0.1126  0.7435 -1.0301
  987MOL0     H33211   2.315   8.061   2.209 -1.2845 -2.8895  0.4975
  987MOL0     H33212   2.316   8.123   2.042  0.2706  0.1757  0.0998
  987MOL0     H33213   2.294   7.836   2.130 -0.6645 -0.3106 -0.6848
  987MOL0     H33214   2.181   7.937   2.023  0.1721  0.8110 -1.4398
  987MOL0     H33215   2.334   7.913   1.848 -1.1459  0.3295  0.5026
  987MOL0     H33216   2.302   7.754   1.930  1.1228 -0.7123  3.2103
  987MOL0     H33217   2.571   7.919   1.935  0.2876  0.2164 -2.4174
  987MOL0     H33218   2.522   7.788   2.046  3.3756 -0.5547 -0.7499
  987MOL0     H33219   2.581   7.750   1.759 -0.0560  1.4342 -0.1829
  987MOL0     H33220   2.525   7.633   1.894 -0.3419  0.9035 -1.3309
  987MOL0     H33221   2.776   7.801   1.898 -1.2074  1.0594 -2.8981
  987MOL0     H33222   2.723   7.692   2.032  1.6070 -0.7265 -0.8415
  987MOL0     H33223   2.809   7.635   1.747  0.8533  1.0565  0.3218
  987MOL0     H33224   2.754   7.500   1.848  4.2200 -1.5901 -1.8260
  987MOL0     H33225   2.954   7.564   1.999  1.5379  2.4174  1.1988
  987MOL0     H33226   2.985   7.703   1.898 -0.1097  1.1516  3.2889
  987MOL0     H33227   2.388   8.290   2.172  0.1467  0.4833  0.7711
  987MOL0     H33228   2.511   8.485   2.230 -2.0851 -0.1687 -1.8163
  987MOL0     H33229   2.934   8.621   2.446  1.3302 -1.0797  1.0432
  987MOL0     H33230   3.116   8.738   2.519 -1.7044 -2.4890 -0.2604
  987MOL0     H33231   4.624   8.008   2.107  0.3464 -3.6838 -2.6477
  987MOL0     H33232   4.726   7.779   2.127  0.3459  0.6773  0.9764
  987MOL0     H33233   4.914   7.479   2.509 -0.1534  0.1570  0.9812
  987MOL0     H33234   5.033   7.256   2.507  0.0152 -2.6579 -0.6970
  987MOL0     H33235   4.843   6.937   2.238 -0.8770 -1.7908 -0.5695
  987MOL0     H33236   4.990   6.869   2.277 -0.9677  0.2416 -1.7903
  987MOL0     H33237   4.711   6.821   2.382  0.4693 -1.1114  3.1809
  987MOL0     H33238   4.791   6.907   2.511  1.3229  2.0522 -1.0395
  987MOL0     H33239   4.992   6.737   2.472  0.0554  0.0009  2.1291
  987MOL0     H33240   4.873   6.647   2.398  3.1834  1.3635 -1.9036
  987MOL0     H33241   4.729   6.715   2.616  0.0582 -1.1794 -1.9793
  987MOL0     H33242   4.895   6.760   2.676  4.4134 -0.8221 -2.3524
  987MOL0     H33243   4.908   6.343   2.721  1.2066 -1.0131 -3.5349
  987MOL0     H33244   4.706   7.090   2.269  1.8752 -0.9301 -0.8226
  987MOL0     H33245   4.603   7.316   2.258  0.8747  2.2329 -1.5251
  988MOL0     O33246   0.846   4.844   4.616 -0.1050  0.1115  0.8917
  988MOL0     C33247   0.876   4.939   4.547  0.2617 -0.1006 -0.7151
  988MOL0     O33248   0.829   5.061   4.578  0.3147 -0.2932 -0.8757
  988MOL0     C33249   0.752   5.099   4.699 -0.2986 -0.6045  0.0437
  988MOL0     C33250   0.708   5.230   4.699 -0.1514  0.0311 -0.8523
  988MOL0     C33251   0.639   5.283   4.812  0.6283  0.3150 -0.1548
  988MOL0     C33252   0.597   5.204   4.918  0.6546  0.4984 -0.3836
  988MOL0     O33253   0.501   5.250   5.009  0.2050 -0.8858  0.0437
  988MOL0     C33254   0.370   5.197   4.976  0.1773  0.9858  0.0140
  988MOL0     C33255   0.297   5.255   4.864 -0.4799 -0.3144  1.0704
  988MOL0     C33256   0.256   5.398   4.889  0.4279 -0.7990  0.7674
  988MOL0     C33257   0.228   5.483   4.758 -0.1776  0.7642 -0.8055
  988MOL0     C33258   0.343   5.504   4.649  0.3069 -0.2773 -0.0393
  988MOL0     C33259   0.276   5.546   4.520 -0.3433 -0.0541  0.1964
  988MOL0     C33260   0.372   5.609   4.417 -0.1077 -1.3262  0.3615
  988MOL0     C33261   0.484   5.514   4.385  1.3855 -0.3297 -0.9015
  988MOL0     N33262   0.516   5.536   4.243  0.5436  0.7284 -1.4824
  988MOL0     C33263   0.436   5.502   4.141  0.5116  0.5307  0.8632
  988MOL0     C33264   0.497   5.561   4.030  0.0519 -0.2392 -0.0429
  988MOL0     C33265   0.433   5.552   3.896 -0.2225 -0.1084 -0.0333
  988MOL0     C33266   0.537   5.490   3.793  0.8279  0.2394 -0.2895
  988MOL0     C33267   0.485   5.483   3.646 -0.7445  0.0580 -0.2309
  988MOL0     C33268   0.461   5.617   3.587  0.1285 -0.4827 -0.6186
  988MOL0     O33269   0.448   5.616   3.452 -0.0288 -0.1364 -0.7877
  988MOL0     C33270   0.463   5.722   3.371 -0.1492  0.2337 -0.5438
  988MOL0     C33271   0.495   5.698   3.235  1.3115  0.0166 -0.2302
  988MOL0     C33272   0.529   5.794   3.143  0.4460 -0.6368  0.3061
  988MOL0     C33273   0.561   5.752   3.008 -0.3338  0.1906 -0.7496
  988MOL0     C33274   0.532   5.932   3.185  0.1826  0.2974 -0.2734
  988MOL0     C33275   0.560   6.056   3.108  0.1995  0.1713 -0.3067
  988MOL0     O33276   0.524   6.177   3.169 -0.0328  0.8995  0.0658
  988MOL0     C33277   0.571   6.297   3.122  0.4542  0.1235  0.4133
  988MOL0     C33278   0.482   6.374   3.043  0.2580 -0.3466 -0.8229
  988MOL0     C33279   0.517   6.504   2.997  0.1144 -0.9893  0.3645
  988MOL0     C33280   0.629   6.566   3.049  0.9899  0.5799 -0.4627
  988MOL0     O33281   0.660   6.695   3.042 -0.2070  0.0290  0.4675
  988MOL0     C33282   0.777   6.709   2.955 -0.2529 -0.5644 -0.0073
  988MOL0     C33283   0.850   6.833   3.022  0.0182 -0.0823  0.5328
  988MOL0     C33284   0.994   6.842   2.976 -0.2157 -0.6389  0.0567
  988MOL0     C33285   0.996   6.916   2.840 -0.4285 -0.8125 -0.1115
  988MOL0     C33286   1.148   6.934   2.797  0.4002 -0.1418  0.7503
  988MOL0     C33287   1.259   6.954   2.906 -0.1711 -0.0211  0.7558
  988MOL0     C33288   1.229   7.089   2.979  0.7850  0.0073 -0.1023
  988MOL0     C33289   1.315   7.111   3.102  0.5953 -1.1464  0.5146
  988MOL0    Cl33290   1.287   7.279   3.174 -0.2048  0.0484 -0.2543
  988MOL0     C33291   0.708   6.499   3.144 -0.3736  0.9337  0.4343
  988MOL0     C33292   0.681   6.369   3.178 -0.1397  0.5503 -0.5861
  988MOL0     O33293   0.612   6.045   2.996 -0.1749 -0.4272 -0.3034
  988MOL0     C33294   0.491   5.955   3.317  0.6295 -1.0552 -0.4728
  988MOL0     C33295   0.464   5.856   3.409  0.1370 -0.6511 -0.6549
  988MOL0     N33296   0.607   5.622   4.066 -0.1714 -0.2690 -0.4265
  988MOL0     N33297   0.624   5.607   4.195 -0.0907 -0.0382  0.6833
  988MOL0     C33298   0.640   5.067   4.918  0.1770  0.2436 -0.2473
  988MOL0     C33299   0.721   5.021   4.817  0.1350  0.3274 -0.7292
  988MOL0     C33300   0.964   4.917   4.436 -0.3152  0.1975 -0.4875
  988MOL0     C33301   1.031   4.797   4.417  0.2950 -0.5350 -0.4943
  988MOL0     C33302   1.123   4.782   4.315  0.6065  0.1365 -0.1485
  988MOL0     C33303   1.140   4.874   4.214  0.8789 -0.0774 -0.4888
  988MOL0     O33304   1.217   4.869   4.106 -0.5336  0.7090 -0.4371
  988MOL0     C33305   1.271   4.740   4.057 -0.5192 -0.1153  0.3210
  988MOL0     C33306   1.394   4.696   4.144 -0.2422 -0.2597 -0.0352
  988MOL0     C33307   1.461   4.571   4.095 -0.0321  0.0179  0.6621
  988MOL0     C33308   1.601   4.560   4.147 -0.6534 -0.3987 -0.5916
  988MOL0     C33309   1.618   4.603   4.289  0.2917 -0.2654 -0.4673
  988MOL0     C33310   1.616   4.630   4.402 -0.5133  0.8222 -0.0980
  988MOL0     C33311   1.064   4.995   4.234  0.5340  0.3073  0.3669
  988MOL0     C33312   0.980   5.018   4.344  0.1488 -0.1669 -0.2264
  988MOL0     H33313   0.757   5.295   4.628 -0.3601 -0.0488 -1.0710
  988MOL0     H33314   0.609   5.387   4.806 -3.3427 -0.4573  2.3627
  988MOL0     H33315   0.386   5.093   4.946 -1.3977  1.4422 -2.7717
  988MOL0     H33316   0.317   5.211   5.070  0.4768  1.8967  0.0581
  988MOL0     H33317   0.362   5.240   4.777 -0.4053  2.5552  0.5341
  988MOL0     H33318   0.206   5.196   4.851  0.4002 -1.2454 -1.5198
  988MOL0     H33319   0.157   5.402   4.937 -0.1817  3.7666 -0.3965
  988MOL0     H33320   0.330   5.452   4.948  2.4347  0.3664 -2.5444
  988MOL0     H33321   0.152   5.436   4.696  3.8596 -2.2619 -4.0009
  988MOL0     H33322   0.191   5.582   4.787 -0.4282  0.7357 -1.0316
  988MOL0     H33323   0.402   5.593   4.676  0.8833 -0.0975 -1.7246
  988MOL0     H33324   0.408   5.417   4.656  1.2492  0.4118  0.0205
  988MOL0     H33325   0.221   5.460   4.480  1.6123 -1.4815  0.4136
  988MOL0     H33326   0.207   5.628   4.539 -1.7628 -0.7153 -1.7443
  988MOL0     H33327   0.317   5.644   4.329  0.7138  0.7909  0.6227
  988MOL0     H33328   0.411   5.706   4.449 -2.7901 -0.2335  0.6376
  988MOL0     H33329   0.432   5.418   4.395 -2.3567  1.6656  0.9819
  988MOL0     H33330   0.573   5.513   4.448  1.8531  0.1920 -1.5451
  988MOL0     H33331   0.348   5.439   4.145  0.0269  1.2582  3.3896
  988MOL0     H33332   0.348   5.483   3.900  0.4649 -0.9816 -0.3033
  988MOL0     H33333   0.412   5.655   3.866  1.6538 -0.1811 -1.7457
  988MOL0     H33334   0.553   5.392   3.839  0.1145  1.3810  2.6760
  988MOL0     H33335   0.629   5.547   3.802  0.2039  1.0750  1.1137
  988MOL0     H33336   0.392   5.426   3.632 -0.7457  0.5839 -2.7894
  988MOL0     H33337   0.564   5.438   3.586  1.7641  0.0633  2.7744
  988MOL0     H33338   0.529   5.697   3.618 -2.4683  0.5718  3.1130
  988MOL0     H33339   0.371   5.641   3.643  0.3193 -1.4446  0.1524
  988MOL0     H33340   0.518   5.597   3.201 -0.3494 -0.8001  0.9281
  988MOL0     H33341   0.484   5.779   2.936 -1.8183 -1.0225  0.3231
  988MOL0     H33342   0.660   5.780   2.970 -0.2508  1.5998  0.3813
  988MOL0     H33343   0.573   5.643   3.008 -1.2332  0.0649 -2.2795
  988MOL0     H33344   0.385   6.342   3.006 -0.9799  2.2828 -0.0893
  988MOL0     H33345   0.438   6.543   2.935  2.1527  0.4451 -1.4681
  988MOL0     H33346   0.844   6.624   2.971 -3.5195 -3.3529  0.0150
  988MOL0     H33347   0.749   6.736   2.853  1.9863  2.1799 -0.0263
  988MOL0     H33348   0.789   6.921   3.001 -0.6835 -0.1677  2.1039
  988MOL0     H33349   0.853   6.825   3.131  2.2863  4.1763  0.9913
  988MOL0     H33350   1.038   6.742   2.967 -0.8810 -0.8376 -1.1349
  988MOL0     H33351   1.047   6.894   3.057 -0.7393 -0.9099  0.5751
  988MOL0     H33352   0.941   6.857   2.767  0.1365 -1.2814 -0.1688
  988MOL0     H33353   0.962   7.020   2.850  1.5979 -0.2103  1.4517
  988MOL0     H33354   1.152   7.007   2.715  0.8381 -2.2749 -1.2616
  988MOL0     H33355   1.187   6.845   2.745  3.5955  0.1258  2.4135
  988MOL0     H33356   1.270   6.876   2.981  1.4172 -1.4173 -0.8371
  988MOL0     H33357   1.352   6.956   2.848  0.0244  2.1574  1.0617
  988MOL0     H33358   1.126   7.090   3.016  0.3832  0.3174 -1.1761
  988MOL0     H33359   1.252   7.174   2.914  0.0134 -0.3032 -0.7985
  988MOL0     H33360   1.422   7.116   3.081  0.8484  1.3216  2.0234
  988MOL0     H33361   1.298   7.031   3.174 -0.1187 -0.2760  1.3342
  988MOL0     H33362   0.782   6.558   3.198 -0.2490  3.9900 -2.6818
  988MOL0     H33363   0.745   6.317   3.249 -0.1843 -1.8462 -2.1956
  988MOL0     H33364   0.465   6.055   3.351 -3.0628 -1.8218 -0.6581
  988MOL0     H33365   0.431   5.884   3.509  2.8381  2.2479 -0.4569
  988MOL0     H33366   0.609   4.990   4.988  1.4645  1.8413  2.2346
  988MOL0     H33367   0.749   4.916   4.814  0.7628  0.4796 -0.4449
  988MOL0     H33368   1.001   4.714   4.480 -2.0657  1.5065  1.2678
  988MOL0     H33369   1.161   4.680   4.317 -2.1458 -0.9657  1.5167
  988MOL0     H33370   1.199   4.657   4.059  0.5158 -1.0572 -0.4475
  988MOL0     H33371   1.303   4.767   3.956  0.3912  0.1160  0.6650
  988MOL0     H33372   1.357   4.675   4.244  0.9963 -0.9909  0.2940
  988MOL0     H33373   1.466   4.779   4.147 -1.6844  1.0073  2.1994
  988MOL0     H33374   1.479   4.577   3.988 -1.5378  0.7334  0.4360
  988MOL0     H33375   1.398   4.486   4.124 -2.4573  2.1840  2.1262
  988MOL0     H33376   1.671   4.617   4.085  0.2562 -2.0571 -1.1571
  988MOL0     H33377   1.621   4.453   4.163 -3.8219 -1.2645 -1.6939
  988MOL0     H33378   1.617   4.655   4.507  1.3184  0.4887 -0.0066
  988MOL0     H33379   1.076   5.067   4.154  1.8657  0.0334  0.2942
  988MOL0     H33380   0.952   5.122   4.362  0.2001  0.0621 -1.3759
  989MOL0     O33381   2.410   6.017  10.616 -0.2369 -0.5132 -0.0817
  989MOL0     C33382   2.374   5.961  10.514 -0.7651 -0.8217 -0.4294
  989MOL0     O33383   2.258   6.003  10.436  0.5668  0.0256 -0.2685
  989MOL0     C33384   2.178   6.096  10.500  0.3196 -1.1743  0.8352
  989MOL0     C33385   2.168   6.235  10.461 -0.5058 -0.3282  0.4032
  989MOL0     C33386   2.091   6.332  10.521  0.4816  0.1233  0.4866
  989MOL0     C33387   2.026   6.290  10.634  0.0990 -0.7044 -0.2646
  989MOL0     O33388   1.934   6.359  10.702 -1.0800  0.6114  0.2574
  989MOL0     C33389   1.938   6.508  10.688  0.1049 -0.2188  1.0510
  989MOL0     C33390   1.822   6.573  10.767  0.1923 -0.5493  0.5809
  989MOL0     C33391   1.839   6.553  10.919  0.6641 -0.4798  0.3405
  989MOL0     C33392   1.720   6.578  11.008 -0.4874 -0.4077  0.5699
  989MOL0     C33393   1.675   6.728  10.977 -0.1435 -1.0469 -0.9000
  989MOL0     C33394   1.581   6.793  11.084 -0.9130 -0.0614  0.3663
  989MOL0     C33395   1.557   6.940  11.044  0.5839 -1.0692  0.0618
  989MOL0     C33396   1.470   7.012  11.153  0.5238 -0.2494 -0.6684
  989MOL0     N33397   1.433   7.139  11.103  0.0994 -0.6306  1.3956
  989MOL0     C33398   1.495   7.256  11.125 -0.3232 -0.2526  0.1497
  989MOL0     C33399   1.422   7.351  11.072  0.4658 -0.8299  0.0524
  989MOL0     C33400   1.457   7.501  11.089  0.5881 -0.4822 -0.2207
  989MOL0     C33401   1.433   7.587  10.967 -0.8440  0.0352 -0.1247
  989MOL0     C33402   1.290   7.634  10.960  0.2795  0.3040 -0.0067
  989MOL0     C33403   1.248   7.727  10.847  0.6883  0.3407 -0.0184
  989MOL0     O33404   1.249   7.647  10.727 -0.4824  0.2994 -0.3383
  989MOL0     C33405   1.140   7.667  10.638  0.0464  0.3122  0.3113
  989MOL0     C33406   1.083   7.546  10.582 -0.0762  0.1309 -0.4900
  989MOL0     C33407   0.967   7.553  10.499 -0.6317 -0.3637  0.6268
  989MOL0     C33408   0.912   7.419  10.467 -0.1851 -0.6378  0.1170
  989MOL0     C33409   0.907   7.681  10.470  0.3363 -0.3475  1.1958
  989MOL0     C33410   0.796   7.702  10.383 -0.2764 -0.0202 -0.1683
  989MOL0     O33411   0.721   7.807  10.423  0.3556 -0.5908 -0.0978
  989MOL0     C33412   0.616   7.854  10.339  0.3513  0.5462 -0.0461
  989MOL0     C33413   0.495   7.907  10.389  0.5299 -0.5989  0.0084
  989MOL0     C33414   0.389   7.954  10.303  0.1600 -0.2352 -0.0410
  989MOL0     C33415   0.414   7.963  10.163  0.3913 -0.6857  1.2227
  989MOL0     O33416   0.321   8.037  10.082  0.1804  0.0206  0.3658
  989MOL0     C33417   0.376   8.118   9.974  0.2194  0.2867 -0.5432
  989MOL0     C33418   0.450   8.238  10.037 -0.1441  0.1541  0.2937
  989MOL0     C33419   0.366   8.315  10.139 -0.7682  0.4703  0.1528
  989MOL0     C33420   0.413   8.463  10.155  0.4283 -0.7627 -0.4282
  989MOL0     C33421   0.303   8.539  10.228 -0.3852 -1.2584 -0.5483
  989MOL0     C33422   0.339   8.690  10.268  0.8138 -0.3247  0.7861
  989MOL0     C33423   0.214   8.759  10.312  0.8157  0.5288  0.6867
  989MOL0     C33424   0.237   8.912  10.275 -0.3284  0.7630 -0.5197
  989MOL0    Cl33425   0.188   8.932  10.102  0.0489 -0.5682  0.1257
  989MOL0     C33426   0.542   7.917  10.120 -0.3332  0.4711 -0.0097
  989MOL0     C33427   0.639   7.863  10.206 -0.2177 -0.6129 -0.1875
  989MOL0     O33428   0.767   7.620  10.296 -0.2183 -0.0487  0.2866
  989MOL0     C33429   0.973   7.800  10.516 -0.6153 -0.2164  0.8347
  989MOL0     C33430   1.083   7.794  10.601  0.4132  0.1046 -0.0949
  989MOL0     N33431   1.320   7.291  11.003  0.2300 -0.6477  0.0050
  989MOL0     N33432   1.327   7.165  11.014  0.2632  0.5312  0.5329
  989MOL0     C33433   2.031   6.160  10.679  0.3537 -0.4099  0.1772
  989MOL0     C33434   2.103   6.060  10.618 -0.6313 -0.3812  0.4419
  989MOL0     C33435   2.441   5.840  10.470  0.0186 -0.7459  0.3842
  989MOL0     C33436   2.450   5.822  10.328 -0.1932  0.2233 -0.4454
  989MOL0     C33437   2.515   5.703  10.277 -0.2565  0.4026 -0.4425
  989MOL0     C33438   2.583   5.619  10.364  1.0955  0.3639  0.6769
  989MOL0     O33439   2.674   5.522  10.302  0.0515  0.0528 -1.1914
  989MOL0     C33440   2.771   5.449  10.381  0.7984 -0.9841 -0.3237
  989MOL0     C33441   2.846   5.357  10.293 -0.5043 -0.1955 -0.2445
  989MOL0     C33442   2.897   5.431  10.163 -0.7959 -0.3005 -0.2359
  989MOL0     C33443   3.012   5.537  10.198 -0.4153  0.4428 -0.1000
  989MOL0     C33444   3.151   5.497  10.165  0.8098  0.0599  0.2562
  989MOL0     C33445   3.249   5.453  10.118  0.5809  0.1673  0.7460
  989MOL0     C33446   2.571   5.640  10.506  0.6432  0.1180 -1.0196
  989MOL0     C33447   2.499   5.748  10.559  0.6060 -0.4303  0.7001
  989MOL0     H33448   2.237   6.259  10.380  1.5489 -4.7312  0.5434
  989MOL0     H33449   2.092   6.433  10.482  0.5180  0.0129  0.1908
  989MOL0     H33450   2.028   6.560  10.721  1.5083  1.8446 -4.7971
  989MOL0     H33451   1.927   6.536  10.583  3.5648 -0.9646  0.3659
  989MOL0     H33452   1.830   6.681  10.757 -1.5369 -0.2826  1.5142
  989MOL0     H33453   1.724   6.542  10.728 -0.9527  4.2825 -1.1096
  989MOL0     H33454   1.878   6.452  10.938  0.2010 -0.7667 -0.1870
  989MOL0     H33455   1.918   6.623  10.944 -0.9561  1.5755 -0.0324
  989MOL0     H33456   1.635   6.514  10.985 -1.8907  1.6425 -0.2648
  989MOL0     H33457   1.734   6.561  11.115 -2.0244 -1.1982  0.6742
  989MOL0     H33458   1.761   6.795  10.968  2.2955 -3.3907  2.2937
  989MOL0     H33459   1.608   6.724  10.891  0.4951  0.4807 -1.5185
  989MOL0     H33460   1.487   6.738  11.073 -1.2422  0.8116 -1.5882
  989MOL0     H33461   1.617   6.785  11.187  0.6810  0.9118 -0.0890
  989MOL0     H33462   1.651   6.997  11.041 -1.7075  3.8415  5.0396
  989MOL0     H33463   1.509   6.950  10.946  1.4801  1.1281 -0.2105
  989MOL0     H33464   1.527   7.028  11.245  1.6402  2.0114 -1.6951
  989MOL0     H33465   1.372   6.967  11.176 -1.4417  3.9983  0.4585
  989MOL0     H33466   1.586   7.259  11.184  1.4235 -1.1407 -2.3122
  989MOL0     H33467   1.405   7.545  11.175 -1.3814  0.8729 -2.0002
  989MOL0     H33468   1.564   7.502  11.111  0.3463  3.8176  1.7612
  989MOL0     H33469   1.460   7.535  10.875 -0.7810 -2.0821  1.0412
  989MOL0     H33470   1.511   7.663  10.976  2.7090 -3.3258 -0.1188
  989MOL0     H33471   1.267   7.680  11.056  0.8015 -1.3865  0.9617
  989MOL0     H33472   1.221   7.549  10.956  2.1670 -1.2752 -1.4466
  989MOL0     H33473   1.316   7.812  10.848  2.3251 -0.8550  2.8768
  989MOL0     H33474   1.144   7.752  10.869  0.7920  0.9255 -0.1935
  989MOL0     H33475   1.126   7.448  10.598  0.9332  0.8803  1.8659
  989MOL0     H33476   0.802   7.419  10.467 -0.3442  0.5845 -3.7685
  989MOL0     H33477   0.932   7.386  10.364 -0.4675  1.3725 -0.6343
  989MOL0     H33478   0.952   7.342  10.532 -1.7122 -0.6321  1.1056
  989MOL0     H33479   0.486   7.913  10.497  0.9181 -0.0734  0.0161
  989MOL0     H33480   0.300   8.002  10.341 -1.3233  0.3025 -3.7407
  989MOL0     H33481   0.442   8.071   9.901 -0.6050 -0.8339 -0.5846
  989MOL0     H33482   0.293   8.158   9.915  1.1449  2.8285 -0.2896
  989MOL0     H33483   0.546   8.211  10.081  0.8652 -0.2849 -2.0224
  989MOL0     H33484   0.465   8.303   9.950  2.2881 -0.2228  0.3822
  989MOL0     H33485   0.362   8.259  10.234 -3.3651 -0.2178 -0.2667
  989MOL0     H33486   0.264   8.316  10.100 -0.0139 -0.6014 -2.0201
  989MOL0     H33487   0.508   8.469  10.208 -0.1769 -0.7721  0.6868
  989MOL0     H33488   0.426   8.515  10.059 -1.9357  1.0055  0.1080
  989MOL0     H33489   0.284   8.486  10.322  0.6039 -2.5110 -1.0142
  989MOL0     H33490   0.205   8.546  10.181 -0.8283  2.4400  0.6420
  989MOL0     H33491   0.425   8.696  10.335  2.6701 -0.1951 -1.4535
  989MOL0     H33492   0.370   8.736  10.174  0.3630 -0.4948  0.5487
  989MOL0     H33493   0.204   8.746  10.420  1.1777 -1.3475  0.5298
  989MOL0     H33494   0.119   8.722  10.271  0.0036  0.4870  2.5141
  989MOL0     H33495   0.342   8.940  10.287 -0.9339  2.6393  0.8064
  989MOL0     H33496   0.177   8.962  10.352  2.2452  1.3149  1.2640
  989MOL0     H33497   0.568   7.918  10.014  0.2227  2.6381  0.0936
  989MOL0     H33498   0.732   7.824  10.166 -1.0463 -2.9295 -0.0550
  989MOL0     H33499   0.947   7.896  10.472  1.9417 -0.2007 -0.8303
  989MOL0     H33500   1.127   7.882  10.645 -4.1471  2.4014  0.4477
  989MOL0     H33501   1.976   6.139  10.770  2.2167 -1.7146  1.0644
  989MOL0     H33502   2.111   5.967  10.672  1.0168 -0.3577  0.2670
  989MOL0     H33503   2.415   5.903  10.265 -1.0720  1.0398  1.0209
  989MOL0     H33504   2.529   5.698  10.169  1.1915 -0.1426 -0.2449
  989MOL0     H33505   2.833   5.528  10.423 -1.1404  0.4977 -0.0935
  989MOL0     H33506   2.713   5.390  10.452 -0.9909  0.9140 -0.1136
  989MOL0     H33507   2.768   5.290  10.257 -2.9070  1.5409  1.4233
  989MOL0     H33508   2.928   5.305  10.344 -2.3740 -1.2114  1.8935
  989MOL0     H33509   2.815   5.487  10.118 -0.7380  0.1428  0.1962
  989MOL0     H33510   2.927   5.355  10.090  2.3569 -0.5619  1.1677
  989MOL0     H33511   3.010   5.561  10.305 -0.2214  3.2961 -0.6702
  989MOL0     H33512   2.987   5.623  10.136 -0.0477  1.5407  1.2311
  989MOL0     H33513   3.341   5.433  10.068  0.7214  3.0728 -0.3391
  989MOL0     H33514   2.620   5.566  10.569 -3.2534 -0.2008  2.0076
  989MOL0     H33515   2.474   5.748  10.665  1.2712  1.3314  0.8850
  990MOL0     O33516   7.796   2.766   2.971  0.4143  0.1724 -0.2677
  990MOL0     C33517   7.749   2.863   2.934  0.9481 -0.7189  0.6478
  990MOL0     O33518   7.692   2.963   3.013  0.3866 -0.3458 -0.4565
  990MOL0     C33519   7.663   2.920   3.144  0.1413 -0.1078 -0.3836
  990MOL0     C33520   7.532   2.877   3.176 -0.4236  0.0530  1.3032
  990MOL0     C33521   7.516   2.818   3.304  0.2085 -0.9705  0.5437
  990MOL0     C33522   7.619   2.806   3.392  1.0148  1.0085 -0.3376
  990MOL0     O33523   7.580   2.747   3.508  0.3309 -0.8766  0.0159
  990MOL0     C33524   7.660   2.671   3.596 -0.2161 -0.3921 -0.4894
  990MOL0     C33525   7.571   2.630   3.713 -0.3841 -0.2147  0.1013
  990MOL0     C33526   7.658   2.582   3.822 -0.6645 -0.7288 -0.1194
  990MOL0     C33527   7.691   2.694   3.927 -0.0179 -0.0448 -0.0476
  990MOL0     C33528   7.816   2.779   3.900  0.6267  0.0649  0.1145
  990MOL0     C33529   7.863   2.870   4.015 -0.2630  0.5011 -0.7572
  990MOL0     C33530   7.998   2.947   3.980  0.4624 -0.1360  0.7366
  990MOL0     C33531   8.054   3.033   4.085 -1.0201  0.5143  0.4826
  990MOL0     N33532   7.971   3.147   4.107  1.2972  0.4662  0.2646
  990MOL0     C33533   7.988   3.270   4.055  0.4141 -0.2283  0.2806
  990MOL0     C33534   7.920   3.359   4.127 -0.2881 -0.0979  1.1851
  990MOL0     C33535   7.912   3.502   4.101 -0.1299  0.1646  0.1098
  990MOL0     C33536   7.830   3.531   3.967 -0.1091 -0.3157 -0.3264
  990MOL0     C33537   7.829   3.679   3.926 -0.2206  0.4005 -0.9568
  990MOL0     C33538   7.699   3.750   3.908  0.3558  0.2044  0.3669
  990MOL0     O33539   7.622   3.701   3.800  0.1854 -0.1176  0.1291
  990MOL0     C33540   7.528   3.604   3.812  0.9009 -0.9805  1.3196
  990MOL0     C33541   7.503   3.529   3.696  0.6609  0.1963  1.2174
  990MOL0     C33542   7.398   3.432   3.686 -0.4354  0.7029  0.0471
  990MOL0     C33543   7.385   3.355   3.558 -0.4469 -0.3287 -0.5632
  990MOL0     C33544   7.314   3.406   3.793  0.6471 -1.1405  0.3165
  990MOL0     C33545   7.213   3.290   3.802  0.4683 -0.2523  0.4406
  990MOL0     O33546   7.154   3.269   3.926  0.2587 -0.0321  0.2086
  990MOL0     C33547   7.090   3.151   3.939  0.4009 -0.5523 -0.4809
  990MOL0     C33548   6.959   3.143   3.885  0.2392 -0.2782 -0.4534
  990MOL0     C33549   6.874   3.030   3.887  0.2888  0.0057 -0.8672
  990MOL0     C33550   6.926   2.912   3.957 -0.2930 -0.5627 -0.7882
  990MOL0     O33551   6.848   2.806   3.974  0.0788  0.0301 -0.8487
  990MOL0     C33552   6.843   2.711   3.867  0.8671 -0.3215  0.2212
  990MOL0     C33553   6.747   2.739   3.752  0.4991  0.3224 -0.3908
  990MOL0     C33554   6.597   2.773   3.777  0.5329 -1.2441 -0.1168
  990MOL0     C33555   6.513   2.765   3.652  0.0242  0.9819  0.8873
  990MOL0     C33556   6.420   2.886   3.625  0.3131 -0.1018  0.6374
  990MOL0     C33557   6.494   3.019   3.587  0.4500  0.2036 -0.9066
  990MOL0     C33558   6.393   3.130   3.562  0.4697  0.9748 -0.5253
  990MOL0     C33559   6.439   3.251   3.485  0.1091 -0.2193 -0.6700
  990MOL0    Cl33560   6.356   3.277   3.324 -0.3372  0.1465  0.2470
  990MOL0     C33561   7.057   2.918   4.016 -0.5205 -0.1790  0.3155
  990MOL0     C33562   7.146   3.038   4.003  0.6903  0.8931 -0.7115
  990MOL0     O33563   7.185   3.230   3.703  0.0576 -0.1351 -0.0557
  990MOL0     C33564   7.334   3.482   3.913  0.0281 -0.3997  0.2800
  990MOL0     C33565   7.441   3.579   3.921  0.6228  0.2200  0.1502
  990MOL0     N33566   7.872   3.285   4.234  0.8643  0.3746  0.6106
  990MOL0     N33567   7.904   3.162   4.223 -0.6162 -0.7131  0.9981
  990MOL0     C33568   7.752   2.839   3.358 -0.6243 -0.0769 -0.2660
  990MOL0     C33569   7.765   2.909   3.238  0.1432  0.2326 -0.0924
  990MOL0     C33570   7.757   2.899   2.790 -0.1807 -0.2282 -0.4544
  990MOL0     C33571   7.780   2.816   2.682 -0.1979  0.5645 -0.3284
  990MOL0     C33572   7.805   2.863   2.562  1.3278 -0.3152  0.0265
  990MOL0     C33573   7.803   3.004   2.538 -0.6700  0.2425 -0.2366
  990MOL0     O33574   7.853   3.058   2.426  0.0136  0.5571  0.8835
  990MOL0     C33575   7.840   2.987   2.297  0.5968 -0.9748 -0.8831
  990MOL0     C33576   7.964   2.929   2.244 -0.1891 -0.3364 -0.1623
  990MOL0     C33577   8.075   3.035   2.210  0.1274  0.3957  0.7574
  990MOL0     C33578   8.173   2.973   2.121  0.0301  0.0122  0.3283
  990MOL0     C33579   8.277   3.071   2.096 -0.1066  0.4552  0.2298
  990MOL0     C33580   8.360   3.153   2.076 -0.3815 -0.3549  0.6289
  990MOL0     C33581   7.779   3.093   2.644  0.4073 -0.4006 -0.1767
  990MOL0     C33582   7.756   3.037   2.771  0.9354 -0.0910  0.5571
  990MOL0     H33583   7.452   2.908   3.110  1.0659  3.4809  0.8845
  990MOL0     H33584   7.420   2.776   3.332 -0.6692 -0.5715 -1.7334
  990MOL0     H33585   7.697   2.582   3.545 -1.8151 -1.2609 -0.2229
  990MOL0     H33586   7.746   2.735   3.617 -1.2690  0.4492  1.5364
  990MOL0     H33587   7.509   2.709   3.757 -5.1772 -1.7610 -3.0369
  990MOL0     H33588   7.519   2.541   3.676  1.0359 -1.2856  0.6029
  990MOL0     H33589   7.601   2.509   3.881  0.0086 -2.2561 -1.2767
  990MOL0     H33590   7.751   2.532   3.794 -0.7183 -1.5309  1.0747
  990MOL0     H33591   7.602   2.753   3.951  1.0875  1.4708  0.4787
  990MOL0     H33592   7.712   2.637   4.019 -0.2944  0.6682  0.4696
  990MOL0     H33593   7.896   2.706   3.884 -2.9081 -3.9331 -1.1454
  990MOL0     H33594   7.812   2.839   3.808 -2.7150  0.4734  0.4136
  990MOL0     H33595   7.795   2.949   4.049  0.5553  0.7108  0.4304
  990MOL0     H33596   7.880   2.804   4.100 -2.2367  2.6783  1.4856
  990MOL0     H33597   8.080   2.881   3.951  1.9708  3.5235 -4.7053
  990MOL0     H33598   7.983   3.010   3.893  0.6744 -2.9994 -1.5180
  990MOL0     H33599   8.155   3.065   4.057 -0.8105  1.2920  2.0232
  990MOL0     H33600   8.063   2.979   4.179  2.8062  1.2875  0.7333
  990MOL0     H33601   8.043   3.287   3.964 -1.6210 -1.1662 -1.1904
  990MOL0     H33602   7.857   3.551   4.181 -0.5723  0.8295 -0.5836
  990MOL0     H33603   8.010   3.547   4.087 -0.1288  0.0063 -0.4253
  990MOL0     H33604   7.731   3.485   3.967  1.6953 -4.7064 -0.0604
  990MOL0     H33605   7.884   3.481   3.886 -0.9139  1.9936 -2.3932
  990MOL0     H33606   7.870   3.697   3.826  0.0912 -1.1206 -1.1165
  990MOL0     H33607   7.874   3.744   4.002 -1.1119  0.3783 -0.3945
  990MOL0     H33608   7.721   3.855   3.888  1.0788 -0.3259 -1.8826
  990MOL0     H33609   7.634   3.739   3.995 -0.2392 -0.6678 -0.1700
  990MOL0     H33610   7.562   3.545   3.606 -0.8611 -2.1885 -0.2938
  990MOL0     H33611   7.447   3.403   3.482  0.3922 -0.7308 -0.1450
  990MOL0     H33612   7.422   3.252   3.567  0.8309  0.2012  0.4673
  990MOL0     H33613   7.282   3.365   3.522 -0.5686 -1.3413 -0.5488
  990MOL0     H33614   6.922   3.237   3.844 -0.3589 -0.5494 -0.5369
  990MOL0     H33615   6.774   3.022   3.844  1.3230 -1.0295 -3.2108
  990MOL0     H33616   6.946   2.692   3.833  0.1302  0.4884 -2.8039
  990MOL0     H33617   6.803   2.623   3.918  0.8602  0.7401  2.1387
  990MOL0     H33618   6.778   2.835   3.710  3.2548 -0.2107  0.2835
  990MOL0     H33619   6.755   2.669   3.669  2.1639 -0.4221  0.3597
  990MOL0     H33620   6.582   2.872   3.821  0.7634 -1.6111  0.8118
  990MOL0     H33621   6.553   2.707   3.852  0.9210  0.8672  2.0903
  990MOL0     H33622   6.571   2.758   3.559  1.3435  0.4345  1.7199
  990MOL0     H33623   6.452   2.674   3.647  1.2766  0.1100  0.8497
  990MOL0     H33624   6.340   2.896   3.698  0.1486  0.0455  0.4394
  990MOL0     H33625   6.358   2.857   3.539 -0.2651 -1.5318  1.5031
  990MOL0     H33626   6.562   3.046   3.669 -3.8897  1.1105  2.7572
  990MOL0     H33627   6.552   2.989   3.499  1.9116 -2.0009  0.6990
  990MOL0     H33628   6.369   3.175   3.658 -3.1968 -0.1105 -0.7779
  990MOL0     H33629   6.302   3.082   3.524  1.9058 -2.3812 -0.1141
  990MOL0     H33630   6.548   3.248   3.474  0.2260 -3.0365  0.3241
  990MOL0     H33631   6.415   3.336   3.549  2.4566 -0.8324  1.1606
  990MOL0     H33632   7.097   2.831   4.067 -0.3443 -0.1442  0.2383
  990MOL0     H33633   7.243   3.037   4.051 -0.4895 -1.2263  1.9380
  990MOL0     H33634   7.269   3.459   3.996 -0.5682 -5.2384 -1.1909
  990MOL0     H33635   7.455   3.617   4.022 -1.9981  0.1200  0.6263
  990MOL0     H33636   7.833   2.841   3.431 -2.1357  0.9639  1.4699
  990MOL0     H33637   7.868   2.935   3.218  0.3048 -0.1005  0.2917
  990MOL0     H33638   7.772   2.708   2.673 -0.8603  0.4427  1.3708
  990MOL0     H33639   7.840   2.793   2.487  2.4341  0.4596 -0.2035
  990MOL0     H33640   7.766   2.907   2.306 -0.6320  0.0901 -1.3098
  990MOL0     H33641   7.807   3.066   2.229  2.7878  1.4890  0.7163
  990MOL0     H33642   7.931   2.881   2.151  0.1662  1.1609 -1.1008
  990MOL0     H33643   7.996   2.851   2.314 -0.8412 -1.1591 -0.7548
  990MOL0     H33644   8.111   3.049   2.313 -0.3889 -1.3496  1.2158
  990MOL0     H33645   8.032   3.123   2.163 -1.8717 -2.3275 -3.0987
  990MOL0     H33646   8.126   2.942   2.028  0.8131 -1.1784  0.3034
  990MOL0     H33647   8.211   2.885   2.174  0.6617  1.4448  2.3780
  990MOL0     H33648   8.431   3.231   2.056 -1.0103 -0.4261 -2.2721
  990MOL0     H33649   7.771   3.201   2.638 -0.4673 -0.3989  0.7488
  990MOL0     H33650   7.749   3.112   2.849 -0.5692  1.1263 -0.6727
  991MOL0     O33651   6.948   1.525   3.919  0.1821 -0.0881  0.1770
  991MOL0     C33652   6.899   1.424   3.874 -0.2757  1.1031 -0.9569
  991MOL0     O33653   6.805   1.350   3.943  0.4597  1.2532 -0.0585
  991MOL0     C33654   6.773   1.390   4.069 -0.5482 -0.7420 -0.6385
  991MOL0     C33655   6.711   1.515   4.091  0.3039 -0.2704  0.8216
  991MOL0     C33656   6.683   1.551   4.221 -0.7934 -0.3548 -0.4615
  991MOL0     C33657   6.701   1.463   4.331  0.1517  0.0319 -0.6630
  991MOL0     O33658   6.672   1.494   4.462 -0.7524  1.3155 -0.1717
  991MOL0     C33659   6.757   1.463   4.576 -0.6345  0.1704 -0.6002
  991MOL0     C33660   6.771   1.588   4.666  0.4258 -0.0505  0.0813
  991MOL0     C33661   6.812   1.554   4.816 -0.7523 -0.3501 -0.6366
  991MOL0     C33662   6.941   1.488   4.827 -0.1400  0.7177  0.5455
  991MOL0     C33663   7.008   1.514   4.964 -0.4489  0.8898  0.0419
  991MOL0     C33664   6.914   1.472   5.076  0.0298  0.0858  0.7754
  991MOL0     C33665   6.986   1.479   5.218  0.4770  0.0542  0.4216
  991MOL0     C33666   7.053   1.345   5.249 -0.4137  0.6013  0.9034
  991MOL0     N33667   6.976   1.258   5.340  1.0233  0.8280  0.2446
  991MOL0     C33668   6.877   1.164   5.311  1.3604 -0.0418 -0.8181
  991MOL0     C33669   6.835   1.126   5.437  0.6775 -0.2038  0.1514
  991MOL0     C33670   6.725   1.028   5.461 -0.1469 -0.0112 -0.3036
  991MOL0     C33671   6.775   0.883   5.468  0.1489 -0.3699  0.8059
  991MOL0     C33672   6.641   0.805   5.433 -0.3568  0.2363  0.2646
  991MOL0     C33673   6.681   0.649   5.432  0.4427  0.2126  0.3943
  991MOL0     O33674   6.754   0.612   5.313  0.9124  0.3410  0.1620
  991MOL0     C33675   6.782   0.480   5.299  0.1062 -0.2334 -0.4120
  991MOL0     C33676   6.762   0.369   5.391 -0.0107 -0.6451  0.3285
  991MOL0     C33677   6.800   0.232   5.361  0.5530  0.1204 -0.2680
  991MOL0     C33678   6.808   0.130   5.483 -0.7923 -0.2813  0.6680
  991MOL0     C33679   6.855   0.202   5.237  0.7711  0.3072  0.6880
  991MOL0     C33680   6.906   0.071   5.203 -0.7022  0.5649 -0.0948
  991MOL0     O33681   7.006   0.067   5.106 -0.4150 -0.9146 -0.4572
  991MOL0     C33682   7.005  -0.026   5.003 -0.0220  0.2577  0.6537
  991MOL0     C33683   6.945   0.010   4.879  0.4973 -0.2015 -0.6746
  991MOL0     C33684   6.949  -0.082   4.775  0.0037 -0.2772  0.2888
  991MOL0     C33685   7.000  -0.217   4.793  0.5275 -0.1852 -0.6254
  991MOL0     O33686   6.987  -0.315   4.700 -0.3378  0.1457 -0.2915
  991MOL0     C33687   6.926  -0.285   4.576 -0.5264  0.8187  0.6384
  991MOL0     C33688   6.875  -0.415   4.507  0.6950  0.1004 -0.2931
  991MOL0     C33689   6.873  -0.398   4.358 -0.6271  0.0790  0.2319
  991MOL0     C33690   6.995  -0.471   4.285 -0.2618 -0.1229 -0.3905
  991MOL0     C33691   6.986  -0.426   4.139  0.2164 -0.4940 -1.1746
  991MOL0     C33692   7.094  -0.491   4.050 -1.2593 -0.2666 -0.7274
  991MOL0     C33693   7.104  -0.424   3.911 -0.0063  0.2924  0.6941
  991MOL0     C33694   7.153  -0.524   3.804 -0.0884  0.6610 -0.0524
  991MOL0    Cl33695   7.155  -0.446   3.639  0.5256 -0.1908  0.0836
  991MOL0     C33696   7.051  -0.252   4.916  0.5226 -0.2441  0.1020
  991MOL0     C33697   7.062  -0.154   5.018 -0.1938 -0.2386  0.6002
  991MOL0     O33698   6.857  -0.038   5.240  0.0121 -0.0156 -0.7246
  991MOL0     C33699   6.850   0.308   5.133 -0.2996  0.6236  0.5453
  991MOL0     C33700   6.821   0.437   5.180 -0.3748  0.2486  0.6344
  991MOL0     N33701   6.900   1.198   5.535  0.5256 -0.1824  0.5604
  991MOL0     N33702   6.997   1.260   5.474 -0.9208  0.4227  0.6103
  991MOL0     C33703   6.750   1.337   4.302 -0.4268 -0.4311  0.0087
  991MOL0     C33704   6.779   1.300   4.172 -0.3953 -0.4779 -0.3852
  991MOL0     C33705   6.925   1.379   3.740  0.5706 -0.1579 -0.9492
  991MOL0     C33706   6.870   1.259   3.682 -0.4677  0.2169 -0.2032
  991MOL0     C33707   6.896   1.218   3.547 -0.2215  0.1102  0.4399
  991MOL0     C33708   6.974   1.308   3.465 -0.6195 -0.2451  0.5676
  991MOL0     O33709   7.003   1.284   3.338 -0.4927 -0.8138  0.3541
  991MOL0     C33710   6.933   1.195   3.254  0.3460 -0.4954  0.4438
  991MOL0     C33711   7.037   1.161   3.145  0.1070  0.9066 -0.0559
  991MOL0     C33712   7.082   1.289   3.075 -0.4583 -0.4514  0.3451
  991MOL0     C33713   7.154   1.263   2.943  0.0094  0.7251  0.8095
  991MOL0     C33714   7.175   1.388   2.864 -0.1749 -0.0983 -0.5344
  991MOL0     C33715   7.196   1.489   2.799 -0.9778 -0.0821 -0.3019
  991MOL0     C33716   7.022   1.418   3.524 -0.0880  0.3606 -0.6192
  991MOL0     C33717   7.001   1.461   3.655  0.5564  0.2707 -0.1873
  991MOL0     H33718   6.682   1.584   4.012  0.2830 -0.8680  0.2971
  991MOL0     H33719   6.643   1.647   4.251  0.8194 -0.0976  1.0479
  991MOL0     H33720   6.727   1.376   4.635  2.1699  1.3548  2.9524
  991MOL0     H33721   6.859   1.441   4.544 -0.6095 -0.3822 -0.1536
  991MOL0     H33722   6.853   1.639   4.616  1.9648 -3.6423 -1.3855
  991MOL0     H33723   6.677   1.643   4.655 -1.6498 -3.4166 -0.6967
  991MOL0     H33724   6.821   1.644   4.878  0.2883 -1.0227  0.2251
  991MOL0     H33725   6.736   1.493   4.866  0.3101  0.7863  2.5729
  991MOL0     H33726   6.920   1.383   4.804 -0.3950  1.4150 -2.9272
  991MOL0     H33727   7.015   1.525   4.756  0.2296  4.2675  2.5501
  991MOL0     H33728   7.102   1.459   4.974 -1.6644 -1.5751 -1.2450
  991MOL0     H33729   7.034   1.620   4.976 -1.9286  1.2476  0.2885
  991MOL0     H33730   6.832   1.544   5.072  1.8680  2.4293 -4.8966
  991MOL0     H33731   6.877   1.370   5.060 -3.0686  1.1310  0.6972
  991MOL0     H33732   7.054   1.565   5.220 -0.3545  0.7587 -0.4471
  991MOL0     H33733   6.911   1.498   5.295 -2.9706  3.0132 -3.2618
  991MOL0     H33734   7.147   1.353   5.305 -1.5071 -0.1815  2.9596
  991MOL0     H33735   7.079   1.302   5.152  1.0835  3.3336 -0.0155
  991MOL0     H33736   6.840   1.136   5.213 -0.1285 -2.1171  0.2608
  991MOL0     H33737   6.678   1.051   5.557 -1.7406 -1.5783 -0.6342
  991MOL0     H33738   6.648   1.039   5.384 -1.6660 -0.8205  1.0248
  991MOL0     H33739   6.797   0.849   5.570 -1.9769 -0.5423  1.2612
  991MOL0     H33740   6.855   0.870   5.394 -0.1747  0.1449  0.3660
  991MOL0     H33741   6.592   0.825   5.338 -2.3582  0.0380  1.2004
  991MOL0     H33742   6.566   0.823   5.511 -0.5326 -1.7377  0.6186
  991MOL0     H33743   6.585   0.597   5.439 -0.2476  1.0735 -1.8538
  991MOL0     H33744   6.729   0.618   5.525  0.3597  1.7094  0.9518
  991MOL0     H33745   6.708   0.394   5.482 -2.5085  0.6956 -1.4151
  991MOL0     H33746   6.781   0.161   5.585  0.2854 -2.0959  1.5481
  991MOL0     H33747   6.730   0.055   5.469 -0.7450 -0.1814 -0.1314
  991MOL0     H33748   6.902   0.074   5.489 -0.6356 -0.6487 -3.2040
  991MOL0     H33749   6.889   0.101   4.861  2.1206  1.2990  1.3258
  991MOL0     H33750   6.899  -0.047   4.685  2.0490  0.1508 -0.7542
  991MOL0     H33751   6.836  -0.223   4.587  0.0087  1.9588 -1.1322
  991MOL0     H33752   6.998  -0.228   4.517 -1.7482  0.3248 -1.4300
  991MOL0     H33753   6.940  -0.497   4.539 -0.0707  0.2659  1.8545
  991MOL0     H33754   6.773  -0.445   4.536  0.7253 -1.4795 -1.7177
  991MOL0     H33755   6.862  -0.290   4.340 -0.9037 -0.2344 -1.7372
  991MOL0     H33756   6.786  -0.440   4.306  1.8137 -0.9710 -3.4662
  991MOL0     H33757   7.087  -0.425   4.322 -0.7108  0.3852  0.1092
  991MOL0     H33758   6.990  -0.578   4.305 -0.3687  0.0177  0.3686
  991MOL0     H33759   6.987  -0.317   4.134  2.0409 -0.2775  1.7730
  991MOL0     H33760   6.891  -0.459   4.095  0.6670  0.7132 -3.1507
  991MOL0     H33761   7.190  -0.467   4.097 -1.6775  1.1210 -0.5401
  991MOL0     H33762   7.075  -0.599   4.056  1.0064 -0.6371  1.4407
  991MOL0     H33763   7.185  -0.352   3.916  0.0218  0.3437 -0.2758
  991MOL0     H33764   7.008  -0.382   3.878  0.5918  2.5297  1.6614
  991MOL0     H33765   7.074  -0.600   3.798  0.2093  0.4398 -2.0702
  991MOL0     H33766   7.251  -0.557   3.839  0.2649  2.4909  0.7907
  991MOL0     H33767   7.068  -0.357   4.937  0.5062 -0.4589 -0.8970
  991MOL0     H33768   7.101  -0.171   5.117 -2.1799 -2.6558  1.0797
  991MOL0     H33769   6.891   0.303   5.033 -0.8299 -0.6719  0.3761
  991MOL0     H33770   6.846   0.513   5.107  3.9044 -2.6131 -1.2913
  991MOL0     H33771   6.768   1.266   4.382 -1.9701 -0.0785  0.7223
  991MOL0     H33772   6.801   1.194   4.159 -1.6273 -0.5560 -2.3555
  991MOL0     H33773   6.826   1.181   3.742  1.8181  0.6500  2.2142
  991MOL0     H33774   6.856   1.122   3.515 -1.5008  0.3109  1.3630
  991MOL0     H33775   6.892   1.106   3.302  2.4988  0.1260  3.8313
  991MOL0     H33776   6.844   1.241   3.209  1.2641 -0.9143 -1.9572
  991MOL0     H33777   6.990   1.106   3.064 -0.4471 -1.3877  1.7175
  991MOL0     H33778   7.116   1.103   3.194 -0.7902 -0.6977 -0.4710
  991MOL0     H33779   7.142   1.357   3.136 -3.6096  0.3482  2.7629
  991MOL0     H33780   6.990   1.344   3.053 -2.7369 -3.6691  1.1508
  991MOL0     H33781   7.080   1.202   2.890  0.1526 -1.2144  2.7339
  991MOL0     H33782   7.252   1.216   2.954 -0.4042  0.1544  2.2368
  991MOL0     H33783   7.207   1.583   2.749 -1.3321 -0.9134 -2.0269
  991MOL0     H33784   7.080   1.484   3.460 -4.1723  3.9045 -1.1626
  991MOL0     H33785   7.023   1.565   3.679 -3.5698  1.6266 -1.3663
  992MOL0     O33786   2.983   3.976   5.975  0.0747 -0.0192  0.2277
  992MOL0     C33787   2.888   4.058   5.977 -0.4397  0.8967 -0.8267
  992MOL0     O33788   2.896   4.195   5.986  0.1122  0.3587  0.2662
  992MOL0     C33789   3.025   4.242   5.997  0.7296  0.4620 -0.0246
  992MOL0     C33790   3.094   4.247   5.881  0.0615 -0.4279 -1.5826
  992MOL0     C33791   3.225   4.291   5.884  0.1103 -0.1355 -1.2058
  992MOL0     C33792   3.291   4.317   6.003 -0.2404 -0.3807  0.1133
  992MOL0     O33793   3.421   4.357   5.981  0.6702  0.7647  0.5553
  992MOL0     C33794   3.513   4.364   6.091  1.2319  1.0813 -1.5530
  992MOL0     C33795   3.537   4.508   6.104  0.1350  0.4485 -1.0394
  992MOL0     C33796   3.642   4.551   5.991 -0.0364  0.3292 -0.0979
  992MOL0     C33797   3.709   4.692   6.024 -1.1614  0.7420  0.3356
  992MOL0     C33798   3.816   4.730   5.916  0.5378 -0.4662  0.9764
  992MOL0     C33799   3.937   4.645   5.901  0.7147  0.7568 -0.0099
  992MOL0     C33800   4.045   4.683   5.795  0.4218  0.1931  0.3656
  992MOL0     C33801   4.136   4.570   5.762  0.1968 -0.6425 -0.4739
  992MOL0     N33802   4.210   4.517   5.880 -0.0678 -0.3368 -0.7396
  992MOL0     C33803   4.334   4.560   5.927  0.2226 -0.8909 -0.0070
  992MOL0     C33804   4.379   4.489   6.028 -0.1377  0.5747  0.2387
  992MOL0     C33805   4.517   4.487   6.086 -0.1479  0.6862 -1.0873
  992MOL0     C33806   4.524   4.414   6.221  1.0135  0.3170 -0.1246
  992MOL0     C33807   4.484   4.487   6.343 -0.2507 -0.0362 -0.5084
  992MOL0     C33808   4.384   4.602   6.331  0.0505 -0.1716 -0.7214
  992MOL0     O33809   4.449   4.713   6.283  0.1077 -0.2280  0.6738
  992MOL0     C33810   4.364   4.806   6.231  0.6071 -0.7395 -0.5055
  992MOL0     C33811   4.238   4.822   6.293  1.1993  0.5120  0.2727
  992MOL0     C33812   4.146   4.917   6.249 -0.5923  0.2616 -0.0680
  992MOL0     C33813   4.019   4.942   6.332  0.2718 -0.3298  0.2676
  992MOL0     C33814   4.169   4.978   6.117 -0.2695  0.0887  0.2327
  992MOL0     C33815   4.062   5.049   6.037  0.1827 -1.3006  0.3491
  992MOL0     O33816   3.960   5.114   6.108  0.4184 -0.9261  0.2871
  992MOL0     C33817   3.846   5.142   6.044 -0.4605  0.6654  0.3738
  992MOL0     C33818   3.839   5.237   5.947 -0.3138 -0.2031 -0.0939
  992MOL0     C33819   3.718   5.279   5.890  0.6630  0.7639  0.6503
  992MOL0     C33820   3.608   5.196   5.917 -1.4615 -0.4286  0.4389
  992MOL0     O33821   3.497   5.216   5.849 -0.0323  0.4611 -0.0556
  992MOL0     C33822   3.367   5.149   5.883 -0.2233 -0.9710  0.0532
  992MOL0     C33823   3.254   5.251   5.858 -0.1636  0.3141  1.0159
  992MOL0     C33824   3.141   5.211   5.758  0.2066  0.5502  0.3599
  992MOL0     C33825   3.028   5.144   5.826  0.2691 -0.1139 -0.9626
  992MOL0     C33826   2.920   5.101   5.720  0.2578 -0.5700 -0.6318
  992MOL0     C33827   2.855   5.208   5.642 -0.1083 -0.3801 -0.1390
  992MOL0     C33828   2.719   5.167   5.582 -0.7324 -0.1169 -0.0392
  992MOL0     C33829   2.652   5.278   5.514  0.2240 -0.5705 -0.2915
  992MOL0    Cl33830   2.469   5.271   5.475 -0.0160  0.1455 -0.4888
  992MOL0     C33831   3.625   5.084   6.002  0.1207 -0.1980  0.2628
  992MOL0     C33832   3.739   5.059   6.079  0.2237 -0.7038 -0.4230
  992MOL0     O33833   4.067   5.035   5.915 -0.8628 -0.0570 -0.5374
  992MOL0     C33834   4.298   4.957   6.065  0.3578 -1.1448 -0.9341
  992MOL0     C33835   4.399   4.878   6.121 -0.5662 -0.6913 -0.1279
  992MOL0     N33836   4.279   4.394   6.047  0.6475  0.0875 -0.2532
  992MOL0     N33837   4.184   4.403   5.958  0.7085 -0.0097  0.7159
  992MOL0     C33838   3.226   4.294   6.121  0.4278 -0.0054  0.1678
  992MOL0     C33839   3.091   4.253   6.115  0.2385 -0.1169 -0.2567
  992MOL0     C33840   2.749   3.999   5.957  0.2115 -0.2208 -0.6694
  992MOL0     C33841   2.633   4.061   5.987 -0.9604 -0.3496 -0.5958
  992MOL0     C33842   2.508   4.005   5.950  0.0696 -0.7501  0.4116
  992MOL0     C33843   2.493   3.874   5.907  0.2705  0.4993  0.3158
  992MOL0     O33844   2.366   3.816   5.885 -0.0211 -0.1684 -0.3911
  992MOL0     C33845   2.345   3.755   5.759 -0.7073 -0.1762 -0.0128
  992MOL0     C33846   2.206   3.707   5.712  0.0661 -1.4401  0.1176
  992MOL0     C33847   2.096   3.808   5.739 -0.1538  0.0500 -0.7108
  992MOL0     C33848   1.968   3.726   5.743  0.4704 -0.3943 -0.5750
  992MOL0     C33849   1.858   3.809   5.787  0.3993 -0.4353 -0.0325
  992MOL0     C33850   1.763   3.877   5.827  0.4082 -0.4822 -0.4642
  992MOL0     C33851   2.611   3.795   5.899  0.4329 -0.8936 -0.1967
  992MOL0     C33852   2.739   3.868   5.915  0.0695 -0.0950  1.0214
  992MOL0     H33853   3.043   4.224   5.788 -4.0627  3.3828 -0.6206
  992MOL0     H33854   3.288   4.297   5.796  0.7538 -0.9125 -0.8167
  992MOL0     H33855   3.473   4.329   6.187  3.4457 -2.8225 -1.8309
  992MOL0     H33856   3.603   4.308   6.065  1.3672  1.0776 -1.0761
  992MOL0     H33857   3.446   4.568   6.101  0.5438  1.0542 -1.9276
  992MOL0     H33858   3.591   4.523   6.198  0.1385  1.1695 -1.1548
  992MOL0     H33859   3.727   4.482   5.985  0.5466  1.1217 -1.2420
  992MOL0     H33860   3.590   4.555   5.895  1.5902  1.2820 -0.9809
  992MOL0     H33861   3.628   4.766   6.024 -0.6447  1.4321 -2.3965
  992MOL0     H33862   3.760   4.682   6.120  0.9737  4.4518 -0.2014
  992MOL0     H33863   3.761   4.728   5.821  1.8619 -0.2054  0.1743
  992MOL0     H33864   3.841   4.836   5.928 -1.4826  0.2888 -0.7299
  992MOL0     H33865   3.994   4.639   5.994 -2.5405 -0.7340  2.0658
  992MOL0     H33866   3.894   4.547   5.879 -5.3908  2.3087  2.8434
  992MOL0     H33867   3.997   4.725   5.707  1.1922 -1.6641 -1.0164
  992MOL0     H33868   4.107   4.765   5.834 -0.0039  0.3675  0.6789
  992MOL0     H33869   4.201   4.608   5.682 -0.5871  2.2240  0.1322
  992MOL0     H33870   4.072   4.495   5.715 -3.5928  0.6896  2.1354
  992MOL0     H33871   4.391   4.639   5.880  0.1074 -0.7244  0.1328
  992MOL0     H33872   4.586   4.431   6.022  0.4784  0.3518 -0.1411
  992MOL0     H33873   4.565   4.586   6.088  1.2906  0.1396  3.3722
  992MOL0     H33874   4.625   4.375   6.233  1.1710 -0.2444 -2.5761
  992MOL0     H33875   4.466   4.321   6.210  1.7887  0.1147 -4.5398
  992MOL0     H33876   4.574   4.538   6.380 -2.1611  3.3569 -0.1421
  992MOL0     H33877   4.441   4.420   6.419  0.9071 -0.9658 -0.6495
  992MOL0     H33878   4.365   4.630   6.435  0.5328  1.7054 -1.0943
  992MOL0     H33879   4.296   4.582   6.270  0.0293 -0.6075 -0.5535
  992MOL0     H33880   4.215   4.779   6.390 -1.1056  3.4610  1.1999
  992MOL0     H33881   3.974   5.041   6.319  1.3178  0.4076  2.0144
  992MOL0     H33882   3.952   4.868   6.285 -0.2021  0.2319  0.0493
  992MOL0     H33883   4.032   4.936   6.440 -2.3030 -2.4721  0.5703
  992MOL0     H33884   3.928   5.283   5.905 -0.6013  0.7649  0.3305
  992MOL0     H33885   3.707   5.354   5.811  0.8381 -0.9104 -1.0286
  992MOL0     H33886   3.343   5.056   5.830  2.1155 -1.1267 -0.8469
  992MOL0     H33887   3.372   5.125   5.989  0.9776  0.7176  0.4251
  992MOL0     H33888   3.212   5.280   5.954 -0.7542 -0.0359  0.8720
  992MOL0     H33889   3.299   5.342   5.817  1.1742 -1.0426 -0.7199
  992MOL0     H33890   3.179   5.142   5.682  1.1310 -0.0768  1.3472
  992MOL0     H33891   3.099   5.293   5.699 -2.8136 -1.1480 -0.0701
  992MOL0     H33892   3.071   5.060   5.881  0.4477  0.3257 -0.4264
  992MOL0     H33893   2.988   5.215   5.899 -2.3854 -1.3997 -1.0503
  992MOL0     H33894   2.847   5.055   5.787  1.0677  0.0691  0.7291
  992MOL0     H33895   2.965   5.031   5.649 -1.5804  0.2587 -2.7520
  992MOL0     H33896   2.854   5.294   5.709 -1.1152  0.4114 -1.1497
  992MOL0     H33897   2.932   5.237   5.569  0.1607 -0.1718  0.2213
  992MOL0     H33898   2.652   5.132   5.662 -2.4580  0.4212 -1.1789
  992MOL0     H33899   2.719   5.084   5.511 -3.0255  1.3295 -1.8713
  992MOL0     H33900   2.708   5.313   5.427 -1.1326  2.6596  0.0054
  992MOL0     H33901   2.675   5.360   5.582  2.5016 -0.9745 -0.5041
  992MOL0     H33902   3.553   5.003   6.006  2.3697 -2.2779  1.2834
  992MOL0     H33903   3.748   4.990   6.163  0.1443 -1.3460 -0.9369
  992MOL0     H33904   4.320   5.002   5.968 -0.1787 -0.7552 -0.8795
  992MOL0     H33905   4.496   4.857   6.075  0.1688 -1.3061  1.6032
  992MOL0     H33906   3.254   4.331   6.219 -0.7110  1.4775 -0.0255
  992MOL0     H33907   3.040   4.246   6.210  0.4995 -0.1176 -0.1171
  992MOL0     H33908   2.634   4.162   6.025 -1.0753 -0.4515 -0.3229
  992MOL0     H33909   2.427   4.077   5.957  1.6201  0.9431  1.8382
  992MOL0     H33910   2.376   3.828   5.684 -0.6745  0.3279  0.4824
  992MOL0     H33911   2.405   3.664   5.756  0.6162  0.4973  2.7655
  992MOL0     H33912   2.178   3.612   5.759 -1.9606  0.2396  2.6066
  992MOL0     H33913   2.213   3.690   5.604 -1.7184 -1.3239 -0.0560
  992MOL0     H33914   2.110   3.872   5.651  1.4088  0.4357 -0.2029
  992MOL0     H33915   2.112   3.860   5.833 -0.0840 -1.0618 -0.0898
  992MOL0     H33916   1.986   3.644   5.814 -5.0841 -0.5299  1.1773
  992MOL0     H33917   1.946   3.682   5.645  1.1296  0.1102 -0.9575
  992MOL0     H33918   1.676   3.914   5.878  0.2817  0.6118 -1.4409
  992MOL0     H33919   2.615   3.695   5.858 -1.1870  0.0391 -2.9544
  992MOL0     H33920   2.831   3.823   5.881  0.4681  0.5083  1.2818
  993MOL0     O33921   4.112   5.952   9.613  0.2173  0.4043 -0.5294
  993MOL0     C33922   4.100   5.871   9.708 -0.1648 -0.1490  0.3942
  993MOL0     O33923   3.978   5.845   9.767  0.8006  0.2701 -0.2362
  993MOL0     C33924   3.868   5.918   9.724 -0.7141  0.6468 -0.1998
  993MOL0     C33925   3.776   5.857   9.630 -0.7869  0.3324  0.4519
  993MOL0     C33926   3.668   5.919   9.585  0.9293 -0.1086  0.8334
  993MOL0     C33927   3.642   6.045   9.632 -0.3370  0.7535  0.6883
  993MOL0     O33928   3.524   6.101   9.578  0.2294  0.8370 -0.1942
  993MOL0     C33929   3.460   6.200   9.658 -0.0872 -0.5273 -0.5273
  993MOL0     C33930   3.321   6.213   9.600 -0.6760 -0.5545  0.0911
  993MOL0     C33931   3.234   6.325   9.670 -0.4622  0.6423  0.2596
  993MOL0     C33932   3.090   6.306   9.618 -0.0738  0.1154  0.8553
  993MOL0     C33933   3.004   6.377   9.715  0.2424  0.2042 -0.1410
  993MOL0     C33934   2.864   6.366   9.649  0.0526  0.3945 -0.1145
  993MOL0     C33935   2.748   6.419   9.733 -0.0128  0.6106 -1.0606
  993MOL0     C33936   2.611   6.394   9.677  0.3246  0.5613  0.2910
  993MOL0     N33937   2.502   6.475   9.733 -0.1844  0.2698  0.4346
  993MOL0     C33938   2.375   6.425   9.757  0.6848  0.3675 -0.4277
  993MOL0     C33939   2.310   6.534   9.791  0.0708 -0.5163 -0.0443
  993MOL0     C33940   2.164   6.524   9.840  0.0265 -0.6948 -0.5525
  993MOL0     C33941   2.152   6.472   9.986  0.5899  0.4198 -0.5621
  993MOL0     C33942   2.006   6.485  10.048 -0.8600  0.2724 -0.5867
  993MOL0     C33943   1.985   6.394  10.170 -0.1104  1.2486 -0.0210
  993MOL0     O33944   1.845   6.378  10.199  0.3897 -0.1040 -0.3375
  993MOL0     C33945   1.776   6.456  10.287 -0.2346 -0.6328  0.2788
  993MOL0     C33946   1.795   6.597  10.292  0.1128 -0.6446  0.9045
  993MOL0     C33947   1.723   6.680  10.377  0.1429  0.4083  0.7154
  993MOL0     C33948   1.753   6.827  10.348  0.2331 -0.2337 -0.2924
  993MOL0     C33949   1.617   6.620  10.457 -0.0816 -0.1507 -0.2128
  993MOL0     C33950   1.531   6.695  10.555  0.5504 -0.0979  0.5371
  993MOL0     O33951   1.420   6.629  10.598  0.8408  0.5754 -0.6633
  993MOL0     C33952   1.359   6.658  10.723 -1.4423  0.1231  0.9803
  993MOL0     C33953   1.293   6.773  10.747 -0.0092 -0.1095  0.5129
  993MOL0     C33954   1.220   6.784  10.866  0.6619  0.1299  0.0237
  993MOL0     C33955   1.216   6.688  10.969 -0.5137 -0.4485  0.6501
  993MOL0     O33956   1.155   6.698  11.094 -0.3723 -0.5285 -0.0344
  993MOL0     C33957   1.081   6.816  11.125  0.4079 -0.8940 -1.5137
  993MOL0     C33958   1.044   6.838  11.270 -1.0812  0.0533  0.2965
  993MOL0     C33959   0.959   6.960  11.307  0.9051  0.0062  0.0193
  993MOL0     C33960   0.904   6.956  11.451  1.0312  0.9948  0.1229
  993MOL0     C33961   0.803   7.057  11.479  0.2906  0.0504  0.2039
  993MOL0     C33962   0.796   7.111  11.622  0.4590 -0.0599  1.4558
  993MOL0     C33963   0.752   7.010  11.728 -0.1652  0.0619 -0.2006
  993MOL0     C33964   0.873   6.916  11.771  0.0011  0.1453  0.4984
  993MOL0    Cl33965   0.815   6.795  11.899  0.3001  0.1149  0.0917
  993MOL0     C33966   1.286   6.570  10.942 -0.6330  0.2860  0.0120
  993MOL0     C33967   1.352   6.552  10.819  0.2812  0.1780 -0.0910
  993MOL0     O33968   1.571   6.805  10.598 -0.3692  0.2173  0.2919
  993MOL0     C33969   1.595   6.481  10.446  0.5671  0.1619  0.3409
  993MOL0     C33970   1.671   6.401  10.362 -0.4324  0.4203  0.4736
  993MOL0     N33971   2.389   6.649   9.796 -0.1602  0.3807 -0.0693
  993MOL0     N33972   2.506   6.608   9.754 -0.8252 -0.6127  0.0374
  993MOL0     C33973   3.728   6.105   9.729 -0.5428 -0.0268 -1.0503
  993MOL0     C33974   3.848   6.048   9.758  0.1304  0.7759 -0.5899
  993MOL0     C33975   4.226   5.799   9.754  0.1887  1.0893  0.0399
  993MOL0     C33976   4.221   5.702   9.852 -0.3022  0.0849  0.1531
  993MOL0     C33977   4.336   5.642   9.902  0.5621  0.2120 -0.1327
  993MOL0     C33978   4.455   5.679   9.847 -0.6529 -0.2353  0.1822
  993MOL0     O33979   4.577   5.649   9.903 -0.5273 -0.2222  0.1826
  993MOL0     C33980   4.611   5.720  10.032 -0.3640  0.0821 -0.6371
  993MOL0     C33981   4.667   5.859  10.001  1.1339 -0.1944  1.0345
  993MOL0     C33982   4.818   5.852   9.988  0.2856  1.1622 -0.7874
  993MOL0     C33983   4.866   5.984   9.924 -0.7501  0.2194  0.1707
  993MOL0     C33984   4.813   6.004   9.786  0.3753  1.0203  0.0352
  993MOL0     C33985   4.784   6.013   9.672  0.6627 -0.0491  0.0594
  993MOL0     C33986   4.467   5.775   9.744  0.1184  0.4592 -0.4308
  993MOL0     C33987   4.352   5.839   9.696 -0.5981  0.0766 -0.5172
  993MOL0     H33988   3.793   5.755   9.598 -0.9086 -0.0693  1.6135
  993MOL0     H33989   3.603   5.875   9.510 -1.0478  1.6509  1.4124
  993MOL0     H33990   3.450   6.179   9.765 -0.9053  0.7450 -0.3308
  993MOL0     H33991   3.499   6.302   9.652  2.8425 -1.3876  1.7990
  993MOL0     H33992   3.332   6.233   9.493  0.3955 -0.9921  0.1064
  993MOL0     H33993   3.275   6.114   9.604  3.8712 -2.9214  3.2921
  993MOL0     H33994   3.232   6.299   9.776  0.7241  0.6816  0.2953
  993MOL0     H33995   3.259   6.432   9.667  1.9077  0.1682  1.3173
  993MOL0     H33996   3.088   6.363   9.525  0.8286 -2.7598 -1.0691
  993MOL0     H33997   3.056   6.202   9.605  0.4203  0.1619 -1.2174
  993MOL0     H33998   2.998   6.322   9.810 -1.7018  1.6181  0.6226
  993MOL0     H33999   3.034   6.480   9.736  0.9097 -0.7225  4.6890
  993MOL0     H34000   2.874   6.428   9.560 -0.3537  2.5208  1.2219
  993MOL0     H34001   2.836   6.268   9.609 -0.4484  1.1163 -1.6006
  993MOL0     H34002   2.751   6.379   9.835 -1.4022  0.8291 -0.9051
  993MOL0     H34003   2.757   6.526   9.755 -2.6819  0.6125  0.5393
  993MOL0     H34004   2.587   6.288   9.685  2.5763  0.0815  1.3308
  993MOL0     H34005   2.612   6.417   9.570 -0.5428 -0.5785  0.0200
  993MOL0     H34006   2.350   6.324   9.791  0.3585  1.2823  2.2958
  993MOL0     H34007   2.122   6.624   9.828  2.2429  0.1080 -2.3229
  993MOL0     H34008   2.104   6.467   9.768 -1.1805  0.1788 -0.2658
  993MOL0     H34009   2.222   6.528  10.048 -0.3914  0.6797  0.3385
  993MOL0     H34010   2.191   6.369   9.984  0.6284  0.3470  1.7696
  993MOL0     H34011   1.928   6.451   9.979 -2.0752  1.3094  0.2158
  993MOL0     H34012   2.001   6.593  10.067  0.6724  0.1935  0.4218
  993MOL0     H34013   2.043   6.439  10.252  0.9578  0.4941 -0.3353
  993MOL0     H34014   2.022   6.293  10.154 -1.6478  0.3733  1.5706
  993MOL0     H34015   1.868   6.646  10.228 -3.2946  1.9792 -1.3247
  993MOL0     H34016   1.751   6.848  10.241  0.1372 -1.2033 -0.4957
  993MOL0     H34017   1.692   6.904  10.397  1.4936  0.1785  0.6776
  993MOL0     H34018   1.857   6.848  10.374 -0.5501  2.2827  1.1490
  993MOL0     H34019   1.298   6.858  10.679 -2.4618  0.7300  1.2861
  993MOL0     H34020   1.160   6.874  10.876  1.5804  0.8896 -1.0632
  993MOL0     H34021   1.131   6.907  11.090  1.6989 -1.4187 -1.0675
  993MOL0     H34022   0.978   6.810  11.087 -0.6642  2.3407  0.4576
  993MOL0     H34023   0.987   6.753  11.307 -1.4501 -0.1025 -0.6065
  993MOL0     H34024   1.129   6.846  11.339 -1.7012  1.1718  0.9581
  993MOL0     H34025   0.870   6.962  11.243  1.5778  0.3102 -0.9282
  993MOL0     H34026   1.024   7.048  11.301  3.9094 -2.1328 -1.1182
  993MOL0     H34027   0.864   6.858  11.480  1.0640  1.1003  0.5389
  993MOL0     H34028   0.998   6.975  11.504  0.5640 -1.4266  2.0367
  993MOL0     H34029   0.704   7.027  11.446  0.3803  0.3417 -0.3538
  993MOL0     H34030   0.826   7.134  11.404 -0.3784 -0.4574 -0.5385
  993MOL0     H34031   0.895   7.153  11.642  1.6989 -0.6829 -2.5803
  993MOL0     H34032   0.725   7.195  11.621 -1.2736 -1.3198 -2.4965
  993MOL0     H34033   0.677   6.938  11.693 -0.2631 -1.1657  2.3176
  993MOL0     H34034   0.708   7.067  11.810 -0.8012  0.4011 -0.7636
  993MOL0     H34035   0.948   6.970  11.830  1.0312  0.7338 -1.2707
  993MOL0     H34036   0.929   6.869  11.689 -2.4175  0.3386 -1.3570
  993MOL0     H34037   1.305   6.499  11.021 -2.5529 -2.4712 -1.7914
  993MOL0     H34038   1.404   6.458  10.808  2.3144  1.0784  1.1979
  993MOL0     H34039   1.509   6.431  10.489  0.4154 -2.8612 -2.9975
  993MOL0     H34040   1.646   6.297  10.343 -1.0167  0.0801  2.8188
  993MOL0     H34041   3.710   6.210   9.751  0.3979  0.3753 -2.0906
  993MOL0     H34042   3.915   6.097   9.829 -1.0490  0.3447  0.8774
  993MOL0     H34043   4.124   5.664   9.884 -1.7250  0.9965 -2.7347
  993MOL0     H34044   4.328   5.572   9.985 -2.2841  3.2179  2.4044
  993MOL0     H34045   4.524   5.732  10.097  0.5009  1.6695  0.2919
  993MOL0     H34046   4.685   5.663  10.090  1.0203  0.2663 -2.1318
  993MOL0     H34047   4.642   5.928  10.082  1.9902 -3.4827  4.3981
  993MOL0     H34048   4.627   5.889   9.904 -2.8770 -2.2203  1.8294
  993MOL0     H34049   4.848   5.770   9.922  0.2575  0.8497 -0.4104
  993MOL0     H34050   4.863   5.830  10.085 -0.5604 -0.2804 -0.6999
  993MOL0     H34051   4.975   5.978   9.923 -0.8075 -1.2618  0.6618
  993MOL0     H34052   4.839   6.066   9.992 -0.5343 -1.7027  2.7352
  993MOL0     H34053   4.770   6.021   9.566 -0.3199 -0.0086  0.1897
  993MOL0     H34054   4.565   5.805   9.706  1.5930 -1.0991  1.8632
  993MOL0     H34055   4.361   5.910   9.615 -0.2587  2.4095  1.4775
  994MOL0     O34056   3.504   2.553   3.045  0.6777  0.1465 -0.1203
  994MOL0     C34057   3.593   2.531   2.965 -0.0992 -0.3083  0.0990
  994MOL0     O34058   3.629   2.623   2.867  0.0445  0.2311 -0.5664
  994MOL0     C34059   3.536   2.717   2.828  0.2429  0.4025  1.0140
  994MOL0     C34060   3.510   2.824   2.906 -0.7051  0.2609 -0.1028
  994MOL0     C34061   3.410   2.906   2.884 -0.5845  0.4799  0.4779
  994MOL0     C34062   3.325   2.891   2.771 -0.4596  0.6273 -0.5003
  994MOL0     O34063   3.230   2.989   2.763  0.5017  0.7488  0.2392
  994MOL0     C34064   3.119   2.969   2.669  1.2073  0.5965 -0.2097
  994MOL0     C34065   3.011   3.069   2.705 -0.5764  0.5409 -0.2134
  994MOL0     C34066   2.866   3.032   2.690 -0.2652  0.7252 -0.6227
  994MOL0     C34067   2.823   3.037   2.545 -0.2895 -0.9264 -0.0231
  994MOL0     C34068   2.674   3.004   2.546  0.1721  0.5247 -0.2580
  994MOL0     C34069   2.613   3.058   2.418  0.7844 -0.2943 -1.3179
  994MOL0     C34070   2.667   2.997   2.284  0.7066  0.0914  0.5163
  994MOL0     C34071   2.656   2.846   2.263 -1.0150 -0.7857  0.5144
  994MOL0     N34072   2.527   2.782   2.277  0.1513 -0.0047 -0.0261
  994MOL0     C34073   2.489   2.698   2.376 -0.1613  0.0167 -0.7969
  994MOL0     C34074   2.398   2.615   2.334 -0.9791  0.1451  0.2161
  994MOL0     C34075   2.371   2.487   2.408 -0.3162 -0.1003  0.3089
  994MOL0     C34076   2.237   2.435   2.371  0.1000 -0.3393  0.8420
  994MOL0     C34077   2.128   2.488   2.459 -0.5509  0.0174 -0.2240
  994MOL0     C34078   1.991   2.427   2.440  0.0158  0.6853  0.6861
  994MOL0     O34079   1.915   2.452   2.316  0.4151 -0.5530  0.1156
  994MOL0     C34080   1.810   2.367   2.293 -0.1398  0.1343 -0.1410
  994MOL0     C34081   1.682   2.394   2.346 -1.3187  0.1810  0.0064
  994MOL0     C34082   1.575   2.311   2.324 -0.5123  1.1090 -0.3444
  994MOL0     C34083   1.440   2.359   2.377 -0.7474  0.4175 -0.6146
  994MOL0     C34084   1.602   2.189   2.249  0.1287  0.6553 -0.1044
  994MOL0     C34085   1.498   2.074   2.237 -0.6831  0.3370 -0.0112
  994MOL0     O34086   1.547   1.957   2.212 -0.1101 -0.5393  0.8500
  994MOL0     C34087   1.472   1.841   2.213  0.4098 -0.3968 -0.4381
  994MOL0     C34088   1.482   1.736   2.120 -0.5971  0.3801  0.3837
  994MOL0     C34089   1.392   1.632   2.116 -0.1198 -0.7647  0.3458
  994MOL0     C34090   1.302   1.612   2.214 -0.2204 -0.2984 -0.5528
  994MOL0     O34091   1.230   1.490   2.234  0.1754  0.1452  0.3884
  994MOL0     C34092   1.202   1.404   2.116  0.4999 -0.4618 -0.2506
  994MOL0     C34093   1.110   1.290   2.151  1.0795  0.7157  0.2398
  994MOL0     C34094   0.989   1.325   2.237 -0.6046 -0.5209  0.1252
  994MOL0     C34095   0.898   1.202   2.235  0.0680  0.5034 -0.3815
  994MOL0     C34096   0.780   1.218   2.335  0.4695 -0.5133  0.6895
  994MOL0     C34097   0.691   1.345   2.336 -0.0466  0.1764  0.6790
  994MOL0     C34098   0.567   1.327   2.418  0.1920 -0.0505 -0.6069
  994MOL0     C34099   0.445   1.292   2.331  0.1782 -0.5894 -0.7065
  994MOL0    Cl34100   0.480   1.172   2.212 -0.3185 -0.2267  0.0404
  994MOL0     C34101   1.298   1.703   2.317 -1.1377 -0.6083 -0.5943
  994MOL0     C34102   1.374   1.824   2.309  0.0303  0.8423 -0.5564
  994MOL0     O34103   1.386   2.105   2.250  0.2111 -0.1339 -0.2725
  994MOL0     C34104   1.733   2.165   2.194  0.2191  0.6282 -0.2173
  994MOL0     C34105   1.835   2.254   2.212 -0.2851  0.6073  0.4065
  994MOL0     N34106   2.382   2.649   2.201  0.9488 -0.4400  0.1653
  994MOL0     N34107   2.460   2.749   2.171  0.1535  0.2398  0.8045
  994MOL0     C34108   3.354   2.785   2.674 -0.4774 -0.7393 -0.7076
  994MOL0     C34109   3.454   2.699   2.705  1.0584  0.4632 -1.0457
  994MOL0     C34110   3.672   2.413   2.988  0.0391  0.5638 -0.8652
  994MOL0     C34111   3.756   2.367   2.891 -0.3991 -0.1450  0.6929
  994MOL0     C34112   3.831   2.244   2.908  0.5366 -0.0290 -0.1121
  994MOL0     C34113   3.820   2.171   3.024 -0.0060 -0.3353  0.4949
  994MOL0     O34114   3.898   2.065   3.035  0.6127  0.1568  0.0055
  994MOL0     C34115   3.943   2.044   3.166 -0.4643 -0.2941 -0.0778
  994MOL0     C34116   3.854   1.929   3.221 -0.3560  0.6278 -0.1167
  994MOL0     C34117   3.847   1.816   3.130  0.3743 -0.7596  0.9043
  994MOL0     C34118   3.862   1.674   3.199 -0.7064  0.1353 -0.6212
  994MOL0     C34119   3.836   1.571   3.097  0.5644 -0.3676 -0.5771
  994MOL0     C34120   3.807   1.495   3.012  0.5805 -0.0062  0.3918
  994MOL0     C34121   3.750   2.239   3.133 -0.8221  0.0356  0.3306
  994MOL0     C34122   3.670   2.353   3.119 -0.0209  0.3121  0.0393
  994MOL0     H34123   3.572   2.834   2.995  0.4190  1.5313 -0.9878
  994MOL0     H34124   3.383   2.980   2.958  1.4397  0.1743  1.5889
  994MOL0     H34125   3.156   2.975   2.566  2.1493  0.1906  0.0879
  994MOL0     H34126   3.079   2.867   2.672 -0.4373  1.2444  0.7829
  994MOL0     H34127   3.036   3.086   2.810  1.4367  1.2806 -0.7803
  994MOL0     H34128   3.030   3.165   2.657 -0.1896  0.7797  0.4148
  994MOL0     H34129   2.856   2.932   2.734 -0.2619  1.8647  2.2156
  994MOL0     H34130   2.808   3.100   2.753 -2.0758 -0.0110 -1.4462
  994MOL0     H34131   2.843   3.137   2.504  2.6730 -2.7354 -3.6065
  994MOL0     H34132   2.866   2.965   2.474 -2.2610 -0.3943 -1.9019
  994MOL0     H34133   2.659   2.896   2.556  2.7209 -0.1821 -2.7916
  994MOL0     H34134   2.626   3.057   2.629 -1.5323 -2.3373  0.7092
  994MOL0     H34135   2.505   3.041   2.427  1.2063 -2.7123  0.5017
  994MOL0     H34136   2.629   3.166   2.411  4.4510 -0.3939  1.8322
  994MOL0     H34137   2.618   3.035   2.194 -0.1644 -1.9365  0.0834
  994MOL0     H34138   2.771   3.029   2.270  0.6034 -0.3547 -1.7349
  994MOL0     H34139   2.732   2.801   2.328 -0.0040 -2.0413 -1.4371
  994MOL0     H34140   2.702   2.826   2.165 -0.3410 -1.0231  0.8670
  994MOL0     H34141   2.546   2.691   2.469  1.3801  1.4819 -1.5778
  994MOL0     H34142   2.442   2.413   2.372  2.3683  1.4569  2.0508
  994MOL0     H34143   2.382   2.492   2.517  1.0839 -0.6213  0.2112
  994MOL0     H34144   2.230   2.327   2.388  0.4929 -0.1405  2.5075
  994MOL0     H34145   2.220   2.451   2.264 -3.3924 -0.7783  1.2196
  994MOL0     H34146   2.121   2.597   2.449 -0.1400  0.0107 -0.6339
  994MOL0     H34147   2.144   2.467   2.565  0.4504 -0.1185 -0.3863
  994MOL0     H34148   1.928   2.461   2.523  1.0136  1.7208  1.0352
  994MOL0     H34149   1.998   2.319   2.422 -1.0615  0.7832 -0.4766
  994MOL0     H34150   1.668   2.481   2.409  1.7063 -0.6129  1.9735
  994MOL0     H34151   1.365   2.342   2.299 -0.9147  1.2331 -0.6388
  994MOL0     H34152   1.406   2.304   2.465 -0.5981 -2.3479 -2.1578
  994MOL0     H34153   1.446   2.462   2.413 -0.7932  0.2441 -0.1056
  994MOL0     H34154   1.563   1.739   2.047 -0.0388  1.2336  1.0100
  994MOL0     H34155   1.414   1.546   2.053  0.6261 -2.1965  2.4479
  994MOL0     H34156   1.155   1.470   2.042  1.9704  0.1472 -0.6651
  994MOL0     H34157   1.297   1.378   2.071 -0.8372 -0.6250 -3.1828
  994MOL0     H34158   1.072   1.246   2.058  0.7100  0.2026  0.6262
  994MOL0     H34159   1.169   1.215   2.204  1.7592  2.0636  1.4540
  994MOL0     H34160   0.943   1.413   2.190 -2.3914  0.2639  3.1142
  994MOL0     H34161   1.036   1.340   2.334  1.5668 -0.9365 -0.7965
  994MOL0     H34162   0.870   1.184   2.131  3.3828  3.1151 -1.8677
  994MOL0     H34163   0.957   1.114   2.265 -0.4195 -1.1887 -3.8697
  994MOL0     H34164   0.817   1.207   2.437 -1.4077  1.9996  1.7639
  994MOL0     H34165   0.719   1.129   2.319  0.8092 -0.3724 -1.9053
  994MOL0     H34166   0.742   1.430   2.382 -4.0591  4.3936 -1.7449
  994MOL0     H34167   0.667   1.372   2.233  2.2308 -0.4775 -0.0847
  994MOL0     H34168   0.564   1.425   2.468  1.5766  0.0468 -0.6679
  994MOL0     H34169   0.591   1.254   2.495  3.3103  3.1867  1.8615
  994MOL0     H34170   0.409   1.385   2.286  1.1413  0.7338  1.0963
  994MOL0     H34171   0.370   1.254   2.400  2.0046 -1.2597  1.0165
  994MOL0     H34172   1.217   1.696   2.388 -2.4660  1.9471 -1.7401
  994MOL0     H34173   1.341   1.898   2.381  0.7192 -0.8920  1.6320
  994MOL0     H34174   1.755   2.077   2.135 -0.9835  0.1176  0.0914
  994MOL0     H34175   1.935   2.243   2.171  0.6394  2.0328  2.1595
  994MOL0     H34176   3.301   2.770   2.581  0.8419 -0.9643 -1.4406
  994MOL0     H34177   3.472   2.607   2.649  1.0154 -0.8813  1.0561
  994MOL0     H34178   3.763   2.427   2.801 -2.3835 -1.5894 -0.4823
  994MOL0     H34179   3.899   2.200   2.836  1.6381  0.3431  0.6704
  994MOL0     H34180   4.046   2.010   3.175 -0.0920  0.9420  0.5344
  994MOL0     H34181   3.944   2.131   3.232  2.2953 -1.3294  1.3927
  994MOL0     H34182   3.752   1.964   3.237 -1.0878 -1.2255 -0.5254
  994MOL0     H34183   3.900   1.901   3.317  0.1161 -1.4428 -0.8984
  994MOL0     H34184   3.933   1.819   3.062  0.0292  4.1370  0.3422
  994MOL0     H34185   3.756   1.807   3.070  0.9088  0.2782 -0.0986
  994MOL0     H34186   3.791   1.662   3.282 -1.0571 -0.4306 -0.9944
  994MOL0     H34187   3.964   1.668   3.239 -0.9121 -3.3107 -0.3127
  994MOL0     H34188   3.794   1.414   2.943 -3.1495 -0.7601  1.7842
  994MOL0     H34189   3.761   2.205   3.235  4.1829 -1.5354 -0.4453
  994MOL0     H34190   3.620   2.399   3.203 -1.5852 -0.9730 -0.1415
  995MOL0     O34191   2.509   3.209   4.794  0.4442 -1.1852 -0.3673
  995MOL0     C34192   2.402   3.216   4.748  0.2062 -2.1775 -0.9391
  995MOL0     O34193   2.369   3.301   4.653 -0.0462 -0.0987 -0.0127
  995MOL0     C34194   2.469   3.382   4.596 -0.9514  0.6664  0.5732
  995MOL0     C34195   2.528   3.351   4.469  0.1075 -0.3497 -0.2753
  995MOL0     C34196   2.612   3.441   4.399 -0.2045 -0.7461  0.3749
  995MOL0     C34197   2.640   3.563   4.466 -0.4974 -0.2858  0.3151
  995MOL0     O34198   2.707   3.661   4.399 -0.5282  0.5376  0.3131
  995MOL0     C34199   2.772   3.774   4.464  0.1059 -1.5525  0.7748
  995MOL0     C34200   2.864   3.841   4.358 -0.2487  0.1489 -0.2024
  995MOL0     C34201   2.997   3.773   4.321  0.0032  0.1496 -0.1026
  995MOL0     C34202   3.087   3.853   4.222  1.0232 -0.5268  0.2480
  995MOL0     C34203   3.211   3.772   4.183  0.0025  0.0205  0.9327
  995MOL0     C34204   3.286   3.851   4.072  0.1080 -0.8898  0.4061
  995MOL0     C34205   3.390   3.939   4.135 -0.1726 -0.2284  0.4050
  995MOL0     C34206   3.468   4.008   4.028  0.5950 -0.1050  0.4808
  995MOL0     N34207   3.555   3.915   3.957 -0.0787  0.6171 -0.1887
  995MOL0     C34208   3.540   3.882   3.818  0.4514 -0.4644 -0.7003
  995MOL0     C34209   3.665   3.836   3.777  0.2254  0.4363  1.0638
  995MOL0     C34210   3.701   3.794   3.638  0.0116 -0.4478 -0.2291
  995MOL0     C34211   3.708   3.637   3.622 -0.1438  0.0375 -0.0655
  995MOL0     C34212   3.811   3.565   3.707  0.4241  0.0944 -0.5869
  995MOL0     C34213   3.789   3.415   3.701  0.2481  0.2821  0.5573
  995MOL0     O34214   3.811   3.373   3.565 -0.5955 -0.3478  0.1610
  995MOL0     C34215   3.926   3.304   3.529 -1.9814 -0.3097  0.2392
  995MOL0     C34216   4.043   3.287   3.600  0.1917  0.8486 -0.3265
  995MOL0     C34217   4.149   3.221   3.545  0.3291 -0.8669  0.2210
  995MOL0     C34218   4.270   3.243   3.624 -0.4126 -0.3201  0.7897
  995MOL0     C34219   4.143   3.162   3.409  0.2577  0.3999 -0.8341
  995MOL0     C34220   4.256   3.098   3.333  0.1963 -0.2805 -0.8374
  995MOL0     O34221   4.229   3.039   3.210 -0.5605 -0.1544  1.0934
  995MOL0     C34222   4.328   2.999   3.115  0.4155  0.7866  0.0616
  995MOL0     C34223   4.294   3.013   2.985  0.5809  0.6778  0.0043
  995MOL0     C34224   4.381   2.984   2.881  0.1804  1.0491  0.1314
  995MOL0     C34225   4.507   2.929   2.907  0.0154  0.0217  0.0922
  995MOL0     O34226   4.580   2.909   2.789  0.3909  0.4848 -0.6427
  995MOL0     C34227   4.724   2.889   2.792  0.4781  0.1377 -0.4433
  995MOL0     C34228   4.764   2.743   2.759  1.1246  0.5576 -0.0617
  995MOL0     C34229   4.686   2.629   2.829  0.2532  0.3058  0.1561
  995MOL0     C34230   4.753   2.493   2.805  0.0880  0.6917  0.4510
  995MOL0     C34231   4.661   2.376   2.830 -0.2686 -0.7778 -0.1327
  995MOL0     C34232   4.577   2.384   2.962 -0.2798 -0.1799  0.5313
  995MOL0     C34233   4.534   2.246   3.017 -0.4224  0.5581 -0.5101
  995MOL0     C34234   4.417   2.251   3.118 -0.5358  0.0030  0.0327
  995MOL0    Cl34235   4.268   2.318   3.051  0.2627  0.6840 -0.0578
  995MOL0     C34236   4.536   2.904   3.040  0.8342 -0.3951  0.6687
  995MOL0     C34237   4.452   2.947   3.145 -0.5163  0.4815  1.1245
  995MOL0     O34238   4.364   3.120   3.383 -0.3678  0.1932  0.1251
  995MOL0     C34239   4.018   3.180   3.338 -0.0528  0.2898 -0.7044
  995MOL0     C34240   3.919   3.243   3.397  0.1442 -0.8923  0.4322
  995MOL0     N34241   3.741   3.847   3.888 -0.1366  0.3705 -0.0429
  995MOL0     N34242   3.689   3.895   3.991  0.0930 -0.1740 -0.4226
  995MOL0     C34243   2.594   3.581   4.600 -0.0084 -0.1056 -0.4265
  995MOL0     C34244   2.510   3.493   4.655  0.1951 -0.3121 -0.6382
  995MOL0     C34245   2.316   3.106   4.797 -0.0240  0.5378  0.0821
  995MOL0     C34246   2.203   3.067   4.716  0.1843 -0.7552 -0.4749
  995MOL0     C34247   2.125   2.957   4.760  0.4852  0.3356 -0.4146
  995MOL0     C34248   2.141   2.881   4.880 -1.3369 -0.0284  0.6186
  995MOL0     O34249   2.068   2.782   4.946 -0.2177  0.2575 -0.3318
  995MOL0     C34250   1.923   2.775   4.922  0.4130  0.0726  0.6875
  995MOL0     C34251   1.862   2.904   4.984 -0.3206 -1.2133  0.7544
  995MOL0     C34252   1.910   2.935   5.130 -0.1854  0.0486 -0.5328
  995MOL0     C34253   1.890   2.824   5.237  0.3342 -0.0949 -0.4908
  995MOL0     C34254   2.012   2.739   5.254  0.8389 -0.6572 -0.2529
  995MOL0     C34255   2.107   2.666   5.259 -0.4792  0.0702 -0.9988
  995MOL0     C34256   2.259   2.921   4.939  0.2041  0.0560 -0.7338
  995MOL0     C34257   2.345   3.022   4.907 -0.6254  0.4452  0.4011
  995MOL0     H34258   2.494   3.262   4.417  1.7470 -0.5188 -1.1000
  995MOL0     H34259   2.654   3.412   4.303  0.8875 -0.1308  0.6506
  995MOL0     H34260   2.699   3.850   4.491  1.3269  0.1565 -0.4796
  995MOL0     H34261   2.829   3.745   4.553  3.3817 -1.9858 -1.3094
  995MOL0     H34262   2.815   3.853   4.261 -0.3338  3.2251  0.1205
  995MOL0     H34263   2.875   3.943   4.397 -0.2515 -1.1757  3.7418
  995MOL0     H34264   3.059   3.748   4.408  0.7887 -2.9863 -1.4159
  995MOL0     H34265   2.973   3.675   4.280  0.7180 -0.5268  1.0295
  995MOL0     H34266   3.038   3.863   4.124  3.1497  0.7930 -0.7547
  995MOL0     H34267   3.105   3.955   4.257 -1.0451  0.4106 -1.1840
  995MOL0     H34268   3.276   3.767   4.272  1.1716 -0.4792  0.0781
  995MOL0     H34269   3.172   3.675   4.152 -2.7314  0.3741  2.8435
  995MOL0     H34270   3.325   3.782   3.996 -0.8086 -0.8636 -0.1028
  995MOL0     H34271   3.218   3.916   4.016 -1.6489 -0.4484  2.8542
  995MOL0     H34272   3.332   4.004   4.201  0.0729 -0.2581  0.6500
  995MOL0     H34273   3.455   3.889   4.207  1.2387  3.2989  1.7943
  995MOL0     H34274   3.533   4.091   4.058  1.8962 -0.3976 -1.3757
  995MOL0     H34275   3.398   4.045   3.953  0.5100 -0.8213  0.2060
  995MOL0     H34276   3.454   3.901   3.755  1.9075  1.7624 -2.1436
  995MOL0     H34277   3.635   3.838   3.563  0.2404 -0.7314 -0.6003
  995MOL0     H34278   3.797   3.846   3.624 -0.9298  2.1916  2.0535
  995MOL0     H34279   3.724   3.620   3.515  0.2085 -2.4353  0.3168
  995MOL0     H34280   3.608   3.599   3.642 -0.6157  1.6140  0.6995
  995MOL0     H34281   3.806   3.596   3.812 -2.4838 -2.0837  0.0449
  995MOL0     H34282   3.910   3.605   3.684  1.1692 -0.9938  0.5913
  995MOL0     H34283   3.690   3.399   3.744 -0.0708  0.9455  0.0803
  995MOL0     H34284   3.852   3.353   3.766  0.5641 -1.2019 -1.0878
  995MOL0     H34285   4.045   3.333   3.698 -2.0735  1.7215 -0.6361
  995MOL0     H34286   4.248   3.298   3.716 -1.6255 -1.4439  1.2006
  995MOL0     H34287   4.324   3.150   3.647  1.5085  0.4066 -0.4914
  995MOL0     H34288   4.335   3.307   3.563  1.6140 -1.1572  1.9484
  995MOL0     H34289   4.200   3.054   2.948  1.3701  2.9264  0.3704
  995MOL0     H34290   4.341   2.992   2.781  1.4222  1.7451 -0.3348
  995MOL0     H34291   4.790   2.953   2.732 -1.8229  1.4595 -1.7056
  995MOL0     H34292   4.759   2.904   2.895  1.0187 -2.4933 -0.1526
  995MOL0     H34293   4.740   2.718   2.656  2.6236  0.9372 -0.5306
  995MOL0     H34294   4.871   2.735   2.777  0.8189  1.7427  2.8524
  995MOL0     H34295   4.584   2.626   2.790  0.3004  1.0172 -0.0289
  995MOL0     H34296   4.679   2.637   2.938  0.0753  1.2599  0.0859
  995MOL0     H34297   4.764   2.484   2.696  0.5462 -0.2381  0.5670
  995MOL0     H34298   4.842   2.496   2.867  0.5257 -1.5339  0.0023
  995MOL0     H34299   4.720   2.285   2.845 -1.6419 -1.4800  1.2419
  995MOL0     H34300   4.588   2.363   2.750  0.4744  1.3714 -1.2337
  995MOL0     H34301   4.621   2.445   3.041 -3.8455  3.7449 -0.1618
  995MOL0     H34302   4.484   2.438   2.945 -0.2130 -0.1243  0.3434
  995MOL0     H34303   4.614   2.188   3.064  1.1348  1.6695 -1.6702
  995MOL0     H34304   4.495   2.186   2.934  2.0354 -0.4973 -0.9993
  995MOL0     H34305   4.462   2.315   3.195  0.1796  1.4286 -1.5079
  995MOL0     H34306   4.403   2.152   3.163 -0.7910 -1.7824 -3.6065
  995MOL0     H34307   4.621   2.846   3.075  0.4364 -1.9860 -0.8788
  995MOL0     H34308   4.475   2.943   3.251  2.1280 -2.1522  0.5857
  995MOL0     H34309   4.006   3.126   3.245 -1.1936  1.6943 -1.4231
  995MOL0     H34310   3.822   3.265   3.354 -0.2963 -0.7683  1.4658
  995MOL0     H34311   2.612   3.677   4.647 -3.3538  0.8681 -0.8370
  995MOL0     H34312   2.493   3.513   4.761 -1.1573  1.1168 -1.0790
  995MOL0     H34313   2.178   3.127   4.629  1.0861 -0.6994 -0.7137
  995MOL0     H34314   2.038   2.929   4.701 -1.7749 -0.7110  3.1140
  995MOL0     H34315   1.907   2.766   4.814 -1.3545 -0.9184  0.9963
  995MOL0     H34316   1.885   2.682   4.965  0.7580 -0.1357  0.5536
  995MOL0     H34317   1.752   2.908   4.986 -0.3444  0.5612 -0.8335
  995MOL0     H34318   1.890   2.980   4.910 -0.3986 -2.0466 -0.1616
  995MOL0     H34319   1.851   3.021   5.161 -2.0890 -1.4187  0.1664
  995MOL0     H34320   2.016   2.961   5.130 -0.4442  1.1364 -0.6032
  995MOL0     H34321   1.799   2.767   5.213 -0.8223  1.1876  0.7004
  995MOL0     H34322   1.874   2.872   5.334  0.4750 -0.3559 -0.3363
  995MOL0     H34323   2.197   2.608   5.259 -0.3377  0.2767 -1.5652
  995MOL0     H34324   2.286   2.861   5.025 -2.4106  2.3073  1.8835
  995MOL0     H34325   2.438   3.032   4.963  1.3673 -1.5980 -2.2229
  996MOL0     O34326   7.822   2.408   8.742 -0.4767 -0.0782  0.0606
  996MOL0     C34327   7.790   2.467   8.638  0.5125 -0.0836  0.6374
  996MOL0     O34328   7.664   2.477   8.599  0.0378  0.1547  0.6540
  996MOL0     C34329   7.576   2.530   8.695  0.0770  0.0163  0.0473
  996MOL0     C34330   7.451   2.470   8.701 -0.1474 -0.6862 -0.9311
  996MOL0     C34331   7.344   2.518   8.794  0.2804 -0.1723  0.9476
  996MOL0     C34332   7.369   2.634   8.867 -0.8441  0.1415  0.9697
  996MOL0     O34333   7.278   2.695   8.947 -0.0322 -0.2857 -0.3924
  996MOL0     C34334   7.146   2.711   8.901  1.6532 -1.6802 -0.0261
  996MOL0     C34335   7.072   2.839   8.953 -0.9587  0.1431  0.6416
  996MOL0     C34336   7.160   2.965   8.959  1.3470 -0.6172  0.8652
  996MOL0     C34337   7.070   3.095   8.976  0.0911  0.0728 -0.3499
  996MOL0     C34338   7.156   3.218   8.972 -0.3243 -1.1076  0.0963
  996MOL0     C34339   7.075   3.351   8.970  0.4043  0.7749 -0.0700
  996MOL0     C34340   7.183   3.469   8.981  0.2047  0.7167  0.7078
  996MOL0     C34341   7.116   3.605   8.986 -0.1695  0.0828  0.4812
  996MOL0     N34342   7.010   3.611   9.084 -0.1238  0.5471 -0.0341
  996MOL0     C34343   6.872   3.612   9.071  0.3898  0.5146 -0.7078
  996MOL0     C34344   6.825   3.604   9.198 -0.9428 -0.2848  0.5483
  996MOL0     C34345   6.674   3.588   9.221 -0.1140  0.4891 -0.2463
  996MOL0     C34346   6.628   3.613   9.363 -0.5242  0.9092 -0.5266
  996MOL0     C34347   6.651   3.756   9.400  0.4092  0.0648 -0.0725
  996MOL0     C34348   6.589   3.806   9.529  0.0337 -0.9582  0.1629
  996MOL0     O34349   6.447   3.790   9.530  0.4336 -0.8076 -0.1211
  996MOL0     C34350   6.355   3.868   9.456 -1.3415  0.1447 -0.4189
  996MOL0     C34351   6.221   3.837   9.464 -0.7462  0.3034  0.1879
  996MOL0     C34352   6.135   3.918   9.392  1.4967  0.3087  0.4805
  996MOL0     C34353   5.989   3.890   9.421  0.3953 -0.0368  0.1820
  996MOL0     C34354   6.177   4.030   9.310  0.2241  0.0300  0.3949
  996MOL0     C34355   6.090   4.104   9.221 -0.8436 -0.7614 -0.2455
  996MOL0     O34356   5.959   4.089   9.223 -0.5187  0.5995 -0.5460
  996MOL0     C34357   5.879   4.197   9.177 -0.6795  0.0614  0.0398
  996MOL0     C34358   5.840   4.297   9.267  1.0410 -0.7082 -0.8358
  996MOL0     C34359   5.762   4.395   9.223 -0.0495 -0.2799 -0.2129
  996MOL0     C34360   5.731   4.409   9.090  0.4870 -1.0428  0.6958
  996MOL0     O34361   5.663   4.530   9.063 -0.6301 -0.0727  0.5705
  996MOL0     C34362   5.679   4.603   8.932  0.6436 -0.0249  0.2609
  996MOL0     C34363   5.572   4.719   8.915 -0.4871  0.9002 -0.4215
  996MOL0     C34364   5.512   4.720   8.777  0.0239  0.8670  0.2316
  996MOL0     C34365   5.422   4.833   8.746  1.1933 -0.4430  0.4171
  996MOL0     C34366   5.350   4.830   8.615  0.5929  1.0295 -0.0544
  996MOL0     C34367   5.213   4.751   8.626 -0.8594  0.4708 -0.1236
  996MOL0     C34368   5.131   4.763   8.499 -0.0996 -1.0288  0.1925
  996MOL0     C34369   4.996   4.692   8.508  0.6532 -0.2573  0.6133
  996MOL0    Cl34370   5.000   4.511   8.509 -0.2732  0.8173 -0.2831
  996MOL0     C34371   5.770   4.319   8.995  0.6880  0.6205  0.2427
  996MOL0     C34372   5.840   4.205   9.042  0.0336  0.8290 -0.4675
  996MOL0     O34373   6.143   4.176   9.133  0.0797  0.8747 -0.4261
  996MOL0     C34374   6.317   4.067   9.316  0.6372  0.7419 -0.0052
  996MOL0     C34375   6.404   3.987   9.390  0.8106  0.2088 -0.6016
  996MOL0     N34376   6.937   3.595   9.285 -0.2700 -0.0550 -0.3339
  996MOL0     N34377   7.045   3.620   9.221  0.7925  0.5021  0.3076
  996MOL0     C34378   7.504   2.686   8.868 -0.0091 -0.0908  0.5693
  996MOL0     C34379   7.605   2.638   8.783 -0.1248  0.0304 -0.6003
  996MOL0     C34380   7.894   2.500   8.536 -0.5911  1.1164  0.1749
  996MOL0     C34381   7.869   2.558   8.413 -0.3112  0.0969 -0.1888
  996MOL0     C34382   7.971   2.583   8.326  0.2525  0.5448 -0.5145
  996MOL0     C34383   8.101   2.551   8.346 -0.2783  0.2013  0.2385
  996MOL0     O34384   8.190   2.591   8.256 -0.3111  0.6610  0.0549
  996MOL0     C34385   8.327   2.556   8.252  0.3555  0.4676  0.6610
  996MOL0     C34386   8.381   2.608   8.112 -0.6914  0.0925  0.3347
  996MOL0     C34387   8.398   2.482   8.015  0.1357  0.2081  1.3388
  996MOL0     C34388   8.486   2.367   8.052  0.4126  0.0857 -0.1158
  996MOL0     C34389   8.618   2.399   8.007 -0.2908  0.5380  0.4330
  996MOL0     C34390   8.730   2.426   7.977  0.4048 -0.4289 -0.1996
  996MOL0     C34391   8.125   2.477   8.469  1.5427  0.4333  0.4473
  996MOL0     C34392   8.026   2.455   8.564 -0.4658 -0.0987  0.6140
  996MOL0     H34393   7.420   2.383   8.643 -2.9464 -1.6152  1.6697
  996MOL0     H34394   7.245   2.473   8.795  0.5551 -0.9110 -0.6269
  996MOL0     H34395   7.146   2.723   8.792 -2.0401  1.9579  0.1279
  996MOL0     H34396   7.083   2.625   8.927 -0.6276 -0.0757 -0.0424
  996MOL0     H34397   6.972   2.852   8.912 -1.2004  1.0273  1.4509
  996MOL0     H34398   7.038   2.813   9.054  0.1370  1.3624  1.3681
  996MOL0     H34399   7.220   2.965   9.051  1.9587 -1.6368  0.4830
  996MOL0     H34400   7.221   2.970   8.869  2.9445  0.1399  1.9440
  996MOL0     H34401   6.991   3.093   8.900 -1.0091 -1.7053  0.7763
  996MOL0     H34402   7.022   3.093   9.074  2.7780 -1.1747  1.0453
  996MOL0     H34403   7.223   3.225   9.058 -1.4095  1.8444  0.8188
  996MOL0     H34404   7.212   3.221   8.878 -1.7470  2.5349 -0.8044
  996MOL0     H34405   7.021   3.357   8.875 -3.3268  3.8882  2.0132
  996MOL0     H34406   7.001   3.348   9.049  1.7567  1.2919  1.2672
  996MOL0     H34407   7.250   3.446   9.065 -1.8537  0.6600  2.4078
  996MOL0     H34408   7.248   3.479   8.893  0.2351 -0.1799  0.6199
  996MOL0     H34409   7.065   3.610   8.890 -2.6911 -4.3417  1.2977
  996MOL0     H34410   7.202   3.669   9.004  1.2823 -1.0180 -2.0656
  996MOL0     H34411   6.807   3.608   8.984  1.5613 -1.9765 -1.5611
  996MOL0     H34412   6.623   3.665   9.163 -2.3069  0.9956  2.1552
  996MOL0     H34413   6.647   3.485   9.199  0.5696 -0.2905  2.2075
  996MOL0     H34414   6.676   3.543   9.432 -1.3135  1.0647  0.2024
  996MOL0     H34415   6.527   3.571   9.356 -0.8963  1.0973  2.3899
  996MOL0     H34416   6.619   3.820   9.318 -0.3614 -1.9368 -1.3980
  996MOL0     H34417   6.760   3.760   9.407  0.4647  0.4726 -1.0105
  996MOL0     H34418   6.628   3.907   9.549  1.3534 -1.2442 -0.8208
  996MOL0     H34419   6.619   3.753   9.620 -1.7841 -1.0733  0.7449
  996MOL0     H34420   6.196   3.758   9.534  0.8884  1.4769  2.2091
  996MOL0     H34421   5.932   3.968   9.470  1.4707  0.7762  0.1807
  996MOL0     H34422   5.942   3.850   9.331  0.0377  0.7801 -0.0012
  996MOL0     H34423   5.983   3.801   9.485  2.1524  1.8071  3.0977
  996MOL0     H34424   5.891   4.312   9.361 -0.1189  2.4307 -0.5846
  996MOL0     H34425   5.722   4.466   9.295  0.8540 -1.6169  1.7055
  996MOL0     H34426   5.785   4.629   8.921  0.0036  1.8397 -2.5999
  996MOL0     H34427   5.657   4.536   8.849 -1.1204 -0.4163  0.9914
  996MOL0     H34428   5.498   4.720   8.996  0.0830 -1.8929  0.2570
  996MOL0     H34429   5.620   4.816   8.931 -0.8060  0.7563  1.6811
  996MOL0     H34430   5.451   4.630   8.769 -0.2149  0.9863  0.6899
  996MOL0     H34431   5.595   4.702   8.708 -0.6410  0.6333 -0.5255
  996MOL0     H34432   5.346   4.835   8.824 -0.6515  0.0297 -1.3176
  996MOL0     H34433   5.466   4.933   8.755  1.4876 -0.5155 -0.1514
  996MOL0     H34434   5.409   4.784   8.535 -0.4609  0.9494 -0.8147
  996MOL0     H34435   5.326   4.930   8.577 -2.6283  0.0927 -0.7947
  996MOL0     H34436   5.237   4.645   8.639 -0.6158  0.6245  0.8230
  996MOL0     H34437   5.162   4.780   8.719 -3.6685  1.5236 -1.8927
  996MOL0     H34438   5.189   4.717   8.418  1.7839  3.1317 -1.1383
  996MOL0     H34439   5.106   4.868   8.478 -0.3405 -1.5837 -2.8460
  996MOL0     H34440   4.930   4.721   8.426  2.2698 -1.3240 -1.1370
  996MOL0     H34441   4.954   4.716   8.606  0.5655  0.2824  0.4435
  996MOL0     H34442   5.721   4.327   8.898  2.0770  0.7529 -0.4878
  996MOL0     H34443   5.855   4.122   8.974  0.2631  0.7167 -0.2800
  996MOL0     H34444   6.352   4.149   9.254 -1.4112  1.6412 -0.0738
  996MOL0     H34445   6.509   4.003   9.409  0.8810 -2.8671  2.5716
  996MOL0     H34446   7.515   2.774   8.931 -0.9179  0.0490  0.5476
  996MOL0     H34447   7.699   2.692   8.781  0.3715 -0.7022  1.2124
  996MOL0     H34448   7.766   2.583   8.391 -1.3470 -2.0511  1.6757
  996MOL0     H34449   7.945   2.632   8.233 -2.2161 -2.3087 -1.4703
  996MOL0     H34450   8.375   2.622   8.325  2.1563 -1.3327  1.2019
  996MOL0     H34451   8.351   2.452   8.276 -1.5257 -0.9903 -3.0510
  996MOL0     H34452   8.480   2.654   8.122 -1.2914  1.2759  1.0491
  996MOL0     H34453   8.324   2.686   8.062 -0.3033 -0.1871 -0.5668
  996MOL0     H34454   8.409   2.524   7.915 -4.0401  1.8746  1.3619
  996MOL0     H34455   8.302   2.429   8.005  0.4313 -0.2485  0.9357
  996MOL0     H34456   8.445   2.274   8.012 -0.5821  1.1195 -1.6252
  996MOL0     H34457   8.488   2.348   8.160 -0.6935 -6.7495 -0.8822
  996MOL0     H34458   8.834   2.453   7.980  0.2691  0.2001 -0.7992
  996MOL0     H34459   8.223   2.439   8.495  1.2120  0.0975  1.2185
  996MOL0     H34460   8.052   2.403   8.655 -1.4954 -0.5348  0.6733
  997MOL0     O34461   8.916   2.103   9.191  0.0621 -0.0689  0.3687
  997MOL0     C34462   8.992   2.072   9.102 -0.5692  0.7997 -0.7215
  997MOL0     O34463   9.128   2.114   9.095  0.8114 -0.0664  1.1480
  997MOL0     C34464   9.194   2.177   9.198  0.0343  0.3808 -0.1821
  997MOL0     C34465   9.297   2.264   9.160 -0.6658  1.0377  0.3455
  997MOL0     C34466   9.379   2.329   9.258 -0.1143  0.8640 -1.4391
  997MOL0     C34467   9.327   2.324   9.391 -0.0729 -0.5151 -0.6021
  997MOL0     O34468   9.385   2.401   9.489  0.0944  1.0117 -0.0421
  997MOL0     C34469   9.526   2.391   9.517  0.5820  0.0732 -1.1690
  997MOL0     C34470   9.550   2.267   9.596  0.5232 -0.1450 -0.4699
  997MOL0     C34471   9.503   2.265   9.748 -0.6095 -0.2541 -0.1271
  997MOL0     C34472   9.577   2.142   9.828  0.6942 -1.0097  0.2459
  997MOL0     C34473   9.579   2.181   9.980  0.6525 -0.3096  0.1642
  997MOL0     C34474   9.726   2.199  10.023 -0.6813 -0.4569 -0.2722
  997MOL0     C34475   9.805   2.299   9.931  0.6122 -0.0153  0.6053
  997MOL0     C34476   9.957   2.310   9.939  0.4204  0.9380  0.0942
  997MOL0     N34477  10.002   2.359  10.067 -0.0087 -0.4095  0.2646
  997MOL0     C34478   9.963   2.483  10.108  0.5196  0.6600 -0.2095
  997MOL0     C34479   9.937   2.469  10.238 -0.5095  0.7386 -0.6144
  997MOL0     C34480   9.911   2.572  10.344 -0.0323  0.2599 -0.1641
  997MOL0     C34481   9.813   2.536  10.453  0.0633  0.0549  0.4261
  997MOL0     C34482   9.671   2.515  10.383  0.2642  0.5059 -0.4790
  997MOL0     C34483   9.558   2.493  10.484 -1.2641 -0.4932 -0.5109
  997MOL0     O34484   9.597   2.405  10.589 -0.3102  0.6634 -0.3000
  997MOL0     C34485   9.508   2.404  10.699  0.7967 -0.0952 -0.4220
  997MOL0     C34486   9.471   2.519  10.765 -0.3309 -0.4945 -0.3809
  997MOL0     C34487   9.387   2.521  10.878 -0.0947  0.2039 -0.0334
  997MOL0     C34488   9.368   2.650  10.944  0.4200 -0.0191  0.2979
  997MOL0     C34489   9.330   2.395  10.930 -0.9814  1.3893 -0.1863
  997MOL0     C34490   9.246   2.371  11.047 -1.1097 -0.0341  0.9689
  997MOL0     O34491   9.200   2.245  11.066  0.0216 -0.1049 -0.6431
  997MOL0     C34492   9.111   2.229  11.169 -0.2031  0.0434 -0.7483
  997MOL0     C34493   8.993   2.296  11.166 -0.6343  0.8080 -0.8256
  997MOL0     C34494   8.897   2.278  11.263  0.3402 -0.4884  0.1958
  997MOL0     C34495   8.915   2.190  11.370  0.2644  0.3760  0.1085
  997MOL0     O34496   8.816   2.154  11.461 -0.4713 -0.4143 -0.3033
  997MOL0     C34497   8.787   2.019  11.473 -0.6112  0.3470 -0.1647
  997MOL0     C34498   8.654   1.995  11.406 -0.4553 -0.4509 -0.5424
  997MOL0     C34499   8.616   1.849  11.371  0.7190 -0.5043  0.7654
  997MOL0     C34500   8.466   1.840  11.338  0.1148  0.2749 -1.0666
  997MOL0     C34501   8.413   1.696  11.338 -0.1734  0.1232  0.5898
  997MOL0     C34502   8.259   1.675  11.320  0.1270 -0.4721  0.3916
  997MOL0     C34503   8.237   1.534  11.268  0.0638 -0.6089 -0.2798
  997MOL0     C34504   8.098   1.490  11.291 -0.2075  0.0119  0.3444
  997MOL0    Cl34505   8.037   1.506  11.457  0.4837  0.0640  0.2879
  997MOL0     C34506   9.044   2.129  11.386 -0.7174  0.3509 -0.5871
  997MOL0     C34507   9.139   2.141  11.282 -0.5255 -0.2823 -0.2865
  997MOL0     O34508   9.228   2.470  11.120 -0.2637 -0.2112 -0.2034
  997MOL0     C34509   9.355   2.279  10.849 -0.3457  0.4168  0.1655
  997MOL0     C34510   9.448   2.285  10.746 -1.5676  0.2248  1.0207
  997MOL0     N34511   9.953   2.340  10.276  0.1225 -0.0678 -0.4229
  997MOL0     N34512   9.993   2.274  10.171 -0.3411 -0.8017 -0.3981
  997MOL0     C34513   9.231   2.226   9.432 -0.2290  0.6792  0.1650
  997MOL0     C34514   9.177   2.142   9.331  0.1112 -0.2827  0.3003
  997MOL0     C34515   8.936   1.992   8.996 -0.9197 -0.4116 -0.2824
  997MOL0     C34516   8.797   1.995   8.966  0.1740 -0.5147 -0.5128
  997MOL0     C34517   8.751   1.925   8.850 -0.0336 -0.1265 -0.2040
  997MOL0     C34518   8.844   1.860   8.767  0.1526 -1.2041 -0.0644
  997MOL0     O34519   8.788   1.794   8.659 -0.3511 -0.1949 -0.4252
  997MOL0     C34520   8.872   1.745   8.559  0.6714  0.4677  0.1201
  997MOL0     C34521   8.764   1.674   8.462 -0.2956  0.1656 -0.3366
  997MOL0     C34522   8.648   1.761   8.397  0.2247  0.2286  0.5245
  997MOL0     C34523   8.507   1.695   8.393 -0.0836 -0.5515 -0.1878
  997MOL0     C34524   8.492   1.572   8.316  0.4982  0.9695  0.5591
  997MOL0     C34525   8.488   1.469   8.253 -0.2156 -0.4306  1.0674
  997MOL0     C34526   8.984   1.849   8.806 -0.2981  0.4449 -1.0853
  997MOL0     C34527   9.028   1.916   8.916 -0.7391  0.1996  0.7496
  997MOL0     H34528   9.305   2.293   9.056 -1.1057  0.3716  0.1197
  997MOL0     H34529   9.456   2.398   9.226  1.0084 -0.4322 -1.6656
  997MOL0     H34530   9.582   2.379   9.423  0.9562 -0.6185 -0.8681
  997MOL0     H34531   9.559   2.472   9.583 -3.9266  1.5726 -0.4190
  997MOL0     H34532   9.501   2.187   9.540  1.4131  0.1949 -1.7792
  997MOL0     H34533   9.658   2.248   9.598  0.8846  1.7726  0.1673
  997MOL0     H34534   9.532   2.364   9.785  0.7519 -0.0738 -1.6079
  997MOL0     H34535   9.396   2.252   9.770 -0.2490  1.1208  3.0910
  997MOL0     H34536   9.514   2.054   9.810  0.3072 -1.0298  1.5795
  997MOL0     H34537   9.674   2.108   9.790  2.2891  0.0167  3.1015
  997MOL0     H34538   9.515   2.268   9.998 -1.4684 -1.7406 -0.0023
  997MOL0     H34539   9.526   2.107  10.040  1.1793 -0.4908  0.4123
  997MOL0     H34540   9.746   2.222  10.128 -0.9656 -1.1070 -0.0699
  997MOL0     H34541   9.766   2.099  10.006 -1.8933 -1.0905  0.4114
  997MOL0     H34542   9.782   2.276   9.826  3.5606 -1.3203  0.1452
  997MOL0     H34543   9.766   2.398   9.957  2.7286  0.6522  1.4716
  997MOL0     H34544   9.998   2.376   9.862  2.7653 -0.6584 -0.1294
  997MOL0     H34545  10.007   2.213   9.933 -1.3821 -0.1400  1.4958
  997MOL0     H34546   9.956   2.567  10.039 -0.7158  0.0790 -0.8080
  997MOL0     H34547  10.008   2.596  10.388  0.2187 -0.4343 -0.3110
  997MOL0     H34548   9.865   2.652  10.286  0.7649  0.4760 -0.5079
  997MOL0     H34549   9.804   2.615  10.528  1.8909  0.4908  0.2253
  997MOL0     H34550   9.838   2.439  10.496  0.4536  0.1856  0.5028
  997MOL0     H34551   9.673   2.423  10.324 -0.6193  0.2676 -0.1587
  997MOL0     H34552   9.650   2.603  10.322  2.9466  2.0233  0.6088
  997MOL0     H34553   9.476   2.455  10.422 -2.6617  0.6774  0.5523
  997MOL0     H34554   9.524   2.591  10.520 -0.1043 -0.3846  0.3480
  997MOL0     H34555   9.518   2.614  10.741  1.9183 -1.4836 -0.2319
  997MOL0     H34556   9.376   2.645  11.053 -0.7164 -1.1353  0.3537
  997MOL0     H34557   9.434   2.719  10.891  0.8853 -1.4725 -1.0899
  997MOL0     H34558   9.277   2.699  10.909  0.8717  0.4075 -0.2977
  997MOL0     H34559   8.979   2.361  11.080  2.5395 -0.9404 -2.8888
  997MOL0     H34560   8.803   2.329  11.276  0.1609 -0.4007 -1.2889
  997MOL0     H34561   8.865   1.961  11.422  0.1396  1.1612  0.0437
  997MOL0     H34562   8.785   1.983  11.576  0.7107 -1.4023 -0.7023
  997MOL0     H34563   8.577   2.034  11.473 -1.3280 -1.6088 -0.8371
  997MOL0     H34564   8.653   2.058  11.316  2.5664 -2.3277 -2.0502
  997MOL0     H34565   8.633   1.787  11.460  0.6243  0.7213  1.6561
  997MOL0     H34566   8.675   1.817  11.285 -2.0129  4.3955 -3.5156
  997MOL0     H34567   8.416   1.893  11.420 -1.3830 -2.5708  0.0103
  997MOL0     H34568   8.432   1.891  11.247  0.8373  4.5828  0.8312
  997MOL0     H34569   8.437   1.641  11.429  2.8234 -0.5710 -0.5162
  997MOL0     H34570   8.473   1.650  11.260 -2.0398  0.2169 -0.9848
  997MOL0     H34571   8.206   1.703  11.411 -2.9994  0.7251 -1.6403
  997MOL0     H34572   8.213   1.744  11.248  2.5717 -0.1456 -0.9695
  997MOL0     H34573   8.306   1.466  11.319  2.5419  2.0173  0.1394
  997MOL0     H34574   8.263   1.519  11.163  0.3426 -0.0333 -0.2951
  997MOL0     H34575   8.104   1.382  11.270 -3.3853  0.0262 -1.1677
  997MOL0     H34576   8.030   1.545  11.226  0.2259  0.5350  0.3313
  997MOL0     H34577   9.068   2.056  11.462 -1.3272  1.3279  0.5944
  997MOL0     H34578   9.241   2.105  11.285  0.9529  3.4395  2.9794
  997MOL0     H34579   9.324   2.176  10.864  3.2430 -0.8127  0.1767
  997MOL0     H34580   9.466   2.204  10.676 -1.7375 -1.2113  2.5693
  997MOL0     H34581   9.212   2.217   9.539  0.7938  3.0069  0.6141
  997MOL0     H34582   9.119   2.051   9.344 -0.5639 -0.4083 -2.8147
  997MOL0     H34583   8.727   2.049   9.027  1.8384  1.3588 -0.1523
  997MOL0     H34584   8.649   1.952   8.825  0.6697  2.5681 -0.5781
  997MOL0     H34585   8.939   1.826   8.527 -0.3217  1.8397  1.4100
  997MOL0     H34586   8.928   1.661   8.601 -0.1173 -0.6965 -1.0541
  997MOL0     H34587   8.733   1.581   8.511  0.3648  0.8255  1.4205
  997MOL0     H34588   8.828   1.647   8.377 -0.9625  0.3270 -0.9041
  997MOL0     H34589   8.691   1.778   8.297  3.4478 -4.7470  0.6958
  997MOL0     H34590   8.643   1.853   8.455  2.9673 -0.7589  2.5358
  997MOL0     H34591   8.440   1.776   8.364  0.9975  0.7341  0.8110
  997MOL0     H34592   8.474   1.671   8.495  0.1369 -1.9426 -0.4133
  997MOL0     H34593   8.470   1.384   8.190 -2.0875  1.9876 -1.9558
  997MOL0     H34594   9.047   1.788   8.742 -0.5196 -0.0512 -0.8415
  997MOL0     H34595   9.133   1.910   8.943  0.0622 -1.7408 -2.2331
  998MOL0     O34596   3.453   5.022   4.040 -0.0439  0.4996 -0.6174
  998MOL0     C34597   3.447   5.144   4.024  0.0236  0.6265  0.1991
  998MOL0     O34598   3.357   5.226   4.069  0.2779 -0.1351 -0.0232
  998MOL0     C34599   3.237   5.180   4.119 -0.1334 -0.2342 -0.9160
  998MOL0     C34600   3.185   5.250   4.223  0.3070 -0.2680 -0.4421
  998MOL0     C34601   3.079   5.200   4.297  0.0924 -0.3638  0.6116
  998MOL0     C34602   3.017   5.077   4.247 -0.2096  0.3058 -1.0742
  998MOL0     O34603   2.917   5.016   4.312  1.0281  0.0110 -0.7314
  998MOL0     C34604   2.844   5.084   4.427  0.2008 -1.4419 -0.3874
  998MOL0     C34605   2.716   5.022   4.472  0.6207 -0.3851  0.6137
  998MOL0     C34606   2.629   4.981   4.351  0.7084 -0.8370 -0.5075
  998MOL0     C34607   2.595   4.837   4.351 -0.5257 -0.1151 -0.8422
  998MOL0     C34608   2.539   4.782   4.222 -0.5902 -0.1247  0.3084
  998MOL0     C34609   2.497   4.635   4.231  0.3103  0.0818 -0.1597
  998MOL0     C34610   2.479   4.563   4.097 -0.2610  0.1838 -1.1426
  998MOL0     C34611   2.376   4.620   4.001 -0.8518 -0.0766  0.2202
  998MOL0     N34612   2.375   4.565   3.860  0.1358 -0.1617  0.0093
  998MOL0     C34613   2.308   4.620   3.754 -0.1818  0.6326  0.1719
  998MOL0     C34614   2.347   4.552   3.639  0.8459  0.1323 -1.3249
  998MOL0     C34615   2.320   4.585   3.490 -0.0803 -0.2113  0.5653
  998MOL0     C34616   2.195   4.516   3.435 -0.8353  0.5672  0.1987
  998MOL0     C34617   2.059   4.574   3.496  0.0902  0.6398 -0.1772
  998MOL0     C34618   2.031   4.721   3.461 -0.2307  0.7850  1.3336
  998MOL0     O34619   2.109   4.810   3.533 -0.4606 -0.0234  0.3273
  998MOL0     C34620   2.110   4.936   3.476 -0.3870 -0.0306  0.7286
  998MOL0     C34621   2.013   4.990   3.388  0.3850 -0.4181 -0.8597
  998MOL0     C34622   2.013   5.125   3.349 -0.9274 -0.7581 -0.8657
  998MOL0     C34623   1.909   5.177   3.256 -0.4266  0.4760  0.3744
  998MOL0     C34624   2.110   5.215   3.394  0.7433 -0.9887 -0.7423
  998MOL0     C34625   2.117   5.364   3.352  0.0168  0.2724  0.6236
  998MOL0     O34626   2.205   5.436   3.435  0.4328  0.0297 -0.7894
  998MOL0     C34627   2.260   5.546   3.378  0.3307 -0.1147 -0.5101
  998MOL0     C34628   2.194   5.678   3.382  0.0153  0.6906  0.2549
  998MOL0     C34629   2.231   5.782   3.302  0.5043  0.0894 -0.0611
  998MOL0     C34630   2.364   5.767   3.238 -0.2144 -1.1819 -0.4159
  998MOL0     O34631   2.417   5.861   3.152 -0.0955  0.7200 -0.2030
  998MOL0     C34632   2.342   5.975   3.115  0.3079  0.6883 -0.0946
  998MOL0     C34633   2.432   6.067   3.048  0.3125 -0.5388  0.9689
  998MOL0     C34634   2.368   6.206   3.006 -0.5127  0.2172  0.0386
  998MOL0     C34635   2.374   6.303   3.136  0.8524 -0.9282 -0.5260
  998MOL0     C34636   2.518   6.343   3.166 -1.0328  0.1078 -0.3620
  998MOL0     C34637   2.510   6.476   3.241 -0.7338  0.3381 -0.1870
  998MOL0     C34638   2.649   6.509   3.294 -0.6594  0.3157  0.8686
  998MOL0     C34639   2.675   6.663   3.285 -0.0631  1.0859  0.6335
  998MOL0    Cl34640   2.563   6.759   3.385  0.0675  0.5123  0.0280
  998MOL0     C34641   2.428   5.642   3.230 -0.4267 -0.2714  0.0169
  998MOL0     C34642   2.380   5.537   3.308  0.4187 -0.4784  0.4868
  998MOL0     O34643   2.061   5.415   3.256  0.0995  0.0104  0.2174
  998MOL0     C34644   2.205   5.165   3.484 -1.5127 -0.1842  0.1344
  998MOL0     C34645   2.207   5.026   3.516 -0.0421 -0.9514  0.0305
  998MOL0     N34646   2.422   4.451   3.680  0.1349  0.8924 -0.4470
  998MOL0     N34647   2.443   4.458   3.811 -0.7220 -0.1975  0.4563
  998MOL0     C34648   3.056   5.020   4.129 -0.2824  0.1272 -0.8360
  998MOL0     C34649   3.167   5.069   4.069 -0.6136 -0.9978  0.5611
  998MOL0     C34650   3.547   5.208   3.935  0.0991  0.1026 -0.5717
  998MOL0     C34651   3.531   5.341   3.889  0.3494  0.1407 -0.0673
  998MOL0     C34652   3.625   5.389   3.795  0.7323  0.0024 -0.3101
  998MOL0     C34653   3.744   5.316   3.763 -0.7043 -0.5115  0.2255
  998MOL0     O34654   3.845   5.357   3.685  0.6586 -0.9363 -0.6360
  998MOL0     C34655   3.834   5.483   3.616 -0.2454  0.5849 -0.0796
  998MOL0     C34656   3.976   5.536   3.590 -0.2784 -0.2390  0.6449
  998MOL0     C34657   3.966   5.677   3.537 -0.4004 -0.2932  0.2115
  998MOL0     C34658   4.099   5.739   3.533  0.9800 -0.2824  0.5770
  998MOL0     C34659   4.079   5.868   3.462 -1.2141  0.2034 -0.1313
  998MOL0     C34660   4.050   5.968   3.396 -0.0524  0.5033 -0.2106
  998MOL0     C34661   3.761   5.193   3.829 -0.6919 -0.1568  0.6349
  998MOL0     C34662   3.660   5.136   3.900 -0.0995  1.1957 -0.1262
  998MOL0     H34663   3.233   5.336   4.269  1.0715 -1.6876  1.5840
  998MOL0     H34664   3.046   5.252   4.386 -1.4731 -1.1490  0.5302
  998MOL0     H34665   2.909   5.100   4.513 -0.8121  1.0033 -0.0160
  998MOL0     H34666   2.796   5.173   4.387  0.1086 -1.6530 -0.7539
  998MOL0     H34667   2.749   4.936   4.531  4.4478  0.6993  0.3568
  998MOL0     H34668   2.661   5.090   4.537  0.2561  0.0722 -0.1566
  998MOL0     H34669   2.532   5.030   4.352  1.9238  1.7742 -1.6081
  998MOL0     H34670   2.675   5.021   4.261  1.1264 -0.5205 -0.1593
  998MOL0     H34671   2.683   4.781   4.383 -0.3806  1.9575  2.9005
  998MOL0     H34672   2.525   4.829   4.434 -0.8280 -2.0815 -1.2236
  998MOL0     H34673   2.457   4.850   4.198  0.2398  0.6588 -0.3849
  998MOL0     H34674   2.618   4.791   4.147 -1.0062 -4.2220 -0.8585
  998MOL0     H34675   2.572   4.586   4.294  0.5173  0.7890  0.1468
  998MOL0     H34676   2.401   4.624   4.283 -0.1761  1.2202 -0.7620
  998MOL0     H34677   2.575   4.578   4.048  1.1177 -0.9895  1.0333
  998MOL0     H34678   2.455   4.456   4.105 -0.4158  0.3317  0.7273
  998MOL0     H34679   2.400   4.725   3.982 -0.1822 -0.2288  0.2221
  998MOL0     H34680   2.279   4.604   4.049 -3.1632 -1.5115 -4.3025
  998MOL0     H34681   2.247   4.709   3.764  1.9775  2.3851 -1.2128
  998MOL0     H34682   2.314   4.694   3.486  0.4442 -0.2098 -1.0985
  998MOL0     H34683   2.404   4.558   3.426 -0.8721 -0.0926 -0.5498
  998MOL0     H34684   2.204   4.409   3.453 -2.3588  0.3512 -0.1739
  998MOL0     H34685   2.200   4.524   3.326 -1.4385  2.1866  0.2525
  998MOL0     H34686   2.053   4.565   3.605  0.9468  1.4981 -0.0492
  998MOL0     H34687   1.977   4.506   3.471  1.7348 -3.0822  3.3587
  998MOL0     H34688   1.928   4.738   3.496 -0.6039  0.3225  0.4952
  998MOL0     H34689   2.027   4.728   3.352  0.3484  0.8978  1.3205
  998MOL0     H34690   1.937   4.926   3.345 -0.1657 -0.0355 -0.4572
  998MOL0     H34691   1.952   5.209   3.161 -0.9565 -0.1761 -0.0997
  998MOL0     H34692   1.840   5.093   3.239 -0.8592  1.2758 -2.2599
  998MOL0     H34693   1.854   5.262   3.297 -1.1813  1.2947 -2.1321
  998MOL0     H34694   2.108   5.692   3.446  0.9764 -1.3055  2.1107
  998MOL0     H34695   2.183   5.879   3.302 -1.9429 -0.7954  5.1562
  998MOL0     H34696   2.272   5.938   3.039  1.3094  2.3991 -1.9409
  998MOL0     H34697   2.288   6.022   3.198 -2.8890 -2.0120 -0.4522
  998MOL0     H34698   2.505   6.096   3.124  1.2652 -2.7903  0.9977
  998MOL0     H34699   2.477   6.022   2.959 -2.1699 -0.4290 -0.4488
  998MOL0     H34700   2.266   6.204   2.966 -2.0755 -2.3880  3.6012
  998MOL0     H34701   2.429   6.247   2.924  1.2192  3.6172  2.7964
  998MOL0     H34702   2.314   6.390   3.108  2.8602  1.2665  1.6061
  998MOL0     H34703   2.324   6.253   3.220  1.4191 -1.4379 -0.4866
  998MOL0     H34704   2.571   6.357   3.071  2.7949  1.3227  1.7225
  998MOL0     H34705   2.577   6.273   3.226  2.1496  0.8520 -2.3621
  998MOL0     H34706   2.486   6.561   3.175  1.6676  0.4175 -1.0431
  998MOL0     H34707   2.443   6.464   3.326  2.2022 -2.5882  1.9558
  998MOL0     H34708   2.723   6.452   3.237 -1.9165  0.3270 -0.8649
  998MOL0     H34709   2.659   6.473   3.396  3.2035 -1.0324  0.1656
  998MOL0     H34710   2.673   6.693   3.179 -0.5461 -0.4655  0.1765
  998MOL0     H34711   2.777   6.688   3.314  1.1904  0.3140 -2.6269
  998MOL0     H34712   2.514   5.625   3.167 -0.0263 -0.3779  0.5893
  998MOL0     H34713   2.427   5.439   3.313  1.0225 -0.1347  2.8379
  998MOL0     H34714   2.280   5.216   3.543 -0.8513 -2.3250  1.2529
  998MOL0     H34715   2.264   4.992   3.602  0.4910  2.1910  1.0855
  998MOL0     H34716   2.999   4.936   4.089 -1.3305  0.1470  0.5251
  998MOL0     H34717   3.186   5.030   3.969  0.9147  1.8695 -0.3875
  998MOL0     H34718   3.436   5.394   3.898 -0.7040 -1.6204 -0.2280
  998MOL0     H34719   3.603   5.491   3.763 -1.4352  1.0839  3.8670
  998MOL0     H34720   3.798   5.464   3.515  0.6832 -0.4575 -0.2376
  998MOL0     H34721   3.781   5.550   3.685 -0.0543 -2.6150  3.5317
  998MOL0     H34722   4.023   5.467   3.518 -0.0332 -0.4525  1.0085
  998MOL0     H34723   4.037   5.542   3.680 -2.5550  3.6335  2.1416
  998MOL0     H34724   3.912   5.737   3.610  1.0024 -0.9843  1.8945
  998MOL0     H34725   3.920   5.669   3.438 -0.9774  1.0514  0.3488
  998MOL0     H34726   4.166   5.673   3.479 -0.6857 -1.3771 -0.2367
  998MOL0     H34727   4.142   5.758   3.632  1.5676 -2.1353  0.7178
  998MOL0     H34728   4.024   6.058   3.343  1.1288  0.4756 -0.8646
  998MOL0     H34729   3.849   5.132   3.810  0.3991  1.8158 -0.9707
  998MOL0     H34730   3.669   5.034   3.935 -0.0930  0.2985 -2.5525
  999MOL0     O34731   5.126   7.445   6.539  0.1325  0.2153  0.9745
  999MOL0     C34732   5.212   7.363   6.561 -0.8575  1.2990 -0.1832
  999MOL0     O34733   5.250   7.259   6.479  0.5480 -0.4623 -0.2219
  999MOL0     C34734   5.193   7.242   6.362  0.4474 -0.5097  0.2220
  999MOL0     C34735   5.213   7.334   6.252 -0.5149  0.9316  0.0921
  999MOL0     C34736   5.128   7.328   6.144 -0.3567 -0.1758  0.6607
  999MOL0     C34737   5.044   7.218   6.126 -0.1276  0.0010 -0.1494
  999MOL0     O34738   4.971   7.193   6.019  1.0362 -0.2457 -0.0225
  999MOL0     C34739   4.894   7.304   5.967 -0.8831  0.4265 -0.7374
  999MOL0     C34740   4.770   7.233   5.904 -0.3746 -0.7609 -0.9141
  999MOL0     C34741   4.633   7.275   5.970  0.0812  0.3598  0.2652
  999MOL0     C34742   4.509   7.240   5.897  0.7391  0.6224 -0.3971
  999MOL0     C34743   4.377   7.283   5.969  0.6420  0.1729  0.5855
  999MOL0     C34744   4.272   7.267   5.854 -0.2501 -0.1020  0.3189
  999MOL0     C34745   4.141   7.249   5.928  0.1041 -0.6580 -0.8667
  999MOL0     C34746   4.013   7.209   5.837  0.1868  0.6819 -0.4150
  999MOL0     N34747   4.001   7.308   5.734 -0.6240 -0.2343 -0.0385
  999MOL0     C34748   3.941   7.435   5.743 -0.2740 -0.5750  0.3706
  999MOL0     C34749   3.972   7.486   5.614  0.4644 -0.1140  0.2904
  999MOL0     C34750   3.937   7.625   5.565  0.0984 -1.0084  0.6161
  999MOL0     C34751   3.790   7.649   5.531  0.2522  0.2461  0.3081
  999MOL0     C34752   3.750   7.615   5.386 -0.5287 -0.0692 -0.3537
  999MOL0     C34753   3.780   7.472   5.352 -0.3123  1.0134  0.0923
  999MOL0     O34754   3.699   7.439   5.235  0.7425  0.0312  0.4720
  999MOL0     C34755   3.574   7.390   5.269  0.4866 -0.8320  0.3772
  999MOL0     C34756   3.558   7.254   5.264  0.1293  0.6565 -0.5805
  999MOL0     C34757   3.431   7.186   5.279  0.2033  0.1348  0.3586
  999MOL0     C34758   3.426   7.034   5.266 -0.3350  1.1515 -0.6310
  999MOL0     C34759   3.323   7.270   5.321  0.3460 -0.2323  0.2860
  999MOL0     C34760   3.185   7.215   5.347  0.8909  0.4342  0.4247
  999MOL0     O34761   3.174   7.087   5.356 -0.1514  0.2516  0.3032
  999MOL0     C34762   3.054   7.032   5.379 -0.6736 -0.6492 -0.3366
  999MOL0     C34763   2.952   7.080   5.469  0.3671 -0.1636 -0.6802
  999MOL0     C34764   2.830   7.005   5.489 -0.6163 -0.0536  0.4390
  999MOL0     C34765   2.812   6.893   5.412 -0.6773 -0.1195 -0.2437
  999MOL0     O34766   2.704   6.822   5.454 -0.3425  0.3070  0.5424
  999MOL0     C34767   2.666   6.703   5.379 -0.6548 -0.3208  0.6191
  999MOL0     C34768   2.534   6.654   5.417  0.4586 -0.1873 -0.1174
  999MOL0     C34769   2.427   6.756   5.366 -0.6986  0.3147  0.2257
  999MOL0     C34770   2.294   6.694   5.402  0.0006 -0.9472  0.5117
  999MOL0     C34771   2.184   6.779   5.330 -0.1412  0.8628  0.1124
  999MOL0     C34772   2.049   6.705   5.369  0.6245  0.8715 -0.4133
  999MOL0     C34773   2.041   6.577   5.298 -0.0201 -0.5581  0.0404
  999MOL0     C34774   1.890   6.550   5.274  0.4360  0.2028  1.3867
  999MOL0    Cl34775   1.853   6.389   5.198 -0.1291  0.4033 -0.4480
  999MOL0     C34776   2.903   6.854   5.313  1.0318 -0.3420 -0.5538
  999MOL0     C34777   3.026   6.924   5.308  0.4235  0.0316  0.2620
  999MOL0     O34778   3.093   7.294   5.355 -0.3186 -0.4048 -0.3134
  999MOL0     C34779   3.340   7.408   5.324  0.1221  0.1154 -0.0095
  999MOL0     C34780   3.461   7.469   5.307 -0.4350  0.6675 -0.2314
  999MOL0     N34781   4.040   7.392   5.531 -0.5179  1.1079 -0.6444
  999MOL0     N34782   4.062   7.291   5.614 -1.0045 -0.7525 -0.2817
  999MOL0     C34783   5.027   7.128   6.233 -0.7459 -0.5986  0.1576
  999MOL0     C34784   5.098   7.145   6.353  0.9414  0.2203  1.1579
  999MOL0     C34785   5.282   7.379   6.686 -0.6864 -1.3439  0.6937
  999MOL0     C34786   5.248   7.473   6.779 -0.6064  0.2173  0.4276
  999MOL0     C34787   5.298   7.482   6.912  0.1538 -1.0179  0.6536
  999MOL0     C34788   5.408   7.414   6.945  0.4285  0.2375 -0.0355
  999MOL0     O34789   5.455   7.452   7.067 -0.5082  1.2405 -0.5601
  999MOL0     C34790   5.594   7.436   7.094 -0.4238 -1.0662 -0.0969
  999MOL0     C34791   5.667   7.556   7.025  0.2770  0.1837  0.0034
  999MOL0     C34792   5.795   7.604   7.099 -0.0493 -0.1480 -0.2998
  999MOL0     C34793   5.894   7.492   7.107  0.2682 -0.6338  0.7486
  999MOL0     C34794   6.008   7.560   7.155  0.1783 -0.2432 -0.7129
  999MOL0     C34795   6.112   7.581   7.201 -0.2894 -0.1528  0.4654
  999MOL0     C34796   5.458   7.311   6.857  0.3126  0.9825  0.5795
  999MOL0     C34797   5.401   7.301   6.722 -1.0576 -0.1018 -0.3138
  999MOL0     H34798   5.302   7.397   6.256 -0.0887  0.3749 -0.4449
  999MOL0     H34799   5.146   7.407   6.071 -1.1440  1.2647  1.9593
  999MOL0     H34800   4.869   7.380   6.041  1.3441 -0.3180  0.8877
  999MOL0     H34801   4.958   7.345   5.888  0.4836 -3.0855 -1.6395
  999MOL0     H34802   4.771   7.250   5.796 -0.4499 -5.2167 -1.8437
  999MOL0     H34803   4.775   7.124   5.914 -1.4606 -0.8095 -0.8521
  999MOL0     H34804   4.636   7.241   6.074  2.3809  2.8922  1.1558
  999MOL0     H34805   4.640   7.384   5.981  1.6999  0.9582 -4.4863
  999MOL0     H34806   4.514   7.282   5.796 -0.1780 -1.4113 -1.3520
  999MOL0     H34807   4.512   7.131   5.886 -2.9636  0.6273 -3.7242
  999MOL0     H34808   4.355   7.226   6.060 -1.8096  1.4002  0.8521
  999MOL0     H34809   4.369   7.389   5.996 -1.9521 -0.1305  1.2854
  999MOL0     H34810   4.264   7.357   5.792 -2.2684 -1.6292 -1.8422
  999MOL0     H34811   4.293   7.179   5.792 -0.3749  0.7023 -0.9118
  999MOL0     H34812   4.140   7.171   6.005 -0.0209  0.7501  0.6099
  999MOL0     H34813   4.132   7.342   5.985  2.6978 -0.3336 -0.8245
  999MOL0     H34814   3.920   7.200   5.894  1.0389 -3.4200  0.6091
  999MOL0     H34815   4.029   7.105   5.809 -2.5570 -0.3629  1.4987
  999MOL0     H34816   3.880   7.474   5.824 -0.3699  0.0852 -0.0155
  999MOL0     H34817   3.971   7.701   5.636 -0.0849 -0.0607 -0.2854
  999MOL0     H34818   3.999   7.628   5.476  0.2689 -1.3370  0.7204
  999MOL0     H34819   3.769   7.756   5.540 -0.0851  0.0265  2.8845
  999MOL0     H34820   3.727   7.596   5.604 -1.8800  1.8039 -0.2928
  999MOL0     H34821   3.805   7.666   5.307  0.0712 -0.4594 -0.2020
  999MOL0     H34822   3.645   7.643   5.376 -0.5544  0.1391  0.4103
  999MOL0     H34823   3.765   7.397   5.431  0.5822 -2.6007 -2.9245
  999MOL0     H34824   3.886   7.466   5.327  0.2566  3.9812  1.3316
  999MOL0     H34825   3.630   7.190   5.216 -0.9763 -0.3103 -0.9788
  999MOL0     H34826   3.517   7.001   5.215 -1.0280  1.5723 -2.2286
  999MOL0     H34827   3.419   6.984   5.362 -0.7484 -0.4337 -1.4480
  999MOL0     H34828   3.341   7.002   5.205  1.0411  0.9480 -2.5624
  999MOL0     H34829   2.983   7.167   5.525  1.3821  1.0638 -3.0063
  999MOL0     H34830   2.758   7.042   5.562 -1.2715 -0.8402  0.2137
  999MOL0     H34831   2.673   6.724   5.272 -0.1933 -0.4474  0.6226
  999MOL0     H34832   2.739   6.623   5.393  1.1886  1.0578 -0.5904
  999MOL0     H34833   2.520   6.552   5.380  0.8419  0.0929 -1.0745
  999MOL0     H34834   2.526   6.642   5.526  0.8600  0.5109 -0.0064
  999MOL0     H34835   2.429   6.771   5.258  0.3258 -0.9142  0.0436
  999MOL0     H34836   2.450   6.854   5.410 -1.7077 -0.2790  2.2079
  999MOL0     H34837   2.289   6.591   5.365 -0.4751 -1.2342  1.3412
  999MOL0     H34838   2.282   6.697   5.511 -0.0582 -1.5459  0.5271
  999MOL0     H34839   2.196   6.775   5.221 -1.2941 -1.4133  0.0026
  999MOL0     H34840   2.185   6.877   5.377  0.7375  0.6671  0.5193
  999MOL0     H34841   2.044   6.678   5.475  0.9536 -0.7669 -0.7964
  999MOL0     H34842   1.964   6.772   5.356  2.7470  3.9022  0.2497
  999MOL0     H34843   2.082   6.503   5.368  1.4961  0.6167  0.4409
  999MOL0     H34844   2.103   6.571   5.207  0.4839  2.2886  0.1120
  999MOL0     H34845   1.832   6.620   5.214  0.3371 -2.1658 -1.5069
  999MOL0     H34846   1.846   6.543   5.374  0.3643 -0.1825  1.3269
  999MOL0     H34847   2.883   6.770   5.247 -1.0547  1.6209 -2.5835
  999MOL0     H34848   3.100   6.871   5.249 -0.2125 -1.9496  1.1517
  999MOL0     H34849   3.251   7.468   5.336  0.5256  0.7022  0.1012
  999MOL0     H34850   3.456   7.578   5.315 -3.7163  0.6175 -0.3625
  999MOL0     H34851   4.961   7.043   6.219 -1.6940  0.0339  0.6642
  999MOL0     H34852   5.071   7.081   6.437 -1.2403  0.9554  1.0594
  999MOL0     H34853   5.166   7.541   6.757 -1.3135 -0.3832  1.1288
  999MOL0     H34854   5.262   7.552   6.987 -0.5718 -0.3084 -0.3347
  999MOL0     H34855   5.608   7.442   7.202 -4.6804  1.4758  0.5084
  999MOL0     H34856   5.628   7.335   7.069  0.3680 -0.3232 -2.2268
  999MOL0     H34857   5.603   7.644   7.016  1.8874  1.4225  0.4036
  999MOL0     H34858   5.704   7.525   6.927  3.2282 -2.5252  1.7508
  999MOL0     H34859   5.766   7.626   7.202  0.7407  3.6399 -0.7658
  999MOL0     H34860   5.827   7.694   7.047 -0.1685  0.7310  1.1165
  999MOL0     H34861   5.898   7.455   7.004 -3.1894 -0.6626  0.4792
  999MOL0     H34862   5.850   7.416   7.172  0.2796  0.0392  1.5705
  999MOL0     H34863   6.218   7.591   7.220 -0.5234 -0.0154  1.8410
  999MOL0     H34864   5.541   7.254   6.896 -0.9927  0.8612  3.4375
  999MOL0     H34865   5.449   7.229   6.657  0.1941  1.6533 -1.4429
 1000MOL0     O34866   4.597   1.421  10.789 -0.3248 -0.6732 -0.1741
 1000MOL0     C34867   4.507   1.341  10.793 -0.1172 -0.9854 -0.4305
 1000MOL0     O34868   4.504   1.209  10.761 -0.3514 -0.0624 -1.0191
 1000MOL0     C34869   4.623   1.142  10.734 -0.0841 -0.1055 -0.4966
 1000MOL0     C34870   4.748   1.197  10.674 -0.4631  0.2651 -0.5143
 1000MOL0     C34871   4.861   1.117  10.655  0.7186  0.9230 -0.4637
 1000MOL0     C34872   4.858   0.975  10.691 -0.2831 -1.0059  0.8446
 1000MOL0     O34873   4.971   0.905  10.661 -0.2258  0.3169  0.3261
 1000MOL0     C34874   4.982   0.765  10.690 -0.5669 -0.4687 -0.1878
 1000MOL0     C34875   5.110   0.702  10.638 -0.6118 -0.9637 -0.2213
 1000MOL0     C34876   5.240   0.758  10.717  0.0833 -0.5757  0.6764
 1000MOL0     C34877   5.372   0.714  10.659  0.8144 -0.2112 -0.0162
 1000MOL0     C34878   5.488   0.797  10.714  0.4399 -0.3100  0.0792
 1000MOL0     C34879   5.624   0.755  10.649  0.4695  0.0208 -0.9854
 1000MOL0     C34880   5.728   0.856  10.686 -0.3604 -0.5580  1.0017
 1000MOL0     C34881   5.845   0.827  10.593 -0.2617 -0.6622 -0.2825
 1000MOL0     N34882   5.975   0.874  10.640 -0.9677  0.7563  0.0114
 1000MOL0     C34883   6.075   0.797  10.704  0.6718 -0.3148 -0.4791
 1000MOL0     C34884   6.154   0.899  10.762 -0.5969  1.0162  0.1630
 1000MOL0     C34885   6.275   0.883  10.852  0.2090 -0.5285  0.4527
 1000MOL0     C34886   6.277   0.966  10.979  0.4554 -0.0168 -0.1896
 1000MOL0     C34887   6.175   0.918  11.091 -0.9252  0.1098 -0.3926
 1000MOL0     C34888   6.030   0.918  11.069  0.9219  0.0570 -0.5162
 1000MOL0     O34889   5.962   0.886  11.191 -0.4385 -0.1384 -0.3000
 1000MOL0     C34890   5.843   0.817  11.180  0.5493 -0.0010  0.0419
 1000MOL0     C34891   5.829   0.683  11.226 -0.5415 -0.2540 -0.5194
 1000MOL0     C34892   5.703   0.625  11.250  0.9494  0.2562  0.5616
 1000MOL0     C34893   5.705   0.486  11.300 -0.2795 -0.9331  0.1386
 1000MOL0     C34894   5.585   0.695  11.211  0.8422 -0.4660  0.4291
 1000MOL0     C34895   5.444   0.637  11.224 -0.0750  0.2019  0.1616
 1000MOL0     O34896   5.346   0.738  11.204  0.6925  0.2396 -0.5936
 1000MOL0     C34897   5.210   0.691  11.208  0.4568 -1.2591  0.3961
 1000MOL0     C34898   5.129   0.731  11.101  0.1518  0.3592  0.5673
 1000MOL0     C34899   4.990   0.712  11.103  0.5291 -0.0998 -0.8541
 1000MOL0     C34900   4.929   0.642  11.210 -0.7563 -0.7308 -0.0459
 1000MOL0     O34901   4.793   0.635  11.193 -0.3394 -0.8570 -0.2710
 1000MOL0     C34902   4.709   0.581  11.289 -0.0263 -0.6539 -1.2614
 1000MOL0     C34903   4.719   0.430  11.296  0.9484 -0.5601 -1.3688
 1000MOL0     C34904   4.677   0.352  11.174  0.3894  0.6401 -1.3379
 1000MOL0     C34905   4.608   0.211  11.207  0.1684 -0.3226  0.4008
 1000MOL0     C34906   4.544   0.144  11.091 -0.0800  0.8549 -0.1915
 1000MOL0     C34907   4.447   0.233  11.010  0.7725 -0.3102  0.1782
 1000MOL0     C34908   4.330   0.156  10.944 -0.0174 -1.0471 -0.4498
 1000MOL0     C34909   4.380   0.058  10.849 -0.2674 -0.2244  0.2114
 1000MOL0    Cl34910   4.235  -0.039  10.796  0.5217 -0.0375  0.3030
 1000MOL0     C34911   5.004   0.608  11.318 -0.2758 -0.5057  0.0272
 1000MOL0     C34912   5.149   0.625  11.320 -0.1996 -0.5046  0.0730
 1000MOL0     O34913   5.418   0.518  11.243 -0.1772  0.0947  0.7894
 1000MOL0     C34914   5.601   0.813  11.138 -0.7897 -0.8169 -1.0582
 1000MOL0     C34915   5.723   0.878  11.128 -0.0116  0.1848  0.5902
 1000MOL0     N34916   6.106   1.023  10.735 -0.4592 -0.6259  0.1625
 1000MOL0     N34917   6.012   1.007  10.649 -0.2215  0.6258  0.8065
 1000MOL0     C34918   4.741   0.924  10.752 -0.4486  0.0179 -0.3959
 1000MOL0     C34919   4.626   1.005  10.770 -0.9151 -0.4084  1.5287
 1000MOL0     C34920   4.374   1.395  10.832 -0.6862  0.2913  1.3769
 1000MOL0     C34921   4.348   1.517  10.890 -0.1855 -0.9183  0.4203
 1000MOL0     C34922   4.224   1.568  10.925  1.0120 -0.3655  1.0945
 1000MOL0     C34923   4.110   1.479  10.893 -0.7031  0.9677 -0.6331
 1000MOL0     O34924   3.979   1.510  10.922  0.3081 -0.2514  0.0562
 1000MOL0     C34925   3.954   1.627  10.997  0.3595 -0.4528  0.3630
 1000MOL0     C34926   3.812   1.622  11.065 -0.6325 -0.3382  0.1229
 1000MOL0     C34927   3.699   1.624  10.967 -0.4208  0.5917 -0.6241
 1000MOL0     C34928   3.575   1.568  11.050 -0.1383 -0.4364  0.3720
 1000MOL0     C34929   3.451   1.629  11.010  0.1674 -0.5511 -0.3318
 1000MOL0     C34930   3.351   1.696  10.985 -0.9289  0.0867 -0.2483
 1000MOL0     C34931   4.133   1.353  10.829 -0.1580  0.4500  1.0101
 1000MOL0     C34932   4.267   1.309  10.802  0.8328  0.6898  0.0226
 1000MOL0     H34933   4.734   1.299  10.639 -0.7004 -0.3243 -2.2505
 1000MOL0     H34934   4.953   1.147  10.605  0.6718  0.9950 -0.5048
 1000MOL0     H34935   4.988   0.748  10.798 -3.0001  4.4127  1.0160
 1000MOL0     H34936   4.908   0.715  10.627  0.7438 -1.9802 -0.5828
 1000MOL0     H34937   5.112   0.593  10.647  0.3756 -0.8210  1.8765
 1000MOL0     H34938   5.115   0.723  10.531  0.7625  0.4123  0.0674
 1000MOL0     H34939   5.224   0.865  10.731 -3.8021 -0.9807  0.5889
 1000MOL0     H34940   5.239   0.713  10.817  1.1176 -1.7558  0.1886
 1000MOL0     H34941   5.387   0.608  10.683 -2.9660 -0.3889  2.3907
 1000MOL0     H34942   5.362   0.723  10.550  0.3394 -1.9090 -0.1391
 1000MOL0     H34943   5.464   0.902  10.695 -1.1819 -0.3480  1.6109
 1000MOL0     H34944   5.498   0.779  10.822  3.0079 -0.5592 -0.1460
 1000MOL0     H34945   5.660   0.654  10.672  2.8207  0.1851 -3.4419
 1000MOL0     H34946   5.600   0.758  10.542 -1.5037 -0.8711 -0.6164
 1000MOL0     H34947   5.693   0.960  10.682  2.7935  0.7982  3.7120
 1000MOL0     H34948   5.767   0.851  10.788  0.8243  3.5798  0.9427
 1000MOL0     H34949   5.833   0.871  10.493  2.7973  0.7339 -0.1541
 1000MOL0     H34950   5.848   0.723  10.559  2.2104 -0.4236 -1.0127
 1000MOL0     H34951   6.091   0.689  10.711  2.2464 -0.0698  0.1858
 1000MOL0     H34952   6.275   0.777  10.877  1.7252 -1.0561 -1.5337
 1000MOL0     H34953   6.364   0.907  10.793  1.7421 -0.9565  2.4828
 1000MOL0     H34954   6.244   1.068  10.960 -3.0391 -0.9868 -0.0226
 1000MOL0     H34955   6.378   0.978  11.018  1.0927 -2.1064 -1.0461
 1000MOL0     H34956   6.185   0.987  11.176  1.1482  1.9295 -1.9738
 1000MOL0     H34957   6.204   0.819  11.127 -0.3585  1.5812  3.7195
 1000MOL0     H34958   6.016   0.847  10.988  1.2356  1.8928 -2.2637
 1000MOL0     H34959   6.004   1.020  11.039  1.9044  0.9594  1.5032
 1000MOL0     H34960   5.919   0.632  11.259  0.8774  2.2537 -0.2210
 1000MOL0     H34961   5.637   0.465  11.383  0.7167 -0.4412  1.1068
 1000MOL0     H34962   5.677   0.411  11.225 -2.4439  0.1000 -0.1813
 1000MOL0     H34963   5.800   0.455  11.343 -0.0844  1.4736  1.6217
 1000MOL0     H34964   5.170   0.784  11.015 -1.0355 -0.3906 -0.4960
 1000MOL0     H34965   4.909   0.736  11.035 -1.1373  0.4924  1.2255
 1000MOL0     H34966   4.735   0.627  11.385  0.9460  2.1026 -2.7220
 1000MOL0     H34967   4.606   0.611  11.267 -0.9207 -4.3741 -2.7767
 1000MOL0     H34968   4.822   0.407  11.323  0.0724 -2.7675  0.4094
 1000MOL0     H34969   4.656   0.393  11.378 -1.6857 -0.6203 -3.2856
 1000MOL0     H34970   4.769   0.319  11.124 -0.8582 -0.1307 -3.2004
 1000MOL0     H34971   4.609   0.412  11.112  0.1486 -0.3419 -2.0464
 1000MOL0     H34972   4.678   0.136  11.244  3.2836  1.1775 -1.9276
 1000MOL0     H34973   4.523   0.222  11.276 -0.0163  0.3080  0.0853
 1000MOL0     H34974   4.492   0.056  11.129  3.6459 -0.9806  1.1309
 1000MOL0     H34975   4.627   0.125  11.022 -1.5791 -2.4973 -1.2705
 1000MOL0     H34976   4.397   0.299  11.081 -1.8280 -1.6845 -0.2137
 1000MOL0     H34977   4.495   0.296  10.935  0.4051  0.7593  0.8181
 1000MOL0     H34978   4.249   0.219  10.905 -1.5615 -0.6825  2.9757
 1000MOL0     H34979   4.269   0.106  11.020 -0.3722  0.1756  0.0799
 1000MOL0     H34980   4.461  -0.007  10.883  0.7379 -0.3054 -2.1526
 1000MOL0     H34981   4.427   0.123  10.774 -0.9881  2.8682  2.2329
 1000MOL0     H34982   4.957   0.571  11.408  2.5071 -3.1233  0.5781
 1000MOL0     H34983   5.206   0.599  11.408  0.5141 -0.9129 -0.5055
 1000MOL0     H34984   5.527   0.864  11.077 -2.7316 -0.8809  1.1209
 1000MOL0     H34985   5.717   0.981  11.094 -1.5904 -0.0466  0.1128
 1000MOL0     H34986   4.739   0.817  10.768  1.5599  0.3095  2.5617
 1000MOL0     H34987   4.541   0.956  10.816 -2.5074 -0.4169 -1.2136
 1000MOL0     H34988   4.437   1.576  10.911  0.7188 -2.4954  1.2020
 1000MOL0     H34989   4.223   1.669  10.964 -1.8991 -0.5902  1.8651
 1000MOL0     H34990   4.031   1.642  11.073  0.4023  1.5909 -0.0203
 1000MOL0     H34991   3.967   1.705  10.921  0.8311 -1.5221 -0.6859
 1000MOL0     H34992   3.810   1.712  11.126  3.3736  1.1440 -1.5405
 1000MOL0     H34993   3.825   1.533  11.127  1.6224  0.3286  0.7214
 1000MOL0     H34994   3.725   1.556  10.885 -2.7413 -3.1124  1.4406
 1000MOL0     H34995   3.685   1.730  10.946  3.2715  1.6129  1.2657
 1000MOL0     H34996   3.589   1.609  11.150  0.2619  1.8978 -0.5814
 1000MOL0     H34997   3.572   1.459  11.044 -1.8638 -0.3903 -0.0960
 1000MOL0     H34998   3.264   1.753  10.961 -0.3691  0.9959 -0.1877
 1000MOL0     H34999   4.046   1.293  10.804 -0.2370  2.0088 -3.4441
 1000MOL0     H35000   4.285   1.212  10.758  1.7760  2.7150 -4.7121
 1001MOL0     O35001   1.633   7.277   0.733  0.0737  0.4800  0.3944
 1001MOL0     C35002   1.711   7.272   0.822 -0.6073 -0.7322 -0.6093
 1001MOL0     O35003   1.694   7.341   0.937  0.2844 -0.3364  0.3512
 1001MOL0     C35004   1.577   7.409   0.957  0.1593  0.2256 -0.2601
 1001MOL0     C35005   1.447   7.350   0.950 -0.7009 -0.4472 -0.3013
 1001MOL0     C35006   1.330   7.435   0.957  0.8562  0.2682  0.7893
 1001MOL0     C35007   1.350   7.570   0.994 -0.4885 -0.5594  0.2041
 1001MOL0     O35008   1.245   7.661   0.995 -0.5565  0.1868 -0.4672
 1001MOL0     C35009   1.195   7.664   1.126  0.5205 -0.8934 -0.5690
 1001MOL0     C35010   1.066   7.762   1.117 -0.2157  0.5005  0.8510
 1001MOL0     C35011   1.043   7.825   1.255 -0.5188 -0.1535  0.1933
 1001MOL0     C35012   0.923   7.919   1.269 -0.5934 -0.2327 -0.4173
 1001MOL0     C35013   0.901   7.979   1.404 -0.2491 -0.5261 -0.6908
 1001MOL0     C35014   0.753   8.034   1.414 -0.1428 -0.6070  0.0931
 1001MOL0     C35015   0.725   8.120   1.545 -0.0332 -0.6683  0.2617
 1001MOL0     C35016   0.585   8.182   1.553 -0.3118 -0.0557  0.8954
 1001MOL0     N35017   0.482   8.079   1.561 -0.3053 -0.2226  0.6715
 1001MOL0     C35018   0.456   7.994   1.667  0.2855 -0.1527 -0.3763
 1001MOL0     C35019   0.348   7.922   1.629  0.5897 -0.1738  0.9218
 1001MOL0     C35020   0.270   7.815   1.687  0.7026  0.1991 -0.3095
 1001MOL0     C35021   0.348   7.678   1.666 -0.1355  0.1509  0.2708
 1001MOL0     C35022   0.321   7.610   1.524 -0.6700 -1.0484  0.1728
 1001MOL0     C35023   0.407   7.499   1.479 -0.5913 -0.2511 -0.1681
 1001MOL0     O35024   0.542   7.553   1.469 -0.5670 -0.0432 -0.7116
 1001MOL0     C35025   0.653   7.474   1.448 -0.3393  0.9352  0.1390
 1001MOL0     C35026   0.781   7.513   1.492  1.0938 -1.3102  0.4220
 1001MOL0     C35027   0.897   7.434   1.494 -0.1608  0.2134 -0.6641
 1001MOL0     C35028   1.021   7.505   1.535 -0.1486  0.6373  0.6973
 1001MOL0     C35029   0.890   7.302   1.449  0.1698  0.4502  0.5670
 1001MOL0     C35030   1.006   7.222   1.437 -1.0040 -0.8983  0.8112
 1001MOL0     O35031   1.121   7.280   1.382 -0.6236  0.4540 -0.2589
 1001MOL0     C35032   1.226   7.194   1.348 -0.3773  1.0857 -0.2651
 1001MOL0     C35033   1.295   7.124   1.446  0.5305  0.4759 -0.3940
 1001MOL0     C35034   1.403   7.044   1.412 -0.3932  0.5682  0.8935
 1001MOL0     C35035   1.448   7.038   1.276  0.4908  0.3942  0.0923
 1001MOL0     O35036   1.568   6.965   1.258 -0.1969 -0.9616 -0.1906
 1001MOL0     C35037   1.616   6.957   1.125  0.3735  0.1015  0.6037
 1001MOL0     C35038   1.689   6.827   1.113  0.0234 -0.5261  0.5687
 1001MOL0     C35039   1.771   6.824   0.986 -0.1857  0.3221  0.1745
 1001MOL0     C35040   1.857   6.703   0.997 -0.9780 -0.4663  0.8839
 1001MOL0     C35041   1.944   6.682   0.873 -0.5351  0.0009 -0.1408
 1001MOL0     C35042   1.862   6.648   0.749  0.7960 -0.1024 -0.2393
 1001MOL0     C35043   1.939   6.652   0.619 -1.1196 -0.0524  0.4396
 1001MOL0     C35044   2.034   6.539   0.624 -0.4549  0.6904 -0.6663
 1001MOL0    Cl35045   2.044   6.471   0.457  0.0346  0.3498  0.3022
 1001MOL0     C35046   1.371   7.095   1.177  0.3390  0.5391 -0.2315
 1001MOL0     C35047   1.258   7.169   1.216 -0.4225 -0.1693  0.8721
 1001MOL0     O35048   0.993   7.109   1.460  0.9512  0.2635  0.1516
 1001MOL0     C35049   0.765   7.254   1.404  1.2454  0.2201 -0.9815
 1001MOL0     C35050   0.652   7.342   1.412 -0.3906 -0.2023 -0.3580
 1001MOL0     N35051   0.322   7.961   1.497 -0.6113  0.6229  0.0197
 1001MOL0     N35052   0.400   8.053   1.459 -0.5111 -0.7821 -0.6596
 1001MOL0     C35053   1.477   7.621   1.009 -0.8635 -0.6614  0.4816
 1001MOL0     C35054   1.586   7.542   0.988 -0.6892 -0.5121  0.1311
 1001MOL0     C35055   1.837   7.200   0.802  0.4605  0.8486 -1.1137
 1001MOL0     C35056   1.948   7.215   0.891  1.1510  0.2807 -0.1426
 1001MOL0     C35057   2.075   7.145   0.889 -0.1054 -0.3720  0.4040
 1001MOL0     C35058   2.091   7.053   0.784 -0.2633 -0.5382 -0.5920
 1001MOL0     O35059   2.218   7.008   0.785 -0.0007 -0.3665  0.4801
 1001MOL0     C35060   2.252   6.902   0.690  0.6532  0.0040  0.0355
 1001MOL0     C35061   2.385   6.839   0.731 -0.0092 -0.1810  0.5113
 1001MOL0     C35062   2.426   6.726   0.640  0.1843  0.1746 -0.2767
 1001MOL0     C35063   2.524   6.642   0.715 -0.3653  0.5690  0.3708
 1001MOL0     C35064   2.458   6.540   0.806 -0.2147 -0.6773  0.7860
 1001MOL0     C35065   2.407   6.453   0.876  0.2244 -0.1865 -0.0505
 1001MOL0     C35066   1.981   7.023   0.699  0.9090 -0.3137 -0.6293
 1001MOL0     C35067   1.855   7.083   0.714  0.4539 -1.0494 -0.1295
 1001MOL0     H35068   1.439   7.245   0.925  0.2906 -0.1319 -2.1305
 1001MOL0     H35069   1.231   7.393   0.945  1.3109  0.0566 -3.4984
 1001MOL0     H35070   1.153   7.566   1.152 -2.9666  0.6051 -0.0394
 1001MOL0     H35071   1.265   7.697   1.203  0.9638  0.3949 -1.4839
 1001MOL0     H35072   1.070   7.839   1.039 -3.8669  0.4707  0.4402
 1001MOL0     H35073   0.978   7.701   1.096  0.3026 -0.3162  1.0158
 1001MOL0     H35074   1.038   7.746   1.331  2.2938  0.3439  1.0195
 1001MOL0     H35075   1.126   7.893   1.275 -1.0802  0.7588 -0.5135
 1001MOL0     H35076   0.938   7.994   1.191  1.5361  0.2132  0.3686
 1001MOL0     H35077   0.826   7.871   1.254 -1.6652  0.2914  3.5948
 1001MOL0     H35078   0.913   7.913   1.490  1.4123 -2.0458 -2.0232
 1001MOL0     H35079   0.974   8.056   1.430  0.0195 -1.4129  1.3880
 1001MOL0     H35080   0.731   8.103   1.332  0.6967  0.2868  0.5970
 1001MOL0     H35081   0.678   7.955   1.409 -0.1502 -1.0453  3.9489
 1001MOL0     H35082   0.745   8.061   1.635  1.8321  1.5043  1.3760
 1001MOL0     H35083   0.793   8.205   1.552 -1.5234  1.1264 -3.9723
 1001MOL0     H35084   0.554   8.227   1.458 -2.5899 -2.5976  0.3142
 1001MOL0     H35085   0.582   8.259   1.631  1.6930  0.6251  0.3629
 1001MOL0     H35086   0.501   7.987   1.766  0.4224 -1.7517 -0.5193
 1001MOL0     H35087   0.270   7.843   1.793 -1.2222 -0.4049 -0.0957
 1001MOL0     H35088   0.169   7.809   1.644  0.3929  0.1592  0.4035
 1001MOL0     H35089   0.318   7.601   1.738  1.2346 -0.0754  0.6274
 1001MOL0     H35090   0.456   7.695   1.668 -0.0205  0.4429 -3.0835
 1001MOL0     H35091   0.329   7.688   1.448 -0.7827 -0.2899  0.9235
 1001MOL0     H35092   0.216   7.578   1.525 -0.6658 -1.2116  2.4814
 1001MOL0     H35093   0.374   7.463   1.381 -0.3677  2.2669 -1.2465
 1001MOL0     H35094   0.417   7.413   1.546  3.3041  1.2465  1.4740
 1001MOL0     H35095   0.784   7.614   1.529 -1.4614 -0.9833 -0.1221
 1001MOL0     H35096   1.092   7.489   1.454 -1.1236  0.7786 -0.2026
 1001MOL0     H35097   1.004   7.613   1.533  1.2535  0.8676  0.1392
 1001MOL0     H35098   1.059   7.471   1.632 -1.3555 -0.4930  0.7933
 1001MOL0     H35099   1.268   7.129   1.551  2.2441  0.2881  0.0875
 1001MOL0     H35100   1.451   6.989   1.491  2.8920  0.9033 -0.6778
 1001MOL0     H35101   1.537   6.953   1.050  0.1123 -3.8449  0.9141
 1001MOL0     H35102   1.684   7.039   1.101 -1.7529  1.4574 -1.0667
 1001MOL0     H35103   1.759   6.813   1.195  0.6753  2.6666  0.6833
 1001MOL0     H35104   1.612   6.750   1.113 -1.9534  1.2485 -1.7940
 1001MOL0     H35105   1.827   6.917   0.972 -1.0157  0.5811 -1.6299
 1001MOL0     H35106   1.698   6.810   0.906  1.3590  3.2620 -1.9459
 1001MOL0     H35107   1.922   6.711   1.085 -0.1055  0.0233  0.2110
 1001MOL0     H35108   1.801   6.611   1.014  1.0660 -2.2545 -1.3419
 1001MOL0     H35109   2.003   6.600   0.915 -0.0338  0.4762  0.1028
 1001MOL0     H35110   2.016   6.765   0.860 -0.5066  0.1554  0.9181
 1001MOL0     H35111   1.818   6.548   0.754  1.4839 -0.4292 -0.5916
 1001MOL0     H35112   1.777   6.716   0.748  1.5265  1.2916  4.9406
 1001MOL0     H35113   1.976   6.750   0.589  0.8963 -0.8073  0.2507
 1001MOL0     H35114   1.865   6.620   0.544 -2.7491 -2.0314  2.7478
 1001MOL0     H35115   1.999   6.467   0.698  0.9260  1.3046  0.6352
 1001MOL0     H35116   2.131   6.583   0.650 -0.4523 -0.5716  1.7014
 1001MOL0     H35117   1.402   7.096   1.073 -2.3093 -0.8344 -1.1309
 1001MOL0     H35118   1.195   7.217   1.141 -1.0778  4.0889  3.8123
 1001MOL0     H35119   0.747   7.153   1.367 -2.3717  1.1022 -2.0348
 1001MOL0     H35120   0.554   7.306   1.381 -0.1396 -1.7330  0.5023
 1001MOL0     H35121   1.497   7.726   1.027  0.5809 -0.6880 -0.7185
 1001MOL0     H35122   1.688   7.579   0.990 -0.9128  0.0848  1.1764
 1001MOL0     H35123   1.939   7.285   0.973 -2.2299  1.9924 -1.7460
 1001MOL0     H35124   2.156   7.177   0.956  0.6441  2.1794 -1.5498
 1001MOL0     H35125   2.178   6.823   0.674 -1.0766  1.8406 -1.4549
 1001MOL0     H35126   2.264   6.944   0.590 -1.9126  1.0086  0.0726
 1001MOL0     H35127   2.366   6.799   0.831  1.9786  0.6019  1.2441
 1001MOL0     H35128   2.455   6.922   0.731  2.2596 -1.9555 -0.9208
 1001MOL0     H35129   2.458   6.758   0.541 -1.7963 -0.2187 -1.0745
 1001MOL0     H35130   2.337   6.664   0.625  2.4173 -3.4473  0.1139
 1001MOL0     H35131   2.594   6.706   0.769  1.4322 -1.0568  0.0493
 1001MOL0     H35132   2.581   6.581   0.645 -2.0061 -0.7671  0.1570
 1001MOL0     H35133   2.367   6.376   0.939  0.9251  0.3314  1.0389
 1001MOL0     H35134   1.981   6.937   0.632  2.9092  0.5788 -1.8691
 1001MOL0     H35135   1.775   7.049   0.650 -1.2567 -2.3676  2.5223
 1002MOL0     O35136   2.195  10.482   0.621 -0.3481 -0.5504 -1.1249
 1002MOL0     C35137   2.290  10.397   0.616  0.4909 -1.0273  0.2093
 1002MOL0     O35138   2.278  10.262   0.637  0.2288  0.1803 -0.9590
 1002MOL0     C35139   2.155  10.200   0.662 -0.7625 -0.0458  0.7061
 1002MOL0     C35140   2.039  10.227   0.591  0.2541 -0.7313  0.1614
 1002MOL0     C35141   1.915  10.173   0.620 -1.4046 -0.6083  0.5447
 1002MOL0     C35142   1.915  10.086   0.731 -0.7126  0.0477 -0.4742
 1002MOL0     O35143   1.796  10.037   0.780 -0.1252 -0.8281  0.4189
 1002MOL0     C35144   1.700  10.027   0.673  0.0962  0.1274  0.2341
 1002MOL0     C35145   1.585   9.933   0.699 -0.4036  0.0532 -0.0583
 1002MOL0     C35146   1.638   9.798   0.748  0.2922 -0.3065  1.1245
 1002MOL0     C35147   1.527   9.696   0.777 -0.2529  0.8231  0.2903
 1002MOL0     C35148   1.594   9.557   0.805  0.1974  0.7015 -0.1818
 1002MOL0     C35149   1.502   9.437   0.801  0.8775 -0.5222 -0.2737
 1002MOL0     C35150   1.399   9.444   0.915 -0.2288 -0.7947  0.5764
 1002MOL0     C35151   1.467   9.404   1.037  0.1517  0.1026  0.2747
 1002MOL0     N35152   1.516   9.268   1.036  0.2446  0.4030  0.7224
 1002MOL0     C35153   1.649   9.243   1.033 -0.1730 -0.6757 -0.0264
 1002MOL0     C35154   1.653   9.109   1.029 -0.4076  0.2483  0.7069
 1002MOL0     C35155   1.789   9.042   1.021  0.5355  0.3184  0.7248
 1002MOL0     C35156   1.879   9.064   1.145  0.7728  0.1692  0.5031
 1002MOL0     C35157   1.808   9.030   1.274  0.0486 -0.2433  0.6136
 1002MOL0     C35158   1.895   9.051   1.405  0.0143 -0.4086  0.5677
 1002MOL0     O35159   1.921   9.195   1.425 -0.3736 -0.2975 -0.1160
 1002MOL0     C35160   2.045   9.224   1.485 -0.5797  0.1009  0.9909
 1002MOL0     C35161   2.053   9.227   1.627 -0.5844 -0.3175  0.2072
 1002MOL0     C35162   2.172   9.254   1.689  0.6012  0.5340 -0.1006
 1002MOL0     C35163   2.176   9.280   1.839  0.4853  1.1745 -1.1220
 1002MOL0     C35164   2.287   9.275   1.605 -0.2443  0.0519 -0.0987
 1002MOL0     C35165   2.419   9.300   1.656 -0.3478 -0.1146  0.0300
 1002MOL0     O35166   2.428   9.366   1.776 -0.4048  0.4550 -0.2275
 1002MOL0     C35167   2.551   9.407   1.820 -0.8946  0.3550 -0.3956
 1002MOL0     C35168   2.642   9.478   1.734  0.4948 -0.5914  0.2456
 1002MOL0     C35169   2.763   9.535   1.771 -0.1937 -0.6667 -0.0431
 1002MOL0     C35170   2.789   9.520   1.913 -0.2534 -0.7023 -0.5213
 1002MOL0     O35171   2.908   9.547   1.974  0.1238 -0.4341 -0.3947
 1002MOL0     C35172   2.978   9.668   1.930  0.1161 -0.0653  0.4394
 1002MOL0     C35173   3.106   9.683   2.010 -0.0618  0.2165  0.3575
 1002MOL0     C35174   3.212   9.756   1.932 -0.4234  0.0170 -0.2470
 1002MOL0     C35175   3.328   9.807   2.021  0.1284  0.5414 -0.2952
 1002MOL0     C35176   3.450   9.705   2.003 -0.2838 -0.6014 -0.7504
 1002MOL0     C35177   3.447   9.582   2.089 -1.0277  0.2047  1.2894
 1002MOL0     C35178   3.584   9.507   2.069  0.3037  0.3859 -0.0406
 1002MOL0     C35179   3.589   9.370   2.142  0.0608  0.9607 -0.6479
 1002MOL0    Cl35180   3.763   9.329   2.149 -0.1724 -0.2957 -0.2238
 1002MOL0     C35181   2.706   9.435   1.997 -0.4567  0.3870  0.1256
 1002MOL0     C35182   2.589   9.383   1.949 -0.2358  0.3177  0.0063
 1002MOL0     O35183   2.517   9.246   1.590  0.7772 -0.1579 -0.3731
 1002MOL0     C35184   2.276   9.265   1.463  0.0360  0.0006  0.4691
 1002MOL0     C35185   2.155   9.238   1.404  0.1278  0.8342 -0.5394
 1002MOL0     N35186   1.529   9.053   1.013 -0.1430  0.0353 -0.2864
 1002MOL0     N35187   1.441   9.152   1.016 -0.5741 -0.2521 -0.1781
 1002MOL0     C35188   2.030  10.044   0.798 -0.1963 -0.3278  0.0887
 1002MOL0     C35189   2.148  10.107   0.771  0.5978  0.6825  0.4763
 1002MOL0     C35190   2.424  10.432   0.574  0.1592 -0.3874 -0.2233
 1002MOL0     C35191   2.468  10.569   0.567  0.6618  0.0107 -1.1363
 1002MOL0     C35192   2.597  10.598   0.552 -0.2710 -0.0676  0.3863
 1002MOL0     C35193   2.687  10.501   0.525  0.1219  0.4934  0.2423
 1002MOL0     O35194   2.813  10.555   0.503 -0.0702 -0.2991  0.7533
 1002MOL0     C35195   2.904  10.523   0.608  0.1124  0.2771 -0.1554
 1002MOL0     C35196   3.045  10.521   0.548  0.6162  1.0130  0.7848
 1002MOL0     C35197   3.160  10.509   0.650  0.3662  0.1707 -0.0748
 1002MOL0     C35198   3.288  10.570   0.592  0.4124 -0.0036  0.9296
 1002MOL0     C35199   3.396  10.596   0.694  0.0831 -0.4353  0.5168
 1002MOL0     C35200   3.486  10.611   0.778 -0.0541 -0.4001 -0.0596
 1002MOL0     C35201   2.654  10.370   0.510 -0.1867 -1.0253  0.5171
 1002MOL0     C35202   2.521  10.337   0.548  0.2362  0.2942  0.4125
 1002MOL0     H35203   2.046  10.293   0.505  2.5428 -1.7946 -0.5302
 1002MOL0     H35204   1.828  10.208   0.567 -2.0740 -0.2045  1.8579
 1002MOL0     H35205   1.657  10.125   0.652 -1.8670 -0.0650  2.8029
 1002MOL0     H35206   1.743   9.982   0.583  1.5736  2.0123 -0.0532
 1002MOL0     H35207   1.527   9.968   0.785  1.7981 -3.2147  3.0457
 1002MOL0     H35208   1.527   9.937   0.607  1.4998  0.4972 -1.3106
 1002MOL0     H35209   1.711   9.765   0.674  0.2923  2.6346 -0.3447
 1002MOL0     H35210   1.712   9.795   0.828  2.3973 -2.6654 -0.7465
 1002MOL0     H35211   1.478   9.730   0.869 -1.4280 -1.0495  0.4038
 1002MOL0     H35212   1.455   9.691   0.694  0.4015 -0.3171 -0.2226
 1002MOL0     H35213   1.664   9.549   0.721  2.6990  1.7083  1.6727
 1002MOL0     H35214   1.649   9.556   0.899  1.0365  2.1052 -0.6236
 1002MOL0     H35215   1.436   9.432   0.714 -5.2500 -3.6386  3.8032
 1002MOL0     H35216   1.567   9.350   0.791  0.7068 -0.7553  0.5804
 1002MOL0     H35217   1.368   9.548   0.927  1.1790  0.1442 -2.6598
 1002MOL0     H35218   1.306   9.389   0.901 -3.5869  3.8694  1.9822
 1002MOL0     H35219   1.403   9.415   1.125  0.3877 -0.1792  0.4832
 1002MOL0     H35220   1.548   9.467   1.075  1.6649 -0.1588 -2.2784
 1002MOL0     H35221   1.730   9.313   1.047 -0.0390 -0.6470 -0.9245
 1002MOL0     H35222   1.761   8.937   1.011 -2.8189  1.2316 -0.8599
 1002MOL0     H35223   1.854   9.070   0.937  0.8321 -1.7208  0.2080
 1002MOL0     H35224   1.896   9.172   1.142  0.6313  0.2421  1.8423
 1002MOL0     H35225   1.969   9.006   1.122  1.7445  2.5327 -2.3100
 1002MOL0     H35226   1.782   8.924   1.266  0.9718 -0.3704 -1.2209
 1002MOL0     H35227   1.720   9.093   1.288  1.4062  1.7488  0.5879
 1002MOL0     H35228   1.989   8.996   1.414  0.4948  0.6332  2.4623
 1002MOL0     H35229   1.833   9.022   1.490 -0.5273 -0.0907  0.2896
 1002MOL0     H35230   1.959   9.221   1.683  1.3893 -1.1649  3.7453
 1002MOL0     H35231   2.073   9.263   1.872  0.9028  1.1250  0.2096
 1002MOL0     H35232   2.240   9.202   1.883  1.9926  1.5074 -2.6155
 1002MOL0     H35233   2.196   9.383   1.870  0.8651  1.1677 -1.3394
 1002MOL0     H35234   2.622   9.484   1.628 -4.2773 -4.0591  0.6174
 1002MOL0     H35235   2.828   9.580   1.698 -2.3484  3.3055  0.2253
 1002MOL0     H35236   2.997   9.657   1.823  1.0759 -0.6182  0.6610
 1002MOL0     H35237   2.911   9.754   1.941 -1.4152 -0.8597 -1.8731
 1002MOL0     H35238   3.096   9.740   2.103  0.2336  1.6136 -0.4351
 1002MOL0     H35239   3.144   9.583   2.033 -0.2497  0.3186  1.1450
 1002MOL0     H35240   3.166   9.845   1.889  0.2793  1.8636  2.5732
 1002MOL0     H35241   3.254   9.688   1.857 -1.0679 -0.6317 -0.0377
 1002MOL0     H35242   3.376   9.904   2.004  0.5935  0.0649 -1.8569
 1002MOL0     H35243   3.300   9.814   2.127 -0.7944  1.6562 -0.6050
 1002MOL0     H35244   3.543   9.758   2.027  1.5884 -3.0325 -2.1456
 1002MOL0     H35245   3.459   9.685   1.896  2.8458 -2.9232 -0.2113
 1002MOL0     H35246   3.449   9.606   2.196  1.3508 -1.4752  1.7186
 1002MOL0     H35247   3.365   9.513   2.066 -0.5338  0.3993 -1.3741
 1002MOL0     H35248   3.651   9.563   2.135 -2.7244  0.4313  3.2893
 1002MOL0     H35249   3.614   9.513   1.964  0.2598  1.9407  0.0040
 1002MOL0     H35250   3.544   9.293   2.079 -0.4140 -2.7106  3.5888
 1002MOL0     H35251   3.540   9.392   2.237 -2.0820  4.3954 -2.3651
 1002MOL0     H35252   2.750   9.413   2.093 -2.6292  1.2607  1.3889
 1002MOL0     H35253   2.520   9.322   2.007  1.7022 -0.3036  1.8033
 1002MOL0     H35254   2.361   9.273   1.396  0.1214  1.5383  0.7255
 1002MOL0     H35255   2.128   9.226   1.300 -0.0575  2.1562 -0.6670
 1002MOL0     H35256   2.019   9.973   0.879  1.8178 -0.7046  0.0674
 1002MOL0     H35257   2.247  10.086   0.808 -0.0048 -2.5265  0.6129
 1002MOL0     H35258   2.394  10.645   0.591 -0.6211 -1.4280 -0.3574
 1002MOL0     H35259   2.630  10.702   0.553  1.5250 -0.6010  0.1451
 1002MOL0     H35260   2.899  10.599   0.687 -0.7752  0.3879 -0.3008
 1002MOL0     H35261   2.893  10.424   0.653 -0.9792  0.4665  0.0331
 1002MOL0     H35262   3.052  10.615   0.493  0.9042  1.9321  2.3442
 1002MOL0     H35263   3.046  10.429   0.489 -0.8026 -0.8980  3.5255
 1002MOL0     H35264   3.178  10.401   0.652 -0.1324  0.0235 -1.6712
 1002MOL0     H35265   3.123  10.545   0.746 -0.9845 -1.3337  0.0284
 1002MOL0     H35266   3.266  10.663   0.539  2.8654 -0.1803 -0.5598
 1002MOL0     H35267   3.315  10.497   0.515 -2.7956  1.3704 -1.7102
 1002MOL0     H35268   3.564  10.636   0.848 -0.6060  2.4748 -0.3514
 1002MOL0     H35269   2.741  10.312   0.484  0.4311  0.3557 -0.6800
 1002MOL0     H35270   2.496  10.231   0.545 -0.6216  0.5068 -0.1982
 1003MOL0     O35271   1.643   9.698  11.086 -0.7105 -0.4996  0.1081
 1003MOL0     C35272   1.739   9.771  11.061  1.0150 -0.2568 -0.1230
 1003MOL0     O35273   1.749   9.860  10.952  0.0953 -0.3818 -0.1394
 1003MOL0     C35274   1.647   9.874  10.870 -0.5397 -0.8335 -0.0345
 1003MOL0     C35275   1.676   9.871  10.733  0.2251  0.6849 -0.3822
 1003MOL0     C35276   1.580   9.919  10.633 -0.0072  1.2665  0.0016
 1003MOL0     C35277   1.461   9.975  10.676  0.1052 -0.4925  0.3289
 1003MOL0     O35278   1.374  10.039  10.587  0.9247 -0.1230  0.0695
 1003MOL0     C35279   1.318   9.951  10.492  0.4755 -0.4770  0.0231
 1003MOL0     C35280   1.187   9.905  10.543 -0.3070  0.1410 -0.1600
 1003MOL0     C35281   1.088  10.021  10.576  1.3142 -0.2137 -0.3011
 1003MOL0     C35282   0.949   9.961  10.597 -0.3044 -0.3367  0.6227
 1003MOL0     C35283   0.838  10.066  10.602 -0.4232 -0.1415 -0.6368
 1003MOL0     C35284   0.700  10.004  10.643 -1.3394 -0.3350  0.9824
 1003MOL0     C35285   0.632   9.939  10.519  0.2141 -0.2279 -0.9181
 1003MOL0     C35286   0.481   9.942  10.528 -0.1248  0.3087 -0.6756
 1003MOL0     N35287   0.423   9.870  10.410 -0.3719  0.4979 -0.4396
 1003MOL0     C35288   0.314   9.786  10.406  0.4827 -0.8564 -0.0202
 1003MOL0     C35289   0.258   9.817  10.284 -0.1729 -0.4081 -0.3158
 1003MOL0     C35290   0.128   9.767  10.228 -0.3868 -0.2500 -0.1999
 1003MOL0     C35291   0.007   9.852  10.252 -0.3609 -0.7470  0.1649
 1003MOL0     C35292   0.009   9.990  10.186 -0.4525  1.0501  0.2386
 1003MOL0     C35293  -0.114  10.070  10.241 -1.1446  0.2288 -0.0087
 1003MOL0     O35294  -0.226  10.064  10.160  0.0907 -0.2174  0.3175
 1003MOL0     C35295  -0.344  10.134  10.202  0.0315 -0.1821 -0.0107
 1003MOL0     C35296  -0.455  10.122  10.119 -0.5734 -0.2546  0.2565
 1003MOL0     C35297  -0.565  10.207  10.138  1.1480 -0.4463  0.0830
 1003MOL0     C35298  -0.677  10.185  10.032  0.3830 -0.7677  0.7308
 1003MOL0     C35299  -0.558  10.306  10.251  0.2245 -0.5788  0.5646
 1003MOL0     C35300  -0.665  10.402  10.270  0.2348  0.7368  0.1088
 1003MOL0     O35301  -0.638  10.511  10.348  0.6219 -0.8366 -0.9017
 1003MOL0     C35302  -0.748  10.600  10.353 -0.1397  0.8258  0.7961
 1003MOL0     C35303  -0.725  10.743  10.325  0.1966 -0.2326  0.8188
 1003MOL0     C35304  -0.837  10.820  10.314  0.3461 -0.5358  0.4670
 1003MOL0     C35305  -0.969  10.780  10.351 -0.9530 -0.1230  0.9337
 1003MOL0     O35306  -1.060  10.874  10.330  0.2949 -0.1853  0.5544
 1003MOL0     C35307  -1.110  10.878  10.199  1.0349  1.2909 -0.3965
 1003MOL0     C35308  -1.229  10.961  10.179  0.4114  0.0350  0.3157
 1003MOL0     C35309  -1.212  11.104  10.232  0.4272  0.6518  0.4053
 1003MOL0     C35310  -1.323  11.209  10.184  0.1866  0.7127  1.1151
 1003MOL0     C35311  -1.309  11.327  10.268 -0.5045  0.1385 -0.2583
 1003MOL0     C35312  -1.416  11.434  10.226  0.8447  0.0828  0.8161
 1003MOL0     C35313  -1.453  11.545  10.329  0.3971 -0.2549  0.7463
 1003MOL0     C35314  -1.340  11.646  10.354 -0.0353  0.8686  1.0762
 1003MOL0    Cl35315  -1.423  11.783  10.443  0.0545  0.3521  0.0619
 1003MOL0     C35316  -0.986  10.652  10.389  0.4988  0.3748 -0.1133
 1003MOL0     C35317  -0.876  10.565  10.399 -0.0162 -0.5599  1.1014
 1003MOL0     O35318  -0.774  10.398  10.210 -0.0408  1.1109 -0.0344
 1003MOL0     C35319  -0.445  10.308  10.328 -0.1784 -0.2214  0.4945
 1003MOL0     C35320  -0.339  10.231  10.303 -0.5625  0.3756  0.3188
 1003MOL0     N35321   0.342   9.900  10.215 -0.1407 -0.9456  0.0977
 1003MOL0     N35322   0.446   9.926  10.290 -0.8840  0.3435 -0.2003
 1003MOL0     C35323   1.431   9.969  10.809  0.3007  0.1190  0.7701
 1003MOL0     C35324   1.518   9.923  10.907 -0.1198  0.9229  0.9025
 1003MOL0     C35325   1.854   9.745  11.150 -0.2169 -0.6895  0.1918
 1003MOL0     C35326   1.963   9.833  11.165  0.2433 -0.0134 -0.3778
 1003MOL0     C35327   2.073   9.801  11.238 -0.5314  0.3493 -0.4075
 1003MOL0     C35328   2.088   9.677  11.291 -0.3152 -0.1074 -0.5362
 1003MOL0     O35329   2.189   9.626  11.357 -0.2384 -0.4296 -0.8242
 1003MOL0     C35330   2.253   9.714  11.448 -0.2633  0.2333 -1.0882
 1003MOL0     C35331   2.324   9.617  11.558 -1.3202 -0.3778 -0.1279
 1003MOL0     C35332   2.230   9.524  11.641 -0.5731 -1.1889  0.6299
 1003MOL0     C35333   2.298   9.463  11.768  0.6849 -0.1925  0.1482
 1003MOL0     C35334   2.226   9.334  11.800  0.4816 -1.0009 -0.6538
 1003MOL0     C35335   2.164   9.228  11.819 -0.0121 -0.1659 -0.5089
 1003MOL0     C35336   1.984   9.581  11.278 -0.2114 -0.7018  1.0251
 1003MOL0     C35337   1.866   9.617  11.210 -0.0471 -0.0452  1.1072
 1003MOL0     H35338   1.775   9.839  10.701 -0.2655 -0.2357 -1.0036
 1003MOL0     H35339   1.609   9.918  10.528 -3.5243 -1.1091 -1.1146
 1003MOL0     H35340   1.293  10.017  10.408  0.5363 -1.1920 -0.5727
 1003MOL0     H35341   1.378   9.873  10.444 -0.1132 -0.4997 -0.6942
 1003MOL0     H35342   1.159   9.830  10.468  1.8073 -4.1188  2.8533
 1003MOL0     H35343   1.201   9.846  10.634  1.3582 -0.6144 -0.8585
 1003MOL0     H35344   1.120  10.058  10.674 -0.6253  0.2875  0.1868
 1003MOL0     H35345   1.087  10.101  10.502  0.7203  0.4183  0.3731
 1003MOL0     H35346   0.933   9.889  10.516  0.7611 -1.9550  1.7914
 1003MOL0     H35347   0.962   9.899  10.686 -0.1482  1.0148  1.5734
 1003MOL0     H35348   0.861  10.136  10.683  2.2789 -3.0775  1.3746
 1003MOL0     H35349   0.844  10.124  10.510  1.9419  1.4309  0.4055
 1003MOL0     H35350   0.719   9.926  10.716  0.2020 -1.1998 -0.2745
 1003MOL0     H35351   0.633  10.078  10.688 -0.2761  0.9900  0.4680
 1003MOL0     H35352   0.662   9.996  10.430  1.1525 -1.8989 -1.7058
 1003MOL0     H35353   0.675   9.840  10.499 -0.0334 -0.4089 -0.5549
 1003MOL0     H35354   0.448  10.045  10.518  1.3060  1.0246  1.3721
 1003MOL0     H35355   0.453   9.894  10.622  1.6409 -0.5304 -0.5346
 1003MOL0     H35356   0.273   9.718  10.480 -1.1614  0.5478  0.4336
 1003MOL0     H35357   0.145   9.751  10.121  0.3229 -0.2738 -0.0907
 1003MOL0     H35358   0.110   9.670  10.276  0.3112  0.2489  1.1076
 1003MOL0     H35359  -0.018   9.854  10.358  0.0560 -1.7620  0.3040
 1003MOL0     H35360  -0.069   9.785  10.210  0.5974 -2.6344  1.3044
 1003MOL0     H35361  -0.002   9.983  10.078  1.0969  1.7950  0.0129
 1003MOL0     H35362   0.107  10.027  10.218  0.2645 -1.9944  1.9876
 1003MOL0     H35363  -0.075  10.172  10.242 -0.2587 -0.0276  3.2504
 1003MOL0     H35364  -0.137  10.036  10.342  2.4583  1.8644  1.5117
 1003MOL0     H35365  -0.471  10.050  10.040 -0.5946 -0.7393  0.7021
 1003MOL0     H35366  -0.659  10.099   9.967 -1.5688 -0.3572 -0.4269
 1003MOL0     H35367  -0.769  10.163  10.086 -0.1733 -0.8703 -0.2558
 1003MOL0     H35368  -0.698  10.270   9.966 -2.2198 -2.0378 -0.1800
 1003MOL0     H35369  -0.627  10.786  10.308 -0.2380  0.1841 -0.7904
 1003MOL0     H35370  -0.824  10.924  10.285 -0.4946 -0.7204 -0.6479
 1003MOL0     H35371  -1.029  10.918  10.137  1.0985  0.2008 -1.0250
 1003MOL0     H35372  -1.124  10.776  10.162  3.3139  0.4980  0.7302
 1003MOL0     H35373  -1.257  10.957  10.074  4.6550 -1.7896 -0.9330
 1003MOL0     H35374  -1.315  10.918  10.232  0.7096  1.1960  1.8323
 1003MOL0     H35375  -1.113  11.141  10.201  1.4746 -1.2299  1.3325
 1003MOL0     H35376  -1.214  11.093  10.341  0.2122 -2.4790  0.1681
 1003MOL0     H35377  -1.307  11.232  10.078 -0.2184 -3.0951  0.0847
 1003MOL0     H35378  -1.423  11.172  10.208 -0.2674  2.8731  2.8895
 1003MOL0     H35379  -1.208  11.364  10.254  0.3814 -1.7964  0.6976
 1003MOL0     H35380  -1.328  11.298  10.371  2.2268 -0.6315  0.0973
 1003MOL0     H35381  -1.390  11.500  10.143 -1.9559  3.6174  2.4470
 1003MOL0     H35382  -1.513  11.392  10.199  0.0621  0.6010  2.6389
 1003MOL0     H35383  -1.477  11.493  10.423 -3.1506 -0.7511 -0.2843
 1003MOL0     H35384  -1.538  11.604  10.297  1.3601  1.7154  1.6575
 1003MOL0     H35385  -1.305  11.683  10.257  2.1625 -1.1348  1.0060
 1003MOL0     H35386  -1.256  11.593  10.401  0.2631  0.7597  0.4285
 1003MOL0     H35387  -1.086  10.618  10.410  0.6127 -1.4369 -2.1274
 1003MOL0     H35388  -0.904  10.462  10.419 -1.4726 -0.7022 -1.3278
 1003MOL0     H35389  -0.444  10.374  10.414 -1.7523  0.4244  0.0520
 1003MOL0     H35390  -0.251  10.243  10.364  2.3118 -2.0779 -2.9325
 1003MOL0     H35391   1.331   9.998  10.840 -0.2645 -1.7667  0.8238
 1003MOL0     H35392   1.493   9.935  11.012 -1.2398 -1.2135  0.9370
 1003MOL0     H35393   1.959   9.920  11.101 -0.7729  1.3406  1.4306
 1003MOL0     H35394   2.155   9.872  11.238 -0.5039  0.3288  0.4868
 1003MOL0     H35395   2.323   9.784  11.403  1.3392 -0.2292  0.5526
 1003MOL0     H35396   2.188   9.779  11.508  0.3236  0.6823 -0.9319
 1003MOL0     H35397   2.388   9.678  11.623  2.8827 -1.2925 -3.0253
 1003MOL0     H35398   2.397   9.553  11.508 -0.6306  0.1348  0.1937
 1003MOL0     H35399   2.207   9.447  11.567  1.4278  0.6549 -2.1062
 1003MOL0     H35400   2.137   9.577  11.665 -1.6708 -0.8754 -3.4837
 1003MOL0     H35401   2.293   9.538  11.847 -0.8225  1.4790 -1.4382
 1003MOL0     H35402   2.405   9.450  11.749  0.7750  0.5365  0.1224
 1003MOL0     H35403   2.097   9.144  11.821 -0.9837  0.5863 -0.3529
 1003MOL0     H35404   1.996   9.483  11.323 -0.2100 -0.1991  2.1539
 1003MOL0     H35405   1.786   9.545  11.198  0.7571 -0.7698 -0.0753
 1004MOL0     O35406   6.855   9.775   4.221  0.3295 -0.5986  0.0976
 1004MOL0     C35407   6.870   9.730   4.334  0.2234  1.0864  0.0634
 1004MOL0     O35408   6.989   9.719   4.400  0.2756 -0.7236 -0.1340
 1004MOL0     C35409   7.112   9.747   4.345 -0.2296  0.4014 -0.3521
 1004MOL0     C35410   7.212   9.779   4.443  0.2277 -0.0258  0.4910
 1004MOL0     C35411   7.340   9.806   4.395  0.3068  0.4599 -0.4583
 1004MOL0     C35412   7.370   9.802   4.256  0.5131 -0.6489 -0.4673
 1004MOL0     O35413   7.488   9.819   4.198 -0.3786  0.7598 -0.1569
 1004MOL0     C35414   7.607   9.779   4.261 -0.3629 -0.5562 -0.2893
 1004MOL0     C35415   7.716   9.757   4.141  0.6432  0.3826  0.4880
 1004MOL0     C35416   7.747   9.893   4.068  0.4222  0.3079  0.6772
 1004MOL0     C35417   7.872   9.893   3.970  0.3396  0.1932 -0.6835
 1004MOL0     C35418   8.003   9.826   4.018  0.1294  1.0125  0.3360
 1004MOL0     C35419   8.105   9.819   3.897  0.0977 -0.7568 -1.0472
 1004MOL0     C35420   8.073   9.714   3.792  0.6429  0.4653  0.1737
 1004MOL0     C35421   8.147   9.574   3.828 -0.2750 -0.6367  1.0541
 1004MOL0     N35422   8.100   9.516   3.950  0.6936 -0.4420 -0.6714
 1004MOL0     C35423   7.977   9.455   3.985  0.1451  0.5668 -1.3734
 1004MOL0     C35424   7.993   9.413   4.110  0.0864  0.5851 -0.1246
 1004MOL0     C35425   7.890   9.345   4.202 -0.3118  0.1898  0.4178
 1004MOL0     C35426   7.899   9.378   4.354  0.7212 -0.0819 -0.6116
 1004MOL0     C35427   8.027   9.365   4.425  0.3593  0.0700  0.2514
 1004MOL0     C35428   8.014   9.380   4.569  0.7000  0.0065 -1.3182
 1004MOL0     O35429   7.943   9.263   4.619  0.0837  0.6100  0.6464
 1004MOL0     C35430   7.910   9.263   4.755  0.6572 -0.0853  0.6017
 1004MOL0     C35431   7.957   9.150   4.820  1.3205 -0.5793 -0.1341
 1004MOL0     C35432   7.941   9.123   4.956 -0.1952  0.1254  0.2367
 1004MOL0     C35433   8.025   9.009   5.011 -0.4673 -0.0157 -0.2659
 1004MOL0     C35434   7.867   9.214   5.026  0.3786  0.3990  0.1597
 1004MOL0     C35435   7.832   9.194   5.167  1.5325  0.0121 -0.0721
 1004MOL0     O35436   7.915   9.110   5.237 -1.3005 -0.9415  1.3401
 1004MOL0     C35437   7.917   9.104   5.377 -0.1896  0.5877 -0.5642
 1004MOL0     C35438   7.798   9.076   5.447 -0.1853 -0.0463  0.3981
 1004MOL0     C35439   7.817   9.047   5.583 -0.1515 -0.3862  0.3705
 1004MOL0     C35440   7.943   9.047   5.657  1.0316  0.6559  0.5249
 1004MOL0     O35441   7.942   8.992   5.782  0.3603 -0.2057  0.2726
 1004MOL0     C35442   8.053   8.918   5.832 -0.0278  0.3339  0.1259
 1004MOL0     C35443   8.023   8.869   5.984 -1.0375  0.1460  0.6657
 1004MOL0     C35444   7.892   8.792   5.995 -0.4810  0.4205 -0.3690
 1004MOL0     C35445   7.876   8.726   6.128 -0.4048 -0.2434 -0.5190
 1004MOL0     C35446   7.756   8.645   6.129  0.1201  0.7247  0.2539
 1004MOL0     C35447   7.704   8.631   6.279 -0.3268 -0.2089  0.0659
 1004MOL0     C35448   7.577   8.547   6.297 -0.9406  0.6392 -0.0919
 1004MOL0     C35449   7.582   8.478   6.434 -0.2885 -0.6609  0.2625
 1004MOL0    Cl35450   7.426   8.390   6.459 -0.3623  0.6499 -0.0120
 1004MOL0     C35451   8.061   9.067   5.579  0.0215  0.6301  0.0526
 1004MOL0     C35452   8.047   9.093   5.438  0.2869 -0.2713 -0.4708
 1004MOL0     O35453   7.737   9.254   5.219 -0.0922 -0.3459 -0.4393
 1004MOL0     C35454   7.818   9.335   4.957 -0.0847 -0.2810 -0.0615
 1004MOL0     C35455   7.854   9.365   4.825 -0.2026  0.4459  0.0607
 1004MOL0     N35456   8.134   9.420   4.142  0.2967  1.5282  0.7903
 1004MOL0     N35457   8.189   9.493   4.049  0.6670  0.1739 -0.2898
 1004MOL0     C35458   7.263   9.779   4.162 -0.4338  0.0033  0.0994
 1004MOL0     C35459   7.140   9.741   4.208  0.8417  1.0815  0.4513
 1004MOL0     C35460   6.750   9.685   4.414 -0.2736 -0.4130  0.6836
 1004MOL0     C35461   6.618   9.660   4.356 -0.6216 -0.7175 -0.4677
 1004MOL0     C35462   6.517   9.607   4.445 -0.0301 -0.5427  0.5907
 1004MOL0     C35463   6.548   9.575   4.570  0.9549 -0.1355 -0.1184
 1004MOL0     O35464   6.447   9.536   4.658 -0.5318 -0.8462 -0.2422
 1004MOL0     C35465   6.310   9.509   4.618 -0.2603 -0.1812 -0.3994
 1004MOL0     C35466   6.224   9.635   4.621  0.4062  0.0683 -0.3519
 1004MOL0     C35467   6.088   9.595   4.554 -0.0249  0.6022 -1.8202
 1004MOL0     C35468   5.983   9.558   4.655  0.0541 -1.1045  0.6395
 1004MOL0     C35469   5.880   9.477   4.590 -0.5163  0.2422 -0.2397
 1004MOL0     C35470   5.783   9.417   4.547  0.4730  0.2176  0.4239
 1004MOL0     C35471   6.674   9.600   4.633  0.1096  0.4366 -0.1138
 1004MOL0     C35472   6.772   9.656   4.554 -0.1774 -0.4613 -0.7287
 1004MOL0     H35473   7.188   9.761   4.547  0.5464  3.4145  1.2774
 1004MOL0     H35474   7.420   9.829   4.465 -0.7960 -0.5414  1.2041
 1004MOL0     H35475   7.641   9.845   4.342  1.1107 -2.3588  0.6661
 1004MOL0     H35476   7.580   9.689   4.318  0.7396 -0.6103  0.1774
 1004MOL0     H35477   7.807   9.723   4.190  0.6545 -0.9809 -0.4263
 1004MOL0     H35478   7.677   9.681   4.073  0.9314  1.1453 -0.5586
 1004MOL0     H35479   7.668   9.931   4.002  2.1743  0.2824 -1.5320
 1004MOL0     H35480   7.760   9.972   4.143 -1.3855  2.0052 -0.6863
 1004MOL0     H35481   7.824   9.847   3.883  2.2573  1.6645 -2.6373
 1004MOL0     H35482   7.890   9.998   3.946 -1.0187  0.8811  1.0865
 1004MOL0     H35483   8.046   9.875   4.106  0.1776 -2.0143  2.1278
 1004MOL0     H35484   7.974   9.724   4.046 -1.4075  1.5421  0.7455
 1004MOL0     H35485   8.111   9.919   3.852  1.6741 -0.4934 -0.3034
 1004MOL0     H35486   8.205   9.794   3.931  2.3333  1.9445 -4.8637
 1004MOL0     H35487   7.965   9.698   3.794  0.6236  0.5693  2.0192
 1004MOL0     H35488   8.094   9.752   3.692  1.0280 -1.5033 -0.5212
 1004MOL0     H35489   8.255   9.579   3.842 -0.6041 -1.4732  5.4016
 1004MOL0     H35490   8.127   9.507   3.744  3.7731 -0.8803  0.0940
 1004MOL0     H35491   7.892   9.446   3.919 -0.1952 -1.8354 -0.6993
 1004MOL0     H35492   7.785   9.356   4.172 -0.0751  0.5332 -0.3032
 1004MOL0     H35493   7.895   9.236   4.195 -0.9797  0.2155 -0.7305
 1004MOL0     H35494   7.842   9.297   4.400  1.3828  0.4003  1.1227
 1004MOL0     H35495   7.845   9.467   4.389 -0.9836 -1.9683  1.9073
 1004MOL0     H35496   8.087   9.449   4.391 -0.0209 -0.0140 -0.6438
 1004MOL0     H35497   8.066   9.264   4.405 -1.9891 -1.3234  2.0942
 1004MOL0     H35498   7.963   9.470   4.606 -2.9736 -2.7434  1.1251
 1004MOL0     H35499   8.117   9.370   4.603  0.2997 -2.4336 -0.6417
 1004MOL0     H35500   8.019   9.093   4.751  0.4540  0.7120 -2.0695
 1004MOL0     H35501   8.089   8.974   4.929 -2.6600  0.7471 -2.3907
 1004MOL0     H35502   8.091   9.034   5.096  1.7198 -3.3135 -0.7726
 1004MOL0     H35503   7.964   8.925   5.046 -0.3105 -0.6107 -1.3923
 1004MOL0     H35504   7.695   9.083   5.416  0.0468 -0.5251 -0.5110
 1004MOL0     H35505   7.726   9.025   5.637 -1.7397 -0.5348 -2.1912
 1004MOL0     H35506   8.076   8.831   5.771  0.4333  0.2729  0.3842
 1004MOL0     H35507   8.147   8.974   5.840 -0.6049  1.4829 -0.7753
 1004MOL0     H35508   8.106   8.806   6.017 -0.6762 -0.5245 -1.4014
 1004MOL0     H35509   8.020   8.951   6.056 -1.2816 -2.4899  3.9279
 1004MOL0     H35510   7.881   8.732   5.904  0.5914 -0.4987  0.0842
 1004MOL0     H35511   7.812   8.866   5.990 -1.4404 -0.6426 -1.4195
 1004MOL0     H35512   7.960   8.669   6.168 -1.3222  0.1224  2.1904
 1004MOL0     H35513   7.860   8.812   6.194  2.1150  1.1197 -1.5648
 1004MOL0     H35514   7.778   8.543   6.098 -1.6129  0.7379 -1.2632
 1004MOL0     H35515   7.682   8.681   6.056 -0.3410  2.1946  1.4009
 1004MOL0     H35516   7.788   8.596   6.340 -0.0469  3.1054  1.8400
 1004MOL0     H35517   7.679   8.733   6.310  1.8085  0.5954 -0.6487
 1004MOL0     H35518   7.574   8.465   6.226 -2.2178 -2.8401  3.5950
 1004MOL0     H35519   7.492   8.616   6.288 -2.3105 -1.2133 -3.1761
 1004MOL0     H35520   7.576   8.555   6.512 -2.4439 -0.3142 -0.1778
 1004MOL0     H35521   7.672   8.417   6.439 -0.2895 -0.8157 -1.1047
 1004MOL0     H35522   8.160   9.064   5.624 -0.1249  2.0778  0.5312
 1004MOL0     H35523   8.129   9.114   5.370 -2.1320 -1.4263 -4.0703
 1004MOL0     H35524   7.761   9.407   5.015  0.8474 -0.0101  0.5421
 1004MOL0     H35525   7.829   9.458   4.775 -3.1249 -0.1996  0.1422
 1004MOL0     H35526   7.285   9.779   4.056 -0.4346  0.0799  0.0994
 1004MOL0     H35527   7.064   9.716   4.135  1.8561 -1.6956  0.2365
 1004MOL0     H35528   6.604   9.683   4.251  3.0831 -1.6742 -1.2903
 1004MOL0     H35529   6.415   9.600   4.410 -1.5809  1.2748  4.2610
 1004MOL0     H35530   6.306   9.468   4.516 -1.6390 -1.8362  0.2741
 1004MOL0     H35531   6.266   9.432   4.682 -0.4604 -1.7061 -2.2644
 1004MOL0     H35532   6.276   9.703   4.553  0.7713 -1.0542 -1.2324
 1004MOL0     H35533   6.203   9.685   4.716 -1.0439  1.5308 -1.3757
 1004MOL0     H35534   6.093   9.512   4.483 -0.3521 -0.3669 -0.7395
 1004MOL0     H35535   6.048   9.685   4.506 -0.8274  0.9939 -0.4862
 1004MOL0     H35536   5.942   9.651   4.695 -0.4988 -0.3329 -1.6007
 1004MOL0     H35537   6.020   9.489   4.732 -0.1179 -3.0063 -0.8840
 1004MOL0     H35538   5.693   9.385   4.497 -0.1238  1.3516  0.7243
 1004MOL0     H35539   6.685   9.576   4.738  2.6117 -0.6995 -0.5752
 1004MOL0     H35540   6.871   9.668   4.597  0.9284 -1.7425 -2.7950
 1005MOL0     O35541   5.634   4.423   5.667 -0.1426 -0.1496  0.3759
 1005MOL0     C35542   5.621   4.511   5.587 -0.7893  0.8416  0.5456
 1005MOL0     O35543   5.511   4.586   5.573  0.2841  0.7292  0.3864
 1005MOL0     C35544   5.425   4.599   5.684 -0.4780 -0.8871  0.3699
 1005MOL0     C35545   5.295   4.568   5.672  0.0699  0.0456  0.9984
 1005MOL0     C35546   5.209   4.603   5.778 -0.2601 -0.3335 -0.2182
 1005MOL0     C35547   5.253   4.666   5.898  0.2656 -1.2224 -0.1671
 1005MOL0     O35548   5.175   4.704   6.008 -0.1446  0.3395 -0.1206
 1005MOL0     C35549   5.041   4.644   6.021  0.2978  0.6785 -0.1103
 1005MOL0     C35550   4.981   4.680   6.163 -0.3951  0.4556  0.2629
 1005MOL0     C35551   4.906   4.814   6.177  0.8419 -0.5601  0.1578
 1005MOL0     C35552   4.834   4.832   6.310 -0.3397 -0.4528  0.3263
 1005MOL0     C35553   4.747   4.958   6.306 -0.1211  0.1271  0.1945
 1005MOL0     C35554   4.674   4.979   6.436  0.0404  0.5857  0.3385
 1005MOL0     C35555   4.600   5.119   6.451  0.1073  0.8242 -0.9899
 1005MOL0     C35556   4.685   5.231   6.497 -0.5820  0.3188 -0.6469
 1005MOL0     N35557   4.711   5.237   6.637 -1.4561  0.0009 -0.0749
 1005MOL0     C35558   4.622   5.282   6.730  0.1584  0.4340 -0.0367
 1005MOL0     C35559   4.692   5.296   6.844 -0.4797 -0.2926 -0.1563
 1005MOL0     C35560   4.639   5.328   6.983 -0.6062  0.7672 -0.7697
 1005MOL0     C35561   4.642   5.486   6.998  0.5248 -0.6963  0.1467
 1005MOL0     C35562   4.564   5.517   7.136 -0.1555  0.0486  0.1240
 1005MOL0     C35563   4.528   5.670   7.150  0.0247  1.0511 -0.5891
 1005MOL0     O35564   4.637   5.753   7.109  0.1646 -0.5328 -0.4100
 1005MOL0     C35565   4.760   5.754   7.175 -0.1009  0.8080  0.3783
 1005MOL0     C35566   4.866   5.826   7.136 -0.1040 -0.4843  0.8621
 1005MOL0     C35567   4.994   5.828   7.191  0.0167 -0.6237  1.0282
 1005MOL0     C35568   5.091   5.914   7.114 -0.6168 -0.2592  0.5517
 1005MOL0     C35569   5.020   5.763   7.312  0.3612 -0.4319  0.3769
 1005MOL0     C35570   5.156   5.738   7.376 -0.0106  1.1730 -0.3006
 1005MOL0     O35571   5.257   5.740   7.283  0.1095  0.8399 -0.3637
 1005MOL0     C35572   5.384   5.696   7.327 -0.5426 -0.0116 -0.4603
 1005MOL0     C35573   5.415   5.571   7.377 -0.3047 -0.3028  0.3257
 1005MOL0     C35574   5.546   5.530   7.402 -0.3027 -0.4669 -0.1150
 1005MOL0     C35575   5.654   5.618   7.365  1.1671  0.6276 -0.1140
 1005MOL0     O35576   5.777   5.576   7.367 -0.1729 -0.5493 -0.2190
 1005MOL0     C35577   5.885   5.666   7.404 -1.0116  0.5977 -0.7455
 1005MOL0     C35578   5.937   5.605   7.535  0.3068 -0.0794 -0.3972
 1005MOL0     C35579   5.965   5.444   7.538 -0.5059  0.3769 -0.0557
 1005MOL0     C35580   6.041   5.419   7.671 -0.6110 -1.2024  0.6224
 1005MOL0     C35581   6.088   5.280   7.662 -0.5324  0.8176  0.4462
 1005MOL0     C35582   6.188   5.252   7.778  0.1284  0.4115  0.4165
 1005MOL0     C35583   6.213   5.112   7.824 -0.1032 -0.2286  0.2545
 1005MOL0     C35584   6.307   5.038   7.734 -0.8900  0.3618  0.2095
 1005MOL0    Cl35585   6.343   4.861   7.785 -0.3190 -0.7961  0.0570
 1005MOL0     C35586   5.620   5.734   7.294 -0.1615  0.2583 -0.2529
 1005MOL0     C35587   5.488   5.775   7.293  0.0887 -0.3793 -0.4547
 1005MOL0     O35588   5.159   5.711   7.495 -0.1340  0.1674  0.8024
 1005MOL0     C35589   4.908   5.697   7.363  0.6916  0.0885 -0.0916
 1005MOL0     C35590   4.780   5.695   7.303 -0.1701  0.4626  0.9984
 1005MOL0     N35591   4.827   5.279   6.815 -0.1372  0.3854  0.3782
 1005MOL0     N35592   4.836   5.241   6.692 -0.4510  0.9955 -0.1752
 1005MOL0     C35593   5.391   4.682   5.910 -0.6402 -0.0201  0.8443
 1005MOL0     C35594   5.472   4.659   5.804 -1.2037 -0.4074  0.2659
 1005MOL0     C35595   5.737   4.523   5.486 -0.2477 -0.4757  0.2116
 1005MOL0     C35596   5.756   4.638   5.400  0.5480  0.7747  0.1522
 1005MOL0     C35597   5.848   4.637   5.301  0.0759  0.2506  0.2790
 1005MOL0     C35598   5.930   4.521   5.289 -0.4134  0.3973 -0.9173
 1005MOL0     O35599   6.029   4.524   5.202  0.0413 -0.2874 -0.4383
 1005MOL0     C35600   5.997   4.545   5.064 -0.4307  0.2611  0.4752
 1005MOL0     C35601   6.082   4.464   4.961 -0.7658 -0.0831 -0.3690
 1005MOL0     C35602   6.086   4.310   4.998 -1.0284 -0.5369  0.9209
 1005MOL0     C35603   6.126   4.213   4.888  0.1265  0.4666  0.9922
 1005MOL0     C35604   6.204   4.100   4.938  0.9237  0.1669  0.5965
 1005MOL0     C35605   6.262   4.002   4.984  0.3034  0.9116  0.4844
 1005MOL0     C35606   5.911   4.407   5.369 -0.5478  0.4561 -0.2009
 1005MOL0     C35607   5.808   4.410   5.460 -0.7336  0.7689 -0.4729
 1005MOL0     H35608   5.254   4.525   5.581 -0.6894  0.8787  0.9294
 1005MOL0     H35609   5.104   4.581   5.768 -0.8321  2.4592 -1.3362
 1005MOL0     H35610   4.986   4.679   5.933  1.7421  2.3040 -0.4337
 1005MOL0     H35611   5.050   4.536   6.009  1.8664  0.5319  1.9578
 1005MOL0     H35612   4.917   4.595   6.189 -0.9990  0.2473 -1.7350
 1005MOL0     H35613   5.065   4.683   6.234 -0.7333 -0.9267  0.7460
 1005MOL0     H35614   4.980   4.892   6.155  0.8155 -0.1060  1.5892
 1005MOL0     H35615   4.845   4.834   6.088 -0.4462  0.3286  1.2053
 1005MOL0     H35616   4.775   4.742   6.331 -0.5817 -0.8296 -1.7717
 1005MOL0     H35617   4.911   4.843   6.387 -0.7061 -1.1512  0.8047
 1005MOL0     H35618   4.807   5.048   6.290  0.8027 -0.2400  1.4970
 1005MOL0     H35619   4.670   4.945   6.229  1.0813  2.0765 -1.4720
 1005MOL0     H35620   4.598   4.904   6.460  1.2253  0.0503  2.7547
 1005MOL0     H35621   4.751   4.959   6.512  1.4674  2.7236 -0.4369
 1005MOL0     H35622   4.559   5.142   6.352  2.0079 -1.4646 -2.4060
 1005MOL0     H35623   4.518   5.097   6.520 -1.5749 -0.0126 -3.1354
 1005MOL0     H35624   4.651   5.328   6.460 -2.2231  0.4757  1.1263
 1005MOL0     H35625   4.781   5.224   6.444  1.2867  2.6016  2.1003
 1005MOL0     H35626   4.517   5.303   6.714 -0.2037 -1.5821 -0.6125
 1005MOL0     H35627   4.540   5.286   7.002  0.3681 -1.5202 -0.4144
 1005MOL0     H35628   4.715   5.289   7.051 -1.4986  0.0605 -0.1536
 1005MOL0     H35629   4.590   5.535   6.915 -1.1691 -0.7338  1.1361
 1005MOL0     H35630   4.741   5.530   7.012  0.7266 -1.9803  3.7871
 1005MOL0     H35631   4.632   5.493   7.219  0.4055 -2.6338 -0.9970
 1005MOL0     H35632   4.477   5.455   7.159 -2.1892  2.5975 -0.2821
 1005MOL0     H35633   4.508   5.688   7.255  0.2077  1.1860 -0.5772
 1005MOL0     H35634   4.443   5.682   7.082 -2.0683 -1.3567  1.4083
 1005MOL0     H35635   4.839   5.878   7.045  1.8718  2.4769  1.8020
 1005MOL0     H35636   5.072   5.915   7.006 -3.3160 -1.9805  0.9253
 1005MOL0     H35637   5.087   6.012   7.163  0.6368 -1.9584  4.4207
 1005MOL0     H35638   5.197   5.891   7.128 -0.0348  1.3138 -0.8114
 1005MOL0     H35639   5.343   5.490   7.385 -0.5917  0.0546  1.7417
 1005MOL0     H35640   5.570   5.434   7.445 -2.4025 -1.7109 -1.5191
 1005MOL0     H35641   5.968   5.688   7.336  0.8584  3.8376  2.2484
 1005MOL0     H35642   5.845   5.765   7.430 -2.2326  0.0148 -0.3449
 1005MOL0     H35643   6.026   5.664   7.557  0.6435  0.0322 -1.9455
 1005MOL0     H35644   5.863   5.632   7.612  2.5237  1.1035  1.4325
 1005MOL0     H35645   6.022   5.405   7.454 -0.4522  2.3777 -0.9976
 1005MOL0     H35646   5.869   5.391   7.541 -1.3440  1.7882 -0.7840
 1005MOL0     H35647   6.120   5.493   7.687 -0.4201 -1.8661  3.0998
 1005MOL0     H35648   5.973   5.436   7.755 -0.9402  0.2599  0.1007
 1005MOL0     H35649   6.133   5.261   7.564  0.9398  1.7709  0.9066
 1005MOL0     H35650   6.004   5.212   7.679 -0.9440  1.1353 -0.2488
 1005MOL0     H35651   6.290   5.290   7.760  0.3789 -0.7483 -0.7359
 1005MOL0     H35652   6.150   5.307   7.865  3.4196  0.5266  1.9478
 1005MOL0     H35653   6.117   5.060   7.823 -0.0315 -0.3580  0.1830
 1005MOL0     H35654   6.265   5.112   7.920  1.8060  2.9729 -0.6096
 1005MOL0     H35655   6.405   5.087   7.742  0.4396 -1.6211 -2.4591
 1005MOL0     H35656   6.276   5.033   7.630  2.7136  1.7226 -1.0911
 1005MOL0     H35657   5.706   5.790   7.259  0.5823 -0.5761  0.1950
 1005MOL0     H35658   5.448   5.855   7.232 -0.4114 -0.7046 -0.5645
 1005MOL0     H35659   4.922   5.627   7.445 -0.0869 -1.8577 -1.5275
 1005MOL0     H35660   4.704   5.635   7.351  0.2205 -2.3940 -1.6958
 1005MOL0     H35661   5.439   4.742   5.986  2.1157  2.9175 -2.8325
 1005MOL0     H35662   5.575   4.691   5.818 -0.8388 -1.6043  0.4772
 1005MOL0     H35663   5.691   4.723   5.418  1.0715  0.6745  2.9797
 1005MOL0     H35664   5.863   4.716   5.228  2.6570  1.6508  2.1420
 1005MOL0     H35665   5.889   4.535   5.052 -0.6506  2.2979  0.3886
 1005MOL0     H35666   6.022   4.648   5.036 -0.3975 -0.4896 -2.4998
 1005MOL0     H35667   6.183   4.507   4.961 -0.6661 -0.2991  0.3451
 1005MOL0     H35668   6.034   4.460   4.863  0.5263  0.5421 -1.0563
 1005MOL0     H35669   5.984   4.278   5.019  0.0582 -2.5408  3.7883
 1005MOL0     H35670   6.138   4.297   5.094  1.5562  3.0887  0.2278
 1005MOL0     H35671   6.190   4.274   4.823 -0.7998 -1.2960 -1.7135
 1005MOL0     H35672   6.041   4.177   4.830  1.1593 -1.2232  0.4804
 1005MOL0     H35673   6.302   3.907   5.012 -1.7217 -0.1457  0.0168
 1005MOL0     H35674   5.969   4.319   5.343 -1.6894 -0.7446  1.1735
 1005MOL0     H35675   5.773   4.318   5.505  2.2584  0.1941  0.9681
 1006MOL0     O35676  11.101   5.625   3.545  0.2826  0.3034  1.1216
 1006MOL0     C35677  11.005   5.688   3.504 -0.4540 -0.0652  0.0971
 1006MOL0     O35678  10.995   5.825   3.489  0.5131 -0.5358 -0.1211
 1006MOL0     C35679  11.099   5.899   3.545 -0.1441 -0.6531 -0.2230
 1006MOL0     C35680  11.148   5.990   3.459 -0.2131  0.0670  1.0590
 1006MOL0     C35681  11.253   6.069   3.499 -0.6942  0.3626  0.6899
 1006MOL0     C35682  11.309   6.059   3.625 -0.6881 -0.5933 -0.0664
 1006MOL0     O35683  11.400   6.152   3.657 -0.5533  0.7483  0.5242
 1006MOL0     C35684  11.487   6.115   3.765 -0.0823 -0.2733 -0.1760
 1006MOL0     C35685  11.423   6.166   3.900  0.2993  0.9525  0.7992
 1006MOL0     C35686  11.492   6.118   4.027 -0.6339 -0.3855 -0.2976
 1006MOL0     C35687  11.424   6.178   4.152 -0.2386  0.2182  0.5481
 1006MOL0     C35688  11.473   6.107   4.279  0.2133 -0.0209  1.0588
 1006MOL0     C35689  11.393   6.141   4.404  0.8209 -0.3718  0.0625
 1006MOL0     C35690  11.455   6.088   4.528  0.9246  0.3112  0.7745
 1006MOL0     C35691  11.445   5.941   4.550  0.4542 -0.4611 -0.4130
 1006MOL0     N35692  11.479   5.919   4.685  0.6273  1.0319 -0.5033
 1006MOL0     C35693  11.606   5.886   4.723 -0.4793  0.7861 -0.0031
 1006MOL0     C35694  11.596   5.907   4.856 -0.7508  0.4367 -0.2448
 1006MOL0     C35695  11.703   5.893   4.963  0.4453  0.8859 -0.2028
 1006MOL0     C35696  11.820   5.803   4.904  0.1435 -0.7096  0.1188
 1006MOL0     C35697  11.901   5.747   5.023 -0.9018  0.0333 -0.3385
 1006MOL0     C35698  12.017   5.667   4.973 -0.0642  0.1430  0.1930
 1006MOL0     O35699  12.116   5.759   4.933  0.4154  0.0315  0.3921
 1006MOL0     C35700  12.182   5.705   4.823 -0.1606 -1.5246  0.3385
 1006MOL0     C35701  12.282   5.609   4.833  0.4912 -0.1630  0.3570
 1006MOL0     C35702  12.355   5.561   4.720  0.7630  0.2456 -0.5380
 1006MOL0     C35703  12.452   5.449   4.739  0.4101 -0.9084 -0.7061
 1006MOL0     C35704  12.328   5.623   4.597 -0.6773  0.5225  0.7610
 1006MOL0     C35705  12.417   5.586   4.481 -0.5235 -0.5570 -1.1670
 1006MOL0     O35706  12.364   5.487   4.404  0.2918  0.4253  0.0420
 1006MOL0     C35707  12.441   5.424   4.314  0.1557 -0.2719  0.5892
 1006MOL0     C35708  12.394   5.422   4.186 -0.1552 -0.5570  0.5773
 1006MOL0     C35709  12.478   5.382   4.082 -0.1583 -0.6013  0.1182
 1006MOL0     C35710  12.609   5.340   4.107 -0.4744  0.3184 -0.4280
 1006MOL0     O35711  12.686   5.314   4.001  0.9351 -0.4924 -0.0818
 1006MOL0     C35712  12.790   5.211   4.003 -0.0064  0.1798  0.0737
 1006MOL0     C35713  12.826   5.172   3.867 -0.9000  0.0276  0.4757
 1006MOL0     C35714  12.710   5.093   3.812  0.3911  0.1106  0.6803
 1006MOL0     C35715  12.738   5.081   3.664  0.3367 -0.2482  0.2909
 1006MOL0     C35716  12.665   4.962   3.590  0.4564  1.1356 -0.6336
 1006MOL0     C35717  12.519   4.932   3.632 -0.2825 -0.2568 -0.3714
 1006MOL0     C35718  12.422   5.051   3.623 -0.4583 -0.4688 -0.3088
 1006MOL0     C35719  12.284   4.991   3.649  0.5429  0.4079 -0.0261
 1006MOL0    Cl35720  12.167   5.110   3.595  0.0315 -0.3248  0.4540
 1006MOL0     C35721  12.660   5.346   4.232  0.5746 -0.2888 -0.3464
 1006MOL0     C35722  12.573   5.379   4.345 -0.8530 -0.2068 -0.6175
 1006MOL0     O35723  12.529   5.634   4.467  0.4641 -0.4027  0.1533
 1006MOL0     C35724  12.222   5.714   4.579 -0.5910  0.0389 -0.1030
 1006MOL0     C35725  12.152   5.755   4.693 -0.1375  0.2968 -0.3255
 1006MOL0     N35726  11.472   5.937   4.894  0.2831 -0.3824  0.4197
 1006MOL0     N35727  11.404   5.951   4.788  0.4906  0.1883 -0.0622
 1006MOL0     C35728  11.255   5.965   3.713 -0.4996  0.2180  0.9176
 1006MOL0     C35729  11.144   5.889   3.676  0.9653  0.2732 -0.4217
 1006MOL0     C35730  10.886   5.609   3.452  0.5506  0.0947 -0.4952
 1006MOL0     C35731  10.765   5.667   3.443 -0.1029 -0.5147  0.1353
 1006MOL0     C35732  10.661   5.591   3.401 -0.4414  0.9909  0.8917
 1006MOL0     C35733  10.659   5.456   3.388  0.2871  0.2144 -0.5217
 1006MOL0     O35734  10.546   5.387   3.361  0.7518 -0.6154  1.1291
 1006MOL0     C35735  10.517   5.390   3.220 -0.2611  0.6885 -1.3194
 1006MOL0     C35736  10.577   5.259   3.155  0.5661 -0.9275 -0.4546
 1006MOL0     C35737  10.574   5.279   3.001  0.5633  0.0229  0.6654
 1006MOL0     C35738  10.595   5.141   2.941 -0.9672 -0.1232  0.1656
 1006MOL0     C35739  10.462   5.078   2.917  0.3654  0.0829 -1.3634
 1006MOL0     C35740  10.361   5.010   2.898 -0.0729 -0.6151  1.2620
 1006MOL0     C35741  10.781   5.390   3.408 -0.1625  0.2400  0.5806
 1006MOL0     C35742  10.892   5.466   3.432  0.1670  0.7121 -0.0529
 1006MOL0     H35743  11.119   6.002   3.355 -2.7839 -0.4367  1.6686
 1006MOL0     H35744  11.301   6.141   3.433 -0.0130 -2.2841 -1.8697
 1006MOL0     H35745  11.508   6.007   3.762  0.9006 -0.1110 -4.2932
 1006MOL0     H35746  11.580   6.170   3.747 -0.1221  0.1472  0.8549
 1006MOL0     H35747  11.429   6.275   3.893  2.5023  0.7574 -1.9356
 1006MOL0     H35748  11.315   6.151   3.909  0.1036  2.3089  0.8922
 1006MOL0     H35749  11.477   6.010   4.035  2.8219 -0.8541  3.6745
 1006MOL0     H35750  11.601   6.125   4.019 -0.8710  1.8921 -3.9912
 1006MOL0     H35751  11.442   6.286   4.158 -0.7411  0.3875 -0.5608
 1006MOL0     H35752  11.317   6.157   4.140  0.4242 -2.6915 -1.3844
 1006MOL0     H35753  11.465   5.999   4.261  2.5143 -0.1738  0.6999
 1006MOL0     H35754  11.579   6.122   4.299  0.7206  1.0376 -2.0309
 1006MOL0     H35755  11.391   6.250   4.415 -0.0270 -0.2957 -0.7231
 1006MOL0     H35756  11.291   6.101   4.396  1.5283 -2.2058 -0.4419
 1006MOL0     H35757  11.562   6.113   4.527  0.4870  2.4818 -1.6188
 1006MOL0     H35758  11.429   6.142   4.619  3.0431  0.5979  1.2760
 1006MOL0     H35759  11.518   5.892   4.486 -0.0986 -1.4585 -0.2962
 1006MOL0     H35760  11.345   5.909   4.519  0.2095 -0.4631  0.3425
 1006MOL0     H35761  11.696   5.868   4.665 -0.1765  0.6329  0.5089
 1006MOL0     H35762  11.742   5.990   4.994  0.4052  1.1249 -0.8639
 1006MOL0     H35763  11.652   5.856   5.052  1.2259 -4.8260 -1.6812
 1006MOL0     H35764  11.893   5.869   4.854  0.2893 -0.4147  0.7192
 1006MOL0     H35765  11.787   5.728   4.831  0.0496  0.8292 -1.5142
 1006MOL0     H35766  11.841   5.684   5.090  2.1447 -1.4703  1.1813
 1006MOL0     H35767  11.944   5.824   5.087  0.0700 -2.3064  2.0204
 1006MOL0     H35768  11.996   5.583   4.905  0.6605  0.1066  0.0061
 1006MOL0     H35769  12.054   5.618   5.064  0.5383 -0.6872 -0.4806
 1006MOL0     H35770  12.297   5.562   4.930 -2.2076 -1.4662  0.2359
 1006MOL0     H35771  12.426   5.361   4.680  1.3601 -0.3276 -2.0636
 1006MOL0     H35772  12.550   5.494   4.719 -1.8654  3.7460 -2.8102
 1006MOL0     H35773  12.456   5.419   4.844  0.5343 -0.3006 -0.5339
 1006MOL0     H35774  12.292   5.449   4.161 -0.8201  0.4917  3.9638
 1006MOL0     H35775  12.451   5.407   3.980 -2.9715 -1.5065  0.5747
 1006MOL0     H35776  12.883   5.249   4.046  0.5832 -1.5835  0.4352
 1006MOL0     H35777  12.754   5.118   4.049 -0.1192 -0.6851 -1.7026
 1006MOL0     H35778  12.853   5.254   3.800 -0.8712 -0.5340 -0.2157
 1006MOL0     H35779  12.912   5.106   3.877 -2.8061 -3.2465 -2.2623
 1006MOL0     H35780  12.608   5.128   3.829 -0.1813 -2.5049  3.5503
 1006MOL0     H35781  12.711   4.994   3.859  1.3433  0.7530  2.0747
 1006MOL0     H35782  12.709   5.168   3.604 -0.3999 -1.7649 -1.6723
 1006MOL0     H35783  12.845   5.065   3.651  0.6179  0.9277  0.9838
 1006MOL0     H35784  12.727   4.872   3.600  1.4865  1.9533  0.6364
 1006MOL0     H35785  12.657   4.988   3.484  1.0802 -3.0501 -1.8943
 1006MOL0     H35786  12.486   4.843   3.576 -2.5125  0.1761  0.1651
 1006MOL0     H35787  12.519   4.884   3.730 -0.8917 -0.0167 -0.2527
 1006MOL0     H35788  12.432   5.092   3.522 -0.0443  0.3282  0.0491
 1006MOL0     H35789  12.434   5.119   3.707 -0.0658  0.0352 -0.7635
 1006MOL0     H35790  12.267   4.969   3.755  0.6007 -3.8869 -0.7288
 1006MOL0     H35791  12.261   4.897   3.598  0.0206 -0.0235  0.9761
 1006MOL0     H35792  12.765   5.332   4.253  1.0330  1.2093 -1.4841
 1006MOL0     H35793  12.618   5.383   4.444 -0.3394  1.9207 -0.8971
 1006MOL0     H35794  12.195   5.747   4.479 -0.7101 -0.0191 -0.0893
 1006MOL0     H35795  12.076   5.833   4.690 -0.8397 -0.1732  2.3717
 1006MOL0     H35796  11.288   5.945   3.815 -1.6139  2.5614  1.8351
 1006MOL0     H35797  11.093   5.818   3.740  0.7453 -0.1164 -1.0103
 1006MOL0     H35798  10.747   5.773   3.458  0.6469 -0.6569  2.5230
 1006MOL0     H35799  10.562   5.634   3.385 -0.8443  0.2787  1.4058
 1006MOL0     H35800  10.409   5.394   3.205 -0.4042  0.5687 -0.4005
 1006MOL0     H35801  10.567   5.476   3.174 -0.1504  0.8432 -0.9138
 1006MOL0     H35802  10.507   5.181   3.185  2.2705 -1.1384  3.4978
 1006MOL0     H35803  10.677   5.234   3.190  0.4515  0.6943  1.1692
 1006MOL0     H35804  10.654   5.342   2.963  1.0319 -1.2462 -0.5795
 1006MOL0     H35805  10.479   5.326   2.972  0.5742  0.5536  1.4628
 1006MOL0     H35806  10.653   5.074   3.005 -1.8711 -0.2416  0.8679
 1006MOL0     H35807  10.656   5.158   2.851  2.5651 -2.6577  1.8473
 1006MOL0     H35808  10.276   4.946   2.889 -0.1933 -0.7313  2.8109
 1006MOL0     H35809  10.781   5.281   3.417 -0.8885 -0.0712 -2.1831
 1006MOL0     H35810  10.989   5.424   3.459  0.1301  0.0246 -0.9293
 1007MOL0     O35811   4.647   4.205   3.646 -0.5246  0.3420 -0.3319
 1007MOL0     C35812   4.714   4.156   3.559 -0.2108  0.7525 -0.5507
 1007MOL0     O35813   4.841   4.180   3.525 -0.5613  0.3472 -0.2355
 1007MOL0     C35814   4.913   4.236   3.635  0.5520  0.6009  0.9356
 1007MOL0     C35815   4.910   4.373   3.639 -0.0032 -1.0782  0.1290
 1007MOL0     C35816   4.964   4.437   3.746  0.1952 -0.1957 -0.0187
 1007MOL0     C35817   5.043   4.365   3.838  0.3082  0.5471 -0.1853
 1007MOL0     O35818   5.128   4.414   3.935  0.5297  0.1972 -0.1300
 1007MOL0     C35819   5.118   4.561   3.957 -0.0407 -0.5332 -0.1527
 1007MOL0     C35820   5.174   4.600   4.099  0.4835  0.6782 -0.1397
 1007MOL0     C35821   5.093   4.538   4.219  0.1305  0.4086  0.0329
 1007MOL0     C35822   4.972   4.613   4.274  0.0755 -0.4075 -0.5598
 1007MOL0     C35823   4.908   4.528   4.388  0.3139  0.1188 -0.3456
 1007MOL0     C35824   4.780   4.593   4.428 -0.0540 -0.6514  1.1046
 1007MOL0     C35825   4.696   4.541   4.546  0.1760  0.7587  0.1871
 1007MOL0     C35826   4.561   4.613   4.573 -0.5068  0.2811  0.0918
 1007MOL0     N35827   4.561   4.761   4.548 -0.2544  0.3129 -0.9149
 1007MOL0     C35828   4.550   4.866   4.646 -0.1830 -0.4055 -0.0900
 1007MOL0     C35829   4.504   4.974   4.577 -0.2326 -0.4001  0.5900
 1007MOL0     C35830   4.471   5.101   4.641  0.2129 -0.7820 -0.7972
 1007MOL0     C35831   4.596   5.193   4.637  0.7940 -1.1128  0.2194
 1007MOL0     C35832   4.711   5.171   4.746  0.0210 -0.1178  0.0920
 1007MOL0     C35833   4.813   5.280   4.747 -0.2741 -0.2624  0.0595
 1007MOL0     O35834   4.885   5.276   4.871 -0.1615 -0.1015 -0.3813
 1007MOL0     C35835   4.993   5.363   4.886  0.2488  0.2744 -0.1156
 1007MOL0     C35836   5.022   5.469   4.794  0.0782 -0.3364 -0.2837
 1007MOL0     C35837   5.128   5.556   4.808  0.2026  0.0593  0.6644
 1007MOL0     C35838   5.117   5.661   4.702 -0.2993  0.0893  0.9431
 1007MOL0     C35839   5.208   5.549   4.928  0.7383  0.2410  0.3259
 1007MOL0     C35840   5.321   5.631   4.960 -0.0841 -0.1205 -0.6108
 1007MOL0     O35841   5.383   5.618   5.080 -0.2613 -0.5076  0.1489
 1007MOL0     C35842   5.494   5.700   5.094  0.0896  0.4844 -0.1312
 1007MOL0     C35843   5.624   5.654   5.089 -1.5260  0.0467 -0.2604
 1007MOL0     C35844   5.735   5.745   5.089  1.0956  0.0477  0.4023
 1007MOL0     C35845   5.714   5.882   5.098 -0.7267  0.9794 -0.5329
 1007MOL0     O35846   5.824   5.964   5.087 -0.1276  0.0993 -0.0803
 1007MOL0     C35847   5.818   6.079   5.175 -0.2567 -0.1553  0.5337
 1007MOL0     C35848   5.938   6.070   5.266 -0.8130 -0.3763  1.2732
 1007MOL0     C35849   6.064   6.117   5.188  1.1263  0.0061 -0.0026
 1007MOL0     C35850   6.064   6.267   5.163 -0.3466  0.6798 -0.6428
 1007MOL0     C35851   6.094   6.346   5.294 -0.6954  0.4481 -0.1445
 1007MOL0     C35852   6.234   6.343   5.353  0.0924 -0.4821 -0.1622
 1007MOL0     C35853   6.230   6.270   5.486  0.1645  0.1268 -0.4334
 1007MOL0     C35854   6.370   6.298   5.562  1.0780  0.0342 -0.1067
 1007MOL0    Cl35855   6.479   6.203   5.479  0.0114  0.0800  0.1956
 1007MOL0     C35856   5.581   5.924   5.105  0.3104  0.3909  1.1480
 1007MOL0     C35857   5.471   5.837   5.107 -0.4605  0.3266  0.8044
 1007MOL0     O35858   5.352   5.709   4.868 -0.4093  0.0589  0.2931
 1007MOL0     C35859   5.168   5.450   5.021 -0.3538 -0.9069  0.0683
 1007MOL0     C35860   5.060   5.358   5.004 -0.6644  0.5844 -0.7157
 1007MOL0     N35861   4.485   4.933   4.440 -0.0883  0.6155 -0.3498
 1007MOL0     N35862   4.512   4.808   4.430  0.9958  0.0197 -0.7051
 1007MOL0     C35863   5.046   4.228   3.828  0.0798  0.8767  0.0960
 1007MOL0     C35864   4.972   4.161   3.730  0.6835 -0.1986  0.0430
 1007MOL0     C35865   4.657   4.037   3.489 -0.7448 -0.9980 -0.3876
 1007MOL0     C35866   4.747   3.944   3.422  1.2348 -0.8944 -0.1015
 1007MOL0     C35867   4.695   3.836   3.353  0.8510 -0.6000 -0.9131
 1007MOL0     C35868   4.560   3.816   3.359  0.1144  0.7498  0.3904
 1007MOL0     O35869   4.502   3.701   3.301 -0.0716 -0.0439 -1.0494
 1007MOL0     C35870   4.544   3.645   3.180  0.0094  0.0268  0.8619
 1007MOL0     C35871   4.456   3.708   3.073  0.5758 -0.0190  0.4421
 1007MOL0     C35872   4.310   3.677   3.077 -0.3618  0.4486  0.4599
 1007MOL0     C35873   4.280   3.530   3.083 -0.2121  0.1031  0.3122
 1007MOL0     C35874   4.329   3.465   2.960 -1.6484 -1.1577 -1.1215
 1007MOL0     C35875   4.384   3.412   2.864  0.4356 -1.1280 -0.2050
 1007MOL0     C35876   4.474   3.899   3.429 -0.6464  0.7844  0.9392
 1007MOL0     C35877   4.524   4.010   3.493  0.2660 -0.2644 -0.3320
 1007MOL0     H35878   4.850   4.435   3.573  0.7106  2.2399  2.3607
 1007MOL0     H35879   4.960   4.545   3.749 -0.5540 -0.2100 -0.3459
 1007MOL0     H35880   5.174   4.617   3.882 -0.8522  1.8793  0.9492
 1007MOL0     H35881   5.014   4.593   3.950 -0.2699 -1.5597 -2.3333
 1007MOL0     H35882   5.275   4.559   4.106  0.5982  1.2020  1.6962
 1007MOL0     H35883   5.190   4.708   4.103  2.6128  0.4664 -1.3428
 1007MOL0     H35884   5.051   4.441   4.189 -2.1565  1.4282 -0.3257
 1007MOL0     H35885   5.163   4.527   4.302 -0.8504  1.2405  1.0078
 1007MOL0     H35886   4.990   4.719   4.296 -1.8142 -0.5512  2.2710
 1007MOL0     H35887   4.901   4.619   4.190 -1.1378  0.2926  0.4674
 1007MOL0     H35888   4.893   4.424   4.356 -1.4533 -0.9840  3.4957
 1007MOL0     H35889   4.977   4.521   4.472  2.6513 -0.7735 -2.2378
 1007MOL0     H35890   4.799   4.695   4.462  2.5142 -1.0751  1.1049
 1007MOL0     H35891   4.717   4.602   4.339 -1.0183  2.7527  1.9592
 1007MOL0     H35892   4.672   4.435   4.540  0.8892  0.4216  2.2783
 1007MOL0     H35893   4.754   4.551   4.638  3.1006  0.0392 -1.4631
 1007MOL0     H35894   4.514   4.593   4.669 -0.2973  1.0490  0.3631
 1007MOL0     H35895   4.489   4.573   4.501  1.3953 -3.7117  0.1234
 1007MOL0     H35896   4.561   4.857   4.753 -0.9926  1.9046  0.2463
 1007MOL0     H35897   4.388   5.149   4.588 -0.9915 -1.8117  0.0910
 1007MOL0     H35898   4.445   5.090   4.747  2.3384  2.4514  0.2219
 1007MOL0     H35899   4.566   5.295   4.661 -2.4099 -2.6583  3.6306
 1007MOL0     H35900   4.641   5.190   4.537  0.8169  0.9630  0.1349
 1007MOL0     H35901   4.755   5.072   4.730 -0.6841 -0.3274 -0.5790
 1007MOL0     H35902   4.672   5.181   4.847  0.5217  1.2166  0.1809
 1007MOL0     H35903   4.775   5.381   4.731  2.5723  0.6410 -1.8861
 1007MOL0     H35904   4.888   5.261   4.670 -0.1945  0.2473  0.0030
 1007MOL0     H35905   4.955   5.475   4.709 -2.8482 -0.1634  1.8558
 1007MOL0     H35906   5.082   5.750   4.754 -0.8340 -0.2078  1.1065
 1007MOL0     H35907   5.213   5.672   4.652 -1.5719  0.4870 -1.5926
 1007MOL0     H35908   5.039   5.649   4.625 -1.0345 -1.3356  1.8532
 1007MOL0     H35909   5.653   5.549   5.084  1.2770  0.7414 -0.4096
 1007MOL0     H35910   5.836   5.710   5.073  1.2953 -0.7781  2.9661
 1007MOL0     H35911   5.809   6.173   5.120 -2.4730  1.3881  3.2825
 1007MOL0     H35912   5.729   6.085   5.238  0.1601  1.0771  1.0485
 1007MOL0     H35913   5.920   6.139   5.349  2.3506  1.2798  0.7224
 1007MOL0     H35914   5.956   5.973   5.315  1.9467  0.0031  1.1432
 1007MOL0     H35915   6.068   6.071   5.089  0.3686  0.5731 -0.3135
 1007MOL0     H35916   6.160   6.088   5.231  0.5635 -1.5783  0.2721
 1007MOL0     H35917   6.130   6.284   5.078 -0.6597 -1.9694 -1.5095
 1007MOL0     H35918   5.966   6.309   5.139  0.1455  2.0259 -0.4149
 1007MOL0     H35919   6.014   6.334   5.368 -2.2457  3.6597 -1.0964
 1007MOL0     H35920   6.091   6.452   5.266 -3.2532  0.7191  0.8676
 1007MOL0     H35921   6.309   6.317   5.277  1.3396  3.3574 -0.4367
 1007MOL0     H35922   6.261   6.442   5.391 -0.2136 -0.1457 -0.7965
 1007MOL0     H35923   6.216   6.163   5.471 -0.3636  0.1733 -0.2804
 1007MOL0     H35924   6.153   6.299   5.558  2.7255 -0.6099  2.8346
 1007MOL0     H35925   6.352   6.269   5.666  0.2308 -0.1497 -0.2943
 1007MOL0     H35926   6.405   6.401   5.553 -0.5802  0.6427  0.1095
 1007MOL0     H35927   5.554   6.028   5.123  1.0496  0.9857 -0.9065
 1007MOL0     H35928   5.364   5.858   5.105 -0.8950 -1.3453 -2.6492
 1007MOL0     H35929   5.233   5.443   5.107 -1.7607  0.1702  1.2633
 1007MOL0     H35930   5.040   5.298   5.093 -2.4511  1.2126 -0.6574
 1007MOL0     H35931   5.090   4.160   3.900  0.7697  2.7984  1.5712
 1007MOL0     H35932   4.968   4.054   3.718  0.6571 -0.3371  1.1619
 1007MOL0     H35933   4.855   3.957   3.427  1.3623 -1.8908 -0.1158
 1007MOL0     H35934   4.754   3.767   3.295  2.5147 -0.8423  0.9646
 1007MOL0     H35935   4.648   3.651   3.147 -0.8329 -0.8372 -2.2921
 1007MOL0     H35936   4.533   3.537   3.195  5.5764 -0.8262  0.7277
 1007MOL0     H35937   4.487   3.671   2.975  2.3549  1.9681  0.1626
 1007MOL0     H35938   4.453   3.818   3.079  0.8825  0.4918 -4.6222
 1007MOL0     H35939   4.253   3.733   3.003  2.3202 -1.0867 -3.0253
 1007MOL0     H35940   4.268   3.715   3.171  1.0127  0.7436  0.9668
 1007MOL0     H35941   4.172   3.513   3.088  0.1263 -2.7170 -0.3244
 1007MOL0     H35942   4.328   3.491   3.174  0.5305 -2.0933 -0.9570
 1007MOL0     H35943   4.429   3.371   2.776  7.1011 -0.0434  2.1184
 1007MOL0     H35944   4.366   3.883   3.433 -0.9881  0.9432 -3.3031
 1007MOL0     H35945   4.452   4.075   3.541  0.0193  1.1666 -2.5196
 1008MOL0     O35946   7.683   4.962   3.494 -0.5071  0.0885  0.0177
 1008MOL0     C35947   7.587   5.034   3.457 -0.5704 -0.4348  0.5852
 1008MOL0     O35948   7.588   5.125   3.359 -0.3763  0.2409  0.6625
 1008MOL0     C35949   7.684   5.140   3.268 -0.8240 -0.7451  0.6132
 1008MOL0     C35950   7.638   5.171   3.142 -0.4834  0.1758  0.3928
 1008MOL0     C35951   7.737   5.196   3.041 -0.7798  0.5890  0.0375
 1008MOL0     C35952   7.878   5.186   3.056 -0.3031  0.5790 -0.9888
 1008MOL0     O35953   7.978   5.186   2.967 -0.2791 -0.1445 -0.0722
 1008MOL0     C35954   7.987   5.276   2.857  0.7441 -0.5568 -0.3827
 1008MOL0     C35955   8.086   5.392   2.880  0.3683 -0.3090  0.5353
 1008MOL0     C35956   8.100   5.491   2.754  0.1171  0.4314  0.4770
 1008MOL0     C35957   8.159   5.441   2.624 -0.5613  0.0715  0.8599
 1008MOL0     C35958   8.196   5.552   2.528  1.4510 -0.8407  1.1593
 1008MOL0     C35959   8.086   5.596   2.442  0.4962 -0.0015 -0.3436
 1008MOL0     C35960   8.126   5.687   2.328 -0.4457  1.3283  0.9986
 1008MOL0     C35961   8.181   5.818   2.380  0.2568 -0.1961 -0.1349
 1008MOL0     N35962   8.231   5.894   2.267  0.6808  0.4920 -0.3773
 1008MOL0     C35963   8.336   5.850   2.193 -1.0540  0.0737 -0.3410
 1008MOL0     C35964   8.351   5.942   2.092  0.5351 -1.1651  0.6996
 1008MOL0     C35965   8.455   5.938   1.980  0.0241  0.1910 -0.7399
 1008MOL0     C35966   8.462   5.803   1.897 -0.2807 -0.5662  0.3906
 1008MOL0     C35967   8.601   5.767   1.832  0.1418  0.9743 -0.4351
 1008MOL0     C35968   8.699   5.719   1.942 -1.3605  0.6775 -0.2176
 1008MOL0     O35969   8.632   5.599   2.014  0.4780  0.4885  0.4334
 1008MOL0     C35970   8.691   5.545   2.128  0.7100 -0.4987 -0.2209
 1008MOL0     C35971   8.622   5.463   2.201  1.1285  0.1647  0.3017
 1008MOL0     C35972   8.668   5.419   2.329 -0.6021  0.7668  0.2447
 1008MOL0     C35973   8.565   5.344   2.404  0.3283 -0.3069 -0.1439
 1008MOL0     C35974   8.792   5.464   2.374  0.3765  0.5020  0.1875
 1008MOL0     C35975   8.843   5.421   2.517  0.4783 -0.0601  0.2696
 1008MOL0     O35976   8.957   5.490   2.548 -0.2852 -0.1126  0.2474
 1008MOL0     C35977   9.001   5.499   2.677 -0.5874 -0.2122  0.0565
 1008MOL0     C35978   8.974   5.606   2.766  0.4621  0.4290 -0.1127
 1008MOL0     C35979   9.017   5.604   2.901 -0.1490  0.5102  0.0125
 1008MOL0     C35980   9.074   5.483   2.945  0.6086  0.9334 -0.2656
 1008MOL0     O35981   9.088   5.467   3.082 -0.4936  0.5234 -0.1123
 1008MOL0     C35982   8.969   5.426   3.142  0.4151  0.6500 -0.2326
 1008MOL0     C35983   8.976   5.419   3.302  0.0758 -0.3570  0.0823
 1008MOL0     C35984   9.034   5.277   3.331  0.4440 -0.0807  0.0334
 1008MOL0     C35985   9.043   5.268   3.481  0.4678  0.4224  0.3479
 1008MOL0     C35986   8.911   5.286   3.555  0.3591 -0.3500  0.1828
 1008MOL0     C35987   8.916   5.255   3.721 -0.4377 -0.2724  0.5779
 1008MOL0     C35988   8.781   5.284   3.783  0.4483 -0.2969 -0.1061
 1008MOL0     C35989   8.765   5.333   3.932  0.1596 -0.2589 -0.2819
 1008MOL0    Cl35990   8.875   5.243   4.036  0.5994 -0.0007 -0.1667
 1008MOL0     C35991   9.102   5.370   2.863  0.0821  0.4737  0.5585
 1008MOL0     C35992   9.065   5.379   2.730  0.5714 -0.6446  0.4028
 1008MOL0     O35993   8.779   5.342   2.589  0.0323  0.3906 -0.0537
 1008MOL0     C35994   8.865   5.540   2.283  0.8985 -0.0650 -0.1122
 1008MOL0     C35995   8.810   5.594   2.164  0.4457  1.1903 -0.0736
 1008MOL0     N35996   8.251   6.045   2.115  0.1252  0.0621  0.2330
 1008MOL0     N35997   8.193   6.018   2.225  0.7047  0.2748  0.0992
 1008MOL0     C35998   7.918   5.167   3.193 -0.4808 -0.4457 -0.7409
 1008MOL0     C35999   7.820   5.149   3.290 -0.0419  0.4308  0.5303
 1008MOL0     C36000   7.454   5.018   3.513  0.2459  0.7071 -0.1861
 1008MOL0     C36001   7.342   5.098   3.486 -1.1732 -0.1402 -0.1828
 1008MOL0     C36002   7.216   5.060   3.531  0.1352  0.8650 -0.6247
 1008MOL0     C36003   7.192   4.945   3.614 -1.8048 -1.1095 -0.5270
 1008MOL0     O36004   7.069   4.918   3.659 -0.2661 -0.9289 -0.1895
 1008MOL0     C36005   7.049   4.789   3.720  0.4579  0.6430  0.6323
 1008MOL0     C36006   7.091   4.788   3.870  0.7126 -0.3554 -1.3979
 1008MOL0     C36007   7.009   4.872   3.960 -0.1808  0.5714 -0.5314
 1008MOL0     C36008   7.069   4.869   4.105  0.6226  0.7657 -0.3097
 1008MOL0     C36009   7.078   4.737   4.152 -0.6644  0.5372  0.9776
 1008MOL0     C36010   7.093   4.621   4.181  0.2058  0.5028  0.5609
 1008MOL0     C36011   7.306   4.869   3.636  0.1437  0.6177  0.4530
 1008MOL0     C36012   7.435   4.897   3.592  0.1033 -0.2922 -0.3280
 1008MOL0     H36013   7.532   5.153   3.123 -0.5050  0.9447 -0.2275
 1008MOL0     H36014   7.704   5.214   2.939 -0.1097  2.2192  0.0819
 1008MOL0     H36015   8.010   5.219   2.767 -2.2755 -2.6479  0.0293
 1008MOL0     H36016   7.897   5.335   2.835  1.3047  1.7851  2.8097
 1008MOL0     H36017   8.043   5.450   2.962  0.0810 -4.4923  3.7099
 1008MOL0     H36018   8.183   5.355   2.914  0.0348 -1.6030  0.1504
 1008MOL0     H36019   7.998   5.527   2.737  1.0170  1.7936 -3.0378
 1008MOL0     H36020   8.169   5.568   2.790  0.4955  1.0231 -1.3922
 1008MOL0     H36021   8.254   5.394   2.647  0.2017  0.6940 -0.8720
 1008MOL0     H36022   8.092   5.367   2.577 -0.4426  0.6521 -0.2693
 1008MOL0     H36023   8.221   5.637   2.592  2.9366  0.3340 -0.8655
 1008MOL0     H36024   8.283   5.520   2.469 -0.3526 -1.6392 -1.2417
 1008MOL0     H36025   8.029   5.511   2.402  1.7696 -0.1652 -1.8990
 1008MOL0     H36026   8.014   5.653   2.501  1.2280 -1.1764  1.7987
 1008MOL0     H36027   8.193   5.626   2.265  0.2085  2.0072  1.0240
 1008MOL0     H36028   8.044   5.712   2.261  0.0928  0.7629  0.1084
 1008MOL0     H36029   8.258   5.805   2.457 -0.2896 -0.5274  0.3553
 1008MOL0     H36030   8.100   5.877   2.424 -0.0369  0.2137 -1.1896
 1008MOL0     H36031   8.388   5.757   2.215 -1.4183 -0.2342 -0.7638
 1008MOL0     H36032   8.432   6.014   1.905  0.1742 -0.3738 -1.3707
 1008MOL0     H36033   8.549   5.951   2.035 -0.2410 -2.7945  0.6059
 1008MOL0     H36034   8.386   5.813   1.819  0.0477  1.7176  0.2986
 1008MOL0     H36035   8.426   5.718   1.956  0.1484  0.5741  2.3755
 1008MOL0     H36036   8.631   5.860   1.783  1.6864  2.4260  2.9274
 1008MOL0     H36037   8.586   5.685   1.762  0.4287 -0.3104  0.9706
 1008MOL0     H36038   8.725   5.792   2.020 -1.4205  1.6159 -1.0521
 1008MOL0     H36039   8.793   5.694   1.892 -2.1440  0.7426 -1.7840
 1008MOL0     H36040   8.523   5.444   2.162  1.2323  1.7935 -0.8596
 1008MOL0     H36041   8.587   5.237   2.391 -0.6299 -0.6936  1.2622
 1008MOL0     H36042   8.552   5.370   2.509 -0.9203 -0.1137 -0.3328
 1008MOL0     H36043   8.466   5.373   2.367 -1.1090 -0.9317  2.9227
 1008MOL0     H36044   8.935   5.694   2.715  0.8508 -0.1484 -1.4490
 1008MOL0     H36045   8.997   5.688   2.966 -0.8706  0.6139 -0.3323
 1008MOL0     H36046   8.888   5.495   3.117  0.5540  0.7215 -0.4785
 1008MOL0     H36047   8.934   5.329   3.106  0.7925  0.7862 -0.9802
 1008MOL0     H36048   9.040   5.498   3.343  1.1668 -0.4407 -1.4098
 1008MOL0     H36049   8.873   5.418   3.340  0.4064 -0.2463  1.0010
 1008MOL0     H36050   9.128   5.257   3.279 -0.1055 -2.9974 -0.0452
 1008MOL0     H36051   8.971   5.199   3.287  1.8582 -1.1689 -0.1262
 1008MOL0     H36052   9.082   5.170   3.510  0.0646  0.7030  1.9511
 1008MOL0     H36053   9.114   5.347   3.508 -0.2211  1.5208 -0.9707
 1008MOL0     H36054   8.841   5.210   3.520  0.0524 -0.2922  0.6701
 1008MOL0     H36055   8.864   5.383   3.540  2.6912  0.9398  0.7623
 1008MOL0     H36056   8.930   5.147   3.734 -1.1823 -0.5855 -0.9510
 1008MOL0     H36057   8.983   5.313   3.784  0.4923 -0.6638 -0.0251
 1008MOL0     H36058   8.725   5.190   3.776  1.4141 -0.7963 -1.9514
 1008MOL0     H36059   8.725   5.351   3.718  2.3991  3.1521  1.5218
 1008MOL0     H36060   8.661   5.329   3.966  0.1510  1.5376  0.0007
 1008MOL0     H36061   8.795   5.438   3.935  0.0509 -0.1419 -2.0869
 1008MOL0     H36062   9.156   5.290   2.912  1.4874 -1.3712 -3.5331
 1008MOL0     H36063   9.071   5.292   2.666 -1.5639 -2.1743  2.1315
 1008MOL0     H36064   8.968   5.561   2.311  0.4819  0.9781  0.7389
 1008MOL0     H36065   8.869   5.657   2.098  0.9605 -0.4524 -1.2557
 1008MOL0     H36066   8.025   5.165   3.209 -0.5392 -1.6845 -0.4342
 1008MOL0     H36067   7.857   5.140   3.392  1.0747 -2.0173 -0.0124
 1008MOL0     H36068   7.342   5.182   3.417  0.3532 -0.3638 -0.4897
 1008MOL0     H36069   7.124   5.112   3.507 -0.6801 -1.3171 -2.6812
 1008MOL0     H36070   6.944   4.765   3.700  0.7263 -0.1619  0.1684
 1008MOL0     H36071   7.102   4.704   3.675 -0.1860 -0.4590  1.8855
 1008MOL0     H36072   7.189   4.837   3.866  1.1048 -0.8628  0.6796
 1008MOL0     H36073   7.117   4.689   3.909 -1.7368 -0.6847 -0.4570
 1008MOL0     H36074   6.906   4.836   3.958  0.7163 -2.4823  1.3857
 1008MOL0     H36075   7.013   4.976   3.927  1.5966 -0.1008 -2.7785
 1008MOL0     H36076   6.996   4.914   4.172 -0.0590 -2.0770  1.0016
 1008MOL0     H36077   7.167   4.918   4.100  0.9324  0.2518  0.5085
 1008MOL0     H36078   7.106   4.519   4.213 -0.4174  0.3674  0.4007
 1008MOL0     H36079   7.309   4.776   3.694 -2.6933  0.9672  1.3271
 1008MOL0     H36080   7.505   4.818   3.616 -3.1881 -3.4688 -0.1876
 1009MOL0     O36081   9.746   2.240   9.273  0.5306 -0.6531  0.0431
 1009MOL0     C36082   9.816   2.148   9.219  0.9422  0.8211  0.1008
 1009MOL0     O36083   9.949   2.132   9.228  0.8019 -0.3243  0.8174
 1009MOL0     C36084  10.007   2.186   9.342  0.2918  0.6431  0.4251
 1009MOL0     C36085  10.120   2.264   9.322  0.7854 -0.2459 -0.5211
 1009MOL0     C36086  10.192   2.328   9.430 -0.2957  0.0428  0.3360
 1009MOL0     C36087  10.150   2.303   9.565 -1.0992 -0.4009  0.3917
 1009MOL0     O36088  10.220   2.342   9.671 -0.7321 -0.1177 -0.1978
 1009MOL0     C36089  10.360   2.368   9.661  0.2261 -0.1950 -0.1278
 1009MOL0     C36090  10.387   2.509   9.698  0.4235 -1.6536 -0.5144
 1009MOL0     C36091  10.369   2.530   9.846  0.6620 -0.4403  0.0080
 1009MOL0     C36092  10.360   2.682   9.876  0.3434  0.6944  0.7513
 1009MOL0     C36093  10.352   2.692  10.027  0.1189 -0.3608 -0.8173
 1009MOL0     C36094  10.314   2.837  10.063 -0.4459 -0.0337  0.8837
 1009MOL0     C36095  10.283   2.856  10.205 -0.7543 -0.0072  0.2604
 1009MOL0     C36096  10.201   2.974  10.241 -0.5718  0.1050 -0.1273
 1009MOL0     N36097  10.159   2.956  10.380  0.0080  0.4072 -0.8510
 1009MOL0     C36098  10.238   2.954  10.499 -1.5319 -0.1275  0.1370
 1009MOL0     C36099  10.147   2.963  10.593 -0.1971  1.3054  0.2838
 1009MOL0     C36100  10.176   3.001  10.735 -0.5501 -0.1117  0.4603
 1009MOL0     C36101  10.054   2.974  10.825 -0.8143  0.6616  0.6650
 1009MOL0     C36102  10.082   3.032  10.961 -0.5111  0.6287 -1.2060
 1009MOL0     C36103   9.945   3.048  11.031  0.1397 -0.3743 -0.6488
 1009MOL0     O36104   9.963   3.103  11.163  0.4622  0.1608 -0.5238
 1009MOL0     C36105   9.855   3.075  11.239 -0.0195  0.2373  0.2246
 1009MOL0     C36106   9.761   3.179  11.255  0.4079 -0.0202  0.0836
 1009MOL0     C36107   9.639   3.150  11.317  0.0901  0.8047 -0.2672
 1009MOL0     C36108   9.544   3.258  11.341 -1.3196  1.0485 -0.1186
 1009MOL0     C36109   9.615   3.016  11.361 -0.1995 -0.4008 -0.3257
 1009MOL0     C36110   9.486   2.964  11.410  0.6052 -0.7507 -0.2695
 1009MOL0     O36111   9.399   3.038  11.472  0.0767  0.4254 -0.2191
 1009MOL0     C36112   9.261   2.998  11.501 -0.7826 -0.3543  0.0670
 1009MOL0     C36113   9.237   2.870  11.550 -0.4777  0.3125 -0.6555
 1009MOL0     C36114   9.102   2.827  11.583  0.5139  0.2931 -0.8785
 1009MOL0     C36115   8.999   2.918  11.592  1.3408  0.6580  0.8159
 1009MOL0     O36116   8.874   2.897  11.651 -0.0258 -0.0573 -0.2078
 1009MOL0     C36117   8.847   2.776  11.713  0.3380  0.4674  0.1891
 1009MOL0     C36118   8.721   2.786  11.799 -0.1918 -1.0967 -0.1616
 1009MOL0     C36119   8.579   2.818  11.738 -0.1112 -0.0454  0.2374
 1009MOL0     C36120   8.564   2.792  11.592  1.3579  0.2756  0.7963
 1009MOL0     C36121   8.441   2.850  11.533 -0.2766 -0.1122 -0.1028
 1009MOL0     C36122   8.461   3.001  11.500  0.9636  0.2261 -0.5060
 1009MOL0     C36123   8.532   3.025  11.366 -0.7647  0.5488  0.8678
 1009MOL0     C36124   8.536   3.179  11.337  0.2774  0.7328  1.2362
 1009MOL0    Cl36125   8.651   3.256  11.442  0.3906  0.3129 -0.2013
 1009MOL0     C36126   9.027   3.051  11.543  1.1112 -0.5172  0.6974
 1009MOL0     C36127   9.149   3.091  11.500 -0.6258 -0.0714 -0.0537
 1009MOL0     O36128   9.462   2.845  11.375  1.1275  0.3905  0.5150
 1009MOL0     C36129   9.724   2.917  11.347 -0.0801 -0.5436 -0.2083
 1009MOL0     C36130   9.842   2.944  11.283 -0.8013  0.7458  0.4794
 1009MOL0     N36131  10.019   2.974  10.532 -0.7057 -0.5216  0.9779
 1009MOL0     N36132  10.024   2.963  10.403  0.5431 -0.1624 -0.2514
 1009MOL0     C36133  10.043   2.220   9.579  0.9417 -0.2439  0.3991
 1009MOL0     C36134   9.961   2.173   9.473  0.2226  0.0722  0.1985
 1009MOL0     C36135   9.752   2.065   9.113  0.6787  0.1169  0.4885
 1009MOL0     C36136   9.826   1.976   9.022  1.0166  0.1324  0.6188
 1009MOL0     C36137   9.764   1.913   8.910 -0.0347 -0.8701 -0.3051
 1009MOL0     C36138   9.626   1.919   8.901 -0.2539  0.4285  0.9056
 1009MOL0     O36139   9.568   1.860   8.790 -0.1803  0.8014 -0.4206
 1009MOL0     C36140   9.425   1.852   8.788 -0.6897 -0.0076  0.8069
 1009MOL0     C36141   9.373   1.770   8.679 -0.0642  1.1679  0.4398
 1009MOL0     C36142   9.444   1.638   8.665 -0.1007 -0.0886  0.8364
 1009MOL0     C36143   9.423   1.581   8.521 -0.5236 -0.5455 -0.5855
 1009MOL0     C36144   9.297   1.517   8.495  0.4659 -0.1687  0.0216
 1009MOL0     C36145   9.204   1.444   8.468 -0.1565  0.4319  0.6250
 1009MOL0     C36146   9.548   2.009   8.981 -0.1064  0.2680 -0.2411
 1009MOL0     C36147   9.612   2.079   9.084 -0.1376 -0.8160 -0.0627
 1009MOL0     H36148  10.153   2.281   9.220 -0.8895 -0.8742 -1.1906
 1009MOL0     H36149  10.285   2.382   9.412 -0.8565 -0.1767 -4.1433
 1009MOL0     H36150  10.414   2.319   9.743 -0.5752 -0.4733  0.2379
 1009MOL0     H36151  10.404   2.332   9.568  1.9066  3.5457 -0.9728
 1009MOL0     H36152  10.486   2.539   9.664 -0.6728  3.3362 -0.0892
 1009MOL0     H36153  10.321   2.580   9.647  0.0956 -3.0807 -2.1398
 1009MOL0     H36154  10.280   2.477   9.879  1.1437 -0.4984  1.2466
 1009MOL0     H36155  10.441   2.486   9.916  2.1628 -1.5426 -2.0962
 1009MOL0     H36156  10.445   2.737   9.832  0.9310 -0.8072 -0.0834
 1009MOL0     H36157  10.272   2.723   9.825 -0.1889 -4.2126 -3.0533
 1009MOL0     H36158  10.290   2.614  10.073  1.6778 -1.1213  0.0739
 1009MOL0     H36159  10.452   2.671  10.066 -0.3780  0.6016  1.0853
 1009MOL0     H36160  10.392   2.907  10.032 -0.3243 -0.9830 -1.1170
 1009MOL0     H36161  10.225   2.862  10.005  0.3774  3.1971  0.8326
 1009MOL0     H36162  10.221   2.771  10.235 -4.0960  1.6552 -1.4394
 1009MOL0     H36163  10.381   2.869  10.253  0.4337  3.1907 -2.6689
 1009MOL0     H36164  10.125   2.986  10.164 -0.6442  3.2984  0.3306
 1009MOL0     H36165  10.262   3.065  10.237 -1.0244  0.5244  1.6591
 1009MOL0     H36166  10.344   2.951  10.522 -1.1979  1.5327 -0.9790
 1009MOL0     H36167  10.268   2.961  10.778 -0.0241  0.3478 -0.2202
 1009MOL0     H36168  10.198   3.108  10.725 -0.7425 -0.2526 -2.3460
 1009MOL0     H36169  10.031   2.867  10.829  0.7168  0.3517  2.7162
 1009MOL0     H36170   9.963   3.014  10.779 -1.3937 -1.1762  0.1028
 1009MOL0     H36171  10.133   3.126  10.939  2.0745 -0.6633 -1.2180
 1009MOL0     H36172  10.160   2.973  11.011 -0.0165  1.5785 -0.8471
 1009MOL0     H36173   9.904   2.947  11.035  1.0349 -0.7023  0.8235
 1009MOL0     H36174   9.883   3.121  10.977  0.5297  2.6876  2.6520
 1009MOL0     H36175   9.785   3.275  11.210  0.1884 -1.0127 -2.2918
 1009MOL0     H36176   9.456   3.251  11.276 -0.8584  2.1179 -0.8874
 1009MOL0     H36177   9.520   3.266  11.447 -0.2557 -0.5983  0.2888
 1009MOL0     H36178   9.590   3.346  11.295 -1.3457  0.0807 -2.1005
 1009MOL0     H36179   9.323   2.805  11.553 -0.6146  0.1442 -0.3446
 1009MOL0     H36180   9.091   2.720  11.596  3.0222  0.1242  0.4328
 1009MOL0     H36181   8.840   2.699  11.635  3.2752 -0.4282  0.6688
 1009MOL0     H36182   8.933   2.747  11.775  0.2785  2.1458  1.0964
 1009MOL0     H36183   8.713   2.699  11.865 -1.2442 -0.2804  0.8318
 1009MOL0     H36184   8.746   2.868  11.868 -2.0421 -0.0260 -0.6871
 1009MOL0     H36185   8.559   2.925  11.752  1.5164  0.2738  0.3306
 1009MOL0     H36186   8.510   2.764  11.802 -1.2473  0.1421 -0.7813
 1009MOL0     H36187   8.651   2.837  11.544  0.7289  3.2835  2.2301
 1009MOL0     H36188   8.564   2.684  11.577 -2.4028  0.0027  1.8303
 1009MOL0     H36189   8.352   2.821  11.589  0.3717 -3.6198 -0.6700
 1009MOL0     H36190   8.422   2.782  11.449 -1.2517 -1.0905  0.8855
 1009MOL0     H36191   8.361   3.040  11.479  1.6947  1.0405 -2.7608
 1009MOL0     H36192   8.500   3.061  11.582 -1.0532  1.9821 -0.7612
 1009MOL0     H36193   8.476   2.984  11.282  3.7084 -1.8254 -1.3270
 1009MOL0     H36194   8.627   2.972  11.354 -1.5915 -0.4432 -1.9636
 1009MOL0     H36195   8.435   3.222  11.336 -0.1879 -0.3013  0.6660
 1009MOL0     H36196   8.577   3.191  11.236 -0.1548 -0.2989  0.9137
 1009MOL0     H36197   8.953   3.128  11.562  0.3445 -1.1119  0.2149
 1009MOL0     H36198   9.172   3.186  11.452  1.0988 -0.3581  0.1492
 1009MOL0     H36199   9.711   2.814  11.379  2.3426 -1.2430 -1.3031
 1009MOL0     H36200   9.915   2.870  11.252  0.4904  1.7419  1.0459
 1009MOL0     H36201  10.001   2.197   9.676  1.0438 -1.0422  0.2561
 1009MOL0     H36202   9.865   2.129   9.498  0.1394  0.2632  0.2177
 1009MOL0     H36203   9.931   1.957   9.043  1.1403  1.7390  1.6071
 1009MOL0     H36204   9.820   1.859   8.835  1.3843 -1.4135  1.0904
 1009MOL0     H36205   9.401   1.824   8.891  1.7695 -0.2446  1.3968
 1009MOL0     H36206   9.383   1.951   8.769  2.0695  0.5953 -3.5913
 1009MOL0     H36207   9.401   1.824   8.588 -1.2964 -0.3360 -0.9033
 1009MOL0     H36208   9.266   1.749   8.679  0.3088 -1.1280 -0.7993
 1009MOL0     H36209   9.417   1.569   8.745  1.4718 -0.3714  1.1584
 1009MOL0     H36210   9.551   1.659   8.677 -0.3699  2.7630 -0.7924
 1009MOL0     H36211   9.494   1.504   8.491 -0.1373 -0.2270 -0.5126
 1009MOL0     H36212   9.442   1.655   8.442 -0.6470 -1.7332 -1.7582
 1009MOL0     H36213   9.121   1.385   8.437  1.6694 -3.8121  3.0011
 1009MOL0     H36214   9.441   2.025   8.977 -0.2179  0.0316  1.2169
 1009MOL0     H36215   9.552   2.151   9.140 -1.5248 -1.4508 -0.6744
 1010MOL0     O36216   6.055   6.021   9.276 -0.1147  0.1686  0.0108
 1010MOL0     C36217   5.998   5.908   9.277 -0.1619  0.0169  0.4330
 1010MOL0     O36218   6.061   5.785   9.245 -0.0927 -0.4261 -0.6105
 1010MOL0     C36219   6.192   5.766   9.244  0.0496 -0.8144 -0.8859
 1010MOL0     C36220   6.259   5.703   9.137 -0.0665  0.0945  0.6569
 1010MOL0     C36221   6.395   5.703   9.124  0.1998  0.0537  0.3174
 1010MOL0     C36222   6.470   5.762   9.230 -0.0930 -0.0490  0.0761
 1010MOL0     O36223   6.608   5.750   9.241 -0.0312  0.2782  0.7438
 1010MOL0     C36224   6.685   5.658   9.162  0.0923 -0.2582  0.8556
 1010MOL0     C36225   6.830   5.696   9.182  0.0712  0.0083 -0.7736
 1010MOL0     C36226   6.923   5.601   9.123 -0.1560  0.3253  0.2988
 1010MOL0     C36227   7.070   5.643   9.161 -0.3601  0.1422 -0.2131
 1010MOL0     C36228   7.171   5.543   9.098 -0.7802 -0.2934 -0.9014
 1010MOL0     C36229   7.299   5.541   9.189 -0.2315 -0.4364  0.9624
 1010MOL0     C36230   7.426   5.460   9.119  0.4705 -0.7916 -0.9212
 1010MOL0     C36231   7.563   5.531   9.151  0.2808  0.0327 -0.0364
 1010MOL0     N36232   7.586   5.532   9.297  0.6243 -0.4130 -0.3111
 1010MOL0     C36233   7.571   5.417   9.372 -0.0964 -0.6901  0.4131
 1010MOL0     C36234   7.545   5.460   9.500  0.0254 -1.1280 -0.8250
 1010MOL0     C36235   7.505   5.378   9.613  0.4886 -0.3320  0.9294
 1010MOL0     C36236   7.354   5.351   9.609  0.0306 -0.3546 -0.1961
 1010MOL0     C36237   7.272   5.479   9.632 -0.8124 -0.4093  0.4405
 1010MOL0     C36238   7.127   5.466   9.570  0.1176  0.7510  0.4520
 1010MOL0     O36239   7.067   5.343   9.609  0.0214  0.3753  0.3987
 1010MOL0     C36240   6.923   5.341   9.603 -0.6520  0.5410  0.4770
 1010MOL0     C36241   6.849   5.438   9.546  0.7187 -0.9598  0.5342
 1010MOL0     C36242   6.711   5.445   9.552  0.1306 -0.0485  1.0218
 1010MOL0     C36243   6.639   5.578   9.497 -0.8276  0.7160  0.6752
 1010MOL0     C36244   6.637   5.343   9.626  0.6926  0.5859  0.7048
 1010MOL0     C36245   6.485   5.333   9.624  0.4059  0.4741 -0.2543
 1010MOL0     O36246   6.413   5.417   9.534 -0.2520 -0.2831  0.2215
 1010MOL0     C36247   6.276   5.409   9.524 -0.0695  0.1984 -0.3535
 1010MOL0     C36248   6.199   5.530   9.530 -0.0671  0.0663  0.3343
 1010MOL0     C36249   6.061   5.531   9.530 -0.1233  0.8302 -0.5727
 1010MOL0     C36250   5.995   5.414   9.513  0.5560 -0.2066 -0.7060
 1010MOL0     O36251   5.851   5.431   9.492 -0.2994  0.5603 -0.3636
 1010MOL0     C36252   5.767   5.314   9.468 -0.7260  0.2610 -0.4669
 1010MOL0     C36253   5.623   5.361   9.502  0.5198  0.2483  0.1404
 1010MOL0     C36254   5.613   5.397   9.655  0.5963 -0.3033  0.5215
 1010MOL0     C36255   5.481   5.437   9.700  0.1672  0.1347  0.0502
 1010MOL0     C36256   5.423   5.556   9.614  0.6910  0.7033 -0.1132
 1010MOL0     C36257   5.326   5.649   9.684 -0.0434 -0.4160 -0.2622
 1010MOL0     C36258   5.241   5.750   9.603  0.9959  0.4127  0.2256
 1010MOL0     C36259   5.142   5.838   9.692 -0.8136 -0.1826 -0.7950
 1010MOL0    Cl36260   5.237   5.909   9.830 -0.2129  0.0759  0.2153
 1010MOL0     C36261   6.065   5.287   9.506  1.1210 -0.1025  0.3989
 1010MOL0     C36262   6.204   5.284   9.513  0.5180  0.4936 -0.1869
 1010MOL0     O36263   6.432   5.265   9.710  0.3662  0.7766  0.1546
 1010MOL0     C36264   6.712   5.246   9.684 -0.5285 -1.0816  0.0359
 1010MOL0     C36265   6.851   5.248   9.677  0.2876  0.3898  0.0801
 1010MOL0     N36266   7.538   5.610   9.500  0.4721  1.3669  0.4427
 1010MOL0     N36267   7.555   5.639   9.373 -0.4881 -0.1853 -0.2204
 1010MOL0     C36268   6.408   5.827   9.342 -0.1910  0.2785  0.9598
 1010MOL0     C36269   6.271   5.827   9.339 -0.3499 -0.3577  0.6983
 1010MOL0     C36270   5.854   5.907   9.311 -0.4536 -0.3524  0.6657
 1010MOL0     C36271   5.795   6.029   9.334 -0.8365 -0.3291  0.3284
 1010MOL0     C36272   5.659   6.034   9.349 -0.0372  0.4570  0.2621
 1010MOL0     C36273   5.586   5.913   9.355 -0.9456 -0.4117 -0.5910
 1010MOL0     O36274   5.450   5.897   9.359 -0.0185 -0.1491 -0.0265
 1010MOL0     C36275   5.360   6.012   9.369  0.0078  0.2112  0.1688
 1010MOL0     C36276   5.373   6.081   9.508  1.2485  0.6558 -0.6372
 1010MOL0     C36277   5.288   6.214   9.526 -1.0104  1.4373 -0.0492
 1010MOL0     C36278   5.319   6.317   9.416 -0.1186 -1.0083  0.8903
 1010MOL0     C36279   5.457   6.376   9.414 -0.0145 -0.6432 -0.0750
 1010MOL0     C36280   5.559   6.437   9.423  0.1774 -0.2082 -0.0273
 1010MOL0     C36281   5.643   5.790   9.352  0.9963 -0.5203 -0.2710
 1010MOL0     C36282   5.778   5.788   9.335  0.6522  0.3643  0.6894
 1010MOL0     H36283   6.197   5.668   9.054 -0.2571 -1.1782  1.3119
 1010MOL0     H36284   6.428   5.665   9.028 -2.3977  0.0063 -0.6361
 1010MOL0     H36285   6.671   5.554   9.194 -0.1178 -0.5682 -0.1905
 1010MOL0     H36286   6.648   5.656   9.059 -1.1250  1.2193  1.2358
 1010MOL0     H36287   6.829   5.795   9.137 -3.8840  0.0052 -1.0178
 1010MOL0     H36288   6.851   5.702   9.289  5.0328 -0.9164 -1.4466
 1010MOL0     H36289   6.893   5.506   9.168 -1.3756  1.6951  2.5376
 1010MOL0     H36290   6.914   5.582   9.016  2.6807  1.3969 -0.2327
 1010MOL0     H36291   7.097   5.741   9.121  2.2595  0.6055  2.3251
 1010MOL0     H36292   7.072   5.640   9.271  1.4551 -3.0711 -0.2188
 1010MOL0     H36293   7.128   5.444   9.087  0.4201 -1.1239  1.2335
 1010MOL0     H36294   7.193   5.571   8.995  1.7829  1.6587  0.0444
 1010MOL0     H36295   7.321   5.643   9.221 -0.6705  0.8062 -2.2959
 1010MOL0     H36296   7.270   5.487   9.279 -2.9095 -2.5355 -0.9756
 1010MOL0     H36297   7.429   5.356   9.154 -0.9016 -0.8908 -1.0377
 1010MOL0     H36298   7.421   5.465   9.010  0.6844 -2.3127 -1.0225
 1010MOL0     H36299   7.564   5.630   9.105 -1.4716  0.0865 -0.0115
 1010MOL0     H36300   7.638   5.479   9.090  0.6241  0.4084  0.0622
 1010MOL0     H36301   7.581   5.314   9.338 -2.9637 -0.6301 -0.9442
 1010MOL0     H36302   7.563   5.286   9.622 -0.0389 -0.6803  0.7800
 1010MOL0     H36303   7.533   5.437   9.701  2.2395 -1.9867  1.5522
 1010MOL0     H36304   7.317   5.268   9.669  0.9585 -0.3652  0.3992
 1010MOL0     H36305   7.308   5.324   9.513 -3.3405  2.1339  0.5167
 1010MOL0     H36306   7.321   5.570   9.596 -0.2825 -0.3493  1.2879
 1010MOL0     H36307   7.259   5.494   9.740 -4.3112 -0.0084  0.0714
 1010MOL0     H36308   7.134   5.473   9.461  2.1142  2.7288  0.6294
 1010MOL0     H36309   7.076   5.548   9.622  0.4490  0.1782  1.7138
 1010MOL0     H36310   6.898   5.526   9.505 -1.9921 -0.4512 -1.9552
 1010MOL0     H36311   6.714   5.652   9.470 -0.3521 -0.1623 -0.5076
 1010MOL0     H36312   6.579   5.558   9.408  0.9750  0.6693 -0.5823
 1010MOL0     H36313   6.568   5.620   9.569 -0.3492  2.0158  0.4076
 1010MOL0     H36314   6.254   5.623   9.528 -2.7706  1.7764 -2.4322
 1010MOL0     H36315   6.017   5.630   9.538 -1.4433  0.2814 -0.8057
 1010MOL0     H36316   5.774   5.272   9.367  2.1627 -4.2514  1.3043
 1010MOL0     H36317   5.790   5.234   9.539  2.6948  1.9772  0.5502
 1010MOL0     H36318   5.595   5.439   9.431 -1.5762 -1.1593 -0.7152
 1010MOL0     H36319   5.547   5.286   9.475  0.7347  0.3419 -0.7614
 1010MOL0     H36320   5.678   5.481   9.679  1.4192 -0.4410 -1.0959
 1010MOL0     H36321   5.631   5.309   9.718  2.1711 -1.4654 -1.4168
 1010MOL0     H36322   5.427   5.342   9.700  0.6494 -0.1508  0.7297
 1010MOL0     H36323   5.478   5.474   9.803 -0.5040 -1.3376  0.5794
 1010MOL0     H36324   5.370   5.516   9.527  1.3620  3.4055 -1.8866
 1010MOL0     H36325   5.500   5.615   9.565  1.2401  2.0835  2.2606
 1010MOL0     H36326   5.248   5.599   9.742 -0.6632  1.8261  0.9548
 1010MOL0     H36327   5.380   5.704   9.762 -1.6338 -0.5712  0.9909
 1010MOL0     H36328   5.187   5.701   9.521  0.2775  0.4585  0.6632
 1010MOL0     H36329   5.303   5.816   9.541 -0.9346 -0.1368 -2.4945
 1010MOL0     H36330   5.065   5.775   9.738  1.2742 -1.9666  0.4921
 1010MOL0     H36331   5.093   5.921   9.640  0.8111  0.4375 -1.4142
 1010MOL0     H36332   6.005   5.200   9.480  0.9342  0.7164 -2.2164
 1010MOL0     H36333   6.252   5.187   9.500 -2.6062 -1.4028  1.2925
 1010MOL0     H36334   6.669   5.165   9.743 -2.4133  0.6823  1.2364
 1010MOL0     H36335   6.907   5.169   9.727  0.4048  0.6003  0.2866
 1010MOL0     H36336   6.453   5.864   9.434 -1.1079  1.3526  0.9961
 1010MOL0     H36337   6.226   5.867   9.430 -2.1157  0.7834 -0.6080
 1010MOL0     H36338   5.851   6.122   9.327  1.1411 -1.1953  3.0905
 1010MOL0     H36339   5.622   6.136   9.361  1.6863  0.9841  1.6719
 1010MOL0     H36340   5.380   6.081   9.287 -0.2027  0.0353 -0.0321
 1010MOL0     H36341   5.262   5.965   9.353  1.0037 -0.8495 -4.0863
 1010MOL0     H36342   5.479   6.104   9.521  1.2790 -0.5034  1.6168
 1010MOL0     H36343   5.350   6.000   9.578 -0.2909  0.7409 -1.0096
 1010MOL0     H36344   5.313   6.250   9.626 -1.7027 -2.3107  1.6908
 1010MOL0     H36345   5.183   6.185   9.516 -1.8019  4.4315 -1.4308
 1010MOL0     H36346   5.251   6.399   9.439 -0.2506 -0.0364 -2.4033
 1010MOL0     H36347   5.289   6.284   9.316  1.4496 -0.6458  0.2655
 1010MOL0     H36348   5.655   6.485   9.433 -1.3807  3.5394 -1.1093
 1010MOL0     H36349   5.578   5.704   9.362 -0.0270  0.3780  1.0624
 1010MOL0     H36350   5.816   5.688   9.316 -1.3681 -0.2313 -0.6705
 1011MOL0     O36351  11.302   7.895   8.835  0.1746  0.4809  0.5129
 1011MOL0     C36352  11.214   7.812   8.847 -0.3674 -0.1679 -0.0869
 1011MOL0     O36353  11.112   7.800   8.755 -0.3106  0.3403 -0.6125
 1011MOL0     C36354  11.111   7.857   8.628  0.2421  0.3709 -0.1537
 1011MOL0     C36355  10.996   7.939   8.601  0.0544  0.8492  0.3419
 1011MOL0     C36356  10.983   8.016   8.486  0.0159  0.4495  0.3467
 1011MOL0     C36357  11.080   8.011   8.387  0.6475  0.8634  0.8935
 1011MOL0     O36358  11.083   8.098   8.276 -0.0662 -0.1871  0.5874
 1011MOL0     C36359  11.015   8.226   8.269  0.1519 -0.3811 -0.0630
 1011MOL0     C36360  11.056   8.267   8.124 -0.5226 -0.2064  0.2775
 1011MOL0     C36361  10.959   8.369   8.061 -0.5073 -0.1463 -0.5544
 1011MOL0     C36362  10.931   8.353   7.908 -0.8908  0.1684 -0.0782
 1011MOL0     C36363  10.816   8.438   7.857  0.7940 -0.4432  0.0343
 1011MOL0     C36364  10.680   8.375   7.875 -0.2276  0.0915  0.0441
 1011MOL0     C36365  10.578   8.462   7.785  0.5254  0.6925 -0.5600
 1011MOL0     C36366  10.450   8.380   7.776  0.4565  0.4950 -0.7180
 1011MOL0     N36367  10.343   8.446   7.691  0.0505  0.2326  0.1405
 1011MOL0     C36368  10.324   8.449   7.553  0.1689  0.3465 -0.7482
 1011MOL0     C36369  10.211   8.523   7.533  0.2004  0.1256  0.1235
 1011MOL0     C36370  10.144   8.557   7.402  0.1777  0.0171  0.2363
 1011MOL0     C36371  10.012   8.474   7.391  0.5152 -0.4711 -0.0935
 1011MOL0     C36372   9.936   8.547   7.278 -0.0635 -0.4918 -0.2630
 1011MOL0     C36373   9.815   8.478   7.230 -0.8015 -0.4555  0.5437
 1011MOL0     O36374   9.749   8.435   7.350  0.1177  0.3625  0.0000
 1011MOL0     C36375   9.626   8.376   7.318 -0.5922 -0.7643 -0.0957
 1011MOL0     C36376   9.507   8.440   7.344  0.9963  0.0753 -1.1174
 1011MOL0     C36377   9.379   8.397   7.299 -0.3304 -0.2421 -0.7813
 1011MOL0     C36378   9.268   8.492   7.328 -0.4506  0.0191 -0.0790
 1011MOL0     C36379   9.371   8.270   7.236 -0.7985 -0.2864 -0.5130
 1011MOL0     C36380   9.241   8.214   7.202  0.2194  0.5961  0.8577
 1011MOL0     O36381   9.148   8.207   7.298 -0.0406 -0.0468  0.8215
 1011MOL0     C36382   9.018   8.172   7.278 -0.0055 -0.3568 -0.3554
 1011MOL0     C36383   8.975   8.043   7.313  0.6939  0.1362 -0.3625
 1011MOL0     C36384   8.838   7.999   7.308  0.1525 -0.6332 -0.1353
 1011MOL0     C36385   8.753   8.082   7.234  0.1634  0.0995 -0.0981
 1011MOL0     O36386   8.631   8.029   7.213  0.0306  0.4553  0.7254
 1011MOL0     C36387   8.547   8.080   7.113 -0.4143 -0.0827  0.2552
 1011MOL0     C36388   8.415   8.000   7.136 -0.1087  0.2256 -0.2897
 1011MOL0     C36389   8.315   8.024   7.014 -0.7318 -0.5814  0.3953
 1011MOL0     C36390   8.184   7.953   7.050 -0.5503  0.1335  0.4591
 1011MOL0     C36391   8.086   7.956   6.930 -0.6738 -0.5251  0.2811
 1011MOL0     C36392   8.015   8.092   6.925  0.5496  0.0246 -0.1478
 1011MOL0     C36393   7.888   8.095   6.843  0.7840  0.4630  0.0446
 1011MOL0     C36394   7.918   8.087   6.699 -1.5802 -0.7266 -0.4522
 1011MOL0    Cl36395   7.765   8.072   6.616  0.1694 -0.3537  0.2323
 1011MOL0     C36396   8.790   8.205   7.184  0.1131  0.2002 -0.2317
 1011MOL0     C36397   8.921   8.252   7.209 -0.0987 -0.5497 -0.2150
 1011MOL0     O36398   9.224   8.180   7.082 -0.5035 -0.0945 -0.6383
 1011MOL0     C36399   9.494   8.201   7.208 -0.8706  0.1503 -0.7857
 1011MOL0     C36400   9.615   8.251   7.256 -0.3904  0.1448  0.4379
 1011MOL0     N36401  10.163   8.560   7.665 -0.1105 -1.0494  0.3037
 1011MOL0     N36402  10.245   8.517   7.751 -0.4132 -0.0122 -1.1422
 1011MOL0     C36403  11.198   7.937   8.408  0.6326  0.0763  0.4321
 1011MOL0     C36404  11.212   7.861   8.524  0.4455 -0.5527 -0.8228
 1011MOL0     C36405  11.222   7.722   8.961  0.7177  0.2530 -1.1453
 1011MOL0     C36406  11.295   7.751   9.077 -0.2540 -0.0868  0.3388
 1011MOL0     C36407  11.296   7.677   9.193 -0.5312 -0.3517 -0.0066
 1011MOL0     C36408  11.207   7.566   9.195  0.3119 -0.7065 -0.1431
 1011MOL0     O36409  11.181   7.485   9.303  0.2934 -0.5576 -0.7580
 1011MOL0     C36410  11.269   7.499   9.420 -0.7505  0.3993  0.8632
 1011MOL0     C36411  11.353   7.365   9.421  0.1628  0.4111  0.0574
 1011MOL0     C36412  11.267   7.236   9.437 -0.5091 -0.2745 -0.2252
 1011MOL0     C36413  11.338   7.112   9.398  0.7104 -0.2773 -0.5861
 1011MOL0     C36414  11.259   6.991   9.426  1.3560 -1.1992 -0.7772
 1011MOL0     C36415  11.192   6.896   9.465 -0.6158  0.2860 -1.0430
 1011MOL0     C36416  11.139   7.524   9.081 -0.2895  0.1235  0.3356
 1011MOL0     C36417  11.139   7.607   8.965  0.6626  0.5209  0.1379
 1011MOL0     H36418  10.909   7.948   8.666  0.3149 -0.6266  0.9246
 1011MOL0     H36419  10.907   8.093   8.488  0.3605  0.8075 -0.2386
 1011MOL0     H36420  10.906   8.230   8.275  0.1986 -1.2446  2.3363
 1011MOL0     H36421  11.046   8.302   8.342 -1.9319  1.0747 -0.5908
 1011MOL0     H36422  11.160   8.300   8.123 -0.9848  1.3352 -0.4822
 1011MOL0     H36423  11.050   8.180   8.058  2.3029  0.1051 -0.5034
 1011MOL0     H36424  10.862   8.360   8.110 -2.0662  0.0887 -3.4041
 1011MOL0     H36425  11.007   8.467   8.067  0.0179 -0.2476 -2.3266
 1011MOL0     H36426  11.023   8.381   7.856  0.0155 -3.2240 -0.5100
 1011MOL0     H36427  10.912   8.246   7.893 -2.2894  0.3590  0.1976
 1011MOL0     H36428  10.821   8.540   7.895  0.4131 -0.7995  1.0674
 1011MOL0     H36429  10.824   8.432   7.748 -0.7828  0.0065 -0.1231
 1011MOL0     H36430  10.689   8.271   7.843  1.6521 -0.0824  0.9710
 1011MOL0     H36431  10.652   8.376   7.981 -0.8212  0.1842 -0.1114
 1011MOL0     H36432  10.553   8.563   7.820  0.9598  1.4906 -2.4423
 1011MOL0     H36433  10.626   8.469   7.687 -0.8645  2.9412 -1.1617
 1011MOL0     H36434  10.414   8.351   7.875  0.2721  2.3803 -0.1831
 1011MOL0     H36435  10.476   8.292   7.717 -3.9167 -0.7694 -1.0924
 1011MOL0     H36436  10.384   8.390   7.485  0.8883 -2.4589  2.0854
 1011MOL0     H36437  10.131   8.665   7.395 -1.7079 -0.1672  0.3310
 1011MOL0     H36438  10.206   8.524   7.318  0.7779  2.4001 -0.3341
 1011MOL0     H36439   9.957   8.478   7.485 -3.1003  0.1060 -2.0812
 1011MOL0     H36440  10.036   8.371   7.361 -0.4560 -0.6099 -0.4292
 1011MOL0     H36441   9.995   8.575   7.190  0.0526  3.7533  0.9285
 1011MOL0     H36442   9.913   8.643   7.325  0.6234 -0.2354 -0.4399
 1011MOL0     H36443   9.841   8.389   7.172  2.2646 -0.9888  2.4793
 1011MOL0     H36444   9.744   8.528   7.164 -0.4046 -2.3576 -1.4036
 1011MOL0     H36445   9.501   8.532   7.401 -2.5671 -1.0620  0.6400
 1011MOL0     H36446   9.229   8.483   7.430  0.5920  0.9596  0.4115
 1011MOL0     H36447   9.290   8.596   7.306 -1.5577  0.0672 -1.0907
 1011MOL0     H36448   9.190   8.470   7.254 -0.7788 -1.2537  0.6133
 1011MOL0     H36449   9.049   7.974   7.351 -0.5531 -1.0455  0.0007
 1011MOL0     H36450   8.816   7.894   7.321 -1.3109 -0.3276 -0.0520
 1011MOL0     H36451   8.526   8.185   7.134  2.9699  1.3303 -2.4866
 1011MOL0     H36452   8.583   8.060   7.012 -1.6441  3.6551 -1.0680
 1011MOL0     H36453   8.438   7.894   7.152 -0.3708  0.3720  1.1464
 1011MOL0     H36454   8.372   8.041   7.227 -0.1049 -3.3363  1.4842
 1011MOL0     H36455   8.354   7.973   6.925 -3.9348 -1.5201 -0.5816
 1011MOL0     H36456   8.289   8.129   6.997 -4.3389 -1.0805  1.9156
 1011MOL0     H36457   8.211   7.850   7.074  0.1571  0.2837  0.3355
 1011MOL0     H36458   8.143   7.990   7.144 -0.5585  0.5031  0.3115
 1011MOL0     H36459   8.017   7.871   6.941  0.9153 -1.6506  2.2433
 1011MOL0     H36460   8.125   7.940   6.829 -0.5305 -1.3730  0.4648
 1011MOL0     H36461   7.983   8.117   7.027 -2.9710 -0.5544 -0.9713
 1011MOL0     H36462   8.080   8.169   6.883  0.9964 -0.4412 -0.3174
 1011MOL0     H36463   7.833   8.189   6.852 -0.4129  0.0222 -2.0599
 1011MOL0     H36464   7.829   8.010   6.877  1.9223 -0.5689 -0.4854
 1011MOL0     H36465   7.980   7.999   6.679 -2.6560 -1.8201  0.7949
 1011MOL0     H36466   7.977   8.174   6.669  1.5008 -1.4569  2.7845
 1011MOL0     H36467   8.723   8.272   7.131  1.3033 -1.0797 -3.6266
 1011MOL0     H36468   8.964   8.348   7.185 -2.5010  0.7715  0.5129
 1011MOL0     H36469   9.494   8.110   7.150  0.5486 -0.1052 -0.4206
 1011MOL0     H36470   9.699   8.183   7.250 -2.2674 -2.7503  3.4135
 1011MOL0     H36471  11.273   7.927   8.329 -0.7541 -1.2440 -0.7868
 1011MOL0     H36472  11.303   7.812   8.559  0.1892  1.4841  3.2844
 1011MOL0     H36473  11.351   7.843   9.070 -2.1351  1.2182  1.5857
 1011MOL0     H36474  11.359   7.712   9.273  0.1910  1.0445 -1.1478
 1011MOL0     H36475  11.333   7.587   9.417  0.7242 -0.6529 -1.5643
 1011MOL0     H36476  11.195   7.491   9.501 -2.3011 -2.3950 -0.6785
 1011MOL0     H36477  11.422   7.374   9.506  0.1729  2.3539 -0.1054
 1011MOL0     H36478  11.410   7.371   9.328 -1.9628  0.5000 -1.3121
 1011MOL0     H36479  11.175   7.243   9.378 -2.0467 -2.1994  1.8055
 1011MOL0     H36480  11.250   7.239   9.545  2.3278 -3.1663  0.4573
 1011MOL0     H36481  11.436   7.105   9.444  1.5187 -1.1547 -2.3393
 1011MOL0     H36482  11.340   7.106   9.289  2.1038  0.9975 -0.6568
 1011MOL0     H36483  11.136   6.817   9.512 -1.4529 -0.4741 -3.1983
 1011MOL0     H36484  11.067   7.443   9.086  1.7456 -1.8655 -0.7100
 1011MOL0     H36485  11.076   7.575   8.882  1.8902 -2.4167  0.2080
 1012MOL0     O36486  10.430   0.763   1.087  1.0712 -0.4276  1.0038
 1012MOL0     C36487  10.384   0.874   1.076  0.3666 -0.3551  0.4250
 1012MOL0     O36488  10.336   0.954   1.182 -0.1040  0.0098 -0.8967
 1012MOL0     C36489  10.352   0.921   1.314  0.5389 -0.2264 -0.1984
 1012MOL0     C36490  10.413   0.812   1.375  0.3146  0.3623 -0.9879
 1012MOL0     C36491  10.413   0.789   1.512 -0.1333  0.2677 -0.6414
 1012MOL0     C36492  10.358   0.882   1.591  0.4850  0.6631 -0.0858
 1012MOL0     O36493  10.354   0.869   1.731 -0.1804 -0.0682  0.4579
 1012MOL0     C36494  10.455   0.791   1.793 -0.2355  0.0810  0.9074
 1012MOL0     C36495  10.476   0.841   1.942  0.8081  0.3396 -0.0365
 1012MOL0     C36496  10.503   0.991   1.945  0.9061  0.1178  0.4134
 1012MOL0     C36497  10.510   1.034   2.088 -0.2558  0.0953 -0.6294
 1012MOL0     C36498  10.546   1.188   2.091  0.2278 -0.5716 -0.4107
 1012MOL0     C36499  10.528   1.231   2.246  0.3849  0.5729 -0.4411
 1012MOL0     C36500  10.559   1.373   2.277 -1.1009  0.2842 -0.1509
 1012MOL0     C36501  10.560   1.403   2.422  0.3774  0.2315 -0.2690
 1012MOL0     N36502  10.683   1.364   2.505 -0.2662 -0.5587 -0.2816
 1012MOL0     C36503  10.758   1.450   2.586  0.7505  0.5564  0.7776
 1012MOL0     C36504  10.861   1.375   2.618 -0.7530  0.0074  0.3487
 1012MOL0     C36505  10.972   1.401   2.717 -0.7102 -0.2578 -0.6202
 1012MOL0     C36506  11.096   1.423   2.628  0.1332  0.3669  0.0492
 1012MOL0     C36507  11.087   1.539   2.529 -0.3689 -0.7758 -0.3283
 1012MOL0     C36508  11.222   1.568   2.452  0.6845 -0.0052  0.0129
 1012MOL0     O36509  11.282   1.457   2.387 -0.1471  0.2152 -0.1084
 1012MOL0     C36510  11.395   1.464   2.306  0.3744 -0.7031  0.3190
 1012MOL0     C36511  11.459   1.583   2.272  0.6160  0.7113 -0.8870
 1012MOL0     C36512  11.568   1.580   2.190 -0.3159 -0.3082 -0.5563
 1012MOL0     C36513  11.631   1.716   2.194 -0.1575 -0.1756  0.3543
 1012MOL0     C36514  11.600   1.469   2.116 -0.3988  0.0479 -0.6218
 1012MOL0     C36515  11.716   1.463   2.026  0.2614 -0.4145 -0.9491
 1012MOL0     O36516  11.788   1.343   2.008 -0.2608  0.0637 -0.5013
 1012MOL0     C36517  11.877   1.325   1.902  0.5042 -0.3387  0.6075
 1012MOL0     C36518  11.983   1.406   1.881 -0.0945 -0.0189 -0.2467
 1012MOL0     C36519  12.086   1.365   1.796  0.2976  1.3863 -0.0281
 1012MOL0     C36520  12.084   1.241   1.737  0.0500  0.1430  1.0416
 1012MOL0     O36521  12.198   1.210   1.664 -0.4972 -0.9157 -0.2084
 1012MOL0     C36522  12.247   1.080   1.691 -1.1962 -0.0678  0.2732
 1012MOL0     C36523  12.373   1.056   1.602 -0.1366 -1.2116  0.7717
 1012MOL0     C36524  12.486   1.144   1.659  0.1598  0.0356 -0.2630
 1012MOL0     C36525  12.624   1.097   1.609 -0.1382 -0.0797 -0.8302
 1012MOL0     C36526  12.740   1.163   1.679  0.2848 -0.4544  1.0408
 1012MOL0     C36527  12.882   1.120   1.625  0.0142  0.6330 -0.7577
 1012MOL0     C36528  12.993   1.164   1.712 -0.9290  0.3258 -0.1546
 1012MOL0     C36529  13.132   1.182   1.642 -0.2717 -0.0322 -0.4802
 1012MOL0    Cl36530  13.207   1.026   1.614 -0.2776 -0.1409 -0.0218
 1012MOL0     C36531  11.972   1.167   1.743  0.2761  0.0097  0.2997
 1012MOL0     C36532  11.867   1.209   1.818  0.5088  0.0610 -0.0463
 1012MOL0     O36533  11.745   1.570   1.972  1.0464  0.6458  0.0667
 1012MOL0     C36534  11.547   1.351   2.161  0.1531  0.8442  0.6444
 1012MOL0     C36535  11.435   1.347   2.248  0.1327  0.5678 -0.0928
 1012MOL0     N36536  10.842   1.242   2.586  0.3692 -0.3971 -0.1122
 1012MOL0     N36537  10.728   1.238   2.525  0.2700  0.9175  0.3230
 1012MOL0     C36538  10.293   0.989   1.537  0.7306  0.1417  0.5007
 1012MOL0     C36539  10.290   1.015   1.395  0.0935 -0.7164 -0.3760
 1012MOL0     C36540  10.351   0.934   0.942  0.0171  0.3406  0.6000
 1012MOL0     C36541  10.244   1.019   0.920 -0.5150 -0.5612 -0.5706
 1012MOL0     C36542  10.220   1.072   0.788 -0.2275  0.1061  0.4371
 1012MOL0     C36543  10.301   1.034   0.678 -0.6178  0.6120  0.2336
 1012MOL0     O36544  10.291   1.096   0.549  0.0750 -0.2862 -0.2469
 1012MOL0     C36545  10.408   1.170   0.513 -0.5113  0.0316  0.5304
 1012MOL0     C36546  10.428   1.164   0.349  0.8840 -0.6780 -0.3957
 1012MOL0     C36547  10.448   1.027   0.285 -0.7518 -0.0210  1.2662
 1012MOL0     C36548  10.494   1.040   0.135 -0.6932  0.2656  0.2123
 1012MOL0     C36549  10.623   1.110   0.118  0.0546  0.3981  0.2201
 1012MOL0     C36550  10.725   1.172   0.109 -0.0279  0.4614  0.0151
 1012MOL0     C36551  10.402   0.940   0.705 -0.2044  0.6287  1.0742
 1012MOL0     C36552  10.426   0.894   0.835  0.9199  0.2060 -0.5552
 1012MOL0     H36553  10.458   0.733   1.316  3.0733  1.8750 -1.0891
 1012MOL0     H36554  10.462   0.705   1.559 -2.7246 -1.4939 -0.8557
 1012MOL0     H36555  10.436   0.683   1.789 -1.4210  0.3061 -1.2292
 1012MOL0     H36556  10.549   0.808   1.740  0.3734  2.6122  2.6427
 1012MOL0     H36557  10.386   0.824   2.002  3.2448 -0.2716  3.7219
 1012MOL0     H36558  10.552   0.776   1.986 -0.4899 -1.3322 -0.1299
 1012MOL0     H36559  10.594   1.015   1.889 -1.0563  2.1548 -2.1586
 1012MOL0     H36560  10.423   1.047   1.896 -1.2679  0.8407  4.2984
 1012MOL0     H36561  10.411   1.025   2.133 -0.5478  3.4358 -0.3468
 1012MOL0     H36562  10.584   0.973   2.142  0.2693  1.1065 -0.1808
 1012MOL0     H36563  10.652   1.199   2.064  0.3380  1.3562  0.6519
 1012MOL0     H36564  10.487   1.249   2.023 -1.2869 -3.1327 -1.5301
 1012MOL0     H36565  10.420   1.221   2.257  0.3383 -1.4715 -2.0195
 1012MOL0     H36566  10.583   1.170   2.318  2.6982  1.0469 -1.7005
 1012MOL0     H36567  10.660   1.385   2.235 -0.5977 -0.0277  0.9318
 1012MOL0     H36568  10.489   1.446   2.234 -0.3303  2.6587  2.3235
 1012MOL0     H36569  10.471   1.363   2.471 -0.0562  2.9571  1.3613
 1012MOL0     H36570  10.545   1.511   2.429  0.5013  0.1456  1.8452
 1012MOL0     H36571  10.729   1.549   2.618  0.0035  0.0319  1.7764
 1012MOL0     H36572  10.938   1.476   2.789 -1.4363 -4.6750  4.2803
 1012MOL0     H36573  10.995   1.308   2.770  1.6290 -0.9289 -2.6639
 1012MOL0     H36574  11.109   1.327   2.576 -0.4010 -0.9017  2.1389
 1012MOL0     H36575  11.177   1.448   2.698 -0.8282 -2.1452  2.2299
 1012MOL0     H36576  11.062   1.625   2.592 -1.0677 -1.8791  0.9451
 1012MOL0     H36577  11.010   1.527   2.452  0.7936 -0.3323 -1.5910
 1012MOL0     H36578  11.301   1.629   2.498  1.1174  0.8267 -1.7421
 1012MOL0     H36579  11.203   1.633   2.366  1.3417 -1.6617 -1.4523
 1012MOL0     H36580  11.438   1.663   2.342  2.0265  0.9499 -0.7111
 1012MOL0     H36581  11.598   1.782   2.275 -0.7653  3.3421 -2.4961
 1012MOL0     H36582  11.739   1.705   2.210 -0.0927  1.0305  0.8798
 1012MOL0     H36583  11.609   1.769   2.100  1.8183 -0.2958 -0.2266
 1012MOL0     H36584  12.003   1.497   1.937 -1.2311 -0.0531  0.2379
 1012MOL0     H36585  12.178   1.417   1.775 -1.0398  3.8358 -0.1965
 1012MOL0     H36586  12.277   1.074   1.796  3.0243 -1.1953 -0.8157
 1012MOL0     H36587  12.176   1.005   1.655 -3.0010  1.0679  1.2970
 1012MOL0     H36588  12.395   0.949   1.594  0.1946 -0.9878 -3.3969
 1012MOL0     H36589  12.353   1.089   1.499  2.6328  0.9688  0.7930
 1012MOL0     H36590  12.471   1.153   1.767 -0.8024 -0.7713 -0.3074
 1012MOL0     H36591  12.475   1.244   1.617  0.7141 -0.5261 -1.8077
 1012MOL0     H36592  12.637   0.988   1.605  1.5643  0.0236  0.5785
 1012MOL0     H36593  12.636   1.134   1.507  2.4330  2.4440  0.2350
 1012MOL0     H36594  12.741   1.150   1.787  0.4945 -2.8450  0.8054
 1012MOL0     H36595  12.729   1.269   1.653 -1.0078 -0.2972  2.0769
 1012MOL0     H36596  12.877   1.012   1.613 -2.7874  0.7498 -1.3306
 1012MOL0     H36597  12.893   1.158   1.522  1.9999 -0.5510 -1.0481
 1012MOL0     H36598  12.998   1.096   1.797  0.7068  1.6950  0.9114
 1012MOL0     H36599  12.972   1.267   1.743 -2.9014  0.2578 -1.0538
 1012MOL0     H36600  13.192   1.252   1.700 -3.6720  1.7850  1.1383
 1012MOL0     H36601  13.097   1.230   1.550 -1.4395  2.5705  1.2142
 1012MOL0     H36602  11.963   1.074   1.689  0.3283  0.2955 -0.2030
 1012MOL0     H36603  11.783   1.140   1.821  1.1863 -0.8643 -1.6204
 1012MOL0     H36604  11.593   1.259   2.128 -3.4677 -0.8078 -0.2988
 1012MOL0     H36605  11.388   1.252   2.272 -0.7009  0.4338 -2.0536
 1012MOL0     H36606  10.264   1.054   1.619 -0.3901 -1.0633  1.0983
 1012MOL0     H36607  10.233   1.094   1.346  0.7511 -0.1714 -0.2841
 1012MOL0     H36608  10.174   1.047   0.998  1.5932  0.9318  0.9035
 1012MOL0     H36609  10.149   1.148   0.758 -0.2537 -0.5208 -1.1743
 1012MOL0     H36610  10.393   1.275   0.541  2.2443  1.2166 -1.8840
 1012MOL0     H36611  10.497   1.133   0.565  0.8855  0.4237 -1.4464
 1012MOL0     H36612  10.509   1.233   0.322  0.2693 -0.6805 -2.3820
 1012MOL0     H36613  10.331   1.199   0.313  1.4104 -3.0703 -4.7318
 1012MOL0     H36614  10.350   0.979   0.275  0.1244 -1.4277 -2.4707
 1012MOL0     H36615  10.507   0.955   0.341 -2.1317 -4.0918 -1.9939
 1012MOL0     H36616  10.423   1.088   0.067 -0.1207 -1.0592 -1.4113
 1012MOL0     H36617  10.505   0.933   0.113 -2.1789  0.2849 -0.7734
 1012MOL0     H36618  10.822   1.216   0.096  0.0491  0.3167  0.0860
 1012MOL0     H36619  10.481   0.927   0.632 -0.0199  1.5472  1.0987
 1012MOL0     H36620  10.518   0.838   0.846  0.0313 -1.2529 -0.3776
 1013MOL0     O36621   8.466   5.156   3.662 -0.2404  0.3781 -0.9318
 1013MOL0     C36622   8.356   5.139   3.620 -0.1661 -0.3640 -0.4304
 1013MOL0     O36623   8.321   5.161   3.499  0.2509 -0.0114  0.6342
 1013MOL0     C36624   8.384   5.223   3.397 -0.7652 -0.0836  0.0360
 1013MOL0     C36625   8.514   5.289   3.399  0.4920 -0.3183  0.1281
 1013MOL0     C36626   8.575   5.345   3.287  0.0917  0.0394 -0.0501
 1013MOL0     C36627   8.511   5.335   3.163 -0.5560  0.6248 -0.3954
 1013MOL0     O36628   8.584   5.414   3.075  0.7892  0.2920  0.3187
 1013MOL0     C36629   8.537   5.408   2.937  0.8556 -0.2662  0.6319
 1013MOL0     C36630   8.581   5.518   2.834 -0.0503 -0.3581 -0.0447
 1013MOL0     C36631   8.635   5.650   2.883  0.0923 -1.4333  0.8712
 1013MOL0     C36632   8.532   5.737   2.967  0.8081  0.3899 -0.4072
 1013MOL0     C36633   8.586   5.872   3.004 -0.2866  1.0986 -0.2373
 1013MOL0     C36634   8.708   5.855   3.089  0.0941  0.7530 -0.0921
 1013MOL0     C36635   8.673   5.786   3.221 -0.4908 -0.6089 -0.6823
 1013MOL0     C36636   8.747   5.846   3.341 -1.0720  0.7922  0.9662
 1013MOL0     N36637   8.695   5.793   3.468 -0.0538  0.0648  0.2837
 1013MOL0     C36638   8.562   5.812   3.516 -0.1896  0.3933  0.0198
 1013MOL0     C36639   8.546   5.715   3.609 -0.1724  0.9383  0.2246
 1013MOL0     C36640   8.435   5.676   3.697  0.0626  1.4666  0.8136
 1013MOL0     C36641   8.392   5.519   3.690 -0.0359 -0.5969  0.1298
 1013MOL0     C36642   8.243   5.485   3.644 -0.0154  0.0430 -1.1900
 1013MOL0     C36643   8.203   5.523   3.498  0.3575 -0.7680 -0.4468
 1013MOL0     O36644   8.223   5.668   3.483  0.0816  0.1733  0.3351
 1013MOL0     C36645   8.230   5.737   3.366  0.2887 -0.7297 -0.8971
 1013MOL0     C36646   8.214   5.873   3.371 -0.4186  0.7795 -1.4874
 1013MOL0     C36647   8.191   5.958   3.261  0.4818 -0.0508  0.1856
 1013MOL0     C36648   8.163   6.103   3.290  0.2821 -0.4469  0.3835
 1013MOL0     C36649   8.175   5.891   3.131  0.7117  0.2650 -0.0527
 1013MOL0     C36650   8.137   5.963   3.008 -0.5802  0.8126  0.3786
 1013MOL0     O36651   8.164   5.899   2.891  0.1680  0.1271  0.2153
 1013MOL0     C36652   8.103   5.953   2.782 -0.5369 -0.0545 -0.1240
 1013MOL0     C36653   7.976   5.919   2.729 -0.6594 -0.0815  1.4936
 1013MOL0     C36654   7.940   5.990   2.615 -0.3238 -0.5426  1.4744
 1013MOL0     C36655   8.023   6.103   2.560 -1.7286 -0.2568 -0.1470
 1013MOL0     O36656   7.982   6.183   2.453  0.1120  0.3356  0.3791
 1013MOL0     C36657   7.887   6.132   2.354  0.2839  0.5961 -0.5579
 1013MOL0     C36658   7.872   6.250   2.261 -0.5302  0.0482  0.5061
 1013MOL0     C36659   7.769   6.215   2.160  0.4832  0.4978 -1.1665
 1013MOL0     C36660   7.772   6.314   2.045 -0.6243  0.2602  0.4999
 1013MOL0     C36661   7.639   6.299   1.960  0.0544 -0.1365  0.5302
 1013MOL0     C36662   7.672   6.324   1.810  0.3279 -0.4810  0.0031
 1013MOL0     C36663   7.544   6.283   1.726  0.7296 -0.4643 -1.0882
 1013MOL0     C36664   7.567   6.317   1.574  0.2435  0.9569 -0.8851
 1013MOL0    Cl36665   7.694   6.197   1.526 -0.2618 -0.1162  0.3584
 1013MOL0     C36666   8.150   6.130   2.619  0.3686  0.3004  1.1963
 1013MOL0     C36667   8.190   6.049   2.725  0.9172  0.0468  0.7451
 1013MOL0     O36668   8.073   6.068   3.018 -0.1627 -0.0773 -0.5567
 1013MOL0     C36669   8.190   5.748   3.122  1.0379 -1.2630 -0.6005
 1013MOL0     C36670   8.210   5.675   3.247 -0.1640 -0.0820  0.3456
 1013MOL0     N36671   8.671   5.643   3.624 -0.2450 -0.3323 -0.3212
 1013MOL0     N36672   8.759   5.700   3.546  0.8193  0.6446  0.8399
 1013MOL0     C36673   8.380   5.273   3.156  0.0726 -0.1977 -0.1461
 1013MOL0     C36674   8.324   5.209   3.267 -0.7192 -0.0389  0.1079
 1013MOL0     C36675   8.248   5.078   3.706 -0.1877 -0.3085 -0.1375
 1013MOL0     C36676   8.115   5.069   3.651  0.3246 -1.1397  0.1487
 1013MOL0     C36677   8.010   5.032   3.731  0.2956 -0.3785  0.7466
 1013MOL0     C36678   8.035   4.987   3.865  1.3784  0.1285  0.1577
 1013MOL0     O36679   7.922   4.945   3.935 -0.1563  0.0805 -0.0184
 1013MOL0     C36680   7.858   4.826   3.891  0.0105 -0.3764 -0.2916
 1013MOL0     C36681   7.730   4.794   3.979 -0.2394  1.5161 -0.1164
 1013MOL0     C36682   7.612   4.887   3.942 -0.9471  0.2174 -0.4377
 1013MOL0     C36683   7.482   4.837   4.012  0.2248  1.0172 -0.0430
 1013MOL0     C36684   7.456   4.694   3.986  0.1433 -0.0309  0.1846
 1013MOL0     C36685   7.441   4.582   3.964 -0.4223  1.0622 -0.2767
 1013MOL0     C36686   8.160   4.988   3.918  0.0816  0.2224 -0.3564
 1013MOL0     C36687   8.262   5.035   3.835 -0.6230  0.7082 -0.2339
 1013MOL0     H36688   8.572   5.308   3.489  0.5239 -1.3037  0.3176
 1013MOL0     H36689   8.674   5.390   3.294  0.0079  0.0640  1.2356
 1013MOL0     H36690   8.563   5.312   2.891 -1.1061 -0.2756 -0.5991
 1013MOL0     H36691   8.428   5.421   2.929  1.0826  0.6529 -2.8063
 1013MOL0     H36692   8.649   5.465   2.766 -0.8621 -0.8081 -0.5313
 1013MOL0     H36693   8.494   5.518   2.767  1.0124 -2.0671 -1.5133
 1013MOL0     H36694   8.726   5.649   2.943  0.1706  4.6401  1.4858
 1013MOL0     H36695   8.655   5.710   2.794 -1.5164 -0.9629  0.7855
 1013MOL0     H36696   8.444   5.754   2.905  1.2844  0.3646 -1.1090
 1013MOL0     H36697   8.505   5.671   3.050 -0.2813  0.7553 -0.4617
 1013MOL0     H36698   8.620   5.927   2.916  0.1342  0.6129 -0.3824
 1013MOL0     H36699   8.505   5.925   3.056 -0.8830  0.8351 -0.8798
 1013MOL0     H36700   8.790   5.800   3.042 -0.3684 -0.4038  0.4180
 1013MOL0     H36701   8.723   5.962   3.103 -2.7089  1.3068 -0.6806
 1013MOL0     H36702   8.568   5.784   3.251 -0.5529  1.8202 -0.5270
 1013MOL0     H36703   8.707   5.682   3.216 -0.6974 -0.7152 -0.0147
 1013MOL0     H36704   8.748   5.955   3.345 -1.9478  0.8333  0.4211
 1013MOL0     H36705   8.851   5.815   3.324  0.0589  5.1905 -1.6126
 1013MOL0     H36706   8.476   5.872   3.486 -0.8014 -0.5684 -0.1663
 1013MOL0     H36707   8.452   5.698   3.803 -0.5323  3.5962  0.5082
 1013MOL0     H36708   8.352   5.742   3.670 -0.6657 -0.4739 -2.1492
 1013MOL0     H36709   8.431   5.468   3.779  0.0609  2.1180  1.7883
 1013MOL0     H36710   8.451   5.479   3.607  1.4512  3.7231 -1.1552
 1013MOL0     H36711   8.171   5.534   3.710  0.9058  1.5888 -1.2754
 1013MOL0     H36712   8.232   5.377   3.658 -1.5999  0.2095 -0.9820
 1013MOL0     H36713   8.097   5.503   3.480 -0.1062  1.4790 -0.5114
 1013MOL0     H36714   8.276   5.482   3.428  1.3381 -0.8704  0.5976
 1013MOL0     H36715   8.221   5.930   3.463  2.6773 -2.6267  0.6511
 1013MOL0     H36716   8.198   6.126   3.391 -1.1639  2.8442  0.2567
 1013MOL0     H36717   8.220   6.161   3.216  4.5312 -1.5678  2.4240
 1013MOL0     H36718   8.055   6.113   3.283 -0.0392 -0.1830  3.8283
 1013MOL0     H36719   7.923   5.830   2.758  1.1377 -0.9224  2.3796
 1013MOL0     H36720   7.856   5.956   2.555  1.0011 -2.4997  0.6414
 1013MOL0     H36721   7.925   6.039   2.310  0.3580 -0.1451  1.0308
 1013MOL0     H36722   7.785   6.114   2.389 -0.7457  0.2421 -3.4172
 1013MOL0     H36723   7.832   6.341   2.306 -2.1758  1.3292 -3.1787
 1013MOL0     H36724   7.967   6.257   2.207 -0.5152 -1.5951  0.2569
 1013MOL0     H36725   7.674   6.224   2.213  0.7614  0.3721 -0.6304
 1013MOL0     H36726   7.776   6.111   2.128 -0.7991 -0.1412  0.4747
 1013MOL0     H36727   7.776   6.417   2.080  0.0181 -0.4677  2.6775
 1013MOL0     H36728   7.859   6.293   1.981 -0.9623 -0.4445  0.2518
 1013MOL0     H36729   7.563   6.374   1.987 -0.8896 -0.6307 -0.6260
 1013MOL0     H36730   7.598   6.199   1.976  0.8396 -0.7953 -1.2896
 1013MOL0     H36731   7.701   6.429   1.797 -0.2592 -0.4826 -1.5299
 1013MOL0     H36732   7.763   6.267   1.788  2.3519  1.9613  1.5892
 1013MOL0     H36733   7.468   6.349   1.768  0.9364 -0.7311 -0.2922
 1013MOL0     H36734   7.524   6.176   1.737 -0.5465 -0.3494 -1.9970
 1013MOL0     H36735   7.623   6.411   1.563  1.1537  0.4732 -0.4647
 1013MOL0     H36736   7.484   6.303   1.505 -0.6639 -4.0385  0.7973
 1013MOL0     H36737   8.222   6.196   2.571  0.5340 -0.1052  0.8760
 1013MOL0     H36738   8.292   6.067   2.756  1.9836 -2.8903 -0.7922
 1013MOL0     H36739   8.184   5.695   3.027  2.1228 -1.0087 -0.8167
 1013MOL0     H36740   8.222   5.568   3.233 -3.4756 -0.6221  0.8836
 1013MOL0     H36741   8.324   5.271   3.063  1.8547 -0.6894 -1.2449
 1013MOL0     H36742   8.234   5.152   3.249 -2.2136  2.3213 -0.3453
 1013MOL0     H36743   8.099   5.093   3.546 -0.4426 -0.5415  0.3973
 1013MOL0     H36744   7.910   5.033   3.689 -0.1587 -1.8224  1.7430
 1013MOL0     H36745   7.828   4.845   3.787 -0.5647  2.7810  0.3544
 1013MOL0     H36746   7.926   4.742   3.905  0.7044 -0.3483 -2.9979
 1013MOL0     H36747   7.752   4.809   4.085 -1.0664 -0.3366  0.3589
 1013MOL0     H36748   7.714   4.688   3.957  2.8396  0.9008  0.0716
 1013MOL0     H36749   7.595   4.863   3.836  1.1986 -2.8624 -0.2404
 1013MOL0     H36750   7.637   4.990   3.970  1.8406  0.1662 -2.2241
 1013MOL0     H36751   7.403   4.902   3.972  0.4592 -0.1685 -2.6108
 1013MOL0     H36752   7.484   4.847   4.121 -2.0280 -1.4821  0.3308
 1013MOL0     H36753   7.448   4.476   3.948 -4.2352  0.4499  1.0101
 1013MOL0     H36754   8.167   4.941   4.016  2.5893  2.2837  0.5761
 1013MOL0     H36755   8.358   5.038   3.886 -0.5297 -1.4996 -0.2173
 1014MOL0     O36756   4.695   4.698  11.448  0.0069  0.0452  0.2066
 1014MOL0     C36757   4.730   4.653  11.337 -1.1164 -0.9540  0.6529
 1014MOL0     O36758   4.862   4.643  11.299  0.1958  0.2239 -0.1659
 1014MOL0     C36759   4.974   4.685  11.366  0.1574 -0.6860  0.5968
 1014MOL0     C36760   4.983   4.803  11.433  0.9279 -0.1184 -0.2587
 1014MOL0     C36761   5.101   4.843  11.502 -1.2950  1.1598  0.9241
 1014MOL0     C36762   5.216   4.766  11.499  0.2626  0.3885 -1.2923
 1014MOL0     O36763   5.334   4.802  11.566 -0.2988 -0.1778  0.3390
 1014MOL0     C36764   5.333   4.756  11.693 -0.0978 -0.6254 -0.3843
 1014MOL0     C36765   5.396   4.614  11.689 -0.2009  0.5170  0.0953
 1014MOL0     C36766   5.430   4.562  11.823  0.9038 -0.3110  0.4484
 1014MOL0     C36767   5.530   4.447  11.810  0.1060  0.1819 -0.1699
 1014MOL0     C36768   5.450   4.317  11.781 -1.1840  0.0598  0.9338
 1014MOL0     C36769   5.467   4.288  11.636 -0.4972  0.0590  0.0413
 1014MOL0     C36770   5.402   4.144  11.592  0.1016  0.7300  1.1568
 1014MOL0     C36771   5.399   4.123  11.440 -0.1805  1.3349  0.2421
 1014MOL0     N36772   5.532   4.064  11.394  0.1343  0.0478 -0.1789
 1014MOL0     C36773   5.557   3.937  11.356  0.1103  0.5270 -0.0428
 1014MOL0     C36774   5.686   3.934  11.334 -0.3325  0.5072 -0.1542
 1014MOL0     C36775   5.765   3.802  11.313  0.4805 -0.7550 -0.5537
 1014MOL0     C36776   5.824   3.786  11.169  0.7300  0.5214 -0.3235
 1014MOL0     C36777   5.916   3.665  11.184  0.2988  0.1444 -0.1887
 1014MOL0     C36778   6.016   3.653  11.073 -0.0086 -0.9096 -0.7343
 1014MOL0     O36779   6.119   3.745  11.115  0.3553 -0.5005 -0.6265
 1014MOL0     C36780   6.243   3.692  11.118 -0.0116  0.1902  0.2915
 1014MOL0     C36781   6.317   3.696  11.002 -0.2755  0.8121 -0.1131
 1014MOL0     C36782   6.446   3.633  10.997 -0.5068  0.0192 -0.2437
 1014MOL0     C36783   6.509   3.648  10.860 -0.9353  0.0487  1.3580
 1014MOL0     C36784   6.495   3.567  11.117  0.6487  1.5571  1.1936
 1014MOL0     C36785   6.623   3.492  11.110  0.2334 -0.5492 -0.0278
 1014MOL0     O36786   6.678   3.466  11.236  0.1347  0.0340 -0.1929
 1014MOL0     C36787   6.776   3.369  11.243 -0.0396  0.5326  0.6496
 1014MOL0     C36788   6.754   3.252  11.315 -0.2693 -0.0578 -0.6199
 1014MOL0     C36789   6.850   3.148  11.337 -0.6918 -0.0510  0.3105
 1014MOL0     C36790   6.976   3.168  11.277  0.2716 -0.1544 -0.3915
 1014MOL0     O36791   7.089   3.101  11.311  0.5735  0.2354  0.1626
 1014MOL0     C36792   7.110   3.001  11.406 -0.3881  0.4998  0.1542
 1014MOL0     C36793   7.220   2.893  11.378 -0.5631  0.6955 -0.0772
 1014MOL0     C36794   7.257   2.808  11.503 -0.2248  0.2250  0.3710
 1014MOL0     C36795   7.325   2.895  11.607 -0.0072  1.0575 -0.8778
 1014MOL0     C36796   7.387   2.815  11.719  0.8708  0.7526  0.0271
 1014MOL0     C36797   7.297   2.771  11.838 -0.0931  0.4597  0.2859
 1014MOL0     C36798   7.183   2.871  11.876 -0.2406  1.4575  0.2596
 1014MOL0     C36799   7.101   2.818  11.994 -0.6583  0.0751  0.1918
 1014MOL0    Cl36800   7.215   2.784  12.140  0.3310  0.4513  0.4766
 1014MOL0     C36801   6.992   3.277  11.187  0.0013  0.0993 -0.5572
 1014MOL0     C36802   6.895   3.373  11.174  0.3940  0.2236 -0.3190
 1014MOL0     O36803   6.654   3.440  11.002 -0.8631 -0.9500 -0.2928
 1014MOL0     C36804   6.423   3.575  11.232 -0.1255 -0.0615  0.8933
 1014MOL0     C36805   6.296   3.632  11.227  0.2076  0.6354  0.2121
 1014MOL0     N36806   5.742   4.052  11.363  0.4539 -1.9080 -0.6015
 1014MOL0     N36807   5.646   4.130  11.395  0.0734 -0.9033 -0.7386
 1014MOL0     C36808   5.213   4.652  11.412 -0.3280 -0.2910 -0.1274
 1014MOL0     C36809   5.091   4.614  11.350  0.1333  0.4173  0.3331
 1014MOL0     C36810   4.621   4.606  11.241 -0.2209  0.7374 -0.3694
 1014MOL0     C36811   4.492   4.633  11.270  0.8351 -0.0136  0.4188
 1014MOL0     C36812   4.395   4.606  11.176  0.0239 -0.9716 -0.0539
 1014MOL0     C36813   4.424   4.546  11.052  0.2152 -0.2854 -0.7196
 1014MOL0     O36814   4.325   4.521  10.955 -0.0935 -0.5698  0.6398
 1014MOL0     C36815   4.188   4.486  10.984 -0.0353 -0.3591  0.6253
 1014MOL0     C36816   4.113   4.426  10.867  0.3022 -0.1145  0.7832
 1014MOL0     C36817   3.970   4.397  10.923 -0.1260  0.3321  0.0357
 1014MOL0     C36818   3.875   4.375  10.805  1.2676 -0.2089 -0.7307
 1014MOL0     C36819   3.845   4.238  10.769 -0.2429 -0.1207  0.6574
 1014MOL0     C36820   3.829   4.126  10.741  0.2756  0.3323 -0.1045
 1014MOL0     C36821   4.559   4.502  11.033  0.8981 -0.4141  0.6213
 1014MOL0     C36822   4.649   4.548  11.122 -0.4849  0.1549 -0.3589
 1014MOL0     H36823   4.897   4.868  11.445 -0.1264 -1.6994  1.2834
 1014MOL0     H36824   5.090   4.924  11.574  0.8504  1.1819  1.2855
 1014MOL0     H36825   5.399   4.817  11.756 -0.0509 -1.1679  0.1040
 1014MOL0     H36826   5.236   4.761  11.744  0.5890 -0.6113  0.9857
 1014MOL0     H36827   5.325   4.543  11.645  0.0791 -1.1423  2.1725
 1014MOL0     H36828   5.492   4.623  11.638  1.0348 -1.5545  1.8743
 1014MOL0     H36829   5.477   4.648  11.870  1.6582  0.8284 -2.2101
 1014MOL0     H36830   5.335   4.528  11.865  0.2897  0.8818  0.0578
 1014MOL0     H36831   5.605   4.469  11.734 -1.3084 -0.5780 -1.8496
 1014MOL0     H36832   5.583   4.433  11.905 -0.1465 -0.4261 -0.1129
 1014MOL0     H36833   5.493   4.229  11.831  2.4713  1.5759  0.7843
 1014MOL0     H36834   5.343   4.319  11.803 -2.2248 -2.1527 -2.9264
 1014MOL0     H36835   5.428   4.369  11.575  2.1013  1.8558  0.6141
 1014MOL0     H36836   5.574   4.282  11.611 -0.8190  1.0298 -1.7967
 1014MOL0     H36837   5.468   4.068  11.635 -1.3180  0.2050  2.4974
 1014MOL0     H36838   5.303   4.147  11.638  0.4660  2.5951  1.9243
 1014MOL0     H36839   5.375   4.211  11.380  0.2083  0.7714 -0.7792
 1014MOL0     H36840   5.323   4.047  11.422  1.2468 -0.3283  0.8655
 1014MOL0     H36841   5.489   3.853  11.344 -2.2131  2.4294 -1.1499
 1014MOL0     H36842   5.843   3.796  11.389  0.0146 -1.5892 -0.1210
 1014MOL0     H36843   5.685   3.728  11.328 -3.1555  2.4603 -2.2378
 1014MOL0     H36844   5.878   3.877  11.140  2.6535  0.2952  2.1695
 1014MOL0     H36845   5.739   3.777  11.101 -1.7814 -1.0255  2.7474
 1014MOL0     H36846   5.836   3.592  11.168 -1.8500  1.8727  1.9391
 1014MOL0     H36847   5.973   3.651  11.276 -0.9153  0.7646  0.6907
 1014MOL0     H36848   5.977   3.686  10.976 -1.8565  3.2803  1.2421
 1014MOL0     H36849   6.067   3.556  11.066  3.9167  0.6172  2.8356
 1014MOL0     H36850   6.271   3.741  10.914 -0.7671 -0.7300 -0.6800
 1014MOL0     H36851   6.517   3.545  10.824  0.7472  0.4493  0.5216
 1014MOL0     H36852   6.449   3.706  10.788  3.1287  1.0285 -1.5971
 1014MOL0     H36853   6.611   3.685  10.850  0.0059 -2.9494 -4.1388
 1014MOL0     H36854   6.656   3.249  11.362 -0.1327  0.6752 -0.2841
 1014MOL0     H36855   6.831   3.062  11.402 -2.7732  1.6653  2.1286
 1014MOL0     H36856   7.128   3.049  11.502 -3.3502  1.1351  0.4966
 1014MOL0     H36857   7.017   2.945  11.414 -0.3992 -0.1296 -2.9346
 1014MOL0     H36858   7.183   2.828  11.299 -2.0292 -0.1777  1.2604
 1014MOL0     H36859   7.308   2.941  11.334  0.1767 -1.2325 -0.7956
 1014MOL0     H36860   7.321   2.729  11.461  0.2827 -0.0764  1.6380
 1014MOL0     H36861   7.169   2.757  11.543 -1.0866  0.6075 -1.0033
 1014MOL0     H36862   7.407   2.942  11.552  0.3320 -0.4043 -1.6780
 1014MOL0     H36863   7.266   2.978  11.648  0.2723 -0.8326  4.0467
 1014MOL0     H36864   7.471   2.878  11.748  1.1569  0.7749 -0.8048
 1014MOL0     H36865   7.434   2.725  11.678  0.0258 -1.0407  2.7058
 1014MOL0     H36866   7.253   2.682  11.794 -0.3030  0.2859  0.8328
 1014MOL0     H36867   7.361   2.754  11.926 -0.7853  0.4844  0.8048
 1014MOL0     H36868   7.110   2.899  11.800 -0.3694 -1.1664 -0.6946
 1014MOL0     H36869   7.239   2.961  11.903  0.9274  1.1118 -0.9284
 1014MOL0     H36870   7.042   2.727  11.975  1.9690 -1.9431  1.1128
 1014MOL0     H36871   7.039   2.906  12.015 -1.3728 -0.0421 -1.2450
 1014MOL0     H36872   7.083   3.276  11.127  1.2658 -4.5451  0.9507
 1014MOL0     H36873   6.919   3.449  11.100  1.5128 -0.2948 -0.5089
 1014MOL0     H36874   6.452   3.517  11.320  0.1814 -0.2166  0.6916
 1014MOL0     H36875   6.226   3.627  11.310 -0.1826  2.3012  0.0098
 1014MOL0     H36876   5.295   4.581  11.409 -1.4851 -1.6621 -0.5797
 1014MOL0     H36877   5.092   4.526  11.286 -1.5213  0.7271 -0.1589
 1014MOL0     H36878   4.472   4.684  11.364 -0.7915  0.7519 -0.3161
 1014MOL0     H36879   4.295   4.635  11.204  1.4646  1.0159  3.6753
 1014MOL0     H36880   4.197   4.411  11.064 -0.3526 -0.9244  0.1352
 1014MOL0     H36881   4.135   4.576  11.016 -1.1692 -1.0915  0.8728
 1014MOL0     H36882   4.157   4.335  10.824  0.9897  0.6938 -0.2938
 1014MOL0     H36883   4.093   4.497  10.787  0.4794 -2.3100 -1.3423
 1014MOL0     H36884   3.934   4.474  10.992  1.9896  2.5363 -1.1484
 1014MOL0     H36885   3.973   4.303  10.979  1.8574  1.2324  1.5735
 1014MOL0     H36886   3.903   4.427  10.713 -1.0266  2.9985  0.2214
 1014MOL0     H36887   3.780   4.417  10.840  1.9107 -0.3257  1.2435
 1014MOL0     H36888   3.821   4.023  10.711  3.8597 -1.3858  3.8642
 1014MOL0     H36889   4.587   4.447  10.944 -3.7245 -0.1532 -1.2739
 1014MOL0     H36890   4.751   4.515  11.106 -0.5334 -1.0892  1.5533
 1015MOL0     O36891   2.661   1.275   9.902  0.0077 -0.6277 -0.5696
 1015MOL0     C36892   2.748   1.252   9.820 -0.0262 -0.5821  0.2910
 1015MOL0     O36893   2.734   1.206   9.687  0.3706 -0.8496 -0.3096
 1015MOL0     C36894   2.603   1.191   9.646 -0.2438 -0.3497  0.1701
 1015MOL0     C36895   2.523   1.089   9.699  0.3808 -0.8814  0.3997
 1015MOL0     C36896   2.395   1.072   9.659  1.3749  0.4645  0.7957
 1015MOL0     C36897   2.340   1.154   9.559 -0.2876 -0.6917  0.5108
 1015MOL0     O36898   2.205   1.147   9.534  0.5989  0.1629  0.0971
 1015MOL0     C36899   2.181   1.141   9.387  0.0955  0.8365 -0.7707
 1015MOL0     C36900   2.062   1.050   9.376  0.3879  0.6475  1.0350
 1015MOL0     C36901   2.036   1.039   9.228 -0.3618  0.5816  0.4351
 1015MOL0     C36902   1.902   0.957   9.204  0.2964  0.6652  0.3808
 1015MOL0     C36903   1.830   0.963   9.068 -0.6320 -0.5575  0.3974
 1015MOL0     C36904   1.709   0.861   9.072 -0.3725  0.4405  0.0740
 1015MOL0     C36905   1.664   0.825   8.932 -0.7637  0.3890 -0.2626
 1015MOL0     C36906   1.746   0.716   8.867  0.7461  0.3267 -0.3313
 1015MOL0     N36907   1.717   0.691   8.727  0.0157 -0.6536 -0.2797
 1015MOL0     C36908   1.768   0.780   8.635  0.6318 -0.7426 -0.2306
 1015MOL0     C36909   1.741   0.721   8.512  0.5910  0.4741  0.0349
 1015MOL0     C36910   1.760   0.794   8.377  0.0689 -0.5088  0.4404
 1015MOL0     C36911   1.659   0.906   8.350  1.0530  0.0158 -0.7342
 1015MOL0     C36912   1.672   0.973   8.209  0.0093 -0.2110 -0.2712
 1015MOL0     C36913   1.541   1.057   8.171  0.4552 -0.2747  0.1819
 1015MOL0     O36914   1.572   1.197   8.176 -0.1971  0.1896  0.4937
 1015MOL0     C36915   1.456   1.274   8.140  1.2713 -0.4447  0.0821
 1015MOL0     C36916   1.335   1.247   8.076  0.2656  0.1158 -0.1312
 1015MOL0     C36917   1.235   1.340   8.036 -0.1963  0.1205 -0.2347
 1015MOL0     C36918   1.124   1.287   7.956  1.1606  0.7507  1.1359
 1015MOL0     C36919   1.260   1.477   8.052  0.4660 -0.7908 -0.3757
 1015MOL0     C36920   1.184   1.581   7.987  0.3561  0.1643 -0.8054
 1015MOL0     O36921   1.148   1.561   7.856  0.2901 -0.2411 -0.9346
 1015MOL0     C36922   1.067   1.644   7.786  1.3205  0.1970 -0.0553
 1015MOL0     C36923   0.994   1.757   7.824 -0.4327 -0.8635  0.4316
 1015MOL0     C36924   0.912   1.823   7.730 -0.6860  0.0867 -0.5670
 1015MOL0     C36925   0.891   1.768   7.602 -0.2166 -0.0523 -0.3293
 1015MOL0     O36926   0.804   1.831   7.514 -1.1879 -0.7065  0.2080
 1015MOL0     C36927   0.697   1.910   7.565  0.7973 -0.5707 -0.1131
 1015MOL0     C36928   0.600   1.955   7.464 -0.0786 -0.1325 -0.8170
 1015MOL0     C36929   0.511   1.838   7.434 -0.4791  0.2243  0.5884
 1015MOL0     C36930   0.385   1.895   7.369  0.7469 -0.2830  0.1860
 1015MOL0     C36931   0.266   1.797   7.383  0.6327  0.0270 -0.2661
 1015MOL0     C36932   0.157   1.842   7.292 -0.3535  0.5630  0.5333
 1015MOL0     C36933   0.024   1.775   7.316 -0.5717  0.9506 -0.1041
 1015MOL0     C36934  -0.069   1.830   7.208  0.6844  0.1198 -0.3281
 1015MOL0    Cl36935  -0.097   2.001   7.255 -0.3651 -0.4284 -0.0101
 1015MOL0     C36936   0.944   1.649   7.576  0.3430  0.0567  0.2659
 1015MOL0     C36937   1.036   1.587   7.662 -0.1516 -0.5669 -0.2780
 1015MOL0     O36938   1.177   1.689   8.051 -0.6910  0.2920  0.2974
 1015MOL0     C36939   1.375   1.506   8.140 -0.0545  0.0528  0.0302
 1015MOL0     C36940   1.469   1.412   8.177  1.0230  0.1047 -0.4362
 1015MOL0     N36941   1.697   0.594   8.552 -0.3286 -0.9430  0.7535
 1015MOL0     N36942   1.683   0.579   8.670  0.6308  0.4841  0.6517
 1015MOL0     C36943   2.423   1.242   9.486  0.4899  0.5040  0.6147
 1015MOL0     C36944   2.545   1.263   9.540 -0.0111 -0.1526 -0.1772
 1015MOL0     C36945   2.887   1.279   9.857  0.0299 -0.5313 -0.3816
 1015MOL0     C36946   2.925   1.339   9.980  0.3007 -0.5546 -0.1321
 1015MOL0     C36947   3.067   1.362  10.010  0.9171  0.5447 -1.0033
 1015MOL0     C36948   3.165   1.331   9.914 -0.4540  0.0354 -0.3334
 1015MOL0     O36949   3.294   1.352   9.935 -0.1734  0.3041 -0.1397
 1015MOL0     C36950   3.342   1.383  10.070  1.0249 -0.2429  0.0881
 1015MOL0     C36951   3.495   1.359  10.060  0.1923 -0.5271  0.6532
 1015MOL0     C36952   3.580   1.486  10.008  0.7704  0.7378 -0.9039
 1015MOL0     C36953   3.582   1.611  10.101 -0.2304 -0.2114 -0.3663
 1015MOL0     C36954   3.605   1.727  10.003 -1.2673 -0.4131 -0.7948
 1015MOL0     C36955   3.643   1.798   9.916  0.3876 -0.3540  0.2114
 1015MOL0     C36956   3.127   1.276   9.787  0.3571  0.4529 -0.4102
 1015MOL0     C36957   2.987   1.253   9.765  0.4813 -0.0158  0.1663
 1015MOL0     H36958   2.565   1.025   9.776 -2.3112 -4.7202 -1.0155
 1015MOL0     H36959   2.330   1.004   9.713  0.5124  0.2253 -0.5038
 1015MOL0     H36960   2.168   1.239   9.342 -2.3391 -0.8636 -4.1964
 1015MOL0     H36961   2.259   1.093   9.327 -1.2139 -0.7123 -1.3168
 1015MOL0     H36962   2.083   0.949   9.414 -0.1445 -0.3756 -1.2030
 1015MOL0     H36963   1.970   1.085   9.423 -1.1337 -0.5516 -0.8701
 1015MOL0     H36964   2.022   1.132   9.170 -0.4295  0.3163  0.0199
 1015MOL0     H36965   2.120   0.988   9.181 -2.0092 -4.3207  2.2383
 1015MOL0     H36966   1.920   0.854   9.234  0.2457  0.6416  0.3314
 1015MOL0     H36967   1.821   0.996   9.267 -1.7063  0.0078 -1.6537
 1015MOL0     H36968   1.796   1.066   9.068  0.1756 -0.2470  2.2415
 1015MOL0     H36969   1.906   0.950   8.990  2.2246 -0.5109  2.9514
 1015MOL0     H36970   1.731   0.769   9.128 -2.3919  0.8256  1.5920
 1015MOL0     H36971   1.621   0.906   9.118  1.0988  2.8729  0.6759
 1015MOL0     H36972   1.555   0.812   8.935 -1.0989  2.6349 -0.5723
 1015MOL0     H36973   1.689   0.911   8.869 -0.4090  0.5794  0.1315
 1015MOL0     H36974   1.720   0.627   8.926 -1.0809  0.6648 -0.5534
 1015MOL0     H36975   1.849   0.747   8.886  0.4371  2.4111 -1.7005
 1015MOL0     H36976   1.799   0.882   8.655  0.4550 -0.5171 -1.0939
 1015MOL0     H36977   1.859   0.841   8.374 -0.7776  1.3061 -0.1867
 1015MOL0     H36978   1.749   0.727   8.291  1.7985  0.2961 -0.4492
 1015MOL0     H36979   1.662   0.977   8.433  0.5697  0.6284 -1.2262
 1015MOL0     H36980   1.561   0.860   8.364  1.2603 -0.0661  0.5282
 1015MOL0     H36981   1.675   0.890   8.137  3.8809  0.1931 -0.7381
 1015MOL0     H36982   1.758   1.040   8.209  1.5988 -2.0319 -2.9720
 1015MOL0     H36983   1.461   1.028   8.240 -1.5743  1.9889 -1.0781
 1015MOL0     H36984   1.505   1.024   8.073 -0.2079  2.5614 -0.6025
 1015MOL0     H36985   1.329   1.144   8.043 -1.5178 -0.0610  0.6224
 1015MOL0     H36986   1.134   1.178   7.960  1.8514  0.8093  1.1556
 1015MOL0     H36987   1.020   1.305   7.982 -0.5126 -4.7940 -0.4214
 1015MOL0     H36988   1.147   1.321   7.854  0.6669 -2.6398 -0.2380
 1015MOL0     H36989   0.999   1.807   7.921  2.2829  0.5929 -0.3250
 1015MOL0     H36990   0.867   1.916   7.763 -1.6447 -0.9287  1.2028
 1015MOL0     H36991   0.643   1.848   7.637  0.8148 -0.2378  0.1895
 1015MOL0     H36992   0.737   1.998   7.616  1.0688 -0.4090 -0.5990
 1015MOL0     H36993   0.535   2.032   7.505 -1.6721 -1.0527 -1.5273
 1015MOL0     H36994   0.666   1.996   7.387 -0.2142  0.7139 -0.4965
 1015MOL0     H36995   0.485   1.774   7.519 -0.0943 -2.4503 -1.1702
 1015MOL0     H36996   0.559   1.762   7.371  1.4756 -0.2061  2.4658
 1015MOL0     H36997   0.351   1.982   7.428 -4.1516 -2.9638  1.9035
 1015MOL0     H36998   0.406   1.914   7.263  3.5652 -2.1807  0.2957
 1015MOL0     H36999   0.230   1.807   7.486  0.9057 -1.6015  0.0076
 1015MOL0     H37000   0.288   1.690   7.377 -0.3969 -0.1807 -0.4707
 1015MOL0     H37001   0.164   1.951   7.299  3.3208  0.7558 -2.5412
 1015MOL0     H37002   0.187   1.815   7.190 -1.2030  1.6304 -0.0149
 1015MOL0     H37003  -0.011   1.797   7.417 -1.4348 -0.8160  0.0054
 1015MOL0     H37004   0.034   1.668   7.299  0.7457  0.5633  2.5547
 1015MOL0     H37005  -0.158   1.767   7.198  2.2646 -3.0329  3.0380
 1015MOL0     H37006  -0.028   1.824   7.106  0.2998  0.9192 -0.5379
 1015MOL0     H37007   0.917   1.594   7.486  0.1236 -0.3004  0.5457
 1015MOL0     H37008   1.092   1.497   7.638  0.0073 -0.5278 -0.0508
 1015MOL0     H37009   1.395   1.611   8.161 -1.3335  0.5452 -1.0373
 1015MOL0     H37010   1.556   1.443   8.234 -0.9965  3.8426  0.9457
 1015MOL0     H37011   2.390   1.307   9.405  0.5690  1.9778  1.7105
 1015MOL0     H37012   2.610   1.335   9.491  2.4673 -1.0150  1.6329
 1015MOL0     H37013   2.853   1.354  10.059  0.6170  0.1600  0.0296
 1015MOL0     H37014   3.088   1.401  10.109  1.0508 -3.1534  0.5874
 1015MOL0     H37015   3.318   1.486  10.098 -0.2283  0.0158 -1.7395
 1015MOL0     H37016   3.304   1.313  10.144 -4.2270  2.6931  0.6471
 1015MOL0     H37017   3.509   1.273   9.994 -3.3872 -0.7461 -0.0231
 1015MOL0     H37018   3.548   1.345  10.154 -0.5558  0.0489  1.1704
 1015MOL0     H37019   3.554   1.513   9.906  2.3615  0.3850 -1.4408
 1015MOL0     H37020   3.684   1.451   9.999  0.6789  0.3618 -0.5563
 1015MOL0     H37021   3.662   1.620  10.176 -0.9535  0.4710  0.3382
 1015MOL0     H37022   3.490   1.634  10.155  0.3591 -0.8418  0.9395
 1015MOL0     H37023   3.679   1.869   9.844 -1.4398  3.9999  3.1761
 1015MOL0     H37024   3.182   1.261   9.694 -1.6150  0.6786 -1.6684
 1015MOL0     H37025   2.972   1.203   9.670 -0.6966  0.2790  0.1796
 1016MOL0     O37026   9.529   8.363   5.096 -0.7319  0.0393 -0.7146
 1016MOL0     C37027   9.568   8.365   4.977  0.3814  0.4160 -1.0425
 1016MOL0     O37028   9.664   8.446   4.928  0.3510 -0.6000  0.1047
 1016MOL0     C37029   9.719   8.533   5.019  1.2688 -0.4606  0.2269
 1016MOL0     C37030   9.860   8.544   5.005  0.5446 -0.4015  0.1282
 1016MOL0     C37031   9.929   8.628   5.092 -0.3167 -0.6244  1.3715
 1016MOL0     C37032   9.863   8.703   5.185  0.4058  0.8343 -0.4458
 1016MOL0     O37033   9.950   8.780   5.265 -0.0854  0.4692 -0.4559
 1016MOL0     C37034   9.900   8.913   5.305 -0.5351 -0.0127  0.2478
 1016MOL0     C37035  10.017   9.018   5.330 -1.0275  0.6043  0.1051
 1016MOL0     C37036  10.058   9.013   5.488 -0.8424 -0.3940  0.0342
 1016MOL0     C37037  10.184   9.087   5.533 -0.7480  0.5265  0.5847
 1016MOL0     C37038  10.155   9.232   5.534 -1.0240 -0.3702 -0.2419
 1016MOL0     C37039  10.277   9.314   5.519  0.0801  0.3975 -0.1951
 1016MOL0     C37040  10.258   9.466   5.566  0.6424 -1.0907  0.2564
 1016MOL0     C37041  10.145   9.541   5.483 -0.2011  1.0333 -0.7034
 1016MOL0     N37042  10.012   9.509   5.539  0.4108 -0.0461  0.2035
 1016MOL0     C37043   9.969   9.516   5.672  0.0358 -0.1895  0.5303
 1016MOL0     C37044   9.849   9.466   5.671 -0.4765 -0.0209 -0.2466
 1016MOL0     C37045   9.773   9.432   5.795 -0.9149 -0.4226 -0.6954
 1016MOL0     C37046   9.680   9.549   5.839 -0.2060  0.3327  0.8784
 1016MOL0     C37047   9.583   9.579   5.733  0.4602 -0.6716 -1.0508
 1016MOL0     C37048   9.472   9.655   5.799 -0.6926 -0.0341 -0.1458
 1016MOL0     O37049   9.357   9.676   5.713  0.1725 -0.7712 -0.0785
 1016MOL0     C37050   9.259   9.764   5.754  0.5999 -0.5628 -0.4048
 1016MOL0     C37051   9.160   9.798   5.668 -0.4877 -0.7034  0.4339
 1016MOL0     C37052   9.059   9.897   5.704  0.6002  0.2544 -0.1052
 1016MOL0     C37053   8.967   9.952   5.588  0.6438 -0.2937 -0.0961
 1016MOL0     C37054   9.054   9.945   5.837  0.3652 -0.6615  0.8512
 1016MOL0     C37055   8.965  10.042   5.888 -0.1068 -1.0458  0.8436
 1016MOL0     O37056   9.007  10.106   6.005 -0.2347  0.6850  0.4966
 1016MOL0     C37057   8.921  10.194   6.065 -0.2725  0.0372  0.8696
 1016MOL0     C37058   8.807  10.143   6.120  0.8209 -0.1037 -0.5042
 1016MOL0     C37059   8.718  10.230   6.185 -0.0319 -0.3614 -0.5729
 1016MOL0     C37060   8.752  10.366   6.193  0.8891 -0.6974  0.6618
 1016MOL0     O37061   8.665  10.466   6.227  0.1405  0.3685  0.1073
 1016MOL0     C37062   8.606  10.447   6.351  0.0295 -0.0559  0.5046
 1016MOL0     C37063   8.556  10.577   6.403  0.0298  0.0119  0.1916
 1016MOL0     C37064   8.653  10.685   6.438 -0.8444 -0.2194  0.2106
 1016MOL0     C37065   8.570  10.803   6.483 -0.0022 -0.2330 -0.3318
 1016MOL0     C37066   8.640  10.941   6.509 -0.0832  0.0846  0.5087
 1016MOL0     C37067   8.546  11.042   6.572  0.2608  0.9773  0.1057
 1016MOL0     C37068   8.432  11.094   6.479 -0.3627  0.1042 -0.2776
 1016MOL0     C37069   8.353  11.203   6.545 -1.4717 -0.0775  0.0866
 1016MOL0    Cl37070   8.223  11.112   6.623 -0.5629 -0.4373  0.7679
 1016MOL0     C37071   8.865  10.415   6.136 -0.8024 -0.5360 -0.2427
 1016MOL0     C37072   8.953  10.332   6.070 -0.1910  0.3714 -0.5111
 1016MOL0     O37073   8.863  10.075   5.822  0.0338  0.5086  0.1666
 1016MOL0     C37074   9.145   9.894   5.930  0.2349  0.4982 -0.2911
 1016MOL0     C37075   9.247   9.807   5.892  0.2960 -0.0413  0.5408
 1016MOL0     N37076   9.817   9.416   5.545  0.6405 -0.5314 -1.1418
 1016MOL0     N37077   9.917   9.442   5.470 -0.7076  0.3965 -0.3030
 1016MOL0     C37078   9.728   8.703   5.191  0.4048 -0.6477  0.3951
 1016MOL0     C37079   9.660   8.623   5.104 -0.1119  1.3497 -0.4080
 1016MOL0     C37080   9.494   8.292   4.881 -0.3192  0.2869 -0.1018
 1016MOL0     C37081   9.389   8.199   4.904 -0.0924 -0.2867 -0.4229
 1016MOL0     C37082   9.328   8.139   4.798 -0.5641 -0.5770  1.0367
 1016MOL0     C37083   9.357   8.167   4.662 -0.4764  0.2860  0.8204
 1016MOL0     O37084   9.302   8.110   4.547  0.5256  0.2481  0.5064
 1016MOL0     C37085   9.174   8.060   4.556 -0.1584 -0.4181  0.1367
 1016MOL0     C37086   9.160   7.917   4.524 -0.4723  0.0687  0.1199
 1016MOL0     C37087   9.182   7.827   4.642  0.6321 -0.8677  0.3342
 1016MOL0     C37088   9.166   7.683   4.604 -0.2192 -0.0458 -0.1066
 1016MOL0     C37089   9.037   7.652   4.544 -0.0401 -0.5376 -0.1023
 1016MOL0     C37090   8.924   7.658   4.500 -1.0634 -0.6074 -0.8805
 1016MOL0     C37091   9.456   8.258   4.638 -0.3262 -0.9852  0.1926
 1016MOL0     C37092   9.520   8.321   4.747 -1.2078  0.8080  0.8883
 1016MOL0     H37093   9.906   8.483   4.928  2.4696 -3.0622  3.1340
 1016MOL0     H37094  10.036   8.630   5.079 -0.5491 -2.8282 -3.0525
 1016MOL0     H37095   9.833   8.958   5.232  1.8584  0.7249 -1.6048
 1016MOL0     H37096   9.837   8.903   5.395 -1.0806 -1.7448 -0.2776
 1016MOL0     H37097  10.102   8.980   5.271 -1.2161 -2.3551  1.5655
 1016MOL0     H37098   9.986   9.116   5.293 -0.2584  0.1108 -2.0119
 1016MOL0     H37099   9.971   9.038   5.549 -2.8681 -0.4183 -2.6466
 1016MOL0     H37100  10.079   8.907   5.508  1.2320  0.0615  0.5514
 1016MOL0     H37101  10.216   9.069   5.636  1.9781  3.4271  0.4167
 1016MOL0     H37102  10.270   9.065   5.468  0.4894  3.5861  1.0207
 1016MOL0     H37103  10.090   9.245   5.448  0.5730 -0.7652 -1.5667
 1016MOL0     H37104  10.106   9.254   5.629 -0.2666 -0.2757  0.1328
 1016MOL0     H37105  10.360   9.278   5.581  0.1292  0.2863 -0.3256
 1016MOL0     H37106  10.296   9.309   5.411 -3.3855  0.9078 -0.9189
 1016MOL0     H37107  10.234   9.468   5.673 -3.1158 -0.9558 -0.4451
 1016MOL0     H37108  10.352   9.514   5.539  1.2280 -2.1905  0.2593
 1016MOL0     H37109  10.144   9.508   5.378  2.1318 -4.0183  0.5462
 1016MOL0     H37110  10.165   9.648   5.498 -3.6975  1.4393  2.4400
 1016MOL0     H37111  10.022   9.552   5.759  0.7089 -2.1505  0.9675
 1016MOL0     H37112   9.713   9.344   5.773 -1.2762  0.1051 -1.9195
 1016MOL0     H37113   9.845   9.420   5.877 -1.2204  3.4776  0.3715
 1016MOL0     H37114   9.751   9.630   5.857 -1.1449  0.7943  2.6871
 1016MOL0     H37115   9.627   9.509   5.926 -0.9154 -0.0793  0.2775
 1016MOL0     H37116   9.550   9.479   5.704  0.7203 -1.9991  2.7243
 1016MOL0     H37117   9.629   9.638   5.653 -0.4194  1.5767  0.0308
 1016MOL0     H37118   9.509   9.750   5.838 -0.4615 -0.6059  1.0669
 1016MOL0     H37119   9.441   9.585   5.877  1.9544 -0.2402  0.8098
 1016MOL0     H37120   9.155   9.764   5.565  0.1023  0.8245 -0.1273
 1016MOL0     H37121   8.942  10.058   5.600  1.4317  0.1084 -1.6797
 1016MOL0     H37122   9.015   9.942   5.490 -1.8676 -1.9995 -1.2492
 1016MOL0     H37123   8.872   9.900   5.597 -0.4325  1.9291  4.6042
 1016MOL0     H37124   8.797  10.034   6.119 -2.6886  0.0706 -3.2538
 1016MOL0     H37125   8.636  10.179   6.235  0.4739 -1.9223 -1.2566
 1016MOL0     H37126   8.521  10.379   6.338  0.3888 -0.0191 -3.3463
 1016MOL0     H37127   8.682  10.404   6.418  1.2403  2.1122  0.6118
 1016MOL0     H37128   8.484  10.621   6.334  1.1182  1.4515 -0.0748
 1016MOL0     H37129   8.499  10.551   6.493  2.6056 -2.0657  1.3763
 1016MOL0     H37130   8.723  10.717   6.361 -1.5576  0.8695 -0.0126
 1016MOL0     H37131   8.711  10.638   6.518  0.7499 -0.0156 -0.7735
 1016MOL0     H37132   8.477  10.823   6.428  0.0816  0.4717 -0.2283
 1016MOL0     H37133   8.536  10.769   6.581  1.5628 -0.7159  0.0536
 1016MOL0     H37134   8.664  10.976   6.408 -1.7802  1.0879  0.4185
 1016MOL0     H37135   8.733  10.940   6.566 -0.6192  0.1647  1.4035
 1016MOL0     H37136   8.489  10.990   6.650 -1.6390  0.2289 -1.6898
 1016MOL0     H37137   8.607  11.130   6.596  0.4277  1.3696 -1.6341
 1016MOL0     H37138   8.373  11.016   6.430  0.5463  0.8828 -2.7482
 1016MOL0     H37139   8.487  11.132   6.393  0.1537 -1.1375 -0.5137
 1016MOL0     H37140   8.316  11.267   6.465 -1.2410  1.7116  1.3596
 1016MOL0     H37141   8.400  11.266   6.620 -2.6359 -1.6538  2.2669
 1016MOL0     H37142   8.889  10.521   6.136 -1.8263 -0.1971  2.8348
 1016MOL0     H37143   9.048  10.369   6.031  1.0209 -1.3542  0.6791
 1016MOL0     H37144   9.145   9.930   6.032 -0.5779 -1.4538  0.4361
 1016MOL0     H37145   9.315   9.783   5.974 -0.3231  0.0478  1.0893
 1016MOL0     H37146   9.691   8.777   5.261 -3.5614 -0.7204 -1.3611
 1016MOL0     H37147   9.552   8.630   5.099 -0.4289 -2.1294 -1.4517
 1016MOL0     H37148   9.343   8.175   5.000  2.0991  1.8039  1.2988
 1016MOL0     H37149   9.252   8.063   4.816 -1.4932 -0.3668 -1.5653
 1016MOL0     H37150   9.124   8.083   4.651  1.3886  1.5962  0.5478
 1016MOL0     H37151   9.125   8.114   4.475 -1.5707 -2.9469 -0.7969
 1016MOL0     H37152   9.237   7.884   4.454 -0.3106 -2.3996  1.3658
 1016MOL0     H37153   9.062   7.896   4.481 -0.8995 -0.5913  1.3624
 1016MOL0     H37154   9.111   7.868   4.715 -0.1463 -0.6065 -0.5557
 1016MOL0     H37155   9.285   7.838   4.678  0.9745  1.1585 -1.1541
 1016MOL0     H37156   9.189   7.619   4.691 -3.0074 -0.0653  0.7077
 1016MOL0     H37157   9.234   7.659   4.522 -4.1811  0.3654 -3.8668
 1016MOL0     H37158   8.822   7.641   4.470 -0.7919 -0.5874 -1.8528
 1016MOL0     H37159   9.479   8.277   4.533  1.4201  1.3968  0.9144
 1016MOL0     H37160   9.603   8.380   4.711  2.4378 -3.9300  0.4274
 1017MOL0     O37161   8.924   7.252   5.247  0.9732  0.2322  0.0094
 1017MOL0     C37162   8.914   7.300   5.356  0.6465  0.5048 -0.9391
 1017MOL0     O37163   8.806   7.352   5.413  0.4227  0.1110  0.0317
 1017MOL0     C37164   8.678   7.341   5.360 -0.4268  0.7127  0.7180
 1017MOL0     C37165   8.573   7.298   5.445 -0.2710  0.6681  0.1450
 1017MOL0     C37166   8.445   7.284   5.399  0.0044  0.3952 -0.5289
 1017MOL0     C37167   8.415   7.304   5.264 -0.0266  0.1450  1.0694
 1017MOL0     O37168   8.288   7.299   5.210 -0.0019  0.2314  0.2109
 1017MOL0     C37169   8.177   7.269   5.294 -0.1341 -0.4124  0.0140
 1017MOL0     C37170   8.050   7.336   5.241 -0.3704  0.3821 -1.2156
 1017MOL0     C37171   7.928   7.284   5.325  0.3879  0.2293 -0.9305
 1017MOL0     C37172   7.803   7.318   5.236 -1.1506 -0.3645  0.3248
 1017MOL0     C37173   7.693   7.233   5.298  0.0031 -0.1906 -0.3710
 1017MOL0     C37174   7.702   7.078   5.287 -0.5683  0.5779  0.1289
 1017MOL0     C37175   7.571   7.017   5.349 -0.4127 -1.2141  0.9095
 1017MOL0     C37176   7.590   6.863   5.380 -0.9114  0.3244 -0.1102
 1017MOL0     N37177   7.476   6.805   5.449 -0.2709  0.6095 -0.6885
 1017MOL0     C37178   7.350   6.791   5.401 -0.0188  0.4337 -0.5231
 1017MOL0     C37179   7.282   6.737   5.503 -0.0784 -0.3105  0.0944
 1017MOL0     C37180   7.144   6.695   5.487  0.6621 -0.1037 -0.6015
 1017MOL0     C37181   7.104   6.554   5.499 -0.2303  0.3332 -0.2829
 1017MOL0     C37182   7.205   6.450   5.436  0.2495 -0.0578  0.1201
 1017MOL0     C37183   7.133   6.342   5.353 -0.3469 -0.1604 -0.6599
 1017MOL0     O37184   7.063   6.399   5.235 -0.2049 -0.4159 -0.3604
 1017MOL0     C37185   6.955   6.334   5.183 -0.2170 -0.6666 -0.1482
 1017MOL0     C37186   6.923   6.361   5.052 -0.0522 -0.2522  0.9736
 1017MOL0     C37187   6.830   6.288   4.976  0.5478 -1.1263  0.2453
 1017MOL0     C37188   6.841   6.317   4.827 -0.0010 -0.1633 -0.1390
 1017MOL0     C37189   6.741   6.198   5.037  0.8317  1.3940 -1.1974
 1017MOL0     C37190   6.632   6.128   4.958 -1.1538 -0.1332 -0.0559
 1017MOL0     O37191   6.568   6.044   5.039  0.4498  1.0766  0.1179
 1017MOL0     C37192   6.464   5.975   4.970 -0.0467 -0.1514 -0.7227
 1017MOL0     C37193   6.507   5.874   4.886 -0.2036  0.7991  0.1451
 1017MOL0     C37194   6.402   5.811   4.811  0.0947  0.3327  0.7098
 1017MOL0     C37195   6.272   5.854   4.817 -0.0619 -0.5285  0.3111
 1017MOL0     O37196   6.183   5.789   4.732  0.0012  0.0499  0.0399
 1017MOL0     C37197   6.048   5.828   4.694 -0.9549  0.1104  0.9821
 1017MOL0     C37198   6.005   5.758   4.554  0.3644  0.6548 -0.1276
 1017MOL0     C37199   6.101   5.802   4.445 -0.4846 -0.0404  0.0083
 1017MOL0     C37200   6.035   5.767   4.312 -0.2809  0.5710 -0.4047
 1017MOL0     C37201   6.124   5.819   4.194 -0.9256 -1.4467  0.4037
 1017MOL0     C37202   6.049   5.824   4.064  0.1457 -0.4894  0.2815
 1017MOL0     C37203   6.026   5.687   4.006  0.5776 -0.6641  0.3353
 1017MOL0     C37204   5.994   5.691   3.853  0.1029 -0.5364  0.5800
 1017MOL0    Cl37205   5.871   5.822   3.841  0.0194  0.2673  0.1460
 1017MOL0     C37206   6.237   5.961   4.901 -0.7128 -0.3315  0.5457
 1017MOL0     C37207   6.332   6.020   4.983 -0.0546  0.3130  0.1432
 1017MOL0     O37208   6.596   6.175   4.852 -0.5825 -0.1792 -0.1629
 1017MOL0     C37209   6.780   6.156   5.173  0.9375  0.0729 -0.3745
 1017MOL0     C37210   6.879   6.231   5.245  0.6378  1.6483  0.0399
 1017MOL0     N37211   7.366   6.705   5.611  0.2584 -0.0438 -0.1174
 1017MOL0     N37212   7.478   6.760   5.577 -0.2036  0.4498  0.7733
 1017MOL0     C37213   8.516   7.346   5.180 -0.4102 -0.8540  0.9610
 1017MOL0     C37214   8.644   7.366   5.225 -0.0746 -0.2402 -0.7118
 1017MOL0     C37215   9.044   7.309   5.422  0.2870  0.3695 -1.1208
 1017MOL0     C37216   9.161   7.252   5.371  0.6491 -0.3006  0.1521
 1017MOL0     C37217   9.288   7.258   5.436 -0.2254  0.2193  0.1534
 1017MOL0     C37218   9.308   7.334   5.546 -0.0914 -0.6767 -0.6341
 1017MOL0     O37219   9.434   7.345   5.595 -0.3548 -0.6921  0.4422
 1017MOL0     C37220   9.473   7.427   5.707 -0.0108  0.8712 -0.4240
 1017MOL0     C37221   9.629   7.409   5.731 -0.1579 -0.2576  0.5401
 1017MOL0     C37222   9.682   7.264   5.747  0.7751 -0.7853 -0.3369
 1017MOL0     C37223   9.829   7.262   5.719 -0.1781  0.0151 -0.6473
 1017MOL0     C37224   9.879   7.127   5.737  0.6808  0.1405  0.6156
 1017MOL0     C37225   9.928   7.022   5.770  0.8215  1.3174 -0.0594
 1017MOL0     C37226   9.193   7.408   5.596  0.5504  0.0879  0.2301
 1017MOL0     C37227   9.056   7.380   5.545 -0.7613 -0.9144  1.1968
 1017MOL0     H37228   8.601   7.281   5.549  0.6381 -0.6234 -0.2866
 1017MOL0     H37229   8.381   7.258   5.483  1.1291  0.3498  0.3393
 1017MOL0     H37230   8.153   7.163   5.306 -0.5187 -0.0037  5.2410
 1017MOL0     H37231   8.196   7.315   5.392 -3.2921  3.5772 -0.9593
 1017MOL0     H37232   8.058   7.443   5.257  1.2578 -0.1283  2.3616
 1017MOL0     H37233   8.032   7.312   5.136 -2.1095  2.1697 -1.3721
 1017MOL0     H37234   7.947   7.178   5.346  2.2189  0.5322 -0.8953
 1017MOL0     H37235   7.922   7.341   5.418 -0.9092 -0.5047 -0.5312
 1017MOL0     H37236   7.780   7.423   5.257 -2.6739 -0.7265  0.6064
 1017MOL0     H37237   7.820   7.297   5.130  0.9472 -0.4446  0.6320
 1017MOL0     H37238   7.680   7.263   5.403 -0.0853  3.0404 -1.2055
 1017MOL0     H37239   7.603   7.249   5.239  0.4709  0.1481 -1.0124
 1017MOL0     H37240   7.720   7.050   5.183  1.9849 -0.3588  0.7280
 1017MOL0     H37241   7.794   7.043   5.337  0.9266  3.6071 -0.2567
 1017MOL0     H37242   7.537   7.078   5.433  0.4751  2.6392 -1.2736
 1017MOL0     H37243   7.493   7.017   5.273  1.0248 -0.7449 -0.6342
 1017MOL0     H37244   7.676   6.854   5.447  0.1073  0.1968 -1.3836
 1017MOL0     H37245   7.613   6.803   5.291 -0.0272 -1.1146  1.0556
 1017MOL0     H37246   7.331   6.812   5.296  1.3630  1.3215 -0.6293
 1017MOL0     H37247   7.083   6.746   5.562 -2.0062 -4.1449  0.2851
 1017MOL0     H37248   7.116   6.731   5.388  2.2736 -3.8936 -2.6630
 1017MOL0     H37249   7.002   6.541   5.463 -0.1846 -0.3305 -0.1851
 1017MOL0     H37250   7.109   6.534   5.607  1.1820  1.9165 -0.0036
 1017MOL0     H37251   7.253   6.393   5.517 -0.2939  1.0844  1.2757
 1017MOL0     H37252   7.287   6.501   5.384  1.3925  0.3747  2.2427
 1017MOL0     H37253   7.060   6.313   5.430  0.1710 -0.3817 -0.2455
 1017MOL0     H37254   7.197   6.258   5.326  1.6455  0.6210  1.3196
 1017MOL0     H37255   6.989   6.427   4.997 -0.9892 -1.2703 -1.5173
 1017MOL0     H37256   6.939   6.343   4.787 -0.3111 -3.8039 -3.8790
 1017MOL0     H37257   6.804   6.229   4.774 -1.5299  0.4887 -0.1984
 1017MOL0     H37258   6.770   6.396   4.801 -0.4229 -1.0714 -1.9094
 1017MOL0     H37259   6.610   5.841   4.882  0.5042  2.9105 -0.0026
 1017MOL0     H37260   6.423   5.750   4.723 -1.3915  1.9904 -0.8885
 1017MOL0     H37261   5.983   5.789   4.773 -2.0817 -0.1942 -0.0561
 1017MOL0     H37262   6.033   5.935   4.677 -1.6774 -0.0959  0.2467
 1017MOL0     H37263   6.016   5.652   4.580 -0.0964  0.8106  0.7511
 1017MOL0     H37264   5.900   5.763   4.522 -0.2457  3.1708  1.9050
 1017MOL0     H37265   6.204   5.771   4.463 -0.9990 -0.3414  2.9062
 1017MOL0     H37266   6.108   5.911   4.441 -0.3082 -0.0615 -0.2505
 1017MOL0     H37267   6.022   5.661   4.291  1.8189  0.1923  0.0068
 1017MOL0     H37268   5.932   5.807   4.316 -1.2579 -1.8829  1.7755
 1017MOL0     H37269   6.212   5.754   4.190  0.2616 -0.1177  2.5688
 1017MOL0     H37270   6.157   5.918   4.230 -1.8141 -1.9059  2.6815
 1017MOL0     H37271   5.952   5.875   4.073  1.2469  2.2190 -1.7298
 1017MOL0     H37272   6.115   5.884   4.000  1.5974  0.8944  2.9143
 1017MOL0     H37273   5.941   5.633   4.050 -1.3314  1.0496 -1.0584
 1017MOL0     H37274   6.119   5.631   4.018  1.4656  0.7916  0.4588
 1017MOL0     H37275   5.952   5.596   3.819  0.0454 -0.2338 -0.2062
 1017MOL0     H37276   6.080   5.724   3.796 -0.3842 -1.1313 -0.5310
 1017MOL0     H37277   6.137   6.003   4.899  1.1521  4.8781  0.8834
 1017MOL0     H37278   6.301   6.103   5.045 -0.7723  0.8167 -0.8619
 1017MOL0     H37279   6.735   6.074   5.229  0.1856  1.6221  1.3849
 1017MOL0     H37280   6.910   6.183   5.337 -2.3823 -0.2946  0.1807
 1017MOL0     H37281   8.497   7.354   5.073 -1.3063  2.4726  1.2536
 1017MOL0     H37282   8.716   7.397   5.150  1.4079  0.7251  1.0329
 1017MOL0     H37283   9.149   7.216   5.269 -0.2091 -0.5640  0.3384
 1017MOL0     H37284   9.367   7.209   5.380  0.3278 -1.2366  2.1264
 1017MOL0     H37285   9.445   7.532   5.699  2.2293  1.4993 -0.6225
 1017MOL0     H37286   9.422   7.388   5.797 -3.7805  1.1432 -2.2446
 1017MOL0     H37287   9.654   7.468   5.820  0.7929  1.3152 -0.7248
 1017MOL0     H37288   9.679   7.449   5.643 -1.8890 -1.7950 -1.2243
 1017MOL0     H37289   9.635   7.199   5.673 -0.9537  0.4862 -0.4245
 1017MOL0     H37290   9.661   7.240   5.852  1.9697  1.7878  0.5776
 1017MOL0     H37291   9.877   7.326   5.794 -0.6667  0.7708 -0.9735
 1017MOL0     H37292   9.856   7.299   5.620 -1.0872 -1.2534 -1.4000
 1017MOL0     H37293   9.960   6.923   5.797 -0.8197  1.5708  3.2072
 1017MOL0     H37294   9.213   7.466   5.685  1.4059 -0.9565  0.7402
 1017MOL0     H37295   8.968   7.423   5.591  1.1134 -0.3825  4.5716
 1018MOL0     O37296   6.326   9.420   7.058 -0.1340  0.1437  0.1464
 1018MOL0     C37297   6.249   9.491   7.120 -0.1421 -0.3101 -0.4420
 1018MOL0     O37298   6.287   9.596   7.200  0.0109 -0.1671 -0.8536
 1018MOL0     C37299   6.418   9.639   7.209  0.0610  0.6380  0.0377
 1018MOL0     C37300   6.512   9.565   7.280  0.3245  0.3901 -0.0988
 1018MOL0     C37301   6.637   9.620   7.312  0.5142  1.3092  0.5068
 1018MOL0     C37302   6.666   9.749   7.275  0.8435 -0.4308  0.7837
 1018MOL0     O37303   6.791   9.802   7.314  0.0595  0.4591  0.5030
 1018MOL0     C37304   6.776   9.898   7.422 -0.7484  0.9974  0.3506
 1018MOL0     C37305   6.923   9.919   7.450  0.5167 -0.2714  0.3320
 1018MOL0     C37306   6.954  10.066   7.491  0.0486 -0.4975  0.2125
 1018MOL0     C37307   6.978  10.160   7.366 -0.0050 -0.1808 -0.2275
 1018MOL0     C37308   6.987  10.318   7.381 -0.6200  0.6041  0.3331
 1018MOL0     C37309   7.097  10.342   7.475  0.0365 -0.2094  0.0383
 1018MOL0     C37310   7.131  10.486   7.480  0.5702 -0.1939  0.4182
 1018MOL0     C37311   7.243  10.518   7.579 -0.2261  0.6303  0.1973
 1018MOL0     N37312   7.369  10.438   7.561  0.5003 -0.2142  1.2685
 1018MOL0     C37313   7.461  10.444   7.463  0.0100 -0.4000 -0.1741
 1018MOL0     C37314   7.540  10.340   7.484 -0.1286 -0.4929  0.3355
 1018MOL0     C37315   7.670  10.299   7.412  0.8059 -0.2270  0.7829
 1018MOL0     C37316   7.649  10.199   7.292  0.1524  0.2793  0.1352
 1018MOL0     C37317   7.527  10.236   7.195  0.3591  0.0171 -0.8264
 1018MOL0     C37318   7.558  10.185   7.056  0.1399 -0.5844  0.4002
 1018MOL0     O37319   7.533  10.293   6.972  0.2385 -0.6129  0.3993
 1018MOL0     C37320   7.449  10.275   6.866 -0.7659  0.7691 -0.4341
 1018MOL0     C37321   7.483  10.190   6.754  0.1175 -0.5490 -0.9807
 1018MOL0     C37322   7.402  10.176   6.644 -0.4451  0.1593 -0.3201
 1018MOL0     C37323   7.470  10.096   6.531  0.9406 -0.9094 -0.3241
 1018MOL0     C37324   7.276  10.226   6.650  0.3762 -0.0695  0.2602
 1018MOL0     C37325   7.172  10.206   6.538  0.4860  0.0172 -0.6150
 1018MOL0     O37326   7.211  10.111   6.451 -0.0738 -0.5868  0.0881
 1018MOL0     C37327   7.112  10.041   6.388 -0.2785  0.6966  0.0743
 1018MOL0     C37328   7.147  10.002   6.259  1.1059 -0.2918 -0.2151
 1018MOL0     C37329   7.062   9.921   6.181  0.0686 -1.1543  0.5270
 1018MOL0     C37330   6.936   9.881   6.237  0.3296 -0.5948 -0.6764
 1018MOL0     O37331   6.835   9.797   6.195 -0.5974 -0.1740  0.1613
 1018MOL0     C37332   6.866   9.713   6.085  0.1010  0.6802  0.5607
 1018MOL0     C37333   6.741   9.648   6.036  0.6784  0.3896 -0.1221
 1018MOL0     C37334   6.709   9.520   6.112 -0.9707 -0.5447 -0.3155
 1018MOL0     C37335   6.582   9.461   6.063 -0.8437  0.8401  0.5145
 1018MOL0     C37336   6.528   9.344   6.149  1.3267 -0.1218 -0.5292
 1018MOL0     C37337   6.621   9.227   6.170 -0.1830 -0.0410  0.0635
 1018MOL0     C37338   6.533   9.104   6.168  0.5962  0.8303 -0.1726
 1018MOL0     C37339   6.610   8.981   6.190 -0.2823  0.4348  0.7836
 1018MOL0    Cl37340   6.517   8.839   6.175  0.0411 -0.0487  0.4059
 1018MOL0     C37341   6.898   9.926   6.359 -0.1452  0.2863 -0.2515
 1018MOL0     C37342   6.989   9.998   6.439  1.1741 -0.2040 -0.1329
 1018MOL0     O37343   7.060  10.262   6.547  0.0857 -0.6145  1.1707
 1018MOL0     C37344   7.238  10.310   6.760  0.5326 -0.0933 -0.6117
 1018MOL0     C37345   7.333  10.339   6.854  0.9212  0.4287 -0.3217
 1018MOL0     N37346   7.497  10.279   7.599  0.5213 -0.0033  0.3563
 1018MOL0     N37347   7.400  10.345   7.649 -0.0148 -0.1828 -0.8722
 1018MOL0     C37348   6.569   9.830   7.208  0.3702  0.5935 -0.6284
 1018MOL0     C37349   6.447   9.777   7.188  0.3860 -1.1683  0.3409
 1018MOL0     C37350   6.107   9.434   7.133 -0.1134  0.2474 -0.0756
 1018MOL0     C37351   6.057   9.327   7.056  0.1450 -0.2107  0.6151
 1018MOL0     C37352   5.925   9.281   7.083 -0.0071  0.2599 -0.5255
 1018MOL0     C37353   5.842   9.334   7.180  0.0530 -0.0099  0.9372
 1018MOL0     O37354   5.728   9.258   7.202 -0.8230  0.0166 -0.2983
 1018MOL0     C37355   5.604   9.334   7.196 -0.4298  0.3036 -0.7741
 1018MOL0     C37356   5.531   9.341   7.057  0.5881  0.8584 -0.6454
 1018MOL0     C37357   5.486   9.204   7.024  0.5868  0.4498  0.5502
 1018MOL0     C37358   5.338   9.198   6.975 -0.0819 -0.3148 -0.5368
 1018MOL0     C37359   5.298   9.057   6.944  0.2566 -0.0771  0.2829
 1018MOL0     C37360   5.266   8.953   6.893 -0.4505  1.1616  0.4121
 1018MOL0     C37361   5.890   9.427   7.257 -0.9003 -1.0749  0.4647
 1018MOL0     C37362   6.024   9.485   7.242  0.7997  0.7519  0.6461
 1018MOL0     H37363   6.489   9.464   7.313  2.4767  0.2425  1.1330
 1018MOL0     H37364   6.711   9.550   7.349  1.4024  1.3650 -1.0521
 1018MOL0     H37365   6.735   9.989   7.377  2.8973  2.0362 -1.2648
 1018MOL0     H37366   6.727   9.856   7.510  2.0595 -0.9059  1.1285
 1018MOL0     H37367   6.953   9.862   7.538  0.2314 -1.1497 -0.1365
 1018MOL0     H37368   6.989   9.886   7.369 -2.3437  1.0506 -2.7776
 1018MOL0     H37369   6.869  10.116   7.539 -1.3575  0.3469 -2.8594
 1018MOL0     H37370   7.044  10.073   7.553 -0.8814  0.5425  1.4962
 1018MOL0     H37371   7.072  10.117   7.330  0.0327 -0.1985 -0.1110
 1018MOL0     H37372   6.906  10.136   7.288 -0.8795  1.1686  0.1206
 1018MOL0     H37373   7.018  10.349   7.281 -0.6042 -2.6161 -0.7968
 1018MOL0     H37374   6.895  10.367   7.415  0.7599  2.7994  1.1043
 1018MOL0     H37375   7.063  10.300   7.570  0.8051 -1.1170 -0.0731
 1018MOL0     H37376   7.187  10.289   7.442 -0.2957  0.6590 -2.5108
 1018MOL0     H37377   7.149  10.523   7.379  0.1438  0.1523  0.4671
 1018MOL0     H37378   7.047  10.539   7.527  2.8097  2.6431  1.4928
 1018MOL0     H37379   7.210  10.491   7.680  0.0632 -2.7225 -0.4909
 1018MOL0     H37380   7.257  10.627   7.582  2.8340  0.5540 -3.6887
 1018MOL0     H37381   7.456  10.506   7.374 -3.2467 -3.0686 -2.0554
 1018MOL0     H37382   7.716  10.386   7.363 -1.8960  1.1825  0.5456
 1018MOL0     H37383   7.747  10.266   7.482  0.3612  0.0344  1.4025
 1018MOL0     H37384   7.630  10.100   7.335 -0.6251  0.6567  0.7011
 1018MOL0     H37385   7.740  10.192   7.233 -0.3537 -0.3754 -0.5821
 1018MOL0     H37386   7.520  10.345   7.186 -0.1599 -0.0312 -1.0599
 1018MOL0     H37387   7.433  10.202   7.239  0.5795  1.4877  0.8971
 1018MOL0     H37388   7.499  10.097   7.027 -1.7285 -0.4793  3.4719
 1018MOL0     H37389   7.663  10.161   7.039 -0.0149  0.1691 -2.0620
 1018MOL0     H37390   7.580  10.141   6.747  0.2487 -0.6105  0.8330
 1018MOL0     H37391   7.578  10.081   6.537  0.8384 -1.5949 -0.0214
 1018MOL0     H37392   7.419   9.999   6.520  0.1180 -0.2456 -3.0476
 1018MOL0     H37393   7.458  10.150   6.437  1.8145  0.1229  0.1392
 1018MOL0     H37394   7.240  10.039   6.217  1.5072 -0.5790  0.4071
 1018MOL0     H37395   7.095   9.892   6.082  1.5403 -0.8031  0.8871
 1018MOL0     H37396   6.910   9.778   6.008  0.1205 -0.0739 -0.0780
 1018MOL0     H37397   6.936   9.637   6.120 -1.9410 -0.5268  2.1921
 1018MOL0     H37398   6.660   9.721   6.042  1.8321  1.7668 -0.8655
 1018MOL0     H37399   6.748   9.624   5.929 -1.9858 -3.9081  0.4082
 1018MOL0     H37400   6.710   9.533   6.220  3.9777 -0.7322 -0.1390
 1018MOL0     H37401   6.793   9.452   6.096 -0.4502 -0.0748  0.3881
 1018MOL0     H37402   6.502   9.535   6.057  1.7778  3.8297  0.2588
 1018MOL0     H37403   6.593   9.420   5.962 -0.0059  0.4770  0.7446
 1018MOL0     H37404   6.444   9.311   6.088  0.7440  0.6791 -0.1796
 1018MOL0     H37405   6.491   9.379   6.245 -0.2527 -0.2182 -1.0645
 1018MOL0     H37406   6.683   9.220   6.080 -1.8460  2.2058 -1.3713
 1018MOL0     H37407   6.686   9.239   6.258  0.0932 -4.1977  0.6001
 1018MOL0     H37408   6.469   9.090   6.080  0.7305 -3.2625  0.1505
 1018MOL0     H37409   6.458   9.121   6.245 -0.1666 -1.2611 -0.3716
 1018MOL0     H37410   6.648   8.988   6.292 -1.6837 -0.0149  1.3646
 1018MOL0     H37411   6.697   8.993   6.125  0.0905  0.8962  1.3582
 1018MOL0     H37412   6.799   9.908   6.399 -0.3964  0.4416 -0.7913
 1018MOL0     H37413   6.960  10.027   6.540  3.1148  1.8737 -0.0983
 1018MOL0     H37414   7.138  10.353   6.764  1.4642  2.4734 -2.3043
 1018MOL0     H37415   7.291  10.404   6.930 -3.3698 -0.2014 -1.8652
 1018MOL0     H37416   6.594   9.936   7.212  2.7450  0.1212 -1.3425
 1018MOL0     H37417   6.362   9.828   7.144  1.2687 -0.3583 -0.4481
 1018MOL0     H37418   6.114   9.273   6.981 -2.0024 -2.9670  0.8028
 1018MOL0     H37419   5.874   9.203   7.027 -0.7997 -3.1341  4.2538
 1018MOL0     H37420   5.536   9.294   7.271 -0.6888  2.2296  0.0783
 1018MOL0     H37421   5.623   9.439   7.223 -1.2316  0.0533  0.8559
 1018MOL0     H37422   5.609   9.369   6.985  1.0995  0.9568 -0.0636
 1018MOL0     H37423   5.444   9.407   7.058  0.9035  1.4170  2.6917
 1018MOL0     H37424   5.498   9.136   7.109  1.1161 -0.2998 -0.1101
 1018MOL0     H37425   5.540   9.173   6.934 -2.7249 -1.6809 -0.9156
 1018MOL0     H37426   5.339   9.248   6.878  0.0030  1.1762  0.2053
 1018MOL0     H37427   5.276   9.243   7.053 -0.2128  1.6569 -1.7285
 1018MOL0     H37428   5.234   8.856   6.862 -1.0623  1.2440  0.7654
 1018MOL0     H37429   5.843   9.465   7.348  1.4220  2.1651  0.4797
 1018MOL0     H37430   6.063   9.568   7.301  1.8977  0.5711  0.2045
 1019MOL0     O37431   6.608   3.284   5.223 -1.2067  0.1327 -0.0491
 1019MOL0     C37432   6.622   3.178   5.284 -0.8969 -0.4307 -0.0908
 1019MOL0     O37433   6.538   3.071   5.256 -0.0082  0.4495 -0.2702
 1019MOL0     C37434   6.423   3.086   5.174 -0.2576 -0.8839 -0.0853
 1019MOL0     C37435   6.336   3.196   5.186  0.0232  0.7271 -0.4570
 1019MOL0     C37436   6.216   3.195   5.124 -0.4412  0.1839  0.5603
 1019MOL0     C37437   6.173   3.094   5.048  0.3784 -0.2579  0.7349
 1019MOL0     O37438   6.043   3.109   5.007  0.3642 -0.3937 -0.3790
 1019MOL0     C37439   5.998   3.036   4.897  1.2566  0.5588  0.1260
 1019MOL0     C37440   5.841   3.053   4.907 -0.7965  0.0719 -0.4481
 1019MOL0     C37441   5.759   3.009   4.781  0.3056 -0.1038  0.1121
 1019MOL0     C37442   5.613   3.002   4.809  0.3979 -0.3468 -0.2098
 1019MOL0     C37443   5.528   2.916   4.708 -0.6569  1.0168  0.1396
 1019MOL0     C37444   5.543   2.952   4.554  0.3179  0.4360 -0.5678
 1019MOL0     C37445   5.429   2.890   4.477 -0.2946  0.5955 -1.1222
 1019MOL0     C37446   5.438   2.735   4.458 -0.1424  0.7717 -0.2735
 1019MOL0     N37447   5.560   2.689   4.379  0.0612  0.1060 -0.2276
 1019MOL0     C37448   5.561   2.607   4.262  0.1159  0.0086 -0.3101
 1019MOL0     C37449   5.689   2.587   4.225  0.8217 -0.3547  0.0909
 1019MOL0     C37450   5.729   2.505   4.101 -0.3485  0.5522 -1.0903
 1019MOL0     C37451   5.700   2.569   3.965  0.0698 -0.0149  0.7513
 1019MOL0     C37452   5.734   2.473   3.851 -0.4704  0.1479  0.3642
 1019MOL0     C37453   5.647   2.346   3.847 -0.3791 -0.3134 -0.9883
 1019MOL0     O37454   5.529   2.376   3.786 -0.1037  0.2653  0.5353
 1019MOL0     C37455   5.416   2.332   3.851 -0.3876  0.3402  1.3677
 1019MOL0     C37456   5.412   2.196   3.901 -0.7376  0.0246  0.6150
 1019MOL0     C37457   5.290   2.158   3.967 -0.6427  0.5973 -0.6063
 1019MOL0     C37458   5.296   2.015   4.023 -0.7796  0.3185 -0.1925
 1019MOL0     C37459   5.181   2.252   3.989 -0.3249  0.7934  1.1255
 1019MOL0     C37460   5.059   2.212   4.058 -0.1584  0.2372 -0.6791
 1019MOL0     O37461   4.955   2.306   4.058  0.1638  0.3961  0.4878
 1019MOL0     C37462   4.846   2.278   4.131  0.4919  0.3395  0.5659
 1019MOL0     C37463   4.843   2.244   4.269  0.1746 -0.6218  0.3012
 1019MOL0     C37464   4.720   2.236   4.336  0.1793 -0.2286 -0.1547
 1019MOL0     C37465   4.598   2.256   4.275  0.9340  0.0625  0.1691
 1019MOL0     O37466   4.485   2.249   4.358 -0.2281 -0.5134 -0.3903
 1019MOL0     C37467   4.351   2.266   4.292  0.7421  0.2098  0.0123
 1019MOL0     C37468   4.245   2.219   4.383 -0.0744 -0.2739 -0.6551
 1019MOL0     C37469   4.244   2.064   4.416 -0.8205  0.3017  0.7285
 1019MOL0     C37470   4.262   1.970   4.295 -0.2416  0.2651 -0.2115
 1019MOL0     C37471   4.236   1.829   4.346  0.5357 -0.0151  0.3624
 1019MOL0     C37472   4.090   1.791   4.327  0.3326  0.3289 -0.5394
 1019MOL0     C37473   4.087   1.638   4.342  1.3535  0.7519  0.3854
 1019MOL0     C37474   3.950   1.581   4.293 -0.3173 -1.5258  0.3065
 1019MOL0    Cl37475   3.838   1.637   4.414  0.0194  0.3398  0.3424
 1019MOL0     C37476   4.599   2.285   4.141  0.6063  0.0136 -0.5164
 1019MOL0     C37477   4.723   2.302   4.068  0.0191 -0.0038 -0.0453
 1019MOL0     O37478   5.048   2.097   4.092  0.1036  0.5412  0.5810
 1019MOL0     C37479   5.203   2.386   3.945 -0.2226  0.1686  0.1393
 1019MOL0     C37480   5.313   2.426   3.867  0.6098  0.0565  0.0625
 1019MOL0     N37481   5.769   2.636   4.328 -0.4791 -0.5282  0.7589
 1019MOL0     N37482   5.692   2.696   4.416  1.3645 -0.1512  0.2845
 1019MOL0     C37483   6.254   2.983   5.019 -0.2993 -0.7425 -0.0282
 1019MOL0     C37484   6.383   2.978   5.086 -0.1294  0.3503  0.4360
 1019MOL0     C37485   6.746   3.151   5.348 -0.2419 -0.4872  0.3248
 1019MOL0     C37486   6.766   3.023   5.399  0.1272 -0.3305 -0.8000
 1019MOL0     C37487   6.889   2.988   5.454  0.3729 -1.4789  0.5545
 1019MOL0     C37488   6.991   3.086   5.445 -1.0940 -0.5435 -0.6677
 1019MOL0     O37489   7.120   3.068   5.486  0.4249  0.0762 -0.0227
 1019MOL0     C37490   7.163   2.929   5.494  0.1808  0.2952  0.1551
 1019MOL0     C37491   7.151   2.880   5.634  0.0419  0.4663 -0.7600
 1019MOL0     C37492   7.223   2.957   5.741  0.0791  0.0578 -0.2722
 1019MOL0     C37493   7.374   2.929   5.733 -0.4671  0.6323  0.3824
 1019MOL0     C37494   7.407   2.797   5.792 -0.6739 -0.2429 -0.1795
 1019MOL0     C37495   7.424   2.688   5.840  0.3828  0.1226  0.1659
 1019MOL0     C37496   6.970   3.210   5.403  0.6702 -0.4412  0.3248
 1019MOL0     C37497   6.839   3.250   5.362  0.5943  0.1096  0.7345
 1019MOL0     H37498   6.363   3.260   5.270 -1.0627 -0.2462  0.6756
 1019MOL0     H37499   6.150   3.277   5.148  1.0833  2.0690 -1.2456
 1019MOL0     H37500   6.037   3.063   4.799 -1.6600  2.4696 -0.6190
 1019MOL0     H37501   6.024   2.931   4.918  0.2643  0.4811  1.0264
 1019MOL0     H37502   5.821   2.990   4.995 -0.3800 -0.5808 -0.8130
 1019MOL0     H37503   5.818   3.158   4.928 -2.5286 -0.6535  1.6331
 1019MOL0     H37504   5.780   3.078   4.699  2.1062 -0.9029 -0.1539
 1019MOL0     H37505   5.798   2.914   4.744 -0.0131 -0.9030  1.7521
 1019MOL0     H37506   5.598   2.952   4.906  0.4683  3.3795  1.9298
 1019MOL0     H37507   5.573   3.104   4.818 -0.8847 -0.9589  2.0246
 1019MOL0     H37508   5.566   2.816   4.731  1.8600  2.2067  1.5954
 1019MOL0     H37509   5.423   2.920   4.736 -0.4367 -1.9410  1.8990
 1019MOL0     H37510   5.542   3.061   4.546  3.0015  0.4799 -1.2832
 1019MOL0     H37511   5.634   2.915   4.504  1.8219  2.8469  0.2121
 1019MOL0     H37512   5.336   2.914   4.529  0.7620  2.2142  0.1353
 1019MOL0     H37513   5.424   2.934   4.377  0.3375  0.9939 -0.9815
 1019MOL0     H37514   5.348   2.692   4.414 -0.5971  2.0931 -0.6774
 1019MOL0     H37515   5.451   2.689   4.556  0.2142  0.1412 -0.6060
 1019MOL0     H37516   5.477   2.587   4.197  0.9005 -0.2253 -1.2687
 1019MOL0     H37517   5.837   2.486   4.104 -0.5416 -1.3818 -3.2425
 1019MOL0     H37518   5.688   2.404   4.106 -0.8648  0.8146  1.1553
 1019MOL0     H37519   5.756   2.663   3.962  0.8298 -0.4436 -2.5974
 1019MOL0     H37520   5.595   2.597   3.956 -0.2021 -1.1226  0.2481
 1019MOL0     H37521   5.833   2.428   3.866 -1.3198 -0.9144  3.2693
 1019MOL0     H37522   5.718   2.511   3.749  0.6683 -0.2739  0.0025
 1019MOL0     H37523   5.616   2.313   3.947 -2.6327 -2.3948 -2.2748
 1019MOL0     H37524   5.696   2.260   3.800 -0.0794 -1.3612  1.1157
 1019MOL0     H37525   5.493   2.130   3.873 -1.9812 -1.6907  0.8379
 1019MOL0     H37526   5.250   1.937   3.963  3.1151 -1.5822 -1.0026
 1019MOL0     H37527   5.398   1.976   4.013 -1.1239 -0.8704  0.6549
 1019MOL0     H37528   5.257   2.006   4.125  0.5216  1.0239  0.3972
 1019MOL0     H37529   4.934   2.223   4.324  1.8852  0.5682 -1.9414
 1019MOL0     H37530   4.706   2.202   4.438 -4.5430 -0.6084 -0.7295
 1019MOL0     H37531   4.339   2.367   4.252  0.6758 -1.3761 -4.4399
 1019MOL0     H37532   4.345   2.197   4.207 -0.1760 -1.9153  1.6906
 1019MOL0     H37533   4.231   2.283   4.470  3.4644 -0.6159  0.3091
 1019MOL0     H37534   4.157   2.233   4.319 -1.3953 -1.4219  0.8008
 1019MOL0     H37535   4.140   2.050   4.445 -1.0798  0.6369 -0.0203
 1019MOL0     H37536   4.321   2.039   4.490  0.5117  1.2840 -0.2777
 1019MOL0     H37537   4.193   1.998   4.214 -0.2249 -1.5535 -0.9071
 1019MOL0     H37538   4.363   1.971   4.255 -0.1701  2.1852 -0.0697
 1019MOL0     H37539   4.262   1.825   4.452  0.1654 -0.3329  0.4431
 1019MOL0     H37540   4.298   1.759   4.288 -1.6739  0.9146 -3.4714
 1019MOL0     H37541   4.026   1.844   4.398 -1.8305 -2.1665 -0.4500
 1019MOL0     H37542   4.045   1.815   4.230 -2.2846 -0.6087  0.3520
 1019MOL0     H37543   4.119   1.625   4.446  1.3283  2.3892  0.6214
 1019MOL0     H37544   4.160   1.597   4.271  0.0609  0.5666 -0.8861
 1019MOL0     H37545   3.965   1.473   4.303  3.7816 -1.3414 -1.4829
 1019MOL0     H37546   3.925   1.617   4.193  2.2845  0.0191  0.1173
 1019MOL0     H37547   4.508   2.309   4.086  0.1021 -3.5611 -1.5036
 1019MOL0     H37548   4.723   2.327   3.962 -2.2825 -1.6884 -0.5241
 1019MOL0     H37549   5.120   2.454   3.964  0.1364  0.0972  2.1796
 1019MOL0     H37550   5.313   2.525   3.822 -3.2783  0.3778  0.4310
 1019MOL0     H37551   6.227   2.905   4.948 -1.1556 -1.9543  1.5464
 1019MOL0     H37552   6.443   2.892   5.057  0.6343  1.1845 -0.5574
 1019MOL0     H37553   6.693   2.944   5.384  1.9065 -2.2499  0.0355
 1019MOL0     H37554   6.907   2.890   5.495  0.3808 -2.2998 -1.3010
 1019MOL0     H37555   7.106   2.868   5.423  2.5354 -3.0216  0.8929
 1019MOL0     H37556   7.266   2.915   5.461  0.3483  0.5519  0.5655
 1019MOL0     H37557   7.176   2.773   5.635  1.5529  0.8012  0.5771
 1019MOL0     H37558   7.046   2.889   5.662  0.6339 -0.0888  1.8632
 1019MOL0     H37559   7.187   2.924   5.839 -0.3021  0.7211 -0.1836
 1019MOL0     H37560   7.199   3.064   5.742 -1.7556 -0.3157  0.2959
 1019MOL0     H37561   7.424   3.005   5.793  0.5958  1.3215 -1.2938
 1019MOL0     H37562   7.401   2.938   5.627  0.3633  0.7954  0.6016
 1019MOL0     H37563   7.418   2.591   5.885  1.5202 -2.2478 -4.2093
 1019MOL0     H37564   7.042   3.288   5.380 -1.1757  1.2209 -0.1365
 1019MOL0     H37565   6.831   3.355   5.335  1.6998 -0.2141 -1.0505
 1020MOL0     O37566   5.624   8.929  10.204  0.0055 -0.1158  0.2588
 1020MOL0     C37567   5.548   8.998  10.139  1.3377  0.2864 -0.2791
 1020MOL0     O37568   5.536   9.140  10.145 -0.3756  0.3839  0.3043
 1020MOL0     C37569   5.629   9.215  10.217 -0.5744  0.0905  0.4507
 1020MOL0     C37570   5.668   9.187  10.348  0.6101  0.3785  0.0578
 1020MOL0     C37571   5.774   9.262  10.403 -0.8699  0.0536 -0.1336
 1020MOL0     C37572   5.831   9.371  10.334 -0.0179  0.2351 -0.3247
 1020MOL0     O37573   5.934   9.443  10.398 -0.9252 -0.1030 -0.1300
 1020MOL0     C37574   5.996   9.555  10.329 -1.1273 -0.0140  0.7692
 1020MOL0     C37575   6.118   9.582  10.401 -0.8494 -0.3127 -0.7364
 1020MOL0     C37576   6.212   9.456  10.370  0.2694  0.0719 -0.8815
 1020MOL0     C37577   6.352   9.477  10.428  0.9186 -0.6732  0.2822
 1020MOL0     C37578   6.442   9.357  10.403  0.3900  0.4738 -0.6516
 1020MOL0     C37579   6.588   9.390  10.440 -0.0653  0.2170 -0.6969
 1020MOL0     C37580   6.601   9.439  10.590 -1.1545 -0.7284  0.6234
 1020MOL0     C37581   6.753   9.435  10.632  0.4120 -0.7617 -0.0318
 1020MOL0     N37582   6.843   9.533  10.569 -0.3180  0.5883  0.8305
 1020MOL0     C37583   6.799   9.662  10.537 -0.0356  0.2900  1.0061
 1020MOL0     C37584   6.894   9.696  10.447 -0.1033  0.0839 -0.6194
 1020MOL0     C37585   6.909   9.829  10.370  0.1013  0.8923 -0.3247
 1020MOL0     C37586   6.853   9.817  10.229  0.1874  0.8918  0.5722
 1020MOL0     C37587   6.708   9.795  10.229  0.2366 -0.2051 -0.6469
 1020MOL0     C37588   6.657   9.828  10.083  0.4472  0.1438 -0.4357
 1020MOL0     O37589   6.518   9.866  10.087 -0.0118 -0.3399  0.1827
 1020MOL0     C37590   6.419   9.771  10.057 -0.0602 -0.4113 -0.0580
 1020MOL0     C37591   6.294   9.818  10.055  0.1211 -0.2131  0.0716
 1020MOL0     C37592   6.184   9.729  10.031  0.1681 -0.1820 -1.2474
 1020MOL0     C37593   6.051   9.802  10.042 -0.3633  0.3722  0.0088
 1020MOL0     C37594   6.209   9.593  10.013 -0.1612 -0.8768  0.2039
 1020MOL0     C37595   6.112   9.492   9.976  0.8847 -0.7875  0.0870
 1020MOL0     O37596   6.162   9.359   9.946 -0.3133 -0.1041  0.0424
 1020MOL0     C37597   6.075   9.253   9.922 -0.0870 -0.5800 -0.2532
 1020MOL0     C37598   5.985   9.207  10.021 -0.1484  0.4369  0.0037
 1020MOL0     C37599   5.891   9.102   9.992 -0.6828  0.5973 -0.6022
 1020MOL0     C37600   5.884   9.049   9.862  0.3157 -0.1770  1.0168
 1020MOL0     O37601   5.789   8.957   9.835 -0.5370  1.0657 -0.0094
 1020MOL0     C37602   5.728   8.972   9.710  0.3122 -0.2497 -0.3113
 1020MOL0     C37603   5.641   8.845   9.679  0.3606 -0.6210  0.5288
 1020MOL0     C37604   5.541   8.879   9.567 -0.3897  0.3494  0.8288
 1020MOL0     C37605   5.419   8.946   9.628 -0.2380  0.8262 -0.1102
 1020MOL0     C37606   5.349   9.037   9.538  0.5661  0.0016  0.1983
 1020MOL0     C37607   5.221   9.084   9.612  0.4026  0.0120 -0.3108
 1020MOL0     C37608   5.144   9.197   9.548 -0.0153  0.2155  0.4694
 1020MOL0     C37609   5.071   9.147   9.419 -0.4223  0.2636 -0.5948
 1020MOL0    Cl37610   4.999   9.300   9.359 -0.4418  0.0258 -0.2359
 1020MOL0     C37611   5.974   9.085   9.774 -0.4239 -0.2197  0.0644
 1020MOL0     C37612   6.062   9.196   9.794 -0.1015  0.0581 -0.6482
 1020MOL0     O37613   5.992   9.520   9.975  0.2495 -0.2953  0.0513
 1020MOL0     C37614   6.340   9.545  10.030  0.3159  0.5756 -0.1916
 1020MOL0     C37615   6.442   9.630  10.055 -0.3911 -0.0515 -0.5600
 1020MOL0     N37616   6.997   9.602  10.438 -0.3883 -0.5261  0.6498
 1020MOL0     N37617   6.957   9.501  10.503  0.1449 -0.3964  0.1794
 1020MOL0     C37618   5.772   9.410  10.216  1.0768  0.0628 -0.3301
 1020MOL0     C37619   5.682   9.320  10.152  0.2133 -0.8586 -0.1739
 1020MOL0     C37620   5.444   8.924  10.070  0.2497 -0.4468  0.7293
 1020MOL0     C37621   5.314   8.961  10.055  0.0669  0.6627 -0.4505
 1020MOL0     C37622   5.223   8.889   9.975  0.0181  0.2467  0.2426
 1020MOL0     C37623   5.248   8.775   9.912  0.9766  0.0236 -0.4323
 1020MOL0     O37624   5.162   8.700   9.836  0.1397 -0.3471  0.2485
 1020MOL0     C37625   5.043   8.763   9.784 -0.0161  0.2125 -0.1862
 1020MOL0     C37626   4.959   8.655   9.711  0.8735  0.2672  0.5819
 1020MOL0     C37627   5.022   8.617   9.580 -0.3585 -0.8934  1.2599
 1020MOL0     C37628   4.949   8.523   9.500  0.6114  0.0139  0.1911
 1020MOL0     C37629   4.983   8.533   9.359  0.0689  0.5980  0.8835
 1020MOL0     C37630   5.004   8.537   9.236 -0.4376 -1.0656  0.4079
 1020MOL0     C37631   5.374   8.721   9.938  0.1282 -0.3530  0.3358
 1020MOL0     C37632   5.470   8.800  10.005 -0.3848  0.0989  0.1740
 1020MOL0     H37633   5.621   9.101  10.393  1.1664 -0.3176 -0.6679
 1020MOL0     H37634   5.816   9.238  10.500  3.2354  0.9594 -1.5058
 1020MOL0     H37635   6.012   9.532  10.223 -0.9666 -3.1607  1.3932
 1020MOL0     H37636   5.932   9.644  10.337 -2.6296 -0.6853 -2.2856
 1020MOL0     H37637   6.157   9.681  10.375 -2.4928  0.2387 -1.2067
 1020MOL0     H37638   6.088   9.582  10.506 -2.5634 -2.0872 -1.1796
 1020MOL0     H37639   6.171   9.369  10.423  3.1407 -0.4009  0.7992
 1020MOL0     H37640   6.200   9.438  10.263 -1.9829  2.1818 -1.0659
 1020MOL0     H37641   6.410   9.561  10.389  0.7231 -1.4006 -1.7140
 1020MOL0     H37642   6.330   9.492  10.534  2.2891  1.5968  0.2994
 1020MOL0     H37643   6.415   9.274  10.469  2.5210  0.9215  0.8883
 1020MOL0     H37644   6.445   9.323  10.299  2.3594 -0.3675 -0.3564
 1020MOL0     H37645   6.652   9.302  10.433 -0.8146 -0.4630  0.5978
 1020MOL0     H37646   6.619   9.474  10.378 -1.9197  0.2639 -1.6267
 1020MOL0     H37647   6.569   9.541  10.614 -1.5992  0.5288 -4.2231
 1020MOL0     H37648   6.543   9.371  10.653 -2.4615  0.9818  1.3457
 1020MOL0     H37649   6.796   9.337  10.610  3.8575  0.3351  1.2366
 1020MOL0     H37650   6.767   9.450  10.739  2.3691  1.8138 -0.5584
 1020MOL0     H37651   6.707   9.711  10.565 -0.7822 -0.8345  0.5984
 1020MOL0     H37652   6.861   9.907  10.429 -1.9094  1.4686 -2.5336
 1020MOL0     H37653   7.014   9.858  10.366  0.8124 -1.2213  1.1281
 1020MOL0     H37654   6.907   9.732  10.186  0.3451  1.0334  0.4871
 1020MOL0     H37655   6.880   9.905  10.170  2.1322  0.4764  0.7701
 1020MOL0     H37656   6.653   9.868  10.289 -1.5803 -0.1510 -2.2914
 1020MOL0     H37657   6.690   9.690  10.251  1.9137 -0.3193  0.3770
 1020MOL0     H37658   6.667   9.749  10.008  2.0645 -0.8277  0.7439
 1020MOL0     H37659   6.718   9.911  10.047  0.7245 -0.5894 -1.7156
 1020MOL0     H37660   6.292   9.926  10.063  0.4516 -0.2245  0.3297
 1020MOL0     H37661   6.056   9.907  10.071 -1.7735  0.7812 -1.1082
 1020MOL0     H37662   5.999   9.783   9.947  2.9208 -1.7451 -1.5855
 1020MOL0     H37663   5.991   9.758  10.122 -0.1473 -0.2180 -0.1430
 1020MOL0     H37664   5.987   9.256  10.117 -1.2609  2.1224 -0.7838
 1020MOL0     H37665   5.826   9.073  10.074 -1.6475  1.4065 -1.0703
 1020MOL0     H37666   5.668   9.063   9.715 -3.1436 -2.4239  0.4818
 1020MOL0     H37667   5.798   8.976   9.626  1.6024 -0.9923  0.6922
 1020MOL0     H37668   5.704   8.762   9.646  1.7793  0.9964 -1.1260
 1020MOL0     H37669   5.586   8.809   9.766  2.7148  2.6660  3.7036
 1020MOL0     H37670   5.504   8.790   9.514  0.7350  0.2763  0.1348
 1020MOL0     H37671   5.585   8.938   9.486 -0.0160 -1.1115 -0.0757
 1020MOL0     H37672   5.350   8.870   9.665  1.4467 -1.1434 -0.8200
 1020MOL0     H37673   5.453   9.008   9.712 -0.8369  0.2651  0.5593
 1020MOL0     H37674   5.323   8.990   9.443 -0.1685  0.1435  0.3238
 1020MOL0     H37675   5.398   9.133   9.522 -2.7335  1.8699  0.3614
 1020MOL0     H37676   5.155   8.997   9.623  1.1723 -0.5757 -0.2400
 1020MOL0     H37677   5.243   9.123   9.712 -5.5096  0.8004  1.0612
 1020MOL0     H37678   5.210   9.280   9.520 -0.2581 -0.4606 -2.4684
 1020MOL0     H37679   5.067   9.241   9.613 -2.9743 -1.7629 -1.4446
 1020MOL0     H37680   4.987   9.078   9.428 -0.1768 -0.1662 -1.5002
 1020MOL0     H37681   5.140   9.117   9.340 -0.1332 -3.0077  0.7224
 1020MOL0     H37682   5.975   9.041   9.675 -0.0605  0.2051 -0.1278
 1020MOL0     H37683   6.137   9.221   9.720 -2.0212 -0.3873 -2.8561
 1020MOL0     H37684   6.368   9.441  10.018  1.3348  0.5718  1.7513
 1020MOL0     H37685   6.534   9.581  10.086 -0.6930 -1.1319 -1.3014
 1020MOL0     H37686   5.807   9.499  10.166 -0.0959  2.4147  2.7611
 1020MOL0     H37687   5.636   9.347  10.058 -2.2983 -3.8005  0.0337
 1020MOL0     H37688   5.283   9.053  10.104  0.1240 -0.6218  2.1652
 1020MOL0     H37689   5.126   8.938   9.968 -1.1393 -1.9086  0.4852
 1020MOL0     H37690   4.980   8.791   9.869  0.1641 -0.0200  0.0238
 1020MOL0     H37691   5.077   8.840   9.714  4.8417 -1.8250 -0.4199
 1020MOL0     H37692   4.859   8.697   9.697  0.5109 -0.2493  1.5323
 1020MOL0     H37693   4.957   8.562   9.768 -0.1044  1.0050  1.7876
 1020MOL0     H37694   5.122   8.574   9.592 -0.7039 -1.3449  2.6234
 1020MOL0     H37695   5.013   8.713   9.527  0.0769 -1.3819  0.2624
 1020MOL0     H37696   4.843   8.549   9.508  0.5122  0.7197 -2.5510
 1020MOL0     H37697   4.976   8.421   9.531 -2.5532 -0.2930  2.4093
 1020MOL0     H37698   5.009   8.552   9.130  1.4714 -0.5224  0.5360
 1020MOL0     H37699   5.404   8.629   9.888 -0.2445 -0.0079 -0.5443
 1020MOL0     H37700   5.570   8.759   9.997 -0.8069 -0.6332 -2.0174
 1021MOL0     O37701  11.128   6.710   0.945  0.2526 -0.0143  0.1511
 1021MOL0     C37702  11.049   6.772   1.010  0.0157  0.2342 -1.2281
 1021MOL0     O37703  10.967   6.871   0.966  0.5297  0.7000 -0.3743
 1021MOL0     C37704  10.984   6.916   0.839 -0.2124 -0.9680  0.0746
 1021MOL0     C37705  11.003   7.056   0.823  0.2128  0.3049 -0.7886
 1021MOL0     C37706  11.017   7.113   0.695  0.4746 -0.0543 -1.0867
 1021MOL0     C37707  11.012   7.035   0.576 -0.3124 -0.5181 -0.0410
 1021MOL0     O37708  11.022   7.086   0.448 -0.3297  0.1664  0.5139
 1021MOL0     C37709  11.125   7.022   0.375 -0.7684 -0.4166 -0.3210
 1021MOL0     C37710  11.148   7.104   0.247  0.1182 -0.0193  0.5373
 1021MOL0     C37711  11.193   7.250   0.283  0.2801 -0.1461  0.4843
 1021MOL0     C37712  11.214   7.339   0.166  0.2725  1.4039  1.3240
 1021MOL0     C37713  11.197   7.479   0.196  0.0802 -0.2607  0.2763
 1021MOL0     C37714  11.174   7.561   0.072  0.2271  0.2205  0.6309
 1021MOL0     C37715  11.160   7.706   0.110 -0.4446  1.5683  0.2955
 1021MOL0     C37716  11.179   7.811   0.003 -0.0085  1.1800 -0.2703
 1021MOL0     N37717  11.147   7.752  -0.125  1.2390  0.7213  0.1759
 1021MOL0     C37718  11.236   7.698  -0.208  0.5546  0.3398 -0.0167
 1021MOL0     C37719  11.152   7.663  -0.315 -0.7994  0.9248  0.1602
 1021MOL0     C37720  11.192   7.580  -0.434 -0.0569  0.4775  0.0386
 1021MOL0     C37721  11.189   7.432  -0.388 -0.2946 -0.1443 -0.3692
 1021MOL0     C37722  11.057   7.390  -0.303 -0.0122 -0.4643  1.1970
 1021MOL0     C37723  11.062   7.252  -0.257 -0.5575 -0.1910  0.4854
 1021MOL0     O37724  11.184   7.231  -0.183  0.3015 -0.8889  0.0082
 1021MOL0     C37725  11.215   7.107  -0.129 -0.5209  0.4379  0.2679
 1021MOL0     C37726  11.122   7.006  -0.096  0.1660  0.2282 -0.0854
 1021MOL0     C37727  11.154   6.880  -0.037 -0.0197  0.2785 -0.3007
 1021MOL0     C37728  11.040   6.783   0.008  0.3772 -0.5971  1.0972
 1021MOL0     C37729  11.291   6.845  -0.022 -1.1891  0.0174 -0.0002
 1021MOL0     C37730  11.331   6.718   0.044  0.2877 -0.0166  0.4937
 1021MOL0     O37731  11.419   6.640  -0.024 -0.2416  0.7856 -0.5974
 1021MOL0     C37732  11.440   6.511   0.032 -0.5734 -0.0830  0.7322
 1021MOL0     C37733  11.573   6.478   0.076  0.7456 -1.1300 -0.2747
 1021MOL0     C37734  11.603   6.353   0.129 -0.3737 -0.9277 -0.6552
 1021MOL0     C37735  11.500   6.261   0.149  0.2034  0.1501  0.1871
 1021MOL0     O37736  11.542   6.139   0.195  0.4884 -0.0572 -0.9046
 1021MOL0     C37737  11.483   6.021   0.138 -0.2579  0.0671 -0.2899
 1021MOL0     C37738  11.378   5.961   0.236  0.3106  0.9796  0.4048
 1021MOL0     C37739  11.429   5.845   0.318  0.7504  0.0580 -0.5642
 1021MOL0     C37740  11.510   5.894   0.438 -0.2716 -0.0237  0.1209
 1021MOL0     C37741  11.496   5.799   0.550  0.5404 -0.6811 -0.2521
 1021MOL0     C37742  11.597   5.821   0.660  1.2960 -0.1657 -0.5484
 1021MOL0     C37743  11.607   5.725   0.771 -0.8693  0.4809  0.3320
 1021MOL0     C37744  11.742   5.723   0.844 -0.2424 -0.1735 -1.7934
 1021MOL0    Cl37745  11.899   5.723   0.746  0.0893 -0.4917 -0.1250
 1021MOL0     C37746  11.374   6.296   0.102 -0.5844  1.1030  0.2628
 1021MOL0     C37747  11.343   6.413   0.033  0.5080 -0.8144 -0.2860
 1021MOL0     O37748  11.287   6.696   0.149  0.1249  0.4474 -0.5146
 1021MOL0     C37749  11.386   6.939  -0.063  0.4198 -0.4835  0.7478
 1021MOL0     C37750  11.352   7.072  -0.099  0.6380 -0.2681  0.1917
 1021MOL0     N37751  11.021   7.704  -0.297 -0.9863  0.2187  0.4969
 1021MOL0     N37752  11.023   7.767  -0.183  0.2679  0.4113  0.6599
 1021MOL0     C37753  10.986   6.894   0.600  0.2936  0.0095  0.0575
 1021MOL0     C37754  10.977   6.834   0.728 -0.4609 -0.2502  0.4520
 1021MOL0     C37755  11.042   6.725   1.152 -0.1927  1.4053 -0.0017
 1021MOL0     C37756  11.156   6.655   1.210  0.3473 -0.1820 -0.1862
 1021MOL0     C37757  11.152   6.603   1.338  0.4503  0.1650  0.8647
 1021MOL0     C37758  11.042   6.631   1.419  0.4985 -0.6061 -0.6594
 1021MOL0     O37759  11.047   6.585   1.547 -0.8239  0.4302  0.1109
 1021MOL0     C37760  10.972   6.657   1.646 -0.0871 -0.2187 -1.0028
 1021MOL0     C37761  11.000   6.616   1.798  0.0791  0.0024  0.3305
 1021MOL0     C37762  10.932   6.697   1.905  0.4423 -0.5535 -0.1779
 1021MOL0     C37763  10.782   6.705   1.891  0.6793 -1.0334 -0.2404
 1021MOL0     C37764  10.734   6.799   1.993 -0.2675 -0.1529 -0.2625
 1021MOL0     C37765  10.707   6.862   2.098 -1.0757 -0.2531 -0.3426
 1021MOL0     C37766  10.933   6.697   1.369 -0.9971  0.4144  0.1425
 1021MOL0     C37767  10.930   6.744   1.237  0.0994  0.3449  0.9498
 1021MOL0     H37768  11.005   7.117   0.912  2.3345 -1.4197  0.4444
 1021MOL0     H37769  11.028   7.221   0.698  2.5069 -0.2256 -0.5971
 1021MOL0     H37770  11.209   7.020   0.445 -1.0092 -0.7331 -0.0330
 1021MOL0     H37771  11.109   6.918   0.344 -1.2310 -0.4426 -0.0002
 1021MOL0     H37772  11.236   7.066   0.195 -1.1509  0.7101 -2.3474
 1021MOL0     H37773  11.058   7.096   0.186 -0.0845  3.1611  0.2559
 1021MOL0     H37774  11.120   7.287   0.355 -0.6566 -1.3004  0.1699
 1021MOL0     H37775  11.281   7.249   0.347  1.0068 -1.1308 -0.4899
 1021MOL0     H37776  11.314   7.316   0.127 -0.4533 -1.6324  1.0080
 1021MOL0     H37777  11.143   7.304   0.090  1.0361 -1.5086  1.8567
 1021MOL0     H37778  11.113   7.488   0.266  0.5160 -0.8732  0.9025
 1021MOL0     H37779  11.276   7.530   0.252  1.1961 -0.3052 -1.2041
 1021MOL0     H37780  11.259   7.548   0.004 -0.2058  0.3165  0.0598
 1021MOL0     H37781  11.082   7.516   0.034 -0.3281  1.1381  0.8699
 1021MOL0     H37782  11.057   7.723   0.143 -0.6475 -3.0818  2.9097
 1021MOL0     H37783  11.224   7.712   0.198  0.7853 -0.9272 -0.3619
 1021MOL0     H37784  11.286   7.829   0.013  0.4636 -0.9180 -1.1640
 1021MOL0     H37785  11.116   7.899   0.021 -0.0684  1.2155 -0.6446
 1021MOL0     H37786  11.339   7.667  -0.193 -0.3037 -2.2400  1.1151
 1021MOL0     H37787  11.125   7.602  -0.518  1.7414  1.5695 -1.1916
 1021MOL0     H37788  11.294   7.604  -0.466  0.9405 -0.0588  2.5851
 1021MOL0     H37789  11.270   7.426  -0.315 -0.2609 -2.7162 -0.5386
 1021MOL0     H37790  11.207   7.386  -0.485 -3.6587  0.9266 -1.6704
 1021MOL0     H37791  10.974   7.435  -0.358  0.6663  0.1508  0.6476
 1021MOL0     H37792  11.060   7.454  -0.214 -0.2593 -0.7131  1.3867
 1021MOL0     H37793  11.076   7.187  -0.344 -1.6896 -0.6236  0.6174
 1021MOL0     H37794  10.965   7.231  -0.211 -0.6593 -0.8219  0.0010
 1021MOL0     H37795  11.020   7.040  -0.110  0.5045  0.9313 -0.9868
 1021MOL0     H37796  11.014   6.788   0.114 -0.2946 -4.7500  1.2846
 1021MOL0     H37797  10.949   6.810  -0.047 -0.2126  0.6052  2.6123
 1021MOL0     H37798  11.076   6.684  -0.022 -1.6648 -1.6516  1.9030
 1021MOL0     H37799  11.645   6.558   0.068 -0.3084  0.0151  1.1936
 1021MOL0     H37800  11.709   6.333   0.148  0.1026 -0.2763 -2.4639
 1021MOL0     H37801  11.437   6.037   0.040 -0.1987 -3.5330 -1.0180
 1021MOL0     H37802  11.555   5.940   0.122 -0.7622 -0.6018  0.6973
 1021MOL0     H37803  11.331   6.039   0.296  3.5253  1.3077  2.7720
 1021MOL0     H37804  11.295   5.916   0.182  0.1852  3.1870 -1.3640
 1021MOL0     H37805  11.484   5.777   0.253 -1.5993 -1.3113 -1.2385
 1021MOL0     H37806  11.345   5.786   0.355  1.5526 -2.3421 -2.3160
 1021MOL0     H37807  11.614   5.903   0.406  0.1882 -3.3094  0.2708
 1021MOL0     H37808  11.472   5.992   0.467 -3.0490 -1.6497  2.5475
 1021MOL0     H37809  11.505   5.695   0.514 -0.7527 -2.1324  3.1855
 1021MOL0     H37810  11.394   5.806   0.588 -0.5230 -0.5175 -2.8860
 1021MOL0     H37811  11.697   5.828   0.614  2.6482 -2.0150  1.8902
 1021MOL0     H37812  11.590   5.915   0.716  4.2307 -1.0120  1.4703
 1021MOL0     H37813  11.587   5.622   0.738  0.0388  0.2862  0.3831
 1021MOL0     H37814  11.532   5.758   0.843 -1.2901  0.6807 -0.1826
 1021MOL0     H37815  11.733   5.638   0.911  2.4169  0.3680 -0.6176
 1021MOL0     H37816  11.744   5.804   0.918 -1.8318 -0.2858 -1.5969
 1021MOL0     H37817  11.291   6.231   0.126 -0.0035  0.8064  1.5313
 1021MOL0     H37818  11.240   6.436   0.005 -0.0063  0.0137  2.0291
 1021MOL0     H37819  11.493   6.920  -0.055  0.8683  1.8499  0.7786
 1021MOL0     H37820  11.426   7.145  -0.131 -0.9314  0.3638 -2.2790
 1021MOL0     H37821  10.987   6.836   0.508 -0.7851 -0.3299  0.2460
 1021MOL0     H37822  10.964   6.727   0.734  2.0555 -0.9537 -3.5696
 1021MOL0     H37823  11.249   6.653   1.154 -0.4344  4.9451 -2.1954
 1021MOL0     H37824  11.232   6.540   1.375 -1.2510 -2.1964  0.7561
 1021MOL0     H37825  10.998   6.763   1.644 -1.6818  0.2027 -0.7333
 1021MOL0     H37826  10.864   6.643   1.634 -1.1396  4.9098  0.1002
 1021MOL0     H37827  11.108   6.633   1.804 -0.0612  0.4271  2.0683
 1021MOL0     H37828  10.976   6.510   1.813 -1.2992  0.7544  5.3937
 1021MOL0     H37829  10.985   6.790   1.883  1.1472 -1.2441 -1.5887
 1021MOL0     H37830  10.966   6.663   2.003 -0.4311 -4.0360 -0.9381
 1021MOL0     H37831  10.735   6.606   1.904  1.1192 -1.1714  0.3845
 1021MOL0     H37832  10.755   6.754   1.798  0.0897  0.6385  0.7619
 1021MOL0     H37833  10.689   6.915   2.190 -1.1006  0.6415 -0.8529
 1021MOL0     H37834  10.842   6.713   1.425 -0.4154  0.0172  1.2191
 1021MOL0     H37835  10.840   6.786   1.192  1.2716  1.1885 -0.7351
 1022MOL0     O37836   3.345   2.657  11.222 -0.5365 -0.3181 -0.0801
 1022MOL0     C37837   3.336   2.617  11.339  0.0670 -0.1209 -0.0889
 1022MOL0     O37838   3.220   2.603  11.409 -0.7414  0.2924 -0.0941
 1022MOL0     C37839   3.098   2.643  11.355 -0.4298  0.0243 -0.7716
 1022MOL0     C37840   2.996   2.629  11.449  0.0067 -0.1769 -0.1228
 1022MOL0     C37841   2.866   2.670  11.416 -0.4204  0.9891 -0.2636
 1022MOL0     C37842   2.838   2.734  11.294 -0.3243  0.7537 -0.0384
 1022MOL0     O37843   2.712   2.784  11.266 -0.8387 -0.6896 -0.0515
 1022MOL0     C37844   2.598   2.761  11.356 -0.9433  0.1936 -0.1764
 1022MOL0     C37845   2.476   2.845  11.296  0.2735  0.2050  0.9227
 1022MOL0     C37846   2.499   2.998  11.288  0.1225  1.5092  0.1264
 1022MOL0     C37847   2.442   3.060  11.150  0.2335  0.9020  0.0136
 1022MOL0     C37848   2.448   3.213  11.151  0.1089 -0.0292 -0.3457
 1022MOL0     C37849   2.339   3.278  11.065 -0.1510  0.1456  0.6343
 1022MOL0     C37850   2.325   3.432  11.084  0.3394  0.5329 -0.4679
 1022MOL0     C37851   2.204   3.487  11.002  0.5552 -0.7751 -0.8077
 1022MOL0     N37852   2.219   3.478  10.857 -0.3410  0.9733  0.2982
 1022MOL0     C37853   2.298   3.555  10.777  0.1737  0.8353 -0.3450
 1022MOL0     C37854   2.268   3.513  10.657 -0.5765 -0.2753 -0.2140
 1022MOL0     C37855   2.323   3.567  10.533  0.4947  0.3168 -0.2443
 1022MOL0     C37856   2.229   3.670  10.466 -0.6491 -0.5820  0.2909
 1022MOL0     C37857   2.079   3.650  10.457  0.4489  1.0091  0.6324
 1022MOL0     C37858   1.988   3.663  10.583 -0.6441 -0.8979  0.2462
 1022MOL0     O37859   1.995   3.804  10.634  0.1059 -0.1795  1.0432
 1022MOL0     C37860   1.924   3.901  10.564 -0.4716  0.3822  0.1004
 1022MOL0     C37861   1.975   4.024  10.522  0.5235  0.0064  0.4299
 1022MOL0     C37862   1.902   4.118  10.444 -0.6070 -0.7316  0.3859
 1022MOL0     C37863   1.969   4.240  10.385  0.8662  0.0808  1.1408
 1022MOL0     C37864   1.767   4.087  10.419 -0.5564 -0.5774 -0.2736
 1022MOL0     C37865   1.671   4.164  10.335  0.2266  0.0122 -0.5350
 1022MOL0     O37866   1.659   4.297  10.364  0.2253  0.3682 -0.2471
 1022MOL0     C37867   1.553   4.377  10.314  1.7039  0.1756 -0.1517
 1022MOL0     C37868   1.417   4.347  10.286 -0.4602 -0.1810 -0.3765
 1022MOL0     C37869   1.330   4.447  10.247 -0.4581  0.9852  0.1837
 1022MOL0     C37870   1.377   4.580  10.236 -1.0771 -1.0626 -0.0846
 1022MOL0     O37871   1.304   4.696  10.206  0.0312  0.3329  0.2838
 1022MOL0     C37872   1.166   4.702  10.205 -0.4346  0.2405 -0.5758
 1022MOL0     C37873   1.124   4.847  10.238 -1.1271 -0.5387 -0.2107
 1022MOL0     C37874   1.208   4.952  10.153  0.6601  0.8593 -0.3759
 1022MOL0     C37875   1.184   4.944  10.003  0.6662 -1.2630 -0.7775
 1022MOL0     C37876   1.240   5.077   9.939  0.6341  0.9527 -0.5411
 1022MOL0     C37877   1.150   5.117   9.825 -0.4234  0.2333  0.1089
 1022MOL0     C37878   1.017   5.190   9.855  0.1174 -0.6051 -0.2186
 1022MOL0     C37879   1.049   5.332   9.907  0.1934  0.1649 -0.3753
 1022MOL0    Cl37880   0.884   5.387   9.950 -0.3939  0.0223  0.1785
 1022MOL0     C37881   1.510   4.607  10.261 -0.6749  0.6865  0.6244
 1022MOL0     C37882   1.602   4.502  10.300  0.4743 -0.3613 -0.0044
 1022MOL0     O37883   1.585   4.112  10.257  0.3947  0.3916  0.5023
 1022MOL0     C37884   1.715   3.965  10.466  0.4788 -0.7927  0.2619
 1022MOL0     C37885   1.794   3.874  10.534  0.4839 -1.2493 -0.3088
 1022MOL0     N37886   2.190   3.405  10.656 -0.0183 -0.1935  0.3419
 1022MOL0     N37887   2.157   3.382  10.779  0.6984  0.1216 -0.2732
 1022MOL0     C37888   2.939   2.737  11.193  0.0479 -0.3256  0.4164
 1022MOL0     C37889   3.072   2.693  11.228 -0.1104 -0.5486 -0.4116
 1022MOL0     C37890   3.461   2.578  11.403  0.9252  0.5193 -0.1935
 1022MOL0     C37891   3.585   2.583  11.334  1.2421  0.1114 -0.6387
 1022MOL0     C37892   3.701   2.550  11.395 -0.4685 -1.4956  0.0748
 1022MOL0     C37893   3.705   2.505  11.528  0.4016  0.9479 -0.0460
 1022MOL0     O37894   3.823   2.455  11.588 -0.1275 -0.4007  0.4193
 1022MOL0     C37895   3.938   2.432  11.507 -0.3413  0.0062 -0.8785
 1022MOL0     C37896   4.063   2.418  11.607  1.2378  0.4242 -0.1770
 1022MOL0     C37897   4.192   2.406  11.526  0.3915 -0.1361  0.2168
 1022MOL0     C37898   4.323   2.386  11.608 -0.2479 -0.8187  0.1995
 1022MOL0     C37899   4.297   2.304  11.728  0.5552 -0.5730 -0.5316
 1022MOL0     C37900   4.280   2.224  11.817  0.1979  0.0884 -0.2832
 1022MOL0     C37901   3.586   2.512  11.601 -0.4873 -0.4105 -0.2310
 1022MOL0     C37902   3.460   2.540  11.545 -0.4069  0.3528  0.6430
 1022MOL0     H37903   3.005   2.593  11.551 -3.1820  1.9772  1.0738
 1022MOL0     H37904   2.793   2.669  11.496 -1.0917 -0.7035 -0.8478
 1022MOL0     H37905   2.583   2.654  11.367  4.0186 -0.4692  4.1563
 1022MOL0     H37906   2.605   2.812  11.452 -2.5356  0.2757 -0.0762
 1022MOL0     H37907   2.456   2.797  11.200 -0.2288 -1.0017  1.6158
 1022MOL0     H37908   2.383   2.829  11.351  0.2287  0.3886  0.9040
 1022MOL0     H37909   2.445   3.036  11.374  2.9198 -1.9265  3.7688
 1022MOL0     H37910   2.606   3.020  11.295  1.5492 -3.9594  0.1407
 1022MOL0     H37911   2.493   3.011  11.066 -0.4860  0.0155  0.0694
 1022MOL0     H37912   2.336   3.043  11.131  0.1116  2.5009 -0.8674
 1022MOL0     H37913   2.414   3.248  11.249 -2.0849 -0.1304 -1.0198
 1022MOL0     H37914   2.553   3.237  11.134  0.2207 -1.1883 -1.3871
 1022MOL0     H37915   2.348   3.260  10.957  1.9394  1.3690  0.5546
 1022MOL0     H37916   2.243   3.233  11.091 -0.4630  0.8601  0.7364
 1022MOL0     H37917   2.299   3.444  11.190  0.2197 -3.6693  0.1787
 1022MOL0     H37918   2.417   3.482  11.054  0.7890  0.4040  0.6674
 1022MOL0     H37919   2.185   3.589  11.036  0.4978 -1.6330  1.9243
 1022MOL0     H37920   2.111   3.435  11.027  0.9601 -0.9233  0.4500
 1022MOL0     H37921   2.367   3.630  10.813  0.8608 -0.2746  0.7314
 1022MOL0     H37922   2.416   3.622  10.551 -0.4947  0.8521  4.4909
 1022MOL0     H37923   2.347   3.484  10.466  0.9737 -0.5348  0.9306
 1022MOL0     H37924   2.267   3.681  10.365 -1.7629 -3.2040 -0.4848
 1022MOL0     H37925   2.248   3.766  10.517 -5.8158  0.8252  0.1879
 1022MOL0     H37926   2.058   3.553  10.411 -0.8056  0.5270  2.1174
 1022MOL0     H37927   2.033   3.721  10.388 -0.1359  1.0973  1.1069
 1022MOL0     H37928   2.006   3.592  10.664 -2.7211  0.7448  2.2795
 1022MOL0     H37929   1.886   3.640  10.553 -0.4579  0.4521 -1.5901
 1022MOL0     H37930   2.072   4.047  10.564  0.4613 -0.0374  0.6009
 1022MOL0     H37931   2.066   4.263  10.431  1.8545  0.1617 -0.8721
 1022MOL0     H37932   1.988   4.206  10.283  0.9154  0.5334  0.9954
 1022MOL0     H37933   1.895   4.319  10.402  0.5771 -0.0043  0.3361
 1022MOL0     H37934   1.371   4.249  10.300  3.1897 -1.6285  4.3225
 1022MOL0     H37935   1.223   4.428  10.245 -0.3600  0.1936  1.3834
 1022MOL0     H37936   1.127   4.672  10.107  2.1553  0.9096 -1.9169
 1022MOL0     H37937   1.111   4.640  10.275 -2.5119  1.5989 -0.9268
 1022MOL0     H37938   1.017   4.870  10.236 -1.0161  0.7269  2.7405
 1022MOL0     H37939   1.162   4.860  10.340  2.0482 -1.4424 -1.1452
 1022MOL0     H37940   1.316   4.951  10.170  0.3375 -3.3417  2.9268
 1022MOL0     H37941   1.188   5.054  10.189 -1.0565 -0.0178  1.3439
 1022MOL0     H37942   1.227   4.857   9.952 -0.2359 -1.6188 -0.9598
 1022MOL0     H37943   1.077   4.954   9.980  0.5166  0.7736  0.5739
 1022MOL0     H37944   1.337   5.044   9.900 -0.3074 -2.6857 -0.1096
 1022MOL0     H37945   1.259   5.160  10.009 -3.7324  2.0627 -0.3915
 1022MOL0     H37946   1.213   5.186   9.768  2.3472 -0.9259  1.5671
 1022MOL0     H37947   1.137   5.034   9.755 -0.1774  1.2969 -1.2400
 1022MOL0     H37948   0.957   5.136   9.929 -0.5678 -1.0780 -1.0968
 1022MOL0     H37949   0.959   5.201   9.762  0.3337  0.7526 -0.2110
 1022MOL0     H37950   1.101   5.403   9.842 -1.1906  1.7336  0.1852
 1022MOL0     H37951   1.097   5.324  10.005 -1.5744 -1.5178  0.4305
 1022MOL0     H37952   1.540   4.711  10.254  1.5708  0.0679  0.4263
 1022MOL0     H37953   1.702   4.536  10.325 -0.2629  1.8706  0.1764
 1022MOL0     H37954   1.611   3.947  10.444 -1.2945  2.1400  4.9216
 1022MOL0     H37955   1.749   3.779  10.559  2.1907 -1.8377  0.6401
 1022MOL0     H37956   2.903   2.779  11.099 -0.8578 -1.9197  0.0047
 1022MOL0     H37957   3.140   2.692  11.144 -1.5505 -2.8440 -1.6606
 1022MOL0     H37958   3.581   2.606  11.228  0.6854 -1.3716 -0.9722
 1022MOL0     H37959   3.792   2.533  11.339 -0.5548 -2.9822  0.3181
 1022MOL0     H37960   3.928   2.333  11.462  2.3919  0.0932 -1.8226
 1022MOL0     H37961   3.961   2.513  11.438 -2.4944  3.1256  1.7696
 1022MOL0     H37962   4.055   2.331  11.673 -0.3912  2.2856  2.3017
 1022MOL0     H37963   4.068   2.499  11.680 -0.7250  0.5006 -0.0513
 1022MOL0     H37964   4.199   2.481  11.447  0.8563 -2.0586 -1.6571
 1022MOL0     H37965   4.175   2.312  11.473  0.3142  0.4888 -0.8772
 1022MOL0     H37966   4.373   2.480  11.633 -2.3423  0.5369 -0.4706
 1022MOL0     H37967   4.383   2.315  11.551  0.7988 -1.2217  1.7400
 1022MOL0     H37968   4.265   2.150  11.892  3.3737 -3.0954 -2.4277
 1022MOL0     H37969   3.600   2.490  11.706  3.0698  2.0558 -0.0260
 1022MOL0     H37970   3.370   2.548  11.604 -0.3852  1.3896  0.5551
 1023MOL0     O37971   5.091   7.706   2.491  0.6315  0.0345  0.8898
 1023MOL0     C37972   5.200   7.723   2.436 -0.1542 -0.7024 -0.8249
 1023MOL0     O37973   5.325   7.676   2.472  0.6064  0.2784  0.0325
 1023MOL0     C37974   5.323   7.592   2.580 -0.9138 -0.1431 -0.1800
 1023MOL0     C37975   5.393   7.466   2.576  0.4617  0.3736 -0.0609
 1023MOL0     C37976   5.411   7.386   2.688 -0.5745  0.7118  0.2294
 1023MOL0     C37977   5.357   7.430   2.813 -1.1132 -0.9127  1.2605
 1023MOL0     O37978   5.375   7.345   2.915 -0.0620  0.8111 -0.7122
 1023MOL0     C37979   5.321   7.376   3.047  0.1572 -0.4035 -0.4523
 1023MOL0     C37980   5.350   7.257   3.137 -0.3346  0.4981 -0.4344
 1023MOL0     C37981   5.260   7.134   3.103 -0.1344 -0.3549 -0.5029
 1023MOL0     C37982   5.264   7.027   3.206 -0.5278 -1.0967 -0.4619
 1023MOL0     C37983   5.170   7.049   3.324  0.4512  0.2442  0.8383
 1023MOL0     C37984   5.109   6.912   3.373 -0.4770 -1.4909 -0.2958
 1023MOL0     C37985   5.198   6.802   3.432 -0.1766  0.1223  0.5269
 1023MOL0     C37986   5.109   6.694   3.494  0.0622  0.2098  0.6400
 1023MOL0     N37987   5.184   6.573   3.540  0.4396  0.5020  0.1458
 1023MOL0     C37988   5.280   6.496   3.469 -0.5479  1.0295  0.5287
 1023MOL0     C37989   5.300   6.384   3.540  1.5319  0.1359  0.3305
 1023MOL0     C37990   5.395   6.268   3.510  0.9490 -0.1162 -0.1486
 1023MOL0     C37991   5.330   6.171   3.419  0.1832  1.1443 -0.3608
 1023MOL0     C37992   5.212   6.101   3.481 -0.0667  0.1836 -0.2704
 1023MOL0     C37993   5.184   5.980   3.393 -0.4784  1.3141 -0.1727
 1023MOL0     O37994   5.270   5.864   3.424  0.0705 -0.1609 -0.6578
 1023MOL0     C37995   5.289   5.819   3.556  0.1739  0.5888 -0.5939
 1023MOL0     C37996   5.408   5.828   3.617 -0.7671  0.3792  1.3253
 1023MOL0     C37997   5.425   5.756   3.740 -0.1383  0.1396 -0.2180
 1023MOL0     C37998   5.563   5.770   3.807  0.0327 -1.1667  0.0452
 1023MOL0     C37999   5.329   5.668   3.793  0.1687  0.3327  0.4596
 1023MOL0     C38000   5.335   5.586   3.918  0.8971  0.5317 -0.0913
 1023MOL0     O38001   5.452   5.577   3.979 -0.8766 -0.6512  0.9873
 1023MOL0     C38002   5.476   5.524   4.095 -0.4579  0.0977 -0.5212
 1023MOL0     C38003   5.396   5.444   4.179  0.1334 -0.2973 -0.6988
 1023MOL0     C38004   5.438   5.397   4.304  1.2260 -0.9423 -0.2778
 1023MOL0     C38005   5.558   5.430   4.359 -0.6301 -0.0131 -0.0298
 1023MOL0     O38006   5.594   5.402   4.491  0.2298  0.1097 -0.4030
 1023MOL0     C38007   5.489   5.378   4.588  0.6476 -0.0803 -0.8416
 1023MOL0     C38008   5.532   5.412   4.731  0.1473 -0.0761  0.4722
 1023MOL0     C38009   5.609   5.294   4.798  0.4060 -0.5142  0.5444
 1023MOL0     C38010   5.742   5.255   4.739 -0.0203 -0.0776 -0.1421
 1023MOL0     C38011   5.875   5.284   4.818 -0.5127 -0.9331 -0.3296
 1023MOL0     C38012   5.912   5.432   4.840 -0.3579  0.3398 -0.4678
 1023MOL0     C38013   6.064   5.463   4.886  0.4353 -0.2895  0.1150
 1023MOL0     C38014   6.172   5.383   4.827  0.5594 -0.4456  0.3934
 1023MOL0    Cl38015   6.327   5.453   4.885 -0.2872 -0.1587  0.3385
 1023MOL0     C38016   5.642   5.494   4.263 -0.3233 -0.2001 -0.3328
 1023MOL0     C38017   5.606   5.539   4.132  0.4698 -0.2668  0.3586
 1023MOL0     O38018   5.232   5.520   3.947 -0.0160  0.2424 -0.1381
 1023MOL0     C38019   5.204   5.669   3.719 -0.1327  0.4883 -0.0585
 1023MOL0     C38020   5.181   5.747   3.611  0.1209 -0.7606  0.8403
 1023MOL0     N38021   5.211   6.384   3.653  0.2796  0.4475  0.6820
 1023MOL0     N38022   5.154   6.501   3.649 -0.1028  0.8091  0.0092
 1023MOL0     C38023   5.299   7.556   2.812  0.0964  0.0743 -0.3689
 1023MOL0     C38024   5.279   7.634   2.701 -0.9283  0.5098  0.9744
 1023MOL0     C38025   5.199   7.809   2.312  0.4701  0.0421 -0.8937
 1023MOL0     C38026   5.324   7.827   2.245  0.4101  0.6849 -0.4204
 1023MOL0     C38027   5.332   7.911   2.129 -0.0471  0.8725  0.1262
 1023MOL0     C38028   5.216   7.970   2.073  0.6910  0.3554  0.0710
 1023MOL0     O38029   5.228   8.049   1.974 -0.5687  0.2349 -0.0400
 1023MOL0     C38030   5.128   8.052   1.873 -0.1699 -0.5846 -0.3449
 1023MOL0     C38031   5.160   8.162   1.768 -0.4875  0.3418 -0.0366
 1023MOL0     C38032   5.178   8.300   1.838  0.1292  0.0404  0.0784
 1023MOL0     C38033   5.176   8.419   1.744 -0.8234 -0.4588  0.0772
 1023MOL0     C38034   5.058   8.421   1.661  0.8837 -0.2495  0.5892
 1023MOL0     C38035   4.950   8.425   1.602 -0.0038  0.1624  0.2144
 1023MOL0     C38036   5.090   7.927   2.133  0.3685  0.0270  0.2984
 1023MOL0     C38037   5.088   7.860   2.261  0.2408 -0.1689  0.3959
 1023MOL0     H38038   5.427   7.418   2.485  1.7497 -0.6342  0.9229
 1023MOL0     H38039   5.458   7.290   2.671 -2.3210 -0.2986  0.9108
 1023MOL0     H38040   5.365   7.468   3.085  0.0082  0.5317 -2.4240
 1023MOL0     H38041   5.212   7.384   3.039 -0.0564 -2.1144  0.2093
 1023MOL0     H38042   5.453   7.223   3.123 -0.7398 -0.0904 -2.2817
 1023MOL0     H38043   5.348   7.294   3.240  2.6211  0.9287 -0.4590
 1023MOL0     H38044   5.157   7.165   3.082  0.4566  2.1171 -0.0310
 1023MOL0     H38045   5.296   7.080   3.015  0.8452 -2.5963  1.1739
 1023MOL0     H38046   5.242   6.936   3.149  0.0250 -0.7182 -1.3181
 1023MOL0     H38047   5.366   7.017   3.244  0.4196 -1.8959 -2.9926
 1023MOL0     H38048   5.224   7.093   3.409 -3.4571  3.4551  1.9720
 1023MOL0     H38049   5.095   7.122   3.292  1.0386  0.4650 -0.0954
 1023MOL0     H38050   5.044   6.935   3.457  0.0065 -1.7161  0.1443
 1023MOL0     H38051   5.041   6.882   3.293  1.2097  1.6720 -3.2530
 1023MOL0     H38052   5.255   6.749   3.356 -3.2595 -2.4776 -0.2152
 1023MOL0     H38053   5.267   6.838   3.508 -1.8267  1.3125  1.5263
 1023MOL0     H38054   5.040   6.663   3.414  1.5573 -1.9128  0.0882
 1023MOL0     H38055   5.051   6.739   3.575  1.1459 -1.3606  2.3465
 1023MOL0     H38056   5.332   6.506   3.374  1.6957 -2.9386  1.1182
 1023MOL0     H38057   5.482   6.315   3.464  0.1997  1.0196 -0.4534
 1023MOL0     H38058   5.418   6.222   3.607 -3.3597 -1.8749  0.2881
 1023MOL0     H38059   5.401   6.092   3.391 -1.1863  0.2558 -1.4316
 1023MOL0     H38060   5.305   6.223   3.326  0.6875  2.4631  0.2243
 1023MOL0     H38061   5.130   6.172   3.470  1.6512  2.2459 -0.4767
 1023MOL0     H38062   5.233   6.072   3.585  0.3903  1.8136  0.1215
 1023MOL0     H38063   5.199   6.006   3.288 -0.8279  1.6177 -0.1513
 1023MOL0     H38064   5.079   5.952   3.400 -0.7264  1.8849 -1.2881
 1023MOL0     H38065   5.490   5.863   3.556 -0.8750 -0.8170  0.4631
 1023MOL0     H38066   5.559   5.819   3.905  1.5351 -1.5161  0.3075
 1023MOL0     H38067   5.622   5.680   3.820  0.2215 -0.9610  0.6159
 1023MOL0     H38068   5.623   5.828   3.736 -0.9081  0.1826  0.3125
 1023MOL0     H38069   5.293   5.418   4.157 -0.6589  2.0834 -0.1266
 1023MOL0     H38070   5.365   5.340   4.361  2.4660 -0.8721  1.4204
 1023MOL0     H38071   5.406   5.443   4.560  2.3438  1.0946 -3.5232
 1023MOL0     H38072   5.465   5.271   4.595  0.3547  0.1060  4.5755
 1023MOL0     H38073   5.603   5.495   4.731  1.6139 -1.2614 -0.7265
 1023MOL0     H38074   5.443   5.435   4.790 -0.8043 -2.0083 -0.1321
 1023MOL0     H38075   5.541   5.209   4.799 -0.3208  0.0436  1.7387
 1023MOL0     H38076   5.637   5.323   4.900  0.7268 -0.4270  0.4344
 1023MOL0     H38077   5.748   5.148   4.717  0.8193 -0.8407  3.1847
 1023MOL0     H38078   5.743   5.310   4.644  2.6656  2.8739  1.4190
 1023MOL0     H38079   5.956   5.244   4.755  1.6182  2.3880  0.0457
 1023MOL0     H38080   5.871   5.234   4.915  0.5683  0.8060  0.6495
 1023MOL0     H38081   5.887   5.481   4.746 -1.9577  2.3464  0.9119
 1023MOL0     H38082   5.846   5.472   4.918  1.6652 -0.5072  1.8358
 1023MOL0     H38083   6.063   5.435   4.992 -2.3885 -0.7287  0.0696
 1023MOL0     H38084   6.076   5.571   4.873 -3.2149  0.3543  0.8913
 1023MOL0     H38085   6.169   5.378   4.717 -2.1693 -1.2338  0.4325
 1023MOL0     H38086   6.173   5.278   4.857  4.3246 -1.0081 -1.1609
 1023MOL0     H38087   5.743   5.523   4.290  0.4104 -1.0184 -1.9836
 1023MOL0     H38088   5.677   5.599   4.076 -0.8421 -0.0568 -1.1244
 1023MOL0     H38089   5.120   5.605   3.745 -0.2497 -0.2148 -2.0053
 1023MOL0     H38090   5.084   5.750   3.562  1.4515  5.5821 -2.4178
 1023MOL0     H38091   5.248   7.590   2.901  1.3876 -2.2967  1.3840
 1023MOL0     H38092   5.234   7.733   2.705  2.6832  2.3043  1.2771
 1023MOL0     H38093   5.417   7.785   2.283 -1.0371 -1.1976  1.2852
 1023MOL0     H38094   5.430   7.928   2.086  0.7799  1.0764  1.9950
 1023MOL0     H38095   5.124   7.954   1.824  0.8097 -1.7732  1.7874
 1023MOL0     H38096   5.037   8.072   1.931  0.4514 -2.9843  1.6473
 1023MOL0     H38097   5.085   8.171   1.689  0.4501 -1.5237 -1.2066
 1023MOL0     H38098   5.252   8.124   1.723 -0.3271 -1.0737  1.3729
 1023MOL0     H38099   5.279   8.300   1.881 -0.3740  1.9481  1.3917
 1023MOL0     H38100   5.107   8.312   1.920  0.4016  0.3729  0.2710
 1023MOL0     H38101   5.265   8.418   1.680 -0.9254 -1.6158 -0.0645
 1023MOL0     H38102   5.186   8.510   1.804  1.1520 -0.7166  0.2267
 1023MOL0     H38103   4.852   8.429   1.559  0.3907 -1.8478 -1.0107
 1023MOL0     H38104   4.992   7.958   2.100  0.0180  2.4557  3.2284
 1023MOL0     H38105   4.995   7.835   2.312  0.7754 -2.5184  0.3311
 1024MOL0     O38106  11.358   4.362   0.343  0.0336  0.8647  0.8753
 1024MOL0     C38107  11.454   4.385   0.408  0.2885  0.7543 -0.4234
 1024MOL0     O38108  11.454   4.443   0.535  0.0756  0.4873 -0.3553
 1024MOL0     C38109  11.342   4.505   0.576 -0.6676  0.4465 -0.3590
 1024MOL0     C38110  11.323   4.500   0.714 -0.0126  0.0230  0.1535
 1024MOL0     C38111  11.211   4.563   0.769 -0.0119 -0.3175 -0.4105
 1024MOL0     C38112  11.105   4.615   0.694 -0.5508  0.2775  0.4541
 1024MOL0     O38113  11.009   4.685   0.763 -0.5172 -0.4541 -0.3951
 1024MOL0     C38114  10.914   4.769   0.693 -0.4739  0.4176  0.8813
 1024MOL0     C38115  10.858   4.873   0.787 -0.1080 -0.6462 -0.3251
 1024MOL0     C38116  10.969   4.977   0.814 -0.4603 -0.5990 -0.2358
 1024MOL0     C38117  10.954   5.103   0.735  0.2847 -1.0957  0.1017
 1024MOL0     C38118  11.068   5.206   0.758  0.1057 -0.0511  0.2693
 1024MOL0     C38119  11.023   5.350   0.738  0.4608  0.9877 -0.1363
 1024MOL0     C38120  11.131   5.455   0.763  0.1535 -0.8600 -0.2087
 1024MOL0     C38121  11.247   5.444   0.665 -0.5904 -0.1818  1.2147
 1024MOL0     N38122  11.194   5.463   0.532 -0.2126  0.3759  0.3139
 1024MOL0     C38123  11.174   5.370   0.436 -0.9414 -0.0349 -0.6893
 1024MOL0     C38124  11.106   5.438   0.339 -0.2637  0.5031 -0.5430
 1024MOL0     C38125  11.052   5.372   0.211  0.0283 -0.5954  0.0234
 1024MOL0     C38126  10.929   5.285   0.232  0.6560  0.1727 -0.0672
 1024MOL0     C38127  10.809   5.369   0.283  0.0754 -0.1102 -0.9553
 1024MOL0     C38128  10.689   5.269   0.309 -1.6175  0.3348 -0.6282
 1024MOL0     O38129  10.678   5.155   0.210 -0.2191  0.2167 -0.3394
 1024MOL0     C38130  10.663   5.171   0.074  0.7833  0.3737 -0.0511
 1024MOL0     C38131  10.600   5.274   0.014 -0.1006 -0.7022 -0.0452
 1024MOL0     C38132  10.583   5.286  -0.126  0.7872  0.1048  0.5360
 1024MOL0     C38133  10.514   5.405  -0.175 -0.5289  0.1005  0.0781
 1024MOL0     C38134  10.626   5.179  -0.209  0.6506 -1.0935  0.2824
 1024MOL0     C38135  10.585   5.165  -0.352 -0.2682 -0.6597 -0.1898
 1024MOL0     O38136  10.660   5.083  -0.429 -0.3515  0.0461  0.0102
 1024MOL0     C38137  10.613   5.026  -0.543  0.7854  0.9450 -0.0288
 1024MOL0     C38138  10.477   4.999  -0.566 -0.2185  0.5402 -0.3149
 1024MOL0     C38139  10.438   4.958  -0.697 -0.1342  0.3418  0.1131
 1024MOL0     C38140  10.538   4.924  -0.796 -0.6166  0.9080  0.2457
 1024MOL0     O38141  10.507   4.887  -0.924  0.0157  0.1286  0.0845
 1024MOL0     C38142  10.380   4.906  -0.979 -0.3164  0.6636  0.2638
 1024MOL0     C38143  10.373   4.862  -1.127 -0.4580  0.4428 -1.1986
 1024MOL0     C38144  10.368   4.710  -1.135 -0.2030  0.2709  0.2759
 1024MOL0     C38145  10.509   4.642  -1.139  0.1781  0.2442 -0.0261
 1024MOL0     C38146  10.540   4.504  -1.079  0.4086  0.3272 -0.1824
 1024MOL0     C38147  10.443   4.392  -1.134 -0.3457  0.0102 -0.6422
 1024MOL0     C38148  10.483   4.263  -1.071 -0.1045  0.0562 -0.0545
 1024MOL0     C38149  10.375   4.154  -1.059  0.4558  0.3410  0.9584
 1024MOL0    Cl38150  10.275   4.127  -1.211 -0.2178  0.6447 -0.2818
 1024MOL0     C38151  10.664   4.926  -0.753 -0.5853 -0.2789  0.0931
 1024MOL0     C38152  10.702   4.986  -0.632  0.4549  0.5978 -0.7889
 1024MOL0     O38153  10.484   5.226  -0.390 -0.3238 -0.4995  0.2128
 1024MOL0     C38154  10.694   5.076  -0.136 -0.4224  0.8529  0.5244
 1024MOL0     C38155  10.703   5.060   0.001  0.0402  0.0174 -0.8392
 1024MOL0     N38156  11.086   5.565   0.379  0.1880  0.0107 -0.0969
 1024MOL0     N38157  11.147   5.578   0.492 -0.4230  0.9352  1.0075
 1024MOL0     C38158  11.118   4.609   0.554 -0.2339 -0.0878  0.3002
 1024MOL0     C38159  11.232   4.555   0.499  0.8786 -0.5088 -0.4886
 1024MOL0     C38160  11.587   4.339   0.358  0.7199  1.0801 -0.0446
 1024MOL0     C38161  11.706   4.362   0.423 -0.7298  0.1771 -0.1828
 1024MOL0     C38162  11.825   4.338   0.368  0.4323  1.0409 -0.3080
 1024MOL0     C38163  11.844   4.284   0.238  0.6911 -0.3035 -0.2071
 1024MOL0     O38164  11.967   4.246   0.183  0.7636  0.4772  0.6089
 1024MOL0     C38165  12.084   4.275   0.257 -0.1390  0.0302  0.3475
 1024MOL0     C38166  12.140   4.414   0.228 -0.2545  0.7747  0.1900
 1024MOL0     C38167  12.174   4.449   0.084  0.4181 -0.2242 -0.8447
 1024MOL0     C38168  12.272   4.342   0.020 -0.6856 -0.4681  0.0962
 1024MOL0     C38169  12.307   4.388  -0.118  0.0033 -0.0632  0.0336
 1024MOL0     C38170  12.337   4.439  -0.221 -0.2377 -0.0923 -0.3952
 1024MOL0     C38171  11.728   4.265   0.172 -0.1858  0.1613 -0.2391
 1024MOL0     C38172  11.601   4.292   0.225  0.3562  0.3160  0.2059
 1024MOL0     H38173  11.402   4.450   0.770  1.5561  1.5443 -0.6026
 1024MOL0     H38174  11.207   4.543   0.876 -0.0893 -0.6606 -0.4780
 1024MOL0     H38175  10.966   4.828   0.616 -0.4645  2.6312  2.5133
 1024MOL0     H38176  10.838   4.713   0.638 -0.2737  1.7968 -0.8874
 1024MOL0     H38177  10.763   4.911   0.750 -0.7207 -1.6722  0.1573
 1024MOL0     H38178  10.826   4.820   0.878  0.3768  2.5134  1.8711
 1024MOL0     H38179  10.974   5.010   0.918 -2.9157  0.3737 -0.3613
 1024MOL0     H38180  11.068   4.938   0.788  1.8137  3.1604  1.9694
 1024MOL0     H38181  10.922   5.091   0.631  1.1715  0.6078 -0.4024
 1024MOL0     H38182  10.869   5.151   0.784 -0.0455 -0.4293 -1.0712
 1024MOL0     H38183  11.097   5.212   0.864  0.5699  0.5502  0.1153
 1024MOL0     H38184  11.141   5.190   0.678  1.1403 -0.6409  1.2923
 1024MOL0     H38185  10.986   5.357   0.635 -1.2334  1.5234  0.4825
 1024MOL0     H38186  10.937   5.381   0.798  0.2361  0.1371 -0.0024
 1024MOL0     H38187  11.085   5.554   0.753 -1.6211 -1.7337 -1.0447
 1024MOL0     H38188  11.175   5.450   0.863  0.2791  0.0904 -0.2034
 1024MOL0     H38189  11.296   5.347   0.673 -1.2589 -0.6869 -0.4310
 1024MOL0     H38190  11.307   5.531   0.695  1.2751 -0.2223 -1.9748
 1024MOL0     H38191  11.185   5.263   0.442  1.2670  0.0201 -2.5830
 1024MOL0     H38192  11.031   5.448   0.135  3.4268  0.1786 -0.2944
 1024MOL0     H38193  11.123   5.312   0.154  2.4242  2.4314 -0.4247
 1024MOL0     H38194  10.941   5.206   0.307 -3.5107 -0.8831 -0.2715
 1024MOL0     H38195  10.905   5.238   0.137  2.2157 -0.4577 -0.1914
 1024MOL0     H38196  10.766   5.449   0.222 -1.9478 -0.7894 -0.5023
 1024MOL0     H38197  10.834   5.420   0.376 -2.6003 -1.2964  0.5141
 1024MOL0     H38198  10.596   5.325   0.318 -1.2906  0.8964 -0.6625
 1024MOL0     H38199  10.707   5.239   0.413 -3.1817  3.3511  0.6361
 1024MOL0     H38200  10.567   5.352   0.082  2.1520 -0.0541  0.4171
 1024MOL0     H38201  10.572   5.439  -0.261  3.5575 -1.4844  1.9711
 1024MOL0     H38202  10.412   5.380  -0.206  0.4197  0.5718 -4.0356
 1024MOL0     H38203  10.524   5.477  -0.094 -0.7761  3.8386 -2.9412
 1024MOL0     H38204  10.410   5.025  -0.485 -0.6755 -0.0447 -0.4916
 1024MOL0     H38205  10.334   4.962  -0.730  0.9507  1.2203 -3.6783
 1024MOL0     H38206  10.307   4.850  -0.921 -0.8031  1.1447  0.1302
 1024MOL0     H38207  10.358   5.013  -0.969 -1.5061  0.2670  2.2365
 1024MOL0     H38208  10.279   4.897  -1.169 -0.9860 -0.0601 -0.4469
 1024MOL0     H38209  10.451   4.901  -1.193 -0.4884  1.7956 -0.4743
 1024MOL0     H38210  10.295   4.683  -1.213 -1.2354  1.2018  0.8834
 1024MOL0     H38211  10.320   4.672  -1.044  1.0526 -4.0400 -0.6207
 1024MOL0     H38212  10.533   4.641  -1.246  0.0781  3.8176 -0.2078
 1024MOL0     H38213  10.587   4.704  -1.095  0.2365  0.9592 -1.1041
 1024MOL0     H38214  10.513   4.514  -0.974 -0.7075 -0.4284 -0.3770
 1024MOL0     H38215  10.646   4.476  -1.087  0.3505 -0.5505  1.6522
 1024MOL0     H38216  10.343   4.424  -1.106  0.7479  1.5854  1.8514
 1024MOL0     H38217  10.454   4.375  -1.242  2.9366 -2.0714 -0.1296
 1024MOL0     H38218  10.537   4.272  -0.976 -0.8207  1.9147  0.2077
 1024MOL0     H38219  10.557   4.214  -1.135  1.2532 -1.1888  2.3012
 1024MOL0     H38220  10.310   4.175  -0.973 -1.4021  2.0249 -0.7168
 1024MOL0     H38221  10.427   4.062  -1.034 -0.8914  0.0655  2.9956
 1024MOL0     H38222  10.747   4.897  -0.817 -0.9845  0.5626 -0.8321
 1024MOL0     H38223  10.809   4.994  -0.615  0.2172  1.1462  0.5522
 1024MOL0     H38224  10.743   5.002  -0.198 -1.6129  0.3551  0.1619
 1024MOL0     H38225  10.752   4.974   0.045 -0.3404  0.6893  0.9752
 1024MOL0     H38226  11.054   4.646   0.475  1.7937 -1.4444 -2.1328
 1024MOL0     H38227  11.243   4.548   0.391  1.2532 -0.7304 -0.4382
 1024MOL0     H38228  11.713   4.383   0.530  3.2993 -3.6414  0.5655
 1024MOL0     H38229  11.902   4.353   0.443 -0.7010  0.8531  0.9418
 1024MOL0     H38230  12.073   4.255   0.364 -1.1995 -1.8747 -0.0690
 1024MOL0     H38231  12.163   4.207   0.226  1.0412  2.1400 -1.5435
 1024MOL0     H38232  12.238   4.433   0.274  2.3423 -0.1643 -4.3143
 1024MOL0     H38233  12.067   4.483   0.270 -1.2943 -0.3506  0.2729
 1024MOL0     H38234  12.226   4.546   0.088 -0.8342  0.4201  0.9118
 1024MOL0     H38235  12.088   4.457   0.017  0.0156 -0.7416 -0.3910
 1024MOL0     H38236  12.233   4.240   0.017 -1.1756 -0.2799  0.0518
 1024MOL0     H38237  12.367   4.355   0.074  1.7988  0.9657 -4.1278
 1024MOL0     H38238  12.353   4.479  -0.319  3.7597  0.8076  0.4504
 1024MOL0     H38239  11.733   4.196   0.088  1.6192 -2.9975  2.2829
 1024MOL0     H38240  11.517   4.271   0.160  1.3684  1.8446 -1.7113
  11.47445  11.47445  11.47445
